# Probe 0 (5 -0.5 0)
# Probe 1 (5 0.5 0)
#       Probe             0             1
#        Time
        0.005     -0.904683     -0.904684
         0.01      0.155727      0.155726
        0.015     -0.044207    -0.0442065
         0.02    -0.0191518    -0.0191517
        0.025    -0.0159416    -0.0159416
         0.03    -0.0124609    -0.0124609
        0.035    -0.0103354    -0.0103353
         0.04   -0.00886251   -0.00886247
        0.045   -0.00781712   -0.00781709
         0.05   -0.00703806   -0.00703804
        0.055   -0.00643126   -0.00643123
         0.06   -0.00594699   -0.00594697
        0.065   -0.00554706   -0.00554704
         0.07   -0.00520878   -0.00520875
        0.075   -0.00491853   -0.00491851
         0.08   -0.00466304   -0.00466303
        0.085   -0.00443491   -0.00443488
         0.09   -0.00422923   -0.00422921
        0.095   -0.00404456   -0.00404454
          0.1   -0.00387492   -0.00387491
        0.105   -0.00371875   -0.00371874
         0.11   -0.00357631   -0.00357631
        0.115   -0.00344458   -0.00344456
         0.12   -0.00332062    -0.0033206
        0.125   -0.00320427   -0.00320424
         0.13   -0.00309488   -0.00309486
        0.135   -0.00299179   -0.00299178
         0.14   -0.00289599   -0.00289598
        0.145   -0.00280433   -0.00280432
         0.15   -0.00271731    -0.0027173
        0.155   -0.00263562   -0.00263561
         0.16   -0.00255736   -0.00255736
        0.165   -0.00248334   -0.00248333
         0.17   -0.00241179   -0.00241179
        0.175   -0.00234353   -0.00234353
         0.18   -0.00227784   -0.00227782
        0.185   -0.00221457   -0.00221454
         0.19   -0.00215499   -0.00215497
        0.195   -0.00209705   -0.00209703
          0.2   -0.00204108   -0.00204107
        0.205   -0.00198715   -0.00198714
         0.21   -0.00193558   -0.00193556
        0.215   -0.00188596   -0.00188595
         0.22    -0.0018375    -0.0018375
        0.225   -0.00179047   -0.00179047
         0.23   -0.00174499   -0.00174498
        0.235   -0.00170076   -0.00170076
         0.24   -0.00165757   -0.00165757
        0.245    -0.0016167   -0.00161671
         0.25    -0.0015763   -0.00157631
        0.255   -0.00153711   -0.00153711
         0.26   -0.00149859   -0.00149859
        0.265   -0.00146155   -0.00146156
         0.27   -0.00142414   -0.00142414
        0.275   -0.00139068   -0.00139066
         0.28   -0.00135584   -0.00135582
        0.285   -0.00132245   -0.00132243
         0.29   -0.00128961    -0.0012896
        0.295   -0.00125747   -0.00125746
          0.3   -0.00122568   -0.00122567
        0.305   -0.00119557   -0.00119556
         0.31   -0.00116539   -0.00116539
        0.315   -0.00113624   -0.00113623
         0.32   -0.00110738   -0.00110737
        0.325     -0.001079     -0.001079
         0.33   -0.00105142   -0.00105141
        0.335    -0.0010244    -0.0010244
         0.34  -0.000998106  -0.000998105
        0.345  -0.000971958  -0.000971957
         0.35  -0.000946255  -0.000946256
        0.355   -0.00092111  -0.000921112
         0.36  -0.000896368  -0.000896369
        0.365  -0.000871825  -0.000871824
         0.37  -0.000848244  -0.000848248
        0.375  -0.000824758  -0.000824761
         0.38  -0.000801603  -0.000801605
        0.385  -0.000778641  -0.000778644
         0.39  -0.000756386  -0.000756393
        0.395  -0.000734181  -0.000734171
          0.4  -0.000712424  -0.000712412
        0.405  -0.000691033  -0.000691023
         0.41  -0.000669877   -0.00066987
        0.415  -0.000648915  -0.000648894
         0.42  -0.000628361  -0.000628341
        0.425  -0.000608029  -0.000608012
         0.43  -0.000587925  -0.000587909
        0.435  -0.000567365  -0.000567332
         0.44  -0.000548945  -0.000548936
        0.445   -0.00052966  -0.000529649
         0.45  -0.000510514  -0.000510502
        0.455  -0.000491741   -0.00049173
         0.46  -0.000473065  -0.000473054
        0.465   -0.00045461    -0.0004546
         0.47  -0.000436411  -0.000436401
        0.475  -0.000418397  -0.000418388
         0.48  -0.000400588  -0.000400578
        0.485  -0.000382873  -0.000382864
         0.49  -0.000365394  -0.000365385
        0.495  -0.000348106  -0.000348096
          0.5  -0.000330966  -0.000330957
        0.505  -0.000313987  -0.000313978
         0.51  -0.000297136  -0.000297126
        0.515  -0.000280497  -0.000280487
         0.52  -0.000263921   -0.00026391
        0.525  -0.000247632  -0.000247623
         0.53  -0.000231379  -0.000231347
        0.535  -0.000215212  -0.000215216
         0.54  -0.000199177  -0.000199146
        0.545  -0.000183305  -0.000183287
         0.55   -0.00016811  -0.000168125
        0.555  -0.000151737  -0.000151702
         0.56  -0.000136681  -0.000136663
        0.565  -0.000121244  -0.000121228
         0.57  -0.000105602  -0.000105583
        0.575  -9.04854e-05  -9.04614e-05
         0.58  -7.53885e-05  -7.53654e-05
        0.585  -6.04013e-05  -6.03792e-05
         0.59  -4.55057e-05  -4.54845e-05
        0.595   -3.0695e-05  -3.06742e-05
          0.6  -1.60361e-05  -1.60162e-05
        0.605  -1.33542e-06  -1.31116e-06
         0.61   1.32078e-05   1.32379e-05
        0.615   2.76428e-05   2.76688e-05
         0.62   4.20267e-05   4.20518e-05
        0.625   5.63314e-05    5.6355e-05
         0.63   7.05564e-05   7.05798e-05
        0.635   8.47153e-05   8.47378e-05
         0.64   9.88072e-05   9.88292e-05
        0.645    0.00011283   0.000112851
         0.65   0.000126796   0.000126816
        0.655   0.000140724   0.000140745
         0.66   0.000154769    0.00015479
        0.665    0.00016828   0.000168299
         0.67   0.000181759    0.00018178
        0.675   0.000195459   0.000195475
         0.68   0.000209097   0.000209113
        0.685   0.000222686   0.000222702
         0.69   0.000236201   0.000236218
        0.695   0.000249662   0.000249679
          0.7   0.000263082   0.000263095
        0.705   0.000276447   0.000276455
         0.71   0.000289786   0.000289803
        0.715   0.000303088   0.000303104
         0.72   0.000316461   0.000316479
        0.725   0.000329631   0.000329643
         0.73   0.000342717   0.000342736
        0.735   0.000355812   0.000355825
         0.74   0.000368795   0.000368809
        0.745   0.000381726   0.000381741
         0.75   0.000394723   0.000394745
        0.755   0.000407725   0.000407746
         0.76   0.000420704   0.000420723
        0.765   0.000433601   0.000433621
         0.77   0.000446572   0.000446591
        0.775   0.000459299   0.000459319
         0.78   0.000472151   0.000472162
        0.785   0.000484962   0.000484975
         0.79   0.000497758   0.000497778
        0.795   0.000510549   0.000510567
          0.8    0.00052329   0.000523306
        0.805    0.00053626   0.000536267
         0.81   0.000548928    0.00054894
        0.815   0.000561547   0.000561564
         0.82   0.000574209   0.000574222
        0.825   0.000586832   0.000586847
         0.83   0.000599457   0.000599476
        0.835   0.000612097   0.000612105
         0.84   0.000624972   0.000624999
        0.845    0.00063731   0.000637317
         0.85   0.000649796   0.000649807
        0.855    0.00066227   0.000662284
         0.86   0.000674842   0.000674859
        0.865   0.000687297   0.000687305
         0.87   0.000699827   0.000699841
        0.875   0.000712165   0.000712173
         0.88   0.000724653   0.000724671
        0.885   0.000737189   0.000737192
         0.89   0.000749721   0.000749738
        0.895   0.000762098   0.000762101
          0.9   0.000774378   0.000774385
        0.905   0.000786762   0.000786768
         0.91   0.000799146   0.000799162
        0.915   0.000811646   0.000811644
         0.92   0.000824056   0.000824071
        0.925   0.000836581   0.000836585
         0.93   0.000848958   0.000848967
        0.935   0.000861338   0.000861335
         0.94   0.000873846   0.000873859
        0.945   0.000886197   0.000886205
         0.95   0.000898381    0.00089838
        0.955   0.000910627   0.000910625
         0.96   0.000922883   0.000922884
        0.965   0.000935133   0.000935148
         0.97   0.000947606   0.000947602
        0.975   0.000960043   0.000960056
         0.98   0.000972435   0.000972439
        0.985   0.000984854   0.000984853
         0.99    0.00099729   0.000997299
        0.995    0.00100958    0.00100958
            1    0.00102198    0.00102199
        1.005    0.00103439    0.00103438
         1.01    0.00104677    0.00104678
        1.015    0.00105927    0.00105926
         1.02    0.00107151    0.00107151
        1.025     0.0010839     0.0010839
         1.03    0.00109635    0.00109636
        1.035    0.00110932    0.00110929
         1.04    0.00112155    0.00112157
        1.045    0.00113316    0.00113315
         1.05    0.00114554    0.00114554
        1.055    0.00115807    0.00115808
         1.06    0.00117072    0.00117072
        1.065    0.00118316    0.00118315
         1.07    0.00119532    0.00119532
        1.075    0.00120784    0.00120785
         1.08    0.00122037    0.00122036
        1.085    0.00123273    0.00123274
         1.09    0.00124531     0.0012453
        1.095    0.00125771    0.00125772
          1.1    0.00127033    0.00127032
        1.105    0.00128301    0.00128301
         1.11    0.00129513    0.00129512
        1.115    0.00130767    0.00130768
         1.12    0.00132042    0.00132042
        1.125    0.00133299    0.00133297
         1.13    0.00134558    0.00134555
        1.135    0.00135755    0.00135761
         1.14     0.0013702    0.00137022
        1.145    0.00138323    0.00138327
         1.15    0.00139582    0.00139585
        1.155    0.00140849    0.00140851
         1.16    0.00142098    0.00142102
        1.165    0.00143359    0.00143362
         1.17    0.00144605    0.00144607
        1.175    0.00145862    0.00145865
         1.18    0.00147141    0.00147143
        1.185      0.001484    0.00148403
         1.19     0.0014967    0.00149675
        1.195    0.00150968    0.00150969
          1.2    0.00152178     0.0015218
        1.205    0.00153463    0.00153465
         1.21     0.0015474    0.00154743
        1.215    0.00156019    0.00156019
         1.22    0.00157311    0.00157314
        1.225    0.00158537    0.00158539
         1.23    0.00159818    0.00159822
        1.235    0.00161099      0.001611
         1.24    0.00162361    0.00162363
        1.245    0.00163645    0.00163646
         1.25    0.00164932    0.00164935
        1.255    0.00166225    0.00166226
         1.26    0.00167502    0.00167503
        1.265    0.00168772    0.00168775
         1.27     0.0017008    0.00170082
        1.275    0.00171349    0.00171351
         1.28    0.00172649    0.00172652
        1.285    0.00173967    0.00173968
         1.29    0.00175217    0.00175218
        1.295    0.00176517    0.00176519
          1.3    0.00177823    0.00177826
        1.305    0.00179144    0.00179144
         1.31    0.00180449    0.00180451
        1.315    0.00181715    0.00181715
         1.32    0.00183004    0.00183007
        1.325    0.00184313    0.00184314
         1.33    0.00185622    0.00185624
        1.335    0.00186934    0.00186935
         1.34    0.00188247    0.00188249
        1.345    0.00189571    0.00189572
         1.35    0.00190891    0.00190892
        1.355    0.00192173    0.00192174
         1.36    0.00193511    0.00193515
        1.365     0.0019481     0.0019481
         1.37    0.00196133    0.00196134
        1.375    0.00197464    0.00197464
         1.38    0.00198785    0.00198784
        1.385    0.00200102    0.00200106
         1.39    0.00201441     0.0020144
        1.395    0.00202781    0.00202788
          1.4      0.002041    0.00204098
        1.405    0.00205437    0.00205436
         1.41    0.00206744    0.00206745
        1.415    0.00208077    0.00208077
         1.42    0.00209406    0.00209407
        1.425    0.00210751    0.00210754
         1.43    0.00212105    0.00212105
        1.435    0.00213455    0.00213455
         1.44    0.00214795    0.00214795
        1.445    0.00216131    0.00216132
         1.45    0.00217479    0.00217481
        1.455    0.00218847    0.00218847
         1.46     0.0022018    0.00220182
        1.465    0.00221544    0.00221547
         1.47    0.00222904    0.00222903
        1.475     0.0022425     0.0022425
         1.48    0.00225613    0.00225614
        1.485    0.00226979     0.0022698
         1.49    0.00228355    0.00228355
        1.495    0.00229722    0.00229723
          1.5    0.00231087    0.00231084
        1.505    0.00232441    0.00232444
         1.51    0.00233821    0.00233825
        1.515    0.00235204    0.00235204
         1.52    0.00236573    0.00236578
        1.525     0.0023796     0.0023796
         1.53    0.00239349     0.0023935
        1.535    0.00240726    0.00240729
         1.54    0.00242103    0.00242103
        1.545    0.00243494    0.00243495
         1.55    0.00244887    0.00244887
        1.555    0.00246275    0.00246277
         1.56    0.00247672    0.00247673
        1.565    0.00249051    0.00249052
         1.57    0.00250443    0.00250444
        1.575    0.00251836    0.00251837
         1.58    0.00253242    0.00253244
        1.585    0.00254654    0.00254653
         1.59    0.00256066    0.00256068
        1.595     0.0025747     0.0025747
          1.6    0.00258875    0.00258879
        1.605    0.00260284    0.00260284
         1.61    0.00261689     0.0026169
        1.615    0.00263151     0.0026315
         1.62    0.00264562    0.00264571
        1.625    0.00265998    0.00265997
         1.63    0.00267411    0.00267415
        1.635    0.00268834    0.00268834
         1.64    0.00270259    0.00270264
        1.645    0.00271694    0.00271693
         1.65     0.0027312    0.00273125
        1.655    0.00274564    0.00274564
         1.66    0.00275995    0.00275996
        1.665    0.00277432    0.00277434
         1.67     0.0027888    0.00278882
        1.675    0.00280311    0.00280314
         1.68    0.00281756    0.00281756
        1.685    0.00283204    0.00283206
         1.69    0.00284654    0.00284654
        1.695    0.00286096    0.00286098
          1.7    0.00287545    0.00287546
        1.705    0.00289001    0.00289003
         1.71    0.00290458    0.00290457
        1.715    0.00291918    0.00291922
         1.72    0.00293389     0.0029339
        1.725    0.00294851    0.00294853
         1.73    0.00296317    0.00296318
        1.735     0.0029779    0.00297791
         1.74    0.00299263    0.00299263
        1.745     0.0030074    0.00300742
         1.75    0.00302214    0.00302216
        1.755    0.00303691    0.00303692
         1.76    0.00305172    0.00305174
        1.765    0.00306658     0.0030666
         1.77    0.00308145    0.00308147
        1.775    0.00309636    0.00309636
         1.78    0.00311126    0.00311128
        1.785    0.00312617    0.00312618
         1.79    0.00314108    0.00314111
        1.795    0.00315607    0.00315607
          1.8    0.00317108    0.00317109
        1.805    0.00318615    0.00318617
         1.81    0.00320116    0.00320118
        1.815    0.00321621    0.00321622
         1.82    0.00323126    0.00323127
        1.825    0.00324619     0.0032462
         1.83    0.00326151    0.00326152
        1.835    0.00327672    0.00327674
         1.84    0.00329189    0.00329191
        1.845    0.00330713    0.00330715
         1.85    0.00332232    0.00332234
        1.855     0.0033375    0.00333751
         1.86    0.00335297    0.00335298
        1.865     0.0033683    0.00336831
         1.87    0.00338363    0.00338364
        1.875    0.00339898    0.00339899
         1.88    0.00341437    0.00341438
        1.885    0.00342978     0.0034298
         1.89    0.00344521    0.00344521
        1.895    0.00346063    0.00346065
          1.9    0.00347611    0.00347613
        1.905    0.00349161    0.00349162
         1.91    0.00350716    0.00350717
        1.915    0.00352271    0.00352272
         1.92    0.00353817    0.00353818
        1.925    0.00355395    0.00355397
         1.93    0.00356965    0.00356967
        1.935    0.00358529    0.00358531
         1.94    0.00360095    0.00360097
        1.945    0.00361666    0.00361667
         1.95    0.00363241    0.00363242
        1.955    0.00364818    0.00364819
         1.96    0.00366387    0.00366389
        1.965     0.0036797    0.00367973
         1.97    0.00369555    0.00369555
        1.975    0.00371147    0.00371145
         1.98    0.00372738    0.00372738
        1.985    0.00374332    0.00374334
         1.99    0.00375921    0.00375922
        1.995    0.00377528    0.00377529
            2    0.00379094    0.00379096
        2.005    0.00380685    0.00380687
         2.01    0.00382298      0.003823
        2.015     0.0038391    0.00383912
         2.02    0.00385529     0.0038553
        2.025    0.00387157    0.00387159
         2.03    0.00388726    0.00388727
        2.035    0.00390328    0.00390331
         2.04    0.00391955    0.00391957
        2.045    0.00393599      0.003936
         2.05    0.00395225    0.00395226
        2.055    0.00396851    0.00396852
         2.06    0.00398479    0.00398481
        2.065    0.00400112    0.00400111
         2.07    0.00401744    0.00401747
        2.075    0.00403385    0.00403386
         2.08    0.00405027    0.00405029
        2.085     0.0040667     0.0040667
         2.09    0.00408315    0.00408316
        2.095    0.00409977    0.00409977
          2.1    0.00411587    0.00411589
        2.105    0.00413231    0.00413232
         2.11    0.00414892    0.00414893
        2.115    0.00416545    0.00416546
         2.12    0.00418206    0.00418208
        2.125     0.0041987    0.00419873
         2.13    0.00421538    0.00421538
        2.135    0.00423205    0.00423206
         2.14    0.00424875    0.00424875
        2.145    0.00426545    0.00426547
         2.15    0.00428223    0.00428224
        2.155    0.00429901    0.00429902
         2.16    0.00431579    0.00431582
        2.165    0.00433261    0.00433262
         2.17    0.00434948    0.00434948
        2.175    0.00436635    0.00436636
         2.18    0.00438324    0.00438325
        2.185    0.00440022    0.00440022
         2.19    0.00441716    0.00441717
        2.195    0.00443415    0.00443415
          2.2    0.00445117    0.00445119
        2.205    0.00446826    0.00446827
         2.21     0.0044854    0.00448541
        2.215    0.00450239     0.0045024
         2.22    0.00451946    0.00451946
        2.225    0.00453629    0.00453629
         2.23    0.00455343    0.00455343
        2.235    0.00457061    0.00457061
         2.24    0.00458785    0.00458786
        2.245    0.00460511    0.00460512
         2.25    0.00462257    0.00462257
        2.255    0.00463985    0.00463986
         2.26    0.00465714    0.00465715
        2.265    0.00467447    0.00467448
         2.27    0.00469185    0.00469185
        2.275    0.00470926    0.00470926
         2.28    0.00472667    0.00472667
        2.285    0.00474409     0.0047441
         2.29    0.00476143    0.00476145
        2.295    0.00477912    0.00477911
          2.3     0.0047971    0.00479711
        2.305    0.00481455    0.00481456
         2.31    0.00483213    0.00483215
        2.315    0.00484976    0.00484978
         2.32    0.00486736    0.00486738
        2.325    0.00488506    0.00488506
         2.33    0.00490267    0.00490269
        2.335    0.00492029    0.00492031
         2.34    0.00493793    0.00493794
        2.345     0.0049557    0.00495572
         2.35    0.00497349     0.0049735
        2.355    0.00499131    0.00499133
         2.36    0.00500915    0.00500915
        2.365    0.00502699    0.00502702
         2.37    0.00504487    0.00504489
        2.375    0.00506277    0.00506278
         2.38    0.00508072    0.00508074
        2.385     0.0050987    0.00509871
         2.39    0.00511678    0.00511679
        2.395    0.00513468    0.00513469
          2.4    0.00515273    0.00515275
        2.405    0.00517084    0.00517084
         2.41    0.00518895    0.00518897
        2.415    0.00520712    0.00520713
         2.42    0.00522522    0.00522523
        2.425    0.00524356    0.00524356
         2.43     0.0052616    0.00526161
        2.435    0.00527977    0.00527977
         2.44    0.00529779     0.0052978
        2.445    0.00531606    0.00531606
         2.45    0.00533435    0.00533437
        2.455    0.00535262    0.00535263
         2.46    0.00537101    0.00537101
        2.465    0.00538943    0.00538944
         2.47    0.00540786    0.00540787
        2.475    0.00542633    0.00542633
         2.48    0.00544481    0.00544481
        2.485    0.00546327    0.00546328
         2.49    0.00548175    0.00548175
        2.495    0.00550026    0.00550028
          2.5    0.00551883    0.00551883
        2.505    0.00553738    0.00553738
         2.51    0.00555613    0.00555614
        2.515    0.00557455    0.00557456
         2.52    0.00559325    0.00559326
        2.525    0.00561196    0.00561197
         2.53    0.00563068    0.00563068
        2.535    0.00564942    0.00564942
         2.54     0.0056682    0.00566821
        2.545    0.00568699    0.00568699
         2.55    0.00570581    0.00570582
        2.555    0.00572461    0.00572463
         2.56    0.00574347    0.00574347
        2.565    0.00576236    0.00576237
         2.57    0.00578128    0.00578129
        2.575    0.00580024    0.00580024
         2.58    0.00581919     0.0058192
        2.585    0.00583817    0.00583818
         2.59    0.00585754    0.00585756
        2.595    0.00587618    0.00587621
          2.6    0.00589535    0.00589537
        2.605    0.00591438    0.00591439
         2.61    0.00593352    0.00593354
        2.615    0.00595262    0.00595264
         2.62    0.00597179    0.00597181
        2.625    0.00599096    0.00599098
         2.63    0.00601015    0.00601017
        2.635     0.0060294    0.00602941
         2.64    0.00604848     0.0060485
        2.645    0.00606821    0.00606822
         2.65      0.006087    0.00608702
        2.655     0.0061069    0.00610692
         2.66    0.00612632    0.00612633
        2.665    0.00614527    0.00614529
         2.67    0.00616493    0.00616494
        2.675    0.00618396    0.00618397
         2.68    0.00620383    0.00620385
        2.685    0.00622305    0.00622307
         2.69    0.00624253    0.00624254
        2.695    0.00626222    0.00626223
          2.7    0.00628159    0.00628162
        2.705    0.00630121    0.00630122
         2.71    0.00632092    0.00632094
        2.715    0.00634045    0.00634047
         2.72    0.00636008    0.00636011
        2.725    0.00637976    0.00637978
         2.73    0.00639944    0.00639947
        2.735    0.00641919     0.0064192
         2.74    0.00643895    0.00643896
        2.745     0.0064587    0.00645871
         2.75    0.00647839    0.00647841
        2.755    0.00649831    0.00649833
         2.76    0.00651807    0.00651808
        2.765    0.00653795    0.00653796
         2.77     0.0065579    0.00655792
        2.775    0.00657768    0.00657769
         2.78    0.00659751    0.00659752
        2.785    0.00661784    0.00661786
         2.79    0.00663742    0.00663744
        2.795    0.00665766    0.00665767
          2.8     0.0066776    0.00667761
        2.805    0.00669764    0.00669766
         2.81    0.00671772    0.00671774
        2.815     0.0067378    0.00673781
         2.82    0.00675793    0.00675795
        2.825    0.00677812    0.00677813
         2.83    0.00679842    0.00679843
        2.835    0.00681851    0.00681852
         2.84     0.0068387    0.00683872
        2.845    0.00685868     0.0068587
         2.85    0.00687885    0.00687887
        2.855    0.00689922    0.00689923
         2.86    0.00691943    0.00691945
        2.865    0.00693974    0.00693975
         2.87    0.00696003    0.00696005
        2.875    0.00698008    0.00698009
         2.88    0.00700063    0.00700065
        2.885    0.00702099    0.00702101
         2.89    0.00704144    0.00704145
        2.895    0.00706181    0.00706182
          2.9    0.00708261     0.0070826
        2.905    0.00710253    0.00710256
         2.91    0.00712338     0.0071234
        2.915     0.0071443    0.00714429
         2.92    0.00716453    0.00716454
        2.925    0.00718459    0.00718462
         2.93     0.0072057    0.00720569
        2.935    0.00722606    0.00722606
         2.94    0.00724676    0.00724677
        2.945    0.00726725    0.00726725
         2.95    0.00728794    0.00728794
        2.955    0.00730862    0.00730862
         2.96    0.00732924    0.00732924
        2.965    0.00734994    0.00734994
         2.97    0.00737066    0.00737067
        2.975    0.00739141    0.00739141
         2.98    0.00741217    0.00741217
        2.985    0.00743295    0.00743296
         2.99    0.00745375    0.00745376
        2.995    0.00747454    0.00747454
            3    0.00749535    0.00749535
        3.005    0.00751618    0.00751618
         3.01    0.00753702    0.00753703
        3.015    0.00755784    0.00755784
         3.02     0.0075787    0.00757871
        3.025    0.00759963    0.00759964
         3.03    0.00762063    0.00762063
        3.035    0.00764151    0.00764151
         3.04    0.00766237    0.00766238
        3.045    0.00768329    0.00768329
         3.05    0.00770427    0.00770427
        3.055    0.00772525    0.00772524
         3.06    0.00774605    0.00774603
        3.065    0.00776706    0.00776709
         3.07     0.0077889    0.00778891
        3.075    0.00780955    0.00780955
         3.08    0.00783062    0.00783062
        3.085    0.00785169     0.0078517
         3.09     0.0078728     0.0078728
        3.095    0.00789387    0.00789387
          3.1    0.00791499    0.00791499
        3.105    0.00793605    0.00793605
         3.11    0.00795732    0.00795732
        3.115    0.00797857    0.00797857
         3.12    0.00799971    0.00799971
        3.125    0.00802088    0.00802089
         3.13    0.00804207    0.00804207
        3.135    0.00806317    0.00806316
         3.14    0.00808454    0.00808454
        3.145    0.00810578    0.00810578
         3.15    0.00812698    0.00812698
        3.155    0.00814824    0.00814824
         3.16    0.00816955    0.00816955
        3.165    0.00819079    0.00819079
         3.17    0.00821209     0.0082121
        3.175    0.00823341    0.00823341
         3.18     0.0082547     0.0082547
        3.185    0.00827601    0.00827602
         3.19    0.00829735    0.00829737
        3.195    0.00831872    0.00831872
          3.2    0.00834004    0.00834004
        3.205    0.00836141    0.00836141
         3.21    0.00838276    0.00838276
        3.215    0.00840414    0.00840414
         3.22    0.00842552    0.00842552
        3.225    0.00844692    0.00844692
         3.23    0.00846831    0.00846831
        3.235    0.00848974    0.00848974
         3.24    0.00851114    0.00851113
        3.245    0.00853251    0.00853251
         3.25    0.00855391    0.00855392
        3.255    0.00857536    0.00857535
         3.26    0.00859681    0.00859681
        3.265    0.00861815    0.00861816
         3.27    0.00863954    0.00863954
        3.275    0.00866066    0.00866066
         3.28    0.00868255    0.00868254
        3.285    0.00870412    0.00870411
         3.29    0.00872564    0.00872564
        3.295    0.00874695    0.00874695
          3.3    0.00876841    0.00876841
        3.305    0.00878986    0.00878986
         3.31    0.00881133    0.00881133
        3.315    0.00883277    0.00883277
         3.32    0.00885425    0.00885425
        3.325    0.00887574    0.00887574
         3.33    0.00889718    0.00889717
        3.335    0.00891865    0.00891865
         3.34    0.00894012    0.00894012
        3.345    0.00896158    0.00896157
         3.35    0.00898305    0.00898305
        3.355    0.00900453    0.00900452
         3.36    0.00902598    0.00902598
        3.365    0.00904742    0.00904742
         3.37    0.00906888    0.00906887
        3.375    0.00909035    0.00909035
         3.38    0.00911172    0.00911173
        3.385    0.00913319    0.00913319
         3.39    0.00915462    0.00915462
        3.395    0.00917644    0.00917644
          3.4    0.00919785    0.00919784
        3.405    0.00921928    0.00921927
         3.41     0.0092407     0.0092407
        3.415    0.00926212    0.00926211
         3.42    0.00928353    0.00928352
        3.425    0.00930492    0.00930492
         3.43     0.0093263     0.0093263
        3.435    0.00934768    0.00934768
         3.44    0.00936906    0.00936905
        3.445    0.00939044    0.00939043
         3.45    0.00941182    0.00941183
        3.455    0.00943304    0.00943304
         3.46    0.00945412    0.00945413
        3.465    0.00947582    0.00947583
         3.47    0.00949709    0.00949708
        3.475    0.00951838    0.00951837
         3.48    0.00953966    0.00953965
        3.485    0.00956095    0.00956095
         3.49    0.00958225    0.00958224
        3.495    0.00960342    0.00960342
          3.5    0.00962457    0.00962456
        3.505    0.00964577    0.00964576
         3.51    0.00966693    0.00966693
        3.515     0.0096882    0.00968819
         3.52    0.00970937    0.00970936
        3.525    0.00973051     0.0097305
         3.53    0.00975164    0.00975163
        3.535    0.00977276    0.00977275
         3.54    0.00979385    0.00979385
        3.545    0.00981493    0.00981492
         3.55    0.00983599    0.00983599
        3.555    0.00985704    0.00985703