# Probe 0 (5 -0.5 0)
# Probe 1 (5 0.5 0)
#       Probe             0             1
#        Time
        0.005             (0.996646 0.0022851 7.07586e-20)             (0.996646 -0.0022851 -7.76802e-20)
         0.01             (0.996953 0.00137878 -1.21632e-20)             (0.996953 -0.00137878 1.33706e-20)
        0.015             (0.996809 0.00146214 3.45303e-21)             (0.996809 -0.00146214 -3.78769e-21)
         0.02             (0.996713 0.00148609 1.49655e-21)             (0.996713 -0.00148609 -1.64207e-21)
        0.025             (0.996635 0.00150795 1.24629e-21)             (0.996635 -0.00150796 -1.36727e-21)
         0.03             (0.99657 0.00152617 9.74247e-22)             (0.99657 -0.00152617 -1.06878e-21)
        0.035             (0.996513 0.00154313 8.08246e-22)             (0.996513 -0.00154313 -8.86667e-22)
         0.04             (0.996463 0.00155947 6.93147e-22)             (0.996463 -0.00155948 -7.60418e-22)
        0.045             (0.996417 0.0015755 6.11445e-22)             (0.996417 -0.00157551 -6.70808e-22)
         0.05             (0.996373 0.00159131 5.50594e-22)             (0.996373 -0.00159132 -6.04064e-22)
        0.055             (0.996332 0.00160684 5.03101e-22)             (0.996332 -0.00160685 -5.51976e-22)
         0.06             (0.996293 0.00162213 4.65196e-22)             (0.996293 -0.00162214 -5.10404e-22)
        0.065             (0.996255 0.00163717 4.33859e-22)             (0.996255 -0.00163717 -4.76037e-22)
         0.07             (0.996219 0.00165196 4.07286e-22)             (0.996219 -0.00165196 -4.46897e-22)
        0.075             (0.996183 0.0016665 3.84724e-22)             (0.996183 -0.00166651 -4.2213e-22)
         0.08             (0.996149 0.00168083 3.64747e-22)             (0.996149 -0.00168084 -4.00214e-22)
        0.085             (0.996115 0.00169493 3.4688e-22)             (0.996115 -0.00169494 -3.80613e-22)
         0.09             (0.996082 0.0017088 3.30771e-22)             (0.996082 -0.00170881 -3.62941e-22)
        0.095             (0.99605 0.0017225 3.16322e-22)             (0.99605 -0.00172251 -3.47088e-22)
          0.1             (0.996018 0.00173603 3.0305e-22)             (0.996018 -0.00173604 -3.32527e-22)
        0.105             (0.995986 0.00174945 2.90843e-22)             (0.995986 -0.00174947 -3.19135e-22)
         0.11             (0.995956 0.00176266 2.79652e-22)             (0.995956 -0.00176267 -3.06857e-22)
        0.115             (0.995925 0.00177563 2.69305e-22)             (0.995925 -0.00177565 -2.95502e-22)
         0.12             (0.995895 0.0017885 2.59633e-22)             (0.995895 -0.00178851 -2.84889e-22)
        0.125             (0.995865 0.00180125 2.50531e-22)             (0.995865 -0.00180126 -2.749e-22)
         0.13             (0.995836 0.00181388 2.41971e-22)             (0.995836 -0.0018139 -2.65508e-22)
        0.135             (0.995807 0.00182641 2.33905e-22)             (0.995807 -0.00182642 -2.56657e-22)
         0.14             (0.995778 0.00183886 2.26421e-22)             (0.995778 -0.00183887 -2.48445e-22)
        0.145             (0.99575 0.00185122 2.19253e-22)             (0.99575 -0.00185123 -2.40579e-22)
         0.15             (0.995722 0.0018635 2.12464e-22)             (0.995722 -0.00186351 -2.33127e-22)
        0.155             (0.995694 0.00187569 2.06046e-22)             (0.995694 -0.00187571 -2.26088e-22)
         0.16             (0.995666 0.0018878 1.99875e-22)             (0.995666 -0.00188781 -2.19321e-22)
        0.165             (0.995638 0.00189987 1.94142e-22)             (0.995638 -0.00189988 -2.13024e-22)
         0.17             (0.995611 0.00191186 1.88539e-22)             (0.995611 -0.00191188 -2.06876e-22)
        0.175             (0.995584 0.0019238 1.83193e-22)             (0.995584 -0.00192382 -2.01011e-22)
         0.18             (0.995556 0.00193568 1.78048e-22)             (0.995556 -0.0019357 -1.95363e-22)
        0.185             (0.99553 0.00194749 1.73092e-22)             (0.99553 -0.00194751 -1.89924e-22)
         0.19             (0.995503 0.00195928 1.6844e-22)             (0.995503 -0.0019593 -1.8482e-22)
        0.195             (0.995476 0.00197102 1.63904e-22)             (0.995476 -0.00197104 -1.79842e-22)
          0.2             (0.99545 0.00198271 1.59523e-22)             (0.99545 -0.00198273 -1.75035e-22)
        0.205             (0.995423 0.00199437 1.5531e-22)             (0.995423 -0.00199439 -1.70411e-22)
         0.21             (0.995397 0.00200599 1.512e-22)             (0.995397 -0.00200601 -1.65909e-22)
        0.215             (0.995371 0.00201758 1.47374e-22)             (0.995371 -0.00201761 -1.61706e-22)
         0.22             (0.995345 0.00202915 1.43609e-22)             (0.995345 -0.00202917 -1.5757e-22)
        0.225             (0.995319 0.00204068 1.39926e-22)             (0.995319 -0.0020407 -1.53529e-22)
         0.23             (0.995293 0.00205218 1.36363e-22)             (0.995293 -0.00205221 -1.4962e-22)
        0.235             (0.995267 0.00206366 1.32899e-22)             (0.995267 -0.00206368 -1.45819e-22)
         0.24             (0.995241 0.0020751 1.2951e-22)             (0.995241 -0.00207512 -1.421e-22)
        0.245             (0.995215 0.00208654 1.26328e-22)             (0.995215 -0.00208657 -1.38608e-22)
         0.25             (0.99519 0.00209796 1.23165e-22)             (0.99519 -0.00209799 -1.35137e-22)
        0.255             (0.995164 0.00210937 1.20096e-22)             (0.995164 -0.0021094 -1.31769e-22)
         0.26             (0.995139 0.00212076 1.17087e-22)             (0.995139 -0.00212079 -1.28466e-22)
        0.265             (0.995113 0.00213215 1.14185e-22)             (0.995113 -0.00213218 -1.25283e-22)
         0.27             (0.995088 0.00214363 1.11295e-22)             (0.995088 -0.00214366 -1.22112e-22)
        0.275             (0.995062 0.00215494 1.08609e-22)             (0.995062 -0.00215496 -1.19163e-22)
         0.28             (0.995037 0.00216624 1.05891e-22)             (0.995037 -0.00216627 -1.16179e-22)
        0.285             (0.995012 0.00217754 1.03282e-22)             (0.995012 -0.00217757 -1.13316e-22)
         0.29             (0.994987 0.00218885 1.00716e-22)             (0.994987 -0.00218888 -1.105e-22)
        0.295             (0.994961 0.00220015 9.82012e-23)             (0.994961 -0.00220018 -1.07741e-22)
          0.3             (0.994936 0.00221143 9.56973e-23)             (0.994936 -0.00221147 -1.04994e-22)
        0.305             (0.994911 0.00222275 9.3376e-23)             (0.994911 -0.00222278 -1.02444e-22)
         0.31             (0.994886 0.00223405 9.10137e-23)             (0.994886 -0.00223409 -9.98516e-23)
        0.315             (0.994861 0.00224536 8.87284e-23)             (0.994861 -0.00224539 -9.73443e-23)
         0.32             (0.994836 0.00225667 8.64693e-23)             (0.994836 -0.0022567 -9.48652e-23)
        0.325             (0.994811 0.00226797 8.42506e-23)             (0.994811 -0.002268 -9.24298e-23)
         0.33             (0.994785 0.00227928 8.20932e-23)             (0.994785 -0.00227931 -9.00621e-23)
        0.335             (0.99476 0.00229059 7.99901e-23)             (0.99476 -0.00229062 -8.77533e-23)
         0.34             (0.994735 0.0023019 7.79035e-23)             (0.994735 -0.00230194 -8.54665e-23)
        0.345             (0.99471 0.00231322 7.58603e-23)             (0.99471 -0.00231325 -8.32238e-23)
         0.35             (0.994685 0.00232454 7.38506e-23)             (0.994685 -0.00232457 -8.10181e-23)
        0.355             (0.99466 0.00233586 7.18829e-23)             (0.99466 -0.0023359 -7.88588e-23)
         0.36             (0.994635 0.0023472 6.9943e-23)             (0.994635 -0.00234723 -7.67301e-23)
        0.365             (0.99461 0.00235853 6.7979e-23)             (0.99461 -0.00235856 -7.45782e-23)
         0.37             (0.994585 0.00236988 6.61848e-23)             (0.994585 -0.00236992 -7.26055e-23)
        0.375             (0.99456 0.00238124 6.43552e-23)             (0.99456 -0.00238128 -7.05966e-23)
         0.38             (0.994535 0.00239261 6.25431e-23)             (0.994535 -0.00239265 -6.86077e-23)
        0.385             (0.99451 0.00240399 6.0746e-23)             (0.99451 -0.00240403 -6.66355e-23)
         0.39             (0.994485 0.00241537 5.90057e-23)             (0.994485 -0.00241541 -6.47255e-23)
        0.395             (0.99446 0.00242677 5.7267e-23)             (0.99446 -0.00242681 -6.28161e-23)
          0.4             (0.994435 0.00243818 5.55686e-23)             (0.994435 -0.00243822 -6.09515e-23)
        0.405             (0.994409 0.0024496 5.38888e-23)             (0.99441 -0.00244964 -5.91088e-23)
         0.41             (0.994384 0.00246103 5.22337e-23)             (0.994384 -0.00246107 -5.72924e-23)
        0.415             (0.994359 0.00247248 5.05941e-23)             (0.994359 -0.00247252 -5.54918e-23)
         0.42             (0.994334 0.00248394 4.89865e-23)             (0.994334 -0.00248398 -5.37276e-23)
        0.425             (0.994309 0.00249541 4.73963e-23)             (0.994309 -0.00249545 -5.19827e-23)
         0.43             (0.994284 0.0025069 4.58248e-23)             (0.994284 -0.00250695 -5.0258e-23)
        0.435             (0.994259 0.00251844 4.42402e-23)             (0.994259 -0.00251848 -4.85192e-23)
         0.44             (0.994233 0.00252994 4.27669e-23)             (0.994233 -0.00252998 -4.69033e-23)
        0.445             (0.994208 0.00254146 4.1261e-23)             (0.994208 -0.00254151 -4.52499e-23)
         0.45             (0.994183 0.00255301 3.97634e-23)             (0.994183 -0.00255305 -4.3606e-23)
        0.455             (0.994157 0.00256457 3.82949e-23)             (0.994157 -0.00256462 -4.19941e-23)
         0.46             (0.994132 0.00257616 3.68344e-23)             (0.994132 -0.00257621 -4.03911e-23)
        0.465             (0.994107 0.00258776 3.53905e-23)             (0.994107 -0.00258781 -3.88063e-23)
         0.47             (0.994081 0.00259938 3.39666e-23)             (0.994081 -0.00259943 -3.72436e-23)
        0.475             (0.994056 0.00261102 3.25569e-23)             (0.994056 -0.00261107 -3.56964e-23)
         0.48             (0.994031 0.00262268 3.11634e-23)             (0.994031 -0.00262273 -3.4167e-23)
        0.485             (0.994005 0.00263436 2.97773e-23)             (0.994005 -0.00263441 -3.26457e-23)
         0.49             (0.99398 0.00264606 2.84096e-23)             (0.99398 -0.00264611 -3.11446e-23)
        0.495             (0.993954 0.00265778 2.70568e-23)             (0.993954 -0.00265783 -2.96598e-23)
          0.5             (0.993928 0.00266952 2.57155e-23)             (0.993928 -0.00266957 -2.81878e-23)
        0.505             (0.993903 0.00268128 2.43867e-23)             (0.993903 -0.00268133 -2.67293e-23)
         0.51             (0.993877 0.00269305 2.306e-23)             (0.993877 -0.00269311 -2.52736e-23)
        0.515             (0.993852 0.00270486 2.17645e-23)             (0.993852 -0.00270491 -2.38515e-23)
         0.52             (0.993826 0.00271668 2.04695e-23)             (0.993826 -0.00271674 -2.24298e-23)
        0.525             (0.9938 0.00272853 1.91954e-23)             (0.9938 -0.00272859 -2.10315e-23)
         0.53             (0.993774 0.0027404 1.7924e-23)             (0.993774 -0.00274046 -1.96342e-23)
        0.535             (0.993748 0.0027523 1.6659e-23)             (0.993748 -0.00275235 -1.82487e-23)
         0.54             (0.993723 0.00276421 1.54044e-23)             (0.993723 -0.00276427 -1.68689e-23)
        0.545             (0.993697 0.00277615 1.41625e-23)             (0.993697 -0.00277621 -1.55067e-23)
         0.55             (0.993671 0.00278811 1.29718e-23)             (0.993671 -0.00278817 -1.42027e-23)
        0.555             (0.993645 0.0028001 1.16943e-23)             (0.993645 -0.00280016 -1.27961e-23)
         0.56             (0.993619 0.00281211 1.05143e-23)             (0.993619 -0.00281217 -1.15026e-23)
        0.565             (0.993593 0.00282415 9.30653e-24)             (0.993593 -0.00282421 -1.01771e-23)
         0.57             (0.993567 0.00283621 8.08256e-24)             (0.993567 -0.00283627 -8.83349e-24)
        0.575             (0.99354 0.0028483 6.89963e-24)             (0.99354 -0.00284836 -7.53466e-24)
         0.58             (0.993514 0.00286041 5.71838e-24)             (0.993514 -0.00286047 -6.2382e-24)
        0.585             (0.993488 0.00287255 4.54567e-24)             (0.993488 -0.00287261 -4.95113e-24)
         0.59             (0.993462 0.00288471 3.38003e-24)             (0.993462 -0.00288477 -3.67181e-24)
        0.595             (0.993435 0.0028969 2.2211e-24)             (0.993435 -0.00289696 -2.3998e-24)
          0.6             (0.993409 0.00290911 1.07401e-24)             (0.993409 -0.00290918 -1.14085e-24)
        0.605             (0.993383 0.00292136 -7.63059e-26)             (0.993383 -0.00292142 1.22152e-25)
         0.61             (0.993356 0.00293363 -1.21427e-24)             (0.993356 -0.00293369 1.37164e-24)
        0.615             (0.99333 0.00294593 -2.34399e-24)             (0.99333 -0.00294599 2.61128e-24)
         0.62             (0.993303 0.00295825 -3.46953e-24)             (0.993303 -0.00295832 3.84659e-24)
        0.625             (0.993276 0.0029706 -4.58897e-24)             (0.993276 -0.00297067 5.07516e-24)
         0.63             (0.99325 0.00298299 -5.70216e-24)             (0.99325 -0.00298305 6.297e-24)
        0.635             (0.993223 0.0029954 -6.81042e-24)             (0.993223 -0.00299546 7.51337e-24)
         0.64             (0.993196 0.00300783 -7.91504e-24)             (0.993196 -0.0030079 8.72557e-24)
        0.645             (0.993169 0.0030203 -9.01198e-24)             (0.993169 -0.00302037 9.9295e-24)
         0.65             (0.993143 0.0030328 -1.01037e-23)             (0.993143 -0.00303287 1.11278e-23)
        0.655             (0.993116 0.00304532 -1.11935e-23)             (0.993116 -0.0030454 1.23242e-23)
         0.66             (0.993089 0.00305788 -1.22928e-23)             (0.993089 -0.00305795 1.35307e-23)
        0.665             (0.993062 0.00307047 -1.33548e-23)             (0.993062 -0.00307054 1.46959e-23)
         0.67             (0.993034 0.00308308 -1.44046e-23)             (0.993035 -0.00308315 1.58486e-23)
        0.675             (0.993007 0.00309573 -1.54767e-23)             (0.993007 -0.0030958 1.7025e-23)
         0.68             (0.99298 0.0031084 -1.6544e-23)             (0.99298 -0.00310848 1.81965e-23)
        0.685             (0.992953 0.00312111 -1.76061e-23)             (0.992953 -0.00312119 1.93625e-23)
         0.69             (0.992926 0.00313385 -1.86639e-23)             (0.992926 -0.00313392 2.05236e-23)
        0.695             (0.992898 0.00314662 -1.9718e-23)             (0.992898 -0.00314669 2.16805e-23)
          0.7             (0.992871 0.00315942 -2.07675e-23)             (0.992871 -0.0031595 2.28322e-23)
        0.705             (0.992843 0.00317225 -2.18134e-23)             (0.992843 -0.00317233 2.39797e-23)
         0.71             (0.992816 0.00318512 -2.28563e-23)             (0.992816 -0.00318519 2.51252e-23)
        0.715             (0.992788 0.00319801 -2.38967e-23)             (0.992788 -0.00319809 2.62669e-23)
         0.72             (0.992761 0.00321095 -2.49394e-23)             (0.992761 -0.00321103 2.74105e-23)
        0.725             (0.992733 0.00322392 -2.59711e-23)             (0.992733 -0.003224 2.85428e-23)
         0.73             (0.992705 0.00323691 -2.69985e-23)             (0.992705 -0.00323699 2.9672e-23)
        0.735             (0.992677 0.00324993 -2.80241e-23)             (0.992677 -0.00325001 3.07972e-23)
         0.74             (0.992649 0.00326298 -2.90404e-23)             (0.992649 -0.00326306 3.19128e-23)
        0.745             (0.992621 0.00327607 -3.00533e-23)             (0.992621 -0.00327616 3.30247e-23)
         0.75             (0.992593 0.0032892 -3.10707e-23)             (0.992593 -0.00328928 3.41421e-23)
        0.755             (0.992565 0.00330235 -3.20913e-23)             (0.992565 -0.00330244 3.52621e-23)
         0.76             (0.992537 0.00331555 -3.31168e-23)             (0.992537 -0.00331563 3.6386e-23)
        0.765             (0.992509 0.00332877 -3.41114e-23)             (0.992509 -0.00332886 3.748e-23)
         0.77             (0.992481 0.00334203 -3.51261e-23)             (0.992481 -0.00334212 3.85936e-23)
        0.775             (0.992453 0.00335533 -3.61228e-23)             (0.992453 -0.00335541 3.96877e-23)
         0.78             (0.992424 0.00336866 -3.71292e-23)             (0.992424 -0.00336874 4.07914e-23)
        0.785             (0.992396 0.00338202 -3.81298e-23)             (0.992396 -0.00338211 4.18902e-23)
         0.79             (0.992367 0.00339542 -3.91284e-23)             (0.992367 -0.00339551 4.29874e-23)
        0.795             (0.992339 0.00340886 -4.01291e-23)             (0.992339 -0.00340895 4.40856e-23)
          0.8             (0.99231 0.00342233 -4.11237e-23)             (0.99231 -0.00342242 4.51773e-23)
        0.805             (0.992281 0.00343588 -4.20825e-23)             (0.992281 -0.00343596 4.62343e-23)
         0.81             (0.992253 0.0034494 -4.31353e-23)             (0.992253 -0.00344949 4.73852e-23)
        0.815             (0.992224 0.00346296 -4.41235e-23)             (0.992224 -0.00346305 4.84701e-23)
         0.82             (0.992195 0.00347657 -4.51155e-23)             (0.992195 -0.00347666 4.95584e-23)
        0.825             (0.992166 0.00349022 -4.61011e-23)             (0.992166 -0.00349031 5.06407e-23)
         0.83             (0.992137 0.0035039 -4.70896e-23)             (0.992137 -0.00350399 5.17262e-23)
        0.835             (0.992108 0.00351762 -4.80764e-23)             (0.992108 -0.00351771 5.28091e-23)
         0.84             (0.992079 0.00353136 -4.9076e-23)             (0.992079 -0.00353146 5.39103e-23)
        0.845             (0.992049 0.00354516 -5.00523e-23)             (0.992049 -0.00354526 5.49786e-23)
         0.85             (0.99202 0.003559 -5.103e-23)             (0.99202 -0.0035591 5.60514e-23)
        0.855             (0.991991 0.00357288 -5.20083e-23)             (0.991991 -0.00357297 5.7125e-23)
         0.86             (0.991961 0.00358679 -5.30015e-23)             (0.991961 -0.00358689 5.82145e-23)
        0.865             (0.991932 0.00360074 -5.39678e-23)             (0.991932 -0.00360084 5.92748e-23)
         0.87             (0.991902 0.00361473 -5.49443e-23)             (0.991902 -0.00361482 6.03477e-23)
        0.875             (0.991873 0.00362875 -5.59056e-23)             (0.991873 -0.00362885 6.14031e-23)
         0.88             (0.991843 0.00364281 -5.68838e-23)             (0.991843 -0.00364291 6.24775e-23)
        0.885             (0.991813 0.00365691 -5.7865e-23)             (0.991813 -0.00365702 6.35532e-23)
         0.89             (0.991783 0.00367106 -5.88443e-23)             (0.991783 -0.00367116 6.46295e-23)
        0.895             (0.991753 0.00368524 -5.98166e-23)             (0.991753 -0.00368534 6.56954e-23)
          0.9             (0.991723 0.00369945 -6.07788e-23)             (0.991723 -0.00369956 6.67518e-23)
        0.905             (0.991693 0.00371371 -6.17499e-23)             (0.991693 -0.00371381 6.78175e-23)
         0.91             (0.991663 0.00372801 -6.27152e-23)             (0.991663 -0.00372811 6.88783e-23)
        0.915             (0.991633 0.00374234 -6.36947e-23)             (0.991633 -0.00374245 6.99519e-23)
         0.92             (0.991603 0.00375672 -6.46626e-23)             (0.991603 -0.00375683 7.10162e-23)
        0.925             (0.991572 0.00377114 -6.5633e-23)             (0.991572 -0.00377125 7.20813e-23)
         0.93             (0.991542 0.0037856 -6.66169e-23)             (0.991542 -0.00378571 7.31608e-23)
        0.935             (0.991511 0.00380009 -6.75831e-23)             (0.991511 -0.0038002 7.42209e-23)
         0.94             (0.991481 0.00381462 -6.85631e-23)             (0.991481 -0.00381473 7.52978e-23)
        0.945             (0.99145 0.00382918 -6.95287e-23)             (0.99145 -0.00382929 7.63584e-23)
         0.95             (0.991419 0.00384379 -7.04862e-23)             (0.991419 -0.00384391 7.74082e-23)
        0.955             (0.991389 0.00385846 -7.14536e-23)             (0.991389 -0.00385857 7.84678e-23)
         0.96             (0.991358 0.00387317 -7.23992e-23)             (0.991358 -0.00387328 7.95076e-23)
        0.965             (0.991327 0.00388792 -7.3358e-23)             (0.991327 -0.00388804 8.05613e-23)
         0.97             (0.991296 0.00390271 -7.4334e-23)             (0.991296 -0.00390283 8.16312e-23)
        0.975             (0.991265 0.00391755 -7.53059e-23)             (0.991265 -0.00391767 8.26992e-23)
         0.98             (0.991233 0.00393242 -7.62789e-23)             (0.991233 -0.00393254 8.37667e-23)
        0.985             (0.991202 0.00394734 -7.72512e-23)             (0.991202 -0.00394745 8.48336e-23)
         0.99             (0.991171 0.00396229 -7.82289e-23)             (0.991171 -0.00396241 8.59072e-23)
        0.995             (0.991139 0.00397729 -7.91835e-23)             (0.991139 -0.00397741 8.69552e-23)
            1             (0.991108 0.00399234 -8.01555e-23)             (0.991108 -0.00399246 8.80223e-23)
        1.005             (0.991076 0.00400742 -8.11259e-23)             (0.991076 -0.00400754 8.90864e-23)
         1.01             (0.991045 0.00402255 -8.20938e-23)             (0.991045 -0.00402267 9.01507e-23)
        1.015             (0.991013 0.00403773 -8.30721e-23)             (0.991013 -0.00403785 9.12228e-23)
         1.02             (0.990981 0.00405294 -8.40328e-23)             (0.990981 -0.00405306 9.22787e-23)
        1.025             (0.990949 0.0040682 -8.5001e-23)             (0.990949 -0.00406832 9.33415e-23)
         1.03             (0.990917 0.0040835 -8.5975e-23)             (0.990917 -0.00408362 9.44116e-23)
        1.035             (0.990885 0.00409884 -8.69739e-23)             (0.990885 -0.00409897 9.55062e-23)
         1.04             (0.990853 0.00411419 -8.79416e-23)             (0.990853 -0.00411432 9.65744e-23)
        1.045             (0.990821 0.00412964 -8.88727e-23)             (0.990821 -0.00412977 9.7588e-23)
         1.05             (0.990789 0.00414513 -8.98337e-23)             (0.990789 -0.00414526 9.8645e-23)
        1.055             (0.990756 0.00416067 -9.08121e-23)             (0.990756 -0.0041608 9.97199e-23)
         1.06             (0.990724 0.00417625 -9.17997e-23)             (0.990724 -0.00417638 1.00804e-22)
        1.065             (0.990691 0.00419187 -9.27729e-23)             (0.990691 -0.004192 1.01872e-22)
         1.07             (0.990659 0.00420754 -9.37243e-23)             (0.990659 -0.00420767 1.02917e-22)
        1.075             (0.990626 0.00422325 -9.47058e-23)             (0.990626 -0.00422338 1.03995e-22)
         1.08             (0.990593 0.00423901 -9.5686e-23)             (0.990593 -0.00423914 1.05069e-22)
        1.085             (0.99056 0.00425481 -9.66487e-23)             (0.99056 -0.00425494 1.06128e-22)
         1.09             (0.990527 0.00427066 -9.76366e-23)             (0.990527 -0.00427079 1.07211e-22)
        1.095             (0.990494 0.00428656 -9.86025e-23)             (0.990494 -0.00428669 1.08273e-22)
          1.1             (0.990461 0.0043025 -9.95898e-23)             (0.990461 -0.00430263 1.09356e-22)
        1.105             (0.990428 0.00431848 -1.00594e-22)             (0.990428 -0.00431862 1.10458e-22)
         1.11             (0.990395 0.00433452 -1.01529e-22)             (0.990395 -0.00433466 1.11485e-22)
        1.115             (0.990361 0.0043506 -1.0251e-22)             (0.990361 -0.00435074 1.12563e-22)
         1.12             (0.990328 0.00436673 -1.03503e-22)             (0.990328 -0.00436687 1.13653e-22)
        1.125             (0.990294 0.00438291 -1.04487e-22)             (0.990294 -0.00438305 1.14731e-22)
         1.13             (0.990261 0.00439914 -1.05465e-22)             (0.990261 -0.00439928 1.15807e-22)
        1.135             (0.990227 0.00441542 -1.06432e-22)             (0.990227 -0.00441556 1.1687e-22)
         1.14             (0.990193 0.00443174 -1.07416e-22)             (0.990193 -0.00443188 1.17949e-22)
        1.145             (0.990159 0.00444812 -1.08432e-22)             (0.990159 -0.00444826 1.19067e-22)
         1.15             (0.990125 0.00446454 -1.09416e-22)             (0.990125 -0.00446468 1.20146e-22)
        1.155             (0.990091 0.00448101 -1.10406e-22)             (0.990091 -0.00448115 1.21232e-22)
         1.16             (0.990057 0.00449753 -1.11384e-22)             (0.990057 -0.00449767 1.22307e-22)
        1.165             (0.990023 0.0045141 -1.12372e-22)             (0.990023 -0.00451424 1.23391e-22)
         1.17             (0.989988 0.00453072 -1.13345e-22)             (0.989988 -0.00453086 1.24459e-22)
        1.175             (0.989954 0.00454739 -1.14327e-22)             (0.989954 -0.00454754 1.25538e-22)
         1.18             (0.98992 0.00456411 -1.15331e-22)             (0.98992 -0.00456425 1.26639e-22)
        1.185             (0.989885 0.00458088 -1.1631e-22)             (0.989885 -0.00458103 1.27715e-22)
         1.19             (0.98985 0.0045977 -1.17303e-22)             (0.98985 -0.00459785 1.28807e-22)
        1.195             (0.989815 0.00461455 -1.18309e-22)             (0.989815 -0.0046147 1.2991e-22)
          1.2             (0.989781 0.00463148 -1.1927e-22)             (0.989781 -0.00463163 1.30963e-22)
        1.205             (0.989746 0.00464846 -1.20274e-22)             (0.989746 -0.00464861 1.32065e-22)
         1.21             (0.98971 0.00466549 -1.21267e-22)             (0.989711 -0.00466564 1.33157e-22)
        1.215             (0.989675 0.00468257 -1.22271e-22)             (0.989675 -0.00468272 1.34257e-22)
         1.22             (0.98964 0.0046997 -1.23284e-22)             (0.98964 -0.00469986 1.35371e-22)
        1.225             (0.989605 0.00471688 -1.24255e-22)             (0.989605 -0.00471703 1.36435e-22)
         1.23             (0.989569 0.00473411 -1.25254e-22)             (0.989569 -0.00473427 1.37535e-22)
        1.235             (0.989534 0.0047514 -1.26253e-22)             (0.989534 -0.00475156 1.38629e-22)
         1.24             (0.989498 0.00476874 -1.2724e-22)             (0.989498 -0.0047689 1.39713e-22)
        1.245             (0.989462 0.00478613 -1.28244e-22)             (0.989462 -0.00478629 1.40814e-22)
         1.25             (0.989427 0.00480357 -1.2925e-22)             (0.989427 -0.00480373 1.41921e-22)
        1.255             (0.989391 0.00482107 -1.3026e-22)             (0.989391 -0.00482123 1.43029e-22)
         1.26             (0.989355 0.00483862 -1.31258e-22)             (0.989355 -0.00483878 1.44124e-22)
        1.265             (0.989319 0.00485623 -1.32255e-22)             (0.989319 -0.00485639 1.4522e-22)
         1.27             (0.989282 0.00487388 -1.3328e-22)             (0.989282 -0.00487405 1.46344e-22)
        1.275             (0.989246 0.0048916 -1.3427e-22)             (0.989246 -0.00489177 1.47431e-22)
         1.28             (0.98921 0.00490937 -1.35286e-22)             (0.98921 -0.00490954 1.48548e-22)
        1.285             (0.989173 0.0049272 -1.36304e-22)             (0.989173 -0.00492737 1.49665e-22)
         1.29             (0.989137 0.00494508 -1.37303e-22)             (0.989137 -0.00494525 1.5076e-22)
        1.295             (0.9891 0.00496302 -1.38318e-22)             (0.9891 -0.00496319 1.51875e-22)
          1.3             (0.989063 0.00498101 -1.39337e-22)             (0.989063 -0.00498118 1.52994e-22)
        1.305             (0.989026 0.00499906 -1.40363e-22)             (0.989026 -0.00499923 1.5412e-22)
         1.31             (0.988989 0.00501716 -1.4139e-22)             (0.988989 -0.00501733 1.55249e-22)
        1.315             (0.988952 0.00503531 -1.42385e-22)             (0.988952 -0.00503548 1.56339e-22)
         1.32             (0.988915 0.00505352 -1.43395e-22)             (0.988915 -0.0050537 1.5745e-22)
        1.325             (0.988878 0.00507179 -1.44418e-22)             (0.988878 -0.00507197 1.58571e-22)
         1.33             (0.98884 0.00509012 -1.45441e-22)             (0.98884 -0.0050903 1.59696e-22)
        1.335             (0.988803 0.00510851 -1.46467e-22)             (0.988803 -0.00510869 1.60821e-22)
         1.34             (0.988765 0.00512695 -1.47493e-22)             (0.988765 -0.00512713 1.61949e-22)
        1.345             (0.988728 0.00514545 -1.48528e-22)             (0.988728 -0.00514563 1.63085e-22)
         1.35             (0.98869 0.00516401 -1.49551e-22)             (0.98869 -0.00516419 1.64209e-22)
        1.355             (0.988652 0.00518263 -1.50569e-22)             (0.988652 -0.00518281 1.65325e-22)
         1.36             (0.988614 0.0052013 -1.51611e-22)             (0.988614 -0.00520148 1.66472e-22)
        1.365             (0.988576 0.00522004 -1.5263e-22)             (0.988576 -0.00522022 1.67587e-22)
         1.37             (0.988538 0.00523883 -1.53664e-22)             (0.988538 -0.00523902 1.68723e-22)
        1.375             (0.988499 0.00525769 -1.54702e-22)             (0.988499 -0.00525787 1.69862e-22)
         1.38             (0.988461 0.0052766 -1.55737e-22)             (0.988461 -0.00527679 1.70998e-22)
        1.385             (0.988422 0.00529557 -1.5677e-22)             (0.988423 -0.00529576 1.72137e-22)
         1.39             (0.988384 0.0053146 -1.57817e-22)             (0.988384 -0.00531479 1.73281e-22)