/*--------------------------------*- C++ -*----------------------------------*\
  =========                 |
  \\      /  F ield         | OpenFOAM: The Open Source CFD Toolbox
   \\    /   O peration     | Website:  https://openfoam.org
    \\  /    A nd           | Version:  7
     \\/     M anipulation  |
\*---------------------------------------------------------------------------*/
FoamFile
{
    version     2.0;
    format      ascii;
    class       volVectorField;
    location    "35";
    object      U;
}
// * * * * * * * * * * * * * * * * * * * * * * * * * * * * * * * * * * * * * //

dimensions      [0 1 -1 0 0 0 0];

internalField   nonuniform List<vector> 
59400
(
(-5.17884e-05 0.000108218 -3.01356e-22)
(-0.000306266 0.000300538 -3.97817e-22)
(-0.000856894 0.000471672 5.63285e-22)
(-0.00166133 0.000622336 -1.93955e-21)
(-0.00268566 0.000753117 -3.01763e-22)
(-0.00390904 0.000864496 -1.05808e-21)
(-0.00530997 0.000957026 2.81275e-21)
(-0.006865 0.00103135 1.26028e-21)
(-0.00855012 0.00108819 1.32033e-21)
(-0.0103412 0.00112832 -8.24806e-22)
(-0.0122139 0.00115261 -1.88957e-21)
(-0.0141441 0.00116199 1.20477e-23)
(-0.0161082 0.00115746 -7.3706e-22)
(-0.0180829 0.0011401 8.4736e-22)
(-0.0200461 0.00111105 -2.44605e-21)
(-0.0219765 0.00107155 4.10337e-22)
(-0.0238545 0.00102289 -7.7468e-22)
(-0.0256619 0.00096646 -4.49034e-21)
(-0.0273829 0.000903702 2.0013e-21)
(-0.0290036 0.00083614 -7.367e-22)
(-0.0305128 0.00076536 2.26952e-21)
(-0.0319023 0.000692998 -3.80108e-21)
(-0.0331668 0.000620722 6.88356e-22)
(-0.0343045 0.000550201 1.5392e-21)
(-0.0353169 0.000483073 4.1012e-21)
(-0.0362093 0.000420897 1.52975e-22)
(-0.0369903 0.000365069 4.81877e-21)
(-0.0376712 0.000316617 -2.45577e-21)
(-0.0382636 0.000276442 6.14062e-22)
(-0.0387909 0.000247213 1.71909e-21)
(-6.27366e-05 0.000323577 -1.75186e-21)
(-0.000335409 0.000898551 3.34478e-21)
(-0.000899625 0.00141014 -3.89972e-21)
(-0.00171327 0.00186047 1.3086e-22)
(-0.00274255 0.0022513 2.61918e-21)
(-0.00396665 0.00258406 2.5608e-21)
(-0.00536407 0.00286042 -6.8204e-21)
(-0.00691141 0.00308229 7.07086e-22)
(-0.00858469 0.00325182 -8.73519e-21)
(-0.0103598 0.00337137 9.91467e-22)
(-0.0122125 0.0034435 2.08998e-21)
(-0.0141187 0.003471 -8.89149e-22)
(-0.0160547 0.00345688 -4.53606e-21)
(-0.0179974 0.00340436 4.57289e-21)
(-0.0199247 0.00331689 2.69321e-22)
(-0.0218154 0.00319814 -3.38009e-21)
(-0.0236498 0.003052 6.0445e-21)
(-0.02541 0.00288262 4.07437e-21)
(-0.0270799 0.00269434 -1.38888e-20)
(-0.028646 0.00249172 4.09505e-21)
(-0.030097 0.00227953 -3.97802e-21)
(-0.0314247 0.00206267 1.30763e-20)
(-0.0326242 0.00184617 7.42615e-21)
(-0.0336936 0.00163505 3.62609e-21)
(-0.0346347 0.00143423 -1.46254e-20)
(-0.035453 0.00124843 2.91794e-21)
(-0.0361575 0.00108184 -9.53048e-21)
(-0.0367599 0.000937575 -1.5315e-21)
(-0.0372699 0.000818451 3.24494e-21)
(-0.0377117 0.000732489 -9.65045e-21)
(-8.44404e-05 0.000535715 -1.34762e-21)
(-0.000393148 0.00148741 1.62366e-21)
(-0.000984222 0.00233402 -2.47714e-21)
(-0.00181599 0.00307905 4.94831e-22)
(-0.00285491 0.0037254 -1.13347e-21)
(-0.0040802 0.00427545 -5.01001e-21)
(-0.0054704 0.00473193 4.35372e-21)
(-0.00700216 0.00509805 -2.02676e-21)
(-0.00865159 0.00537736 -6.86919e-22)
(-0.0103946 0.00557376 2.86876e-21)
(-0.0122071 0.00569153 -6.9642e-21)
(-0.0140651 0.00573528 2.8785e-22)
(-0.0159449 0.00571 -1.20574e-20)
(-0.0178237 0.00562105 1.23902e-20)
(-0.0196791 0.00547415 -1.65696e-20)
(-0.0214903 0.00527541 1.71319e-20)
(-0.0232376 0.00503131 -2.36982e-20)
(-0.0249031 0.00474871 -1.3434e-21)
(-0.0264711 0.00443488 9.93353e-21)
(-0.0279278 0.00409741 -1.64206e-20)
(-0.0292624 0.00374425 4.84474e-21)
(-0.0304667 0.00338361 -4.53253e-21)
(-0.0315361 0.00302387 6.21748e-21)
(-0.0324689 0.00267346 -2.16811e-23)
(-0.0332674 0.00234065 3.56617e-20)
(-0.0339374 0.00203338 -6.21162e-21)
(-0.0344891 0.0017587 3.18923e-20)
(-0.0349345 0.0015219 -1.28084e-20)
(-0.0352798 0.00132804 1.20449e-20)
(-0.0355509 0.00119052 2.19254e-20)
(-0.000116516 0.000742524 -2.39352e-21)
(-0.000478395 0.00206112 1.09632e-20)
(-0.00110896 0.00323376 -1.75762e-20)
(-0.00196718 0.00426527 5.05748e-21)
(-0.00301991 0.00515965 1.18027e-20)
(-0.0042464 0.00592018 -5.61353e-21)
(-0.00562522 0.00655068 -7.83763e-21)
(-0.00713314 0.00705559 2.35592e-21)
(-0.00874635 0.00743983 5.63667e-21)
(-0.0104409 0.00770886 1.94275e-20)
(-0.0121928 0.0078686 -1.06637e-20)
(-0.0139782 0.00792548 -1.40713e-20)
(-0.0157735 0.00788645 1.41249e-20)
(-0.0175559 0.00775896 -1.07572e-20)
(-0.0193035 0.00755099 1.7692e-20)
(-0.0209953 0.00727105 -2.23762e-21)
(-0.0226118 0.00692818 1.11874e-20)
(-0.0241354 0.00653197 -1.54174e-20)
(-0.0255503 0.00609255 -1.27096e-20)
(-0.0268431 0.00562058 3.44313e-20)
(-0.028003 0.00512719 -9.41661e-21)
(-0.0290223 0.0046239 3.89509e-21)
(-0.0298965 0.00412255 -1.80309e-20)
(-0.0306246 0.00363502 5.38999e-21)
(-0.0312093 0.00317304 -2.94331e-20)
(-0.0316571 0.00274785 7.44032e-21)
(-0.0319794 0.00236952 1.46886e-21)
(-0.0321897 0.00204561 5.9554e-21)
(-0.0322881 0.00178402 3.56656e-20)
(-0.0323034 0.0016036 -3.56961e-21)
(-0.000158396 0.000941956 -2.93398e-21)
(-0.000589535 0.00261384 -1.79689e-20)
(-0.00127127 0.00410006 6.09837e-21)
(-0.00216343 0.00540666 7.03003e-21)
(-0.00323334 0.00653867 -8.27966e-21)
(-0.00446031 0.00750025 2.22789e-22)
(-0.00582296 0.00829628 6.06501e-21)
(-0.00729818 0.00893239 1.7815e-20)
(-0.0088623 0.00941488 -9.35297e-21)
(-0.0104915 0.00975066 4.82455e-21)
(-0.012162 0.00994731 7.99643e-21)
(-0.01385 0.010013 8.85729e-21)
(-0.0155322 0.00995665 1.53212e-20)
(-0.0171859 0.00978773 2.86687e-21)
(-0.0187893 0.00951644 8.18799e-21)
(-0.0203216 0.00915364 -1.22842e-20)
(-0.0217637 0.00871091 1.79338e-20)
(-0.0230978 0.00820053 -2.68889e-20)
(-0.0243086 0.0076355 -8.47696e-21)
(-0.0253828 0.0070295 3.3861e-22)
(-0.0263099 0.0063969 -1.00566e-20)
(-0.0270826 0.00575258 1.38015e-20)
(-0.0276967 0.00511185 -1.06498e-20)
(-0.0281519 0.00449018 2.05057e-21)
(-0.0284515 0.00390289 3.75424e-20)
(-0.0286032 0.00336472 -2.04385e-20)
(-0.0286201 0.00288886 -1.27997e-20)
(-0.0285171 0.00248541 -5.49572e-21)
(-0.028287 0.00216583 -1.63161e-20)
(-0.0279616 0.00195457 1.28631e-20)
(-0.00020933 0.00113204 1.4909e-20)
(-0.000724438 0.00313997 1.64696e-21)
(-0.00146778 0.00492396 -4.21837e-21)
(-0.00240019 0.00649117 -2.20397e-20)
(-0.00348962 0.00784761 -7.18356e-21)
(-0.0047154 0.00899828 -2.56816e-21)
(-0.00605623 0.00994907 -2.91522e-21)
(-0.00748912 0.0107068 -2.97346e-20)
(-0.00899057 0.011279 3.36004e-20)
(-0.010537 0.0116741 -4.75265e-21)
(-0.0121046 0.0119012 -1.10419e-20)
(-0.01367 0.0119703 3.55879e-20)
(-0.01521 0.0118921 3.88744e-21)
(-0.0167022 0.0116781 -2.91847e-20)
(-0.0181249 0.0113407 5.35735e-21)
(-0.0194576 0.0108929 8.28982e-21)
(-0.0206812 0.010349 -8.65789e-22)
(-0.0217785 0.00972379 8.17945e-21)
(-0.022734 0.00903314 2.96417e-21)
(-0.0235349 0.00829377 -1.16236e-20)
(-0.0241711 0.00752326 3.2205e-21)
(-0.0246356 0.00673992 -4.35582e-20)
(-0.0249248 0.00596265 1.81847e-20)
(-0.025039 0.00521061 -3.39752e-20)
(-0.0249826 0.00450289 -5.29582e-20)
(-0.0247643 0.00385796 4.99447e-20)
(-0.0243998 0.00329235 -5.78213e-20)
(-0.0239057 0.00281896 -1.02877e-20)
(-0.0232657 0.00245383 -1.59079e-20)
(-0.0225151 0.00222684 4.23499e-20)
(-0.000268401 0.00131091 1.17997e-20)
(-0.000880486 0.00363416 -2.76789e-20)
(-0.0016943 0.00569692 8.96389e-21)
(-0.00267189 0.00750735 1.88833e-20)
(-0.00378187 0.00907233 -8.97407e-22)
(-0.0050036 0.0103977 -4.62243e-21)
(-0.00631586 0.0114903 5.57616e-21)
(-0.0076958 0.012358 1.60369e-21)
(-0.00912013 0.0130097 -1.49085e-20)
(-0.0105654 0.0134552 1.11056e-21)
(-0.0120082 0.0137052 4.11699e-20)
(-0.0134251 0.0137712 -2.50799e-20)
(-0.0147935 0.0136657 -4.83e-21)
(-0.0160909 0.0134023 4.32422e-20)
(-0.0172959 0.0129954 -1.57135e-20)
(-0.0183885 0.0124603 8.53345e-21)
(-0.0193496 0.0118136 -7.48902e-21)
(-0.0201623 0.0110728 -1.05005e-20)
(-0.0208114 0.0102566 -2.65478e-20)
(-0.0212844 0.00938467 1.79714e-20)
(-0.0215715 0.00847785 -3.00336e-20)
(-0.0216663 0.00755792 4.31146e-20)
(-0.0215657 0.00664747 -2.08287e-21)
(-0.021271 0.00576955 -2.2315e-20)
(-0.0207876 0.00494723 3.32888e-20)
(-0.0201258 0.00420298 -2.70964e-20)
(-0.019304 0.003557 2.14103e-20)
(-0.0183415 0.00302548 2.87119e-20)
(-0.0172114 0.00262996 6.16584e-23)
(-0.0159511 0.00240449 -3.82509e-20)
(-0.000334528 0.0014768 4.18906e-21)
(-0.00105459 0.00409139 1.027e-20)
(-0.00194593 0.00641091 -5.72385e-21)
(-0.0029719 0.00844438 -3.70539e-21)
(-0.00410191 0.0101995 -5.60989e-21)
(-0.00531531 0.0116828 -2.49646e-20)
(-0.00659095 0.0129022 4.81607e-21)
(-0.00790616 0.0138665 3.16641e-20)
(-0.00923783 0.0145859 -1.55119e-20)
(-0.0105628 0.0150715 -7.20723e-21)
(-0.0118577 0.0153354 -2.21624e-20)
(-0.0130997 0.0153908 1.6545e-20)
(-0.0142661 0.015252 2.6014e-20)
(-0.015335 0.0149342 -1.42041e-20)
(-0.0162851 0.014454 5.22085e-21)
(-0.0170966 0.0138289 -7.43825e-23)
(-0.0177509 0.0130778 -4.00722e-20)
(-0.0182311 0.0122207 3.05834e-20)
(-0.0185226 0.0112791 3.9731e-20)
(-0.018613 0.0102756 2.21753e-20)
(-0.0184929 0.00923434 1.39509e-20)
(-0.0181565 0.00818066 -5.91117e-20)
(-0.0176015 0.00714092 6.79178e-21)
(-0.01683 0.00614223 -3.20223e-20)
(-0.0158488 0.00521196 9.62858e-21)
(-0.01467 0.00437697 -3.03847e-20)
(-0.013315 0.00366153 -3.82861e-20)
(-0.0118071 0.00308567 6.33879e-20)
(-0.0101091 0.00267797 -2.99976e-20)
(-0.0082541 0.00247471 7.57517e-20)
(-0.000406481 0.00162809 1.43088e-20)
(-0.00124324 0.00450698 -2.52291e-20)
(-0.00221702 0.00705844 3.23892e-20)
(-0.00329266 0.0092922 -8.53377e-21)
(-0.00444036 0.0112166 -9.72035e-21)
(-0.00563949 0.0128391 5.07052e-21)
(-0.00686895 0.0141683 -1.52009e-20)
(-0.00810624 0.0152141 1.85165e-20)
(-0.00932846 0.0159879 -6.21393e-21)
(-0.0105127 0.016502 1.57134e-20)
(-0.0116359 0.01677 -3.49979e-20)
(-0.0126754 0.0168065 4.37989e-20)
(-0.013609 0.0166274 -4.03975e-20)
(-0.0144148 0.0162499 2.56916e-20)
(-0.0150722 0.0156923 5.08822e-20)
(-0.0155613 0.0149743 -7.50784e-21)
(-0.0158641 0.014117 4.96816e-20)
(-0.0159638 0.013143 -7.72316e-20)
(-0.0158462 0.0120762 9.82746e-21)
(-0.0154992 0.0109424 4.27031e-21)
(-0.0149139 0.00976895 -9.6464e-21)
(-0.0140849 0.00858472 1.15331e-20)
(-0.0130109 0.00742004 -9.45702e-21)
(-0.011695 0.00630629 4.9879e-20)
(-0.0101453 0.00527545 5.2317e-20)
(-0.00837592 0.0043592 -7.7077e-22)
(-0.00641211 0.00358619 7.54463e-20)
(-0.00428078 0.00298001 2.86238e-20)
(-0.0019379 0.00257831 -1.03978e-19)
(0.000590974 0.00243757 2.84723e-20)
(-0.00048289 0.00176329 3.99465e-21)
(-0.00144249 0.00487667 -5.76733e-21)
(-0.00250128 0.00763266 1.99152e-20)
(-0.00362564 0.0100416 -3.5901e-20)
(-0.00478666 0.0121124 2.13829e-20)
(-0.00596369 0.0138532 -1.52223e-20)
(-0.00713566 0.0152734 5.62538e-21)
(-0.00828023 0.0163842 8.11073e-21)
(-0.00937476 0.0171977 -9.39031e-21)
(-0.0103965 0.0177276 -2.17655e-20)
(-0.0113229 0.0179887 3.19564e-20)
(-0.0121315 0.0179973 -5.48204e-20)
(-0.0128003 0.0177706 -7.7162e-21)
(-0.0133079 0.0173275 1.03583e-20)
(-0.0136339 0.0166883 -3.75083e-20)
(-0.013759 0.0158745 -1.68359e-20)
(-0.0136651 0.0149094 -1.9377e-20)
(-0.013336 0.0138178 2.1178e-21)
(-0.0127576 0.0126265 -1.38922e-20)
(-0.0119184 0.011364 -3.67123e-20)
(-0.0108099 0.0100609 4.4539e-20)
(-0.00942707 0.00874971 3.78483e-20)
(-0.00776948 0.00746488 -6.48449e-20)
(-0.00584152 0.00624229 1.532e-20)
(-0.00365287 0.00511889 1.27387e-20)
(-0.00122003 0.00413167 -1.56187e-21)
(0.00142689 0.0033141 6.09517e-20)
(0.00425717 0.00269427 5.88825e-21)
(0.00733624 0.00232434 4.12252e-20)
(0.0106122 0.00227493 2.53707e-20)
(-0.000562256 0.00188105 1.12836e-20)
(-0.00164803 0.00519658 -1.56045e-20)
(-0.00279176 0.00812735 1.05091e-20)
(-0.00396147 0.0106841 8.42734e-21)
(-0.00512915 0.0128764 -1.01177e-20)
(-0.00627412 0.0147129 -7.66547e-21)
(-0.00737531 0.016204 -8.14578e-21)
(-0.00841058 0.0173616 3.83242e-20)
(-0.0093575 0.018199 -9.02978e-21)
(-0.0101937 0.0187311 7.8191e-20)
(-0.0108967 0.0189738 -8.84656e-20)
(-0.0114446 0.0189447 4.98537e-20)
(-0.0118157 0.0186627 3.33281e-20)
(-0.011989 0.0181481 7.16693e-20)
(-0.0119444 0.0174228 1.4998e-20)
(-0.0116629 0.0165103 4.7879e-20)
(-0.0111268 0.0154359 -2.67271e-20)
(-0.0103202 0.0142266 6.88106e-21)
(-0.0092293 0.0129117 -9.41895e-21)
(-0.00784293 0.0115225 -4.68579e-20)
(-0.00615297 0.0100927 -1.32643e-20)
(-0.00415512 0.00865872 -2.42028e-20)
(-0.00184966 0.00725897 7.56183e-20)
(0.000757778 0.00593418 -1.61902e-19)
(0.0036558 0.00472674 1.5415e-20)
(0.00682524 0.00367958 -1.14599e-19)
(0.0102307 0.00283191 3.2513e-20)
(0.0138367 0.00221823 -5.56227e-20)
(0.0177279 0.00190643 5.05793e-20)
(0.0218362 0.00196915 6.44499e-20)
(-0.000642964 0.00198017 -1.28995e-20)
(-0.0018552 0.00546326 1.9917e-21)
(-0.00308094 0.00853698 -1.07089e-20)
(-0.00428993 0.0112124 2.50013e-20)
(-0.00545511 0.0134994 3.308e-21)
(-0.0065557 0.0154075 -2.0224e-20)
(-0.00757065 0.0169478 -1.02998e-20)
(-0.00847799 0.018133 -3.09056e-20)
(-0.00925555 0.0189776 5.16806e-20)
(-0.00988119 0.0194973 -6.69942e-20)
(-0.0103329 0.0197094 3.5182e-20)
(-0.010589 0.0196327 6.57926e-20)
(-0.0106283 0.0192873 -6.12782e-20)
(-0.01043 0.0186951 -2.07709e-20)
(-0.00997461 0.0178796 -2.58021e-20)
(-0.0092433 0.0168659 -1.75801e-20)
(-0.00821883 0.015681 9.39574e-21)
(-0.00688561 0.0143543 -3.81664e-20)
(-0.00523015 0.0129173 1.77242e-20)
(-0.00324155 0.0114039 -3.60179e-20)
(-0.000912105 0.00985112 9.29808e-21)
(0.00176194 0.0082988 2.16895e-20)
(0.00477949 0.0067898 9.41933e-21)
(0.00813366 0.00536984 4.88842e-20)
(0.0118113 0.00408719 7.5637e-20)
(0.0157903 0.00299142 1.47906e-20)
(0.0200294 0.00212825 1.72617e-20)
(0.0244875 0.00153954 -5.57021e-20)
(0.0292676 0.00131158 -4.20642e-21)
(0.0342897 0.00152612 -7.97131e-20)
(-0.000723287 0.00205962 2.77332e-21)
(-0.002059 0.00567369 6.80311e-21)
(-0.00336075 0.00885669 3.27919e-21)
(-0.00460005 0.0116198 -3.13895e-20)
(-0.00575081 0.0139734 5.11369e-20)
(-0.00679215 0.0159276 2.47935e-20)
(-0.007703 0.0174943 -3.07647e-20)
(-0.00846156 0.018687 -2.37869e-20)
(-0.00904593 0.0195212 -3.32806e-20)
(-0.00943426 0.0200135 3.4552e-20)
(-0.00960492 0.0201824 -9.49095e-21)
(-0.00953659 0.0200478 -5.11592e-20)
(-0.00920844 0.0196311 1.67001e-20)
(-0.00860028 0.0189554 -7.1457e-22)
(-0.00769277 0.0180457 -1.5937e-20)
(-0.00646765 0.0169286 -2.75574e-20)
(-0.00490798 0.0156329 5.4746e-21)
(-0.0029985 0.0141898 6.84948e-20)
(-0.000726009 0.0126328 1.5841e-20)
(0.00192008 0.0109986 2.35772e-20)
(0.00494712 0.009327 -7.50602e-21)
(0.00835839 0.00766155 -3.40258e-20)
(0.0121521 0.00604945 -5.95313e-20)
(0.01632 0.00454169 -1.59912e-20)
(0.0208471 0.00319287 -7.176e-20)
(0.0257083 0.00205996 1.40284e-20)
(0.030856 0.00119613 2.58436e-20)
(0.0362423 0.000651743 -5.82913e-20)
(0.0419888 0.000535572 1.05337e-19)
(0.0480034 0.000942975 4.44308e-20)
(-0.0008014 0.0021185 1.22061e-20)
(-0.00225414 0.00582529 8.56351e-22)
(-0.00362259 0.00908234 -3.92189e-20)
(-0.00488011 0.0119009 4.95607e-20)
(-0.00600159 0.0142917 -4.73413e-20)
(-0.00696602 0.0162654 -3.45345e-20)
(-0.0077523 0.0178346 8.22319e-20)
(-0.0083388 0.019014 4.82779e-21)
(-0.00870389 0.0198196 5.88812e-20)
(-0.00882604 0.0202691 -8.26745e-21)
(-0.00868399 0.0203821 3.07795e-20)
(-0.00825684 0.0201793 -8.31634e-20)
(-0.0075242 0.0196835 2.4728e-20)
(-0.00646632 0.0189189 -2.8138e-20)
(-0.00506432 0.0179116 6.42187e-20)
(-0.00330034 0.0166898 -7.25445e-21)
(-0.00115782 0.0152836 -8.31099e-21)
(0.00137816 0.0137258 -2.24658e-21)
(0.0043205 0.0120521 2.52871e-20)
(0.00767953 0.0103014 -5.87012e-20)
(0.0114623 0.00851622 -6.38515e-20)
(0.0156718 0.00674364 7.16004e-21)
(0.0203053 0.00503521 -5.5915e-20)
(0.0253537 0.00344737 -4.99171e-21)
(0.0308 0.00204157 1.05372e-19)
(0.0366159 0.000882986 -1.72425e-19)
(0.0427467 3.33357e-05 3.52465e-20)
(0.0491367 -0.000446946 7.80926e-20)
(0.0559271 -0.000422459 1.65805e-20)
(0.0630134 0.000216483 -7.89754e-20)
(-0.000875384 0.00215605 -4.43753e-21)
(-0.00243504 0.00591588 2.9557e-20)
(-0.0038574 0.00921049 3.81481e-20)
(-0.00511772 0.0120511 -8.03795e-21)
(-0.00619191 0.0144485 -4.99036e-20)
(-0.00705878 0.0164143 1.98207e-20)
(-0.00769721 0.0179618 -3.50401e-20)
(-0.00808575 0.0191063 -2.26473e-20)
(-0.00820302 0.0198649 -8.58698e-20)
(-0.00802785 0.0202561 1.71073e-20)
(-0.00753936 0.0203004 3.87035e-20)
(-0.0067171 0.0200195 3.4367e-20)
(-0.00554115 0.0194372 3.73931e-20)
(-0.00399226 0.0185787 -1.96989e-20)
(-0.002052 0.0174714 -4.84479e-20)
(0.000297026 0.0161443 3.03099e-20)
(0.00307096 0.0146291 4.31477e-21)
(0.00628438 0.0129599 7.61207e-21)
(0.00994989 0.011174 3.92665e-20)
(0.0140776 0.00931229 7.94305e-21)
(0.0186743 0.00742 -3.77557e-20)
(0.0237427 0.00554733 2.10525e-20)
(0.0292796 0.00375013 3.62959e-21)
(0.0352747 0.00209042 -1.074e-19)
(0.0417095 0.000636915 3.72411e-20)
(0.0485522 -0.000536076 1.92735e-20)
(0.0557406 -0.00135693 -1.2951e-20)
(0.0632094 -0.00175314 -5.76404e-20)
(0.0711176 -0.00155759 -4.00898e-20)
(0.0793438 -0.000640689 1.79128e-19)
(-0.000943233 0.00217167 -3.15704e-20)
(-0.00259584 0.00594374 3.17217e-20)
(-0.00405565 0.00923839 4.18763e-20)
(-0.00529985 0.0120667 -1.01698e-19)
(-0.00630538 0.0144396 2.65174e-20)
(-0.0070509 0.0163694 7.4925e-20)
(-0.00751521 0.0178703 3.53875e-21)
(-0.00767707 0.0189584 3.26333e-20)
(-0.00751537 0.0196514 4.96587e-20)
(-0.00700929 0.0199689 -4.29303e-20)
(-0.00613837 0.019932 -6.99453e-21)
(-0.00488265 0.0195635 -1.37857e-21)
(-0.00322269 0.018888 1.10159e-20)
(-0.00113977 0.0179317 6.20027e-20)
(0.001384 0.0167228 -4.13369e-20)
(0.00436553 0.0152914 5.9004e-20)
(0.00782052 0.01367 -7.54931e-21)
(0.0117631 0.011894 -1.81883e-19)
(0.0162057 0.0100021 3.33128e-20)
(0.0211581 0.0080367 -8.83502e-20)
(0.026627 0.00604529 -6.33952e-20)
(0.0326148 0.00408099 1.46198e-20)
(0.0391182 0.00220367 1.1704e-19)
(0.046126 0.000480894 2.94216e-20)
(0.053618 -0.00101099 -7.05388e-20)
(0.0615595 -0.00218762 2.95775e-20)
(0.0698801 -0.00296594 5.31583e-20)
(0.0785046 -0.00325873 -2.76632e-20)
(0.0876114 -0.00285936 -1.30776e-19)
(0.0970631 -0.00160831 -6.66603e-20)
(-0.00100286 0.00216488 -1.74904e-20)
(-0.00273046 0.00590753 3.08172e-20)
(-0.0042074 0.00916399 -1.01232e-19)
(-0.00541289 0.011945 4.78668e-20)
(-0.00632489 0.0142618 1.74461e-20)
(-0.00692191 0.0161274 6.01832e-21)
(-0.0071827 0.0175567 6.17049e-20)
(-0.00708619 0.0185666 1.10897e-21)
(-0.00661157 0.0191757 -6.28182e-20)
(-0.00573839 0.0194043 -5.5039e-20)
(-0.00444665 0.0192743 -2.75969e-20)
(-0.00271686 0.0188095 -1.08608e-21)
(-0.000530148 0.0180351 6.51318e-20)
(0.00213164 0.0169781 -1.21202e-20)
(0.00528583 0.0156674 -1.46647e-20)
(0.00894877 0.0141339 6.0186e-20)
(0.0131356 0.0124111 -3.79421e-20)
(0.0178602 0.010535 6.81626e-20)
(0.0231344 0.00854521 -1.76913e-20)
(0.0289679 0.00648557 4.15928e-20)
(0.0353673 0.00440517 4.84193e-20)
(0.0423349 0.00235958 -2.99713e-20)
(0.0498672 0.00041227 -1.06599e-19)
(0.0579527 -0.00136388 -2.31404e-20)
(0.0665701 -0.00288475 3.23658e-20)
(0.0756816 -0.00405514 -7.55076e-20)
(0.0852091 -0.0047791 7.54862e-20)
(0.095066 -0.00495205 -1.13047e-19)
(0.105451 -0.00432057 1.51475e-19)
(0.116209 -0.00269042 -3.37424e-20)
(-0.00105209 0.00213535 7.05827e-21)
(-0.00283256 0.00580634 -1.98126e-20)
(-0.00430234 0.00898591 -1.11409e-20)
(-0.00544267 0.0116844 -1.68817e-20)
(-0.00623263 0.0139133 -1.10801e-20)
(-0.00665053 0.0156862 -4.78771e-20)
(-0.00667508 0.017019 3.12042e-21)
(-0.00628541 0.0179293 -6.72861e-21)
(-0.00546101 0.0184365 2.76998e-20)
(-0.00418182 0.0185617 -2.46253e-20)
(-0.0024283 0.0183276 9.3862e-20)
(-0.000181486 0.0177586 5.457e-20)
(0.0025769 0.0168806 3.08743e-20)
(0.0058644 0.0157214 -7.27798e-20)
(0.0096977 0.0143104 -1.65824e-20)
(0.0140925 0.0126792 1.16015e-19)
(0.0190635 0.0108616 4.78687e-20)
(0.0246238 0.00889432 8.86415e-20)
(0.0307849 0.00681747 -5.56696e-20)
(0.0375564 0.00467563 -2.88899e-20)
(0.0449446 0.002519 2.10859e-20)
(0.052952 0.000404943 3.88049e-20)
(0.0615752 -0.00160012 1.72215e-19)
(0.0708026 -0.00341856 1.54873e-20)
(0.0806122 -0.00495863 3.84473e-20)
(0.0909642 -0.00611378 6.43807e-20)
(0.101772 -0.00677374 2.9499e-20)
(0.112939 -0.00681353 1.40927e-20)
(0.124682 -0.00592428 -9.85824e-21)
(0.136827 -0.00386796 8.36601e-20)
(-0.00108868 0.00208289 4.19878e-20)
(-0.00289561 0.00563967 -1.31998e-20)
(-0.00432979 0.00870348 2.81381e-20)
(-0.00537458 0.0112843 6.48869e-21)
(-0.00601019 0.0133934 5.69315e-20)
(-0.00621477 0.0150455 -2.44954e-20)
(-0.00596698 0.0162572 -2.77303e-20)
(-0.00524614 0.0170471 1.50148e-20)
(-0.00403208 0.0174351 -1.5806e-20)
(-0.00230512 0.0174432 -1.58269e-20)
(-4.62002e-05 0.0170947 -9.46261e-20)
(0.00276306 0.0164148 -9.80672e-20)
(0.00614035 0.0154301 4.22838e-20)
(0.0101025 0.0141687 -1.32618e-19)
(0.0146655 0.0126608 3.9902e-21)
(0.0198445 0.0109382 1.4368e-19)
(0.0256532 0.00903503 4.08469e-20)
(0.0321042 0.00698821 -1.07153e-19)
(0.0392087 0.00483803 7.66001e-21)
(0.0469755 0.00262926 9.55237e-20)
(0.0554111 0.000412492 2.65242e-20)
(0.064518 -0.00175394 7.22873e-21)
(0.0742931 -0.00380163 7.41719e-20)
(0.0847252 -0.00564911 -6.60179e-20)
(0.0957926 -0.00719766 7.1702e-20)
(0.107454 -0.00832929 -4.5938e-20)
(0.119616 -0.00891819 -3.3135e-21)
(0.132169 -0.00881567 2.06932e-19)
(0.145352 -0.00764703 -8.86617e-20)
(0.158968 -0.00511802 1.95789e-19)
(-0.00111033 0.00200742 -4.13712e-21)
(-0.00291288 0.00540742 -8.1619e-21)
(-0.00427879 0.00831674 4.97798e-21)
(-0.0051936 0.0107447 -5.15612e-21)
(-0.0056387 0.0127028 5.67132e-20)
(-0.00559207 0.0142064 -3.04091e-20)
(-0.00503235 0.0152732 -8.33443e-20)
(-0.00393907 0.0159224 3.73709e-20)
(-0.00229236 0.0161748 -1.11836e-20)
(-7.29726e-05 0.0160531 -2.75829e-20)
(0.00273766 0.0155813 -4.25709e-20)
(0.00615735 0.0147852 3.52809e-20)
(0.0102031 0.013692 -1.15358e-20)
(0.0148911 0.0123305 -1.36608e-20)
(0.0202365 0.010731 1.67697e-20)
(0.0262536 0.00892566 -1.32488e-20)
(0.0329553 0.00694878 -4.02242e-20)
(0.0403536 0.00483714 1.26629e-19)
(0.0484587 0.00263081 6.26988e-20)
(0.0572792 0.000374168 -7.71274e-20)
(0.066821 -0.00188254 7.18212e-20)
(0.0770867 -0.00408106 -3.9568e-20)
(0.0880739 -0.00615229 -1.87763e-20)
(0.0997721 -0.00801232 -3.61706e-21)
(0.112161 -0.00955675 -9.92073e-20)
(0.125198 -0.0106568 9.64493e-21)
(0.138786 -0.0111705 -3.88179e-20)
(0.152803 -0.0109223 -2.04555e-19)
(0.167511 -0.00945949 1.43644e-19)
(0.182686 -0.00641571 -2.34462e-19)
(-0.00111465 0.00190903 -1.39351e-21)
(-0.00287747 0.00510994 3.28812e-20)
(-0.00413811 0.00782645 -2.91629e-20)
(-0.00488439 0.0100671 -2.00069e-20)
(-0.0050989 0.0118434 -1.89957e-20)
(-0.00475948 0.0131717 -1.15904e-20)
(-0.00384474 0.0140705 4.77859e-20)
(-0.00233442 0.0145598 -7.23722e-20)
(-0.000208998 0.0146613 4.96393e-20)
(0.00255038 0.0143983 -9.59775e-21)
(0.00596179 0.0137956 -3.5353e-20)
(0.0100424 0.0128796 -3.36318e-20)
(0.0148087 0.011678 -2.8855e-20)
(0.0202758 0.0102201 -2.1099e-20)
(0.0264584 0.00853654 8.16053e-20)
(0.0333695 0.00665971 6.46628e-20)
(0.0410215 0.00462383 -5.38153e-20)
(0.049425 0.00246541 3.85023e-20)
(0.0585894 0.000223915 -6.84844e-20)
(0.0685225 -0.00205717 -3.29859e-20)
(0.0792298 -0.00432878 7.6429e-20)
(0.0907137 -0.00653391 -1.1517e-19)
(0.102972 -0.00860431 4.64371e-20)
(0.115996 -0.0104556 -4.53809e-20)
(0.129767 -0.01198 -5.92347e-20)
(0.144245 -0.0130395 -2.52329e-20)
(0.159328 -0.0134768 1.62327e-21)
(0.174886 -0.0130865 1.17132e-19)
(0.191205 -0.0113248 -6.1915e-20)
(0.208037 -0.00773207 8.33521e-21)
(-0.00109923 0.00178795 4.10243e-21)
(-0.00278237 0.00474805 -6.72434e-20)
(-0.00389638 0.00723412 4.01101e-20)
(-0.00443142 0.00925388 -2.46918e-21)
(-0.00437132 0.0108186 4.48454e-20)
(-0.00369382 0.0119457 3.72158e-20)
(-0.00237749 0.0126546 -3.54543e-20)
(-0.00040229 0.0129661 1.50506e-19)
(0.00225099 0.0129027 -3.38604e-20)
(0.0056008 0.0124883 -7.37171e-20)
(0.0096647 0.0117486 9.90016e-20)
(0.0144593 0.0107105 -1.00102e-19)
(0.0200004 0.00940233 -9.13873e-21)
(0.0263023 0.0078538 -2.43075e-20)
(0.0333788 0.00609599 7.0406e-20)
(0.041242 0.00416139 -8.32364e-20)
(0.0499029 0.00208417 -1.1998e-21)
(0.0593713 -9.95846e-05 6.31468e-20)
(0.0696553 -0.00235121 1.05458e-19)
(0.0807614 -0.00462857 -5.56628e-20)
(0.0926942 -0.0068845 -1.40028e-19)
(0.105456 -0.00906446 1.06257e-19)
(0.119044 -0.0111029 -1.18072e-19)
(0.133452 -0.0129175 4.33871e-20)
(0.148663 -0.0144002 1.16795e-19)
(0.164642 -0.0154074 1.00691e-19)
(0.181286 -0.0157688 1.37943e-19)
(0.19846 -0.0152484 1.08638e-19)
(0.216483 -0.0131965 2.23828e-19)
(0.235078 -0.00903374 -2.22959e-19)
(-0.0010616 0.00164457 -5.39888e-20)
(-0.00262046 0.00432302 5.9735e-20)
(-0.0035421 0.00654208 -3.58051e-20)
(-0.00381906 0.00830841 3.44414e-20)
(-0.00343647 0.00963303 9.01388e-20)
(-0.00237194 0.0105344 3.37674e-20)
(-0.000604035 0.0110328 -1.42545e-20)
(0.00188708 0.01115 -4.7608e-21)
(0.00512031 0.0109091 2.68986e-20)
(0.00911373 0.010335 3.12869e-20)
(0.0138844 0.00945373 -5.79746e-20)
(0.0194484 0.00829308 4.73504e-20)
(0.0258208 0.00688196 -4.91219e-20)
(0.0330152 0.00525058 2.41826e-20)
(0.0410443 0.00343041 5.54937e-20)
(0.0499193 0.00145421 -3.03742e-20)
(0.05965 -0.000643912 -1.10854e-19)
(0.0702447 -0.00282822 2.45963e-20)
(0.08171 -0.00506093 -7.9e-20)
(0.0940509 -0.00730149 -1.40434e-19)
(0.107271 -0.00950518 1.14017e-19)
(0.12137 -0.0116209 -8.04625e-20)
(0.136347 -0.0135878 6.78835e-20)
(0.152195 -0.0153285 -1.236e-19)
(0.168901 -0.0167392 1.0951e-19)
(0.186437 -0.017676 -2.14208e-20)
(0.204704 -0.0179614 -9.40624e-20)
(0.223567 -0.0173313 3.76064e-20)
(0.243388 -0.015016 1.0428e-19)
(0.263869 -0.0102825 -3.13502e-20)
(-0.000999293 0.00147946 1.49602e-20)
(-0.00238463 0.00383669 -2.46982e-20)
(-0.0030638 0.00575353 4.99144e-20)
(-0.00303177 0.00723536 2.7587e-21)
(-0.00227499 0.00829289 -7.72308e-20)
(-0.000770958 0.00894552 -9.67401e-21)
(0.00150178 0.00921462 5.73474e-20)
(0.00456287 0.0091226 -7.23655e-20)
(0.00843094 0.00869341 -1.08162e-20)
(0.0131237 0.00795256 4.07609e-20)
(0.0186578 0.00692703 1.56371e-20)
(0.0250488 0.00564513 -7.42309e-20)
(0.0323109 0.00413644 2.00646e-20)
(0.0404573 0.0024318 -2.88076e-20)
(0.0494995 0.00056316 3.15047e-20)
(0.0594478 -0.00143636 7.21205e-20)
(0.0703105 -0.00353247 6.39167e-20)
(0.0820945 -0.00568964 -4.24615e-20)
(0.0948047 -0.00787081 3.12777e-20)
(0.108444 -0.0100369 -1.72834e-19)
(0.123014 -0.0121458 4.79325e-21)
(0.138512 -0.0141506 -1.43847e-20)
(0.154937 -0.0159965 -7.02838e-20)
(0.172282 -0.0176144 -3.25931e-20)
(0.190537 -0.0189097 -5.68083e-20)
(0.209681 -0.0197463 -1.09256e-19)
(0.229625 -0.0199496 -2.29169e-19)
(0.250244 -0.0192359 -1.81848e-20)
(0.27196 -0.0167061 -4.56456e-20)
(0.294469 -0.0114328 -1.07437e-19)
(-0.000909824 0.0012934 -1.17001e-20)
(-0.00206778 0.00329144 -7.50968e-21)
(-0.00245012 0.00487256 4.00769e-20)
(-0.00205424 0.00604063 -8.20043e-20)
(-0.000867905 0.00680587 5.39468e-20)
(0.00113149 0.00718868 -1.17845e-20)
(0.00396542 0.00721136 2.42745e-20)
(0.00765335 0.00689709 -2.12475e-20)
(0.0122137 0.00627056 -4.95417e-20)
(0.0176638 0.00535803 2.92986e-20)
(0.0240199 0.00418718 -1.36254e-20)
(0.0312972 0.00278702 -6.62642e-21)
(0.0395093 0.00118785 -5.23961e-20)
(0.0486685 -0.000578835 1.59306e-20)
(0.0587857 -0.00248043 -1.748e-19)
(0.0698698 -0.00448326 1.17147e-19)
(0.0819281 -0.00655262 -1.34086e-19)
(0.0949659 -0.00865281 3.99808e-20)
(0.108986 -0.0107471 4.47001e-20)
(0.123989 -0.0127973 -4.37906e-20)
(0.139974 -0.0147637 6.84848e-20)
(0.156937 -0.0166035 1.2512e-19)
(0.174871 -0.0182686 3.14922e-20)
(0.193771 -0.0197007 6.64684e-20)
(0.213627 -0.0208194 -2.69528e-19)
(0.234428 -0.0215065 2.71477e-19)
(0.256096 -0.0216057 2.59139e-19)
(0.27853 -0.0208329 -5.42316e-20)
(0.302237 -0.0181608 -1.7712e-19)
(0.326944 -0.0124267 2.40324e-19)
(-0.000790754 0.00108735 1.08878e-20)
(-0.00166298 0.00269027 5.50129e-20)
(-0.00168997 0.00390426 -5.42114e-20)
(-0.000871566 0.00473142 -4.27403e-20)
(0.000803173 0.00518133 8.89507e-21)
(0.00335694 0.00527533 -1.74751e-20)
(0.00681125 0.00503662 -6.83967e-20)
(0.0111854 0.00448914 -8.58002e-20)
(0.0164977 0.00365825 -3.53642e-20)
(0.022765 0.00257092 -6.3947e-20)
(0.0300035 0.00125553 -4.47102e-20)
(0.0382278 -0.000258185 1.0616e-21)
(0.047451 -0.00193921 -5.20353e-20)
(0.0576848 -0.00375531 3.5173e-21)
(0.0689393 -0.00567311 -2.0592e-20)
(0.0812226 -0.00765814 -1.80132e-19)
(0.0945407 -0.00967498 2.04406e-20)
(0.108897 -0.0116873 -1.69834e-20)
(0.124293 -0.013658 -9.20934e-20)
(0.140728 -0.0155491 -1.9045e-20)
(0.158196 -0.0173221 4.31889e-20)
(0.17669 -0.0189371 -8.57961e-20)
(0.196201 -0.0203524 9.46675e-20)
(0.216718 -0.0215206 3.88645e-20)
(0.238234 -0.0223799 2.95123e-19)
(0.260741 -0.0228391 -1.37169e-19)
(0.284177 -0.0227811 9.24895e-20)
(0.308474 -0.0219549 1.61434e-19)
(0.334262 -0.0192319 -8.31561e-20)
(0.361368 -0.0131865 1.50503e-19)
(-0.000639704 0.000862524 2.1733e-20)
(-0.00116347 0.00203683 -6.20474e-20)
(-0.000772637 0.00285474 7.62524e-20)
(0.000530566 0.00331631 -9.38404e-20)
(0.00275579 0.00343029 7.8232e-20)
(0.00592582 0.00321891 6.50875e-20)
(0.0100622 0.00270623 -2.47622e-20)
(0.0151843 0.00191683 4.83061e-20)
(0.0213099 0.000876738 -2.46975e-20)
(0.028456 -0.000386452 -3.10632e-20)
(0.0366382 -0.0018437 -1.92529e-20)
(0.0458709 -0.00346461 1.81139e-20)
(0.0561668 -0.00521743 -7.36787e-21)
(0.0675371 -0.00706917 8.91802e-20)
(0.0799912 -0.00898558 -8.50769e-20)
(0.0935364 -0.0109313 -1.42869e-19)
(0.108178 -0.0128698 -2.0507e-20)
(0.123918 -0.0147637 7.33027e-20)
(0.140756 -0.0165747 1.20687e-19)
(0.15869 -0.0182641 4.89648e-20)
(0.17771 -0.0197928 1.74478e-20)
(0.197808 -0.0211218 4.47961e-20)
(0.218968 -0.0222128 1.47386e-20)
(0.241176 -0.0230273 -1.24446e-19)
(0.26442 -0.0235211 -1.27769e-19)
(0.288694 -0.0236364 1.82146e-19)
(0.313948 -0.0233167 -2.66121e-19)
(0.340152 -0.0223941 1.0849e-19)
(0.3681 -0.0197084 -4.05218e-20)
(0.397847 -0.0135925 1.16474e-20)
(-0.000454387 0.000620372 1.93383e-20)
(-0.000562793 0.00133546 -4.40324e-21)
(0.000312072 0.0017312 5.06706e-20)
(0.00216568 0.00180531 -7.95715e-21)
(0.00500642 0.00156556 1.61465e-20)