/*--------------------------------*- C++ -*----------------------------------*\
  =========                 |
  \\      /  F ield         | OpenFOAM: The Open Source CFD Toolbox
   \\    /   O peration     | Website:  https://openfoam.org
    \\  /    A nd           | Version:  7
     \\/     M anipulation  |
\*---------------------------------------------------------------------------*/
FoamFile
{
    version     2.0;
    format      ascii;
    class       surfaceScalarField;
    location    "80";
    object      phi;
}
// * * * * * * * * * * * * * * * * * * * * * * * * * * * * * * * * * * * * * //

dimensions      [0 3 -1 0 0 0 0];

internalField   nonuniform List<scalar> 
79480
(
-7.61564e-07
1.38166e-05
-1.30551e-05
-2.95525e-06
3.88699e-05
-3.66762e-05
-6.55227e-06
6.23004e-05
-5.87034e-05
-1.15207e-05
8.39614e-05
-7.89929e-05
-1.78238e-05
0.000103738
-9.74353e-05
-2.54195e-05
0.000121567
-0.000113971
-3.42606e-05
0.000137436
-0.000128595
-4.42956e-05
0.00015139
-0.000141355
-5.54695e-05
0.000163528
-0.000152354
-6.77251e-05
0.000173995
-0.000161739
-8.10048e-05
0.000182975
-0.000169695
-9.52511e-05
0.000190676
-0.00017643
-0.000110409
0.000197316
-0.000182158
-0.000126425
0.000203101
-0.000187085
-0.000143253
0.000208216
-0.000191389
-0.000160846
0.000212801
-0.000195208
-0.000179166
0.000216946
-0.000198626
-0.000198178
0.000220677
-0.000201665
-0.000217855
0.000223958
-0.000204282
-0.000238175
0.000226686
-0.000206366
-0.000259128
0.000228693
-0.00020774
-0.000280717
0.000229749
-0.000208159
-0.000302967
0.000229567
-0.000207318
-0.000325927
0.000227802
-0.000204842
-0.000349684
0.000224046
-0.000200289
-0.000374372
0.000217824
-0.000193136
-0.000400179
0.000208578
-0.00018277
-0.000427349
0.000195642
-0.000168472
-0.000456185
0.000178185
-0.000149349
0.000155118
-0.000124195
-0.000487109
-6.95752e-07
1.45124e-05
-2.7134e-06
4.08875e-05
-6.0398e-06
6.56268e-05
-1.0658e-05
8.85796e-05
-1.65453e-05
0.000109626
-2.36721e-05
0.000128694
-3.20023e-05
0.000145766
-4.14937e-05
0.000160881
-5.20983e-05
0.000174132
-6.37644e-05
0.000185661
-7.64373e-05
0.000195647
-9.00611e-05
0.0002043
-0.00010458
0.000211835
-0.000119941
0.000218462
-0.000136093
0.000224368
-0.000152987
0.000229695
-0.000170581
0.000234539
-0.000188835
0.000238932
-0.000207718
0.000242841
-0.000227201
0.00024617
-0.000247269
0.00024876
-0.000267916
0.000250396
-0.000289154
0.000250805
-0.000311021
0.000249669
-0.00033359
0.000246615
-0.00035698
0.000241214
-0.000381369
0.000232967
-0.000407002
0.000221275
-0.0004342
0.000205384
0.000184362
-0.000463445
-6.23564e-07
1.51359e-05
-2.44716e-06
4.27111e-05
-5.47362e-06
6.86532e-05
-9.70125e-06
9.28072e-05
-1.51213e-05
0.000115046
-2.17169e-05
0.000135289
-2.9463e-05
0.000153512
-3.83261e-05
0.000169745
-4.82654e-05
0.000184072
-5.92336e-05
0.000196629
-7.11786e-05
0.000207592
-8.4045e-05
0.000217166
-9.77757e-05
0.000225566
-0.000112314
0.000233001
-0.000127604
0.000239657
-0.000143592
0.000245683
-0.000160227
0.000251175
-0.000177464
0.000256168
-0.000195259
0.000260636
-0.000213574
0.000264485
-0.000232378
0.000267565
-0.00025165
0.000269667
-0.00027138
0.000270535
-0.000291581
0.00026987
-0.000312295
0.000267329
-0.000333612
0.00026253
-0.000355682
0.000255037
-0.000378733
0.000244326
-0.000403089
0.000229739
0.000210545
-0.000429272
-5.45757e-07
1.56817e-05
-2.15916e-06
4.43245e-05
-4.85908e-06
7.13531e-05
-8.65888e-06
9.6607e-05
-1.35637e-05
0.00011995
-1.95693e-05
0.000141295
-2.6661e-05
0.000160604
-3.48142e-05
0.000177898
-4.39943e-05
0.000193252
-5.41581e-05
0.000206793
-6.52552e-05
0.000218689
-7.72297e-05
0.000229141
-9.00217e-05
0.000238358
-0.00010357
0.000246548
-0.000117811
0.000253898
-0.000132683
0.000260556
-0.000148127
0.000266619
-0.000164083
0.000272124
-0.000180495
0.000277047
-0.000197308
0.000281298
-0.000214471
0.000284728
-0.000231936
0.000287132
-0.000249663
0.000288263
-0.000267627
0.000287834
-0.000285827
0.000285529
-0.000304303
0.000281006
-0.000323158
0.000273893
-0.000342585
0.000263753
-0.000362889
0.000250043
0.000232277
-0.00038462
-4.63262e-07
1.6145e-05
-1.85268e-06
4.57139e-05
-4.20284e-06
7.37033e-05
-7.54173e-06
9.99459e-05
-1.1888e-05
0.000124297
-1.72492e-05
0.000146656
-2.3621e-05
0.000166976
-3.09867e-05
0.000185263
-3.93176e-05
0.000201583
-4.85739e-05
0.000216049
-5.87062e-05
0.000228822
-6.96567e-05
0.000240091
-8.13617e-05
0.000250063
-9.3753e-05
0.00025894
-0.000106759
0.000266905
-0.000120309
0.000274105
-0.000134327
0.000280637
-0.000148741
0.000286538
-0.000163476
0.000291782
-0.000178455
0.000296278
-0.000193601
0.000299874
-0.000208833
0.000302365
-0.000224073
0.000303502
-0.000239245
0.000303006
-0.000254289
0.000300573
-0.000269178
0.000295896
-0.000283948
0.000288663
-0.000298731
0.000278536
-0.000313797
0.000265109
0.000248179
-0.0003297
-3.77171e-07
1.65221e-05
-1.53161e-06
4.68684e-05
-3.51287e-06
7.56846e-05
-6.36281e-06
0.000102796
-1.01127e-05
0.000128047
-1.47813e-05
0.000151325
-2.03735e-05
0.000172568
-2.68802e-05
0.00019177
-3.42775e-05
0.00020898
-4.25284e-05
0.0002243
-5.15834e-05
0.000237877
-6.13821e-05
0.00024989
-7.18556e-05
0.000260536
-8.29275e-05
0.000270012
-9.45166e-05
0.000278494
-0.000106537
0.000286126
-0.0001189
0.000293
-0.000131514
0.000299152
-0.000144281
0.00030455
-0.000157101
0.000309097
-0.000169863
0.000312635
-0.000182449
0.000314951
-0.000194732
0.000315785
-0.000206577
0.000314851
-0.000217853
0.000311849
-0.000228449
0.000306491
-0.000238306
0.00029852
-0.000247476
0.000287706
-0.000256163
0.000273796
0.000256899
-0.000264882
-2.88718e-07
1.68109e-05
-1.20035e-06
4.778e-05
-2.79833e-06
7.72825e-05
-5.13716e-06
0.000105135
-8.25959e-06
0.000131169
-1.21944e-05
0.000155259
-1.6955e-05
0.000177329
-2.25383e-05
0.000197353
-2.8925e-05
0.000215367
-3.60796e-05
0.000231454
-4.39515e-05
0.000245749
-5.2477e-05
0.000258415
-6.15802e-05
0.000269639
-7.11758e-05
0.000279607
-8.11699e-05
0.000288488
-9.1462e-05
0.000296418
-0.000101945
0.000303484
-0.000112506
0.000309713
-0.000123024
0.000315067
-0.000133366
0.000319439
-0.000143388
0.000322658
-0.000152928
0.000324491
-0.000161806
0.000324663
-0.00016982
0.000322865
-0.000176755
0.000318785
-0.000182399
0.000312134
-0.000186578
0.000302699
-0.000189234
0.000290363
-0.00019048
0.000275041
0.000257128
-0.000190709
-1.9926e-07
1.70101e-05
-8.63813e-07
4.84446e-05
-2.06941e-06
7.84881e-05
-3.88167e-06
0.000106947
-6.35328e-06
0.000133641
-9.52165e-06
0.000158428
-1.34072e-05
0.000181214
-1.80121e-05
0.000201958
-2.33199e-05
0.000220674
-2.9296e-05
0.00023743
-3.58878e-05
0.00025234
-4.30266e-05
0.000265554
-5.0629e-05
0.000277242
-5.85988e-05
0.000287577
-6.68283e-05
0.000296718
-7.51999e-05
0.00030479
-8.35865e-05
0.00031187
-9.1851e-05
0.000317977
-9.98443e-05
0.00032306
-0.000107403
0.000326997
-0.000114342
0.000329597
-0.000120455
0.000330604
-0.000125502
0.00032971
-0.000129211
0.000326574
-0.000131275
0.000320849
-0.000131368
0.000312227
-0.000129178
0.000300509
-0.000124507
0.000285692
-0.000117382
0.000267916
0.00024762
-0.000107874
-1.1025e-07
1.71204e-05
-5.27257e-07
4.88616e-05
-1.33716e-06
7.9298e-05
-2.61474e-06
0.000108225
-4.42076e-06
0.000135447
-6.79947e-06
0.000160806
-9.77668e-06
0.000184191
-1.33583e-05
0.00020554
-1.75298e-05
0.000224846
-2.22558e-05
0.000242156
-2.74808e-05
0.000257565
-3.313e-05
0.000271203
-3.91112e-05
0.000283223
-4.53158e-05
0.000293782
-5.16208e-05
0.000303023
-5.78898e-05
0.000311059
-6.39733e-05
0.000317954
-6.9708e-05
0.000323712
-7.49148e-05
0.000328267
-7.93946e-05
0.000331477
-8.29233e-05
0.000333126
-8.52438e-05
0.000332925
-8.6058e-05
0.000330524
-8.50184e-05
0.000325534
-8.17243e-05
0.000317554
-7.57272e-05
0.00030623
-6.65596e-05
0.000291342
-5.38259e-05
0.000272958
-3.74031e-05
0.000251493
0.000228203
-1.79862e-05
-2.33249e-08
1.71437e-05
-1.96227e-07
4.90345e-05
-6.13264e-07
7.97151e-05
-1.35597e-06
0.000108967
-2.49093e-06
0.000136582
-4.06719e-06
0.000162383
-6.11405e-06
0.000186238
-8.63952e-06
0.000208065
-1.16292e-05
0.000227836
-1.50459e-05
0.000245573
-1.88296e-05
0.000261349
-2.28986e-05
0.000275272
-2.71503e-05
0.000287475
-3.14626e-05
0.000298094
-3.56956e-05
0.000307256
-3.9692e-05
0.000315055
-4.32781e-05
0.00032154
-4.62623e-05
0.000326696
-4.84329e-05
0.000330438
-4.95537e-05
0.000332598
-4.93577e-05
0.00033293
-4.75379e-05
0.000331105
-4.37363e-05
0.000326723
-3.75318e-05
0.00031933
-2.84294e-05
0.000308452
-1.5859e-05
0.00029366
7.97652e-07
0.000274685
2.21686e-05
0.000251587
4.86578e-05
0.000225004
0.00019738
7.94815e-05
6.03668e-08
1.70833e-05
1.23622e-07
4.89712e-05
9.02437e-08
7.97484e-05
-1.25628e-07
0.000109183
-5.93937e-07
0.00013705
-1.36608e-06
0.000163155
-2.47271e-06
0.000187345
-3.9219e-06
0.000209515
-5.69778e-06
0.000229612
-7.7596e-06
0.000247635
-1.00418e-05
0.000263631
-1.24541e-05
0.000277685
-1.48823e-05
0.000289903
-1.71894e-05
0.000300401
-1.92169e-05
0.000309283
-2.07853e-05
0.000316623
-2.16942e-05
0.000322449
-2.17217e-05
0.000326724
-2.0621e-05
0.000329337
-1.81167e-05
0.000330094
-1.38967e-05
0.00032871
-7.60326e-06
0.000324811
1.181e-06
0.000317938
1.29488e-05
0.000307562
2.8285e-05
0.000293116
4.78803e-05
0.000274064
7.25245e-05
0.000250041
0.000103009
0.000221103
0.000139867
0.000188145
0.000154237
0.000183009
1.38764e-07
1.69446e-05
4.266e-07
4.86834e-05
7.61268e-07
7.94138e-05
1.05571e-06
0.000108889
1.23954e-06
0.000136866
1.26161e-06
0.000163133
1.09236e-06
0.000187514
7.25864e-07
0.000209881
1.81484e-07
0.000230156
-4.95217e-07
0.000248312
-1.23101e-06
0.000264367
-1.92574e-06
0.000278379
-2.45233e-06
0.000290429
-2.65747e-06
0.000300606
-2.3624e-06
0.000308988
-1.36342e-06
0.000315624
5.68229e-07
0.000320517
3.68759e-06
0.000323604
8.27869e-06
0.000324746
1.46593e-05
0.000323713
2.31883e-05
0.000320181
3.42763e-05
0.000313723
4.83997e-05
0.000303815
6.612e-05
0.000289842
8.81062e-05
0.00027113
0.00011516
0.000247011
0.000148226
0.000216975
0.00018832
0.000181009
0.000236285
0.00014018
9.83036e-05
0.000292219
2.10687e-07
1.67339e-05
7.07173e-07
4.81869e-05
1.38797e-06
7.8733e-05
2.16793e-06
0.000108109
2.97923e-06
0.000136055
3.77387e-06
0.000162338
4.52606e-06
0.000186762
5.23435e-06
0.000209173
5.92367e-06
0.000229467
6.647e-06
0.000247588
7.48621e-06
0.000263528
8.55299e-06
0.000277313
9.9889e-06
0.000288994
1.19652e-05
0.00029863
1.46823e-05
0.000306271
1.83702e-05
0.000311936
2.32884e-05
0.000315599
2.97273e-05
0.000317165
3.80114e-05
0.000316462
4.85038e-05
0.000313221
6.16137e-05
0.000307071
7.78068e-05
0.00029753
9.76202e-05
0.000284001
0.000121683
0.000265779
0.000150741
0.000242071
0.000185697
0.000212055
0.000227638
0.000175034
0.00027781
0.000130837
0.000337379
8.06114e-05
2.88874e-05
0.000406795
2.74674e-07
1.64592e-05
9.60158e-07
4.75014e-05
1.95917e-06
7.7734e-05
3.19184e-06
0.000106876
4.59617e-06
0.00013465
6.13037e-06
0.000160804
7.77522e-06
0.000185117
9.53642e-06
0.000207412
1.14468e-05
0.000227556
1.35685e-05
0.000245467
1.59944e-05
0.000261102
1.88492e-05
0.000274458
2.22908e-05
0.000285552
2.65097e-05
0.000294411
3.17303e-05
0.00030105
3.82106e-05
0.000305456
4.62431e-05
0.000307566
5.61568e-05
0.000307252
6.832e-05
0.000304299
8.31451e-05
0.000298396
0.000101096
0.00028912
0.000122697
0.000275929
0.000148551
0.000258148
0.000179354
0.000234976
0.000215928
0.000205497
0.000259261
0.000168723
0.000310563
0.000123732
0.00037129
7.01092e-05
0.000442937
8.96389e-06
-5.46808e-05
0.000526506
3.2946e-07
1.61297e-05
1.18085e-06
4.665e-05
2.46472e-06
7.64501e-05
4.10997e-06
0.000105231
6.0638e-06
0.000132697
8.29383e-06
0.000158574
1.07904e-05
0.00018262
1.35691e-05
0.000204633
1.66731e-05
0.000224452
2.01761e-05
0.000241964
2.41838e-05
0.000257094
2.88363e-05
0.000269805
3.43091e-05
0.000280079
4.08144e-05
0.000287906
4.86021e-05
0.000293262
5.79607e-05
0.000296098
6.92186e-05
0.000296309
8.27465e-05
0.000293724
9.89604e-05
0.000288085
0.000118327
0.000279029
0.00014137
0.000266077
0.000168681
0.000248618
0.000200931
0.000225898
0.00023889
0.000197017
0.000283455
0.000160931
0.000335693
0.000116485
0.000396909
6.2516e-05
0.000468733
-1.71501e-06
0.000552967
-7.527e-05
-0.000153084
0.00065137
3.73971e-07
1.57558e-05
1.36522e-06
4.56588e-05
2.89589e-06
7.49194e-05
4.90726e-06
0.000103219
7.35914e-06
0.000130245
1.02318e-05
0.000155701
1.35283e-05
0.000179324
1.72768e-05
0.000200884
2.15337e-05
0.000220195
2.63865e-05
0.000237111
3.19563e-05
0.000251525
3.84003e-05
0.000263361
4.59141e-05
0.000272565
5.47336e-05
0.000279086
6.51367e-05
0.000282859
7.7445e-05
0.000283789
9.20258e-05
0.000281728
0.000109295
0.000276454
0.000129723
0.000267658
0.000153833
0.000254918
0.000182219
0.000237691
0.000215545
0.000215292
0.00025456
0.000186883
0.000300118
0.000151459
0.000353197
0.000107853
0.000414935
5.47463e-05
0.000486712
-9.26084e-06
0.000570282
-8.52851e-05
0.000667678
-0.000172665
-0.000267038
0.000781631
4.07366e-07
1.53484e-05
1.51015e-06
4.4556e-05
3.2459e-06
7.31837e-05
5.57187e-06
0.000100893
8.46397e-06
0.000127353
1.19184e-05
0.000152247
1.5954e-05
0.000175288
2.06146e-05
0.000196224
2.59726e-05
0.000214837
3.21318e-05
0.000230952
3.92312e-05
0.000244425
4.74479e-05
0.000255145
5.69999e-05
0.000263013
6.81494e-05
0.000267937
8.1205e-05
0.000269804
9.65247e-05
0.00026847
0.000114519
0.000263734
0.000135653
0.00025532
0.000160455
0.000242856
0.000189518
0.000225856
0.000223507
0.000203702
0.00026317
0.000175629
0.000309349
0.000140704
0.000362988
9.78199e-05
0.000425157
4.56845e-05
0.000497073
-1.71696e-05
0.000580165
-9.23526e-05
0.000676255
-0.000181376
0.00078748
-0.000283889
-0.000397277
0.000917719
4.29095e-07
1.49193e-05
1.6136e-06
4.33715e-05
3.51028e-06
7.1287e-05
6.096e-06
9.83078e-05
9.36616e-06
0.000124083
1.33362e-05
0.000148277
1.80438e-05
0.000170581
2.35517e-05
0.000190716
2.99509e-05
0.000208438
3.73648e-05
0.000223538
4.59529e-05
0.000235837
5.5915e-05
0.000245183
6.74947e-05
0.000251434
8.09836e-05
0.000254448
9.67246e-05
0.000254063
0.000115116
0.000250078
0.000136616
0.000242234
0.000161746
0.00023019
0.000191097
0.000213504
0.000225338
0.000191615
0.000265218
0.000163822
0.00031158
0.000129267
0.000365366
8.69185e-05
0.000427625
3.55602e-05
0.000499529
-2.62197e-05
0.00058238
-0.00010002
0.00067764
-0.000187613
0.000787141
-0.000290877
0.000912942
-0.000409691
-0.000544492
0.00106016
4.38944e-07
1.44804e-05
1.67479e-06
4.21357e-05
3.68736e-06
6.92744e-05
6.47662e-06
9.55185e-05
1.00609e-05
0.000120498
1.4478e-05
0.00014386
1.97877e-05
0.000165271
2.60745e-05
0.000184429
3.34516e-05
0.000201061
4.20647e-05
0.000214924
5.20975e-05
0.000225804
6.37755e-05
0.000233505
7.73718e-05
0.000237837
9.32112e-05
0.000238608
0.000111676
0.000235598
0.000133209
0.000228545
0.000158322
0.000217121
0.0001876
0.000200912
0.000221707
0.000179397
0.000261393
0.000151929
0.000307503
0.000117712
0.000360983
7.57865e-05
0.000422887
2.50142e-05
0.000494381
-3.59336e-05
0.000576743
-0.000108581
0.000671358
-0.000194636
0.000779709
-0.000295964
0.000903569
-0.000414737
0.00104471
-0.000550836
-0.000709195
0.00120942
4.37094e-07
1.40433e-05
1.69444e-06
4.08783e-05
3.77869e-06
6.71902e-05
6.71631e-06
9.25809e-05
1.05517e-05
0.000116663
1.53485e-05
0.000139063
2.11916e-05
0.000159428
2.81905e-05
0.00017743
3.64837e-05
0.000192768
4.62431e-05
0.000205165
5.768e-05
0.000214367
7.10502e-05
0.000220134
8.66604e-05
0.000222227
0.000104874
0.000220395
0.000126117
0.000214355
0.000150886
0.000203776
0.000179753
0.000188254
0.000213373
0.000167292
0.000252491
0.000140279
0.000297952
0.000106468
0.000350704
6.49603e-05
0.000411806
1.46843e-05
0.000482431
-4.56106e-05
0.00056386
-0.000117363
0.000657474
-0.000202195
0.000764731
-0.000301893
0.000887101
-0.000418334
0.00102622
-0.000553855
0.00118337
-0.000707987
-0.00089152
0.0013657
4.24163e-07
1.36191e-05
1.67494e-06
3.96275e-05
3.78939e-06
6.50757e-05
6.82382e-06
8.95465e-05
1.08519e-05
0.000112635
1.59661e-05
0.000133949
2.22796e-05
0.000153114
2.99305e-05
0.000169779
3.90861e-05
0.000183612
4.99485e-05
0.000194303
6.2761e-05
0.000201555
7.78147e-05
0.000205081
9.54554e-05
0.000204587
0.000116091
0.000199759
0.000140201
0.000190245
0.00016834
0.000175637
0.00020115
0.000155444
0.000239366
0.000129076
0.000283826
9.58188e-05
0.000335476
5.4818e-05
0.000395376
5.06027e-06
0.000464705
-5.46441e-05
0.000544749
-0.000125655
0.000636896
-0.00020951
0.000742606
-0.000307905
0.000863365
-0.000422651
0.00100058
-0.000555548
0.00115564
-0.000708913
0.00132916
-0.000881515
-0.00109098
0.00152862
4.01245e-07
1.32179e-05
1.62041e-06
3.84084e-05
3.72845e-06
6.29677e-05
6.81461e-06
8.64603e-05
1.09849e-05
0.000108464
1.63636e-05
0.00012857
2.30957e-05
0.000146382
3.13512e-05
0.000161524
4.13305e-05
0.000173633
5.32703e-05
0.000182363
6.74511e-05
0.000187374
8.42052e-05
0.000188327
0.000103924
0.000184867
0.00012707
0.000176613
0.000154179
0.000163136
0.000185878
0.000143938
0.000222889
0.000118434
0.000266036
8.59286e-05
0.000316258
4.55965e-05
0.000374611
-3.53515e-06
0.000442272
-6.26008e-05
0.000520529
-0.000132901
0.000610774
-0.0002159
0.000714469
-0.000313205
0.000833097
-0.000426534
0.000968096
-0.00055765
0.00112072
-0.000708174
0.00129196
-0.000880149
0.0014817
-0.00107126
-0.0013062
0.00169692
3.69936e-07
1.28479e-05
1.53688e-06
3.72414e-05
3.60886e-06
6.08957e-05
6.71105e-06
8.33581e-05
1.09847e-05
0.000104191
1.65891e-05
0.000122966
2.37043e-05
0.000139267
3.25363e-05
0.000152692
4.33229e-05
0.000162846
5.63407e-05
0.000169345
7.19136e-05
0.000171801
9.04219e-05
0.000169818
0.000112312
0.000162978
0.000138105
0.00015082
0.00016841
0.000132831
0.000203932
0.000108416
0.000245483
7.68833e-05
0.000293987
3.7424e-05
0.000350492
-1.09081e-05
0.000416165
-6.9208e-05
0.00049229
-0.000138726
0.000580254
-0.000220865
0.000681515
-0.00031716
0.00079755
-0.000429241
0.000929786
-0.000558769
0.00107949
-0.00070735
0.00124763
-0.000876318
0.0014346
-0.00106712
0.00163959
-0.00127625
-0.0015347
0.00186809
3.32328e-07
1.25156e-05
1.43216e-06
3.61416e-05
3.44755e-06
5.88803e-05
6.54233e-06
8.02634e-05
1.08959e-05
9.98371e-05
1.67056e-05
0.000117156
2.41903e-05
0.000131782
3.35961e-05
0.000143286
4.52034e-05
0.000151239
5.93345e-05
0.000155214
7.63638e-05
0.000154772
9.67273e-05
0.000149455
0.000120934
0.000138771
0.000149578
0.000122177
0.000183348
9.90612e-05
0.000223038
6.87253e-05
0.000269559
3.03621e-05
0.000323943
-1.69598e-05
0.000387344
-7.43094e-05
0.000461035
-0.000142899
0.00054639
-0.000224081
0.000644852
-0.000319328
0.000757886
-0.000430194
0.000886899
-0.000558253
0.00103313
-0.000705004
0.00119753
-0.000871742
0.00138062
-0.00105941
0.00158197
-0.00126847
0.00180026
-0.00149455
-0.00177277
0.00203833
2.90989e-07
1.22246e-05
1.31581e-06
3.51168e-05
3.26514e-06
5.6931e-05
6.34398e-06
7.71845e-05
1.07727e-05
9.54084e-05
1.67899e-05
0.000111139
2.46572e-05
0.000123915
3.46656e-05
0.000133277
4.71434e-05
0.000138761
6.24654e-05
0.000139892
8.10639e-05
0.000136173
0.00010344
0.000127079
0.000130175
0.000112035
0.000161945
9.04072e-05
0.000199527
6.14788e-05
0.000243816
2.44364e-05
0.000295826
-2.16478e-05
0.000356694
-7.78282e-05
0.000427675
-0.000145291
0.000510125
-0.000225349
0.000605466
-0.000319422
0.000715139
-0.000429
0.000840523
-0.000555578
0.000982832
-0.000700562
0.00114298
-0.000865151
0.00132139
-0.00105016
0.00151799
-0.00125601
0.00173135
-0.00148182
0.0019599
-0.0017231
-0.00201557
0.0022027
2.48893e-07
1.19757e-05
1.19885e-06
3.41668e-05
3.08534e-06
5.50445e-05
6.1569e-06
7.4113e-05
1.06776e-05
9.08877e-05
1.69307e-05
0.000104886
2.52247e-05
0.000115621
3.59004e-05
0.000122602
4.93402e-05
0.000125322
6.59787e-05
0.000123253
8.63143e-05
0.000115838
0.000110922
0.000102471
0.000140465
8.2492e-05
0.00017571
5.5163e-05
0.000217532
1.96567e-05
0.000266928
-2.49597e-05
0.000325016
-7.97355e-05
0.000393028
-0.000145841
0.000472296
-0.000224559
0.000564219
-0.000317271
0.000670204
-0.000425408
0.000791599
-0.000550396
0.00092958
-0.000693558
0.00108502
-0.000856001
0.00125833
-0.00103846
0.00144928
-0.0012411
0.00165696
-0.0014637
0.00187894
-0.0017038
0.00211367
-0.00195783
-0.00225737
0.00235548
2.09318e-07
1.17664e-05
1.09339e-06
3.32827e-05
2.93419e-06
5.32037e-05
6.02594e-06
7.10212e-05
1.06791e-05
8.62346e-05
1.72251e-05
9.83396e-05
2.60237e-05
0.000106823
3.74707e-05
0.000111155
5.20095e-05
0.000110783
7.01415e-05
0.000105121
9.24396e-05
9.35396e-05
0.000119561
7.53499e-05
0.00015226
4.97932e-05
0.000191398
1.60246e-05
0.000237954
-2.68993e-05
0.000293024
-8.003e-05
0.000357818
-0.00014453
0.000433641
-0.000221663
0.000521861
-0.000312779
0.000623854
-0.000419264
0.000740931
-0.000542484
0.000874226
-0.000683691
0.00102457
-0.000843905
0.00119234
-0.00102377
0.0013773
-0.00122341
0.00157839
-0.0014422
0.0017938
-0.0016791
0.00202021
-0.00193021
0.00225618
-0.0021938
-0.00249196
0.00249077
1.75715e-07
1.15907e-05
1.01213e-06
3.24463e-05
2.83899e-06
5.13768e-05
5.99809e-06
6.78621e-05
1.08489e-05
8.13838e-05
1.77748e-05
9.14137e-05
2.71908e-05
9.74066e-05
3.95541e-05
9.87914e-05
5.53748e-05
9.49622e-05
7.52287e-05
8.52674e-05
9.97707e-05
6.89976e-05
0.000129747
4.53732e-05
0.000166009
1.35319e-05
0.000209516
-2.74828e-05
0.000261346
-7.87289e-05
0.000322683
-0.000141367
0.000394805
-0.000216652
0.000479049
-0.000305908
0.000576759
-0.000410489
0.000689207
-0.000531712
0.000817491
-0.000670768
0.000962406
-0.000828606
0.00112429
-0.00100579
0.00130288
-0.00120236
0.00149714
-0.00141767
0.00170519
-0.00165025
0.00192418
-0.00189809
0.00215036
-0.00215639
0.00238194
-0.00242539
-0.00271308
0.00260306
1.51538e-07
1.14391e-05
9.67768e-07
3.16301e-05
2.82701e-06
4.95176e-05
6.12026e-06
6.45689e-05
1.12587e-05
7.62454e-05
1.86808e-05
8.39916e-05
2.88622e-05
8.72252e-05
4.2326e-05
8.53276e-05
5.96556e-05
7.76326e-05
8.15076e-05
6.34154e-05
0.000108625
4.18804e-05
0.000141848
1.21504e-05
0.000182123
-2.67436e-05
0.000230508
-7.58677e-05
0.000288164
-0.000136385
0.000356343
-0.000209545
0.00043635
-0.000296659
0.000529498
-0.000399055
0.000637024
-0.000518015
0.000759994
-0.000654682
0.000899174
-0.000809947
0.00105488
-0.000984312
0.00122683
-0.00117774
0.001414
-0.00138953
0.00161452
-0.00161819
0.00182567
-0.0018614
0.00204374
-0.00211616
0.00226499
-0.00237764
0.00248614
-0.00264654
-0.00291472
0.00268778
1.40068e-07
1.12991e-05
9.72371e-07
3.07978e-05
2.92415e-06
4.75658e-05
6.43703e-06
6.1056e-05
1.19762e-05
7.07062e-05
2.00391e-05
7.59287e-05
3.11655e-05
7.60988e-05
4.59501e-05
7.0543e-05
6.50546e-05
5.85281e-05
8.92212e-05
3.92488e-05
0.000119284
1.18177e-05
0.000156177
-2.47432e-05
0.000200942
-7.15077e-05
0.000254716
-0.000129643
0.000318727
-0.000200396
0.000394252
-0.000285071
0.000482574
-0.000384981
0.000584903
-0.000501384
0.000702277
-0.000635389
0.000835442
-0.000787847
0.000984702
-0.000959208
0.00114978
-0.00114939
0.00132967
-0.00135763
0.00152255
-0.00158241
0.00172574
-0.00182139
0.00193584
-0.0020715
0.00214858
-0.0023289
0.00236044
-0.0025895
0.00256513
-0.00285123
-0.00309382
0.00274423
1.44228e-07
1.11548e-05
1.03674e-06
2.99053e-05
3.15364e-06
4.54489e-05
6.98833e-06
5.72213e-05
1.30623e-05
6.46323e-05
2.19347e-05
6.70563e-05
3.42138e-05
6.38196e-05
5.05695e-05
5.41874e-05
7.17458e-05
3.73518e-05
9.85726e-05
1.24219e-05
0.000131975
-2.15847e-05
0.000172978
-6.57457e-05
0.000222701
-0.000121231
0.000282346
-0.000189288
0.000353168
-0.000271218
0.000436423
-0.000368326
0.000533299
-0.000481856
0.000644816
-0.000612901
0.000771709
-0.000762283
0.000914289
-0.000930426
0.00107229
-0.00111721
0.00124475
-0.00132185
0.00142991
-0.00154279
0.00162517
-0.00177768
0.0018272
-0.00202342
0.00203208
-0.00227638
0.00223549
-0.00253231
0.00243413
-0.00278814
0.00262124
-0.00303835
-0.00327959
0.00280702
1.66439e-07
1.09884e-05
1.16986e-06
2.89019e-05
3.53488e-06
4.30839e-05
7.80752e-06
5.29486e-05
1.45674e-05
5.78724e-05
2.4438e-05
5.71857e-05
3.8099e-05
5.01587e-05
5.62982e-05
3.59882e-05
7.98633e-05
1.37867e-05
0.000109711
-1.74263e-05
0.000146854
-5.87271e-05
0.000192393
-0.000111285
0.000247511
-0.000176349
0.00031344
-0.000255217
0.000391416
-0.000349193
0.000482609
-0.000459519
0.000588033
-0.00058728
0.000708425
-0.000733292
0.00084411
-0.000897968
0.000994863
-0.00108118
0.00115977
-0.00128212
0.00133716
-0.00149923
0.00152453
-0.00173016
0.00171865
-0.0019718
0.00191572
-0.00222049
0.00211164
-0.00247229
0.00230238
-0.00272305
0.00248441
-0.00297017
0.00265423
-0.00320816
-0.00344126
0.0028159
2.08496e-07
1.07799e-05
1.37853e-06
2.77318e-05
4.08257e-06
4.03798e-05
8.91985e-06
4.81114e-05
1.65294e-05
5.02629e-05
2.76011e-05
4.6114e-05
4.28875e-05
3.48723e-05
6.32151e-05
1.56605e-05
8.94944e-05
-1.24926e-05
0.000122725
-5.06565e-05
0.000163993
-9.99955e-05
0.000214463
-0.000161755
0.000275347
-0.000237233
0.000347866
-0.000327736
0.000433182
-0.000434509
0.000532307
-0.000558644
0.000645991
-0.000700965
0.000774593
-0.000861895
0.000917938
-0.00104131
0.00107519
-0.00123843
0.00124476
-0.00145169
0.00142428
-0.00167875
0.00161064
-0.00191651
0.00180016
-0.00216132
0.00198886
-0.00240919
0.00217278
-0.00265621
0.00234839
-0.00289866
0.00251274
-0.00313452
0.00266386
-0.00335929
-0.00357997
0.00280258
2.71523e-07
1.05084e-05
1.66709e-06
2.63362e-05
4.80627e-06
3.72407e-05
1.03417e-05
4.25759e-05
1.89726e-05
4.16319e-05
3.1456e-05
3.36306e-05
4.86175e-05
1.77108e-05
7.13611e-05
-7.08299e-06
0.000100675
-4.18065e-05
0.000137632
-8.76131e-05
0.000183377
-0.000145741
0.00023911
-0.000217488
0.000306039
-0.000304161
0.000385319
-0.000407017
0.000477973
-0.000527163
0.000584775
-0.000665446
0.000706128
-0.000822318
0.000841926
-0.000997692
0.000991425
-0.00119081
0.00115315
-0.00140016
0.00132485
-0.0016234
0.00150357
-0.00185747
0.00168575
-0.0020987
0.00186755
-0.00234312
0.00204509
-0.00258673
0.00221486
-0.00282598
0.00237405
-0.00305785
0.00252063
-0.0032811
0.00265374
-0.0034924
-0.00370049
0.00277425
3.55973e-07
1.01524e-05
2.0375e-06
2.46547e-05
5.71033e-06
3.35678e-05
1.20804e-05
3.62059e-05
2.19071e-05
3.18051e-05
3.60142e-05
1.95234e-05
5.52987e-05
-1.57365e-06
8.07376e-05
-3.25218e-05
0.000113389
-7.44577e-05
0.000154383
-0.000128608
0.000204905
-0.000196263
0.000266152
-0.000278735
0.000339284
-0.000377293
0.000425334
-0.000493067
0.000525111
-0.000626941
0.000639076
-0.000779411
0.000767203
-0.000950445
0.000908857
-0.00113935
0.00106269
-0.00134465
0.0012266
-0.00156407
0.00139777
-0.00179457
0.00157281
-0.0020325
0.00174796
-0.00227385
0.00191945
-0.00251461
0.00208381
-0.0027511
0.00223822
-0.00298039
0.00238074
-0.00320037
0.00251031
-0.00341067
0.00262715
-0.00360923
-0.00380546
0.00273212
4.617e-07
9.69071e-06
2.48948e-06
2.26269e-05
6.79433e-06
2.9263e-05
1.41348e-05
2.88655e-05
2.53298e-05
2.06101e-05
4.12677e-05
3.5855e-06
6.29132e-05
-2.32191e-05
9.1309e-05
-6.09176e-05
0.00012757
-0.000110719
0.000172867
-0.000173905
0.000228391
-0.000251787
0.000295304
-0.000345648
0.000374659
-0.000456647
0.000467306
-0.000585714
0.00057377
-0.000733405
0.000694123
-0.000899763
0.000827848
-0.00108417
0.000973744
-0.00128524
0.00112987
-0.00150077
0.00129357
-0.00172777
0.00146159
-0.00196259
0.00163031
-0.00220122
0.00179602
-0.00243957
0.0019553
-0.00267389
0.0021053
-0.0029011
0.00224402
-0.0031191
0.00237044
-0.00332679
0.0024844
-0.00352463
0.00258692
-0.00371175
-0.00389761
0.00267907
5.88073e-07
9.10264e-06
3.02092e-06
2.01941e-05
8.05373e-06
2.42301e-05
1.64965e-05
2.04227e-05
2.92258e-05
7.88087e-06
4.71913e-05
-1.438e-05
7.14188e-05
-4.74466e-05
0.000103006
-9.25052e-05
0.00014311
-0.000150822
0.000192913
-0.000223708
0.000253582
-0.000312456
0.000326193
-0.000418258
0.00041164
-0.000542095
0.000510522
-0.000684596
0.000623014
-0.000845897
0.000748735
-0.00102548
0.000886642
-0.00122208
0.00103497
-0.00143357
0.00119123
-0.00165704
0.00135234
-0.00188887
0.00151479
-0.00212504
0.00167496
-0.00236138
0.00182943
-0.00259404
0.00197532
-0.00281978
0.00211056
-0.00303633
0.00223399
-0.00324253
0.00234545
-0.00343825
0.00244553
-0.00362472
0.0025358
-0.00380202
-0.00397925
0.00261744
7.34122e-07
8.36852e-06
3.62833e-06
1.72999e-05
9.48081e-06
1.83777e-05
1.91513e-05
1.07522e-05
3.35708e-05
-6.53866e-06
5.37452e-05
-3.45543e-05
8.07526e-05
-7.44541e-05
0.000115732
-0.000127485
0.000159859
-0.00019495
0.000214303
-0.000278151
0.000280161
-0.000378314
0.000358376
-0.000496473
0.000449625
-0.000633343
0.000554191
-0.000789163
0.000671839
-0.000963545
0.0008017
-0.00115534
0.000942194
-0.00136257
0.00109103
-0.0015824
0.00124528
-0.00181129
0.00140158
-0.00204517
0.00155637
-0.00227983
0.00170626
-0.00251127
0.00184831
-0.00273609
0.00198034
-0.00295181
0.00210107
-0.00315706
0.00221017
-0.00335163
0.00230818
-0.00353626
0.00239624
-0.00371278
0.00247621
-0.00388199
-0.00405234
0.0025493
8.98692e-07
7.46983e-06
4.30734e-06
1.38912e-05
1.10656e-05
1.16194e-05
2.20805e-05
-2.62688e-07
3.83331e-05
-2.27913e-05
6.08782e-05
-5.70994e-05
9.08346e-05
-0.000104411
0.000129365
-0.000166016
0.00017764
-0.000243224
0.000236777
-0.000337288
0.000307764
-0.000449302
0.000391357
-0.000580066
0.000487954
-0.00072994
0.000597472
-0.00089868
0.000719222
-0.0010853
0.000851829
-0.00128795
0.000993204
-0.00150395
0.00114061
-0.00172981
0.00129081
-0.00196149
0.00144035
-0.00219471
0.00158584
-0.00242532
0.00172427
-0.00264971
0.00185336
-0.00286517
0.00197165
-0.0030701
0.00207865
-0.00326406
0.00217472
-0.0034477
0.00226093
-0.00362247
0.00233877
-0.00379062
0.00241018
-0.00395341
-0.00411848
0.00247632
1.08057e-06
6.38926e-06
5.05313e-06
9.91868e-06
1.27969e-05
3.87565e-06
2.52625e-05
-1.27283e-05
4.34756e-05
-4.10044e-05
6.85302e-05
-8.2154e-05
0.000101572
-0.000137452
0.000143766
-0.000208209
0.000196246
-0.000295704
0.000260043
-0.000401086
0.000335989
-0.000525247
0.000424596
-0.000668674
0.000525936
-0.00083128
0.00063951
-0.00101225
0.000764158
-0.00120994
0.00089801
-0.0014218
0.00103853
-0.00164447
0.00118265
-0.00187393
0.001327
-0.00210584
0.0014682
-0.00233591
0.0016032
-0.00256031
0.00172956
-0.00277607
0.00184567
-0.00298128
0.00195083
-0.00317526
0.00204521
-0.00335845
0.00212973
-0.00353221
0.00220578
-0.00369853
0.00227503
-0.00385986
0.00233937
-0.00401775
-0.00417891
0.0023998
1.27857e-06
5.11069e-06