/*--------------------------------*- C++ -*----------------------------------*\
  =========                 |
  \\      /  F ield         | OpenFOAM: The Open Source CFD Toolbox
   \\    /   O peration     | Website:  https://openfoam.org
    \\  /    A nd           | Version:  7
     \\/     M anipulation  |
\*---------------------------------------------------------------------------*/
FoamFile
{
    version     2.0;
    format      ascii;
    class       volScalarField;
    location    "15";
    object      p;
}
// * * * * * * * * * * * * * * * * * * * * * * * * * * * * * * * * * * * * * //

dimensions      [0 2 -2 0 0 0 0];

internalField   nonuniform List<scalar> 
928
(
-0.0278451
-0.0274152
-0.0269914
-0.0265733
-0.0261607
-0.027852
-0.0274221
-0.0269981
-0.0265799
-0.0261672
-0.0278659
-0.0274357
-0.0270116
-0.0265932
-0.0261803
-0.0278866
-0.0274561
-0.0270317
-0.026613
-0.0261999
-0.0279142
-0.0274833
-0.0270585
-0.0266395
-0.026226
-0.0279486
-0.0275172
-0.0270919
-0.0266724
-0.0262585
-0.0258499
-0.0279898
-0.0275578
-0.0271319
-0.0267119
-0.0262975
-0.0258883
-0.0280377
-0.027605
-0.0271785
-0.0267578
-0.0263427
-0.025933
-0.0280922
-0.0276588
-0.0272315
-0.02681
-0.0263942
-0.0259838
-0.0277191
-0.0272909
-0.0268686
-0.026452
-0.0260408
-0.0277857
-0.0273566
-0.0269334
-0.0265159
-0.0261038
-0.0278587
-0.0274285
-0.0270043
-0.0265858
-0.0261727
-0.027938
-0.0275066
-0.0270812
-0.0266616
-0.0262476
-0.0280233
-0.0275907
-0.0271641
-0.0267433
-0.0263281
-0.0281146
-0.0276806
-0.0272528
-0.0268308
-0.0264143
-0.0282118
-0.0277764
-0.0273472
-0.0269238
-0.0265061
-0.0283149
-0.0278779
-0.0274471
-0.0270224
-0.0266032
-0.0284235
-0.0279849
-0.0275525
-0.0271262
-0.0267057
-0.0262904
-0.0280973
-0.0276633
-0.0272354
-0.0268132
-0.0263965
-0.028215
-0.0277792
-0.0273496
-0.0269258
-0.0265074
-0.0283379
-0.0279002
-0.0274687
-0.0270432
-0.0266232
-0.0284657
-0.028026
-0.0275927
-0.0271653
-0.0267435
-0.0285984
-0.0281566
-0.0277213
-0.027292
-0.0268684
-0.0287357
-0.0282919
-0.0278544
-0.0274231
-0.0269976
-0.0284316
-0.027992
-0.0275586
-0.0271311
-0.0267091
-0.0285755
-0.0281336
-0.027698
-0.0272684
-0.0268444
-0.028722
-0.0282779
-0.02784
-0.0274083
-0.0269822
-0.0288735
-0.028427
-0.0279868
-0.0275528
-0.0271245
-0.0290451
-0.0285957
-0.0281527
-0.0277159
-0.027285
-0.0292251
-0.0287727
-0.0283268
-0.0278872
-0.0274535
-0.0288827
-0.0284373
-0.027998
-0.0275647
-0.0271372
-0.0291345
-0.0286864
-0.0282445
-0.0278087
-0.0273786
-0.029371
-0.0289209
-0.028477
-0.0280392
-0.0276072
-0.0296141
-0.0291619
-0.028716
-0.0282762
-0.0278422
-0.0298659
-0.0294116
-0.0289636
-0.0285216
-0.0280854
-0.030124
-0.0296675
-0.0292173
-0.028773
-0.0283346
-0.0303875
-0.0299287
-0.0294761
-0.0290296
-0.0285889
-0.0306555
-0.0301943
-0.0297393
-0.0292904
-0.0288473
-0.0309269
-0.0304633
-0.0300059
-0.0295545
-0.0291089
-0.0312007
-0.0307347
-0.0302748
-0.0298209
-0.0293729
-0.031476
-0.0310075
-0.0305452
-0.0300888
-0.0296382
-0.0317519
-0.0312809
-0.0308161
-0.0303572
-0.0299041
-0.0320274
-0.031554
-0.0310866
-0.0306252
-0.0301696
-0.0323017
-0.0318258
-0.031356
-0.0308921
-0.0304339
-0.0325738
-0.0320956
-0.0316234
-0.031157
-0.0306964
-0.0328432
-0.0323627
-0.0318881
-0.0314193
-0.0309562
-0.0331091
-0.0326263
-0.0321495
-0.0316783
-0.0312129
-0.0333708
-0.0328859
-0.0324068
-0.0319334
-0.0314656
-0.0336278
-0.0331408
-0.0326597
-0.0321841
-0.0317141
-0.0338795
-0.0333907
-0.0329075
-0.0324299
-0.0319577
-0.0341256
-0.033635
-0.0331499
-0.0326703
-0.0321961
-0.0343657
-0.0338733
-0.0333865
-0.0329051
-0.032429
-0.0345994
-0.0341055
-0.033617
-0.0331338
-0.032656
-0.0348265
-0.0343311
-0.0338411
-0.0333564
-0.0328768
-0.0350467
-0.03455
-0.0340586
-0.0335724
-0.0330913
-0.0352599
-0.0347621
-0.0342694
-0.0337818
-0.0332993
-0.035466
-0.0349671
-0.0344733
-0.0339845
-0.0335006
-0.0356648
-0.035165
-0.0346702
-0.0341803
-0.0336952
-0.0358564
-0.0353557
-0.03486
-0.0343691
-0.033883
-0.0360406
-0.0355393
-0.0350428
-0.034551
-0.034064
-0.0362175
-0.0357156
-0.0352184
-0.0347259
-0.034238
-0.036387
-0.0358847
-0.035387
-0.0348939
-0.0344052
-0.0365494
-0.0360467
-0.0355485
-0.0350548
-0.0345655
-0.0367045
-0.0362016
-0.035703
-0.0352089
-0.0347191
-0.0368525
-0.0363494
-0.0358506
-0.0353561
-0.0348658
-0.0369935
-0.0364903
-0.0359913
-0.0354965
-0.0350059
-0.0371276
-0.0366244
-0.0361253
-0.0356303
-0.0351393
-0.0372548
-0.0367517
-0.0362525
-0.0357574
-0.0352662
-0.0373754
-0.0368723
-0.0363732
-0.035878
-0.0353867
-0.0374894
-0.0369864
-0.0364874
-0.0359921
-0.0355007
-0.0375969
-0.0370941
-0.0365952
-0.0361
-0.0356085
-0.0376981
-0.0371956
-0.0366967
-0.0362016
-0.0357102
-0.0377931
-0.0372908
-0.0367922
-0.0362971
-0.0358057
-0.037882
-0.03738
-0.0368816
-0.0363867
-0.0358953
-0.0379649
-0.0374632
-0.036965
-0.0364703
-0.035979
-0.038042
-0.0375407
-0.0370427
-0.0365481
-0.036057
-0.0381135
-0.0376124
-0.0371147
-0.0366203
-0.0361293
-0.0381792
-0.0376785
-0.037181
-0.0366869
-0.036196
-0.0382395
-0.0377391
-0.0372419
-0.0367479
-0.0362572
-0.0382945
-0.0377943
-0.0372973
-0.0368035
-0.036313
-0.038344
-0.0378442
-0.0373474
-0.0368539
-0.0363634
-0.0383884
-0.0378888
-0.0373923
-0.0368989
-0.0364086
-0.0384277
-0.0379283
-0.037432
-0.0369388
-0.0364486
-0.0384619
-0.0379627
-0.0374666
-0.0369735
-0.0364835
-0.038491
-0.0379921
-0.0374961
-0.0370032
-0.0365133
-0.0385153
-0.0380165
-0.0375207
-0.0370278
-0.036538
-0.0385346
-0.0380359
-0.0375402
-0.0370475
-0.0365578
-0.0385491
-0.0380505
-0.0375549
-0.0370623
-0.0365726
-0.0385587
-0.0380602
-0.0375647
-0.0370721
-0.0365824
-0.0385635
-0.038065
-0.0375695
-0.0370769
-0.0365873
-0.0333289
-0.033597
-0.0338608
-0.0341198
-0.0343734
-0.0346213
-0.034863
-0.0350982
-0.0353267
-0.0355482
-0.0357625
-0.0359695
-0.0361692
-0.0363614
-0.0365462
-0.0367236
-0.0368936
-0.0370562
-0.0372115
-0.0373596
-0.0375006
-0.0376346
-0.0377617
-0.0378821
-0.0379958
-0.0381031
-0.038204
-0.0382986
-0.0383872
-0.0384698
-0.0385465
-0.0386176
-0.038683
-0.038743
-0.0387975
-0.0388468
-0.0388909
-0.0389298
-0.0389638
-0.0389927
-0.0390168
-0.0390359
-0.0390503
-0.0390598
-0.0390646
-0.0288817
-0.0291335
-0.02937
-0.029613
-0.0298649
-0.030123
-0.0303865
-0.0306544
-0.0309258
-0.0311997
-0.0314751
-0.0317509
-0.0320265
-0.0323007
-0.032573
-0.0328423
-0.0331082
-0.03337
-0.033627
-0.0338788
-0.0341249
-0.034365
-0.0345987
-0.0348258
-0.0350461
-0.0352593
-0.0354654
-0.0356643
-0.0358558
-0.0360401
-0.036217
-0.0363866
-0.0365489
-0.0367041
-0.0368521
-0.0369931
-0.0371272
-0.0372545
-0.037375
-0.037489
-0.0375965
-0.0376977
-0.0377927
-0.0378817
-0.0379646
-0.0380417
-0.0381132
-0.038179
-0.0382393
-0.0382942
-0.0383438
-0.0383882
-0.0384274
-0.0384616
-0.0384908
-0.038515
-0.0385343
-0.0385488
-0.0385584
-0.0385632
-0.0284363
-0.0286854
-0.0289199
-0.0291609
-0.0294106
-0.0296665
-0.0299277
-0.0301933
-0.0304623
-0.0307337
-0.0310066
-0.03128
-0.0315531
-0.0318249
-0.0320948
-0.0323618
-0.0326255
-0.0328851
-0.0331401
-0.0333899
-0.0336342
-0.0338726
-0.0341048
-0.0343305
-0.0345494
-0.0347615
-0.0349665
-0.0351645
-0.0353552
-0.0355388
-0.0357151
-0.0358842
-0.0360462
-0.0362011
-0.036349
-0.0364899
-0.036624
-0.0367513
-0.0368719
-0.0369861
-0.0370938
-0.0371952
-0.0372905
-0.0373797
-0.0374629
-0.0375404
-0.0376121
-0.0376782
-0.0377388
-0.037794
-0.0378439
-0.0378886
-0.037928
-0.0379624
-0.0379918
-0.0380162
-0.0380357
-0.0380503
-0.03806
-0.0380648
-0.027997
-0.0282435
-0.0284761
-0.0287151
-0.0289626
-0.0292163
-0.0294751
-0.0297383
-0.0300049
-0.0302738
-0.0305442
-0.0308151
-0.0310857
-0.0313551
-0.0316225
-0.0318873
-0.0321486
-0.032406
-0.0326589
-0.0329067
-0.0331492
-0.0333858
-0.0336163
-0.0338405
-0.034058
-0.0342688
-0.0344727
-0.0346696
-0.0348595
-0.0350423
-0.035218
-0.0353865
-0.0355481
-0.0357026
-0.0358502
-0.0359909
-0.0361249
-0.0362521
-0.0363728
-0.036487
-0.0365948
-0.0366964
-0.0367918
-0.0368812
-0.0369647
-0.0370424
-0.0371144
-0.0371807
-0.0372416
-0.037297
-0.0373472
-0.037392
-0.0374317
-0.0374663
-0.0374959
-0.0375204
-0.03754
-0.0375546
-0.0375644
-0.0375693
-0.0275638
-0.0278077
-0.0280382
-0.0282752
-0.0285206
-0.028772
-0.0290286
-0.0292894
-0.0295535
-0.02982
-0.0300878
-0.0303563
-0.0306243
-0.0308912
-0.0311562
-0.0314185
-0.0316775
-0.0319327
-0.0321834
-0.0324292
-0.0326696
-0.0329044
-0.0331332
-0.0333557
-0.0335718
-0.0337813
-0.0339839
-0.0341797
-0.0343686
-0.0345505
-0.0347255
-0.0348934
-0.0350544
-0.0352085
-0.0353557
-0.0354961
-0.0356299
-0.035757
-0.0358776
-0.0359918
-0.0360996
-0.0362013
-0.0362968
-0.0363864
-0.03647
-0.0365478
-0.03662
-0.0366866
-0.0367476
-0.0368033
-0.0368536
-0.0368986
-0.0369385
-0.0369733
-0.0370029
-0.0370276
-0.0370473
-0.037062
-0.0370718
-0.0370767
-0.0271363
-0.0273777
-0.0276062
-0.0278412
-0.0280844
-0.0283336
-0.0285879
-0.0288463
-0.029108
-0.0293719
-0.0296373
-0.0299032
-0.0301687
-0.0304331
-0.0306955
-0.0309554
-0.0312121
-0.0314649
-0.0317133
-0.031957
-0.0321955
-0.0324283
-0.0326553
-0.0328762
-0.0330907
-0.0332987
-0.0335001
-0.0336947
-0.0338825
-0.0340635
-0.0342375
-0.0344048
-0.0292242
-0.0287718
-0.0283259
-0.0278863
-0.0274526
-0.0290442
-0.0285948
-0.0281518
-0.027715
-0.0272841
-0.0288727
-0.0284261
-0.027986
-0.027552
-0.0271237
-0.0287212
-0.028277
-0.0278392
-0.0274075
-0.0269814
-0.0285746
-0.0281328
-0.0276972
-0.0272676
-0.0268436
-0.0288769
-0.0284308
-0.0279912
-0.0275579
-0.0271304
-0.0267083
-0.0287349
-0.0282911
-0.0278537
-0.0274224
-0.0269969
-0.0285976
-0.0281559
-0.0277206
-0.0272913
-0.0268677
-0.028465
-0.0280253
-0.027592
-0.0271646
-0.0267428
-0.0283372
-0.0278995
-0.027468
-0.0270425
-0.0266225
-0.0282144
-0.0277785
-0.0273489
-0.0269251
-0.0265068
-0.0280967
-0.0276626
-0.0272347
-0.0268126
-0.0263958
-0.0284229
-0.0279843
-0.0275519
-0.0271256
-0.0267051
-0.0262898
-0.0283143
-0.0278773
-0.0274465
-0.0270218
-0.0266027
-0.0282113
-0.0277758
-0.0273466
-0.0269233
-0.0265055
-0.0281141
-0.0276801
-0.0272523
-0.0268303
-0.0264138
-0.0280228
-0.0275902
-0.0271636
-0.0267428
-0.0263276
-0.0279375
-0.0275061
-0.0270808
-0.0266612
-0.0262471
-0.0278583
-0.0274281
-0.0270039
-0.0265854
-0.0261723
-0.0277853
-0.0273562
-0.026933
-0.0265155
-0.0261034
-0.0277187
-0.0272905
-0.0268682
-0.0264516
-0.0260404
-0.0280919
-0.0276585
-0.0272311
-0.0268097
-0.0263939
-0.0259835
-0.0280374
-0.0276047
-0.0271782
-0.0267575
-0.0263424
-0.0259327
-0.0279895
-0.0275575
-0.0271317
-0.0267116
-0.0262972
-0.0258881
-0.0279484
-0.027517
-0.0270917
-0.0266722
-0.0262583
-0.0258497
-0.027914
-0.0274831
-0.0270583
-0.0266393
-0.0262259
-0.0278865
-0.027456
-0.0270316
-0.0266129
-0.0261998
-0.0278658
-0.0274356
-0.0270115
-0.0265931
-0.0261802
-0.027852
-0.027422
-0.026998
-0.0265798
-0.0261672
-0.0278451
-0.0274152
-0.0269913
-0.0265732
-0.0261606
)
;

boundaryField
{
    inlet
    {
        type            zeroGradient;
    }
    outlet
    {
        type            fixedValue;
        value           nonuniform 0();
    }
    cylinder
    {
        type            zeroGradient;
    }
    top
    {
        type            symmetryPlane;
    }
    bottom
    {
        type            symmetryPlane;
    }
    defaultFaces
    {
        type            empty;
    }
    procBoundary44to43
    {
        type            processor;
        value           nonuniform List<scalar> 
189
(
-0.0282811
-0.0282881
-0.0283022
-0.0283232
-0.0283512
-0.0283861
-0.0284279
-0.0284765
-0.0285318
-0.0281534
-0.0281534
-0.0282211
-0.0282951
-0.0283755
-0.0284621
-0.0285548
-0.0286535
-0.028758
-0.0288683
-0.0285377
-0.0285377
-0.0286572
-0.0287819
-0.0289117
-0.0290464
-0.0291859
-0.0288777
-0.0288777
-0.0290238
-0.0291726
-0.0293266
-0.029501
-0.029684
-0.0293346
-0.0293346
-0.029589
-0.0298275
-0.0300725
-0.0303265
-0.0305869
-0.0308527
-0.031123
-0.0313968
-0.031673
-0.0319508
-0.0322291
-0.032507
-0.0327837
-0.0330582
-0.0333298
-0.0335978
-0.0338616
-0.0341206
-0.0343742
-0.0346221
-0.0348637
-0.0350989
-0.0353274
-0.0355488
-0.0357631
-0.0359701
-0.0361698
-0.036362
-0.0365468
-0.0367241
-0.036894
-0.0370566
-0.0372119
-0.03736
-0.037501
-0.037635
-0.0377621
-0.0378825
-0.0379962
-0.0381034
-0.0382043
-0.038299
-0.0383875
-0.0384701
-0.0385469
-0.0386179
-0.0386833
-0.0387432
-0.0387978
-0.0388471
-0.0388911
-0.0389301
-0.038964
-0.038993
-0.039017
-0.0390362
-0.0390505
-0.0390601
-0.0390648
-0.0338217
-0.0340919
-0.0343577
-0.0346186
-0.0348741
-0.0351236
-0.0353668
-0.0356034
-0.0358331
-0.0360557
-0.036271
-0.0364789
-0.0366793
-0.0368721
-0.0370574
-0.0372351
-0.0374053
-0.037568
-0.0377234
-0.0378715
-0.0380124
-0.0381462
-0.0382731
-0.0383932
-0.0385066
-0.0386135
-0.038714
-0.0388082
-0.0388963
-0.0389785
-0.0390548
-0.0391254
-0.0391904
-0.0392499
-0.039304
-0.0393529
-0.0393966
-0.0394353
-0.0394689
-0.0394976
-0.0395214
-0.0395404
-0.0395547
-0.0395641
-0.0395688
-0.0293336
-0.0293336
-0.029588
-0.0298265
-0.0300715
-0.0303255
-0.0305859
-0.0308517
-0.031122
-0.0313958
-0.031672
-0.0319498
-0.0322282
-0.0325061
-0.0327827
-0.0330573
-0.0330573
-0.0296831
-0.0295002
-0.0293257
-0.0291718
-0.029023
-0.029023
-0.0293293
-0.0291851
-0.0290456
-0.028911
-0.0287812
-0.0286565
-0.028537
-0.028537
-0.0288677
-0.0287574
-0.0286529
-0.0285542
-0.0284616
-0.028375
-0.0282947
-0.0282207
-0.028153
-0.028153
-0.0285315
-0.0284762
-0.0284276
-0.0283858
-0.028351
-0.028323
-0.0283021
-0.0282881
-0.0282811
)
;
    }
    procBoundary44to45
    {
        type            processor;
        value           nonuniform List<scalar> 
189
(
-0.0257534
-0.0257598
-0.0257728
-0.0257921
-0.0258178
-0.0258178
-0.0254466
-0.0254845
-0.0255285
-0.0255787
-0.0256349
-0.025697
-0.025765
-0.0258388
-0.0259182
-0.0260032
-0.0260937
-0.0261894
-0.0261894
-0.0258805
-0.025985
-0.0260944
-0.0262085
-0.0263271
-0.0264502
-0.0265775
-0.0265775
-0.0262924
-0.0264257
-0.0265615
-0.0267017
-0.0268596
-0.0270255
-0.0270255
-0.0267154
-0.0269543
-0.0271808
-0.0274139
-0.027655
-0.0279019
-0.0281539
-0.0284099
-0.0286691
-0.0289305
-0.0291933
-0.0294566
-0.0297196
-0.0299814
-0.0302413
-0.0304987
-0.0307529
-0.0310033
-0.0312495
-0.0314909
-0.0317273
-0.0319581
-0.0321832
-0.0324023
-0.0326152
-0.0328217
-0.0330216
-0.033215
-0.0334016
-0.0335815
-0.0337546
-0.033921
-0.0340806
-0.0342335
-0.0343798
-0.0345194
-0.0346524
-0.034779
-0.0348992
-0.0350131
-0.0351208
-0.0352224
-0.0353179
-0.0354075
-0.0354912
-0.0355692
-0.0356416
-0.0357084
-0.0357697
-0.0358256
-0.0358761
-0.0359215
-0.0359616
-0.0359965
-0.0360264
-0.0360512
-0.036071
-0.0360859
-0.0360958
-0.0361007
-0.0345651
-0.0347187
-0.0348654
-0.0350055
-0.035139
-0.0352659
-0.0353863
-0.0355004
-0.0356082
-0.0357098
-0.0358054
-0.035895
-0.0359787
-0.0360567
-0.036129
-0.0361957
-0.0362569
-0.0363127
-0.0363632
-0.0364084
-0.0364484
-0.0364832
-0.036513
-0.0365378
-0.0365575
-0.0365723
-0.0365822
-0.0365871
-0.0267144
-0.0270246
-0.0269533
-0.0271799
-0.0274129
-0.027654
-0.027901
-0.0281529
-0.0284089
-0.0286681
-0.0289296
-0.0291924
-0.0294557
-0.0297187
-0.0299805
-0.0302405
-0.0304979
-0.0307521
-0.0310025
-0.0312487
-0.0314902
-0.0317266
-0.0319575
-0.0321826
-0.0324017
-0.0326146
-0.0328211
-0.0330211
-0.0332144
-0.0334011
-0.033581
-0.0337542
-0.0345651
-0.0339206
-0.0270246
-0.0268588
-0.0267009
-0.0265607
-0.0264249
-0.0262917
-0.0265768
-0.0265768
-0.0264494
-0.0263264
-0.0262078
-0.0260938
-0.0259844
-0.0258799
-0.0261889
-0.0261889
-0.0260931
-0.0260027
-0.0259177
-0.0258383
-0.0257646
-0.0256966
-0.0256345
-0.0255784
-0.0255282
-0.0254842
-0.0254464
-0.0258177
-0.0258177
-0.025792
-0.0257727
-0.0257598
-0.0257533
)
;
    }
}


// ************************************************************************* //
