/*--------------------------------*- C++ -*----------------------------------*\
  =========                 |
  \\      /  F ield         | OpenFOAM: The Open Source CFD Toolbox
   \\    /   O peration     | Website:  https://openfoam.org
    \\  /    A nd           | Version:  7
     \\/     M anipulation  |
\*---------------------------------------------------------------------------*/
FoamFile
{
    version     2.0;
    format      ascii;
    class       volVectorField;
    location    "20";
    object      U;
}
// * * * * * * * * * * * * * * * * * * * * * * * * * * * * * * * * * * * * * //

dimensions      [0 1 -1 0 0 0 0];

internalField   nonuniform List<vector> 
392
(
(0.0152829 -0.00229034 6.16905e-22)
(0.0260397 -0.00237973 9.76614e-22)
(0.0371634 -0.00244628 1.68492e-22)
(0.0177055 -0.00686537 -2.74838e-21)
(0.0284494 -0.00713229 1.09287e-21)
(0.0395525 -0.007331 -9.31214e-22)
(0.0225418 -0.0114222 -1.01816e-20)
(0.0332593 -0.0118628 6.73004e-21)
(0.0443206 -0.0121907 1.15397e-21)
(0.0297743 -0.0159481 6.74862e-21)
(0.0404499 -0.0165561 7.14759e-21)
(0.051447 -0.0170085 -8.15413e-21)
(0.0393766 -0.0204301 2.32235e-20)
(0.0499924 -0.0211968 -1.4326e-20)
(0.0609009 -0.021767 -7.04145e-21)
(0.0513134 -0.0248539 -2.67421e-21)
(0.0618486 -0.0257688 -1.01413e-22)
(0.0726413 -0.0264487 2.10561e-20)
(0.0655409 -0.0292046 -6.14213e-21)
(0.0759705 -0.030255 9.4455e-21)
(0.0866175 -0.0310354 8.33838e-21)
(0.0820069 -0.0334656 -7.14834e-21)
(0.0923011 -0.0346377 -1.41078e-20)
(0.102769 -0.0355081 -1.50392e-21)
(0.113357 -0.0361243 1.5106e-20)
(0.110774 -0.0388979 8.67984e-21)
(0.121025 -0.0398474 3.01654e-20)
(0.131361 -0.0405192 -4.2808e-20)
(0.131314 -0.0430156 -7.73246e-21)
(0.141305 -0.044033 1.55249e-20)
(0.151346 -0.0447528 3.4831e-21)
(0.153835 -0.0469698 1.89082e-20)
(0.163521 -0.0480442 2.71612e-20)
(0.173221 -0.0488046 1.81065e-20)
(0.178244 -0.0507382 -1.95045e-20)
(0.187574 -0.0518594 4.21263e-21)
(0.196884 -0.052654 -1.38063e-20)
(0.204437 -0.0542978 1.62539e-20)
(0.213355 -0.0554568 1.52755e-20)
(0.222224 -0.0562802 -2.35301e-20)
(0.232301 -0.0576247 -3.14401e-20)
(0.240748 -0.0588142 1.55054e-20)
(0.249121 -0.0596627 1.14441e-20)
(0.261713 -0.0606945 -3.05431e-20)
(0.269627 -0.0619096 3.42628e-20)
(0.277449 -0.0627815 -3.23854e-21)
(0.299858 -0.0647213 9.88007e-21)
(0.307072 -0.0656169 1.10611e-20)
(0.31421 -0.0662162 -5.29825e-21)
(0.331298 -0.0672282 1.5158e-20)
(0.337847 -0.0681506 -2.07151e-20)
(0.344323 -0.0687766 4.71646e-20)
(0.363796 -0.069411 -5.0615e-20)
(0.369626 -0.070366 3.05947e-20)
(0.375392 -0.0710256 -9.6408e-24)
(0.397196 -0.0712524 1.45324e-20)
(0.402253 -0.0722485 3.03905e-20)
(0.407265 -0.0729508 -2.78587e-20)
(0.431334 -0.072734 1.74141e-20)
(0.43557 -0.0737828 -6.44644e-20)
(0.439787 -0.0745392 3.118e-20)
(0.469413 -0.074951 2.09677e-20)
(0.472799 -0.0757749 -2.3045e-20)
(0.476221 -0.0763361 2.34268e-20)
(0.503619 -0.0757619 1.66907e-21)
(0.506144 -0.0766683 -5.85331e-20)
(0.508742 -0.0773091 3.24313e-21)
(0.538024 -0.0762894 2.38137e-20)
(0.539665 -0.0772948 -1.13869e-20)
(0.54142 -0.07803 -1.16375e-20)
(0.572464 -0.0764509 9.76348e-20)
(0.573205 -0.0775782 -2.98568e-20)
(0.574107 -0.0784286 1.69606e-20)
(0.631217 -0.0767273 0)
(0.630787 -0.0778093 0)
(0.63058 -0.0786274 0)
(0.721238 -0.0753447 3.09983e-27)
(0.718733 -0.0766809 -3.09983e-27)
(0.716554 -0.0777394 0)
(0.809947 -0.0714738 1.78002e-27)
(0.805522 -0.0732177 -1.78002e-27)
(0.801505 -0.0746531 0)
(0.894264 -0.0655328 0)
(0.888245 -0.0677699 0)
(0.882679 -0.0696614 0)
(0.971629 -0.0581215 -5.78185e-28)
(0.964459 -0.0608719 2.10672e-27)
(0.957745 -0.0632428 0)
(1.04018 -0.0497693 -1.52854e-27)
(1.03235 -0.0530043 0)
(1.02493 -0.0558353 0)
(1.09883 -0.0410157 0)
(1.09081 -0.0446669 0)
(1.08313 -0.0479021 0)
(1.14727 -0.0323479 0)
(1.13946 -0.0363221 0)
(1.13192 -0.0398808 0)
(1.18585 -0.0241483 2.60737e-27)
(1.17856 -0.0283435 -4.07407e-11)
(1.17143 -0.0321344 -3.96165e-11)
(1.21539 -0.0166804 -1.43652e-27)
(1.20881 -0.0209985 4.07407e-11)
(1.20232 -0.0249311 3.96165e-11)
(1.23701 -0.010095 0)
(1.23125 -0.0144495 0)
(1.2255 -0.0184422 0)
(1.25197 -0.00444826 0)
(1.24706 -0.00876825 0)
(1.2421 -0.0127527 0)
(1.26154 0.000275487 -3.85603e-11)
(1.25744 -0.00395575 3.85603e-11)
(1.25325 -0.00787829 0)
(1.26688 0.00413965 -3.70749e-11)
(1.26353 3.61248e-05 3.70749e-11)
(1.26006 -0.00378485 0)
(1.26901 0.00723465 -3.30941e-11)
(1.26633 0.00328485 0)
(1.26351 -0.000407157 -1.03726e-27)
(1.2688 0.0096615 3.30941e-11)
(1.2667 0.00588123 0)
(1.26444 0.00233579 1.03726e-27)
(1.26693 0.0115201 3.04989e-11)
(1.26532 0.00791773 6.65219e-29)
(1.26354 0.00452912 0)
(1.26394 0.0129021 -3.04989e-11)
(1.26273 0.00948091 0)
(1.26137 0.00625424 0)
(1.26022 0.0138873 0)
(1.25936 0.0106474 0)
(1.25834 0.00758437 -8.05823e-28)
(1.25608 0.0145429 0)
(1.2555 0.0114824 0)
(1.25477 0.00858267 8.05823e-28)
(1.25172 0.0149237 0)
(1.25138 0.0120399 0)
(1.25089 0.00930196 0)
(1.24729 0.0150742 0)
(1.24716 0.0123638 0)
(1.24687 0.00978561 0)
(1.2429 0.0150302 0)
(1.24294 0.0124897 0)
(1.24282 0.0100689 2.45344e-28)
(1.23862 0.0148202 -1.06348e-27)
(1.23881 0.0124463 1.06348e-27)
(1.23884 0.0101805 -2.45344e-28)
(1.2345 0.0144677 0)
(1.23482 0.012257 0)
(1.23498 0.0101437 0)
(1.23058 0.0139918 -5.69058e-28)
(1.231 0.0119412 5.69058e-28)
(1.23128 0.00997793 0)
(1.22687 0.0134086 0)
(1.22739 0.0115149 0)
(1.22776 0.00969938 0)
(1.2234 0.0127318 5.35942e-28)
(1.224 0.010992 -5.35942e-28)
(1.22446 0.00932189 0)
(1.22017 0.0119732 -4.38492e-29)
(1.22084 0.0103844 -5.43741e-28)
(1.22138 0.00885744 0)
(1.21719 0.0111431 0)
(1.21793 0.00970263 5.8759e-28)
(1.21853 0.00831662 0)
(1.21448 0.0102508 0)
(1.21527 0.00895597 1.95955e-28)
(1.21593 0.00770886 0)
(1.21202 0.00930452 2.91179e-28)
(1.21287 0.00815287 -4.87133e-28)
(1.21358 0.00704272 0)
(1.20984 0.00831166 0)
(1.21072 0.007301 0)
(1.21148 0.006326 0)
(1.20792 0.00727909 0)
(1.20885 0.00640741 0)
(1.20964 0.00556592 0)
(1.20628 0.0062131 8.07136e-28)
(1.20723 0.00547864 -8.07136e-28)
(1.20806 0.0047692 0)
(1.20491 0.00511959 4.55582e-28)
(1.20589 0.00452081 -4.55582e-28)
(1.20673 0.00394215 0)
(1.20381 0.00400406 1.7666e-28)
(1.20481 0.0035397 0)
(1.20568 0.00309077 -1.82287e-28)
(1.20299 0.00287177 -6.24231e-28)
(1.204 0.00254082 4.47571e-28)
(1.20488 0.00222077 1.82287e-28)
(1.20244 0.00172783 0)
(1.20346 0.00152955 -5.09377e-28)
(1.20435 0.00133777 5.17051e-28)
(1.20217 0.00057679 0)
(1.20319 0.000510747 5.14848e-28)
(1.20409 0.000446858 -5.22604e-28)
(1.2427 -0.017689 0)
(1.23828 -0.0173005 0)
(1.23404 -0.0167737 2.24284e-11)
(1.23 -0.0161276 -2.24284e-11)
(1.2262 -0.0153782 0)
(1.22265 -0.014539 0)
(1.21935 -0.0136216 0)
(1.21631 -0.0126361 0)
(1.21354 -0.0115915 1.88104e-11)
(1.21104 -0.0104959 -1.88104e-11)
(1.20882 -0.00935633 0)
(1.20687 -0.00817947 0)
(1.2052 -0.00697132 0)
(1.20381 -0.00573743 0)
(1.20269 -0.00448301 -6.86372e-28)
(1.20186 -0.00321302 6.86372e-28)
(1.2013 -0.00193223 -1.69058e-11)
(1.20102 -0.000644868 1.70874e-11)
(0.631218 0.0767276 0)
(0.721239 0.0753451 0)
(0.809948 0.0714741 0)
(0.894264 0.0655331 0)
(0.971629 0.0581218 2.10672e-27)
(1.04018 0.0497695 0)
(1.09883 0.0410159 0)
(1.14727 0.0323481 -6.37879e-28)
(1.18585 0.0241485 2.05637e-27)
(1.21539 0.0166805 -2.05637e-27)
(1.23701 0.0100952 3.88574e-11)
(1.25197 0.00444838 -3.88574e-11)
(1.26154 -0.000275382 0)
(1.26688 -0.00413955 9.72007e-28)
(1.26901 -0.00723457 -3.30941e-11)
(1.2688 -0.00966142 3.30941e-11)
(1.26693 -0.01152 6.65219e-29)
(1.26394 -0.012902 0)
(1.26022 -0.0138873 5.02233e-28)
(1.25608 -0.0145428 -5.02233e-28)
(1.25172 -0.0149237 0)
(1.24729 -0.0150742 0)
(1.2429 -0.0150301 0)
(1.23862 -0.0148202 1.06348e-27)
(1.2345 -0.0144676 -1.46328e-27)
(1.23058 -0.0139918 1.81557e-27)
(1.22687 -0.0134086 -3.30759e-28)
(1.2234 -0.0127318 0)
(1.22017 -0.0119732 -9.12288e-28)
(1.21719 -0.0111431 0)
(1.21448 -0.0102508 0)
(1.21202 -0.00930452 -2.91179e-28)
(1.20984 -0.00831166 0)
(1.20792 -0.00727908 2.80688e-28)
(1.20628 -0.0062131 0)
(1.20491 -0.00511959 0)
(1.20381 -0.00400406 1.38734e-28)
(1.20299 -0.00287177 -1.7666e-28)
(1.20244 -0.00172783 -1.72481e-11)
(1.20217 -0.00057679 1.74333e-11)
(0.630787 0.0778096 0)
(0.718733 0.0766812 0)
(0.805522 0.073218 0)
(0.888245 0.0677702 0)
(0.964459 0.0608722 -2.10672e-27)
(1.03235 0.0530045 0)
(1.09081 0.0446671 0)
(1.13946 0.0363222 6.37879e-28)
(1.17856 0.0283437 -1.31514e-27)
(1.20881 0.0209986 1.31514e-27)
(1.23125 0.0144496 0)
(1.24706 0.00876836 0)
(1.25744 0.00395585 0)
(1.26353 -3.6036e-05 -9.72007e-28)
(1.26633 -0.00328477 1.60319e-27)
(1.2667 -0.00588116 -1.60319e-27)
(1.26532 -0.00791767 -6.65219e-29)
(1.26273 -0.00948086 0)
(1.25936 -0.0106474 0)
(1.2555 -0.0114824 0)
(1.25138 -0.0120398 0)
(1.24716 -0.0123638 0)
(1.24294 -0.0124897 0)
(1.23881 -0.0124463 -1.06348e-27)
(1.23482 -0.012257 -3.52293e-28)
(1.231 -0.0119412 0)
(1.22739 -0.0115149 3.30759e-28)
(1.224 -0.010992 0)
(1.22084 -0.0103844 9.12288e-28)
(1.21793 -0.00970263 0)
(1.21527 -0.00895597 -1.95955e-28)
(1.21287 -0.00815287 4.87133e-28)
(1.21072 -0.007301 0)
(1.20885 -0.00640741 -2.80688e-28)
(1.20723 -0.00547864 0)
(1.20589 -0.00452082 0)
(1.20481 -0.0035397 -1.38751e-27)
(1.204 -0.00254082 1.42544e-27)
(1.20346 -0.00152955 2.69686e-28)
(1.20319 -0.000510747 5.14848e-28)
(0.630581 0.0786278 0)
(0.716554 0.0777397 0)
(0.801505 0.0746534 0)
(0.882679 0.0696617 0)
(0.957745 0.0632431 0)
(1.02493 0.0558355 0)
(1.08313 0.0479023 0)
(1.13192 0.039881 0)
(1.17143 0.0321346 0)
(1.20232 0.0249313 0)
(1.2255 0.0184424 0)
(1.2421 0.0127528 0)
(1.25325 0.00787839 0)
(1.26006 0.00378493 0)
(1.26351 0.000407229 0)
(1.26444 -0.00233573 0)
(1.26354 -0.00452907 0)
(1.26137 -0.00625419 0)
(1.25834 -0.00758434 8.05823e-28)
(1.25477 -0.00858264 -8.05823e-28)
(1.25089 -0.00930193 0)
(1.24687 -0.00978559 0)
(1.24282 -0.0100689 -2.45344e-28)
(1.23884 -0.0101804 2.45344e-28)
(1.23498 -0.0101437 2.30477e-28)
(1.23128 -0.00997792 -2.30477e-28)
(1.22776 -0.00969938 0)
(1.22446 -0.00932189 0)
(0.572464 0.0764512 -9.90159e-20)
(0.573206 0.0775785 2.97521e-20)
(0.574107 0.0784289 -1.82434e-20)
(0.538024 0.0762897 -2.31951e-20)
(0.539665 0.0772951 1.20389e-20)
(0.54142 0.0780304 1.23173e-20)
(0.503619 0.0757622 -4.21996e-20)
(0.506144 0.0766687 5.82538e-20)
(0.508742 0.0773096 -3.84916e-20)
(0.469413 0.0749514 2.1302e-20)
(0.472799 0.0757753 2.22264e-20)
(0.476221 0.0763365 -2.40396e-20)
(0.431335 0.0727343 -1.82093e-20)
(0.43557 0.0737832 6.4346e-20)
(0.439787 0.0745396 -2.89072e-20)
(0.397197 0.0712527 -1.14374e-20)
(0.402253 0.0722489 7.60009e-21)
(0.407265 0.0729513 -1.2907e-20)
(0.363797 0.0694114 4.93382e-20)
(0.369626 0.0703664 -3.00514e-20)
(0.375393 0.0710261 -1.83327e-21)
(0.331298 0.0672286 -1.41425e-20)
(0.337848 0.068151 -1.80178e-20)
(0.344323 0.0687771 -4.51699e-21)
(0.299858 0.0647217 -1.31459e-20)
(0.307072 0.0656173 -1.38159e-20)
(0.31421 0.0662166 2.429e-21)
(0.261713 0.0606948 3.38208e-20)
(0.269628 0.06191 -3.26978e-20)
(0.27745 0.0627819 1.01036e-20)
(0.232301 0.057625 2.61833e-20)
(0.240749 0.0588146 -1.41615e-20)
(0.249122 0.0596632 1.74952e-20)
(0.204437 0.0542982 -1.50212e-20)
(0.213355 0.0554572 -1.6012e-20)
(0.222224 0.0562807 2.67721e-20)
(0.178244 0.0507386 -1.39454e-20)
(0.187574 0.0518598 3.18137e-20)
(0.196884 0.0526544 1.03568e-20)
(0.153835 0.0469702 -1.85351e-20)
(0.163521 0.0480446 -2.31202e-20)
(0.173221 0.0488051 -1.58357e-20)
(0.131314 0.043016 1.72398e-21)
(0.141305 0.0440335 -2.04535e-20)
(0.151346 0.0447533 -4.033e-21)
(0.110774 0.0388983 -6.99506e-21)
(0.121025 0.0398479 -2.9427e-20)
(0.131361 0.0405197 4.37507e-20)
(0.082007 0.0334659 6.22258e-21)
(0.0923013 0.0346381 1.54949e-20)
(0.102769 0.0355086 5.00595e-23)
(0.113358 0.0361248 -1.57362e-20)
(0.0655411 0.0292049 7.90999e-21)
(0.0759706 0.0302554 -1.01308e-20)
(0.0866177 0.0310359 -5.4188e-21)
(0.0513135 0.0248543 2.62155e-21)
(0.0618487 0.0257692 -1.51426e-21)
(0.0726415 0.0264492 -2.10898e-20)
(0.0393767 0.0204304 -2.28551e-20)
(0.0499925 0.0211973 1.59617e-20)
(0.060901 0.0217675 5.53535e-21)
(0.0297744 0.0159485 -7.10238e-21)
(0.04045 0.0165566 8.95446e-22)
(0.0514471 0.0170089 -5.90684e-22)
(0.0225419 0.0114225 9.36712e-21)
(0.0332593 0.0118632 -5.18235e-21)
(0.0443207 0.0121912 -4.99747e-22)
(0.0177055 0.00686575 2.7514e-21)
(0.0284495 0.00713273 2.5362e-21)
(0.0395526 0.0073315 -3.62966e-21)
(0.0152829 0.00229072 -6.04591e-22)
(0.0260397 0.00238017 -9.72883e-22)
(0.0371634 0.00244677 2.2102e-25)
)
;

boundaryField
{
    inlet
    {
        type            uniformFixedValue;
        uniformValue    constant (1 0 0);
        value           nonuniform 0();
    }
    outlet
    {
        type            pressureInletOutletVelocity;
        value           nonuniform 0();
    }
    cylinder
    {
        type            fixedValue;
        value           nonuniform 0();
    }
    top
    {
        type            symmetryPlane;
    }
    bottom
    {
        type            symmetryPlane;
    }
    defaultFaces
    {
        type            empty;
    }
    procBoundary29to28
    {
        type            processor;
        value           nonuniform List<vector> 
137
(
(0.00500611 -0.00217409 1.95541e-21)
(0.00743199 -0.00651818 -3.75898e-21)
(0.0122759 -0.0108489 -9.87863e-21)
(0.0195223 -0.0151569 5.44508e-21)
(0.0291477 -0.0194318 3.83723e-21)
(0.0411209 -0.0236623 -1.11019e-20)
(0.0554033 -0.0278359 -7.68419e-21)
(0.0719481 -0.031938 -2.42607e-20)
(0.10065 -0.0376191 -3.78574e-21)
(0.10065 -0.0376191 -3.78574e-21)
(0.121401 -0.0416457 -8.36344e-21)
(0.14418 -0.0455243 7.04942e-20)
(0.168899 -0.049232 1.44755e-20)
(0.195462 -0.0527446 -1.3935e-20)
(0.223761 -0.0560363 -2.34211e-20)
(0.253677 -0.0590801 -4.16889e-20)
(0.292541 -0.0634828 4.33059e-20)
(0.292541 -0.0634828 4.33059e-20)
(0.324644 -0.0659656 2.99091e-20)
(0.35787 -0.0681201 -2.70632e-20)
(0.39206 -0.0699254 1.0335e-20)
(0.427049 -0.0713595 2.04099e-20)
(0.466043 -0.0738355 -1.28747e-21)
(0.466043 -0.0738355 -1.28747e-21)
(0.501152 -0.0745635 3.66697e-21)
(0.536489 -0.0749894 3.20679e-20)
(0.571881 -0.0750239 3.08828e-20)
(0.631883 -0.0753597 0)
(0.631883 -0.0753597 0)
(0.724095 -0.0737078 0)
(0.814815 -0.069394 0)
(0.900772 -0.062918 0)
(0.979282 -0.0549564 -3.05255e-27)
(1.04844 -0.0460946 3.05255e-27)
(1.1072 -0.0369148 0)
(1.15533 -0.027928 0)
(1.1933 -0.0195226 0)
(1.22203 -0.011955 0)
(1.24276 -0.00536101 0)
(1.25682 0.000221541 0)
(1.26552 0.00482666 0)
(1.27008 0.00853434 0)
(1.27153 0.0114488 -3.35123e-11)
(1.27073 0.0136814 3.35123e-11)
(1.26837 0.0153395 -6.65699e-28)
(1.26496 0.0165199 6.65699e-28)
(1.2609 0.0173053 0)
(1.25648 0.0177645 0)
(1.25188 0.0179532 0)
(1.24726 0.0179161 0)
(1.2427 0.017689 0)
(1.23828 0.0173005 0)
(1.23404 0.0167737 0)
(1.23 0.0161276 0)
(1.2262 0.0153783 0)
(1.22265 0.014539 0)
(1.21935 0.0136216 0)
(1.21631 0.0126361 0)
(1.21354 0.0115915 0)
(1.21104 0.0104959 0)
(1.20882 0.00935633 0)
(1.20687 0.00817948 0)
(1.2052 0.00697132 -1.7469e-11)
(1.20381 0.00573743 1.7469e-11)
(1.20269 0.00448302 7.4e-28)
(1.20186 0.00321302 -7.4e-28)
(1.2013 0.00193223 0)
(1.20102 0.000644868 0)
(1.24232 -0.0204641 -1.03816e-27)
(1.23776 -0.0198847 1.03816e-27)
(1.2334 -0.0191724 2.2229e-11)
(1.22927 -0.018346 -2.2229e-11)
(1.22538 -0.0174211 0)
(1.22174 -0.016411 0)
(1.21838 -0.0153269 0)
(1.21528 -0.0141789 0)
(1.21246 -0.0129756 1.84833e-11)
(1.20992 -0.0117247 -1.84833e-11)
(1.20766 -0.010433 -7.658e-28)
(1.20568 -0.00910684 7.658e-28)
(1.20398 -0.00775179 0)
(1.20257 -0.00637309 0)
(1.20144 -0.00497559 0)
(1.20059 -0.00356387 0)
(1.20003 -0.00214234 -1.65229e-11)
(1.19974 -0.000714838 1.67004e-11)
(0.631883 0.07536 0)
(0.631883 0.07536 0)
(0.724095 0.0737081 0)
(0.814815 0.0693943 0)
(0.900772 0.0629183 0)
(0.979282 0.0549567 0)
(1.04844 0.0460948 0)
(1.1072 0.036915 0)
(1.15533 0.0279281 0)
(1.1933 0.0195228 0)
(1.22203 0.0119551 0)
(1.24276 0.00536114 3.97008e-11)
(1.25682 -0.000221421 -3.97008e-11)
(1.26552 -0.00482655 0)
(1.27008 -0.00853425 0)
(1.27153 -0.0114487 -3.35123e-11)
(1.27073 -0.0136813 3.35123e-11)
(1.26837 -0.0153395 3.07531e-11)
(1.26496 -0.0165198 -3.07531e-11)
(1.2609 -0.0173052 0)
(1.25648 -0.0177644 0)
(1.25188 -0.0179531 0)
(1.24726 -0.0179161 0)
(1.24726 -0.0179161 0)
(0.571881 0.0750242 -3.234e-20)
(0.536489 0.0749897 5.78138e-20)
(0.501152 0.0745638 3.72775e-20)
(0.466044 0.0738358 -3.96751e-20)
(0.466044 0.0738358 -3.96751e-20)
(0.427049 0.0713598 -1.90476e-20)
(0.392061 0.0699257 -6.61544e-21)
(0.35787 0.0681204 2.25621e-20)
(0.324644 0.0659659 -2.76237e-20)
(0.292542 0.0634832 -4.53919e-20)
(0.292542 0.0634832 -4.53919e-20)
(0.253677 0.0590804 4.71164e-20)
(0.223761 0.0560366 1.60053e-20)
(0.195462 0.0527449 1.78884e-20)
(0.1689 0.0492323 -1.77727e-20)
(0.14418 0.0455246 -6.76278e-20)
(0.121401 0.041646 5.62503e-21)
(0.10065 0.0376195 5.95803e-21)
(0.10065 0.0376195 5.95803e-21)
(0.0719483 0.0319383 4.95891e-21)
(0.0554034 0.0278362 7.70063e-21)
(0.0411211 0.0236627 9.36816e-21)
(0.0291478 0.0194321 -3.52902e-21)
(0.0195224 0.0151572 -3.83355e-21)
(0.012276 0.0108492 9.66959e-21)
(0.00743202 0.0065185 3.02296e-21)
(0.00500612 0.00217441 -1.89231e-21)
)
;
    }
    procBoundary29to30
    {
        type            processor;
        value           nonuniform List<vector> 
137
(
(0.048558 -0.0024936 2.98568e-22)
(0.0509206 -0.00747228 8.13192e-22)
(0.0556351 -0.0124237 -5.17074e-21)
(0.0626797 -0.0173297 -6.00888e-21)
(0.0720222 -0.0221717 -6.12047e-21)
(0.0836198 -0.0269309 1.7737e-20)
(0.0974193 -0.0315882 9.28408e-21)
(0.0974193 -0.0315882 9.28408e-21)
(0.124022 -0.0365271 9.7899e-21)
(0.141747 -0.0409577 -6.37201e-21)
(0.16141 -0.045222 2.31642e-20)
(0.182919 -0.0493001 -4.17358e-21)
(0.206168 -0.0531722 -4.70206e-20)
(0.231046 -0.0568186 4.23341e-21)
(0.257433 -0.0602202 -1.93262e-20)
(0.285199 -0.0633586 -3.12109e-20)
(0.285199 -0.0633586 -3.12109e-20)
(0.321288 -0.0665599 -1.97003e-20)
(0.350746 -0.0691451 1.72889e-20)
(0.381119 -0.0714264 3.93376e-20)
(0.412256 -0.0733933 2.71777e-20)
(0.444008 -0.0750345 -8.46233e-21)
(0.444008 -0.0750345 -8.46233e-21)
(0.47969 -0.0766621 3.714e-20)
(0.511421 -0.0777105 1.24009e-20)
(0.543294 -0.0785198 1.09209e-20)
(0.575168 -0.0790257 4.06444e-20)
(0.575168 -0.0790257 4.06444e-20)
(0.630588 -0.079204 0)
(0.714679 -0.078543 0)
(0.797867 -0.075806 0)
(0.877536 -0.0712372 0)
(0.951459 -0.0652668 9.00099e-28)
(1.01792 -0.0582956 -9.00099e-28)
(1.0758 -0.0507532 0)
(1.12463 -0.0430532 0)
(1.16449 -0.0355467 0)
(1.19593 -0.0285001 0)
(1.21979 -0.0220915 0)
(1.23712 -0.0164166 0)
(1.249 -0.0115041 0)
(1.2565 -0.00733278 0)
(1.26057 -0.00384879 0)
(1.26205 -0.00098052 0)
(1.26163 0.00134998 -2.94738e-11)
(1.25986 0.00321895 2.94738e-11)
(1.25717 0.00469611 0)
(1.25389 0.00584242 0)
(1.25025 0.00670938 0)
(1.24644 0.00733967 0)
(1.24257 0.0077682 -9.69773e-28)
(1.23874 0.00802343 9.69773e-28)
(1.23501 0.00812869 0)
(1.23142 0.00810328 0)
(1.228 0.00796341 0)
(1.22479 0.00772291 0)
(1.22179 0.00739379 0)
(1.21901 0.00698666 0)
(1.21647 0.00651103 -7.90759e-28)
(1.21417 0.00597549 7.90759e-28)
(1.21211 0.00538797 0)
(1.21031 0.00475579 0)
(1.20876 0.00408579 0)
(1.20746 0.00338446 0)
(1.20643 0.00265793 0)
(1.20565 0.0019121 0)
(1.20513 0.00115277 0)
(1.20487 0.000385224 0)
(1.22138 -0.00885744 -5.92325e-28)
(1.21853 -0.00831662 5.92325e-28)
(1.21593 -0.00770886 1.97973e-28)
(1.21358 -0.00704272 -1.97973e-28)
(1.21148 -0.006326 0)
(1.20964 -0.00556592 0)
(1.20806 -0.0047692 0)
(1.20673 -0.00394215 0)
(1.20568 -0.00309077 1.82287e-28)
(1.20488 -0.00222077 -1.82287e-28)
(1.20435 -0.00133777 0)
(1.20409 -0.000446858 0)
(0.630588 0.0792044 0)
(0.575168 0.0790261 -4.18727e-20)
(0.714679 0.0785433 0)
(0.797867 0.0758064 0)
(0.877536 0.0712375 0)
(0.951459 0.0652671 -9.00099e-28)
(1.01792 0.0582958 9.00099e-28)
(1.0758 0.0507534 0)
(1.12463 0.0430534 0)
(1.16449 0.0355468 -8.14015e-28)
(1.19593 0.0285003 8.14015e-28)
(1.21979 0.0220916 1.45301e-27)
(1.23712 0.0164167 -1.45301e-27)
(1.249 0.0115042 0)
(1.2565 0.00733286 0)
(1.26057 0.00384885 0)
(1.26205 0.000980574 0)
(1.26163 -0.00134993 0)
(1.25986 -0.00321891 0)
(1.25717 -0.00469608 0)
(1.25389 -0.00584239 0)
(1.25025 -0.00670937 0)
(1.24644 -0.00733966 0)
(1.24257 -0.00776819 9.69773e-28)
(1.23874 -0.00802342 -9.69773e-28)
(1.23501 -0.00812869 2.27563e-11)
(1.23142 -0.00810328 -2.27563e-11)
(1.228 -0.00796341 0)
(1.22138 -0.00885744 -5.92325e-28)
(1.22479 -0.00772291 0)
(0.575168 0.0790261 -4.18727e-20)
(0.543294 0.0785202 -9.48615e-21)
(0.511421 0.0777109 2.25023e-20)
(0.47969 0.0766626 -3.74289e-20)
(0.444008 0.075035 9.999e-21)
(0.444008 0.075035 9.999e-21)
(0.412257 0.0733938 -2.86738e-20)
(0.381119 0.0714269 -3.95178e-20)
(0.350747 0.0691456 -1.78524e-20)
(0.321288 0.0665604 1.88941e-20)
(0.285199 0.0633591 3.4091e-20)
(0.285199 0.0633591 3.4091e-20)
(0.257433 0.0602207 -2.14786e-20)
(0.231047 0.0568191 -2.52842e-21)
(0.206168 0.0531727 4.71302e-20)
(0.182919 0.0493006 5.57765e-21)
(0.16141 0.0452225 -2.28293e-20)
(0.141747 0.0409582 7.03573e-21)
(0.124022 0.0365277 -1.32334e-20)
(0.0974195 0.0315888 -8.71042e-21)
(0.0974195 0.0315888 -8.71042e-21)
(0.0836199 0.0269314 -1.82089e-20)
(0.0720223 0.0221722 6.69912e-21)
(0.0626797 0.0173302 5.81586e-21)
(0.0556351 0.0124243 5.25658e-21)
(0.0509207 0.00747283 -1.56619e-21)
(0.048558 0.00249415 -1.14297e-22)
)
;
    }
}


// ************************************************************************* //
