/*--------------------------------*- C++ -*----------------------------------*\
  =========                 |
  \\      /  F ield         | OpenFOAM: The Open Source CFD Toolbox
   \\    /   O peration     | Website:  https://openfoam.org
    \\  /    A nd           | Version:  7
     \\/     M anipulation  |
\*---------------------------------------------------------------------------*/
FoamFile
{
    version     2.0;
    format      ascii;
    class       volScalarField;
    location    "45";
    object      p;
}
// * * * * * * * * * * * * * * * * * * * * * * * * * * * * * * * * * * * * * //

dimensions      [0 2 -2 0 0 0 0];

internalField   nonuniform List<scalar> 
8820
(
-0.27819
-0.279656
-0.280559
-0.281224
-0.281783
-0.282255
-0.28266
-0.283014
-0.283321
-0.283576
-0.283773
-0.283901
-0.283951
-0.283915
-0.283792
-0.283585
-0.283311
-0.283001
-0.282645
-0.282169
-0.28206
-0.278829
-0.280291
-0.281194
-0.281861
-0.282425
-0.282905
-0.283323
-0.283693
-0.284019
-0.284296
-0.284517
-0.284671
-0.284745
-0.284732
-0.284625
-0.284427
-0.28415
-0.283826
-0.283443
-0.282923
-0.282765
-0.279678
-0.281117
-0.282007
-0.282666
-0.283227
-0.283709
-0.284132
-0.284513
-0.284853
-0.285148
-0.285389
-0.285562
-0.285654
-0.285653
-0.285551
-0.285344
-0.285043
-0.284675
-0.28423
-0.283625
-0.283382
-0.280731
-0.282127
-0.282992
-0.283635
-0.284184
-0.28466
-0.285084
-0.285469
-0.285819
-0.286127
-0.286383
-0.286571
-0.286676
-0.286681
-0.286571
-0.28634
-0.285991
-0.285551
-0.285008
-0.284272
-0.283901
-0.281978
-0.283312
-0.28414
-0.284758
-0.285288
-0.28575
-0.286167
-0.286552
-0.286906
-0.287224
-0.287492
-0.287693
-0.287806
-0.287811
-0.287687
-0.287417
-0.287
-0.286458
-0.285778
-0.284861
-0.284305
-0.283405
-0.284659
-0.285439
-0.286022
-0.286524
-0.286966
-0.28737
-0.287749
-0.288104
-0.288428
-0.288705
-0.288916
-0.289037
-0.289039
-0.288894
-0.288577
-0.288074
-0.2874
-0.286545
-0.285392
-0.28457
-0.284997
-0.286154
-0.286875
-0.287413
-0.287879
-0.288293
-0.288677
-0.289044
-0.289395
-0.289721
-0.290006
-0.290226
-0.290353
-0.290353
-0.290187
-0.289817
-0.289215
-0.288383
-0.287313
-0.285869
-0.284658
-0.286733
-0.28778
-0.28843
-0.288915
-0.289335
-0.289713
-0.290069
-0.290417
-0.290758
-0.291082
-0.291372
-0.291601
-0.291736
-0.291735
-0.291551
-0.291128
-0.29042
-0.289408
-0.288087
-0.286296
-0.284456
-0.288592
-0.289517
-0.290088
-0.29051
-0.290875
-0.291205
-0.291524
-0.291845
-0.292168
-0.292485
-0.292775
-0.293012
-0.293155
-0.293157
-0.292959
-0.29249
-0.291677
-0.290475
-0.288877
-0.286695
-0.283854
-0.290554
-0.291347
-0.29183
-0.292179
-0.292478
-0.292751
-0.293021
-0.293303
-0.293598
-0.293899
-0.294183
-0.294422
-0.294572
-0.294578
-0.294372
-0.293865
-0.292958
-0.291574
-0.289681
-0.28707
-0.283479
-0.292596
-0.293254
-0.293641
-0.293907
-0.294127
-0.294328
-0.294535
-0.294765
-0.295019
-0.29529
-0.295557
-0.295789
-0.29594
-0.295948
-0.295734
-0.295195
-0.294209
-0.292656
-0.290452
-0.287253
-0.283032
-0.294702
-0.295222
-0.295506
-0.295678
-0.295806
-0.29592
-0.296047
-0.296206
-0.296402
-0.296626
-0.29686
-0.29707
-0.297207
-0.297206
-0.296979
-0.296408
-0.295345
-0.293636
-0.291139
-0.287397
-0.282178
-0.296858
-0.297241
-0.297415
-0.297481
-0.297501
-0.29751
-0.297538
-0.297606
-0.297721
-0.297877
-0.298055
-0.298221
-0.298325
-0.298295
-0.298036
-0.297419
-0.296274
-0.294407
-0.291632
-0.287443
-0.280895
-0.299055
-0.299305
-0.299363
-0.299311
-0.299207
-0.29909
-0.298996
-0.298949
-0.298959
-0.299021
-0.299116
-0.299211
-0.299252
-0.299164
-0.298845
-0.298153
-0.296904
-0.294865
-0.291801
-0.287305
-0.279198
-0.301294
-0.301415
-0.301351
-0.301166
-0.300919
-0.300655
-0.300416
-0.300227
-0.300104
-0.300044
-0.300028
-0.30002
-0.299966
-0.299785
-0.299366
-0.29856
-0.29717
-0.294932
-0.29154
-0.286906
-0.27714
-0.303584
-0.30358
-0.303386
-0.303054
-0.302645
-0.302211
-0.3018
-0.301444
-0.30116
-0.300948
-0.300789
-0.300647
-0.300463
-0.30015
-0.299591
-0.298626
-0.297048
-0.294582
-0.290808
-0.286192
-0.274868
-0.305943
-0.305817
-0.305483
-0.304988
-0.304397
-0.30377
-0.303163
-0.302613
-0.302141
-0.301749
-0.301419
-0.301111
-0.300762
-0.300281
-0.29954
-0.298371
-0.296558
-0.293835
-0.289645
-0.285136
-0.272613
-0.308399
-0.308149
-0.307665
-0.30699
-0.306195
-0.305353
-0.304526
-0.303758
-0.303073
-0.302476
-0.301947
-0.301445
-0.300901
-0.300216
-0.299255
-0.297838
-0.295746
-0.292732
-0.288141
-0.283691
-0.270572
-0.310991
-0.31061
-0.309962
-0.309087
-0.308069
-0.30699
-0.305921
-0.304913
-0.303994
-0.303169
-0.302419
-0.301697
-0.300929
-0.300006
-0.298785
-0.297081
-0.294673
-0.291321
-0.286404
-0.281735
-0.268663
-0.313765
-0.313239
-0.312408
-0.311316
-0.310053
-0.308718
-0.307388
-0.306122
-0.304951
-0.303879
-0.302887
-0.30192
-0.300898
-0.299702
-0.298182
-0.29615
-0.2934
-0.289682
-0.284591
-0.279217
-0.266725
-0.316775
-0.316081
-0.315046
-0.313714
-0.312188
-0.310578
-0.308972
-0.307432
-0.305993
-0.304659
-0.303404
-0.302167
-0.300856
-0.299344
-0.297476
-0.295071
-0.291952
-0.287883
-0.282826
-0.276574
-0.266326
-0.320076
-0.319184
-0.317921
-0.316328
-0.314519
-0.312618
-0.310721
-0.308895
-0.307175
-0.305561
-0.30402
-0.30248
-0.300837
-0.298957
-0.29668
-0.293838
-0.290293
-0.285871
-0.280826
-0.274504
-0.270966
-0.323729
-0.322599
-0.321079
-0.319201
-0.317091
-0.314884
-0.312685
-0.310561
-0.308546
-0.306633
-0.304775
-0.302891
-0.300861
-0.298543
-0.295781
-0.292426
-0.288378
-0.283557
-0.278198
-0.272138
-0.267661
-0.327792
-0.326376
-0.324566
-0.322382
-0.319951
-0.317425
-0.314912
-0.312478
-0.31015
-0.30791
-0.305698
-0.303413
-0.300926
-0.298087
-0.294751
-0.290796
-0.286163
-0.280827
-0.275018
-0.268611
-0.262932
-0.332319
-0.330564
-0.32843
-0.325914
-0.323145
-0.320286
-0.317446
-0.314686
-0.312022
-0.309419
-0.306797
-0.304041
-0.30101
-0.297556
-0.293555
-0.288917
-0.283626
-0.277699
-0.271344
-0.264448
-0.257926
-0.33736
-0.335206
-0.332713
-0.32984
-0.326716
-0.323509
-0.320327
-0.31722
-0.314185
-0.311167
-0.308067
-0.304751
-0.301077
-0.296911
-0.292157
-0.28677
-0.280774
-0.274223
-0.267309
-0.259936
-0.252768
-0.342957
-0.340343
-0.337455
-0.334202
-0.330703
-0.327132
-0.323588
-0.320102
-0.316649
-0.313149
-0.30948
-0.305502
-0.301079
-0.296106
-0.290528
-0.284349
-0.277631
-0.270461
-0.26302
-0.255223
-0.247666
-0.349144
-0.346008
-0.342689
-0.339033
-0.335141
-0.331187
-0.327252
-0.323344
-0.319407
-0.315335
-0.310991
-0.306237
-0.300961
-0.295099
-0.288646
-0.281656
-0.274228
-0.266468
-0.258544
-0.250395
-0.24253
-0.355944
-0.352226
-0.348444
-0.344364
-0.34006
-0.335697
-0.331332
-0.32694
-0.322432
-0.317679
-0.312539
-0.306892
-0.300666
-0.29385
-0.286496
-0.278701
-0.270589
-0.262281
-0.253922
-0.245468
-0.237361
-0.363371
-0.359015
-0.35474
-0.350217
-0.345479
-0.340673
-0.335824
-0.330866
-0.325677
-0.320115
-0.314048
-0.307394
-0.300136
-0.292326
-0.284066
-0.27549
-0.266734
-0.257919
-0.249163
-0.240442
-0.232108
-0.371423
-0.366379
-0.361588
-0.356604
-0.351405
-0.34611
-0.340702
-0.335072
-0.329071
-0.322557
-0.315432
-0.30767
-0.299321
-0.290497
-0.281347
-0.272025
-0.262667
-0.253385
-0.244264
-0.235298
-0.226745
-0.380084
-0.37431
-0.368985
-0.363523
-0.357829
-0.351983
-0.345919
-0.339485
-0.33252
-0.324906
-0.316599
-0.307646
-0.29817
-0.288338
-0.278327
-0.2683
-0.258381
-0.248666
-0.239208
-0.230012
-0.221239
-0.389318
-0.382783
-0.376911
-0.370952
-0.364718
-0.35824
-0.351397
-0.344005
-0.335913
-0.327052
-0.317455
-0.307253
-0.296638
-0.285819
-0.274989
-0.2643
-0.253861
-0.243741
-0.233968
-0.224553
-0.215564
-0.399069
-0.391754
-0.385327
-0.378848
-0.372015
-0.364799
-0.357028
-0.348507
-0.339121
-0.328878
-0.317908
-0.306426
-0.294683
-0.282914
-0.271308
-0.260002
-0.249078
-0.238581
-0.228513
-0.218889
-0.20969
-0.409255
-0.401154
-0.394168
-0.387139
-0.37963
-0.371546
-0.362678
-0.352846
-0.342005
-0.330267
-0.317868
-0.305102
-0.292261
-0.279586
-0.267255
-0.255374
-0.244
-0.23315
-0.222809
-0.212988
-0.203589
-0.419766
-0.410887
-0.403342
-0.395721
-0.387438
-0.378333
-0.368184
-0.356859
-0.34442
-0.331104
-0.317251
-0.30322
-0.289326
-0.275799
-0.262791
-0.250378
-0.238588
-0.227412
-0.21682
-0.206814
-0.197233
-0.430465
-0.420831
-0.412725
-0.404459
-0.395283
-0.384985
-0.373362
-0.360374
-0.346222
-0.331277
-0.315976
-0.300721
-0.285829
-0.271509
-0.257875
-0.244972
-0.232799
-0.221325
-0.210508
-0.200335
-0.190594
-0.441185
-0.430832
-0.422161
-0.413182
-0.402975
-0.391299
-0.378014
-0.363217
-0.347271
-0.330682
-0.313965
-0.297545
-0.281721
-0.266667
-0.25246
-0.239111
-0.226592
-0.214851
-0.203837
-0.193518
-0.183646
-0.451726
-0.440706
-0.431462
-0.421686
-0.410294
-0.397053
-0.381934
-0.365214
-0.347432
-0.329219
-0.311143
-0.293631
-0.276947
-0.261223
-0.246497
-0.232747
-0.21992
-0.207948
-0.196772
-0.186331
-0.176362
-0.461866
-0.45024
-0.440411
-0.429738
-0.416999
-0.402011
-0.384916
-0.3662
-0.346581
-0.326794
-0.307439
-0.288916
-0.27145
-0.255124
-0.239935
-0.225833
-0.212742
-0.200578
-0.189275
-0.178745
-0.16872
-0.471355
-0.459194
-0.448761
-0.437083
-0.422832
-0.405937
-0.386759
-0.366016
-0.344599
-0.32332
-0.30278
-0.283341
-0.265174
-0.248316
-0.232725
-0.218323
-0.205014
-0.192703
-0.181315
-0.170729
-0.160698
-0.479925
-0.467309
-0.456245
-0.443447
-0.42753
-0.408596
-0.387272
-0.364521
-0.341381
-0.318714
-0.297098
-0.276845
-0.258065
-0.240748
-0.224819
-0.210173
-0.196697
-0.184286
-0.172857
-0.162256
-0.152274
-0.487292
-0.474306
-0.462581
-0.448548
-0.430828
-0.409763
-0.38628
-0.361582
-0.336829
-0.312901
-0.290331
-0.269369
-0.250068
-0.232371
-0.216171
-0.201341
-0.187754
-0.175295
-0.163872
-0.153301
-0.143427
-0.493169
-0.4799
-0.46748
-0.452103
-0.432473
-0.409231
-0.383627
-0.357087
-0.330859
-0.305811
-0.282419
-0.260861
-0.241135
-0.22314
-0.20674
-0.191791
-0.17815
-0.165696
-0.154331
-0.143843
-0.134138
-0.497264
-0.483801
-0.470654
-0.453839
-0.43223
-0.406815
-0.379176
-0.350935
-0.323394
-0.297384
-0.273307
-0.251273
-0.231222
-0.213015
-0.196491
-0.181488
-0.167852
-0.155457
-0.144199
-0.133852
-0.124374
-0.499298
-0.485727
-0.471822
-0.453501
-0.429884
-0.402353
-0.372812
-0.343044
-0.314373
-0.287568
-0.262952
-0.240565
-0.220293
-0.201965
-0.185396
-0.170407
-0.156834
-0.144546
-0.133439
-0.123273
-0.114051
-0.499002
-0.485409
-0.470725
-0.450857
-0.425252
-0.395711
-0.364441
-0.333349
-0.303745
-0.276321
-0.251318
-0.228705
-0.208322
-0.189968
-0.173436
-0.158533
-0.145084
-0.132952
-0.122029
-0.112038
-0.102999
-0.496132
-0.4826
-0.467128
-0.445705
-0.41818
-0.386784
-0.353995
-0.321803
-0.291474
-0.263615
-0.238379
-0.215671
-0.195291
-0.177008
-0.1606
-0.14586
-0.132603
-0.120691
-0.110002
-0.10016
-0.091102
-0.490474
-0.47708
-0.460828
-0.43788
-0.408551
-0.375496
-0.341427
-0.308375
-0.27754
-0.249432
-0.22412
-0.201452
-0.18119
-0.163081
-0.146886
-0.132389
-0.119399
-0.107783
-0.097396
-0.0877608
-0.0787434
-0.481845
-0.468666
-0.451658
-0.427254
-0.396282
-0.361803
-0.326714
-0.293054
-0.261937
-0.233768
-0.208538
-0.186047
-0.166022
-0.148191
-0.132304
-0.118131
-0.105486
-0.0942349
-0.0841781
-0.0747561
-0.0663785
-0.470103
-0.457212
-0.439494
-0.413741
-0.381327
-0.345686
-0.309858
-0.275848
-0.244673
-0.216633
-0.191645
-0.169466
-0.149801
-0.132353
-0.116871
-0.103107
-0.0908806
-0.0800561
-0.0703811
-0.0613061
-0.0536307
-0.455147
-0.442615
-0.424255
-0.397296
-0.363675
-0.32716
-0.290879
-0.256782
-0.22577
-0.198045
-0.173469
-0.15174
-0.132556
-0.115599
-0.100606
-0.0873371
-0.075604
-0.0652696
-0.0560455
-0.0474017
-0.0404026
-0.436922
-0.424816
-0.405904
-0.377915
-0.343351
-0.306264
-0.269827
-0.2359
-0.205265
-0.178031
-0.154061
-0.132912
-0.114317
-0.0979544
-0.0835469
-0.0708531
-0.0596862
-0.0499061
-0.0411946
-0.0330302
-0.0267017
-0.415418
-0.403804
-0.38445
-0.355633
-0.320412
-0.283071
-0.246772
-0.213267
-0.183231
-0.1567
-0.133423
-0.113012
-0.0951314
-0.0794666
-0.0657359
-0.0536967
-0.0431654
-0.0340006
-0.0258535
-0.0182064
-0.0125696
-0.390671
-0.379611
-0.359943
-0.330524
-0.294955
-0.257678
-0.221795
-0.188963
-0.159738
-0.134073
-0.111657
-0.0921055
-0.0750565
-0.0601907
-0.0472253
-0.0359175
-0.0260884
-0.0175946
-0.0100568
-0.00296318
0.00195314
-0.36276
-0.352313
-0.332478
-0.302715
-0.267121
-0.23019
-0.194985
-0.163079
-0.134869
-0.110238
-0.0888358
-0.0702668
-0.0541602
-0.0401915
-0.0280769
-0.0175747
-0.00851118
-0.000740977
0.00614546
0.012653
0.0168413
-0.331807
-0.322029
-0.302202
-0.272384
-0.237043
-0.200654
-0.166492
-0.135735
-0.108729
-0.0852922
-0.0650449
-0.0475792
-0.0325206
-0.0195425
-0.00836103
0.00126376
0.00949941
0.0164935
0.0226863
0.0285844
0.0320712
-0.297963
-0.288933
-0.269315
-0.239678
-0.204668
-0.169403
-0.136464
-0.107062
-0.0814373
-0.0593456
-0.0403834
-0.024135
-0.0102244
0.00167465
0.0118454
0.0205237
0.0278701
0.034036
0.0394959
0.0447643
0.0475474
-0.261405
-0.253241
-0.233992
-0.204516
-0.170559
-0.136535
-0.105056
-0.0772073
-0.0531251
-0.0325171
-0.0149607
-3.54223e-05
0.0126339
0.0233718
0.0324592
0.0401265
0.0465284
0.0518268
0.0565286
0.0611232
0.0630514
-0.222336
-0.215184
-0.196247
-0.167555
-0.134776
-0.102242
-0.0724444
-0.0463251
-0.0239334
-0.00493544
0.0111051
0.0246102
0.0359525
0.0454536
0.0533903
0.0599876
0.065402
0.0698178
0.0737524
0.0775814
0.0784341
-0.180991
-0.17501
-0.156583
-0.128912
-0.0975419
-0.0667344
-0.0388124
-0.0145819
0.00598708
0.023262
0.0376881
0.0496858
0.0596235
0.0678179
0.07454
0.0800117
0.0844025
0.087927
0.0910632
0.0940128
0.0939697
-0.137781
-0.132944
-0.115299
-0.0888237
-0.0590984
-0.0302289
-0.0043554
0.0178469
0.0364776
0.0519308
0.0646562
0.0750702
0.0835345
0.0903588
0.0958061
0.100096
0.103418
0.106002
0.108232
0.110216
0.109951
-0.0931037
-0.0892452
-0.072634
-0.0475657
-0.0196999
0.00704608
0.0307224
0.0507777
0.0673723
0.0809206
0.0918728
0.100639
0.107571
0.112971
0.117091
0.120148
0.122343
0.12389
0.125024
0.125909
0.125431
-0.047147
-0.0443239
-0.0288901
-0.00542737
0.0203892
0.0448541
0.0662098
0.0840207
0.0985
0.110076
0.119197
0.126264
0.131619
0.135551
0.138304
0.140091
0.141116
0.141535
0.141347
0.140592
0.140461
-0.000249889
0.00146907
0.0156083
0.0372924
0.0608979
0.0829528
0.10189
0.117381
0.129685
0.139239
0.146485
0.151815
0.155559
0.157994
0.159355
0.159849
0.159668
0.158911
0.157521
0.155757
0.155088
0.0472235
0.0477908
0.0605284
0.080288
0.101551
0.121096
0.137542
0.150661
0.160748
0.168247
0.173592
0.177161
0.179274
0.180196
0.180149
0.179334
0.177919
0.175962
0.17343
0.170743
0.169234
0.0949078
0.0942917
0.105535
0.123251
0.142071
0.159036
0.172945
0.183661
0.19151
0.196938
0.20037
0.20217
0.202645
0.202049
0.200593
0.198467
0.195819
0.192689
0.18908
0.18548
0.18303
0.142436
0.140618
0.150291
0.165874
0.182182
0.196524
0.207875
0.21618
0.22179
0.225149
0.226671
0.226707
0.225552
0.223445
0.220589
0.21716
0.21329
0.209009
0.204351
0.199829
0.196427
0.189444
0.186416
0.194463
0.207851
0.221608
0.233315
0.242113
0.248019
0.251407
0.252716
0.252348
0.250641
0.247874
0.244277
0.240041
0.235329
0.230259
0.224858
0.219179
0.213739
0.20938
0.235569
0.231336
0.237722
0.248883
0.260081
0.269167
0.27544
0.278983
0.280185
0.279479
0.277256
0.273838
0.269493
0.264437
0.25885
0.252885
0.246646
0.240158
0.233487
0.227143
0.221834
0.280456
0.275035
0.279747
0.288677
0.297336
0.303844
0.307644
0.308878
0.307949
0.305281
0.301252
0.296171
0.290292
0.283819
0.276921
0.269741
0.262373
0.254836
0.247209
0.23998
0.233735
0.323762
0.317179
0.320226
0.326949
0.33312
0.337117
0.338518
0.337519
0.33453
0.329969
0.324197
0.317512
0.310154
0.302318
0.29416
0.285812
0.277359
0.268819
0.260277
0.25219
0.24503
0.365154
0.357446
0.35886
0.363427
0.367189
0.368765
0.367865
0.364727
0.359766
0.353393
0.345956
0.33774
0.328971
0.319833
0.310474
0.301014
0.291528
0.282037
0.272625
0.263713
0.255669
0.404315
0.395532
0.395363
0.397853
0.399308
0.398581
0.395495
0.390328
0.383502
0.375415
0.366403
0.356738
0.346636
0.336269
0.325776
0.315266
0.304808
0.294422
0.284192
0.274495
0.265604
0.440945
0.431148
0.429468
0.429984
0.42926
0.426366
0.421229
0.414163
0.40559
0.395899
0.385414
0.374396
0.363048
0.351534
0.339981
0.328492
0.317129
0.305909
0.294918
0.284481
0.274791
0.474767
0.464024
0.460925
0.459594
0.45684
0.451936
0.444902
0.43608
0.425893
0.414721
0.402878
0.39061
0.378113
0.365541
0.353013
0.340622
0.328424
0.31644
0.304748
0.293623
0.283187
0.505522
0.493913
0.489503
0.486472
0.481861
0.475122
0.46636
0.45594
0.444285
0.431767
0.418688
0.405285
0.391745
0.378212
0.364798
0.351588
0.338634
0.325957
0.31363
0.301876
0.290756
0.532977
0.520589
0.514995
0.510432
0.504153
0.495772
0.485464
0.473617
0.460652
0.446932
0.43275
0.418335
0.403864
0.389474
0.37527
0.361331
0.347703
0.33441
0.321518
0.309199
0.297463
0.556925
0.543853
0.537215
0.531306
0.523565
0.513747
0.50209
0.488998
0.47489
0.460123
0.444979
0.429682
0.4144
0.399263
0.384372
0.369797
0.355583
0.341755
0.328371
0.315556
0.303279
0.577183
0.563531
0.556002
0.548946
0.539964
0.52893
0.516131
0.501985
0.486911
0.471258
0.455302
0.439258
0.423291
0.407524
0.392051
0.376939
0.36223
0.34795
0.334151
0.320915
0.308178
0.593601
0.579477
0.57122
0.563231
0.553241
0.54122
0.527495
0.512496
0.496639
0.480269
0.463655
0.447007
0.430485
0.414207
0.398264
0.382718
0.367609
0.352964
0.338828
0.32525
0.312138
0.606053
0.591571
0.58276
0.574061
0.563306
0.550536
0.53611
0.520464
0.504014
0.4871
0.469988
0.452883
0.43594
0.419276
0.402977
0.387102
0.37169
0.356768
0.342378
0.328539
0.315142
0.614447
0.599724
0.59054
0.581362
0.570091
0.556817
0.541919
0.525839
0.50899
0.491711
0.474264
0.456851
0.439625
0.422702
0.406163
0.390066
0.37445
0.359343
0.344781
0.330767
0.317178
0.618721
0.603876
0.594502
0.585082
0.57355
0.560022
0.544886
0.528586
0.511536
0.494072
0.476455
0.458887
0.441519
0.424463
0.407803
0.391595
0.375875
0.360675
0.346026
0.331922
0.318236
0.618843
0.603997
0.594621
0.585197
0.573662
0.56013
0.544991
0.528689
0.511636
0.494169
0.476551
0.45898
0.44161
0.424552
0.40789
0.39168
0.375958
0.360756
0.346105
0.332
0.318312
0.614813
0.600087
0.590895
0.581707
0.570426
0.557142
0.542236
0.526147
0.509291
0.492004
0.474549
0.45713
0.439898
0.422968
0.406423
0.390321
0.374699
0.359587
0.345019
0.331001
0.317407
0.606664
0.592177
0.583354
0.574638
0.563865
0.551079
0.536638
0.520979
0.504515
0.487589
0.470465
0.453349
0.436395
0.41972
0.403411
0.387526
0.372104
0.357174
0.342775
0.328929
0.315524
0.594457
0.580327
0.572052
0.564039
0.554025
0.541981
0.528235
0.513217
0.497341
0.480953
0.464323
0.447659
0.431121
0.414829
0.398872
0.383312
0.368189
0.353532
0.339384
0.325795
0.312673
0.578287
0.564627
0.557074
0.549987
0.540974
0.52991
0.517084
0.502913
0.487815
0.472139
0.456161
0.440097
0.424109
0.408323
0.392832
0.377702
0.362976
0.34868
0.334865
0.321616
0.308865
0.558277
0.545196
0.538528
0.532581
0.524802
0.514948
0.503257
0.490133
0.475996
0.461201
0.446031
0.430708
0.415401
0.400241
0.385326
0.37073
0.356495
0.342647
0.329244
0.316412
0.304119
0.53458
0.522181
0.516552
0.511944
0.505619
0.497194
0.486846
0.474962
0.461961
0.448208
0.433994
0.419548
0.405048
0.39063
0.376399
0.362433
0.34878
0.335464
0.32255
0.31021
0.298455
0.507379
0.495756
0.491306
0.488223
0.483558
0.476769
0.467959
0.457495
0.445799
0.433242
0.420125
0.406687
0.393112
0.379546
0.3661
0.352859
0.339876
0.327171
0.314819
0.303042
0.2919
0.47688
0.466122
0.462977
0.461585
0.45877
0.453808
0.446719
0.437847
0.427613
0.416396
0.404509
0.3922
0.379664
0.367053
0.354488
0.342062
0.32983
0.317815
0.306094
0.294942
0.284482
0.443318
0.433505
0.431773
0.432221
0.431426
0.428465
0.423267
0.416144
0.407516
0.397774
0.387241
0.376175
0.364782
0.353224
0.34163
0.330101
0.318699
0.307444
0.296419
0.285952
0.276235
0.406952
0.398151
0.397924
0.400338
0.401713
0.400911
0.397755
0.392524
0.385637
0.377492
0.368425
0.358707
0.348554
0.338137
0.327596
0.317041
0.306541
0.296114
0.285847
0.276116
0.267197
0.368059
0.360332
0.361682
0.366163
0.369837
0.37133
0.370351
0.36714
0.362111
0.355673
0.348175
0.339898
0.331072
0.321879
0.312466
0.302955
0.293422
0.283885
0.274431
0.265482
0.257407
0.326941
0.320337
0.323314
0.329941
0.336015
0.339918
0.341233
0.340153
0.337087
0.332453
0.326612
0.31986
0.312439
0.30454
0.296322
0.287918
0.279411
0.270821
0.262231
0.254104
0.246911
0.283915
0.278471
0.283106
0.291931
0.300482
0.306886
0.310589
0.311734
0.310719
0.307971
0.303864
0.298709
0.292758
0.286216
0.279253
0.272009
0.26458
0.256987
0.249308
0.242034
0.235754
0.239313
0.235057
0.241359
0.252405
0.263482
0.272454
0.27862
0.282063
0.28317
0.282376
0.280067
0.276567
0.272142
0.267009
0.261348
0.255312
0.249006
0.242455
0.235725
0.229331
0.223985
0.193481
0.190429
0.198383
0.211646
0.225271
0.236851
0.245531
0.251327
0.25461
0.255821
0.255358
0.253559
0.250705
0.247022
0.242703
0.237912
0.232767
0.227295
0.221549
0.216054
0.211656
0.146774
0.14493
0.154503
0.169949
0.186112
0.200315
0.211536
0.219718
0.225213
0.228463
0.22988
0.229816
0.228563
0.226361
0.223413
0.219895
0.21594
0.211579
0.206846
0.20226
0.198817
0.0995547
0.098912
0.110047
0.127614
0.146275
0.163086
0.176852
0.187434
0.195157
0.200464
0.20378
0.205469
0.205836
0.205134
0.203576
0.201351
0.198607
0.195385
0.19169
0.188015
0.18552
0.0521887
0.0527287
0.0653502
0.0849467
0.106036
0.125413
0.141702
0.154673
0.164621
0.171987
0.177205
0.180651
0.182644
0.183448
0.183287
0.182361
0.180838
0.178776
0.176141
0.173363
0.171804
0.00504364
0.00673454
0.0207491
0.0422562
0.0656722
0.087543
0.106307
0.121636
0.133787
0.143195
0.150302
0.155496
0.159108
0.161414
0.162647
0.163016
0.162714
0.161836
0.160323
0.158445
0.157712
-0.0415145
-0.0387203
-0.0234196
-0.000148651
0.0254612
0.0497247
0.0708908
0.0885241
0.102836
0.114252
0.123219
0.130137
0.135346
0.139136
0.141748
0.143395
0.144282
0.144564
0.144227
0.143318
0.143093
-0.0871203
-0.0832921
-0.0668227
-0.0419617
-0.0143209
0.0122052
0.0356742
0.0555351
0.0719463
0.0853197
0.0961037
0.104706
0.111479
0.116722
0.120685
0.123587
0.125628
0.127018
0.127978
0.12866
0.128056
-0.131436
-0.126629
-0.109135
-0.0828836
-0.0534026
-0.0247727
0.000874519
0.0228646
0.0412951
0.0565575
0.0690993
0.0793349
0.0876247
0.0942767
0.0995525
0.103671
0.10682
0.109231
0.111269
0.113025
0.112579
-0.174284
-0.168314
-0.150055
-0.122625
-0.0915192
-0.0609721
-0.0332963
-0.00929681
0.0110541
0.0281213
0.0423475
0.0541511
0.0638988
0.0719054
0.0784405
0.0837243
0.0879262
0.0912592
0.0941883
0.0969004
0.0966504
-0.215239
-0.208103
-0.189345
-0.160909
-0.128416
-0.0961647
-0.0666337
-0.0407652
-0.0186103
0.000162132
0.0159858
0.0292804
0.0404167
0.0497143
0.0574483
0.0638421
0.0690513
0.0732588
0.0769708
0.0805535
0.0811958
-0.253907
-0.245768
-0.226682
-0.197503
-0.163852
-0.130132
-0.0989418
-0.0713643
-0.0475386
-0.0271748
-0.00985302
0.00484478
0.0172916
0.0278101
0.0366791
0.0441274
0.0503088
0.0553833
0.0598478
0.0641849
0.0658954
-0.290056
-0.281056
-0.261615
-0.232249
-0.197605
-0.162665
-0.130035
-0.100927
-0.0755797
-0.0537517
-0.0350425
-0.019039
-0.00536774
0.00629561
0.0162322
0.0246764
0.0317874
0.0377149
0.0429242
0.0479234
0.0504743
-0.323482
-0.313736
-0.294099
-0.264576
-0.229569
-0.193573
-0.159739
-0.129298
-0.102592
-0.0794392
-0.0594639
-0.042261
-0.0274589
-0.0147331
-0.00380142
0.00557402
0.0135597
0.0203015
0.0262315
0.0318498
0.0350904
-0.35401
-0.343591
-0.323954
-0.29451
-0.25928
-0.222726
-0.187895
-0.15633
-0.128444
-0.104118
-0.0830072
-0.0647192
-0.0488869
-0.0351872
-0.0233384
-0.0131006
-0.00430128
0.00320328
0.00981517
0.0160332
0.0199637
-0.381487
-0.370454
-0.350987
-0.321903
-0.286726
-0.249848
-0.214355
-0.181893
-0.153017
-0.12768
-0.105573
-0.086321
-0.069565
-0.0549852
-0.0423014
-0.0312729
-0.0217222
-0.0135071
-0.00625498
0.000539757
0.00518686
-0.405796
-0.394205
-0.375056
-0.346584
-0.311777
-0.274863
-0.238979
-0.205869
-0.176206
-0.150028
-0.127072
-0.106983
-0.089415
-0.074053
-0.0606198
-0.048875
-0.0386361
-0.0297628
-0.0219124
-0.0145734
-0.00921767
-0.426858
-0.414773
-0.396067
-0.368433
-0.334302
-0.297668
-0.261673
-0.228164
-0.197926
-0.171079
-0.14743
-0.126633
-0.108369
-0.0923251
-0.0782323
-0.065848
-0.054987
-0.0455114
-0.0371078
-0.0292604
-0.0232243
-0.44464
-0.432127
-0.413973
-0.387377
-0.354204
-0.318166
-0.282354
-0.2487
-0.218104
-0.190777
-0.166576
-0.145207
-0.12637
-0.109745
-0.0950874
-0.0821417
-0.0707279
-0.0607116
-0.0518075
-0.0434893
-0.036792
-0.459156
-0.446284
-0.428769
-0.403382
-0.37143
-0.336288
-0.300952
-0.267413
-0.236678
-0.209057
-0.184471
-0.162672
-0.143367
-0.126264
-0.111145
-0.0977142
-0.0858204
-0.0753286
-0.0659873
-0.0572478
-0.0498782
-0.470465
-0.457304
-0.440495
-0.416457
-0.385958
-0.351995
-0.317424
-0.284259
-0.253608
-0.22588
-0.201071
-0.178979
-0.159337
-0.141875
-0.12635
-0.112531
-0.100235
-0.0893312
-0.0796237
-0.0705545
-0.0624765
-0.478671
-0.465296
-0.449235
-0.42665
-0.3978
-0.365277
-0.331746
-0.299213
-0.26887
-0.241225
-0.216352
-0.194104
-0.174244
-0.156523
-0.140704
-0.126577
-0.113953
-0.102696
-0.0926708
-0.0834201
-0.0746948
-0.483921
-0.470407
-0.45512
-0.434051
-0.407006
-0.376153
-0.343921
-0.31227
-0.282456
-0.255082
-0.230305
-0.208036
-0.188076
-0.170199
-0.154185
-0.139831
-0.126955
-0.115417
-0.105095
-0.0956381
-0.0869774
-0.4864
-0.472828
-0.458318
-0.438792
-0.413663
-0.384671
-0.353973
-0.323442
-0.294373
-0.267456
-0.242933
-0.220777
-0.200833
-0.182902
-0.166781
-0.152281
-0.139228
-0.127485
-0.116944
-0.107344
-0.0987082
-0.486328
-0.47278
-0.459037
-0.441043
-0.417891
-0.39091
-0.36195
-0.33276
-0.304644
-0.278366
-0.25425
-0.232338
-0.212523
-0.194637
-0.178496
-0.163926
-0.150765
-0.138882
-0.128173
-0.118405
-0.109582
-0.483951
-0.470514
-0.457517
-0.44101
-0.419849
-0.394978
-0.367926
-0.340275
-0.313305
-0.28784
-0.264282
-0.242742
-0.223165
-0.205417
-0.189338
-0.17477
-0.161563
-0.149589
-0.138745
-0.128809
-0.119738
-0.47954
-0.466303
-0.45402
-0.438927
-0.419725
-0.397014
-0.371995
-0.346052
-0.320409
-0.295923
-0.273065
-0.25202
-0.232784
-0.215265
-0.199328
-0.184831
-0.171635
-0.159619
-0.148684
-0.138624
-0.129341
-0.473379
-0.46043
-0.44883
-0.435056
-0.417736
-0.397182
-0.374276
-0.350178
-0.326019
-0.302665
-0.280646
-0.260211
-0.241418
-0.224213
-0.208491
-0.194131
-0.181006
-0.169002
-0.158028
-0.147904
-0.138469
-0.46576
-0.453188
-0.442236
-0.429672
-0.414123
-0.395674
-0.374909
-0.352753
-0.330211
-0.308129
-0.287076
-0.267364
-0.249107
-0.232298
-0.216865
-0.202705
-0.18971
-0.177772
-0.166811
-0.156677
-0.147155
-0.456972
-0.444862
-0.43453
-0.423059
-0.409142
-0.392699
-0.374056
-0.353895
-0.333074
-0.312384
-0.292416
-0.273532
-0.255902
-0.239566
-0.224487
-0.210589
-0.197779
-0.185961
-0.175062
-0.164963
-0.155415
-0.447298
-0.43573
-0.425993
-0.415501
-0.40306
-0.388485
-0.371894
-0.353738
-0.334705
-0.315508
-0.29673
-0.278771
-0.261854
-0.246064
-0.231404
-0.217823
-0.205249
-0.1936
-0.182808
-0.172787
-0.16327
-0.437007
-0.426052
-0.416893
-0.407272
-0.396141
-0.38327
-0.368617
-0.352429
-0.335215
-0.317583
-0.300086
-0.283142
-0.267017
-0.251843
-0.23766
-0.224449
-0.212159
-0.200723
-0.190081
-0.180175
-0.17074
-0.426346
-0.416067
-0.407473
-0.398628
-0.388645
-0.377295
-0.36443
-0.350127
-0.334723
-0.3187
-0.302555
-0.286706
-0.271447
-0.256953
-0.243303
-0.23051
-0.218548
-0.207367
-0.196913
-0.187156
-0.177847
-0.415538
-0.405984
-0.39795
-0.389799
-0.380813
-0.370795
-0.359542
-0.347003
-0.333357
-0.318953
-0.30421
-0.289521
-0.275197
-0.261445
-0.248381
-0.236052
-0.224457
-0.213567
-0.203337
-0.193756
-0.184611
-0.404778
-0.395985
-0.38851
-0.380988
-0.372863
-0.363993
-0.354162
-0.343233
-0.331254
-0.318444
-0.305127
-0.291651
-0.27832
-0.265368
-0.25294
-0.241117
-0.229926
-0.21936
-0.209386
-0.200005
-0.191056
-0.394231
-0.386221
-0.379304
-0.37236
-0.364982
-0.35709
-0.348487
-0.338994
-0.328559
-0.317282
-0.305386
-0.293152
-0.280866
-0.268765
-0.257023
-0.245748
-0.234995
-0.224782
-0.215091
-0.205932
-0.197205
-0.384031
-0.376811
-0.370453
-0.364049
-0.357324
-0.350261
-0.342702
-0.334459
-0.325418
-0.31558
-0.305068
-0.294087
-0.282881
-0.271678
-0.260667
-0.24998
-0.239699
-0.229868
-0.220486
-0.211566
-0.203082
-0.374284
-0.367847
-0.362045
-0.356155
-0.350009
-0.34365
-0.336967
-0.329792
-0.321977
-0.313456
-0.30426
-0.294516
-0.284409
-0.274142
-0.263905
-0.253846
-0.244072
-0.234649
-0.225601
-0.216936
-0.208712
-0.365067
-0.359394
-0.354141
-0.348744
-0.343123
-0.337366
-0.331416
-0.325136
-0.318377
-0.31103
-0.303056
-0.294503
-0.285493
-0.276188
-0.266763
-0.257373
-0.24814
-0.239154
-0.230464
-0.22207
-0.214117
-0.356433
-0.351493
-0.346777
-0.341857
-0.336719
-0.331486
-0.32615
-0.320614
-0.314746
-0.308419
-0.301548
-0.294116
-0.286177
-0.277844
-0.26926
-0.260576
-0.251922
-0.243402
-0.235097
-0.226992
-0.219322
-0.348413
-0.344166
-0.33997
-0.335511
-0.330824
-0.326058
-0.321242
-0.316322
-0.311194
-0.305735
-0.299834
-0.293427
-0.286509
-0.279136
-0.271412
-0.263465
-0.255426
-0.247408
-0.239516
-0.231725
-0.224347
-0.34102
-0.337417
-0.333718
-0.329703
-0.325443
-0.321101
-0.316735
-0.312328
-0.30781
-0.303075
-0.298008
-0.292514
-0.286541
-0.280094
-0.273228
-0.266042
-0.258652
-0.251171
-0.243729
-0.236282
-0.229218
-0.334252
-0.33124
-0.328009
-0.324419
-0.320566
-0.316614
-0.312646
-0.308674
-0.30466
-0.300523
-0.296156
-0.291453
-0.286332
-0.280752
-0.274722
-0.268303
-0.261588
-0.25468
-0.247728
-0.240671
-0.23395
-0.328095
-0.325617
-0.322823
-0.319635
-0.316167
-0.312582
-0.308973
-0.305379
-0.301786
-0.29814
-0.294352
-0.290319
-0.285943
-0.28115
-0.275911
-0.270243
-0.264214
-0.257907
-0.251487
-0.244879
-0.238586
-0.322528
-0.320524
-0.31813
-0.315321
-0.312218
-0.308978
-0.305702
-0.302443
-0.29921
-0.295971
-0.292659
-0.289182
-0.285439
-0.281339
-0.276821
-0.271864
-0.266507
-0.260811
-0.254955
-0.24887
-0.243109
-0.317522
-0.315931
-0.313901
-0.311443
-0.308685
-0.305772
-0.302807
-0.299853
-0.296935
-0.29404
-0.29112
-0.288099
-0.284883
-0.281373
-0.277488
-0.273176
-0.268446
-0.263337
-0.258055
-0.252536
-0.247588
-0.31304
-0.311806
-0.310101
-0.307968
-0.305532
-0.302928