/*--------------------------------*- C++ -*----------------------------------*\
  =========                 |
  \\      /  F ield         | OpenFOAM: The Open Source CFD Toolbox
   \\    /   O peration     | Website:  https://openfoam.org
    \\  /    A nd           | Version:  7
     \\/     M anipulation  |
\*---------------------------------------------------------------------------*/
FoamFile
{
    version     2.0;
    format      ascii;
    class       surfaceScalarField;
    location    "45";
    object      phi;
}
// * * * * * * * * * * * * * * * * * * * * * * * * * * * * * * * * * * * * * //

dimensions      [0 3 -1 0 0 0 0];

internalField   nonuniform List<scalar> 
17388
(
-3.48688e-06
5.55319e-06
-2.0663e-06
-1.26158e-05
1.27739e-05
-3.64499e-06
-2.6483e-05
1.71468e-05
-3.2797e-06
-4.42842e-05
1.92145e-05
-1.41331e-06
-6.52968e-05
1.94502e-05
1.56238e-06
-8.887e-05
1.82353e-05
5.33794e-06
-0.000114413
1.58444e-05
9.69889e-06
-0.000141383
1.24425e-05
1.45277e-05
-0.000169272
8.09343e-06
1.97954e-05
-0.000197596
2.77967e-06
2.55444e-05
-0.000225891
-3.57085e-06
3.18651e-05
-0.00025371
-1.1052e-05
3.88712e-05
-0.000280642
-1.97448e-05
4.66766e-05
-0.000306336
-2.96824e-05
5.53769e-05
-0.000330556
-4.08184e-05
6.5038e-05
-0.000353248
-5.30001e-05
7.56925e-05
-0.000374639
-6.59553e-05
8.73462e-05
-0.000395334
-7.93034e-05
9.99981e-05
-0.000416392
-9.26075e-05
0.000113666
-0.000439353
-0.000105454
0.000128414
-0.000117532
0.000144434
-0.000466255
-3.47569e-06
9.02888e-06
-1.2582e-05
2.18802e-05
-2.64249e-05
3.09897e-05
-4.42086e-05
3.69983e-05
-6.52177e-05
4.04593e-05
-8.88083e-05
4.18259e-05
-0.000114397
4.14331e-05
-0.000141448
3.94938e-05
-0.000169462
3.61076e-05
-0.000197964
3.12809e-05
-0.000226492
2.49575e-05
-0.000254601
1.70573e-05
-0.000281869
7.52231e-06
-0.000307918
-3.63302e-06
-0.000332468
-1.6268e-05
-0.000355405
-3.00636e-05
-0.000376878
-4.44824e-05
-0.000397419
-5.87619e-05
-0.000418045
-7.19816e-05
-0.000440308
-8.31903e-05
-9.1492e-05
-0.000466348
-3.41613e-06
1.2445e-05
-1.23789e-05
3.0843e-05
-2.60191e-05
4.46298e-05
-4.35603e-05
5.45395e-05
-6.43024e-05
6.12015e-05
-8.76147e-05
6.51382e-05
-0.000112926
6.67439e-05
-0.000139711
6.62795e-05
-0.000167483
6.38795e-05
-0.000195775
5.95723e-05
-0.000224129
5.33124e-05
-0.000252096
4.50233e-05
-0.000279226
3.46525e-05
-0.000305095
2.22359e-05
-0.000329336
7.97378e-06
-0.000351712
-7.68771e-06
-0.000372216
-2.39791e-05
-0.000391212
-3.9765e-05
-0.000409592
-5.36019e-05
-0.000428883
-6.38997e-05
-6.90011e-05
-0.000451374
-3.30785e-06
1.57529e-05
-1.2005e-05
3.95402e-05
-2.52608e-05
5.78856e-05
-4.23282e-05
7.16069e-05
-6.25298e-05
8.1403e-05
-8.52526e-05
8.7861e-05
-0.000109941
9.14321e-05
-0.000136085
9.24235e-05
-0.000163209
9.10038e-05
-0.000190857
8.72207e-05
-0.000218578
8.10332e-05
-0.000245911
7.23557e-05
-0.000272377
6.11185e-05
-0.000297485
4.73443e-05
-0.000320755
3.12438e-05
-0.000341773
1.33301e-05
-0.000360297
-5.45524e-06
-0.000376425
-2.36367e-05
-0.000390813
-3.92135e-05
-0.000404886
-4.98267e-05
-5.2789e-05
-0.000421098
-3.15199e-06
1.89049e-05
-1.14633e-05
4.78515e-05
-2.41538e-05
7.05761e-05
-4.05139e-05
8.7967e-05
-5.98937e-05
0.000100783
-8.17016e-05
0.000109669
-0.000105399
0.000115129
-0.000130491
0.000117516
-0.000156516
0.000117029
-0.000183029
0.000113734
-0.000209584
0.000107588
-0.000235712
9.84833e-05
-0.000260903
8.63102e-05
-0.000284597
7.10384e-05
-0.000306183
5.28297e-05
-0.000325038
3.21851e-05
-0.000340621
1.01271e-05
-0.000352656
-1.16009e-05
-0.000361433
-3.04372e-05
-0.000368134
-4.31258e-05
-4.5603e-05
-0.00037532
-2.95145e-06
2.18563e-05
-1.07622e-05
5.56622e-05
-2.27119e-05
8.25258e-05
-3.81334e-05
0.000103388
-5.6407e-05
0.000119057
-7.69628e-05
0.000130225
-9.92782e-05
0.000137445
-0.000122872
0.000141109
-0.000147294
0.000141451
-0.000172108
0.000138548
-0.000196873
0.000132353
-0.000221116
0.000122726
-0.000244302
0.000109496
-0.000265805
9.25419e-05
-0.000284891
7.19152e-05
-0.000300718
4.80122e-05
-0.000312406
2.18155e-05
-0.000319219
-4.788e-06
-0.000320926
-2.87306e-05
-0.00031827
-4.57809e-05
-5.01435e-05
-0.00031373
-2.71097e-06
2.45673e-05
-9.91616e-06
6.28674e-05
-2.09601e-05
9.35698e-05
-3.52197e-05
0.000117648
-5.21047e-05
0.000135942
-7.1064e-05
0.000149184
-9.15869e-05
0.000157968
-0.0001132
0.000162722
-0.000135458
0.000163708
-0.000157928
0.000161019
-0.000180173
0.000154597
-0.000201712
0.000144266
-0.000221993
0.000129777
-0.000240342
0.000110891
-0.00025592
8.7493e-05
-0.000267691
5.97833e-05
-0.00027444
2.85648e-05
-0.00027492
-4.30826e-06
-0.000268253
-3.53979e-05
-0.000254537
-5.94964e-05
-6.89451e-05
-0.000235736
-2.43726e-06
2.70045e-05
-8.94589e-06
6.9376e-05
-1.89355e-05
0.000103559
-3.18242e-05
0.000130537
-4.70469e-05
0.000151164
-6.40647e-05
0.000166202
-8.23707e-05
0.000176274
-0.000101489
0.00018184
-0.000120968
0.000183187
-0.000140368
0.000180419
-0.00015924
0.000173469
-0.000177095
0.000162121
-0.000193362
0.000146044
-0.000207333
0.000124862
-0.000218097
9.82575e-05
-0.000224473
6.61586e-05
-0.000224962
2.90546e-05
-0.000217828
-1.14424e-05
-0.000201482
-5.1744e-05
-0.00017535
-8.56287e-05
-0.00010405
-0.000140245
-2.13895e-06
2.91435e-05
-7.87801e-06
7.51151e-05
-1.66864e-05
0.000112368
-2.80166e-05
0.000141867
-4.13194e-05
0.000164467
-5.60585e-05
0.000180941
-7.1718e-05
0.000191933
-8.78046e-05
0.000197927
-0.000103843
0.000199226
-0.000119367
0.000195943
-0.000133898
0.000187999
-0.000146916
0.000175139
-0.000157821
0.00015695
-0.000165875
0.000132915
-0.000170119
0.000102501
-0.000169278
6.53177e-05
-0.000161655
2.14315e-05
-0.000145102
-2.79948e-05
-0.000117218
-7.96279e-05
-7.66425e-05
-0.000126205
-0.000154037
-2.66553e-05
-1.82626e-06
3.09697e-05
-6.74436e-06
8.00332e-05
-1.42717e-05
0.000119895
-2.38827e-05
0.000151478
-3.50321e-05
0.000175617
-4.71717e-05
0.000193081
-5.97604e-05
0.000204522
-7.22683e-05
0.000210435
-8.41735e-05
0.000211131
-9.49535e-05
0.000206723
-0.000104069
0.000197115
-0.000110938
0.000182008
-0.000114902
0.000160913
-0.000115167
0.00013318
-0.000110728
9.80624e-05
-0.000100256
5.48465e-05
-8.19233e-05
3.09835e-06
-5.32919e-05
-5.66262e-05
-1.11173e-05
-0.000121802
4.80331e-05
-0.000185355
-0.000227904
0.0001219
-1.51051e-06
3.24803e-05
-5.58021e-06
8.41029e-05
-1.17568e-05
0.000126072
-1.95202e-05
0.000159241
-2.83124e-05
0.000184409
-3.75558e-05
0.000202324
-4.6665e-05
0.000213631
-5.50494e-05
0.000218819
-6.21118e-05
0.000218194
-6.72399e-05
0.000211851
-6.97921e-05
0.000199667
-6.9077e-05
0.000181293
-6.43236e-05
0.00015616
-5.46377e-05
0.000123494
-3.8935e-05
8.23597e-05
-1.58305e-05
3.17419e-05
1.6509e-05
-2.92411e-05
6.07077e-05
-0.000100825
0.000120298
-0.000181393
0.000199464
-0.000264521
-0.000330772
0.000302332
-1.20342e-06
3.36837e-05
-4.42183e-06
8.73213e-05
-9.20942e-06
0.000130859
-1.50304e-05
0.000165062
-2.12943e-05
0.000190673
-2.73742e-05
0.000208404
-3.2617e-05
0.000218874
-3.63457e-05
0.000222548
-3.78553e-05
0.000219703
-3.6404e-05
0.0002104
-3.12005e-05
0.000194464
-2.13862e-05
0.000171479
-6.01332e-06
0.000140787
1.5987e-05
0.000101494
4.58463e-05
5.25004e-05
8.50345e-05
-7.44634e-06
0.000135396
-7.96025e-05
0.000199471
-0.0001649
0.00028085
-0.000262772
0.000384553
-0.000368224
-0.000464133
0.000517914
-9.16029e-07
3.45997e-05
-3.3032e-06
8.97084e-05
-6.69263e-06
0.000134249
-1.0508e-05
0.000168878
-1.41034e-05
0.000194268
-1.67796e-05
0.00021108
-1.77916e-05
0.000219886
-1.63465e-05
0.000221103
-1.15973e-05
0.000214954
-2.6311e-06
0.000201433
1.15445e-05
0.000180288
3.20163e-05
0.000151007
5.99817e-05
0.000112821
9.67631e-05
6.47126e-05
0.000143829
5.43464e-06
0.000202813
-6.643e-05
0.000275599
-0.000152389
0.000364524
-0.000253825
0.000472876
-0.000371124
0.000605359
-0.000500706
-0.000631596
0.000772822
-6.57582e-07
3.52573e-05
-2.25207e-06
9.13029e-05
-4.25716e-06
0.000136254
-6.0276e-06
0.000170648
-6.83701e-06
0.000195077
-5.88769e-06
0.000210131
-2.31606e-06
0.000216314
4.81741e-06
0.000213969
1.65383e-05
0.000203233
3.39732e-05
0.000183999
5.83649e-05
0.000155896
9.10868e-05
0.000118285
0.000133652
7.02565e-05
0.000187712
1.06517e-05
0.000255052
-6.19047e-05
0.000337564
-0.000148943
0.000437228
-0.000252052
0.000556165
-0.000372762
0.000697089
-0.000512048
0.00086336
-0.000666977
-0.000837116
0.00106888
-4.34232e-07
3.56915e-05
-1.28579e-06
9.21545e-05
-1.93307e-06
0.000136901
-1.62976e-06
0.000170345
4.59659e-07
0.000192988
5.25473e-06
0.000205336
1.37726e-05
0.000207796
2.71319e-05
0.00020061
4.65743e-05
0.000183791
7.34828e-05
0.00015709
0.000109398
0.000119981
0.00015603
7.1653e-05
0.000215258
1.10291e-05
0.000289112
-6.32023e-05
0.000379736
-0.000152529
0.000489318
-0.000258524
0.000619975
-0.000382709
0.000773627
-0.000526414
0.000952271
-0.000690693
0.00115731
-0.000872016
-0.00108393
0.00140413
-2.47954e-07
3.59395e-05
-4.07082e-07
9.23136e-05
2.80868e-07
0.000136213
2.69094e-06
0.000167935
7.80324e-06
0.000187876
1.66974e-05
0.000196442
3.05691e-05
0.000193925
5.0755e-05
0.000180424
7.87536e-05
0.000155792
0.000116247
0.000119596
0.000165118
7.11107e-05
0.000227447
9.32369e-06
0.000305505
-6.7029e-05
0.000401705
-0.000159402
0.000518523
-0.000269347
0.000658377
-0.000398378
0.000823444
-0.000547776
0.00101539
-0.000718356
0.00123527
-0.000910577
0.00148266
-0.0011194
-0.0013729
0.00177162
-9.58323e-08
3.60353e-05
3.96234e-07
9.18215e-05
2.41119e-06
0.000134198
6.99874e-06
0.000163347
1.53089e-05
0.000179565
2.86138e-05
0.000183137
4.83318e-05
0.000174207
7.60572e-05
0.000152699
0.000113588
0.000118261
0.000162947
7.02376e-05
0.000226387
7.67083e-06
0.000306379
-7.0669e-05
0.000405569
-0.000166219
0.000526688
-0.000280521
0.00067242
-0.000415079
0.000845208
-0.000571167
0.00104701
-0.000749578
0.00127901
-0.000950351
0.00154088
-0.00117246
0.00183125
-0.00140977
-0.00170036
0.00215872
3.14172e-08
3.60039e-05
1.15807e-06
9.06949e-05
4.53736e-06
0.000130819
1.14232e-05
0.000156461
2.3179e-05
0.00016781
4.1309e-05
0.000165007
6.74953e-05
0.00014802
0.000103634
0.00011656
0.000151865
7.00305e-05
0.000214581
7.52165e-06
0.00029442
-7.21685e-05
0.000394217
-0.000170466
0.000516911
-0.000288913
0.000665397
-0.000429007
0.000842312
-0.000591994
0.00104976
-0.000778611
0.00128898
-0.000988803
0.0015602
-0.00122157
0.00186117
-0.00147343
0.00219078
-0.00173938
-0.00205653
0.00254695
1.47887e-07
3.5856e-05
1.93104e-06
8.89117e-05
6.76719e-06
0.000125983
1.61553e-05
0.000147073
3.17115e-05
0.000152253
5.52159e-05
0.000141502
8.86591e-05
0.000114577
0.000134282
7.09367e-05
0.000194597
9.71575e-06
0.000272379
-7.02608e-05
0.000370621
-0.00017041
0.000492431
-0.000292276
0.000640869
-0.00043735
0.000818709
-0.000606847
0.00102814
-0.000801421
0.00127039
-0.00102087
0.00154541
-0.00126382
0.00185168
-0.00152784
0.00218478
-0.00180652
0.00254426
-0.00209886
-0.00242534
0.00291307
2.73516e-07
3.55825e-05
2.78287e-06
8.64024e-05
9.24433e-06
0.000119521
2.14405e-05
0.000134877
4.12824e-05
0.000132411
7.08702e-05
0.000111915
0.000112546
7.29012e-05
0.000168928
1.45548e-05
0.000242911
-6.42674e-05
0.000337621
-0.000164971
0.00045631
-0.000289099
0.000602173
-0.000438138
0.000778088
-0.000613265
0.000986283
-0.000815042
0.00122795
-0.00104309
0.00150288
-0.00129579
0.0018091
-0.00157005
0.00214271
-0.00186144
0.00249752
-0.00216134
0.00287126
-0.0024726
-0.00278508
0.003231
4.31373e-07
3.51511e-05
3.79407e-06
8.30397e-05
1.21364e-05
0.000111179
2.75621e-05
0.000119451
5.23185e-05
0.000107655
8.88667e-05
7.53664e-05
0.000139933
2.18353e-05
0.000208522
-5.40345e-05
0.000297882
-0.000153627
0.000411392
-0.000278482
0.000552373
-0.00043008
0.000723796
-0.000609562
0.000927922
-0.000817391
0.00116587
-0.00105299
0.00143723
-0.00131445
0.00173973
-0.00159829
0.00206917
-0.00189949
0.00241919
-0.00221147
0.00278341
-0.00252555
0.00315182
-0.00284101
-0.00310513
0.00347187
6.46654e-07
3.45045e-05
5.05124e-06
7.86351e-05
1.56221e-05
0.000100608
3.48183e-05
0.000100255
6.52599e-05
7.72135e-05
0.000109799
3.08269e-05
0.000171558
-3.99229e-05
0.0002539
-0.000136377
0.000360333
-0.00026006
0.000494304
-0.000412453
0.000658896
-0.000594672
0.000856422
-0.000807088
0.00108797
-0.00104893
0.00135294
-0.00131797
0.00164874
-0.00161025
0.00197064
-0.0019202
0.00231207
-0.00224091
0.00266478
-0.00256418
0.00302266
-0.00288343
0.0033716
-0.00318995
-0.00347218
0.00373864
9.44482e-07
3.356e-05
6.64018e-06
7.29394e-05
1.98764e-05
8.7372e-05
4.34955e-05
7.66361e-05
8.05161e-05
4.01929e-05
0.000134193
-2.28504e-05
0.000208019
-0.000113749
0.000305635
-0.000233992
0.000430631
-0.000385057
0.000586233
-0.000568055
0.000774861
-0.0007833
0.000997632
-0.00102986
0.00125386
-0.00130517
0.00154072
-0.00160482
0.00185307
-0.0019226
0.00218377
-0.0022509
0.00252427
-0.00258141
0.00286568
-0.00290559
0.00319995
-0.0032177
0.00351913
-0.00350913
-0.00378576
0.00383271
1.34786e-06
3.22121e-05
8.63884e-06
6.56484e-05
2.50557e-05
7.09551e-05
5.38416e-05
4.78501e-05
9.84226e-05
-4.38805e-06
0.000162437
-8.68652e-05
0.000249676
-0.000200988
0.000363899
-0.000348215
0.000508514
-0.000529672
0.000686122
-0.000745662
0.000897969
-0.000995147
0.00114341
-0.0012753
0.00141949
-0.00158125
0.00172083
-0.00190615
0.00203988
-0.00224165
0.00236761
-0.00257864
0.00269454
-0.00290834
0.00301198
-0.00322303
0.00331275
-0.00351846
0.00359257
-0.00378895
-0.00404383
0.00385064
1.87606e-06
3.0336e-05
1.11115e-05
5.6413e-05
3.12848e-05
5.07818e-05
6.60424e-05
1.30925e-05
0.000119202
-5.75473e-05
0.000194724
-0.000162388
0.000296565
-0.000302828
0.000428361
-0.000480011
0.000592971
-0.000694282
0.00079189
-0.000944581
0.00102465
-0.00122791
0.00128836
-0.00153901
0.00157752
-0.00187041
0.00188434
-0.00221297
0.00219942
-0.00255674
0.00251292
-0.00289213
0.00281576
-0.00321119
0.00310083
-0.0035081
0.00336342
-0.00378105
0.00360191
-0.00402744
-0.0042593
0.00381738
2.54356e-06
2.77925e-05
1.41048e-05
4.48517e-05
3.86473e-05
2.62393e-05
8.02038e-05
-2.8464e-05
0.000142933
-0.000120277
0.000231009
-0.000250464
0.000348342
-0.000420161
0.000498122
-0.000629791
0.000682212
-0.000878371
0.000900487
-0.00116286
0.00115029
-0.00147772
0.00142622
-0.00181493
0.00172034
-0.00216454
0.00202302
-0.00251565
0.00232408
-0.00285779
0.00261416
-0.00318221
0.0028859
-0.00348293
0.00313481
-0.00375701
0.00335913
-0.00400537
0.00356034
-0.00422865
-0.00443939
0.00374043
3.35974e-06
2.44327e-05
1.76455e-05
3.0566e-05
4.71806e-05
-3.29577e-06
9.63412e-05
-7.76246e-05
0.000169538
-0.000193473
0.000270983
-0.000351909
0.000404261
-0.000553439
0.000571712
-0.000797243
0.000773721
-0.00108038
0.00100808
-0.00139721
0.00126965
-0.00173929
0.00155057
-0.00209586
0.00184104
-0.00245501
0.00213056
-0.00280517
0.00240943
-0.00313665
0.00267
-0.00344279
0.00290756
-0.00372049
0.00312056
-0.00397
0.00331006
-0.00419487
0.00347964
-0.00439823
-0.00459231
0.00363255
4.32906e-06
2.01037e-05
2.17405e-05
1.31545e-05
5.68737e-05
-3.84289e-05
0.000114374
-0.000135125
0.000198766
-0.000277865
0.000314064
-0.000467207
0.000463176
-0.000702551
0.000647146
-0.000981212
0.000864416
-0.00129765
0.00111037
-0.00164317
0.00137741
-0.00200632
0.00165567
-0.00237412
0.00193438
-0.00273371
0.00220337
-0.00307417
0.00245459
-0.00338787
0.00268294
-0.00367115
0.00288664
-0.00392419
0.00306681
-0.00415018
0.00322659
-0.00435465
0.0033707
-0.00454234
-0.00472441
0.00350281
5.45163e-06
1.46521e-05
2.63776e-05
-7.77147e-06
6.76675e-05
-7.97189e-05
0.000134127
-0.000201585
0.000230202
-0.00037394
0.000359414
-0.000596419
0.000523588
-0.000866725
0.000722025
-0.00117965
0.000950876
-0.0015265
0.00120304
-0.00189533
0.0014688
-0.00227208
0.00173711
-0.00264244
0.00199733
-0.00299393
0.00224076
-0.0033176
0.00246177
-0.00360888
0.00265814
-0.00386751
0.0028307
-0.00409675
0.00298259
-0.00430207
0.00311811
-0.00449017
0.00324224
-0.00466647
-0.00484065
0.00335847
6.72371e-06
7.92834e-06
3.15263e-05
-3.25741e-05
7.94563e-05
-0.000127649
0.000155329
-0.000277458
0.00026327
-0.000481881
0.000405955
-0.000739104
0.000583707
-0.00104448
0.000793705
-0.00138965
0.00102964
-0.00176244
0.00128217
-0.00214786
0.00154011
-0.00253003
0.00179229
-0.00289461
0.00202925
-0.00323088
0.00224457
-0.00353292
0.00243538
-0.00379968
0.00260207
-0.0040342
0.0027475
-0.00424218
0.00287596
-0.00443054
0.00299213
-0.00460633
0.00310063
-0.00477497
-0.00494445
0.00320442
8.1378e-06
-2.09463e-07
3.71383e-05
-6.15746e-05
9.20881e-05
-0.000182599
0.00017762
-0.00036299
0.000297247
-0.000601507
0.000452418
-0.000894274
0.000641564
-0.00123362
0.000859495
-0.00160758
0.00109754
-0.00200049
0.00134462
-0.00239494
0.00158906
-0.00277446
0.00182051
-0.00312607
0.00203157
-0.00344194
0.00221845
-0.0037198
0.0023809
-0.00396213
0.00252138
-0.00417468
0.00264399
-0.0043648
0.00275347
-0.00454001
0.00285425
-0.00470711
0.0029503
-0.00487102
-0.00503803
0.00304389
9.68174e-06
-9.8912e-06
4.31472e-05
-9.504e-05
0.000105366
-0.000244817
0.000200556
-0.00045818
0.000331286
-0.000732238
0.000497401
-0.00106039
0.000695133
-0.00143136
0.000916878
-0.00182932
0.00115197
-0.00223557
0.00138837
-0.00263135
0.00161484
-0.00300093
0.00182276
-0.00333399
0.00200721
-0.00362638
0.00216699
-0.00387959
0.00230401
-0.00409915
0.00242209
-0.00429276
0.00252591
-0.00446861
0.00262005
-0.00463416
0.00270842
-0.00479547
0.00279417
-0.00495677
-0.00512277
0.00287891
1.1342e-05
-2.12332e-05
4.94687e-05
-0.000133167
0.00011905
-0.000314398
0.000223616
-0.000562746
0.000364448
-0.00087307
0.000539447
-0.00123539
0.000742481
-0.00163439
0.000963722
-0.00205056
0.0011911
-0.00246296
0.00141253
-0.00285277
0.00161806
-0.00320646
0.00180132
-0.00351726
0.00195995
-0.00378501
0.00209502
-0.00401465
0.00220993
-0.00421406
0.00230926
-0.00439209
0.00239767
-0.00455702
0.00247927
-0.00471577
0.00255728
-0.00487348
0.0026341
-0.00503359
-0.00519941
0.00271074
1.30974e-05
-3.43305e-05
5.59993e-05
-0.000176069
0.000132858
-0.000391257
0.000246222
-0.00067611
0.000395748
-0.0010226
0.000577138
-0.00141678
0.000781917
-0.00183917
0.000998446
-0.00226709
0.00121402
-0.00267854
0.00141734
-0.00305609
0.00160037
-0.00338949
0.00175923
-0.00367611
0.00189386
-0.00391964
0.00200704
-0.00412784
0.00210313
-0.00431015
0.00218684
-0.0044758
0.0022625
-0.00463268
0.00233357
-0.00478684
0.00240258
-0.00494249
0.00247127
-0.00510228
-0.00526833
0.00254019
1.49227e-05
-4.92532e-05
6.2617e-05
-0.000223763
0.000146475
-0.000475115
0.000267758
-0.000797393
0.000424202
-0.00117904
0.000609187
-0.00160176
0.000812107
-0.00204209
0.00102011
-0.0024751
0.00122066
-0.00287909
0.00140393
-0.00323936
0.00156416
-0.00354972
0.00169983
-0.00381178
0.0018128
-0.00403261
0.00190701
-0.00422205
0.00198718
-0.00439031
0.00205782
-0.00454644
0.0021227
-0.00469755
0.00218461
-0.00484875
0.00224545
-0.00500333
0.00230643
-0.00516327
-0.00532969
0.00236779
1.67874e-05
-6.60407e-05
6.91841e-05
-0.00027616
0.000159563
-0.000565493
0.000287601
-0.000925431
0.000448893
-0.00134033
0.000634526
-0.0017874
0.000832162
-0.00223972
0.00102843
-0.00267136
0.00121169
-0.00306235
0.00137406
-0.00340172
0.00151212
-0.00368779
0.00162643
-0.00392609
0.00172026
-0.00412644
0.00179818
-0.00429996
0.00186486
-0.004457
0.00192437
-0.00460596
0.00197985
-0.00475303
0.00203347
-0.00490237
0.00208662
-0.00505648
0.00214011
-0.00521676
-0.00538351
0.00219394
1.86565e-05
-8.46971e-05
7.55506e-05
-0.000333054
0.000171772
-0.000661714
0.000305152
-0.00105881
0.000469024
-0.0015042
0.000652373
-0.00197075
0.000841664
-0.00242902
0.00102371
-0.00285341
0.00118835
-0.00322698
0.00132986
-0.00354323
0.00144703
-0.00380496
0.00154208
-0.00402115
0.00161919
-0.00420355
0.00168312
-0.00436389
0.00173823
-0.00451211
0.00178804
-0.00465576
0.00183505
-0.00480004
0.00188092
-0.00494823
0.00192662
-0.00510219
0.00197268
-0.00526281
-0.00542977
0.00201894
2.04907e-05
-0.000105188
8.15597e-05
-0.000394123
0.000182758
-0.000762913
0.000319868
-0.00119592
0.000483965
-0.0016683
0.000662266
-0.00214905
0.000840649
-0.0026074
0.00100675
-0.00301951
0.00115223
-0.00337247
0.0012736
-0.0036646
0.00137151
-0.00390288
0.00144942
-0.00409905
0.00151198
-0.0042661
0.00156381
-0.00441572
0.00160882
-0.00455712
0.00164991
-0.00469685
0.00168905
-0.00483918
0.00172745
-0.00498664
0.00176582
-0.00514055
0.00180443
-0.00530142
-0.00546842
0.00184307
2.22486e-05
-0.000127436
8.70543e-05
-0.000458929
0.000192202
-0.00086806
0.000331295
-0.00133501
0.000493283
-0.00183029
0.000664062
-0.00231983
0.000829537
-0.00277287
0.000978653
-0.00316863
0.00110512
-0.00349893
0.00120748
-0.00376696
0.00128792
-0.00398332
0.00135068
-0.00416181
0.00140052
-0.00431595
0.00144175
-0.00445695
0.00147771
-0.00459308
0.00151075
-0.00472989
0.00154237
-0.0048708
0.00157346
-0.00501774
0.00160451
-0.0051716
0.00163563
-0.00533255
-0.00549939
0.0016666
2.38874e-05
-0.000151324
9.18842e-05
-0.000526925
0.000199822
-0.000975998
0.00033909
-0.00147428
0.00049676
-0.00198796
0.000657919
-0.00248098
0.000809053
-0.00292401
0.00094077
-0.00330034
0.00104883
-0.003607
0.00113356
-0.00385168
0.00119828
-0.00404804
0.00124764
-0.00421118
0.00128629
-0.00435459
0.00131804
-0.0044887
0.0013457
-0.00462074
0.00137111
-0.0047553
0.00139541
-0.0048951
0.00141925
-0.00504158
0.00144294
-0.00519529
0.00146652
-0.00535613
-0.00552263
0.00148977
2.53654e-05
-0.000176689
9.59128e-05
-0.000597473
0.00020539
-0.00108548
0.000343034
-0.00161193
0.00049438
-0.0021393
0.000644236
-0.00263084
0.000780132
-0.0030599
0.00089452
-0.00341473
0.000985098
-0.00369757
0.00105365
-0.00392023
0.00110428
-0.00409867
0.00114176
-0.00424866
0.0011704
-0.00438322
0.0011935
-0.00451181
0.00121336
-0.0046406
0.00123141
-0.00477335
0.00124848
-0.00491218
0.00126505
-0.00505815
0.00128134
-0.00521158
0.00129733
-0.00537211
-0.00553812
0.00131281
2.66433e-05
-0.000203333
9.90231e-05
-0.000669853
0.00020874
-0.00119519
0.000343033
-0.00174622
0.000486313
-0.00228258
0.000623607
-0.00276814
0.000743825
-0.00318012
0.000841319
-0.00351223
0.000915515
-0.00377177
0.000969335
-0.00397405
0.00100733
-0.00413666
0.00103415
-0.00427549
0.00105369
-0.00440276
0.00106875
-0.00452686
0.00108114
-0.00465299
0.00109196
-0.00478417
0.00110183
-0.00492205
0.00111111
-0.00506742
0.00111993
-0.0052204
0.00112825
-0.00538044
-0.0055458
0.00113594
2.76859e-05
-0.000231018
0.000101122
-0.000743289
0.000209773
-0.00130384
0.000339116
-0.00187556
0.000472882
-0.00241635
0.00059675
-0.002892
0.00070123
-0.0032846
0.000782514
-0.00359351
0.000841499
-0.00383076
0.000881928
-0.00401448
0.00090853
-0.00416327
0.000925695
-0.00429265
0.000936829
-0.0044139
0.00094425
-0.00453428
0.00094938
-0.00465812
0.000953043
-0.00478783
0.000955705
-0.00492471
0.000957621
-0.00506934
0.000958902
-0.00522168
0.000959498
-0.00538103
-0.00554564
0.000959334
2.84634e-05
-0.000259482
0.000102146
-0.000816971
0.000208456
-0.00141015
0.00033142
-0.00199852
0.000454524
-0.00253945
0.000564454
-0.00300193
0.000653429
-0.00337358
0.000719337
-0.00365942
0.000764275
-0.00387569
0.000792521
-0.00404273
0.000808775
-0.00417952
0.000817058
-0.00430093
0.000820294
-0.00441713
0.000820361
-0.00453435
0.000818354
-0.00465612
0.000814887
-0.00478436
0.000810304
-0.00492013
0.000804804
-0.00506384
0.000798467
-0.00521535
0.000791259
-0.00537383
-0.00553754
0.000783159
2.89524e-05
-0.000288434
0.000102056
-0.000890075
0.000204821
-0.00151292
0.000320169
-0.00211387
0.000431755
-0.00265104
0.000527536
-0.00309771
0.000601446
-0.00344749
0.000652886
-0.00371086
0.000684882
-0.00390769
0.000702003
-0.00405985
0.000708765
-0.00418628
0.000708769
-0.00430094
0.000704477
-0.00441284
0.000697382
-0.00452726
0.000688312
-0.00464705
0.000677714
-0.00477377
0.000665844
-0.00490826
0.000652857
-0.00505085
0.000638826
-0.00520131
0.000623731
-0.00535873
-0.00552136
0.000607556
2.91366e-05
-0.000317571
0.000100847
-0.000961785
0.000198956
-0.00161103
0.000305655
-0.00222057
0.000405136
-0.00275052
0.000486795
-0.00317937
0.000546224
-0.00350692
0.000584121
-0.00374875
0.000604187
-0.00392776
0.000611089
-0.00406675
0.000609053
-0.00418425
0.000601241
-0.00429313
0.00058969
-0.00440129
0.000575566
-0.00451313
0.000559479
-0.00463096
0.000541748
-0.00475604
0.000522551
-0.00488906
0.000502004
-0.0050303
0.000480184
-0.00517949
0.000457099
-0.00533565
-0.00549697
0.000432708
2.90069e-05
-0.000346578
9.85347e-05
-0.00103131
0.000190993
-0.00170349
0.000288218
-0.0023178
0.00037524
-0.00283754
0.000442991
-0.00324712
0.000488608
-0.00355253
0.00051386
-0.00377401
0.000522906
-0.0039368
0.000520353
-0.0040642
0.000510075
-0.00417397
0.000494801
-0.00427785
0.00047619
-0.00438268
0.000455134
-0.00449208
0.000432073
-0.0046079
0.000407219
-0.00473118
0.000380689
-0.00486253
0.000352553
-0.00500217
0.000322844
-0.00514979
0.000291538
-0.00530434
-0.00546432
0.000258881
2.85614e-05
-0.000375139
9.5163e-05
-0.00109791
0.000181102
-0.00178943
0.000268223
-0.00240492
0.000342634
-0.00291196
0.000396827
-0.00330132
0.000429338
-0.00358504
0.000442795
-0.00378746
0.000441622
-0.00393563
0.000430253
-0.00405283
0.000412176
-0.00415589
0.000389713
-0.00425539
0.000364193
-0.00435716
0.000336286
-0.00446417
0.000306293
-0.00457791
0.000274347
-0.00469924
0.000240523
-0.00482871
0.00020488
-0.00496652
0.000167389
-0.0051123
0.000127648
-0.0052646
-0.00542207
8.54045e-05
2.78045e-05
-0.000402944
9.07931e-05
-0.0011609
0.000169478
-0.00186811
0.000246045
-0.00248148
0.000307855
-0.00297377
0.000348937
-0.0033424
0.000369057
-0.00360516
0.000371503
-0.00378991
0.000360808
-0.00392493
0.000341153
-0.00403317
0.000315633
-0.00413037
0.000286196
-0.00422595
0.00025389
-0.00432485
0.0002192
-0.00442948
0.000182321
-0.00454103
0.000143324
-0.00466024
0.000102251
-0.00478763
5.91869e-05
-0.00492346
1.42841e-05
-0.00506739
-3.25234e-05
-0.00521779
-0.00537064
-8.39578e-05
2.67469e-05
-0.000429691
8.55026e-05
-0.00121966
0.000156332
-0.00193894
0.000222055
-0.00254721
0.000271407
-0.00302312
0.000299883
-0.00337087
0.000308311
-0.00361359
0.00030046
-0.00378206
0.000280845
-0.00390532
0.000253345
-0.00400567
0.000220671
-0.0040977
0.000184433
-0.00418971
0.000145444
-0.00428586
0.000104046
-0.00438808
6.03281e-05
-0.00449731
1.43195e-05
-0.00461423
-3.3948e-05
-0.00473937
-8.43966e-05
-0.00487301
-0.000136996
-0.00501479
-0.000192043
-0.00516274
-0.00531433
-0.000248349
2.54043e-05
-0.000455095
7.93801e-05
-0.00127363
0.00014188
-0.00200144
0.000196609
-0.00260194
0.000233746
-0.00306025
0.000250156
-0.00338728
0.000247561
-0.003611
0.000230054
-0.00376455
0.000202041
-0.00387731
0.000167065
-0.0039707
0.000127474
-0.00405811
8.45811e-05
-0.00414682
3.89944e-05
-0.00424028
-9.05871e-06
-0.00434003
-5.95109e-05
-0.00444686
-0.000112432
-0.00456131
-0.000167831
-0.00468397
-0.000225646
-0.0048152
-0.000285828
-0.00495461
-0.000348229
-0.00510034
-0.00525032
-0.000412237
2.37964e-05
-0.000478891
7.25218e-05
-0.00132236
0.000126338
-0.00205526
0.000170043
-0.00264564
0.000195283
-0.00308549
0.000200182
-0.00339218
0.000187192
-0.00359801
0.000160599
-0.00373796
0.000124633
-0.00384134
8.25228e-05
-0.00392859
3.61795e-05
-0.00401176
-1.32473e-05
-0.00409739
-6.52966e-05
-0.00418823
-0.000119874
-0.00428545
-0.000177022
-0.00438971
-0.000236801
-0.00450153
-0.000299263
-0.00462151
-0.000364374
-0.00475008
-0.000432002
-0.00488698
-0.000501894
-0.00503045
-0.00517836
-0.000573857
2.19464e-05
-0.000500838
6.50277e-05
-0.00136544
0.000109915
-0.00210014
0.000142665
-0.00267839
0.00015638
-0.00309921
0.000150322
-0.00338612
0.000127525
-0.00357521
9.23583e-05
-0.00370279
4.87976e-05
-0.00379778
-3.42187e-07
-0.00387945
-5.30895e-05
-0.00395902
-0.000108861
-0.00404162
-0.000167308
-0.00412978
-0.000228351
-0.00422441
-0.000292074
-0.00432599
-0.0003586
-0.004435
-0.000428027
-0.00455208
-0.000500346
-0.00467776
-0.000575394
-0.00481194
-0.00065289
-0.00495295
-0.00509856
-0.000732694
1.98804e-05
-0.000520718
5.6999e-05
-0.00140256
9.28113e-05
-0.00213596
0.000114756
-0.00270034
0.000117356
-0.00310181
0.000100878
-0.00336965
6.88194e-05
-0.00354315
2.55431e-05
-0.00365952
-2.5219e-05
-0.00374702
-8.0878e-05
-0.00382379
-0.000140134
-0.00389976
-0.000202212
-0.00397954
-0.000266939
-0.00406505
-0.000334332
-0.00415701
-0.000404513
-0.0042558
-0.000477658
-0.00436186
-0.000553921
-0.00447582
-0.000633338
-0.00459835
-0.000715748
-0.00472953
-0.000800823
-0.00486788
-0.00501102
-0.000888357
1.7627e-05
-0.000538345
4.8537e-05
-0.00143347
7.52157e-05
-0.00216263
8.65701e-05
-0.00271169
7.84794e-05
-0.00309372
5.20964e-05
-0.00334326
1.12965e-05
-0.00350235
-3.96827e-05
-0.00360854
-9.73612e-05
-0.00368934
-0.000159507
-0.00376164
-0.000224957
-0.00383431
-0.000293191
-0.00391131
-0.000364082
-0.00399416
-0.000437698
-0.0040834
-0.0005142
-0.0041793
-0.00059381
-0.00428225
-0.000676747
-0.00439288
-0.000763122
-0.00451197
-0.000852804
-0.00463984
-0.000945397
-0.00477529
-0.00491588
-0.00104054
1.52189e-05
-0.000553564
3.97414e-05
-0.00145799
5.73075e-05
-0.0021802
5.83357e-05
-0.00271272
3.99685e-05
-0.00307535
4.31304e-06
-0.00330761
-4.48602e-05
-0.00345318
-0.000103192
-0.0035502
-0.000167531
-0.003625
-0.000235942
-0.00369323
-0.000307459
-0.00376279
-0.00038171
-0.00383706
-0.000458638
-0.00391723
-0.00053834
-0.0040037
-0.000621007
-0.00409663
-0.000706901
-0.00419636
-0.000796313
-0.00430347
-0.000889453
-0.00441883
-0.000986262
-0.00454304
-0.00108627
-0.00467527
-0.00481327
-0.00118888
1.26971e-05
-0.000566261
3.07127e-05
-0.00147601
3.92511e-05
-0.00218874
3.02481e-05
-0.00270372
2.38773e-06
-0.00304749
-4.25238e-05
-0.0032627
-9.95692e-05
-0.00339614
-0.000164896
-0.00348488
-0.000235639
-0.00355426
-0.000310123
-0.00361875
-0.000387562
-0.00368535
-0.000467696
-0.00375693
-0.000550522
-0.00383441
-0.000636162
-0.00391806
-0.000724824
-0.00400797
-0.000816798
-0.00410438
-0.000912444
-0.00420782
-0.00101209
-0.00431918
-0.0011158
-0.00443932
-0.00122307
-0.00456801
-0.00470333
-0.00133301
1.00841e-05
-0.000576345
2.1539e-05
-0.00148746
2.11943e-05
-0.00218839
2.86171e-06
-0.00268538
-3.50224e-05
-0.00300961
-8.82032e-05
-0.00320952
-0.000152702
-0.00333164
-0.00022471
-0.00341287
-0.000301621
-0.00347735
-0.000381995
-0.00353837
-0.000465206
-0.00360214