/*--------------------------------*- C++ -*----------------------------------*\
  =========                 |
  \\      /  F ield         | OpenFOAM: The Open Source CFD Toolbox
   \\    /   O peration     | Website:  https://openfoam.org
    \\  /    A nd           | Version:  7
     \\/     M anipulation  |
\*---------------------------------------------------------------------------*/
FoamFile
{
    version     2.0;
    format      ascii;
    class       volScalarField;
    location    "55";
    object      p;
}
// * * * * * * * * * * * * * * * * * * * * * * * * * * * * * * * * * * * * * //

dimensions      [0 2 -2 0 0 0 0];

internalField   nonuniform List<scalar> 
183
(
-0.345284
-0.345589
-0.345832
-0.345437
-0.345714
-0.345909
-0.346031
-0.346179
-0.346558
-0.34666
-0.347307
-0.347368
-0.348281
-0.348308
-0.349471
-0.349473
-0.350862
-0.350846
-0.350607
-0.352396
-0.352138
-0.354081
-0.353806
-0.355845
-0.355552
-0.354935
-0.357304
-0.356649
-0.35899
-0.358271
-0.359727
-0.35842
-0.360954
-0.35948
-0.360218
-0.35778
-0.360614
-0.357854
-0.35405
-0.357525
-0.353285
-0.352065
-0.345922
-0.343672
-0.335324
-0.340953
-0.331958
-0.321441
-0.328185
-0.317328
-0.304509
-0.31274
-0.300045
-0.287984
-0.282487
-0.30779
-0.299822
-0.320939
-0.313988
-0.307226
-0.330538
-0.3259
-0.319759
-0.336882
-0.333944
-0.330231
-0.338955
-0.336938
-0.341687
-0.340779
-0.343245
-0.342921
-0.344384
-0.34425
-0.3442
-0.345308
-0.345368
-0.346273
-0.346314
-0.34712
-0.347317
-0.347757
-0.347901
-0.348276
-0.34855
-0.348426
-0.348646
-0.349022
-0.348531
-0.348845
-0.348492
-0.348874
-0.347994
-0.348321
-0.348745
-0.347674
-0.34804
-0.347292
-0.347679
-0.346881
-0.347272
-0.346474
-0.346855
-0.346107
-0.346466
-0.345469
-0.345815
-0.346143
-0.345304
-0.345632
-0.34592
-0.0726296
-0.0622566
-0.053553
-0.0462542
-0.0400426
-0.0348909
-0.0305048
-0.0268987
-0.0239107
-0.0214861
-0.0196338
-0.0182073
-0.0173635
-0.0168477
-0.248164
-0.197586
-0.164611
-0.138152
-0.115376
-0.0978187
-0.0830363
-0.0708698
-0.0607441
-0.0522488
-0.0451237
-0.0390517
-0.0340171
-0.0297214
-0.0261922
-0.0232648
-0.0208861
-0.0190679
-0.0176624
-0.0168377
-0.0163217
-0.242656
-0.194218
-0.16091
-0.135145
-0.112761
-0.26881
-0.220002
-0.183385
-0.155031
-0.129588
-0.109637
-0.0926018
-0.0786372
-0.0669681
-0.277179
-0.225562
-0.188813
-0.159346
-0.133173
-0.112618
-0.0950452
-0.0806643
-0.0686538
-0.0585767
-0.0502794
-0.0433218
-0.0375451
-0.0328518
-0.0289032
-0.0258034
-0.0232549
-0.0213598
-0.0199556
-0.0190386
-0.0185624
-0.0194682
-0.0189859
)
;

boundaryField
{
    inlet
    {
        type            zeroGradient;
    }
    outlet
    {
        type            fixedValue;
        value           nonuniform 0();
    }
    cylinder
    {
        type            zeroGradient;
    }
    top
    {
        type            symmetryPlane;
    }
    bottom
    {
        type            symmetryPlane;
    }
    defaultFaces
    {
        type            empty;
    }
    procBoundary29to28
    {
        type            processor;
        value           nonuniform List<scalar> 
120
(
-0.344932
-0.345094
-0.345782
-0.345782
-0.346337
-0.34711
-0.348103
-0.349309
-0.350712
-0.352425
-0.352425
-0.354121
-0.355902
-0.357629
-0.357629
-0.35937
-0.360544
-0.360544
-0.361913
-0.361912
-0.361912
-0.362584
-0.360669
-0.360669
-0.356807
-0.356807
-0.350407
-0.350407
-0.348332
-0.337794
-0.337794
-0.32405
-0.32405
-0.307884
-0.295055
-0.295055
-0.277134
-0.277134
-0.301542
-0.292868
-0.292868
-0.315671
-0.315671
-0.326706
-0.326706
-0.334475
-0.334475
-0.339109
-0.340443
-0.340443
-0.342372
-0.342372
-0.343611
-0.343611
-0.344702
-0.345439
-0.345439
-0.346454
-0.34713
-0.34713
-0.347811
-0.34818
-0.34818
-0.348363
-0.348354
-0.348228
-0.348228
-0.347765
-0.347386
-0.346965
-0.34653
-0.346114
-0.345749
-0.345749
-0.34511
-0.344945
-0.0955253
-0.0810743
-0.069175
-0.0592772
-0.0509767
-0.0440141
-0.0380727
-0.0331474
-0.028936
-0.0254791
-0.0226088
-0.0202734
-0.0184865
-0.017101
-0.0162946
-0.0157784
-0.238032
-0.190971
-0.15743
-0.132162
-0.0955253
-0.110193
-0.261454
-0.214747
-0.178307
-0.150831
-0.126124
-0.106731
-0.0902007
-0.0766376
-0.0652928
-0.0571607
-0.0571607
-0.0490855
-0.0423035
-0.0366686
-0.0320945
-0.0282359
-0.0252118
-0.0227158
-0.0208636
-0.0194903
-0.0185911
-0.0181208
)
;
    }
    procBoundary29to30
    {
        type            processor;
        value           nonuniform List<scalar> 
110
(
-0.345998
-0.346003
-0.346199
-0.346611
-0.347256
-0.348141
-0.349264
-0.349264
-0.35008
-0.351574
-0.353214
-0.353214
-0.353881
-0.35554
-0.357084
-0.357084
-0.356448
-0.357304
-0.357304
-0.354351
-0.354351
-0.348918
-0.347676
-0.347676
-0.338189
-0.338189
-0.325119
-0.325119
-0.309421
-0.309421
-0.292863
-0.292863
-0.253973
-0.31477
-0.28585
-0.31477
-0.325717
-0.325717
-0.333949
-0.333949
-0.339523
-0.339523
-0.342456
-0.342456
-0.344075
-0.345535
-0.345535
-0.346542
-0.346542
-0.347691
-0.348234
-0.348234
-0.348994
-0.34955
-0.349296
-0.349296
-0.349372
-0.349264
-0.348484
-0.348484
-0.348123
-0.347699
-0.347252
-0.346819
-0.346441
-0.346155
-0.0746147
-0.0639348
-0.0549795
-0.0474709
-0.0410914
-0.0358017
-0.0313104
-0.0276157
-0.0245576
-0.0220793
-0.0201874
-0.0187368
-0.0178713
-0.0173547
-0.253973
-0.200851
-0.168595
-0.141303
-0.118158
-0.100226
-0.0850843
-0.0850843
-0.28585
-0.231443
-0.194699
-0.163962
-0.137035
-0.115783
-0.0976224
-0.0827857
-0.0704015
-0.0600322
-0.0514966
-0.0443507
-0.0384235
-0.0336047
-0.0295619
-0.0263829
-0.0237793
-0.0218394
-0.0204035
-0.0204035
-0.019879
-0.0193897
)
;
    }
}


// ************************************************************************* //
