/*--------------------------------*- C++ -*----------------------------------*\
  =========                 |
  \\      /  F ield         | OpenFOAM: The Open Source CFD Toolbox
   \\    /   O peration     | Website:  https://openfoam.org
    \\  /    A nd           | Version:  7
     \\/     M anipulation  |
\*---------------------------------------------------------------------------*/
FoamFile
{
    version     2.0;
    format      ascii;
    class       surfaceScalarField;
    location    "10";
    object      phi;
}
// * * * * * * * * * * * * * * * * * * * * * * * * * * * * * * * * * * * * * //

dimensions      [0 3 -1 0 0 0 0];

internalField   nonuniform List<scalar> 
1661
(
0.000902931
-1.18968e-05
1.01795e-08
0.000914743
-1.18223e-05
9.98973e-09
0.000926482
-1.17491e-05
9.78698e-09
0.00093815
-1.16771e-05
9.56663e-09
0.000949747
-1.16064e-05
9.33034e-09
-1.1537e-05
9.07741e-09
0.000904569
-2.37596e-05
0.000916358
-2.3611e-05
0.000928074
-2.3465e-05
0.000939718
-2.33216e-05
0.000951293
-2.31808e-05
-2.30424e-05
0.000907831
0.000919572
-3.53528e-05
0.000931242
-3.51346e-05
0.000942841
-3.49203e-05
0.00095437
-3.47098e-05
-3.45031e-05
0.000924358
-4.70247e-05
0.000935959
-4.67351e-05
0.000947489
-4.64507e-05
0.000958951
-4.61714e-05
-4.58971e-05
0.000930672
-5.86042e-05
0.000942181
-5.82444e-05
0.000953622
-5.7891e-05
0.000964994
-5.75439e-05
-5.72031e-05
0.000938458
-7.00697e-05
0.000949855
-6.9641e-05
0.000961183
-6.92199e-05
0.000972446
-6.88063e-05
-6.84003e-05
0.000947646
-8.14003e-05
0.000958909
-8.09044e-05
0.000970106
-8.04171e-05
0.000981239
-7.99387e-05
-7.94689e-05
0.000958154
-9.25763e-05
0.000969265
-9.2015e-05
0.000980311
-9.14635e-05
0.000991294
-9.09219e-05
-9.03902e-05
0.000969889
-0.000103579
0.000980828
-0.000102954
0.000991706
-0.000102341
0.00100252
-0.000101738
-0.000101146
0.000982747
-0.000114391
0.000993498
-0.000113706
0.00100419
-0.000113032
0.00101482
-0.000112371
-0.000111721
0.000996613
-0.000124997
0.00100716
-0.000124253
0.00101765
-0.000123523
0.00102809
-0.000122805
-0.0001221
0.00101137
-0.000135383
0.0010217
-0.000134583
0.00103197
-0.000133798
0.00104219
-0.000133026
-0.000132269
0.00102688
0.00103698
-0.000144683
0.00104702
-0.000143846
0.00105702
-0.000143024
0.00106697
-0.000142216
-0.000141424
0.00105287
-0.000154543
0.00106268
-0.000153657
0.00107244
-0.000152786
0.00108216
-0.000151932
-0.000151093
0.00106923
-0.000164153
0.00107879
-0.000163221
0.00108831
-0.000162306
0.00109779
-0.000161408
-0.000160526
0.00108592
-0.000173506
0.00109523
-0.000172533
0.0011045
-0.000171576
0.00111373
-0.000170637
-0.000169715
0.0011028
-0.000182598
0.00111185
-0.000181586
0.00112087
-0.000180591
0.00112985
-0.000179615
-0.000178656
0.00111971
-0.000191426
0.00112851
-0.000190378
0.00113726
-0.000189349
0.00114599
-0.000188338
-0.000187346
0.00113652
0.00114505
-0.000198908
0.00115355
-0.000197848
0.00116202
-0.000196807
0.00117046
-0.000195784
-0.000194781
0.00116134
-0.000207177
0.00116958
-0.000206089
0.0011778
-0.000205021
0.00118598
-0.000203972
-0.000202942
0.00117724
-0.000215187
0.00118523
-0.000214075
0.00119319
-0.000212983
0.00120113
-0.000211911
-0.000210858
0.0011926
-0.000222941
0.00120034
-0.00022181
0.00120805
-0.000220698
0.00121575
-0.000219606
-0.000218534
0.0012073
0.00121479
-0.0002293
0.00122227
-0.000228171
0.00122972
-0.000227063
-0.000225975
0.00122846
-0.000236552
0.0012357
-0.000235411
0.00124293
-0.00023429
0.00125014
-0.000233189
-0.000232109
0.00124122
-0.000243577
0.00124824
-0.000242426
0.00125524
-0.000241296
0.00126224
-0.000240186
-0.000239097
0.00125295
-0.000250385
0.00125976
-0.000249228
0.00126655
-0.000248092
0.00127334
-0.000246976
-0.00024588
0.00126356
0.00127016
-0.000255828
0.00127676
-0.000254689
0.00128335
-0.00025357
0.00128994
-0.000252472
-0.000251394
0.00127934
-0.000262241
0.00128575
-0.000261102
0.00129216
-0.000259983
0.00129858
-0.000258885
-0.000257807
0.00128719
-0.00026848
0.00129343
-0.000267345
0.00129968
-0.000266229
0.00130593
-0.000265134
-0.000264058
0.00129364
-0.000274562
0.00129973
-0.000273433
0.00130582
-0.000272323
0.00131192
-0.000271234
-0.000270164
0.00381172
-0.00028377
0.00382096
-0.000282675
0.00383024
-0.000281598
0.00383954
-0.000280539
-0.000279499
0.00399947
-0.000291334
0.00400709
-0.000290287
0.00401474
-0.000289256
0.00402245
-0.000288242
0.00403019
-0.000287244
-0.000286263
0.00418788
-0.000297251
0.00419386
-0.000296267
0.0041999
-0.000295296
0.00420599
-0.00029434
0.00421215
-0.000293398
-0.000292471
0.00437515
-0.000301543
0.00437952
-0.000300635
0.00438396
-0.000299738
0.00438847
-0.000298853
0.00439305
-0.000297981
-0.00029712
0.00455961
-0.000304251
0.00456241
-0.000303434
0.0045653
-0.000302624
0.00456827
-0.000301823
0.00457132
-0.000301032
-0.00030025
0.00473972
-0.000305441
0.00474102
-0.000304726
0.00474241
-0.000304015
0.00474389
-0.000303309
0.00474547
-0.000302611
-0.000301918
0.00491409
-0.000305195
0.00491395
-0.000304592
0.00491393
-0.00030399
0.00491401
-0.00030339
0.00491419
-0.000302794
-0.000302201
0.00508147
-0.00030361
0.00508001
-0.000303128
0.00507866
-0.000302644
0.00507743
-0.000302158
0.00507631
-0.000301672
-0.000301186
0.00524084
-0.000300799
0.00523815
-0.000300445
0.00523559
-0.000300084
0.00523315
-0.000299719
0.00523083
-0.000299349
-0.000298976
0.00539132
-0.000296882
0.00538753
-0.00029666
0.00538388
-0.000296427
0.00538034
-0.000296186
0.00537693
-0.000295937
-0.000295682
0.00553226
-0.000291988
0.0055275
-0.000291899
0.00552287
-0.000291796
0.00551836
-0.000291682
0.00551398
-0.000291556
-0.00029142
0.00566318
-0.000286246
0.00565758
-0.000286291
0.0056521
-0.000286318
0.00564675
-0.00028633
0.00564152
-0.000286326
-0.00028631
0.00578381
-0.000279789
0.00577748
-0.000279964
0.00577128
-0.000280119
0.00576521
-0.000280254
0.00575925
-0.000280372
-0.000280473
0.00589402
-0.000272744
0.0058871
-0.000273045
0.00588031
-0.000273323
0.00587363
-0.000273578
0.00586707
-0.000273813
-0.000274028
0.00599387
-0.000265233
0.00598648
-0.000265654
0.00597921
-0.000266049
0.00597205
-0.000266419
0.005965
-0.000266765
-0.000267089
0.00608357
-0.000257372
0.00607582
-0.000257905
0.00606818
-0.000258409
0.00606065
-0.000258886
0.00605322
-0.000259337
-0.000259763
0.00616343
-0.000249264
0.00615542
-0.0002499
0.00614752
-0.000250505
0.00613971
-0.000251081
0.00613201
-0.000251629
-0.00025215
0.00623388
0.00622571
-0.000241733
0.00621764
-0.00024243
0.00620965
-0.000243096
0.00620175
-0.000243732
-0.000244339
0.00628719
-0.000233486
0.00627903
-0.000234265
0.00627094
-0.000235011
0.00626294
-0.000235726
-0.000236411
0.00634043
-0.000225229
0.00633224
-0.00022608
0.00632413
-0.000226897
0.00631608
-0.000227681
-0.000228435
0.00638603
-0.000217022
0.00637788
-0.000217934
0.0063698
-0.000218812
0.00636177
-0.000219656
-0.000220469
0.00642463
-0.000208911
0.00641657
-0.000209875
0.00640856
-0.000210804
0.00640061
-0.000211699
-0.000212562
0.00645688
-0.000200934
0.00644895
-0.000201941
0.00644105
-0.000202912
0.0064332
-0.000203849
-0.000204753
0.00648342
-0.000193119
0.00647563
-0.000194159
0.00646789
-0.000195164
0.00646017
-0.000196135
-0.000197072
0.00650486
-0.000185486
0.00649725
-0.000186552
0.00648967
-0.000187582
0.00648211
-0.000188578
-0.000189541
0.0065218
-0.000178047
0.00651438
-0.000179131
0.00650698
-0.00018018
0.00649959
-0.000181194
-0.000182175
0.00653481
-0.000170809
0.00652759
-0.000171904
0.00652037
-0.000172964
0.00651317
-0.00017399
-0.000174983
0.00654441
-0.000163773
0.00653738
-0.000164873
0.00653035
-0.000165939
0.00652333
-0.00016697
-0.000167969
0.00655108
-0.000156937
0.00654424
-0.000158037
0.0065374
-0.000159102
0.00653057
-0.000160134
-0.000161133
0.00655525
-0.000150295
0.0065486
-0.000151389
0.00654195
-0.000152449
0.00653529
-0.000153477
-0.000154472
0.00655732
-0.00014384
0.00655086
-0.000144924
0.00654438
-0.000145975
0.0065379
-0.000146994
-0.000147981
0.00655764
-0.000137562
0.00655135
-0.000138632
0.00654504
-0.00013967
0.00653873
-0.000140677
-0.000141652
0.00655652
-0.000131452
0.00655039
-0.000132505
0.00654425
-0.000133526
0.00653809
-0.000134517
-0.000135477
0.00655423
-0.000125498
0.00654826
-0.000126531
0.00654226
-0.000127533
0.00653625
-0.000128505
-0.000129448
0.00655101
-0.000119691
0.00654518
-0.000120701
0.00653933
-0.000121681
0.00653345
-0.000122632
-0.000123554
0.00654706
-0.000114019
0.00654136
-0.000115004
0.00653564
-0.00011596
0.00652989
-0.000116887
-0.000117787
0.00654255
-0.000108474
0.00653698
-0.000109432
0.00653138
-0.000110361
0.00652575
-0.000111262
-0.000112137
0.00653764
-0.000103045
0.00653218
-0.000103973
0.0065267
-0.000104874
0.00652118
-0.000105748
-0.000106597
0.00653246
-9.7724e-05
0.00652711
-9.86211e-05
0.00652172
-9.94918e-05
0.00651631
-0.000100337
-0.000101157
0.0065271
-9.25021e-05
0.00652185
-9.33664e-05
0.00651656
-9.42053e-05
0.00651125
-9.50195e-05
-9.58096e-05
0.00652167
-8.73718e-05
0.00651651
-8.82018e-05
0.00651131
-8.90075e-05
0.00650608
-8.97895e-05
-9.05483e-05
0.00651624
-8.2326e-05
0.00651116
-8.31203e-05
0.00650604
-8.38914e-05
0.00650089
-8.46398e-05
-8.53661e-05
0.00651087
-7.7358e-05
0.00650586
-7.81153e-05
0.00650082
-7.88506e-05
0.00649574
-7.95642e-05
-8.02567e-05
0.00650561
-7.24618e-05
0.00650068
-7.31809e-05
0.0064957
-7.3879e-05
0.0064907
-7.45567e-05
-7.52144e-05
0.00650051
-6.76316e-05
0.00649564
-6.83114e-05
0.00649074
-6.89713e-05
0.00648579
-6.96119e-05
-7.02336e-05
0.00649562
-6.28622e-05
0.00649081
-6.35015e-05
0.00648596
-6.41222e-05
0.00648107
-6.47248e-05
-6.53095e-05
0.00649095
-5.81485e-05
0.00648619
-5.87464e-05
0.0064814
-5.93269e-05
0.00647656
-5.98904e-05
-6.04373e-05
0.00648653
-5.34858e-05
0.00648183
-5.40413e-05
0.00647708
-5.45807e-05
0.0064723
-5.51043e-05
-5.56124e-05
0.0064824
-4.88696e-05
0.00647774
-4.93819e-05
0.00647304
-4.98793e-05
0.00646829
-5.03622e-05
-5.08308e-05
0.00647856
-4.42956e-05
0.00647394
-4.47638e-05
0.00646928
-4.52185e-05
0.00646457
-4.56599e-05
-4.60883e-05
0.00647502
-3.97596e-05
0.00647044
-4.0183e-05
0.00646582
-4.05942e-05
0.00646115
-4.09935e-05
-4.13809e-05
0.00647182
-3.52574e-05
0.00646727
-3.56355e-05
0.00646268
-3.60026e-05
0.00645804
-3.63591e-05
-3.6705e-05
0.00646894
-3.07853e-05
0.00646442
-3.11174e-05
0.00645986
-3.14399e-05
0.00645525
-3.1753e-05
-3.20569e-05
0.00646641
-2.63393e-05
0.00646192
-2.66249e-05
0.00645738
-2.69022e-05
0.0064528
-2.71715e-05
-2.74328e-05
0.00646423
-2.19155e-05
0.00645975
-2.21542e-05
0.00645524
-2.2386e-05
0.00645068
-2.2611e-05
-2.28294e-05
0.0064624
-1.75103e-05
0.00645795
-1.77016e-05
0.00645345
-1.78875e-05
0.0064489
-1.8068e-05
-1.82431e-05
0.00646093
-1.31198e-05
0.00645649
-1.32636e-05
0.00645201
-1.34032e-05
0.00644748
-1.35388e-05
-1.36704e-05
0.00645983
-8.74041e-06
0.0064554
-8.83639e-06
0.00645093
-8.9296e-06
0.00644641
-9.0201e-06
-9.10795e-06
0.00645909
-4.36836e-06
0.00645467
-4.41639e-06
0.0064502
-4.46303e-06
0.00644569
-4.50832e-06
-4.55227e-06
0.00645872
0.0064543
0.00644984
0.00644533
-0.000283758
0.00381172
0.000274549
-0.000291323
0.00399948
-0.000297241
0.00418788
-0.000301533
0.00437515
-0.000304242
0.00455962
-0.000305433
0.00473973
-0.000305187
0.00491409
-0.000303604
0.00508148
-0.000300793
0.00524085
-0.000296877
0.00539133
-0.000291982
0.00553227
-0.000286242
0.0056632
-0.000279785
0.00578382
-0.00027274
0.00589403
-0.00026523
0.00599389
-0.000257369
0.00608358
-0.000249261
0.00616344
-0.000241001
0.00623389
-0.000232671
0.00629545
-0.000224341
0.0063487
-0.000216071
0.00639425
-0.000207908
0.00643275
-0.000199888
0.00646487
-0.000192039
0.00649124
-0.000184381
0.0065125
-0.000176925
0.00652925
-0.000169676
0.00654206
-0.000162636
0.00655146
-0.000155801
0.00655792
-0.000149166
0.0065619
-0.000142721
0.00656379
-0.000136458
0.00656393
-0.000130365
0.00656264
-0.000124433
0.00656019
-0.000118649
0.00655682
-0.000113004
0.00655274
-0.000107487
0.0065481
-0.000102089
0.00654308
-9.67998e-05
0.00653779
-9.16117e-05
0.00653233
-8.65168e-05
0.00652681
-8.15078e-05
0.00652129
-7.6578e-05
0.00651584
-7.17212e-05
0.00651051
-6.69316e-05
0.00650535
-6.22039e-05
0.00650039
-5.75329e-05
0.00649567
-5.29139e-05
0.0064912
-4.83422e-05
0.00648702
-4.38135e-05
0.00648313
-3.93236e-05
0.00647957
-3.48682e-05
0.00647632
-3.04434e-05
0.00647342
-2.60453e-05
0.00647086
-2.16698e-05
0.00646865
-1.73133e-05
0.00646681
-1.29718e-05
0.00646533
-8.64161e-06
0.00646421
-4.31893e-06
0.00646347
0.00646309
-0.000282664
0.00382097
0.00027342
-0.000290276
0.00400709
-0.000296257
0.00419386
-0.000300626
0.00437952
-0.000303425
0.00456242
-0.000304718
0.00474102
-0.000304585
0.00491396
-0.000303122
0.00508002
-0.000300439
0.00523816
-0.000296654
0.00538755
-0.000291894
0.00552751
-0.000286286
0.00565759
-0.00027996
0.00577749
-0.000273042
0.00588711
-0.000265651
0.0059865
-0.000257902
0.00607583
-0.000249897
0.00615543
-0.000241731
0.00622572
-0.000233484
0.0062872
-0.000225228
0.00634044
-0.00021702
0.00638604
-0.000208909
0.00642464
-0.000200932
0.00645689
-0.000193118
0.00648343
-0.000185485
0.00650487
-0.000178046
0.00652181
-0.000170808
0.00653482
-0.000163772
0.00654442
-0.000156936
0.00655109
-0.000150295
0.00655526
-0.000143839
0.00655733
-0.000137562
0.00655765
-0.000131451
0.00655653
-0.000125498
0.00655424
-0.00011969
0.00655102
-0.000114019
0.00654706
-0.000108474
0.00654256
-0.000103045
0.00653765
-9.77239e-05
0.00653246
-9.25021e-05
0.00652711
-8.73718e-05
0.00652168
-8.23259e-05
0.00651624
-7.7358e-05
0.00651087
-7.24618e-05
0.00650562
-6.76316e-05
0.00650052
-6.28622e-05
0.00649562
-5.81486e-05
0.00649095
-5.34859e-05
0.00648654
-4.88697e-05
0.0064824
-4.42956e-05
0.00647856
-3.97596e-05
0.00647503
-3.52575e-05
0.00647182
-3.07853e-05
0.00646895
-2.63393e-05
0.00646641
-2.19155e-05
0.00646423
-1.75103e-05
0.0064624
-1.31198e-05
0.00646094
-8.74041e-06
0.00645983
-4.36837e-06
0.00645909
0.00645873
-0.000281587
0.00383024
0.000272311
-0.000289246
0.00401475
-0.000295287
0.0041999
-0.000299729
0.00438397
-0.000302616
0.00456531
-0.000304007
0.00474242
-0.000303983
0.00491394
-0.000302638
0.00507867
-0.000300079
0.0052356
-0.000296422
0.00538389
-0.000291792
0.00552288
-0.000286314
0.00565211
-0.000280115
0.00577129
-0.00027332
0.00588032
-0.000266046
0.00597922
-0.000258406
0.00606819
-0.000250503
0.00614753
-0.000242428
0.00621765
-0.000234263
0.00627904
-0.000226079
0.00633225
-0.000217933
0.00637789
-0.000209874
0.00641658
-0.00020194
0.00644896
-0.000194159
0.00647565
-0.000186551
0.00649726
-0.000179131
0.00651439
-0.000171904
0.0065276
-0.000164873
0.00653739
-0.000158036
0.00654425
-0.000151389
0.00654861
-0.000144924
0.00655087
-0.000138632
0.00655136
-0.000132505
0.0065504
-0.000126531
0.00654827
-0.000120701
0.00654519
-0.000115004
0.00654137
-0.000109432
0.00653699
-0.000103973
0.00653219
-9.86211e-05
0.00652711
-9.33664e-05
0.00652186
-8.82019e-05
0.00651651
-8.31203e-05
0.00651116
-7.81154e-05
0.00650587
-7.3181e-05
0.00650068
-6.83114e-05
0.00649565
-6.35016e-05
0.00649081
-5.87465e-05
0.0064862
-5.40414e-05
0.00648183
-4.9382e-05
0.00647774
-4.47639e-05
0.00647394
-4.01831e-05
0.00647045
-3.56356e-05
0.00646727
-3.11174e-05
0.00646443
-2.66249e-05
0.00646192
-2.21542e-05
0.00645976
-1.77017e-05
0.00645795
-1.32636e-05
0.0064565
-8.8364e-06
0.0064554
-4.4164e-06
0.00645467
0.00645431
-0.000280529
0.00383955
0.000271222
-0.000288232
0.00402245
-0.000294331
0.004206
-0.000298845
0.00438848
-0.000301815
0.00456828
-0.000303303
0.0047439
-0.000303384
0.00491402
-0.000302153
0.00507744
-0.000299714
0.00523316
-0.000296182
0.00538036
-0.000291678
0.00551838
-0.000286326
0.00564676
-0.000280251
0.00576522
-0.000273575
0.00587364
-0.000266416
0.00597206
-0.000258884
0.00606066
-0.000251079
0.00613973
-0.000243094
0.00620966
-0.00023501
0.00627095
-0.000226896
0.00632414
-0.000218811
0.00636981
-0.000210803
0.00640858
-0.000202911
0.00644107
-0.000195164
0.0064679
-0.000187582
0.00648968
-0.000180179
0.00650699
-0.000172964
0.00652038
-0.000165938
0.00653037
-0.000159102
0.00653741
-0.000152449
0.00654196
-0.000145975
0.00654439
-0.00013967
0.00654505
-0.000133526
0.00654426
-0.000127533
0.00654227
-0.000121681
0.00653933
-0.00011596
0.00653565
-0.000110361
0.00653139
-0.000104874
0.00652671
-9.94919e-05
0.00652173
-9.42055e-05
0.00651657
-8.90076e-05
0.00651132
-8.38915e-05
0.00650605
-7.88507e-05
0.00650083
-7.38792e-05
0.00649571
-6.89715e-05
0.00649074
-6.41224e-05
0.00648596
-5.9327e-05
0.0064814
-5.45808e-05
0.00647709
-4.98794e-05
0.00647304
-4.52186e-05
0.00646928
-4.05943e-05
0.00646582
-3.60027e-05
0.00646268
-3.144e-05
0.00645986
-2.69023e-05
0.00645738
-2.2386e-05
0.00645524
-1.78876e-05
0.00645345
-1.34033e-05
0.00645201
-8.92962e-06
0.00645093
-4.46304e-06
0.00645021
0.00644985
-0.000279489
0.000270152
-0.000287235
-0.00029339
-0.000297973
-0.000301024
-0.000302604
-0.000302788
-0.000301667
-0.000299345
-0.000295933
-0.000291552
-0.000286323
-0.000280369
-0.000273811
-0.000266763
-0.000259335
-0.000251627
-0.00024373
-0.000235725
-0.00022768
-0.000219656
-0.000211699
-0.000203849
-0.000196135
-0.000188578
-0.000181194
-0.00017399
-0.00016697
-0.000160134
-0.000153477
-0.000146994
-0.000140677
-0.000134517
-0.000128505
-0.000122632
-0.000116887
-0.000111263
-0.000105749
-0.000100337
-9.50198e-05
-8.97897e-05
-8.46401e-05
-7.95644e-05
-7.45569e-05
-6.96121e-05
-6.4725e-05
-5.98906e-05
-5.51045e-05
-5.03623e-05
-4.566e-05
-4.09936e-05
-3.63592e-05
-3.17531e-05
-2.71716e-05
-2.26111e-05
-1.8068e-05
-1.35389e-05
-9.02014e-06
-4.50834e-06
0.00129364
0.000268467
0.00129973
0.000267332
0.00130583
0.000266217
0.00131193
0.000265122
0.000264047
0.00128719
0.000262227
0.00129344
0.000261089
0.00129968
0.000259971
0.00130593
0.000258873
0.000257795
0.00127934
0.000255815
0.00128576
0.000254676
0.00129217
0.000253558
0.00129858
0.00025246
0.00126356
0.00025037
0.00127016
0.000249214
0.00127676
0.000248078
0.00128336
0.000246963
0.000245868
0.00125296
0.000243562
0.00125976
0.000242412
0.00126656
0.000241282
0.00127335
0.000240173
0.000239084
0.00124122
0.000236537
0.00124824
0.000235397
0.00125525
0.000234276
0.00126224
0.000233176
0.000232097
0.00122847
0.000229285
0.00123571
0.000228157
0.00124293
0.000227049
0.00125015
0.000225962
0.00120731
0.000222926
0.0012148
0.000221795
0.00122227
0.000220683
0.00122973
0.000219592
0.00021852
0.00119261
0.000215171
0.00120034
0.00021406
0.00120806
0.000212968
0.00121575
0.000211896
0.000210844
0.00117724
0.000207161
0.00118523
0.000206074
0.00119319
0.000205006
0.00120113
0.000203957
0.000202928
0.00116135
0.000198892
0.00116959
0.000197832
0.0011778
0.000196791
0.00118599
0.00019577
0.000194767
0.00113652
0.000191409
0.00114505
0.000190362
0.00115355
0.000189333
0.00116202
0.000188323
0.00117046
0.000187331
0.00111972
0.000182581
0.00112851
0.000181569
0.00113727
0.000180575
0.00114599
0.000179599
0.00017864
0.0011028
0.000173489
0.00111186
0.000172516
0.00112087
0.000171559
0.00112985
0.000170621
0.000169699
0.00108593
0.000164135
0.00109524
0.000163204
0.00110451
0.000162289
0.00111374
0.000161391
0.00016051
0.00106923
0.000154525
0.0010788
0.000153639
0.00108832
0.000152769
0.00109779
0.000151915
0.000151077
0.00105287
0.000144665
0.00106268
0.000143828
0.00107244
0.000143006
0.00108216
0.0001422
0.000141407
0.00102688
0.000135364
0.00103698
0.000134565
0.00104703
0.00013378
0.00105703
0.000133009
0.00106697
0.000132252
0.00101137
0.000124978
0.0010217
0.000124235
0.00103197
0.000123505
0.0010422
0.000122787
0.000122083
0.000996615
0.000114372
0.00100716
0.000113687
0.00101765
0.000113014
0.00102809
0.000112353
0.000111704
0.000982748
0.00010356
0.0009935
0.000102936
0.00100419
0.000102322
0.00101482
0.00010172
0.000101129
0.000969891
9.25569e-05
0.00098083
9.1996e-05
0.000991708
9.14449e-05
0.00100252
9.09038e-05
9.03726e-05
0.000958155
8.13808e-05
0.000969266
8.08852e-05
0.000980313
8.03984e-05
0.000991296
7.99204e-05
7.94512e-05
0.000947647
7.00501e-05
0.000958911
6.96217e-05
0.000970108
6.9201e-05
0.00098124
6.8788e-05
6.83824e-05
0.000938459
5.85845e-05
0.000949856
5.82251e-05
0.000961185
5.7872e-05
0.000972447
5.75254e-05
5.71851e-05
0.000930673
4.70049e-05
0.000942182
4.67157e-05
0.000953623
4.64317e-05
0.000964995
4.61529e-05
4.58791e-05
0.000924359
3.53329e-05
0.000935959
3.51151e-05
0.00094749
3.49012e-05
0.000958951
3.46912e-05
3.44851e-05
0.000907831
2.37392e-05
0.000919573
2.35911e-05
0.000931242
2.34455e-05
0.000942841
2.33025e-05
0.00095437
2.31621e-05
2.30243e-05
0.000904569
1.18764e-05
0.000916358
1.18023e-05
0.000928074
1.17295e-05
0.000939719
1.1658e-05
0.000951293
1.15878e-05
1.15189e-05
0.000902931
0.000914743
0.000926483
0.00093815
0.000949747
)
;

boundaryField
{
    inlet
    {
        type            calculated;
        value           nonuniform 0();
    }
    outlet
    {
        type            calculated;
        value           nonuniform 0();
    }
    cylinder
    {
        type            calculated;
        value           nonuniform 0();
    }
    top
    {
        type            symmetryPlane;
        value           uniform 0;
    }
    bottom
    {
        type            symmetryPlane;
        value           uniform 0;
    }
    defaultFaces
    {
        type            empty;
        value           nonuniform 0();
    }
    procBoundary34to33
    {
        type            processor;
        value           nonuniform List<scalar> 
191
(
-0.000891044
-0.000892706
-0.000896015
-3.55749e-05
-0.000912686
-0.000919093
-0.000926992
-0.000936315
-0.000946978
-0.000958886
-0.000971934
-0.000986007
-0.00100098
-0.00101672
-0.000145535
-0.00104301
-0.00105962
-0.00107657
-0.00109371
-0.00111089
-0.00112796
-0.000199987
-0.00115307
-0.00116923
-0.00118485
-0.0011998
-0.000230448
-0.00122121
-0.0012342
-0.00124615
-0.00125696
-0.000256988
-0.00127293
-0.00128095
-0.00128756
-0.00380251
-0.00399191
-0.00418196
-0.00437086
-0.0045569
-0.00473853
-0.00491433
-0.00508306
-0.00524365
-0.00539524
-0.00553715
-0.00566893
-0.00579026
-0.00590107
-0.00600139
-0.00609143
-0.00617153
-0.00624214
-0.000241003
-0.00629544
-0.00634868
-0.00639424
-0.00643274
-0.00646486
-0.00649123
-0.00651249
-0.00652924
-0.00654205
-0.00655145
-0.00655791
-0.00656189
-0.00656378
-0.00656392
-0.00656263
-0.00656018
-0.00655682
-0.00655273
-0.0065481
-0.00654307
-0.00653778
-0.00653233
-0.0065268
-0.00652128
-0.00651583
-0.00651051
-0.00650534
-0.00650039
-0.00649566
-0.0064912
-0.00648701
-0.00648313
-0.00647956
-0.00647632
-0.00647341
-0.00647085
-0.00646865
-0.0064668
-0.00646532
-0.00646421
-0.00646346
-0.00646309
-0.00380252
-0.00399191
-0.00418197
-0.00437086
-0.00455691
-0.00473854
-0.00491434
-0.00508307
-0.00524366
-0.00539525
-0.00553716
-0.00566894
-0.00579028
-0.00590108
-0.0060014
-0.00609144
-0.00617155
-0.00624215
-0.00630378
-0.00635703
-0.00640252
-0.00644092
-0.00647289
-0.00649909
-0.00652016
-0.00653671
-0.00654931
-0.0065585
-0.00656476
-0.00656854
-0.00657023
-0.00657019
-0.00656873
-0.00656613
-0.00656261
-0.00655838
-0.00655362
-0.00654848
-0.00654307
-0.00653752
-0.0065319
-0.0065263
-0.00652077
-0.00651537
-0.00651014
-0.00650512
-0.00650034
-0.00649582
-0.00649159
-0.00648766
-0.00648406
-0.00648078
-0.00647784
-0.00647526
-0.00647303
-0.00647116
-0.00646967
-0.00646854
-0.00646779
-0.00646741
-0.00128756
-0.00128095
-0.00127293
-0.000256973
-0.00125696
-0.00124615
-0.0012342
-0.00122121
-0.000230432
-0.0011998
-0.00118485
-0.00116923
-0.00115308
-0.000199971
-0.00112796
-0.00111089
-0.00109371
-0.00107657
-0.00105962
-0.00104301
-0.000145517
-0.00101673
-0.00100098
-0.000986009
-0.000971936
-0.000958888
-0.000946979
-0.000936316
-0.000926993
-0.000919093
-0.000912687
-3.55546e-05
-0.000896016
-0.000892706
-0.000891044
)
;
    }
    procBoundary34to35
    {
        type            processor;
        value           nonuniform List<scalar> 
189
(
0.000961275
0.000962798
0.00096583
0.000970345
0.0009763
0.000983643
0.000992307
0.00100222
0.00101328
0.0010254
0.00103846
0.00105236
0.000131525
0.00107687
0.00109183
0.00110722
0.00112292
0.00113879
0.00115468
0.000186372
0.00117887
0.00119415
0.00120904
0.00122343
0.00123717
0.000224907
0.00125734
0.00126923
0.00128013
0.000244805
0.00129653
0.00130499
0.00131218
0.00131803
0.00384888
0.000278477
0.00403798
0.00421836
0.0043977
0.00457445
0.00474714
0.00491447
0.00507529
0.00522862
0.00537364
0.00550972
0.00563641
0.00575342
0.00586063
0.00595806
0.00604589
0.00612439
0.00619394
0.00625501
0.00630811
0.00635381
0.0063927
0.00642539
0.00645249
0.00647458
0.00649223
0.00650597
0.00651632
0.00652373
0.00652863
0.00653141
0.0065324
0.00653191
0.00653022
0.00652756
0.00652413
0.00652011
0.00651564
0.00651087
0.0065059
0.00650082
0.00649571
0.00649064
0.00648565
0.00648081
0.00647615
0.00647169
0.00646747
0.00646351
0.00645983
0.00645645
0.00645337
0.00645061
0.00644817
0.00644607
0.00644432
0.00644291
0.00644184
0.00644114
0.00644078
0.00384889
0.0040302
0.00421216
0.00439306
0.00457133
0.00474548
0.0049142
0.00507632
0.00523084
0.00537695
0.00551399
0.00564153
0.00575927
0.00586708
0.00596502
0.00605323
0.00613202
0.00620177
0.00626295
0.0063161
0.00636179
0.00640062
0.00643322
0.00646018
0.00648212
0.00649961
0.00651318
0.00652335
0.00653058
0.0065353
0.00653791
0.00653874
0.0065381
0.00653626
0.00653346
0.0065299
0.00652576
0.00652119
0.00651632
0.00651125
0.00650609
0.0065009
0.00649575
0.0064907
0.0064858
0.00648108
0.00647657
0.0064723
0.0064683
0.00646458
0.00646116
0.00645805
0.00645526
0.0064528
0.00645068
0.00644891
0.00644748
0.00644641
0.0064457
0.00644534
0.00131803
0.00131219
0.001305
0.000251382
0.00128995
0.00128013
0.00126923
0.00125735
0.000224895
0.00123717
0.00122343
0.00120905
0.00119415
0.00117887
0.000186358
0.00115468
0.00113879
0.00112293
0.00110723
0.00109183
0.00107687
0.000131509
0.00105237
0.00103847
0.0010254
0.00101328
0.00100222
0.000992309
0.000983644
0.000976301
0.000970346
0.000965831
0.000962798
0.000961275
)
;
    }
}


// ************************************************************************* //
