/*--------------------------------*- C++ -*----------------------------------*\
  =========                 |
  \\      /  F ield         | OpenFOAM: The Open Source CFD Toolbox
   \\    /   O peration     | Website:  https://openfoam.org
    \\  /    A nd           | Version:  7
     \\/     M anipulation  |
\*---------------------------------------------------------------------------*/
FoamFile
{
    version     2.0;
    format      ascii;
    class       surfaceScalarField;
    location    "40";
    object      phi;
}
// * * * * * * * * * * * * * * * * * * * * * * * * * * * * * * * * * * * * * //

dimensions      [0 3 -1 0 0 0 0];

internalField   nonuniform List<scalar> 
4488
(
-4.44077e-05
4.44077e-05
1.91203e-12
-0.000121487
7.70792e-05
3.69477e-13
-0.00020183
8.03432e-05
-3.35476e-13
-0.000263306
6.14757e-05
-7.04927e-13
-0.00028671
2.34039e-05
-7.16278e-13
-0.000253996
-3.2714e-05
-5.08316e-13
-0.000147411
-0.000106584
-6.55843e-14
4.8739e-05
-0.000196151
6.22175e-13
0.000341272
-0.000292533
1.57178e-12
-0.000365774
2.86515e-12
0.000707046
-3.87306e-05
8.31383e-05
-0.000101532
0.00013988
-0.00015907
0.000137882
-0.000188624
9.10295e-05
-0.00016997
4.74973e-06
-8.39811e-05
-0.000118703
8.86952e-05
-0.000279261
0.00036619
-0.000473645
0.000760745
-0.000687088
-0.00086343
0.0012584
-2.79102e-05
0.000111048
-6.31945e-05
0.000175165
-7.65468e-05
0.000151234
-4.40335e-05
5.85162e-05
5.62013e-05
-9.54851e-05
0.000245768
-0.000308269
0.000546497
-0.00057999
0.00098041
-0.000907558
0.00156676
-0.00127344
-0.00160442
0.00230775
-1.29091e-05
0.000123958
-9.15751e-06
0.000171413
4.03196e-05
0.000101757
0.000161385
-6.25488e-05
0.000378442
-0.000312543
0.000715672
-0.000645499
0.00119756
-0.00106188
0.00184927
-0.00155927
0.00269537
-0.00211953
-0.00266192
0.00375286
5.44947e-06
0.000118508
5.70376e-05
0.000119825
0.000184789
-2.5994e-05
0.000416245
-0.000294005
0.000778457
-0.000674755
0.00129784
-0.00116488
0.00200004
-0.00176408
0.0029102
-0.00246942
0.00405249
-0.00326182
-0.00405666
0.00544723
2.58607e-05
9.26474e-05
0.00013253
1.31555e-05
0.000350084
-0.000243548
0.000707961
-0.000651882
0.00123485
-0.00120165
0.00195755
-0.00188758
0.00289926
-0.0027058
0.00407908
-0.00364924
0.00551241
-0.00469515
-0.00574911
0.00720486
4.79979e-05
4.46494e-05
0.000214576
-0.000153423
0.000529869
-0.000558841
0.00102367
-0.00114568
0.001724
-0.00190199
0.00265419
-0.00281776
0.00382945
-0.00388105
0.00525448
-0.00507427
0.00692367
-0.00636434
-0.00763791
0.00881247
7.14433e-05
-2.67939e-05
0.000301251
-0.00038323
0.000718126
-0.000975716
0.00134967
-0.00177723
0.00221892
-0.00277124
0.00333995
-0.00393879
0.00471403
-0.00525513
0.00632617
-0.00668642
0.00813496
-0.00817313
-0.00955843
0.0100555
9.60338e-05
-0.000122828
0.000390549
-0.000677746
0.000908165
-0.00149333
0.00166985
-0.00253891
0.00268717
-0.00378856
0.00395722
-0.00520884
0.00546037
-0.00675828
0.00716301
-0.00838905
0.00904036
-0.0100505
-0.0117265
0.0112084
0.000121495
-0.000244323
0.000479858
-0.00103611
0.00109151
-0.00210498
0.00196468
-0.00341209
0.00309182
-0.00491569
0.00444516
-0.00656217
0.00597775
-0.00829088
0.00763067
-0.010042
0.00934744
-0.0117672
-0.0134602
0.0110812
0.000147166
-0.000391489
0.000565334
-0.00145428
0.0012573
-0.00279695
0.0022119
-0.00436669
0.00339604
-0.00609983
0.0047541
-0.00792024
0.00621502
-0.00975179
0.007705
-0.0115319
0.00916086
-0.0132231
-0.0148202
0.0105208
0.000171882
-0.000563371
0.000641715
-0.00192411
0.0013927
-0.00354793
0.00238846
-0.00536245
0.00356779
-0.00727916
0.00485098
-0.00920343
0.00615436
-0.0110552
0.00740699
-0.0127846
0.00856228
-0.0143784
-0.0158511
0.00959315
0.000193995
-0.000757366
0.000702703
-0.00243282
0.00148432
-0.00432955
0.00247424
-0.00635238
0.00358588
-0.0083908
0.00472548
-0.010343
0.00581205
-0.0121417
0.00679313
-0.0137657
0.00764997
-0.0152352
-0.0165906
0.00838951
0.000211545
-0.00096891
0.000741805
-0.00296308
0.00152053
-0.00510827
0.00245602
-0.00728787
0.00344425
-0.00937903
0.00439072
-0.0112895
0.00523052
-0.0129815
0.00593736
-0.0144725
0.00651898
-0.0158168
-0.0170751
0.00700346
0.000222524
-0.00119143
0.000753367
-0.00349392
0.00149356
-0.00584846
0.00232988
-0.00812419
0.00315213
-0.0102013
0.00387752
-0.0120149
0.00446495
-0.013569
0.00491384
-0.0149214
0.00525058
-0.0161536
-0.0173362
0.00551172
0.000225169
-0.0014166
0.000733491
-0.00400224
0.00140077
-0.00651574
0.00210134
-0.00882476
0.00273049
-0.0108304
0.00322565
-0.01251
0.00357082
-0.0139142
0.00378539
-0.015136
0.00390535
-0.0162735
-0.0173983
0.00396739
0.000218201
-0.0016348
0.000680608
-0.00446465
0.00124487
-0.00708
0.0017835
-0.00936339
0.00220687
-0.0112538
0.00247613
-0.0127793
0.0025969
-0.0140349
0.00260074
-0.0151398
0.00252557
-0.0161984
-0.017277
0.00240428
0.000200992
-0.0018358
0.000595618
-0.00485928
0.00103304
-0.00751742
0.0013942
-0.00972455
0.0016106
-0.0114702
0.00166647
-0.0128352
0.00158318
-0.0139516
0.00139713
-0.0149537
0.00114176
-0.015943
-0.0169776
0.000842371
0.00017364
-0.00200944
0.000481643
-0.00516728
0.000775548
-0.00781133
0.000953057
-0.00990206
0.000969357
-0.0114865
0.000828546
-0.0126943
0.000560878
-0.013684
0.000203129
-0.014596
-0.000216455
-0.0155234
-0.016507
-0.000687004
0.000136958
-0.00214639
0.00034353
-0.00537385
0.000484443
-0.00795224
0.000479331
-0.00989695
0.000307487
-0.0113147
-1.35129e-05
-0.0123733
-0.0004463
-0.0132512
-0.000960003
-0.0140823
-0.0015339
-0.0149495
-0.0158892
-0.0021517
9.24121e-05
-0.00223881
0.000187292
-0.00546873
0.000172741
-0.00793769
-6.16101e-06
-0.00971805
-0.000353685
-0.0109671
-0.000836143
-0.0118909
-0.00141951
-0.0126678
-0.0020773
-0.0134245
-0.00279437
-0.0142324
-0.0151251
-0.00355848
4.21159e-05
-0.00228092
2.1876e-05
-0.00544849
-0.000149421
-0.00776639
-0.000496193
-0.00937128
-0.00100008
-0.0104633
-0.00162773
-0.0112632
-0.00234606
-0.0119495
-0.00313526
-0.0126353
-0.00398636
-0.0133814
-0.0142216
-0.00488986
-1.35868e-05
-0.00226734
-0.000153532
-0.00530855
-0.000472122
-0.0074478
-0.000970265
-0.00887313
-0.0016172
-0.00981632
-0.00237518
-0.0105053
-0.00321525
-0.0111094
-0.00412337
-0.0117272
-0.00509473
-0.01241
-0.0131847
-0.00613165
-7.02216e-05
-0.00219711
-0.000326574
-0.00505219
-0.000784086
-0.00699029
-0.00142042
-0.0082368
-0.00219505
-0.00904169
-0.00306991
-0.0096304
-0.00402054
-0.0101588
-0.00503828
-0.0107095
-0.00612853
-0.0113197
-0.0120463
-0.00726698
-0.00012682
-0.00207029
-0.000493162
-0.00468585
-0.00107791
-0.00640554
-0.00183772
-0.00747699
-0.00272511
-0.00815429
-0.00370403
-0.00865148
-0.00475532
-0.0091075
-0.00587201
-0.00959277
-0.0070539
-0.0101378
-0.010736
-0.00836412
-0.00018104
-0.00188925
-0.000648658
-0.00421823
-0.00134709
-0.00570711
-0.00221494
-0.00660914
-0.00320005
-0.00716919
-0.00426891
-0.00758261
-0.00540658
-0.00796983
-0.00661075
-0.0083886
-0.00789072
-0.00885787
-0.00936896
-0.00925779
-0.000231018
-0.00165824
-0.000788988
-0.00366026
-0.00158634
-0.00490975
-0.00254672
-0.00564877
-0.00361499
-0.00610092
-0.00476059
-0.00643701
-0.00597263
-0.00675779
-0.00725258
-0.00710865
-0.00860897
-0.00750148
-0.00793354
-0.0100444
-0.000275143
-0.00138309
-0.000910778
-0.00302463
-0.00179151
-0.00402902
-0.00282891
-0.00461136
-0.00396628
-0.00496355
-0.00517605
-0.00522724
-0.00645087
-0.00548297
-0.0077944
-0.00576511
-0.00921434
-0.00608154
-0.00643265
-0.0107152
-0.00031206
-0.00107103
-0.00101131
-0.00232538
-0.00195929
-0.00308105
-0.00305827
-0.00351237
-0.00425085
-0.00377098
-0.0055122
-0.00396589
-0.00683784
-0.00415733
-0.00823299
-0.00436995
-0.0097056
-0.00460893
-0.00487581
-0.0112624
-0.000340689
-0.000730344
-0.00108849
-0.00157758
-0.00208719
-0.00208234
-0.00323234
-0.00236722
-0.00446632
-0.002537
-0.00576657
-0.00266565
-0.00713073
-0.00279317
-0.00856522
-0.00293547
-0.0100785
-0.00309568
-0.00327536
-0.0116789
-0.000360222
-0.000370122
-0.00114077
-0.000797035
-0.00217343
-0.00104968
-0.00334935
-0.0011913
-0.00461094
-0.00127541
-0.00593724
-0.00133935
-0.00732731
-0.0014031
-0.00878835
-0.00147442
-0.0103292
-0.00155481
-0.00164519
-0.0119594
-0.000370122
2.31122e-12
-0.00116716
1.55972e-12
-0.00221684
1.51568e-12
-0.00340814
1.55977e-12
-0.00468355
1.54872e-12
-0.0060229
1.51534e-12
-0.007426
1.48836e-12
-0.00890042
1.39696e-12
-0.0104552
1.28914e-12
1.1497e-12
-0.0121004
-0.000370122
0.000370122
-0.00116716
0.000797035
-0.00221684
0.00104968
-0.00340814
0.0011913
-0.00468355
0.00127541
-0.0060229
0.00133935
-0.007426
0.0014031
-0.00890042
0.00147442
-0.0104552
0.00155481
0.00164519
-0.0121004
-0.000360222
0.000730344
-0.00114077
0.00157758
-0.00217343
0.00208234
-0.00334935
0.00236722
-0.00461094
0.002537
-0.00593724
0.00266565
-0.00732731
0.00279317
-0.00878835
0.00293547
-0.0103292
0.00309568
0.00327536
-0.0119594
-0.000340689
0.00107103
-0.00108849
0.00232538
-0.00208719
0.00308105
-0.00323234
0.00351237
-0.00446632
0.00377098
-0.00576657
0.00396589
-0.00713073
0.00415733
-0.00856522
0.00436995
-0.0100785
0.00460893
0.00487581
-0.0116789
-0.00031206
0.00138309
-0.00101131
0.00302463
-0.00195929
0.00402902
-0.00305827
0.00461136
-0.00425085
0.00496355
-0.0055122
0.00522724
-0.00683784
0.00548297
-0.00823299
0.00576511
-0.0097056
0.00608154
0.00643265
-0.0112624
-0.000275143
0.00165824
-0.000910778
0.00366026
-0.00179151
0.00490975
-0.00282891
0.00564877
-0.00396628
0.00610092
-0.00517605
0.00643701
-0.00645087
0.00675779
-0.0077944
0.00710865
-0.00921434
0.00750148
0.00793354
-0.0107152
-0.000231018
0.00188925
-0.000788988
0.00421823
-0.00158634
0.00570711
-0.00254672
0.00660914
-0.00361499
0.00716919
-0.00476059
0.00758261
-0.00597263
0.00796983
-0.00725258
0.0083886
-0.00860897
0.00885787
0.00936896
-0.0100444
-0.00018104
0.00207029
-0.000648658
0.00468585
-0.00134709
0.00640554
-0.00221494
0.00747699
-0.00320005
0.00815429
-0.00426891
0.00865148
-0.00540658
0.0091075
-0.00661075
0.00959277
-0.00789072
0.0101378
0.010736
-0.00925779
-0.00012682
0.00219711
-0.000493162
0.00505219
-0.00107791
0.00699029
-0.00183772
0.0082368
-0.00272511
0.00904169
-0.00370403
0.0096304
-0.00475532
0.0101588
-0.00587201
0.0107095
-0.0070539
0.0113197
0.0120463
-0.00836412
-7.02216e-05
0.00226734
-0.000326574
0.00530855
-0.000784086
0.0074478
-0.00142042
0.00887313
-0.00219505
0.00981632
-0.00306991
0.0105053
-0.00402054
0.0111094
-0.00503828
0.0117272
-0.00612853
0.01241
0.0131847
-0.00726698
-1.35868e-05
0.00228092
-0.000153532
0.00544849
-0.000472122
0.00776639
-0.000970265
0.00937128
-0.0016172
0.0104633
-0.00237518
0.0112632
-0.00321525
0.0119495
-0.00412337
0.0126353
-0.00509473
0.0133814
0.0142216
-0.00613165
4.21159e-05
0.00223881
2.1876e-05
0.00546873
-0.000149421
0.00793769
-0.000496193
0.00971805
-0.00100008
0.0109671
-0.00162773
0.0118909
-0.00234606
0.0126678
-0.00313526
0.0134245
-0.00398636
0.0142324
0.0151251
-0.00488986
9.24121e-05
0.00214639
0.000187292
0.00537385
0.000172741
0.00795224
-6.16101e-06
0.00989695
-0.000353685
0.0113147
-0.000836143
0.0123733
-0.00141951
0.0132512
-0.0020773
0.0140823
-0.00279437
0.0149495
0.0158892
-0.00355848
0.000136958
0.00200944
0.00034353
0.00516728
0.000484443
0.00781133
0.000479331
0.00990206
0.000307487
0.0114865
-1.35129e-05
0.0126943
-0.0004463
0.013684
-0.000960003
0.014596
-0.0015339
0.0155234
0.016507
-0.0021517
0.00017364
0.0018358
0.000481643
0.00485928
0.000775548
0.00751742
0.000953057
0.00972455
0.000969357
0.0114702
0.000828546
0.0128352
0.000560878
0.0139516
0.000203129
0.0149537
-0.000216455
0.015943
0.0169776
-0.000687004
0.000200992
0.0016348
0.000595618
0.00446465
0.00103304
0.00708
0.0013942
0.00936339
0.0016106
0.0112538
0.00166647
0.0127793
0.00158318
0.0140349
0.00139713
0.0151398
0.00114176
0.0161984
0.017277
0.000842371
0.000218201
0.0014166
0.000680608
0.00400224
0.00124487
0.00651574
0.0017835
0.00882476
0.00220687
0.0108304
0.00247613
0.01251
0.0025969
0.0139142
0.00260074
0.015136
0.00252557
0.0162735
0.0173983
0.00240428
0.000225169
0.00119143
0.000733491
0.00349392
0.00140077
0.00584846
0.00210134
0.00812419
0.00273049
0.0102013
0.00322565
0.0120149
0.00357082
0.013569
0.00378539
0.0149214
0.00390535
0.0161536
0.0173362
0.00396739
0.000222524
0.00096891
0.000753367
0.00296308
0.00149356
0.00510827
0.00232988
0.00728787
0.00315213
0.00937903
0.00387752
0.0112895
0.00446495
0.0129815
0.00491384
0.0144725
0.00525058
0.0158168
0.0170751
0.00551172
0.000211545
0.000757366
0.000741805
0.00243282
0.00152053
0.00432955
0.00245602
0.00635238
0.00344425
0.0083908
0.00439072
0.010343
0.00523052
0.0121417
0.00593736
0.0137657
0.00651898
0.0152352
0.0165906
0.00700346
0.000193995
0.000563371
0.000702703
0.00192411
0.00148432
0.00354793
0.00247424
0.00536245
0.00358588
0.00727916
0.00472548
0.00920343
0.00581205
0.0110552
0.00679313
0.0127846
0.00764997
0.0143784
0.0158511
0.00838951
0.000171882
0.000391489
0.000641715
0.00145428
0.0013927
0.00279695
0.00238846
0.00436669
0.00356779
0.00609983
0.00485098
0.00792024
0.00615436
0.00975179
0.00740699
0.0115319
0.00856228
0.0132231
0.0148202
0.00959315
0.000147166
0.000244323
0.000565334
0.00103611
0.0012573
0.00210498
0.0022119
0.00341209
0.00339604
0.00491569
0.0047541
0.00656217
0.00621502
0.00829088
0.007705
0.010042
0.00916086
0.0117672
0.0134602
0.0105208
0.000121495
0.000122828
0.000479858
0.000677746
0.00109151
0.00149333
0.00196468
0.00253891
0.00309182
0.00378856
0.00444516
0.00520884
0.00597775
0.00675828
0.00763067
0.00838905
0.00934744
0.0100505
0.0117265
0.0110812
9.60338e-05
2.67938e-05
0.000390549
0.00038323
0.000908165
0.000975716
0.00166985
0.00177723
0.00268717
0.00277124
0.00395722
0.00393879
0.00546037
0.00525513
0.00716301
0.00668642
0.00904036
0.00817313
0.00955843
0.0112084
7.14433e-05
-4.46494e-05
0.000301251
0.000153423
0.000718126
0.000558841
0.00134967
0.00114568
0.00221892
0.00190199
0.00333995
0.00281776
0.00471403
0.00388105
0.00632617
0.00507427
0.00813496
0.00636434
0.00763791
0.0100555
4.79979e-05
-9.26474e-05
0.000214576
-1.31555e-05
0.000529869
0.000243548
0.00102367
0.000651882
0.001724
0.00120165
0.00265419
0.00188758
0.00382945
0.0027058
0.00525448
0.00364924
0.00692367
0.00469515
0.00574911
0.00881247
2.58607e-05
-0.000118508
0.00013253
-0.000119825
0.000350084
2.5994e-05
0.000707961
0.000294005
0.00123485
0.000674755
0.00195755
0.00116488
0.00289926
0.00176408
0.00407908
0.00246942
0.00551241
0.00326182
0.00405666
0.00720486
5.44947e-06
-0.000123958
5.70376e-05
-0.000171413
0.000184789
-0.000101757
0.000416245
6.25488e-05
0.000778457
0.000312543
0.00129784
0.000645499
0.00200004
0.00106188
0.0029102
0.00155927
0.00405249
0.00211953
0.00266192
0.00544723
-1.29091e-05
-0.000111048
-9.15751e-06
-0.000175165
4.03196e-05
-0.000151234
0.000161385
-5.85162e-05
0.000378442
9.54851e-05
0.000715672
0.000308269
0.00119756
0.00057999
0.00184927
0.000907558
0.00269537
0.00127344
0.00160442
0.00375286
-2.79102e-05
-8.31383e-05
-6.31945e-05
-0.00013988
-7.65468e-05
-0.000137882
-4.40335e-05
-9.10295e-05
5.62013e-05
-4.74973e-06
0.000245768
0.000118703
0.000546497
0.000279261
0.00098041
0.000473645
0.00156676
0.000687088
0.00086343
0.00230775
-3.87306e-05
-4.44077e-05
-0.000101532
-7.70792e-05
-0.00015907
-8.03432e-05
-0.000188624
-6.14757e-05
-0.00016997
-2.34039e-05
-8.39811e-05
3.2714e-05
8.86952e-05
0.000106584
0.00036619
0.000196151
0.000760745
0.000292533
0.000365774
0.0012584
-4.44077e-05
-0.000121487
-0.00020183
-0.000263306
-0.00028671
-0.000253996
-0.000147411
4.8739e-05
0.000341272
0.000707046
0.00104039
-0.000333345
9.27894e-12
0.00142264
-0.000382247
1.49962e-11
0.00183565
-0.000413011
2.0629e-11
0.0022614
-0.000425749
2.50845e-11
0.00269575
-0.000434348
2.75856e-11
0.00313093
-0.000435187
2.79804e-11
0.00355883
-0.000427893
2.52421e-11
0.00397324
-0.000414411
2.06353e-11
0.00436984
-0.000396598
1.2955e-11
0.00474585
-0.000376018
4.15434e-12
0.0050998
-0.00035395
-5.37266e-12
0.00543116
-0.000331358
-1.57591e-11
0.00574009
-0.00030893
-2.50444e-11
0.00602722
-0.000287127
-3.3559e-11
0.00629348
-0.000266258
-3.98987e-11
0.00653996
-0.000246481
-4.49566e-11
0.0067679
-0.000227939
-4.7618e-11
0.00697844
-0.000210547
-4.8215e-11
0.00717302
-0.000194576
-4.64616e-11
0.00735229
-0.000179268
-4.24967e-11
0.00751856
-0.000166276
-3.62544e-11
0.00766967
-0.000151106
-2.76616e-11
0.00781354
-0.000143873
-1.84189e-11
-0.000120588
-2.14358e-12
0.00157123
-0.00064617
0.001924
-0.000735026
0.00231071
-0.000799722
0.00271223
-0.000827267
0.00312246
-0.000844572
0.00353344
-0.000846173
0.00393733
-0.000831778
0.00432829
-0.000805372
0.00470234
-0.000770654
0.005057
-0.000730671
0.00539093
-0.000687887
0.00570372
-0.000644148
0.00599556
-0.000600764
0.00626704
-0.000558609
0.00651906
-0.000518274
0.00675263
-0.000480055
0.00696893
-0.000444236
0.00716901
-0.000410626
0.00735424
-0.000379806
0.00752517
-0.0003502
0.00768412
-0.000325225
0.00782886
-0.000295844
0.00796704
-0.000282059
-0.000237624
0.00257284
-0.00091126
0.00286942
-0.00103161
0.00320492
-0.00113522
0.00355939
-0.00118173
0.00392322
-0.0012084
0.00428795
-0.00121091
0.00464631
-0.00119013
0.00499315
-0.00115221
0.0053251
-0.0011026
0.0056401
-0.00104567
0.00593709
-0.000984882
0.00621576
-0.000922818
0.0064763
-0.000861304
0.00671925
-0.000801555
0.00694537
-0.000744399
0.00715555
-0.000690235
0.00735081
-0.000639497
0.00753204
-0.000591851
0.00770049
-0.00054826
0.00785652
-0.000506231
0.00800243
-0.000471126
0.00813592
-0.000429336
0.00826408
-0.000410224
-0.00034855
0.00393299
-0.00109139
0.00415163
-0.00125025
0.00441438
-0.00139797
0.00470164
-0.00146899
0.00500022
-0.00150699
0.00530073
-0.00151142
0.00559675
-0.00148615
0.00588406
-0.00143952
0.00615993
-0.00137847
0.00642271
-0.00130845
0.00667152
-0.0012337
0.00690606
-0.00115736
0.00712643
-0.00108167
0.00733298
-0.00100811
0.00752629
-0.000937705
0.00770699
-0.000870942
0.00787592
-0.000808418
0.00803369
-0.000749626
0.00818143
-0.000696001
0.00831923
-0.000644031
0.0084493
-0.000601197
0.0085694
-0.000549435
0.00868569
-0.000526516
-0.000452672
0.00550093
-0.0011451
0.00562692
-0.00137623
0.0058009
-0.00157195
0.00600479
-0.00167288
0.00622382
-0.00172601
0.0064478
-0.0017354
0.00667126
-0.00170961
0.00689082
-0.00165908
0.00710418
-0.00159183
0.00730978
-0.00151405
0.00750664
-0.00143056
0.00769424
-0.00134496
0.0078724
-0.00125982
0.00804115
-0.00117686
0.00820075
-0.00109731
0.00835154
-0.00102173
0.00849404
-0.000950927
0.00862863
-0.000884209
0.00875619
-0.000823567
0.00887659
-0.000764426
0.00899184
-0.00071645
0.00909992
-0.000657514
0.00920574
-0.000632332
-0.00055177
0.00710466
-0.0010449
0.00713193
-0.0014035
0.00720693
-0.00164695
0.00731655
-0.0017825
0.00744757
-0.00185704
0.00759002
-0.00187785
0.00773904
-0.00185863
0.00789143
-0.00181148
0.00804467
-0.00174507
0.00819675
-0.00166613
0.00834617
-0.00157998
0.00849186
-0.00149065
0.00863311
-0.00140108
0.00876952
-0.00131327
0.00890092
-0.00122871
0.00902728
-0.00114809
0.00914881
-0.00107246
0.00926557
-0.00100097
0.00937823
-0.000936226
0.00948645
-0.000872652
0.00959194
-0.000821943
0.00969313
-0.0007587
0.00979337
-0.000732575
-0.000650361
0.00857518
-0.000807618
0.00850484
-0.00133315
0.00847426
-0.00161637
0.00848459
-0.00179283
0.00852655
-0.001899
0.00859137
-0.00194267
0.00867364
-0.00194089
0.00876895
-0.0019068
0.00887354
-0.00184966
0.00898426
-0.00177685
0.0090986
-0.00169431
0.00921463
-0.00160668
0.00933097
-0.00151742
0.00944665
-0.00142894
0.00956103
-0.00134309
0.0096737
-0.00126075
0.00978455
-0.00118331
0.00989339
-0.00110981
0.0100006
-0.00104346
0.0101059
-0.000977888
0.0102103
-0.000926412
0.0103131
-0.00086151
0.010416
-0.000835445
-0.000755512
0.00982844
-0.000580569
0.00963457
-0.00113928
0.00948339
-0.00146519
0.00939266
-0.00170211
0.00935207
-0.0018584
0.00935139
-0.00194199
0.00938208
-0.00197158
0.00943698
-0.0019617
0.00951019
-0.00192287
0.00959687
-0.00186353
0.00969318
-0.00179062
0.00979616
-0.00170966
0.00990361
-0.00162488
0.010014
-0.00153929
0.0101261
-0.00145523
0.0102392
-0.0013739
0.010353
-0.00129705
0.0104669
-0.00122376
0.0105812
-0.00115771
0.0106955
-0.00109222
0.0108103
-0.00104122
0.0109261
-0.000977306
0.0110417
-0.000950991
-0.000876812
0.027776
0.000616044
-0.0289726
0.0267898
-0.000153063
0.0260088
-0.000684168
0.0253805
-0.00107386
0.0248681
-0.00134598
0.0244457
-0.0015196
0.0240942
-0.00162006
0.0237997
-0.00166725
0.0235519
-0.00167507
0.0233425
-0.00165408
0.0231647
-0.00161288
0.0230133
-0.00155822
0.0228838
-0.00149541
0.0227728
-0.00142829
0.0226775
-0.00135988
0.0225954
-0.00129187
0.0225249
-0.00122655
0.0224646
-0.00116339
0.022413
-0.00110614
0.0223702
-0.0010494
0.0223335
-0.00100456
0.0223078
-0.000951616
0.0222823
-0.000925477
-0.000872441
0.0304463
0.00120907
-0.0310393
0.0298076
0.000485693
0.0291956
-7.21922e-05
0.0286298
-0.000508114
0.0281107
-0.000826819
0.0276434
-0.00105233
0.0272265
-0.00120319
0.0268556
-0.00129629
0.0265258
-0.00134524
0.0262325
-0.0013608
0.0259713
-0.00135174
0.0257382
-0.00132513
0.0255295
-0.00128671
0.025342
-0.00124075
0.0251729
-0.00119076
0.0250199
-0.00113888
0.0248811
-0.00108771
0.0247549
-0.00103728
0.0246399
-0.000991101
0.0245359
-0.000945439
0.0244402
-0.000908828
0.0243569
-0.000868279
0.0242778
-0.000846363
-0.000811508
0.0312613
0.00146649
-0.0315187
0.0309408
0.000806164
0.0305824
0.000286279
0.0301968
-0.000122546
0.0298088
-0.00043882
0.0294317
-0.000675251
0.0290734
-0.000844836
0.0287372
-0.000960127
0.0284245
-0.0010325
0.0281351
-0.00107149
0.0278684
-0.00108499
0.0276228
-0.00107954
0.0273967
-0.00106058
0.0271882
-0.00103233
0.0269958
-0.000998349
0.0268179
-0.000960965
0.026653
-0.000922765
0.0265
-0.000884349
0.0263576
-0.000848612
0.0262258
-0.000813658
0.026102
-0.000785015
0.0259897
-0.000755997
0.0258821
-0.000738738
-0.000718753
0.0312614
0.00149667
-0.0312916
0.0311423
0.000925266
0.0309609
0.000467664
0.0307343
0.000104088
0.030481
-0.000185574
0.0302163
-0.00041052
0.0299498
-0.000578385
0.029688
-0.000698231
0.0294345
-0.000779094
0.029192
-0.000828995
0.0289618
-0.000854736
0.0287443
-0.00086202
0.0285394
-0.000855691
0.0283467
-0.000839638
0.0281655
-0.000817169
0.0279952
-0.000790635
0.0278348
-0.000762377
0.0276839
-0.000733451
0.0275413
-0.000705999
0.0274074
-0.00067972
0.0272799
-0.000657527
0.0271614
-0.00063753
0.0270469
-0.000624219
-0.000614684
0.0309444
0.00139937
-0.0308471
0.0309436
0.000926129
0.0308759
0.000535366
0.0307592
0.000220776
0.0306071
-3.35046e-05
0.030433
-0.000236422
0.0302466
-0.000391955
0.0300547
-0.000506385
0.0298623
-0.000586639
0.0296726
-0.000639302
0.0294879
-0.000670091
0.0293098
-0.000683862
0.0291389
-0.00068479
0.0289756
-0.000676341
0.0288199
-0.000661451
0.0286716
-0.000642382
0.0285304
-0.000621143
0.028396
-0.000599095
0.0282677
-0.00057769
0.0281458
-0.000557762
0.0280286
-0.000540333
0.0279176
-0.000526541
0.0278096
-0.000516202
-0.000512777
0.0305513
0.00123843
-0.0303904
0.0306193
0.000858118
0.0306215
0.000533187
0.0305745
0.000267757
0.0304906
5.04217e-05
0.0303799
-0.00012568
0.0302516
-0.000263672
0.0301126
-0.000367364
0.0299678
-0.00044192
0.0298211
-0.000492599
0.0296751
-0.000524102
0.0295318
-0.000540482
0.0293922
-0.000545252
0.0292573
-0.000541414
0.0291273
-0.000531492
0.0290025
-0.00051758
0.0288827
-0.000501349
0.0287679
-0.000484288
0.0286576
-0.000467342
0.0285518
-0.000451948
0.0284495
-0.000438046
0.0283511
-0.000428195
0.028255
-0.000420045
-0.000419446
0.0301816
0.00104775
-0.0299909
0.0302895
0.000750259
0.0303345
0.000488137
0.0303319
0.000270417
0.0302921
9.02213e-05
0.0302239
-5.74846e-05
0.0301353
-0.000175108
0.0300329
-0.000264984
0.0299218
-0.000330797
0.0298058
-0.000376603
0.0296879
-0.000406155
0.0295701
-0.000422753
0.0294542
-0.000429266
0.0293409
-0.000428211
0.0292311
-0.00042169
0.0291251
-0.000411549
0.0290229
-0.000399151
0.0289246
-0.000385943
0.0288298
-0.000372546
0.0287384
-0.000360555
0.0286498
-0.000349468
0.0285637
-0.000342119
0.0284794
-0.000335677
-0.00033594
0.0298672
0.000844059
-0.0296635
0.0299985
0.000619007
0.0300709
0.000415705
0.0300972
0.000244068
0.0300868
0.00010067
0.0300473
-1.79725e-05
0.0299857
-0.000113565
0.0299083
-0.000187585
0.0298201
-0.000242564
0.029725
-0.000281495
0.0296261
-0.000307258
0.0295258
-0.000322434
0.0294258
-0.000329276
0.0293274
-0.000329803
0.0292314
-0.000325688
0.0291383
-0.000318472
0.0290484
-0.000309229
0.0289617
-0.000299233
0.028878
-0.000288907
0.0287972
-0.000279713
0.0287188
-0.000271083
0.0286422
-0.000265501
0.028567
-0.000260511
-0.000260756
0.0296154
0.000635013
-0.0294063
0.0297608
0.000473627
0.0298513
0.000325164
0.0298973
0.000198089
0.0299069
9.10444e-05
0.0298871
1.84557e-06
0.0298442
-7.06452e-05
0.0297839
-0.000127347
0.0297113
-0.000169927
0.0296303
-0.000200466
0.0295441
-0.000221042
0.0294552
-0.000233552
0.0293656
-0.000239659
0.0292766
-0.000240875
0.0291894
-0.00023845
0.0291045
-0.000233571
0.0290223
-0.000227037
0.0289429
-0.000219864
0.0288664
-0.000212336
0.0287923
-0.000205635
0.0287205
-0.000199272
0.0286501
-0.000195172
0.0285811
-0.000191491
-0.000191519
0.029427
0.00042395
-0.0292159
0.0295809
0.000319702
0.0296834
0.000222708
0.0297426
0.000138866
0.0297659
6.77859e-05
0.0297595
8.23015e-06
0.0297293
-4.04384e-05
0.0296807
-7.87908e-05
0.0296186
-0.000107812
0.0295469
-0.000128815
0.029469
-0.00014314
0.0293875
-0.000152032
0.0293044
-0.000156583
0.0292214
-0.000157802
0.0291394
-0.000156513
0.0290594
-0.000153529
0.0289817
-0.00014937
0.0289066
-0.000144754
0.0288341
-0.000139833
0.0287639
-0.000135467
0.0286959
-0.00013125
0.0286293
-0.000128566
0.0285639
-0.000126092
-0.000126037
0.0293017
0.000212164
-0.0290899
0.0294606
0.000160854
0.0295703
0.000112967
0.0296378
7.13799e-05
0.0296696
3.59632e-05
0.0296717
6.16638e-06
0.0296495
-1.82691e-05
0.0296083
-3.76042e-05
0.0295528
-5.2299e-05
0.029487
-6.29913e-05
0.0294142
-7.03377e-05
0.0293371
-7.49538e-05
0.0292579
-7.73767e-05
0.0291782
-7.81148e-05
0.0290993
-7.75704e-05
0.0290219
-7.61693e-05
0.0289467
-7.41428e-05
0.0288738
-7.19046e-05
0.0288035
-6.94458e-05
0.0287353
-6.73447e-05
0.0286692
-6.51543e-05
0.0286046
-6.39623e-05
0.028541
-6.24721e-05
-6.27157e-05
0.0292397
-0.0290275
0.0294005
0.0295135
0.0295849
0.0296208
0.029627
0.0296087
0.0295711
0.0295188
0.0294558
0.0293855
0.0293105
0.0292332
0.029155
0.0290775
0.0290013
0.0289272
0.0288553
0.0287858
0.0287185
0.0286533
0.0285893
0.0285269
0.0116256
-0.0293898
0.0111768
-0.0305906
0.0102248
-0.0305667
0.00906741
-0.0301342
0.00786335
-0.0296431
0.0066726
-0.0291996
0.00551053
-0.0288289
0.00437632
-0.0285293
0.00326456
-0.0282946
0.00216894
-0.0281203
0.00108302
-0.028004
-0.0279445
0.0111502
-0.0294588
0.0104027
-0.0298431
0.00934825
-0.0295122
0.00821394
-0.0289999
0.00709386
-0.028523
0.00601034
-0.0281161
0.00496068
-0.0277792
0.00393834
-0.027507
0.00293701
-0.0272932
0.00195073
-0.027134
0.000973665
-0.027027
-0.0269708
0.0101674
-0.0291054
0.00929851
-0.0289742
0.00828895
-0.0285026
0.00726765
-0.0279786
0.00627219
-0.0275275
0.00531136
-0.0271553
0.00438149
-0.0268493
0.00347665
-0.0266021
0.00259134
-0.0264079
0.00172027
-0.026263
0.000858196
-0.0261649
-0.0261126
0.00901032
-0.0285226
0.00813378
-0.0280977
0.00719531
-0.0275641
0.00628318
-0.0270665
0.00541057
-0.0266549
0.00457486
-0.0263196
0.00376972
-0.0260442
0.00298851
-0.0258209
0.00222575
-0.0256452
0.00147651
-0.0255137
0.000736115
-0.0254245
-0.0253765
0.00769237
-0.0278255
0.0068629
-0.0272682
0.00603418
-0.0267354
0.00525154
-0.0262838
0.00451285
-0.0259162
0.00380927
-0.025616
0.00313401
-0.0253689
0.00248115
-0.0251681
0.00184566
-0.0250097
0.00122308
-0.0248912
0.000609219
-0.0248106
-0.0247673
0.0062905
-0.0271125
0.00554842
-0.0265261
0.00484612
-0.0260331
0.00419726
-0.025635
0.00359339
-0.0253124
0.00302375
-0.0250464
0.00248112
-0.0248263
0.00195982
-0.0246468
0.00145505
-0.0245049
0.000962654
-0.0243988
0.000478856
-0.0243268
-0.0242884
0.004842
-0.0264428
0.00420779
-0.0258919
0.00363888
-0.0254642
0.00312727
-0.0251234
0.00266005
-0.0248451
0.00222611
-0.0246124
0.00181803
-0.0244182
0.00143027
-0.024259
0.00105829
-0.0241329
0.000698189
-0.0240387
0.000346521
-0.0239752
-0.0239419
0.003378
-0.0258534
0.00286304
-0.0253769
0.00242942
-0.0250306
0.00205458
-0.0247485
0.00172343
-0.024514
0.00142503
-0.024314
0.00115182
-0.024145
0.000898209
-0.0240054
0.000659699
-0.0238944
0.000432584
-0.0238115
0.000213709
-0.0237563
-0.0237282
0.00191815
-0.0253673
0.00152869
-0.0249875
0.00122964
-0.0247315
0.000988574
-0.0245075
0.000792022
-0.0243174
0.000628151
-0.0241501
0.000489079
-0.0240059
0.000368973
-0.0238853
0.000263352
-0.0237888
0.000168612
-0.0237168
8.17824e-05
-0.0236694
-0.0236464
0.000455367
-0.0249803
0.000198697
-0.0247308
2.60209e-05
-0.0245588
-7.44106e-05
-0.024407
-0.000134103
-0.0242578
-0.000162516
-0.0241217
-0.000167562
-0.0240009
-0.000154795
-0.0238981
-0.000128528
-0.0238151
-9.21819e-05
-0.0237531
-4.86468e-05
-0.023713
-0.023695
-0.000956769
-0.0247105
-0.00108193
-0.0246057
-0.00111867
-0.0245221
-0.00109572
-0.02443
-0.00102787
-0.0243256
-0.000927874
-0.0242217
-0.000804139
-0.0241246
-0.00066287
-0.0240393
-0.000508655
-0.0239693
-0.000345026
-0.0239168
-0.000174708
-0.0238833
-0.0238698
-0.00231255
-0.0245496
-0.00232057
-0.0245976
-0.00223611
-0.0246066
-0.00208886
-0.0245772
-0.0018957
-0.0245188
-0.00166991
-0.0244475
-0.00142062
-0.0243739
-0.00115439
-0.0243056
-0.000876013
-0.0242477
-0.000589079
-0.0242037
-0.000296305
-0.0241761
-0.0241661
-0.00361464
-0.0244935
-0.00350812
-0.0247042
-0.00330673
-0.0248079
-0.00303998
-0.024844
-0.00272663
-0.0248321
-0.00238027
-0.0247939
-0.00201058
-0.0247436
-0.0016245
-0.0246916
-0.00122706
-0.0246451
-0.000822028
-0.0246087
-0.000412219
-0.0245859
-0.0245783
-0.00483932
-0.024544
-0.00462361
-0.0249199
-0.00431321
-0.0251183
-0.0039363
-0.0252209
-0.00351134
-0.0252571
-0.00305206
-0.0252532
-0.0025688
-0.0252269
-0.00206922
-0.0251912
-0.0015589
-0.0251554
-0.00104197
-0.0251257
-0.000521495
-0.0251064
-0.0250998
-0.00596391
-0.0247118
-0.00565671
-0.0252271
-0.00525126
-0.0255238
-0.0047751
-0.025697
-0.00424721
-0.025785
-0.0036824
-0.025818
-0.00309237
-0.0258169