/*--------------------------------*- C++ -*----------------------------------*\
  =========                 |
  \\      /  F ield         | OpenFOAM: The Open Source CFD Toolbox
   \\    /   O peration     | Website:  https://openfoam.org
    \\  /    A nd           | Version:  7
     \\/     M anipulation  |
\*---------------------------------------------------------------------------*/
FoamFile
{
    version     2.0;
    format      ascii;
    class       volScalarField;
    location    "75";
    object      p;
}
// * * * * * * * * * * * * * * * * * * * * * * * * * * * * * * * * * * * * * //

dimensions      [0 2 -2 0 0 0 0];

internalField   nonuniform List<scalar> 
183
(
-0.162272
-0.235413
-0.215577
-0.197438
-0.180799
-0.165064
-0.150389
-0.316804
-0.288799
-0.26341
-0.240365
-0.219367
-0.200216
-0.18276
-0.166735
-0.398014
-0.360766
-0.327178
-0.296921
-0.269682
-0.245037
-0.222733
-0.202486
-0.506191
-0.459247
-0.415039
-0.374585
-0.338078
-0.305306
-0.275897
-0.249485
-0.571566
-0.527081
-0.479511
-0.432815
-0.38921
-0.349569
-0.31399
-0.617055
-0.604062
-0.57978
-0.542931
-0.498016
-0.450537
-0.404389
-0.361643
-0.585878
-0.573385
-0.548778
-0.511436
-0.46643
-0.419366
-0.551441
-0.539514
-0.514762
-0.477226
-0.513873
-0.502598
-0.47334
-0.427623
-0.464194
-0.452635
-0.497548
-0.485355
-0.460972
-0.423995
-0.527526
-0.514766
-0.490661
-0.454099
-0.40985
-0.363517
-0.553998
-0.540728
-0.517075
-0.481238
-0.437347
-0.390855
-0.345696
-0.303979
-0.505263
-0.462096
-0.415812
-0.370392
-0.328094
-0.289822
-0.255672
-0.438271
-0.392921
-0.350317
-0.311508
-0.276696
-0.245663
-0.218062
-0.193471
-0.331477
-0.296207
-0.264629
-0.236418
-0.211199
-0.1887
-0.168483
-0.150342
-0.253556
-0.227863
-0.204809
-0.184071
-0.165394
-0.148529
-0.13332
-0.119504
-0.179626
-0.162287
-0.146579
-0.132334
-0.11885
-0.106382
-0.117525
-0.138177
-0.11101
-0.0833705
-0.0678791
-0.0518166
-0.0416476
-0.0321593
-0.0240962
-0.0182642
-0.128616
-0.105057
-0.0788049
-0.064467
-0.0491725
-0.0395869
-0.030525
-0.0226004
-0.0169837
-0.012955
-0.00897397
-0.00470938
-0.00149368
0.00130531
0.00336942
0.00484033
0.00671463
0.00861984
0.00929593
0.00913218
0.0104117
0.009681
0.0110973
0.0168405
0.0181356
0.0195325
0.0211772
0.0211947
0.0212339
0.0215937
0.0225675
-0.0899404
-0.0723374
-0.0510291
-0.0409674
-0.0284927
-0.0199465
-0.0107676
-0.0050062
0.000565537
0.00546281
0.00893346
0.0121679
0.014483
0.0159756
0.0174033
0.0188072
0.0204062
0.020534
0.0207106
0.0210666
0.021921
-0.0992052
-0.0785012
-0.0560499
-0.0447979
)
;

boundaryField
{
    inlet
    {
        type            zeroGradient;
    }
    outlet
    {
        type            fixedValue;
        value           nonuniform 0();
    }
    cylinder
    {
        type            zeroGradient;
    }
    top
    {
        type            symmetryPlane;
    }
    bottom
    {
        type            symmetryPlane;
    }
    defaultFaces
    {
        type            empty;
    }
    procBoundary14to13
    {
        type            processor;
        value           nonuniform List<scalar> 
104
(
-0.151558
-0.137957
-0.18408
-0.167358
-0.151558
-0.152015
-0.225693
-0.20422
-0.18408
-0.184792
-0.282174
-0.253733
-0.225693
-0.228269
-0.323031
-0.282174
-0.288542
-0.374052
-0.323031
-0.332417
-0.432447
-0.374052
-0.386088
-0.477905
-0.432447
-0.440456
-0.477905
-0.462832
-0.462832
-0.430041
-0.388034
-0.416802
-0.416802
-0.428183
-0.428183
-0.391142
-0.379769
-0.379769
-0.333891
-0.318925
-0.318925
-0.278047
-0.26648
-0.26648
-0.233188
-0.225365
-0.225365
-0.198498
-0.174658
-0.171568
-0.171568
-0.151997
-0.134487
-0.134035
-0.134035
-0.119389
-0.106094
-0.106465
-0.106465
-0.0949095
-0.118555
-0.098734
-0.0740322
-0.0608557
-0.0463907
-0.0374343
-0.0288386
-0.0210478
-0.0156425
-0.0119681
-0.00819107
-0.00392219
-0.000702572
0.00206948
0.00405375
0.00541611
0.00732527
0.00934831
0.00995381
0.00995381
0.0102297
0.0118055
0.0177207
0.0188671
0.0202642
0.0219747
0.0218727
0.0217504
0.0221165
0.0232361
-0.0802882
-0.0659163
-0.0458825
-0.0370018
-0.0254905
-0.0174692
-0.00858092
-0.0031507
0.00212675
0.00689006
0.010201
0.0133241
0.0155265
0.0155265
)
;
    }
    procBoundary14to15
    {
        type            processor;
        value           nonuniform List<scalar> 
98
(
-0.174447
-0.250613
-0.230157
-0.211373
-0.194142
-0.178073
-0.178073
-0.335489
-0.30685
-0.28081
-0.257085
-0.257085
-0.419814
-0.382009
-0.347765
-0.347765
-0.530497
-0.483615
-0.439065
-0.439065
-0.597237
-0.553514
-0.553514
-0.644873
-0.631442
-0.607647
-0.607647
-0.57687
-0.56315
-0.540101
-0.540101
-0.526082
-0.483981
-0.483981
-0.458152
-0.413205
-0.370582
-0.370582
-0.349687
-0.314162
-0.28221
-0.28221
-0.269438
-0.243389
-0.219927
-0.198761
-0.198761
-0.193036
-0.175311
-0.159193
-0.144525
-0.13077
-0.13077
-0.129328
-0.147193
-0.116556
-0.0877461
-0.071078
-0.0543357
-0.0436119
-0.0337388
-0.0255346
-0.0194873
-0.0139154
-0.0139154
-0.00975744
-0.00549036
-0.0022658
0.000564209
0.00269972
0.00426392
0.00610956
0.00791703
0.0086553
0.0085861
0.00974737
-0.031435
-0.022391
-0.0129115
-0.00682273
-0.000972345
0.00405995
0.00769214
0.0110392
0.0134682
0.0151255
0.0166729
0.0180905
0.0196601
0.019889
0.0201835
0.0205381
0.0212949
-0.107886
-0.0843961
-0.0609762
-0.031435
-0.048485
)
;
    }
}


// ************************************************************************* //
