/*--------------------------------*- C++ -*----------------------------------*\
  =========                 |
  \\      /  F ield         | OpenFOAM: The Open Source CFD Toolbox
   \\    /   O peration     | Website:  https://openfoam.org
    \\  /    A nd           | Version:  7
     \\/     M anipulation  |
\*---------------------------------------------------------------------------*/
FoamFile
{
    version     2.0;
    format      ascii;
    class       surfaceScalarField;
    location    "10";
    object      phi;
}
// * * * * * * * * * * * * * * * * * * * * * * * * * * * * * * * * * * * * * //

dimensions      [0 3 -1 0 0 0 0];

internalField   nonuniform List<scalar> 
242
(
-0.000152583
3.60811e-05
-9.76342e-07
3.90107e-05
-8.81366e-07
-0.000149339
7.04235e-05
7.62686e-05
-0.000143006
-0.000178558
0.000111821
0.000119477
-0.000166922
0.000144896
0.000154579
-0.000152149
0.000174812
0.000186072
-0.000134806
0.000200994
0.000213302
-0.000115532
0.000222986
0.000235751
-9.49899e-05
0.000253032
-8.56727e-05
0.000264877
0.000272982
-5.88566e-05
0.000271112
0.000276861
-3.23389e-05
0.000274143
3.10589e-06
0.000264619
0.000256901
3.55194e-05
0.000247982
0.000233829
6.80989e-05
0.000100272
0.000201656
0.000170584
0.000144107
0.000116646
0.000260035
4.84402e-05
-2.25713e-05
0.000330397
-0.00012761
0.00053996
-0.000392964
0.000845895
-0.000578461
-0.000772468
0.00101402
0.00126627
-0.00102472
-0.00128008
0.00147912
-0.00159544
0.00202884
-0.00225642
0.00259479
-0.00293784
0.00308592
0.00339198
-0.0035625
-0.00383858
0.00343168
0.00367172
-0.00431563
0.00379793
0.00430874
0.00379782
0.00342875
0.00355356
0.00366975
0.00308065
0.00292785
0.00258775
0.00224643
0.00202117
0.00158659
0.00147195
0.00101773
0.00127196
0.00100799
0.000573494
0.00125932
0.000766398
0.000840344
0.00038887
0.000535805
0.00012516
0.000327421
-4.96355e-05
2.07291e-05
0.000257535
-0.000117421
0.000142387
-0.000201654
-0.000171033
6.69109e-05
-0.000247403
9.88761e-05
-0.00023362
3.455e-05
-0.000263905
-0.000256541
2.31513e-06
-0.00027333
-3.29163e-05
-0.000269921
-0.000275974
-5.93455e-05
-0.000263629
-0.000272036
-7.41993e-05
-0.000238897
-8.60938e-05
-0.000251735
-9.53136e-05
-0.000221389
-0.000234409
-0.000115814
-0.000199359
-0.000211919
-0.00013505
-0.000173142
-0.00018465
-0.000152354
-0.000143195
-0.000153123
-0.000133985
-0.000101352
-0.000167086
-0.000110094
-0.000117991
-0.000143107
-6.84852e-05
-0.000178679
-7.45222e-05
-0.0001494
-3.41321e-05
-3.72521e-05
-0.000152604
0.0025735
-0.0229075
0.00236371
-0.0226305
0.00216302
-0.0223691
0.00197191
-0.0221436
0.00178872
-0.0219591
0.00161063
-0.0218008
0.00143633
-0.0216393
0.00126637
-0.0214871
0.00110093
-0.0213608
0.000939102
-0.0212655
0.000779626
-0.0211931
0.000621377
-0.0211107
0.000464579
-0.0210456
0.000308969
-0.0210026
0.000154526
-0.0209876
-0.0209587
0.00362677
0.00338291
0.00313617
0.00289926
0.0026764
0.00246486
0.00226333
0.00207081
0.00188765
0.00171205
0.00154127
0.00137424
0.0012115
0.00105319
0.000898317
0.000745706
0.000594274
0.000444276
0.000295432
0.000147762
0.00362792
0.00338424
0.00313686
0.00289961
0.00267733
0.00246571
0.00226386
0.0020716
0.0018875
0.00170938
0.0219278
0.00153799
0.021762
0.00137141
0.0215929
0.00120999
0.0214675
0.001052
0.0213577
0.000896554
0.0212717
0.000742894
0.0211802
0.000591316
0.0210964
0.000442161
0.0210437
0.00029454
0.0210172
0.000147239
0.0209907
0.020962
0.00178613
0.00160725
0.00143337
0.00126478
0.00109981
0.000937471
0.000776941
0.000618497
0.000462504
0.00030809
0.000154027
)
;

boundaryField
{
    inlet
    {
        type            calculated;
        value           nonuniform 0();
    }
    outlet
    {
        type            calculated;
        value           nonuniform 0();
    }
    cylinder
    {
        type            calculated;
        value           nonuniform 0();
    }
    top
    {
        type            symmetryPlane;
        value           uniform 0;
    }
    bottom
    {
        type            symmetryPlane;
        value           uniform 0;
    }
    defaultFaces
    {
        type            empty;
        value           nonuniform 0();
    }
    procBoundary28to27
    {
        type            processor;
        value           nonuniform List<scalar> 
124
(
0.000117478
0.000114996
0.000110156
0.000103273
0.000133846
0.000122232
0.000108624
9.35401e-05
7.75248e-05
0.000240451
7.38274e-05
5.26223e-05
3.18347e-05
0.000271616
6.41807e-06
-1.88828e-05
-4.38636e-05
0.000223747
-0.000101757
0.000159306
-0.000191829
-0.000245531
-3.64251e-05
-0.000411678
-0.000255891
-0.000660398
-0.000797305
-0.000795172
-0.00119663
-0.00130721
-0.00169478
-0.0019295
-0.0022438
-0.00260741
-0.00276184
-0.00326192
-0.00316642
-0.00382776
-0.00407862
-0.00361787
-0.00449569
-0.00448954
-0.00381976
-0.00361702
-0.00407119
-0.00316255
-0.00325258
-0.00275592
-0.00259749
-0.00223668
-0.00192015
-0.00168761
-0.00129938
-0.00119029
-0.000789306
-0.000792183
-0.000655721
-0.000252734
-0.000408231
-3.47112e-05
-0.000243074
-0.00018975
0.000159582
-0.000100314
0.00022335
-4.28576e-05
-1.80482e-05
7.10979e-06
0.000270497
3.23402e-05
5.30535e-05
0.000251662
6.14344e-05
7.78056e-05
9.37838e-05
0.000108833
0.000122407
0.000132058
0.00010328
0.00011024
0.000115047
0.000117496
-0.0247162
-0.0242595
-0.0237532
-0.0233522
-0.0229972
-0.022696
-0.0224289
-0.0221766
-0.0219604
-0.0217835
-0.02163
-0.0214722
-0.0213244
-0.0212025
-0.0211107
-0.0210405
-0.0209592
-0.0208956
-0.0208537
-0.0208399
-0.0208109
-0.0247027
-0.024249
-0.0237417
-0.0233324
-0.0229881
-0.0226883
-0.0224177
-0.0221634
-0.021962
-0.0217497
-0.0215906
-0.0214263
-0.0213061
-0.0211997
-0.0211162
-0.0210266
-0.0209448
-0.0208945
-0.0208696
-0.0208434
-0.0208148
)
;
    }
    procBoundary28to29
    {
        type            processor;
        value           nonuniform List<scalar> 
120
(
-0.000190713
-0.000186597
-8.15416e-05
-0.000216494
-0.000202024
-0.000183641
-0.000162036
-0.000137981
-0.000112271
-0.00026269
-9.5965e-05
-6.27354e-05
-2.96206e-05
-0.000271611
1.78162e-05
5.85916e-05
-0.000212204
0.000141891
0.000198044
-6.22872e-05
0.000344894
0.000435435
0.000237389
0.000695535
0.000553313
0.00106505
0.000992377
0.00155396
0.00179449
0.00190219
0.00238308
0.00258662
0.00294601
0.00325644
0.00355504
0.00367553
0.00409936
0.00388799
0.00383019
0.00409151
0.00388698
0.00338761
0.00324661
0.00293937
0.00257622
0.00237516
0.00189244
0.00178658
0.00154613
0.000985149
0.00105856
0.000548184
0.000690574
0.000234101
0.000431851
0.000341897
-6.36325e-05
0.000195999
0.000140254
-0.000212411
5.74717e-05
1.69173e-05
-0.000271143
-3.02725e-05
-6.32836e-05
-9.64374e-05
-0.000261692
-0.000112639
-0.000138304
-0.000162318
-0.000183881
-0.000202218
-0.000216637
-8.00323e-05
-0.000186671
-0.000190737
0.0231277
0.0228403
0.0225698
0.0223347
0.0221423
0.0219789
0.0218136
0.0216571
0.0215262
0.0214274
0.0213526
0.0212689
0.0212024
0.0211582
0.021142
0.0211132
0.0248873
0.0245033
0.0239999
0.0235891
-0.00279366
0.0232201
0.0248726
0.0244927
0.0239891
0.0235696
0.0232104
0.0228999
0.0226195
0.0223556
0.0221461
-0.00197185
0.0221135
0.0219409
0.0217667
0.0216361
0.0215226
0.021434
0.0213408
0.0212548
0.0211997
0.0211716
0.0211448
0.021116
)
;
    }
}


// ************************************************************************* //
