/*--------------------------------*- C++ -*----------------------------------*\
  =========                 |
  \\      /  F ield         | OpenFOAM: The Open Source CFD Toolbox
   \\    /   O peration     | Website:  https://openfoam.org
    \\  /    A nd           | Version:  7
     \\/     M anipulation  |
\*---------------------------------------------------------------------------*/
FoamFile
{
    version     2.0;
    format      ascii;
    class       volScalarField;
    location    "65";
    object      p;
}
// * * * * * * * * * * * * * * * * * * * * * * * * * * * * * * * * * * * * * //

dimensions      [0 2 -2 0 0 0 0];

internalField   nonuniform List<scalar> 
183
(
-0.0655372
-0.046956
-0.0645782
-0.0466287
-0.0635371
-0.0462192
-0.0624177
-0.045728
-0.0612242
-0.0451557
-0.0599607
-0.0445032
-0.0586316
-0.0437717
-0.0572414
-0.0429627
-0.0557944
-0.0420781
-0.0542951
-0.04112
-0.0527478
-0.0400909
-0.051157
-0.0389932
-0.0495269
-0.0378295
-0.0478614
-0.0366031
-0.0461635
-0.0353198
-0.0444367
-0.0339868
-0.0426896
-0.0326022
-0.0409384
-0.0311428
-0.0391839
-0.0295942
-0.0373514
-0.0280739
-0.0353038
-0.0268895
-0.0288804
-0.0238948
-0.0184946
-0.0160093
-0.00925071
-0.00754289
-0.000218438
0.00165785
-0.00840303
0.00769536
0.0103522
0.00351105
0.0148277
0.0180503
0.0149779
0.0206105
0.0240482
0.0248569
0.0249815
0.0280565
0.0320969
0.0278733
0.0302305
0.0363158
0.0295055
0.0309967
0.0378373
0.0301226
0.0307983
0.0376963
0.0299806
0.0297583
0.030495
0.0293845
0.0289705
0.0289188
0.0285448
0.0281914
0.0272437
0.0276247
0.0273292
0.0257491
0.0267477
0.026422
0.0245082
0.0259933
0.0255549
0.0235136
0.0253932
0.0247956
0.0227344
0.0241915
0.022155
0.0237728
0.0217699
0.0235591
0.0215791
-0.058928
-0.0489484
-0.0369202
-0.0250883
-0.0142407
-0.00517671
0.00127851
0.0050252
0.00710107
0.00868297
0.0103498
0.0119666
0.0132969
0.0142863
0.0149846
0.0154581
0.0157593
0.0159337
0.0160231
0.0160625
0.0160755
-0.0329743
-0.0252081
-0.0168056
-0.00911349
-0.00294601
0.00118271
0.00324851
0.00418676
0.0050435
0.00634864
0.00808771
0.00953134
0.0106147
0.0113781
0.0119105
0.0122926
0.0125777
0.0127949
0.0129561
0.0130639
0.0131192
-0.063355
-0.0367455
-0.0643939
-0.0378316
-0.0653432
-0.0388701
-0.0662227
-0.0398658
-0.0670181
-0.0408123
-0.067725
-0.0417067
-0.06834
-0.0425461
-0.0688602
-0.0433279
-0.0692826
-0.0440494
-0.069605
-0.0447079
-0.0698257
-0.0453012
-0.0699434
-0.0458268
-0.0699574
-0.0462825
-0.0698674
-0.0466664
-0.0696738
-0.0469764
-0.0693773
-0.0472109
-0.0689792
-0.0473682
-0.0684811
-0.047447
-0.0678852
-0.047446
-0.0671939
-0.0473643
-0.0664102
-0.0472011
)
;

boundaryField
{
    inlet
    {
        type            zeroGradient;
    }
    outlet
    {
        type            fixedValue;
        value           nonuniform 0();
    }
    cylinder
    {
        type            zeroGradient;
    }
    top
    {
        type            symmetryPlane;
    }
    bottom
    {
        type            symmetryPlane;
    }
    defaultFaces
    {
        type            empty;
    }
    procBoundary45to44
    {
        type            processor;
        value           nonuniform List<scalar> 
85
(
-0.0794793
-0.0770908
-0.0746429
-0.0721479
-0.0696174
-0.0670623
-0.0644929
-0.0619184
-0.0593476
-0.0567882
-0.0542472
-0.0517307
-0.0492441
-0.0467915
-0.0443776
-0.0420074
-0.0396827
-0.0373909
-0.0351103
-0.0328905
-0.0309814
-0.0263771
-0.0175348
-0.010696
-0.00432717
0.00137592
0.00678558
0.0116615
0.015913
0.0193688
0.0219483
0.0237228
0.0248421
0.0254663
0.0257386
0.0257823
0.0256939
0.0255448
0.0253835
0.0249517
0.0249517
0.0246625
0.0245194
-0.0874674
-0.0766265
-0.0625376
-0.0465724
-0.029428
-0.0132244
-0.00039179
0.00771597
0.0116755
0.0136459
0.0151406
0.0165472
0.0176567
0.0183676
0.0187284
0.0188455
0.0188222
0.0187373
0.018642
0.0185656
0.0185239
-0.0942278
-0.0957071
-0.0968329
-0.0977707
-0.0984925
-0.0989838
-0.0992432
-0.0992714
-0.0990708
-0.0986455
-0.0980018
-0.0971473
-0.0960906
-0.0948422
-0.0934139
-0.091818
-0.0900675
-0.0881762
-0.0861578
-0.0840263
-0.0817956
)
;
    }
    procBoundary45to46
    {
        type            processor;
        value           nonuniform List<scalar> 
85
(
-0.0494839
-0.0504016
-0.0512307
-0.0519644
-0.0525957
-0.0531184
-0.0535266
-0.0538151
-0.0539793
-0.0540154
-0.0539205
-0.0536925
-0.0533303
-0.0528325
-0.0521987
-0.0514326
-0.0505475
-0.0495553
-0.0484213
-0.047032
-0.045357
-0.0400815
-0.0302102
-0.0197825
-0.0197825
-0.023297
-0.010522
0.00217161
0.0144307
0.0230849
0.0285061
0.0309732
0.0312488
0.0297299
0.0278894
0.0258987
0.0239849
0.0223119
0.0209489
0.019907
0.0191657
0.0186935
0.0184644
-0.0178051
-0.0106358
-0.00404255
0.000780295
0.00361974
0.00448404
0.00396708
0.00319335
0.00300346
0.00351436
0.00679323
0.0078362
0.00882027
0.00958129
0.0101091
0.0104342
0.0106073
0.0106836
0.0107082
0.0107128
0.0107046
-0.0217681
-0.0230849
-0.0244253
-0.0257854
-0.0271626
-0.0285549
-0.0299599
-0.0313748
-0.0327961
-0.0342197
-0.0356414
-0.0370561
-0.0384587
-0.0398434
-0.0412041
-0.0425343
-0.0438274
-0.0450763
-0.0462739
-0.0474126
-0.0484851
)
;
    }
}


// ************************************************************************* //
