/*--------------------------------*- C++ -*----------------------------------*\
  =========                 |
  \\      /  F ield         | OpenFOAM: The Open Source CFD Toolbox
   \\    /   O peration     | Website:  https://openfoam.org
    \\  /    A nd           | Version:  7
     \\/     M anipulation  |
\*---------------------------------------------------------------------------*/
FoamFile
{
    version     2.0;
    format      ascii;
    class       volScalarField;
    location    "20";
    object      p;
}
// * * * * * * * * * * * * * * * * * * * * * * * * * * * * * * * * * * * * * //

dimensions      [0 2 -2 0 0 0 0];

internalField   nonuniform List<scalar> 
2304
(
-0.306296
-0.31192
-0.309637
-0.303193
-0.293923
-0.282333
-0.268994
-0.254555
-0.239507
-0.225302
-0.311443
-0.315676
-0.31266
-0.305724
-0.29607
-0.284167
-0.270492
-0.255607
-0.239775
-0.22424
-0.321429
-0.322957
-0.318487
-0.310571
-0.300173
-0.287615
-0.273301
-0.25762
-0.240373
-0.222267
-0.33571
-0.333348
-0.326731
-0.317348
-0.305797
-0.292307
-0.277083
-0.260362
-0.241432
-0.219732
-0.353637
-0.346296
-0.33697
-0.325639
-0.312553
-0.297825
-0.281446
-0.263511
-0.242968
-0.217115
-0.37445
-0.361388
-0.348784
-0.335071
-0.320091
-0.303821
-0.286038
-0.266677
-0.244528
-0.214586
-0.397559
-0.378181
-0.361861
-0.345423
-0.328221
-0.310112
-0.290683
-0.269614
-0.245332
-0.212191
-0.42239
-0.396266
-0.375994
-0.356574
-0.336857
-0.31662
-0.295362
-0.272552
-0.246295
-0.214664
-0.448349
-0.4153
-0.390966
-0.368371
-0.345815
-0.323038
-0.299567
-0.275099
-0.249866
-0.232707
-0.474668
-0.434781
-0.406408
-0.380452
-0.354616
-0.328641
-0.302136
-0.27505
-0.248183
-0.22675
-0.500307
-0.453949
-0.421651
-0.392089
-0.362389
-0.332422
-0.30204
-0.271513
-0.241839
-0.21523
-0.523809
-0.471667
-0.435591
-0.402068
-0.367803
-0.333041
-0.298119
-0.263731
-0.231002
-0.20083
-0.543267
-0.486358
-0.446644
-0.408701
-0.369159
-0.32899
-0.289255
-0.251136
-0.215822
-0.183612
-0.556369
-0.496026
-0.452789
-0.40995
-0.364601
-0.318816
-0.274524
-0.23331
-0.196242
-0.163201
-0.560528
-0.498344
-0.451722
-0.403647
-0.352356
-0.301312
-0.253279
-0.210018
-0.17223
-0.139442
-0.553084
-0.490848
-0.44108
-0.387761
-0.330968
-0.275647
-0.22517
-0.18117
-0.143798
-0.112321
-0.531552
-0.471166
-0.418717
-0.360656
-0.29947
-0.241427
-0.190137
-0.146819
-0.110944
-0.0816284
-0.493894
-0.437302
-0.382982
-0.321299
-0.257483
-0.198717
-0.148425
-0.107215
-0.0737709
-0.0470134
-0.438775
-0.387894
-0.332956
-0.269397
-0.205224
-0.147977
-0.10059
-0.0628833
-0.0328137
-0.00916638
-0.365778
-0.322477
-0.268624
-0.205479
-0.14342
-0.0900029
-0.0474817
-0.0145219
0.0114009
0.0303632
-0.275564
-0.241701
-0.190807
-0.130822
-0.073313
-0.0261861
0.0100295
0.0370925
0.0579032
0.071458
-0.169882
-0.147272
-0.100889
-0.0467413
0.00286191
0.0420339
0.0705614
0.0907837
0.105571
0.113167
-0.0513333
-0.0409958
-0.00218673
0.0436009
0.0834459
0.112981
0.132728
0.145216
0.152856
0.15404
0.0759341
0.0732579
0.102375
0.137599
0.166067
0.184851
0.195151
0.199243
0.198854
0.193609
0.207558
0.191227
0.209141
0.23218
0.248204
0.255691
0.256333
0.251849
0.243429
0.238131
0.338484
0.308375
0.314134
0.324089
0.327236
0.323319
0.31429
0.301694
0.287292
0.278349
0.463406
0.419979
0.413331
0.410098
0.40061
0.3857
0.367442
0.347322
0.327277
0.312836
0.577096
0.521401
0.502862
0.487141
0.465932
0.440969
0.414375
0.387567
0.36227
0.342287
0.674683
0.608343
0.579193
0.55244
0.521035
0.487421
0.453717
0.421232
0.391324
0.366379
0.751916
0.677076
0.639288
0.603625
0.56408
0.523611
0.484311
0.447367
0.413764
0.384789
0.805393
0.724628
0.680743
0.638828
0.593614
0.5484
0.505238
0.465224
0.429046
0.397231
0.832741
0.748933
0.701895
0.656759
0.608637
0.560995
0.515864
0.474285
0.436785
0.403502
0.832741
0.748933
0.701895
0.656759
0.608637
0.560995
0.515864
0.474285
0.436785
0.403502
0.805393
0.724628
0.680743
0.638828
0.593614
0.548399
0.505238
0.465224
0.429046
0.397231
0.751916
0.677076
0.639288
0.603625
0.56408
0.523611
0.484311
0.447367
0.413764
0.384789
0.674683
0.608343
0.579193
0.55244
0.521035
0.48742
0.453717
0.421232
0.391324
0.366379
0.577096
0.521401
0.502862
0.487141
0.465932
0.440969
0.414375
0.387567
0.36227
0.342287
0.463406
0.419979
0.413331
0.410098
0.40061
0.3857
0.367442
0.347322
0.327277
0.312836
0.338484
0.308375
0.314134
0.324089
0.327236
0.323319
0.31429
0.301694
0.287292
0.278349
0.207558
0.191227
0.209141
0.23218
0.248204
0.255691
0.256333
0.251849
0.243429
0.238131
0.0759341
0.0732578
0.102375
0.137599
0.166067
0.184851
0.195151
0.199243
0.198854
0.193609
-0.0513334
-0.0409959
-0.0021868
0.0436009
0.0834459
0.112981
0.132728
0.145216
0.152856
0.15404
-0.169882
-0.147272
-0.100889
-0.0467414
0.00286184
0.0420338
0.0705614
0.0907836
0.105571
0.113167
-0.275564
-0.241701
-0.190807
-0.130822
-0.0733131
-0.0261862
0.0100294
0.0370925
0.0579031
0.0714579
-0.365778
-0.322477
-0.268624
-0.205479
-0.14342
-0.090003
-0.0474818
-0.014522
0.0114008
0.0303631
-0.438775
-0.387894
-0.332956
-0.269397
-0.205224
-0.147977
-0.10059
-0.0628834
-0.0328137
-0.00916648
-0.493894
-0.437302
-0.382982
-0.321299
-0.257483
-0.198717
-0.148425
-0.107216
-0.073771
-0.0470135
-0.531552
-0.471166
-0.418717
-0.360656
-0.29947
-0.241428
-0.190137
-0.146819
-0.110944
-0.0816285
-0.553084
-0.490848
-0.44108
-0.387761
-0.330968
-0.275647
-0.22517
-0.181171
-0.143798
-0.112321
-0.560528
-0.498344
-0.451723
-0.403647
-0.352356
-0.301312
-0.253279
-0.210018
-0.17223
-0.139442
-0.556369
-0.496026
-0.45279
-0.40995
-0.364601
-0.318816
-0.274524
-0.23331
-0.196242
-0.163201
-0.543267
-0.486359
-0.446644
-0.408701
-0.369159
-0.32899
-0.289256
-0.251136
-0.215822
-0.183612
-0.523809
-0.471667
-0.435591
-0.402068
-0.367803
-0.333041
-0.298119
-0.263731
-0.231002
-0.20083
-0.500307
-0.453949
-0.421651
-0.392089
-0.362389
-0.332422
-0.30204
-0.271513
-0.241839
-0.21523
-0.474668
-0.434781
-0.406408
-0.380452
-0.354616
-0.328641
-0.302136
-0.27505
-0.248183
-0.22675
-0.448349
-0.4153
-0.390966
-0.368371
-0.345815
-0.323039
-0.299567
-0.275099
-0.249867
-0.232707
-0.42239
-0.396266
-0.375994
-0.356574
-0.336857
-0.31662
-0.295362
-0.272552
-0.246295
-0.214664
-0.39756
-0.378181
-0.361861
-0.345423
-0.328221
-0.310112
-0.290683
-0.269614
-0.245332
-0.212191
-0.37445
-0.361388
-0.348784
-0.335071
-0.320091
-0.303822
-0.286038
-0.266677
-0.244528
-0.214586
-0.353637
-0.346296
-0.33697
-0.325639
-0.312553
-0.297825
-0.281446
-0.263511
-0.242968
-0.217115
-0.33571
-0.333348
-0.326731
-0.317348
-0.305797
-0.292307
-0.277083
-0.260362
-0.241432
-0.219732
-0.321429
-0.322957
-0.318487
-0.310571
-0.300173
-0.287616
-0.273301
-0.25762
-0.240373
-0.222267
-0.311443
-0.315676
-0.31266
-0.305724
-0.29607
-0.284167
-0.270492
-0.255607
-0.239775
-0.22424
-0.306296
-0.31192
-0.309637
-0.303193
-0.293923
-0.282333
-0.268994
-0.254555
-0.239507
-0.225302
-0.211898
-0.18336
-0.161609
-0.140894
-0.121799
-0.104744
-0.0896542
-0.0764208
-0.0649091
-0.0549475
-0.0463517
-0.0389425
-0.0325538
-0.027036
-0.0222588
-0.0181075
-0.0144922
-0.0113163
-0.00855561
-0.006041
-0.00401583
-0.00169983
-0.000913227
0.00299421
-0.214417
-0.184361
-0.162472
-0.141751
-0.122539
-0.105383
-0.0902131
-0.0769078
-0.0653326
-0.0553157
-0.0466715
-0.0392202
-0.0327947
-0.0272448
-0.0224397
-0.0182641
-0.0146275
-0.0114331
-0.00865588
-0.00612846
-0.00408856
-0.00177473
-0.000952895
0.00284563
-0.219126
-0.186372
-0.16407
-0.143359
-0.12395
-0.106611
-0.0912945
-0.0778579
-0.0661644
-0.0560426
-0.0473058
-0.0397726
-0.033275
-0.0276619
-0.0228014
-0.0185773
-0.0148981
-0.0116668
-0.00885648
-0.00630347
-0.00423382
-0.0019237
-0.00103297
0.00256212
-0.225326
-0.18938
-0.166204
-0.145521
-0.125902
-0.108336
-0.0928344
-0.0792273
-0.0673754
-0.0571091
-0.0482415
-0.0405908
-0.0339886
-0.028283
-0.0233407
-0.0190449
-0.0153024
-0.0120162
-0.00915629
-0.00656514
-0.00445053
-0.00214443
-0.00115395
0.00216899
-0.231885
-0.193238
-0.168641
-0.147956
-0.128195
-0.110419
-0.094729
-0.0809391
-0.0689087
-0.058473
-0.0494475
-0.041652
-0.0349186
-0.0290955
-0.0240487
-0.0196603
-0.0158356
-0.0124779
-0.00955275
-0.00691152
-0.00473678
-0.00243308
-0.00131543
0.00169938
-0.237126
-0.197323
-0.171087
-0.15035
-0.130592
-0.11271
-0.0968796
-0.082928
-0.0707237
-0.0601114
-0.0509131
-0.0429534
-0.0360674
-0.0301048
-0.0249316
-0.0204303
-0.0165041
-0.0130575
-0.0100504
-0.00734581
-0.00509455
-0.00278723
-0.00151782
0.00118821
-0.239337
-0.201307
-0.173877
-0.152945
-0.133284
-0.115411
-0.0994852
-0.0853779
-0.0729841
-0.0621653
-0.0527564
-0.0445913
-0.0375114
-0.0313703
-0.026035
-0.0213886
-0.0173324
-0.0137723
-0.0106608
-0.0078751
-0.00552742
-0.00320582
-0.00175875
0.000664945
-0.23634
-0.202625
-0.175501
-0.154492
-0.135249
-0.117696
-0.101865
-0.0877129
-0.0751936
-0.0642051
-0.0546065
-0.0462472
-0.0389791
-0.0326622
-0.0271664
-0.0223761
-0.0181904
-0.014518
-0.011301
-0.00843677
-0.00598536
-0.00365702
-0.00200669
0.000155182
-0.205485
-0.189243
-0.169131
-0.14988
-0.132267
-0.116003
-0.101041
-0.0874943
-0.0754098
-0.0647293
-0.0553381
-0.047107
-0.0399065
-0.033612
-0.028106
-0.0232837
-0.019049
-0.0153222
-0.012034
-0.00912053
-0.00656101
-0.00425478
-0.00233766
-0.000495139
-0.176878
-0.168815
-0.153096
-0.137244
-0.123003
-0.109666
-0.0969494
-0.0850665
-0.0742172
-0.0644419
-0.0556919
-0.0478945
-0.0409699
-0.0348349
-0.0294011
-0.0245881
-0.0203154
-0.0165221
-0.0131381
-0.0101313
-0.00743224
-0.00506053
-0.00289617
-0.00111546
-0.146931
-0.145664
-0.135086
-0.123725
-0.113071
-0.102595
-0.0921253
-0.0819721
-0.0724416
-0.0636598
-0.0556398
-0.0483599
-0.0417847
-0.0358693
-0.030556
-0.0257904
-0.0215084
-0.017669
-0.0142021
-0.0111047
-0.00826848
-0.00579967
-0.00340158
-0.00152819
-0.120986
-0.12432
-0.11846
-0.110865
-0.103273
-0.095341
-0.0869742
-0.0785088
-0.0702988
-0.0625313
-0.0552742
-0.0485511
-0.0423658
-0.0367086
-0.0315504
-0.0268617
-0.0225943
-0.0187263
-0.0151893
-0.0120042
-0.00903553
-0.00644469
-0.00382876
-0.0017842
-0.0993465
-0.105485
-0.103487
-0.0990862
-0.0940623
-0.0883155
-0.0818222
-0.0749107
-0.0679455
-0.0611532
-0.0546456
-0.0484841
-0.0427049
-0.0373278
-0.0323485
-0.0277598
-0.0235287
-0.01965
-0.0160593
-0.0127943
-0.00970594
-0.00698239
-0.00417661
-0.00192788
-0.0819034
-0.0896541
-0.0906055
-0.0888042
-0.0858493
-0.0818918
-0.076982
-0.0714251
-0.0655711
-0.0596655
-0.0538522
-0.0482225
-0.042838
-0.0377415
-0.0329495
-0.0284733
-0.0242936
-0.0204189
-0.0167907
-0.0134572
-0.0102671
-0.00741508
-0.00445139
-0.00200069
-0.0682907
-0.0768348
-0.0798807
-0.080092
-0.0787852
-0.0762554
-0.0726407
-0.0682224
-0.0633226
-0.058191
-0.0529931
-0.0478428
-0.0428209
-0.0379885
-0.0333781
-0.0290161
-0.0248953
-0.0210347
-0.017383
-0.0139939
-0.0107211
-0.00775502
-0.00466441
-0.00203611
-0.057885
-0.0667507
-0.0712203
-0.0729359
-0.0729077
-0.0714992
-0.0689149
-0.065421
-0.0613104
-0.0568285
-0.0521536
-0.0474159
-0.0427111
-0.0381134
-0.033668
-0.0294132
-0.0253519
-0.0215108
-0.017846
-0.0144141
-0.0110769
-0.00801645
-0.00482698
-0.00205516
-0.0501275
-0.0590833
-0.0644952
-0.0672958
-0.0682267
-0.0676717
-0.0658781
-0.0631035
-0.0596167
-0.055655
-0.0514032
-0.0470027
-0.0425597
-0.0381584
-0.0338535
-0.029692
-0.0256847
-0.0218645
-0.0181939
-0.0147307
-0.0113453
-0.00821174
-0.004948
-0.00206803
-0.0446205
-0.0535683
-0.0595817
-0.0631251
-0.0647358
-0.0647942
-0.0635736
-0.0613253
-0.0583006
-0.0547282
-0.0507955
-0.0466512
-0.042409
-0.0381596
-0.0339647
-0.0298773
-0.0259144
-0.0221128
-0.0184406
-0.0149559
-0.0115368
-0.00835045
-0.00503376
-0.00207769
-0.0410848
-0.0500008
-0.0563715
-0.060377
-0.0624211
-0.0628754
-0.0620263
-0.0601223
-0.0574024
-0.0540887
-0.0503694
-0.0463974
-0.0422908
-0.0381448
-0.0340253
-0.0299892
-0.0260576
-0.02227
-0.018598
-0.0151001
-0.0116599
-0.00843917
-0.00508949
-0.0020823
-0.039333
-0.048236
-0.0547799
-0.0590114
-0.0612679
-0.061916
-0.0612496
-0.0595159
-0.0569477
-0.053763
-0.0501505
-0.0462649
-0.0422266
-0.0381329
-0.0340517
-0.0300417
-0.0261265
-0.0223457
-0.0186752
-0.0151695
-0.0117217
-0.00848021
-0.00512215
-0.0020773
-0.209782
-0.172341
-0.134645
-0.106595
-0.0858309
-0.0697499
-0.0574122
-0.0480753
-0.0411376
-0.0362145
-0.0330447
-0.031445
-0.185479
-0.153677
-0.121592
-0.0962107
-0.0772787
-0.0624047
-0.0508172
-0.0420002
-0.035431
-0.0307503
-0.0277105
-0.0261456
-0.173603
-0.140775
-0.110968
-0.0865376
-0.0683843
-0.0544242
-0.0435818
-0.0353268
-0.0291766
-0.0247849
-0.0219141
-0.0204233
-0.159763
-0.125506
-0.0979095
-0.0756189
-0.0587485
-0.0458392
-0.0358183
-0.028161
-0.0224485
-0.0183639
-0.0156831
-0.0142925
-0.144604
-0.110635
-0.0845912
-0.0641978
-0.0485888
-0.0366793
-0.0274889
-0.0204669
-0.015227
-0.0114803
-0.00901937
-0.00775641
-0.126553
-0.0944261
-0.0702168
-0.0518218
-0.0377056
-0.0269146
-0.0186107
-0.0122699
-0.00753863
-0.00415875
-0.00194485
-0.000832002
-0.105842
-0.07691
-0.055058
-0.0386885
-0.0261518
-0.0165685
-0.0092059
-0.00359228
0.000591736
0.00357374
0.00551391
0.0064593
-0.0825807
-0.0577596
-0.0388258
-0.024707
-0.0138953
-0.0056453
0.000694698
0.00552585
0.00912152
0.0116747
0.0133177
0.0140839
-0.0566485
-0.0370278
-0.0213808
-0.0099609
-0.00103207
0.00577197
0.0110157
0.0150133
0.0179837
0.0200815
0.0214123
0.0219867
-0.0277556
-0.0148663
-0.00274636
0.00537284
0.0122879
0.0175568
0.0216483
0.0247731
0.027091
0.0287162
0.0297273
0.0300999
0.00321215
0.00867454
0.0164051
0.0215351
0.0261027
0.0297057
0.0325555
0.0347555
0.0363894
0.0375247
0.0382027
0.0383906
0.0358517
0.0334452
0.0360717
0.0379804
0.0401285
0.0420084
0.0435831
0.044835
0.0457704
0.0464089
0.0467546
0.0467768
0.0695353
0.0592289
0.0564015
0.0548672
0.0544881
0.054527
0.054734
0.0549727
0.0551704
0.0552929
0.0553055
0.0551817
0.10502
0.0877871
0.0791007
0.0734531
0.0699819
0.0677328
0.0662583
0.065281
0.0646195
0.0641601
0.0638165
0.0635567
0.143236
0.120581
0.105185
0.0943627
0.0869714
0.0818479
0.0782966
0.075846
0.0741646
0.0730303
0.0722909
0.0718915
0.175635
0.149413
0.128713
0.113575
0.102876
0.0952954
0.0899214
0.0861369
0.0835084
0.0817399
0.0806357
0.0801114
0.205616
0.178916
0.156862
0.139294
0.126151
0.116435
0.109223
0.103906
0.10007
0.0974172
0.0957512
0.0949512
0.230038
0.202037
0.180372
0.162999
0.149311
0.138679
0.130476
0.124224
0.11958
0.116294
0.114197
0.113182
0.232139
0.211496
0.193782
0.178702
0.166105
0.15578
0.147464
0.140907
0.135901
0.132286
0.129941
0.128784
0.230342
0.214758
0.200411
0.187619
0.176532
0.167139
0.159355
0.153072
0.148184
0.144601
0.142253
0.141093
0.225905
0.214425
0.203246
0.192813
0.183399
0.175133
0.168072
0.16223
0.157594
0.154145
0.15186
0.150721
0.222504
0.213474
0.204376
0.195602
0.187458
0.180133
0.173746
0.168369
0.164043
0.16079
0.158618
0.157533
0.219849
0.212359
0.204636
0.197016
0.18978
0.183138
0.177245
0.172213
0.168118
0.165011
0.162925
0.161876
0.218748
0.211896
0.204738
0.197595
0.190741
0.184396
0.178727
0.173859
0.169879
0.16685
0.164811
0.163789
0.253183
0.261119
0.250398
0.24314
0.234682
0.22925
0.225231
0.223572
0.279381
0.275336
0.259304
0.249209
0.239187
0.232998
0.228494
0.226682
0.300734
0.286688
0.266706
0.254244
0.243066
0.236309
0.231331
0.229469
0.319197
0.296834
0.273395
0.258794
0.246545
0.238867
0.233834
0.231902
0.334271
0.305153
0.278959
0.262559
0.249455
0.241367
0.235958
0.233932
0.34573
0.311514
0.283255
0.265459
0.251661
0.243192
0.237606
0.235507
0.353442
0.315829
0.286192
0.267444
0.253175
0.244434
0.238728
0.236581
0.357316
0.318011
0.287682
0.26845
0.253917
0.245061
0.239297
0.237125
0.357316
0.318011
0.287682
0.26845
0.253917
0.245061
0.239297
0.237125
0.353442
0.315829
0.286192
0.267444
0.253175
0.244434
0.238728
0.236581
0.34573
0.311514
0.283255
0.265459
0.251661
0.243192
0.237606
0.235507
0.334271
0.305153
0.278959
0.262559
0.249455
0.241367
0.235958
0.233932
0.319197
0.296834
0.273395
0.258794
0.246545
0.238867
0.233834
0.231902
0.300734
0.286688
0.266706
0.254244
0.243066
0.236309
0.231331
0.229469
0.279381
0.275336
0.259304
0.249209
0.239187
0.232998
0.228494
0.226682
0.253183
0.261119
0.250397
0.24314
0.234682
0.22925
0.225231
0.223571
0.205616
0.230038
0.232138
0.230341
0.225905
0.222504
0.219849
0.218748
0.178916
0.202037
0.211496
0.214757
0.214425
0.213474
0.212359
0.211896
0.156862
0.180372
0.193782
0.200411
0.203246
0.204376
0.204636
0.204738
0.139294
0.162999
0.178702
0.187619
0.192813
0.195602
0.197016
0.197595
0.12615
0.149311
0.166105
0.176532
0.183399
0.187458
0.18978
0.190741
0.116435
0.138679
0.15578
0.167139
0.175133
0.180133
0.183138
0.184396
0.109222
0.130476
0.147464
0.159355
0.168072
0.173746
0.177245
0.178727
0.103906
0.124224
0.140907
0.153072
0.16223
0.168369
0.172213
0.173859
0.10007
0.11958
0.135901
0.148184
0.157594
0.164043
0.168118
0.169879
0.0974171
0.116294
0.132286
0.144601
0.154145
0.16079
0.165011
0.16685
0.095751
0.114197
0.129941
0.142252
0.15186
0.158618
0.162924
0.164811
0.0949511
0.113182
0.128783
0.141092
0.15072
0.157533
0.161876
0.163789
0.175635
0.149413
0.128713
0.113575
0.102876
0.0952953
0.0899213
0.0861368
0.0835083
0.0817398
0.0806355
0.0801113
0.143236
0.120581
0.105185
0.0943626
0.0869713
0.0818478
0.0782964
0.0758458
0.0741645
0.0730302
0.0722908
0.0718914
0.10502
0.087787
0.0791006
0.073453
0.0699818
0.0677327
0.0662582
0.0652808
0.0646194
0.06416
0.0638164
0.0635566
0.0695352
0.0592288
0.0564014
0.0548671
0.0544879
0.0545268
0.0547339
0.0549726
0.0551703
0.0552928
0.0553053
0.0551816
0.0358516
0.0334451
0.0360716
0.0379803
0.0401284
0.0420083
0.043583
0.0448349
0.0457703
0.0464088
0.0467544
0.0467767
0.00321205
0.00867444
0.016405
0.021535
0.0261026
0.0297055
0.0325554
0.0347554
0.0363893
0.0375246
0.0382026
0.0383905
-0.0277557
-0.0148664
-0.00274647
0.00537273
0.0122878
0.0175567
0.0216482
0.024773
0.0270909
0.028716
0.0297272
0.0300997
-0.0566486
-0.0370279
-0.0213809
-0.00996101
-0.00103218
0.00577185
0.0110155
0.0150132
0.0179835
0.0200814
0.0214121
0.0219866
-0.0825808
-0.0577597
-0.0388259
-0.0247071
-0.0138954
-0.00564542
0.000694574
0.00552572
0.00912139
0.0116746
0.0133176
0.0140838
-0.105842
-0.0769101
-0.0550581
-0.0386886
-0.0261519
-0.0165686
-0.00920603
-0.00359241
0.000591607
0.00357361
0.00551377
0.00645917
-0.126553
-0.0944262
-0.0702169
-0.0518219
-0.0377057
-0.0269148
-0.0186108
-0.01227
-0.00753876
-0.00415888
-0.00194498
-0.000832134
-0.144604
-0.110635
-0.0845913
-0.0641979
-0.0485889
-0.0366794
-0.027489
-0.020467
-0.0152271
-0.0114804
-0.0090195
-0.00775654
-0.159763
-0.125506
-0.0979096
-0.075619
-0.0587486
-0.0458393
-0.0358184
-0.0281611
-0.0224486
-0.018364
-0.0156832
-0.0142926
-0.173603
-0.140775
-0.110968
-0.0865377
-0.0683844
-0.0544243
-0.0435819
-0.0353269
-0.0291767
-0.0247851
-0.0219142
-0.0204235
-0.185479
-0.153677
-0.121592
-0.0962108
-0.0772789
-0.0624049
-0.0508173
-0.0420003
-0.0354311
-0.0307504
-0.0277106
-0.0261457
-0.209782
-0.172341
-0.134645
-0.106596
-0.085831
-0.06975
-0.0574124
-0.0480755
-0.0411377
-0.0362147
-0.0330449
-0.0314451
-0.205485
-0.176878
-0.146931
-0.120986
-0.0993465
-0.0819035
-0.0682908
-0.0578851
-0.0501276
-0.0446206
-0.0410849
-0.0393331
-0.189243
-0.168815
-0.145664
-0.12432
-0.105485
-0.0896542
-0.0768349
-0.0667508
-0.0590834
-0.0535684
-0.0500009
-0.0482361
-0.169131
-0.153096
-0.135086
-0.11846
-0.103487
-0.0906056
-0.0798808
-0.0712204
-0.0644953
-0.0595818
-0.0563716
-0.05478
-0.14988
-0.137244
-0.123725
-0.110865
-0.0990863
-0.0888043
-0.0800921
-0.072936
-0.0672958
-0.0631252
-0.060377
-0.0590114
-0.132267
-0.123003
-0.113072
-0.103273
-0.0940624
-0.0858494
-0.0787852
-0.0729078
-0.0682267
-0.0647358
-0.0624212
-0.061268
-0.116003
-0.109666
-0.102595
-0.095341
-0.0883155
-0.0818918
-0.0762555
-0.0714993
-0.0676718
-0.0647942
-0.0628754
-0.0619161
-0.101041
-0.0969494
-0.0921253
-0.0869742
-0.0818222
-0.076982
-0.0726407
-0.068915
-0.0658782
-0.0635737
-0.0620263
-0.0612497
-0.0874943
-0.0850666
-0.0819721
-0.0785089
-0.0749107
-0.0714252
-0.0682225
-0.065421
-0.0631035
-0.0613254
-0.0601223
-0.0595159
-0.0754098
-0.0742173
-0.0724417
-0.0702989
-0.0679456
-0.0655711
-0.0633226
-0.0613104
-0.0596168
-0.0583007
-0.0574025
-0.0569477
-0.0647293
-0.0644419
-0.0636598
-0.0625314
-0.0611533
-0.0596655
-0.0581911
-0.0568286
-0.0556551
-0.0547282
-0.0540887
-0.0537631
-0.0553381
-0.0556919
-0.0556398
-0.0552742
-0.0546456
-0.0538522
-0.0529932
-0.0521537
-0.0514032
-0.0507955
-0.0503694
-0.0501505
-0.0471071
-0.0478945
-0.04836
-0.0485511
-0.0484841
-0.0482225
-0.0478428
-0.047416
-0.0470027
-0.0466513
-0.0463974
-0.0462649
-0.0399065
-0.04097
-0.0417847
-0.0423658
-0.0427049
-0.042838
-0.042821
-0.0427111
-0.0425597
-0.042409
-0.0422908
-0.0422267
-0.033612
-0.0348349
-0.0358693
-0.0367086
-0.0373278
-0.0377416
-0.0379886
-0.0381134
-0.0381584
-0.0381597
-0.0381449
-0.0381329
-0.028106
-0.0294012
-0.030556
-0.0315504
-0.0323485
-0.0329495
-0.0333781
-0.033668
-0.0338535
-0.0339647
-0.0340253
-0.0340517
-0.0232838
-0.0245881
-0.0257904
-0.0268617
-0.0277598
-0.0284733
-0.0290161
-0.0294133
-0.029692
-0.0298773
-0.0299892
-0.0300417
-0.0190491
-0.0203154
-0.0215084
-0.0225943
-0.0235287
-0.0242936
-0.0248954
-0.0253519
-0.0256847
-0.0259144
-0.0260577
-0.0261266
-0.0153222
-0.0165221
-0.017669
-0.0187263
-0.01965
-0.0204189
-0.0210347
-0.0215108
-0.0218645
-0.0221129
-0.02227
-0.0223458
-0.012034
-0.0131382
-0.0142021
-0.0151893
-0.0160593
-0.0167907
-0.017383
-0.0178461
-0.0181939
-0.0184406
-0.018598
-0.0186752
-0.00912054
-0.0101313
-0.0111047
-0.0120042
-0.0127943
-0.0134572
-0.0139939
-0.0144141
-0.0147307
-0.014956
-0.0151001
-0.0151695
-0.00656101
-0.00743225
-0.00826849
-0.00903554
-0.00970595
-0.0102671
-0.0107212
-0.0110769
-0.0113453
-0.0115368
-0.0116599
-0.0117217
-0.00425478
-0.00506053
-0.00579967
-0.00644469
-0.0069824
-0.00741509
-0.00775502
-0.00801645
-0.00821175
-0.00835046
-0.00843918
-0.00848022
-0.00233766
-0.00289617
-0.00340158
-0.00382876
-0.00417661
-0.00445139
-0.00466441
-0.00482698
-0.004948
-0.00503376
-0.00508949
-0.00512215
-0.000495138
-0.00111546
-0.00152819
-0.0017842
-0.00192788
-0.00200069
-0.00203611
-0.00205516
-0.00206803
-0.00207769
-0.0020823
-0.00207731
-0.23634
-0.202625
-0.175501
-0.154492
-0.135249
-0.117696
-0.101865
-0.0877129
-0.0751937
-0.0642052
-0.0546066
-0.0462472
-0.0389791
-0.0326622
-0.0271664
-0.0223761
-0.0181904
-0.014518
-0.011301
-0.00843678
-0.00598536
-0.00365702
-0.00200669
0.000155182
-0.239337
-0.201307
-0.173877
-0.152945
-0.133284
-0.115411
-0.0994852
-0.0853779
-0.0729841
-0.0621653
-0.0527564
-0.0445914
-0.0375114
-0.0313703
-0.026035
-0.0213886
-0.0173324
-0.0137723
-0.0106608
-0.0078751
-0.00552743
-0.00320583
-0.00175875
0.000664944
-0.237126
-0.197323
-0.171087
-0.15035
-0.130592
-0.11271
-0.0968796
-0.082928
-0.0707237
-0.0601114
-0.0509131
-0.0429534
-0.0360674
-0.0301048
-0.0249317
-0.0204303
-0.0165041
-0.0130575
-0.0100504
-0.00734581
-0.00509455
-0.00278724
-0.00151782
0.00118821
-0.231886
-0.193238
-0.168641
-0.147956
-0.128195
-0.110419
-0.094729
-0.0809391
-0.0689087
-0.058473
-0.0494475
-0.041652
-0.0349187
-0.0290956
-0.0240487
-0.0196603
-0.0158356
-0.0124779
-0.00955275
-0.00691152
-0.00473678
-0.00243308
-0.00131543
0.00169938
-0.225326
-0.18938
-0.166204
-0.145521
-0.125902
-0.108336
-0.0928344
-0.0792273
-0.0673754
-0.0571091
-0.0482415
-0.0405908
-0.0339887
-0.028283
-0.0233407
-0.0190449
-0.0153024
-0.0120162
-0.00915628
-0.00656514
-0.00445053
-0.00214443
-0.00115395
0.00216899
-0.219126
-0.186372
-0.16407
-0.143359
-0.12395
-0.106611
-0.0912945
-0.0778579
-0.0661644
-0.0560426
-0.0473058
-0.0397726
-0.033275
-0.0276619
-0.0228014
-0.0185773
-0.0148981
-0.0116668
-0.00885648
-0.00630347
-0.00423382
-0.0019237
-0.00103298
0.00256212
-0.214417
-0.184361
-0.162472
-0.141751
-0.122539
-0.105383
-0.0902131
-0.0769078
-0.0653327
-0.0553157
-0.0466716
-0.0392202
-0.0327947
-0.0272448
-0.0224397
-0.0182641
-0.0146275
-0.0114331
-0.00865588
-0.00612846
-0.00408856
-0.00177473
-0.000952896
0.00284563
-0.211898
-0.18336
-0.161609
-0.140894
-0.121799
-0.104744
-0.0896542
-0.0764208
-0.0649091
-0.0549475
-0.0463517
-0.0389425
-0.0325538
-0.027036
-0.0222588
-0.0181075
-0.0144922
-0.0113163
-0.00855561
-0.006041
-0.00401583
-0.00169983
-0.000913226
0.00299421
)
;

boundaryField
{
    inlet
    {
        type            zeroGradient;
    }
    outlet
    {
        type            fixedValue;
        value           uniform 0;
    }
    cylinder
    {
        type            zeroGradient;
    }
    top
    {
        type            symmetryPlane;
    }
    bottom
    {
        type            symmetryPlane;
    }
    defaultFaces
    {
        type            empty;
    }
}


// ************************************************************************* //
