/*--------------------------------*- C++ -*----------------------------------*\
  =========                 |
  \\      /  F ield         | OpenFOAM: The Open Source CFD Toolbox
   \\    /   O peration     | Website:  https://openfoam.org
    \\  /    A nd           | Version:  7
     \\/     M anipulation  |
\*---------------------------------------------------------------------------*/
FoamFile
{
    version     2.0;
    format      ascii;
    class       volVectorField;
    location    "20";
    object      U;
}
// * * * * * * * * * * * * * * * * * * * * * * * * * * * * * * * * * * * * * //

dimensions      [0 1 -1 0 0 0 0];

internalField   nonuniform List<vector> 
2304
(
(-0.0042823 0.00310183 -2.88863e-20)
(-0.0139296 0.00470537 -4.62142e-20)
(-0.0250762 0.00406125 1.60136e-20)
(-0.0322856 0.00231437 2.46447e-20)
(-0.0340754 -1.17366e-05 -7.41793e-20)
(-0.0301005 -0.00263418 -3.03673e-20)
(-0.0203235 -0.00536713 -8.78734e-20)
(-0.00502566 -0.00798902 3.1637e-20)
(0.0153533 -0.010058 3.08059e-20)
(0.0389743 -0.0105543 1.02726e-20)
(-0.0050585 0.0088594 -4.2115e-20)
(-0.013884 0.0132836 -3.97662e-20)
(-0.0222336 0.0112857 3.10093e-20)
(-0.0256214 0.00613953 8.91718e-20)
(-0.0229048 -0.000640266 7.47965e-20)
(-0.0139121 -0.00824452 1.07349e-19)
(0.00125738 -0.0161314 3.23003e-20)
(0.0222097 -0.0236926 -1.99323e-20)
(0.0485955 -0.0296829 9.15762e-21)
(0.0791525 -0.0310216 -1.57903e-20)
(-0.00634094 0.0133468 6.25939e-21)
(-0.0132872 0.0194789 4.34788e-20)
(-0.0160067 0.0159406 1.2092e-19)
(-0.0117969 0.007669 -5.49404e-20)
(-0.000173141 -0.0029968 1.17915e-19)
(0.0187024 -0.0147864 9.93266e-20)
(0.0444655 -0.0268898 9.16342e-20)
(0.0764287 -0.0384551 -5.77114e-20)
(0.114297 -0.0476269 -1.41501e-19)
(0.158217 -0.0492293 -4.17089e-20)
(-0.0076297 0.0159282 2.09432e-19)
(-0.0111744 0.0220715 2.88648e-19)
(-0.00534288 0.0167296 -5.78595e-20)
(0.0101543 0.00577946 -2.3983e-19)
(0.0348939 -0.00785015 -4.34892e-19)
(0.0682056 -0.0225313 -1.31383e-19)
(0.109299 -0.0373024 -1.88102e-20)
(0.156998 -0.0512546 -3.32658e-19)
(0.210719 -0.0622252 -1.76151e-19)
(0.273153 -0.0627591 6.81972e-20)
(-0.00825589 0.0162276 -1.95775e-20)
(-0.00621364 0.0203699 -1.86341e-19)
(0.0112696 0.0129525 -2.75271e-20)
(0.0416475 -3.0728e-05 -7.67232e-20)
(0.0833995 -0.0153529 -2.09312e-20)
(0.135153 -0.0311878 1.45774e-19)
(0.195483 -0.0465139 -6.06434e-20)
(0.262485 -0.0605633 -1.57985e-19)
(0.334678 -0.0713198 1.20206e-19)
(0.418238 -0.0684409 3.5977e-20)
(-0.00744037 0.0141892 2.40193e-19)
(0.00318685 0.0142977 9.47702e-20)
(0.0356549 0.00467288 2.91463e-19)
(0.0844052 -0.0094154 -1.49309e-19)
(0.146615 -0.0248045 -3.49259e-20)
(0.219956 -0.0396445 4.58756e-20)
(0.30205 -0.0529691 -2.95396e-19)
(0.389968 -0.064313 -1.90251e-19)
(0.480752 -0.0722737 1.52924e-19)
(0.583518 -0.0628626 1.17313e-19)
(-0.00439508 0.0100444 -6.97915e-19)
(0.0187191 0.00441357 -4.48193e-20)
(0.0697679 -0.00715802 -3.96411e-19)
(0.140176 -0.0210228 -1.72153e-19)
(0.225591 -0.0344682 -3.7315e-19)
(0.322382 -0.0458451 3.96986e-19)
(0.426779 -0.0544236 -2.21333e-19)
(0.534445 -0.0601354 7.83712e-21)
(0.640803 -0.0621512 -8.81716e-20)
(0.753983 -0.0438161 4.15233e-19)
(0.00164524 0.00426643 -3.70376e-19)
(0.0419896 -0.00806541 -2.73122e-19)
(0.115372 -0.0207073 -8.35929e-19)
(0.210268 -0.0325117 -4.12897e-20)
(0.320518 -0.0416452 7.46722e-20)
(0.440776 -0.0469964 -2.49656e-19)
(0.565483 -0.0483779 -5.66437e-19)
(0.688748 -0.046163 -1.20443e-19)
(0.804965 -0.0393001 -1.11241e-19)
(0.913377 -0.0155672 1.28947e-19)
(0.0113738 -0.00245445 2.44172e-19)
(0.0743099 -0.0213616 1.44289e-19)
(0.173627 -0.0333994 1.13028e-19)
(0.294938 -0.040765 -2.7586e-20)
(0.429925 -0.0430309 -5.53883e-19)
(0.571118 -0.0401053 -9.35285e-19)
(0.711036 -0.0327858 2.31666e-20)
(0.842768 -0.0220376 -1.80665e-19)
(0.961482 -0.00673968 -2.697e-19)
(1.0539 0.00655655 2.80377e-20)
(0.0253422 -0.00924811 -1.92339e-19)
(0.116468 -0.0332695 -2.13788e-19)
(0.244678 -0.0421619 -6.3646e-20)
(0.392842 -0.0423107 -1.21751e-19)
(0.550147 -0.0353147 -2.02952e-19)
(0.706782 -0.0226665 -2.51385e-19)
(0.853556 -0.00664285 2.5166e-19)
(0.983001 0.0105068 -1.8708e-19)
(1.09067 0.0274957 -2.69796e-19)
(1.17017 0.0333402 1.97422e-19)
(0.0438773 -0.0150977 1.22839e-19)
(0.168482 -0.041321 1.05046e-19)
(0.327316 -0.0437964 -1.04988e-19)
(0.500753 -0.0339161 -1.34759e-19)
(0.675411 -0.0159508 -4.23635e-20)
(0.839497 0.00657248 -2.88265e-19)
(0.983164 0.0297848 -6.07005e-20)
(1.09994 0.0504624 4.09746e-19)
(1.1874 0.0664057 1.83586e-19)
(1.24503 0.0715915 1.89469e-19)
(0.06699 -0.0188839 9.8558e-20)
(0.229406 -0.0430096 -5.8717e-20)
(0.418817 -0.0354252 -2.50242e-19)
(0.613664 -0.0132278 1.27404e-19)
(0.798501 0.0161221 4.31663e-19)
(0.960783 0.0469541 2.3141e-19)
(1.09192 0.0742316 -2.47275e-19)
(1.18849 0.0946434 9.44724e-20)
(1.25198 0.106644 -2.93107e-19)
(1.28647 0.108415 -1.75898e-19)
(0.0942782 -0.0194544 -2.19676e-19)
(0.297228 -0.0360629 9.13707e-20)
(0.515044 -0.0149328 2.64222e-19)
(0.725333 0.0207544 -2.46111e-19)
(0.911921 0.0602243 2.70263e-19)
(1.06356 0.0961498 1.80187e-19)
(1.17517 0.123353 2.36129e-19)
(1.2481 0.139635 2.49093e-19)
(1.28835 0.145245 -1.21294e-19)
(1.30359 0.141754 1.79557e-20)
(0.124863 -0.0157343 1.89281e-19)
(0.368907 -0.0187435 -3.20045e-19)
(0.610815 0.0186741 4.2788e-20)
(0.82915 0.0674821 -2.19389e-19)
(1.00915 0.114152 2.71252e-19)
(1.14329 0.150879 2.50315e-19)
(1.23188 0.173763 1.92975e-20)
(1.28162 0.182807 -7.36949e-20)
(1.30237 0.180568 -9.26273e-20)
(1.30363 0.170911 -5.8472e-20)
(0.15738 -0.00686715 -3.07653e-20)
(0.440575 0.00986289 1.81883e-19)
(0.700487 0.0650583 -4.64996e-20)
(0.919072 0.124968 1.19875e-19)
(1.08556 0.174707 -8.07995e-21)
(1.19826 0.207694 1.36748e-19)
(1.26376 0.222703 -3.86493e-20)
(1.29351 0.222578 -4.98721e-20)
(1.29976 0.212089 1.32288e-19)
(1.29217 0.196334 -4.2537e-20)
(0.19005 0.00763533 -5.00836e-20)
(0.507889 0.0496291 1.02279e-19)
(0.778632 0.12254 -2.08854e-20)
(0.990361 0.190132 4.72135e-20)
(1.1387 0.238295 -3.30624e-20)
(1.22908 0.263504 7.66786e-20)
(1.27402 0.268197 -5.34142e-20)
(1.28837 0.258117 -2.72768e-20)
(1.28513 0.239712 2.69826e-20)
(1.27296 0.218339 -1.6911e-20)
(0.220809 0.027764 4.73046e-20)
(0.566482 0.0992884 -9.6032e-20)
(0.840637 0.18827 -2.24545e-20)
(1.03997 0.259242 -4.01927e-20)
(1.16816 0.301392 3.09915e-20)
(1.23784 0.31578 -5.9284e-20)
(1.26629 0.308905 3.82829e-20)
(1.2701 0.288967 1.67835e-20)
(1.26172 0.263365 -1.96337e-20)
(1.24816 0.237064 1.19942e-20)
(0.247514 0.0529324 1.00307e-19)
(0.612426 0.156482 6.17497e-20)
(0.883143 0.258542 1.6433e-20)
(1.0666 0.328341 -3.5276e-20)
(1.17504 0.360805 5.6111e-21)
(1.22738 0.362538 -8.63828e-20)
(1.24401 0.343899 2.45565e-20)
(1.24179 0.314821 2.58517e-20)
(1.23165 0.282929 1.19226e-20)
(1.21887 0.252439 -1.22004e-20)
(0.268153 0.0819657 -1.85716e-20)
(0.642634 0.217944 3.09639e-20)
(0.904269 0.329159 -7.15147e-20)
(1.07048 0.393563 1.33573e-19)
(1.16146 0.413776 -3.13858e-20)
(1.20077 0.40222 -4.1284e-21)
(1.21023 0.372471 -4.80352e-23)
(1.20581 0.335411 1.12773e-20)
(1.1965 0.298357 -7.07242e-21)
(1.18591 0.26434 5.20578e-21)
(0.281076 0.113166 -4.10465e-20)
(0.655158 0.279783 -4.01859e-20)
(0.903655 0.395797 2.0421e-19)
(1.05314 0.451373 2.71897e-19)
(1.13015 0.457989 -1.4072e-19)
(1.16101 0.433559 -3.15821e-20)
(1.16757 0.393981 -2.71158e-20)
(1.16405 0.350339 -3.22726e-21)
(1.15748 0.309379 -5.42283e-21)
(1.15054 0.272464 6.82989e-21)
(0.285183 0.144445 -2.4338e-20)
(0.649382 0.337825 3.512e-20)
(0.882326 0.454313 9.28356e-20)
(1.01705 0.498746 -4.76181e-20)
(1.08411 0.491577 -9.27473e-20)
(1.11103 0.455507 4.03594e-21)
(1.1183 0.407797 -5.51169e-20)
(1.11802 0.359169 2.23215e-20)
(1.11561 0.315331 -8.44819e-20)
(1.11359 0.276378 -1.05274e-19)
(0.280061 0.173497 -2.45906e-19)
(0.626046 0.388011 -9.4463e-21)
(0.842328 0.500919 9.43906e-20)
(0.965151 0.533145 2.64756e-20)
(1.02665 0.513138 1.37886e-20)
(1.05367 0.467257 -3.757e-20)
(1.06445 0.413454 8.22536e-21)
(1.06914 0.361457 1.16912e-19)
(1.07192 0.31577 9.61354e-20)
(1.07559 0.275644 1.02274e-19)
(0.265967 0.19791 1.05981e-19)
(0.586879 0.426691 -3.2409e-20)
(0.786714 0.532717 -1.59178e-20)
(0.901092 0.552479 -1.82419e-20)
(0.961142 0.521508 -6.24565e-20)
(0.991488 0.468278 -8.66603e-20)
(1.00798 0.410574 1.23811e-19)
(1.01889 0.35688 -4.41406e-20)
(1.02771 0.31047 -1.71333e-19)
(1.03747 0.270515 -5.9894e-20)
(0.243861 0.215501 -8.93012e-20)
(0.534623 0.450595 -5.73631e-20)
(0.719385 0.54734 -8.97793e-20)
(0.828767 0.555558 -2.50417e-20)
(0.890737 0.516058 -2.46977e-19)
(0.926954 0.458168 -4.92589e-19)
(0.950717 0.398774 1.46939e-20)
(0.968781 0.344941 -1.41206e-19)
(0.984375 0.298837 -2.33404e-19)
(1.00004 0.261471 2.31134e-19)
(0.215394 0.224554 4.55503e-20)
(0.472979 0.457518 -1.36402e-19)
(0.644547 0.543301 -3.41728e-19)
(0.752016 0.541733 -1.83067e-20)
(0.81856 0.496612 2.94441e-20)
(0.862378 0.436853 -2.43813e-19)
(0.894326 0.377909 -1.79779e-19)
(0.920126 0.325291 -1.71726e-19)
(0.942975 0.279295 -7.99757e-20)
(0.961485 0.241231 2.80118e-19)
(0.182663 0.223811 1.09088e-19)
(0.4061 0.446201 -4.67629e-20)
(0.56661 0.52006 4.3698e-19)
(0.674689 0.511042 -1.95367e-19)
(0.747628 0.463474 -4.1675e-20)
(0.799979 0.404714 7.51807e-20)
(0.840454 0.348456 -5.95537e-19)
(0.873997 0.299079 9.30781e-20)
(0.903214 0.256523 -6.62753e-20)
(0.925445 0.221486 -5.817e-21)
(0.148095 0.212648 6.99882e-19)
(0.338341 0.416385 1.36253e-19)
(0.489981 0.477975 3.27064e-19)
(0.600497 0.464159 -2.00785e-19)
(0.680824 0.417342 -5.68443e-20)
(0.741955 0.362316 4.62489e-19)
(0.790736 0.310784 -4.69075e-20)
(0.831387 0.266085 -2.53921e-19)
(0.866037 0.227883 2.45801e-19)
(0.892655 0.196373 -1.49419e-19)
(0.114251 0.19113 -5.58417e-19)
(0.274006 0.368831 -8.39561e-20)
(0.418839 0.418266 2.13563e-19)
(0.532873 0.402368 1.25496e-19)
(0.62078 0.359336 -1.97568e-20)
(0.690317 0.310553 -1.74531e-19)
(0.746785 0.265632 2.50028e-19)
(0.793851 0.227045 -4.03633e-19)
(0.833501 0.194306 1.45288e-19)
(0.864728 0.167272 7.34917e-20)
(0.0836247 0.160007 8.68098e-20)
(0.217103 0.305268 1.27874e-19)
(0.35696 0.342939 1.38301e-19)
(0.474853 0.32752 -7.38603e-19)
(0.569793 0.290979 -2.7178e-19)
(0.646779 0.250619 -6.11729e-20)
(0.709892 0.213914 -4.29803e-20)
(0.762418 0.182613 -1.64383e-19)
(0.806407 0.15619 4.76564e-19)
(0.841859 0.134298 1.94876e-19)
(0.0584618 0.120667 2.47411e-19)
(0.171119 0.228283 1.70805e-19)
(0.307561 0.254694 -1.25256e-19)
(0.42899 0.241961 2.23127e-19)
(0.529789 0.214161 -3.41853e-19)
(0.612794 0.184005 8.63137e-21)
(0.681185 0.156821 -2.63319e-20)
(0.73801 0.13376 -6.58526e-20)
(0.785461 0.114355 -7.23273e-20)
(0.824386 0.098208 3.22505e-21)
(0.0405972 0.075037 -4.67223e-20)
(0.13884 0.141173 6.92007e-20)
(0.273171 0.156798 6.2487e-20)
(0.397276 0.148446 8.3798e-20)
(0.502264 0.131071 6.71637e-20)
(0.58949 0.112437 -1.76076e-19)
(0.661542 0.095734 -4.87003e-21)
(0.721333 0.0816123 -2.80849e-20)
(0.771191 0.0697515 -1.23577e-19)
(0.81258 0.0598449 -1.02814e-19)
(0.0313289 0.0254606 -1.55373e-20)
(0.122204 0.0477692 1.06983e-19)
(0.255532 0.0529382 1.35272e-19)
(0.381072 0.0500334 1.37776e-19)
(0.488242 0.0441241 7.96631e-20)
(0.577641 0.0378218 -5.79996e-20)
(0.651567 0.0321881 -1.67329e-19)
(0.712871 0.0274329 2.91183e-20)
(0.763961 0.0234423 -1.40055e-20)
(0.806628 0.0201021 3.37218e-20)
(0.0313289 -0.0254606 7.50003e-20)
(0.122204 -0.0477692 1.1231e-19)
(0.255532 -0.0529382 -3.72228e-20)
(0.381072 -0.0500334 -5.4211e-20)
(0.488242 -0.0441241 6.61649e-20)
(0.577641 -0.0378218 6.06315e-20)
(0.651567 -0.0321881 1.67329e-19)
(0.712871 -0.0274329 -5.93682e-20)
(0.763961 -0.0234423 -5.59034e-20)
(0.806628 -0.0201021 7.34511e-21)
(0.0405972 -0.075037 1.04926e-19)
(0.13884 -0.141173 8.06201e-20)
(0.273171 -0.156798 -6.90982e-20)
(0.397276 -0.148446 -1.553e-19)
(0.502264 -0.131071 -1.5248e-19)
(0.58949 -0.112437 -2.0345e-19)
(0.661542 -0.095734 1.36921e-19)
(0.721333 -0.0816123 -5.98157e-20)
(0.771191 -0.0697515 -1.44038e-20)
(0.81258 -0.0598449 -1.76306e-20)
(0.0584618 -0.120667 -2.54197e-20)
(0.171119 -0.228283 -1.18453e-19)
(0.307561 -0.254694 -2.37108e-19)
(0.42899 -0.241961 9.80831e-20)
(0.529789 -0.214161 -2.13048e-19)
(0.612794 -0.184005 1.95741e-19)
(0.681185 -0.156821 -1.62594e-19)
(0.73801 -0.13376 -1.03233e-20)
(0.785461 -0.114355 2.47096e-19)
(0.824386 -0.098208 1.7458e-19)
(0.0836247 -0.160007 -4.26464e-19)
(0.217103 -0.305268 -5.49317e-19)
(0.35696 -0.342939 1.32616e-19)
(0.474853 -0.32752 4.05351e-19)
(0.569793 -0.290979 7.56046e-19)
(0.646779 -0.250619 2.33668e-19)
(0.709892 -0.213914 9.98572e-20)
(0.762418 -0.182613 5.39416e-19)
(0.806407 -0.15619 -9.95106e-20)
(0.841859 -0.134298 -2.81141e-19)
(0.114251 -0.19113 6.48061e-20)
(0.274006 -0.368831 1.20698e-19)
(0.418839 -0.418266 -4.41819e-19)
(0.532873 -0.402368 1.37268e-19)
(0.62078 -0.359336 2.98532e-20)
(0.690317 -0.310553 -5.10491e-19)
(0.746785 -0.265632 -3.80389e-19)
(0.793851 -0.227045 2.22923e-19)
(0.833501 -0.194306 -5.49653e-19)
(0.864728 -0.167272 -5.73165e-20)
(0.148095 -0.212648 -2.06278e-19)
(0.338341 -0.416385 -1.72994e-19)
(0.489981 -0.477975 -9.88257e-20)
(0.600497 -0.464159 -6.19543e-20)
(0.680824 -0.417342 5.68443e-20)
(0.741955 -0.362316 5.8225e-19)
(0.790736 -0.310784 1.77255e-19)
(0.831387 -0.266085 2.53921e-19)
(0.866037 -0.227883 -2.18465e-19)
(0.892655 -0.196373 -4.44166e-20)
(0.182663 -0.223811 8.19218e-20)
(0.4061 -0.446201 2.22553e-19)
(0.56661 -0.52006 -5.32413e-20)
(0.674689 -0.511042 1.10805e-19)
(0.747628 -0.463474 1.66862e-19)
(0.799979 -0.404714 -7.51806e-20)
(0.840454 -0.348456 -2.28365e-19)
(0.873997 -0.299079 -1.42084e-20)
(0.903214 -0.256523 1.29489e-19)
(0.925445 -0.221486 3.66625e-20)
(0.215394 -0.224554 -3.48745e-20)
(0.472979 -0.457518 -3.93774e-20)
(0.644547 -0.543301 8.97666e-20)
(0.752016 -0.541733 -2.02969e-19)
(0.81856 -0.496612 -1.54614e-19)
(0.862378 -0.436853 2.18106e-19)
(0.894326 -0.377909 5.115e-19)
(0.920126 -0.325291 -1.0634e-19)
(0.942975 -0.279295 7.99757e-20)
(0.961485 -0.241231 -1.17308e-19)
(0.243861 -0.215501 -1.12378e-19)
(0.534623 -0.450595 3.66441e-20)
(0.719385 -0.54734 -4.19472e-20)
(0.828767 -0.555558 9.26248e-20)
(0.890737 -0.516058 2.46977e-19)
(0.926954 -0.458168 5.18293e-19)
(0.950717 -0.398774 -1.46939e-20)
(0.968781 -0.344941 1.07456e-20)
(0.984375 -0.298837 8.1047e-20)
(1.00004 -0.261471 -4.52501e-20)
(0.265967 -0.19791 4.04723e-20)
(0.586879 -0.426691 5.31268e-20)
(0.786714 -0.532717 -1.62592e-20)
(0.901092 -0.552479 1.82419e-20)
(0.961142 -0.521508 6.24565e-20)
(0.991488 -0.468278 4.94966e-20)
(1.00798 -0.410574 -1.23811e-19)
(1.01889 -0.35688 4.41406e-20)
(1.02771 -0.31047 1.29459e-19)
(1.03747 -0.270515 -1.25957e-19)
(0.280061 -0.173497 9.94553e-20)
(0.626046 -0.388011 -5.73031e-21)
(0.842328 -0.500919 -6.22174e-20)
(0.965151 -0.533145 -2.64756e-20)
(1.02665 -0.513138 -1.37886e-20)
(1.05367 -0.467257 3.75699e-20)
(1.06445 -0.413454 -8.22537e-21)
(1.06914 -0.361457 -1.16911e-19)
(1.07192 -0.31577 -9.61353e-20)
(1.07559 -0.275644 -1.02274e-19)
(0.285183 -0.144445 2.4338e-20)
(0.649382 -0.337825 -6.03851e-20)
(0.882326 -0.454313 -2.36203e-19)
(1.01705 -0.498746 3.56279e-20)
(1.08411 -0.491577 9.27473e-20)
(1.11103 -0.455507 -4.03597e-21)
(1.1183 -0.407797 5.51169e-20)
(1.11802 -0.359169 -2.23215e-20)
(1.11561 -0.315331 8.44818e-20)
(1.11359 -0.276378 1.05274e-19)
(0.281076 -0.113166 -1.5048e-19)
(0.655158 -0.279783 -4.80154e-20)
(0.903655 -0.395797 -2.04211e-19)
(1.05314 -0.451373 -1.25007e-19)
(1.13015 -0.457989 -6.97912e-20)
(1.16101 -0.433559 3.15821e-20)
(1.16757 -0.393981 2.71158e-20)
(1.16405 -0.350339 3.22735e-21)
(1.15748 -0.309379 5.42274e-21)
(1.15054 -0.272464 -6.82984e-21)
(0.268153 -0.0819657 1.39637e-19)
(0.642634 -0.217944 -2.48137e-19)
(0.904269 -0.329159 2.19738e-20)
(1.07048 -0.393563 -1.39299e-19)
(1.16146 -0.413776 3.13858e-20)
(1.20077 -0.40222 4.1284e-21)
(1.21023 -0.372471 4.80417e-23)
(1.20581 -0.335411 -1.12773e-20)
(1.1965 -0.298357 7.07238e-21)
(1.18591 -0.26434 -5.20578e-21)
(0.247514 -0.0529324 -2.9849e-20)
(0.612426 -0.156482 1.55415e-19)
(0.883143 -0.258542 -4.16787e-20)
(1.0666 -0.328341 1.04495e-19)
(1.17504 -0.360805 -5.6111e-21)
(1.22738 -0.362538 8.63829e-20)
(1.24401 -0.343899 -2.45565e-20)
(1.24179 -0.314821 -2.58517e-20)
(1.23165 -0.282929 7.27266e-21)
(1.21887 -0.252439 -4.10489e-21)
(0.220809 -0.027764 -4.73046e-20)
(0.566482 -0.0992884 9.60321e-20)
(0.840637 -0.18827 2.24545e-20)
(1.03997 -0.259242 4.01927e-20)
(1.16816 -0.301392 -3.09915e-20)
(1.23784 -0.31578 5.9284e-20)
(1.26629 -0.308905 -3.82829e-20)
(1.2701 -0.288967 -1.67835e-20)
(1.26172 -0.263365 1.96337e-20)
(1.24816 -0.237064 -1.19943e-20)
(0.19005 -0.00763533 5.00836e-20)
(0.507889 -0.0496291 -1.02279e-19)
(0.778632 -0.12254 2.08854e-20)
(0.990361 -0.190132 -4.72135e-20)
(1.1387 -0.238295 3.30624e-20)
(1.22908 -0.263504 -7.66786e-20)
(1.27402 -0.268197 5.34142e-20)
(1.28837 -0.258117 2.72768e-20)
(1.28513 -0.239712 -2.69826e-20)
(1.27296 -0.218339 5.92206e-22)
(0.15738 0.00686715 1.1514e-19)
(0.440575 -0.00986289 7.97898e-20)
(0.700487 -0.0650583 1.84263e-20)
(0.919072 -0.124968 -4.29195e-20)
(1.08556 -0.174707 8.07995e-21)
(1.19826 -0.207694 -1.36748e-19)
(1.26376 -0.222703 3.86494e-20)
(1.29351 -0.222578 4.98721e-20)
(1.29976 -0.212089 -8.30982e-20)
(1.29217 -0.196334 7.88993e-22)
(0.124863 0.0157343 -1.18902e-20)
(0.368907 0.0187435 5.83699e-20)
(0.610815 -0.0186741 -1.05363e-19)
(0.82915 -0.0674821 2.19389e-19)
(1.00915 -0.114152 -2.71252e-19)
(1.14329 -0.150879 -2.65675e-20)
(1.23188 -0.173763 -1.92975e-20)
(1.28162 -0.182807 7.36949e-20)
(1.30237 -0.180568 9.26274e-20)
(1.30363 -0.170911 5.84721e-20)
(0.0942782 0.0194544 -4.20914e-20)
(0.297228 0.0360629 -9.13707e-20)
(0.515044 0.0149328 5.95066e-20)
(0.725333 -0.0207544 2.74997e-19)
(0.911921 -0.0602243 -2.70263e-19)
(1.06356 -0.0961498 -4.03921e-19)
(1.17517 -0.123353 -2.36129e-19)
(1.2481 -0.139635 -2.49093e-19)
(1.28835 -0.145245 1.21294e-19)
(1.30359 -0.141754 -1.79557e-20)
(0.06699 0.0188839 -9.8558e-20)
(0.229406 0.0430096 9.48246e-20)
(0.418817 0.0354252 -7.34983e-20)
(0.613664 0.0132278 -1.56291e-19)
(0.798501 -0.0161221 -4.31663e-19)
(0.960783 -0.0469541 -2.3141e-19)
(1.09192 -0.0742316 2.47275e-19)
(1.18849 -0.0946434 -9.44725e-20)
(1.25198 -0.106644 2.93107e-19)
(1.28647 -0.108415 1.75898e-19)
(0.0438773 0.0150977 -7.68282e-19)
(0.168482 0.041321 -1.41155e-19)
(0.327316 0.0437964 3.63338e-19)
(0.500753 0.0339161 1.34759e-19)
(0.675411 0.0159508 4.23635e-20)
(0.839497 -0.00657248 2.88265e-19)
(0.983164 -0.0297848 6.07006e-20)
(1.09994 -0.0504624 -4.09746e-19)
(1.1874 -0.0664057 -1.83587e-19)
(1.24503 -0.0715915 -1.89469e-19)
(0.0253422 0.00924811 8.37786e-19)
(0.116468 0.0332695 -3.31998e-19)
(0.244678 0.0421619 1.89353e-19)
(0.392842 0.0423107 5.01855e-20)
(0.550147 0.0353147 2.02952e-19)
(0.706782 0.0226665 2.51385e-19)
(0.853556 0.00664285 -2.5166e-19)
(0.983001 -0.0105068 1.8708e-19)
(1.09067 -0.0274957 2.69796e-19)
(1.17017 -0.0333402 4.71491e-20)
(0.0113738 0.00245445 3.75247e-19)
(0.0743099 0.0213616 7.82234e-20)
(0.173627 0.0333994 1.16394e-19)
(0.294938 0.040765 2.75861e-20)
(0.429925 0.0430309 5.53883e-19)
(0.571118 0.0401053 9.35285e-19)
(0.711036 0.0327858 -2.31666e-20)
(0.842768 0.0220376 1.80665e-19)
(0.961482 0.00673968 2.697e-19)
(1.0539 -0.00655655 -2.72694e-19)
(0.00164524 -0.00426643 -2.49048e-19)
(0.0419896 0.00806541 1.0168e-20)
(0.115372 0.0207073 5.11772e-19)
(0.210268 0.0325117 4.12897e-20)
(0.320518 0.0416452 -7.46722e-20)
(0.440776 0.0469964 2.49656e-19)
(0.565483 0.0483779 2.26381e-19)
(0.688748 0.046163 1.97524e-19)
(0.804965 0.0393001 1.11241e-19)
(0.913377 0.0155672 -2.62356e-19)
(-0.00439508 -0.0100444 1.86822e-19)
(0.0187191 -0.00441357 2.77249e-19)
(0.0697679 0.00715802 1.74327e-20)
(0.140176 0.0210228 1.10915e-19)
(0.225591 0.0344682 1.91069e-19)
(0.322382 0.0458451 -8.59803e-20)
(0.426779 0.0544236 5.61449e-19)
(0.534445 0.0601354 -8.49321e-20)
(0.640803 0.0621512 1.00252e-19)
(0.753983 0.0438161 -2.81806e-19)
(-0.00744037 -0.0141892 -7.44663e-20)
(0.00318685 -0.0142977 -3.27206e-19)
(0.0356549 -0.00467289 8.75374e-20)
(0.0844052 0.0094154 2.10553e-19)
(0.146615 0.0248045 2.1703e-19)
(0.219956 0.0396445 -3.56931e-19)
(0.30205 0.0529691 4.73266e-20)
(0.389968 0.064313 1.90251e-19)
(0.480752 0.0722737 -3.1445e-19)
(0.583518 0.0628626 -4.15204e-19)
(-0.00825589 -0.0162276 3.6495e-19)
(-0.00621364 -0.0203699 8.00759e-20)
(0.0112696 -0.0129525 -2.89955e-19)
(0.0416475 3.07255e-05 9.96459e-20)
(0.0833995 0.0153529 1.46136e-20)
(0.135153 0.0311878 -3.54471e-19)
(0.195483 0.0465139 -4.16273e-21)
(0.262485 0.0605633 1.06824e-19)
(0.334678 0.0713198 -1.00914e-19)
(0.418238 0.0684409 2.52209e-19)
(-0.0076297 -0.0159282 -5.29903e-20)
(-0.0111744 -0.0220715 3.27224e-20)
(-0.00534288 -0.0167296 2.31996e-19)
(0.0101543 -0.00577946 3.97733e-19)
(0.0348939 0.00785015 1.65483e-19)
(0.0682056 0.0225313 2.41309e-19)
(0.109299 0.0373024 3.31778e-19)
(0.156998 0.0512546 1.00124e-19)
(0.210719 0.0622252 1.45131e-19)
(0.273153 0.0627591 -1.74198e-20)
(-0.00634094 -0.0133468 -1.14888e-19)
(-0.0132872 -0.0194789 -9.04791e-20)
(-0.0160067 -0.0159406 6.61338e-20)
(-0.0117969 -0.00766901 -1.19921e-19)
(-0.000173142 0.00299679 1.88959e-19)
(0.0187024 0.0147864 -5.1742e-22)
(0.0444655 0.0268897 -1.91817e-20)
(0.0764287 0.0384551 1.0707e-19)
(0.114297 0.0476269 7.31278e-20)
(0.158217 0.0492292 7.95769e-22)
(-0.0050585 -0.0088594 1.67225e-20)
(-0.013884 -0.0132836 -3.49811e-20)
(-0.0222336 -0.0112857 -3.05989e-20)
(-0.0256214 -0.00613953 -3.4523e-20)
(-0.0229048 0.000640262 1.72075e-20)
(-0.0139121 0.00824452 -1.06007e-19)
(0.00125738 0.0161314 3.27684e-22)
(0.0222097 0.0236926 6.98741e-20)
(0.0485955 0.0296829 6.99169e-20)
(0.0791525 0.0310216 2.28766e-20)
(-0.0042823 -0.00310183 6.46512e-21)
(-0.0139296 -0.00470537 -4.71488e-20)
(-0.0250762 -0.00406125 -6.01132e-20)
(-0.0322856 -0.00231438 -6.38811e-20)
(-0.0340754 1.17329e-05 2.70159e-21)
(-0.0301005 0.00263418 2.90252e-20)
(-0.0203235 0.00536712 -1.72182e-20)
(-0.00502566 0.00798901 -1.52363e-20)
(0.0153533 0.010058 7.80942e-21)
(0.0389743 0.0105543 -3.29103e-20)
(0.0635814 -0.00658128 -2.01507e-21)
(0.0823781 -0.00757647 -6.27224e-21)
(0.11218 -0.0081385 -1.7548e-21)
(0.141734 -0.00838331 -3.43957e-21)
(0.17213 -0.00855664 -3.89879e-21)
(0.203284 -0.00858603 -4.67425e-21)
(0.234457 -0.00846403 1.66962e-21)
(0.265128 -0.00822656 2.86116e-21)
(0.29494 -0.00790833 6.39977e-22)
(0.323636 -0.00753881 -3.51058e-22)
(0.351057 -0.00714207 -1.90088e-21)
(0.377119 -0.00673626 2.98117e-22)
(0.401798 -0.00633421 6.10747e-22)
(0.42511 -0.00594449 -3.12441e-22)
(0.447093 -0.0055728 -6.12556e-22)
(0.467815 -0.00522201 -4.42429e-22)
(0.487324 -0.00489474 -9.46387e-23)
(0.505754 -0.0045893 -1.01252e-22)
(0.523031 -0.00431086 -7.84229e-23)
(0.539628 -0.00404515 -1.84063e-23)
(0.554605 -0.00382355 3.511e-24)
(0.570589 -0.00356229 -2.25616e-23)
(0.581269 -0.00344931 -1.44557e-24)
(0.602508 -0.00305061 8.76358e-24)
(0.106094 -0.0194441 -1.71899e-20)
(0.121335 -0.0222576 2.02013e-20)
(0.149784 -0.0239804 3.04164e-20)
(0.178078 -0.0247446 5.55258e-21)
(0.207002 -0.0252565 5.52491e-21)
(0.236611 -0.0253332 4.96921e-21)
(0.266168 -0.0249615 4.96024e-21)
(0.295179 -0.024251 8.71549e-21)
(0.323327 -0.0233057 4.68813e-21)
(0.350389 -0.0222125 -3.00419e-21)
(0.376231 -0.0210417 1.28308e-21)
(0.400785 -0.0198462 2.75669e-21)
(0.424036 -0.018663 -8.00124e-22)
(0.446003 -0.0175168 -2.08818e-21)
(0.466727 -0.0164243 -2.17781e-21)
(0.486272 -0.0153935 -4.83742e-22)
(0.504684 -0.0144321 1.1259e-21)
(0.522092 -0.0135348 3.34142e-22)
(0.538418 -0.0127176 2.26744e-22)
(0.554129 -0.0119367 1.634e-22)
(0.56829 -0.0112882 1.97323e-23)
(0.583484 -0.01052 -1.86701e-23)
(0.593554 -0.010191 -7.44262e-24)
(0.613836 -0.00903264 -1.17475e-23)
(0.188345 -0.0312224 -5.55432e-20)
(0.197102 -0.0355283 2.58347e-20)
(0.222555 -0.0384987 5.90159e-20)
(0.248287 -0.0398728 4.04685e-20)
(0.27426 -0.040711 9.99406e-22)
(0.300766 -0.040808 -7.44808e-21)
(0.327116 -0.0401779 3.69405e-21)
(0.352864 -0.0390082 1.37105e-21)
(0.37777 -0.0374699 -5.94593e-21)
(0.401674 -0.035703 -2.10857e-21)
(0.42448 -0.0338187 -7.81725e-22)
(0.446148 -0.0318996 -1.77675e-21)
(0.466675 -0.0300035 3.8076e-21)
(0.486087 -0.0281689 1.46986e-21)
(0.50442 -0.0264214 1.20851e-21)
(0.521734 -0.0247731 1.06796e-21)
(0.538069 -0.0232371 3.54799e-22)
(0.553543 -0.0218028 3.10411e-22)
(0.56807 -0.0204995 3.4045e-22)
(0.582103 -0.0192502 5.39736e-22)
(0.594724 -0.0182216 2.42592e-22)
(0.608417 -0.0169917 2.73191e-23)
(0.617344 -0.0164747 -2.39427e-23)
(0.635803 -0.0146637 1.95284e-23)
(0.304934 -0.0406577 9.12222e-20)
(0.305398 -0.0464633 1.6733e-20)
(0.325883 -0.0507854 -5.41564e-20)
(0.347631 -0.0529062 -4.20939e-20)
(0.369154 -0.0540824 -6.92897e-21)
(0.390993 -0.0541798 -3.77629e-20)
(0.412597 -0.0533019 -3.30424e-20)
(0.433603 -0.0517189 -3.37305e-20)
(0.453869 -0.0496621 -1.89172e-20)
(0.473304 -0.0473156 -1.42797e-20)
(0.491857 -0.0448237 -1.30156e-20)
(0.509511 -0.042292 -3.32582e-21)
(0.526272 -0.0397947 4.54861e-22)
(0.542163 -0.0373803 1.6714e-22)
(0.557214 -0.035082 -9.84261e-22)
(0.571473 -0.0329146 -2.59752e-21)
(0.584965 -0.0308965 -2.44946e-21)
(0.597796 -0.0290106 -1.11026e-21)
(0.609869 -0.0273023 -2.49542e-22)
(0.62161 -0.0256576 3.74755e-22)
(0.632135 -0.0243201 5.38918e-23)
(0.643767 -0.0227001 -2.09103e-23)
(0.651153 -0.0220365 -7.16613e-23)
(0.66709 -0.0197323 3.02696e-23)
(0.448012 -0.0460095 4.86119e-21)
(0.439872 -0.0541781 1.25784e-19)
(0.453391 -0.0599465 3.00296e-20)
(0.469522 -0.0629369 3.60423e-21)
(0.485047 -0.0645094 -8.09584e-21)
(0.500681 -0.0646345 -1.39498e-20)
(0.516118 -0.0635759 -9.21192e-22)
(0.531117 -0.061689 1.70222e-20)
(0.545623 -0.0592503 -2.45705e-21)
(0.559603 -0.0564763 -2.12962e-20)
(0.57303 -0.0535349 -1.73205e-20)
(0.585892 -0.0505481 2.51511e-22)
(0.598189 -0.047602 9.22355e-21)
(0.60993 -0.0447528 3.33814e-21)
(0.621127 -0.0420403 7.60978e-22)
(0.631809 -0.0394806 8.01116e-22)
(0.641981 -0.0370986 -9.54869e-22)
(0.651727 -0.0348694 6.17642e-22)
(0.660941 -0.032858 2.05239e-21)
(0.670006 -0.0309102 2.94564e-22)
(0.678102 -0.0293507 1.62324e-22)
(0.687309 -0.0274328 -1.27411e-22)
(0.692939 -0.0266713 2.59599e-23)
(0.705882 -0.0240607 -5.71383e-23)
(0.6076 -0.045442 -3.0309e-20)
(0.592419 -0.0576961 -8.75013e-20)
(0.597362 -0.0650128 -9.82129e-20)
(0.605944 -0.0689972 -4.51094e-20)
(0.613847 -0.0711138 8.44676e-21)
(0.621864 -0.0714136 -1.68571e-20)
(0.629969 -0.0703601 3.4531e-21)
(0.638043 -0.0683837 1.86517e-20)
(0.646074 -0.0657884 -2.3482e-21)
(0.654037 -0.0628108 -6.46224e-21)
(0.661893 -0.0596342 5.50417e-21)
(0.669604 -0.0563934 1.23057e-21)
(0.677142 -0.0531846 -9.46959e-21)
(0.684485 -0.0500717 -4.32361e-21)
(0.691618 -0.0471012 2.87224e-21)
(0.698538 -0.0442918 2.61582e-21)
(0.705229 -0.0416765 -6.37353e-22)
(0.711743 -0.0392227 -9.85107e-22)
(0.717971 -0.0370179 1.12825e-22)
(0.72423 -0.0348678 1.33165e-21)
(0.729806 -0.0331769 2.0584e-22)
(0.736445 -0.031063 -1.54031e-22)
(0.740293 -0.0302526 -9.35263e-23)
(0.750031 -0.0275204 -5.24918e-24)
(0.773061 -0.0385746 -2.50199e-20)
(0.754038 -0.0569026 -1.20126e-19)
(0.748989 -0.0657614 -1.10153e-19)
(0.747747 -0.0708337 -1.77433e-20)
(0.746445 -0.0736767 1.27327e-19)
(0.745792 -0.0744115 5.3245e-20)
(0.745891 -0.0736557 1.42535e-20)
(0.746658 -0.071878 9.50102e-21)
(0.748036 -0.0693946 -2.68053e-20)
(0.749938 -0.0664553 1.4065e-20)
(0.752262 -0.0632584 -2.70911e-21)
(0.754913 -0.0599537 -1.60292e-20)
(0.757813 -0.0566512 1.99707e-21)
(0.760894 -0.0534254 7.57597e-21)
(0.764105 -0.0503328 4.43627e-22)
(0.767406 -0.0473969 9.61303e-22)
(0.770758 -0.0446607 -5.10105e-22)
(0.774175 -0.0420858 1.5307e-21)
(0.777552 -0.0397826 2.06595e-21)
(0.781119 -0.0375215 9.07954e-22)
(0.784313 -0.0357758 3.30151e-23)
(0.788455 -0.0335638 1.44633e-23)
(0.79067 -0.0327427 6.76273e-23)
(0.79725 -0.0300447 3.7235e-24)
(0.937667 -0.0283313 3.1229e-20)
(0.915868 -0.0509779 7.25842e-20)
(0.898442 -0.0608724 -4.09526e-20)
(0.884982 -0.0673711 -8.0976e-20)
(0.87338 -0.071482 2.89079e-20)
(0.863766 -0.0732561 -1.80022e-21)
(0.855976 -0.0733186 -1.36685e-20)
(0.849776 -0.0721551 2.49682e-20)
(0.844956 -0.0701147 -6.39372e-21)
(0.841301 -0.0674811 -9.6551e-21)
(0.838608 -0.0644841 -6.32946e-21)
(0.836706 -0.061301 -1.26139e-20)
(0.835455 -0.058065 -3.43625e-21)
(0.834739 -0.054868 4.7545e-21)
(0.834468 -0.051781 -3.48318e-21)
(0.834565 -0.0488353 -6.3908e-21)
(0.83497 -0.0460852 1.79843e-22)
(0.835652 -0.04349 4.95537e-22)
(0.83653 -0.0411784 -8.46768e-23)
(0.837719 -0.0389007 -2.59083e-22)
(0.838854 -0.0371659 2.09521e-22)
(0.840752 -0.0349671 3.37971e-22)
(0.841625 -0.0341484 -6.0312e-25)
(0.845312 -0.0316301 -1.62203e-23)
(1.15737 0.0041422 0)
(1.11351 -0.0208747 0)
(1.07669 -0.0360511 0)
(1.04778 -0.0475617 0)
(1.02488 -0.0555042 0)
(1.00616 -0.0603489 -2.96253e-28)
(0.990569 -0.0629042 -2.96254e-28)
(0.977519 -0.0637906 0)
(0.966578 -0.0634428 0)
(0.957376 -0.0621965 0)
(0.949605 -0.0603274 0)
(0.943015 -0.0580565 0)
(0.937413 -0.0555573 0)
(0.932637 -0.0529549 0)
(0.928567 -0.0503511 0)
(0.925089 -0.0477996 0)
(0.922137 -0.0453785 0)
(0.919623 -0.043059 0)
(0.917525 -0.0409861 0)
(0.91578 -0.0389276 0)
(0.914366 -0.0373641 0)
(0.913319 -0.0354228 0)
(0.91247 -0.0346349 0)
(0.912218 -0.0326138 0)
(1.25648 0.0360551 0)
(1.23282 0.00979151 0)
(1.20522 -0.0103129 0)
(1.17985 -0.0255451 0)
(1.15762 -0.0365416 0)
(1.13775 -0.0440084 0)
(1.11982 -0.0487546 0)
(1.10376 -0.0514691 0)
(1.0895 -0.0526681 0)
(1.07685 -0.0527448 0)
(1.06561 -0.0520142 0)
(1.05561 -0.0507261 0)
(1.04668 -0.049078 0)
(1.03868 -0.0472145 0)
(1.0315 -0.0452557 0)
(1.02501 -0.0432706 0)
(1.01918 -0.0413489 0)
(1.01385 -0.0394819 0)
(1.0091 -0.0378011 0)
(1.00465 -0.0361462 0)
(1.00091 -0.0348613 0)
(0.996997 -0.0333989 0)
(0.99456 -0.0326819 0)
(0.990286 -0.0314073 0)
(1.28326 0.048768 0)
(1.27361 0.0245283 0)
(1.25734 0.00534693 0)
(1.24064 -0.00947588 0)
(1.22467 -0.0207355 0)
(1.20918 -0.0290199 8.1733e-28)
(1.19418 -0.0348469 8.1733e-28)
(1.17993 -0.0387085 0)
(1.16663 -0.0410324 0)