/*--------------------------------*- C++ -*----------------------------------*\
  =========                 |
  \\      /  F ield         | OpenFOAM: The Open Source CFD Toolbox
   \\    /   O peration     | Website:  https://openfoam.org
    \\  /    A nd           | Version:  7
     \\/     M anipulation  |
\*---------------------------------------------------------------------------*/
FoamFile
{
    version     2.0;
    format      ascii;
    class       surfaceScalarField;
    location    "15";
    object      phi;
}
// * * * * * * * * * * * * * * * * * * * * * * * * * * * * * * * * * * * * * //

dimensions      [0 3 -1 0 0 0 0];

internalField   nonuniform List<scalar> 
1665
(
0.00136006
-5.24766e-06
5.3744e-09
0.00136526
-5.20678e-06
5.66139e-09
0.00137042
-5.16665e-06
5.9504e-09
0.00137554
-5.12725e-06
6.22576e-09
-5.08854e-06
6.48892e-09
0.00136078
-1.04838e-05
0.00136598
-1.04019e-05
0.00137113
-1.03215e-05
0.00137625
-1.02426e-05
-1.0165e-05
0.00136222
-1.57078e-05
0.0013674
-1.55851e-05
0.00137254
-1.54647e-05
0.00137765
-1.53465e-05
-1.52304e-05
0.00136436
-2.09137e-05
0.00136952
-2.07507e-05
0.00137465
-2.05906e-05
0.00137974
-2.04335e-05
-2.02792e-05
0.00136719
-2.60958e-05
0.00137233
-2.58929e-05
0.00137744
-2.56937e-05
0.0013825
-2.54982e-05
0.00138753
-2.53063e-05
-2.51178e-05
0.00137069
-3.12487e-05
0.00137581
-3.10066e-05
0.00138088
-3.07689e-05
0.00138592
-3.05356e-05
0.00139092
-3.03065e-05
-3.00816e-05
0.00137484
-3.63673e-05
0.00137992
-3.60867e-05
0.00138497
-3.58111e-05
0.00138997
-3.55407e-05
0.00139494
-3.52753e-05
-3.50147e-05
0.00137961
-4.1447e-05
0.00138466
-4.11286e-05
0.00138966
-4.08161e-05
0.00139463
-4.05094e-05
0.00139956
-4.02083e-05
-3.99129e-05
0.00138497
-4.64835e-05
0.00138997
-4.61284e-05
0.00139493
-4.57798e-05
0.00139986
-4.54377e-05
0.00140476
-4.51019e-05
-4.47725e-05
0.00139088
-5.14731e-05
0.00139583
-5.10823e-05
0.00140075
-5.06986e-05
0.00140563
-5.03221e-05
0.00141048
-4.99527e-05
-4.95904e-05
0.00139729
-5.64127e-05
0.0014022
-5.59872e-05
0.00140707
-5.55697e-05
0.0014119
-5.51599e-05
0.00141671
-5.4758e-05
-5.43637e-05
0.00140417
0.00140903
-6.08409e-05
0.00141385
-6.03906e-05
0.00141863
-5.99488e-05
0.00142339
-5.95155e-05
-5.90905e-05
0.00141627
-6.56415e-05
0.00142104
-6.51597e-05
0.00142578
-6.46872e-05
0.00143049
-6.42236e-05
-6.37691e-05
0.00142389
-7.03879e-05
0.0014286
-6.9876e-05
0.00143329
-6.9374e-05
0.00143795
-6.88816e-05
-6.83989e-05
0.00143182
-7.50796e-05
0.00143648
-7.45391e-05
0.00144111
-7.4009e-05
0.00144572
-7.34891e-05
-7.29794e-05
0.00144001
-7.9717e-05
0.00144462
-7.91493e-05
0.00144921
-7.85926e-05
0.00145376
-7.80466e-05
-7.75114e-05
0.00144841
-8.4301e-05
0.00145297
-8.37077e-05
0.00145751
-8.31258e-05
0.00146201
-8.25552e-05
-8.19959e-05
0.00145697
-8.88334e-05
0.00146148
-8.8216e-05
0.00146596
-8.76105e-05
0.00147042
-8.70168e-05
-8.64349e-05
0.00146562
-9.33168e-05
0.00147008
-9.26768e-05
0.00147452
-9.20492e-05
0.00147894
-9.14338e-05
0.00148333
-9.08308e-05
-9.02399e-05
0.00147431
-9.77543e-05
0.00147872
-9.70932e-05
0.00148312
-9.6445e-05
0.00148749
-9.58096e-05
0.00149185
-9.5187e-05
-9.45769e-05
0.00148297
0.00148735
-0.000101469
0.0014917
-0.000100802
0.00149604
-0.000100148
0.00150036
-9.95074e-05
-9.88797e-05
0.0014959
-0.00010581
0.00150022
-0.000105125
0.00150453
-0.000104454
0.00150882
-0.000103797
-0.000103153
0.00150431
-0.000110121
0.00150861
-0.00010942
0.00151289
-0.000108733
0.00151715
-0.000108061
-0.000107402
0.00151254
-0.000114407
0.00151682
-0.000113692
0.00152107
-0.000112992
0.00152532
-0.000112305
-0.000111633
0.00152053
-0.000118677
0.00152479
-0.000117949
0.00152903
-0.000117235
0.00153326
-0.000116537
-0.000115853
0.00152822
-0.000122936
0.00153247
-0.000122197
0.00153671
-0.000121472
0.00154093
-0.000120763
-0.000120069
0.00153556
-0.000127194
0.00153981
-0.000126444
0.00154405
-0.00012571
0.00154828
-0.000124992
0.00155249
-0.000124289
-0.000123601
0.0015425
0.00154676
-0.0001307
0.00155101
-0.000129957
0.00155524
-0.000129231
0.00155948
-0.00012852
-0.000127825
0.00155327
-0.000134972
0.00155753
-0.000134223
0.00156179
-0.00013349
0.00156604
-0.000132773
-0.000132071
0.00155929
-0.000139271
0.00156359
-0.000138516
0.00156787
-0.000137777
0.00157216
-0.000137055
-0.000136349
0.00405822
-0.000144893
0.00406384
-0.000144131
0.00406945
-0.000143385
0.00407505
-0.000142656
-0.000141944
0.00417818
-0.000149745
0.00418303
-0.00014898
0.00418788
-0.000148233
0.00419273
-0.000147503
-0.00014679
0.0043002
-0.000153825
0.00430428
-0.000153065
0.00430837
-0.000152322
0.00431246
-0.000151596
-0.000150887
0.00442334
-0.000157142
0.00442667
-0.000156391
0.00443
-0.000155658
0.00443335
-0.000154942
-0.000154242
0.00454671
-0.000159711
0.0045493
-0.000158975
0.00455189
-0.000158256
0.00455451
-0.000157554
-0.000156869
0.00466946
-0.000161553
0.00467132
-0.000160836
0.0046732
-0.000160136
0.0046751
-0.000159454
-0.000158788
0.00479077
-0.000162697
0.00479194
-0.000162003
0.00479313
-0.000161327
0.00479434
-0.000160667
-0.000160024
0.00490991
-0.000163174
0.00491041
-0.000162508
0.00491094
-0.000161858
0.0049115
-0.000161225
-0.000160609
0.00502618
-0.000163023
0.00502606
-0.000162387
0.00502597
-0.000161768
0.00502591
-0.000161165
-0.000160579
0.00513896
-0.000162285
0.00513826
-0.000161683
0.00513759
-0.000161097
0.00513695
-0.000160527
-0.000159972
0.00524773
-0.000161006
0.00524649
-0.000160439
0.00524528
-0.000159888
0.00524411
-0.000159353
-0.000158833
0.00535201
-0.000159232
0.00535027
-0.000158703
0.00534857
-0.000158189
0.00534691
-0.00015769
-0.000157206
0.00545142
-0.000157013
0.00544923
-0.000156522
0.00544709
-0.000156046
0.00544499
-0.000155584
-0.000155136
0.00554564
-0.000154398
0.00554306
-0.000153946
0.00554052
-0.000153508
0.00553802
-0.000153083
-0.000152673
0.00563444
-0.000151437
0.00563151
-0.000151023
0.00562863
-0.000150622
0.00562578
-0.000150236
-0.000149862
0.00571766
-0.000148176
0.00571444
-0.000147801
0.00571125
-0.000147438
0.0057081
-0.000147088
-0.000146751
0.00579521
-0.000144665
0.00579173
-0.000144326
0.0057883
-0.000144
0.00578489
-0.000143686
-0.000143385
0.00586706
-0.000140947
0.00586338
-0.000140644
0.00585973
-0.000140353
0.00585612
-0.000140073
-0.000139806
0.00593326
-0.000137064
0.00592941
-0.000136795
0.0059256
-0.000136537
0.00592181
-0.000136291
-0.000136057
0.00599389
-0.000133056
0.00598991
-0.000132819
0.00598597
-0.000132593
0.00598205
-0.000132378
-0.000132174
0.00604909
-0.000128958
0.00604502
-0.000128751
0.00604098
-0.000128555
0.00603697
-0.000128369
-0.000128193
0.00609904
-0.000124803
0.00609491
-0.000124624
0.00609081
-0.000124454
0.00608674
-0.000124295
-0.000124146
0.00614395
-0.000120619
0.0061398
-0.000120465
0.00613566
-0.000120321
0.00613155
-0.000120186
-0.000120061
0.00618408
-0.000116431
0.00617992
-0.0001163
0.00617578
-0.000116179
0.00617166
-0.000116066
-0.000115963
0.00621969
-0.000112261
0.00621554
-0.000112151
0.00621141
-0.000112049
0.0062073
-0.000111957
-0.000111873
0.00625106
-0.000108126
0.00624694
-0.000108034
0.00624284
-0.00010795
0.00623876
-0.000107875
-0.000107809
0.00627848
-0.00010404
0.00627441
-0.000103964
0.00627036
-0.000103897
0.00626632
-0.000103837
-0.000103785
0.00630226
-0.000100016
0.00629825
-9.99537e-05
0.00629425
-9.98993e-05
0.00629026
-9.98529e-05
-9.98143e-05
0.00632268
-9.60602e-05
0.00631874
-9.60102e-05
0.00631481
-9.59675e-05
0.00631089
-9.59324e-05
-9.5905e-05
0.00634006
-9.21798e-05
0.00633619
-9.21399e-05
0.00633232
-9.21072e-05
0.00632847
-9.20818e-05
-9.20636e-05
0.00635466
-8.8378e-05
0.00635087
-8.83468e-05
0.00634708
-8.83224e-05
0.00634331
-8.83049e-05
-8.82945e-05
0.00636678
-8.46566e-05
0.00636307
-8.46325e-05
0.00635936
-8.4615e-05
0.00635566
-8.46041e-05
-8.46e-05
0.00637667
-8.10155e-05
0.00637304
-8.09973e-05
0.00636941
-8.09853e-05
0.00636579
-8.09798e-05
-8.09806e-05
0.0063846
-7.74532e-05
0.00638104
-7.74398e-05
0.00637749
-7.74323e-05
0.00637394
-7.74309e-05
-7.74358e-05
0.00639079
-7.39674e-05
0.0063873
-7.39577e-05
0.00638382
-7.39538e-05
0.00638035
-7.39556e-05
-7.39634e-05
0.00639546
-7.05545e-05
0.00639205
-7.05478e-05
0.00638864
-7.05466e-05
0.00638523
-7.05509e-05
-7.05609e-05
0.00639881
-6.72107e-05
0.00639547
-6.72063e-05
0.00639213
-6.72071e-05
0.00638879
-6.72132e-05
-6.72246e-05
0.00640104
-6.39315e-05
0.00639777
-6.39288e-05
0.00639449
-6.39311e-05
0.00639121
-6.39383e-05
-6.39507e-05
0.00640232
-6.07122e-05
0.0063991
-6.07108e-05
0.00639588
-6.0714e-05
0.00639266
-6.0722e-05
-6.07349e-05
0.00640278
-5.75479e-05
0.00639962
-5.75474e-05
0.00639646
-5.75513e-05
0.0063933
-5.75597e-05
-5.75727e-05
0.00640259
-5.44339e-05
0.00639948
-5.4434e-05
0.00639636
-5.44383e-05
0.00639325
-5.44467e-05
-5.44596e-05
0.00640185
-5.13654e-05
0.00639878
-5.13659e-05
0.00639572
-5.13703e-05
0.00639265
-5.13787e-05
-5.13911e-05
0.00640069
-4.8338e-05
0.00639766
-4.83387e-05
0.00639463
-4.8343e-05
0.0063916
-4.83511e-05
-4.83631e-05
0.00639919
-4.53471e-05
0.0063962
-4.5348e-05
0.00639321
-4.53522e-05
0.00639022
-4.53599e-05
-4.53712e-05
0.00639744
-4.23889e-05
0.00639449
-4.23897e-05
0.00639153
-4.23937e-05
0.00638857
-4.2401e-05
-4.24115e-05
0.00639553
-3.94594e-05
0.0063926
-3.94603e-05
0.00638967
-3.9464e-05
0.00638674
-3.94707e-05
-3.94805e-05
0.00639352
-3.65553e-05
0.00639061
-3.65561e-05
0.00638771
-3.65595e-05
0.0063848
-3.65657e-05
-3.65747e-05
0.00639145
-3.36733e-05
0.00638857
-3.3674e-05
0.00638569
-3.36771e-05
0.00638281
-3.36828e-05
-3.3691e-05
0.0063894
-3.08106e-05
0.00638654
-3.08112e-05
0.00638367
-3.0814e-05
0.00638081
-3.08191e-05
-3.08265e-05
0.00638739
-2.79644e-05
0.00638454
-2.79649e-05
0.0063817
-2.79674e-05
0.00637885
-2.7972e-05
-2.79787e-05
0.00638546
-2.51326e-05
0.00638263
-2.5133e-05
0.0063798
-2.51352e-05
0.00637697
-2.51393e-05
-2.51452e-05
0.00638366
-2.23129e-05
0.00638084
-2.23132e-05
0.00637802
-2.23151e-05
0.0063752
-2.23187e-05
-2.23239e-05
0.00638199
-1.95034e-05
0.00637918
-1.95037e-05
0.00637637
-1.95054e-05
0.00637356
-1.95084e-05
-1.95129e-05
0.00638049
-1.67026e-05
0.00637769
-1.67028e-05
0.00637489
-1.67042e-05
0.00637208
-1.67068e-05
-1.67106e-05
0.00637917
-1.39087e-05
0.00637638
-1.39089e-05
0.00637358
-1.391e-05
0.00637079
-1.39122e-05
-1.39153e-05
0.00637805
-1.11205e-05
0.00637526
-1.11207e-05
0.00637247
-1.11215e-05
0.00636968
-1.11232e-05
-1.11257e-05
0.00637714
-8.33669e-06
0.00637436
-8.33678e-06
0.00637157
-8.33744e-06
0.00636879
-8.3387e-06
-8.34057e-06
0.00637645
-5.55606e-06
0.00637367
-5.55611e-06
0.00637089
-5.55655e-06
0.00636811
-5.55739e-06
-5.55863e-06
0.00637599
-2.77751e-06
0.00637321
-2.77754e-06
0.00637043
-2.77776e-06
0.00636765
-2.77817e-06
-2.77879e-06
0.00637575
0.00637298
0.0063702
0.00636742
-0.000144882
0.0040582
0.00013926
-0.000149733
0.00417816
-0.000153814
0.00430018
-0.000157131
0.00442332
-0.0001597
0.00454669
-0.000161542
0.00466944
-0.000162686
0.00479076
-0.000163163
0.00490989
-0.000163012
0.00502616
-0.000162274
0.00513895
-0.000160995
0.00524772
-0.000159222
0.005352
-0.000157003
0.0054514
-0.000154389
0.00554562
-0.000151427
0.00563443
-0.000148167
0.00571765
-0.000144656
0.0057952
-0.000140938
0.00586706
-0.000137055
0.00593325
-0.000133047
0.00599388
-0.00012895
0.00604908
-0.000124795
0.00609903
-0.000120611
0.00614395
-0.000116424
0.00618408
-0.000112254
0.00621969
-0.000108119
0.00625106
-0.000104034
0.00627848
-0.000100009
0.00630226
-9.60542e-05
0.00632268
-9.2174e-05
0.00634005
-8.83726e-05
0.00635466
-8.46514e-05
0.00636678
-8.10105e-05
0.00637668
-7.74485e-05
0.0063846
-7.39629e-05
0.00639079
-7.05503e-05
0.00639546
-6.72067e-05
0.00639881
-6.39277e-05
0.00640104
-6.07086e-05
0.00640232
-5.75445e-05
0.00640279
-5.44307e-05
0.00640259
-5.13624e-05
0.00640185
-4.83351e-05
0.00640069
-4.53445e-05
0.00639919
-4.23864e-05
0.00639745
-3.94572e-05
0.00639553
-3.65532e-05
0.00639352
-3.36714e-05
0.00639146
-3.08088e-05
0.0063894
-2.79629e-05
0.00638739
-2.51312e-05
0.00638547
-2.23116e-05
0.00638366
-1.95024e-05
0.00638199
-1.67017e-05
0.00638049
-1.3908e-05
0.00637917
-1.11199e-05
0.00637805
-8.33624e-06
0.00637714
-5.55575e-06
0.00637645
-2.77736e-06
0.00637599
0.00637575
-0.000144119
0.00406382
0.000138504
-0.000148969
0.00418301
-0.000153053
0.00430426
-0.00015638
0.00442665
-0.000158964
0.00454928
-0.000160825
0.0046713
-0.000161992
0.00479192
-0.000162497
0.0049104
-0.000162376
0.00502604
-0.000161672
0.00513825
-0.000160429
0.00524647
-0.000158693
0.00535026
-0.000156512
0.00544922
-0.000153936
0.00554305
-0.000151013
0.0056315
-0.000147791
0.00571443
-0.000144317
0.00579173
-0.000140635
0.00586337
-0.000136786
0.00592941
-0.00013281
0.00598991
-0.000128743
0.00604502
-0.000124616
0.00609491
-0.000120457
0.00613979
-0.000116293
0.00617992
-0.000112144
0.00621554
-0.000108027
0.00624694
-0.000103958
0.00627441
-9.99473e-05
0.00629824
-9.60041e-05
0.00631874
-9.21342e-05
0.00633618
-8.83413e-05
0.00635087
-8.46273e-05
0.00636307
-8.09922e-05
0.00637304
-7.7435e-05
0.00638104
-7.39532e-05
0.0063873
-7.05435e-05
0.00639205
-6.72022e-05
0.00639547
-6.3925e-05
0.00639777
-6.07071e-05
0.0063991
-5.7544e-05
0.00639962
-5.44308e-05
0.00639948
-5.13629e-05
0.00639879
-4.83359e-05
0.00639766
-4.53453e-05
0.0063962
-4.23873e-05
0.00639449
-3.9458e-05
0.0063926
-3.6554e-05
0.00639061
-3.36721e-05
0.00638857
-3.08094e-05
0.00638654
-2.79634e-05
0.00638454
-2.51316e-05
0.00638263
-2.2312e-05
0.00638084
-1.95026e-05
0.00637918
-1.67019e-05
0.00637769
-1.39081e-05
0.00637638
-1.112e-05
0.00637526
-8.33632e-06
0.00637436
-5.55581e-06
0.00637367
-2.77739e-06
0.00637321
0.00637298
-0.000143373
0.00406943
0.000137765
-0.000148221
0.00418786
-0.00015231
0.00430835
-0.000155646
0.00442998
-0.000158244
0.00455188
-0.000160125
0.00467318
-0.000161315
0.00479311
-0.000161847
0.00491093
-0.000161757
0.00502595
-0.000161086
0.00513757
-0.000159878
0.00524527
-0.000158178
0.00534856
-0.000156036
0.00544708
-0.000153498
0.00554051
-0.000150613
0.00562862
-0.000147428
0.00571124
-0.000143991
0.00578829
-0.000140343
0.00585973
-0.000136529
0.00592559
-0.000132584
0.00598596
-0.000128546
0.00604098
-0.000124446
0.00609081
-0.000120313
0.00613566
-0.000116171
0.00617577
-0.000112042
0.00621141
-0.000107943
0.00624284
-0.00010389
0.00627036
-9.9893e-05
0.00629425
-9.59614e-05
0.00631481
-9.21014e-05
0.00633232
-8.83168e-05
0.00634708
-8.46097e-05
0.00635936
-8.09803e-05
0.00636941
-7.74275e-05
0.00637749
-7.39492e-05
0.00638383
-7.05423e-05
0.00638864
-6.7203e-05
0.00639213
-6.39272e-05
0.00639449
-6.07103e-05
0.00639588
-5.75478e-05
0.00639646
-5.4435e-05
0.00639636
-5.13673e-05
0.00639572
-4.83402e-05
0.00639463
-4.53495e-05
0.00639321
-4.23913e-05
0.00639153
-3.94617e-05
0.00638967
-3.65574e-05
0.00638771
-3.36752e-05
0.00638569
-3.08122e-05
0.00638367
-2.79659e-05
0.0063817
-2.51338e-05
0.0063798
-2.23139e-05
0.00637802
-1.95043e-05
0.00637637
-1.67033e-05
0.00637489
-1.39093e-05
0.00637358
-1.11209e-05
0.00637247
-8.33699e-06
0.00637157
-5.55625e-06
0.00637089
-2.7776e-06
0.00637043
0.0063702
-0.000142644
0.00407503
0.000137042
-0.000147491
0.00419271
-0.000151584
0.00431244
-0.00015493
0.00443333
-0.000157542
0.00455449
-0.000159442
0.00467508
-0.000160655
0.00479433
-0.000161214
0.00491149
-0.000161154
0.00502589
-0.000160516
0.00513694
-0.000159342
0.00524409
-0.000157679
0.0053469
-0.000155573
0.00544497
-0.000153073
0.00553801
-0.000150226
0.00562577
-0.000147078
0.00570809
-0.000143677
0.00578489
-0.000140064
0.00585611
-0.000136282
0.00592181
-0.000132369
0.00598205
-0.00012836
0.00603697
-0.000124287
0.00608673
-0.000120178
0.00613155
-0.000116059
0.00617165
-0.000111949
0.0062073
-0.000107868
0.00623876
-0.00010383
0.00626632
-9.98465e-05
0.00629026
-9.59263e-05
0.00631089
-9.20759e-05
0.00632847
-8.82993e-05
0.00634331
-8.45988e-05
0.00635566
-8.09747e-05
0.00636579
-7.74261e-05
0.00637394
-7.3951e-05
0.00638035
-7.05466e-05
0.00638524
-6.7209e-05
0.0063888
-6.39344e-05
0.00639122
-6.07183e-05
0.00639267
-5.75562e-05
0.0063933
-5.44435e-05
0.00639325
-5.13756e-05
0.00639265
-4.83483e-05
0.00639161
-4.53572e-05
0.00639022
-4.23985e-05
0.00638857
-3.94684e-05
0.00638674
-3.65636e-05
0.0063848
-3.36809e-05
0.00638281
-3.08173e-05
0.00638081
-2.79704e-05
0.00637885
-2.51379e-05
0.00637697
-2.23174e-05
0.0063752
-1.95073e-05
0.00637356
-1.67058e-05
0.00637209
-1.39114e-05
0.00637079
-1.11226e-05
0.00636969
-8.33825e-06
0.00636879
-5.55708e-06
0.00636811
-2.77802e-06
0.00636765
0.00636742
-0.000141931
0.000136336
-0.000146777
-0.000150875
-0.00015423
-0.000156857
-0.000158776
-0.000160012
-0.000160598
-0.000160567
-0.000159961
-0.000158822
-0.000157195
-0.000155126
-0.000152663
-0.000149852
-0.000146741
-0.000143375
-0.000139797
-0.000136048
-0.000132165
-0.000128185
-0.000124138
-0.000120053
-0.000115955
-0.000111866
-0.000107802
-0.000103778
-9.98079e-05
-9.58988e-05
-9.20577e-05
-8.82889e-05
-8.45946e-05
-8.09755e-05
-7.74309e-05
-7.39588e-05
-7.05565e-05
-6.72205e-05
-6.39468e-05
-6.07312e-05
-5.75692e-05
-5.44563e-05
-5.13881e-05
-4.83602e-05
-4.53685e-05
-4.24091e-05
-3.94782e-05
-3.65726e-05
-3.36891e-05
-3.08248e-05
-2.79771e-05
-2.51438e-05
-2.23227e-05
-1.95119e-05
-1.67097e-05
-1.39146e-05
-1.11251e-05
-8.34012e-06
-5.55832e-06
-2.77864e-06
0.00155929
0.000134961
0.00156358
0.000134211
0.00156787
0.000133477
0.00157215
0.00013276
0.000132058
0.00155326
0.000130688
0.00155753
0.000129945
0.00156179
0.000129218
0.00156604
0.000128507
0.000127812
0.0015425
0.000127183
0.00154675
0.000126433
0.001551
0.000125698
0.00155524
0.000124979
0.00155947
0.000124276
0.000123588
0.00153555
0.000122925
0.0015398
0.000122185
0.00154404
0.00012146
0.00154827
0.000120751
0.00155249
0.000120056
0.00152821
0.000118665
0.00153246
0.000117937
0.0015367
0.000117223
0.00154093
0.000116524
0.00011584
0.00152052
0.000114396
0.00152478
0.00011368
0.00152902
0.000112979
0.00153326
0.000112293
0.00011162
0.00151254
0.000110109
0.00151681
0.000109408
0.00152107
0.000108721
0.00152531
0.000108048
0.000107389
0.00150431
0.000105799
0.0015086
0.000105113
0.00151288
0.000104442
0.00151715
0.000103784
0.00010314
0.00149155
0.000102139
0.00149589
0.000101458
0.00150021
0.00010079
0.00150452
0.000100136
0.00150881
9.94945e-05
9.88664e-05
0.00148296
9.77431e-05
0.00148734
9.70816e-05
0.0014917
9.6433e-05
0.00149604
9.57971e-05
0.00150036
9.5174e-05
9.45635e-05
0.0014743
9.33056e-05
0.00147872
9.26651e-05
0.00148311
9.2037e-05
0.00148749
9.14212e-05
0.00149184
9.08178e-05
9.02265e-05
0.00146561
8.88223e-05
0.00147007
8.82043e-05
0.00147451
8.75983e-05
0.00147893
8.70041e-05
0.00148333
8.64218e-05
0.00145696
8.42898e-05
0.00146147
8.36959e-05
0.00146596
8.31135e-05
0.00147042
8.25425e-05
8.19828e-05
0.00144841
7.97058e-05
0.00145297
7.91376e-05
0.0014575
7.85803e-05
0.00146201
7.80338e-05
7.74982e-05
0.00144001
7.50684e-05
0.00144462
7.45274e-05
0.0014492
7.39967e-05
0.00145376
7.34764e-05
7.29663e-05
0.00143181
7.03767e-05
0.00143648
6.98643e-05
0.00144111
6.93618e-05
0.00144572
6.88689e-05
6.83857e-05
0.00142388
6.56303e-05
0.0014286
6.51481e-05
0.00143328
6.4675e-05
0.00143794
6.42109e-05
6.3756e-05
0.00141147
6.12891e-05
0.00141627
6.08298e-05
0.00142104
6.0379e-05
0.00142577
5.99366e-05
0.00143048
5.95027e-05
5.90773e-05
0.00140417
5.6402e-05
0.00140902
5.59761e-05
0.00141384
5.5558e-05
0.00141863
5.51477e-05
0.00142339
5.47452e-05
5.43505e-05
0.00139729
5.14624e-05
0.00140219
5.1071e-05
0.00140706
5.06869e-05
0.0014119
5.03098e-05
0.00141671
4.99399e-05
4.95771e-05
0.00139087
4.64728e-05
0.00139583
4.61171e-05
0.00140074
4.5768e-05
0.00140563
4.54253e-05
0.00141048
4.50891e-05
4.47592e-05
0.00138497
4.14363e-05
0.00138997
4.11174e-05
0.00139493
4.08043e-05
0.00139986
4.0497e-05
0.00140475
4.01955e-05
3.98995e-05
0.00137961
3.63566e-05
0.00138465
3.60754e-05
0.00138966
3.57993e-05
0.00139463
3.55283e-05
0.00139956
3.52624e-05
3.50013e-05
0.00137484
3.1238e-05
0.00137992
3.09953e-05
0.00138496
3.0757e-05
0.00138997
3.05231e-05
0.00139494
3.02936e-05
3.00681e-05
0.00137069
2.60851e-05
0.00137581
2.58816e-05
0.00138088
2.56819e-05
0.00138592
2.54858e-05
0.00139092
2.52933e-05
2.51043e-05
0.00136719
2.0903e-05
0.00137233
2.07394e-05
0.00137743
2.05787e-05
0.0013825
2.04211e-05
0.00138753
2.02663e-05
0.00136436
1.56971e-05
0.00136952
1.55738e-05
0.00137465
1.54528e-05
0.00137974
1.53341e-05
1.52174e-05
0.00136222
1.04731e-05
0.0013674
1.03906e-05
0.00137254
1.03096e-05
0.00137765
1.02301e-05
1.01521e-05
0.00136078
5.23691e-06
0.00136598
5.19545e-06
0.00137113
5.15476e-06
0.00137625
5.1148e-06
5.07557e-06
0.00136006
0.00136526
0.00137042
0.00137554
)
;

boundaryField
{
    inlet
    {
        type            calculated;
        value           nonuniform 0();
    }
    outlet
    {
        type            calculated;
        value           nonuniform 0();
    }
    cylinder
    {
        type            calculated;
        value           nonuniform 0();
    }
    top
    {
        type            symmetryPlane;
        value           uniform 0;
    }
    bottom
    {
        type            symmetryPlane;
        value           uniform 0;
    }
    defaultFaces
    {
        type            empty;
        value           nonuniform 0();
    }
    procBoundary47to46
    {
        type            processor;
        value           nonuniform List<scalar> 
186
(
-0.00135482
-0.00135555
-0.00135699
-0.00135915
-0.00136201
-0.00136554
-0.00136973
-0.00137453
-0.00137993
-0.00138589
-0.00139235
-0.00139928
-6.12998e-05
-0.00141147
-0.00141914
-0.00142712
-0.00143537
-0.00144383
-0.00145244
-0.00146114
-0.00146987
-0.00147857
-0.00010215
-0.00149156
-0.0015
-0.00150826
-0.00151626
-0.00152396
-0.0015313
-0.00153824
-0.000131458
-0.001549
-0.00155499
-0.0040526
-0.00417333
-0.00429612
-0.00442002
-0.00454414
-0.00466762
-0.00478963
-0.00490943
-0.00502633
-0.0051397
-0.00524901
-0.00535378
-0.00545363
-0.00554825
-0.0056374
-0.00572092
-0.00579872
-0.00587078
-0.00593714
-0.0059979
-0.00605319
-0.00610319
-0.00614814
-0.00618827
-0.00622386
-0.00625519
-0.00628257
-0.00630628
-0.00632664
-0.00634394
-0.00635846
-0.0063705
-0.00638032
-0.00638816
-0.00639427
-0.00639887
-0.00640216
-0.00640432
-0.00640554
-0.00640595
-0.0064057
-0.00640492
-0.00640371
-0.00640218
-0.0064004
-0.00639846
-0.00639642
-0.00639434
-0.00639226
-0.00639024
-0.0063883
-0.00638648
-0.0063848
-0.00638329
-0.00638196
-0.00638084
-0.00637992
-0.00637923
-0.00637876
-0.00637853
-0.00405258
-0.00417331
-0.0042961
-0.00442
-0.00454412
-0.0046676
-0.00478961
-0.00490941
-0.00502631
-0.00513969
-0.005249
-0.00535377
-0.00545362
-0.00554824
-0.00563739
-0.00572091
-0.00579871
-0.00587077
-0.00593714
-0.00599789
-0.00605318
-0.00610319
-0.00614813
-0.00618827
-0.00622386
-0.00625519
-0.00628256
-0.00630628
-0.00632664
-0.00634393
-0.00635846
-0.0063705
-0.00638032
-0.00638816
-0.00639427
-0.00639887
-0.00640216
-0.00640432
-0.00640554
-0.00640595
-0.0064057
-0.00640492
-0.00640372
-0.00640218
-0.0064004
-0.00639846
-0.00639642
-0.00639434
-0.00639226
-0.00639024
-0.0063883
-0.00638648
-0.0063848
-0.00638329
-0.00638197
-0.00638084
-0.00637992
-0.00637923
-0.00637877
-0.00637853
-0.00155499
-0.00154899
-0.000131447
-0.00153823
-0.0015313
-0.00152395
-0.00151625
-0.00150825
-0.0015
-0.000106498
-0.00148719
-0.00147857
-0.00146986
-0.00146113
-0.00145243
-0.00144383
-0.00143537
-0.00142712
-0.00141913
-6.61218e-05
-0.00140663
-0.00139928
-0.00139235
-0.00138588
-0.00137993
-0.00137453
-0.00136972
-0.00136554
-0.00136201
-0.00135915
-0.00135699
-0.00135555
-0.00135482
)
;
    }
    procBoundary47to48
    {
        type            processor;
        value           nonuniform List<scalar> 
186
(
0.00138063
0.00138132
0.00138271
0.00138479
2.01278e-05
0.00139252
0.00139588
0.00139987
0.00140446
0.00140962
0.0014153
0.00142148
0.00142812
0.00143517
0.00144258
0.0014503
0.00145829
0.0014665
0.00147486
8.58647e-05
0.00148771
0.00149619
0.00150467
0.00151309
0.0015214
0.00152955
0.00153748
0.00154515
0.00011939
0.00155671
0.0015637
0.00157029
0.00157643
0.00408064
0.00419757
0.00431656
0.0044367
0.00455713
0.00467702
0.00479558
0.00491209
0.00502588
0.00513634
0.00524297
0.00534528
0.00544292
0.00553556
0.00562297
0.00570499
0.00578153
0.00585254
0.00591806
0.00597817
0.00603299
0.00608269
0.00612747
0.00616756
0.00620321
0.0062347
0.0062623
0.00628629
0.00630698
0.00632463
0.00633954
0.00635196
0.00636217
0.00637039
0.00637688
0.00638183
0.00638546
0.00638794
0.00638945
0.00639013
0.00639014
0.00638958
0.00638858
0.00638722
0.00638561
0.00638381
0.0063819
0.00637992
0.00637794
0.006376
0.00637413
0.00637237
0.00637075
0.00636928
0.00636799
0.00636689
0.006366
0.00636532
0.00636487
0.00636464
0.00408062
0.00419755
0.00431654
0.00443668
0.00455711
0.004677
0.00479556
0.00491207
0.00502586
0.00513633
0.00524295
0.00534527
0.00544291
0.00553555
0.00562296
0.00570498
0.00578152
0.00585254
0.00591806
0.00597817
0.00603299
0.00608269
0.00612747
0.00616756
0.00620321
0.0062347
0.0062623
0.00628629
0.00630698
0.00632463
0.00633954
0.00635196
0.00636217
0.0063704
0.00637688
0.00638183
0.00638546
0.00638794
0.00638945
0.00639014
0.00639014
0.00638958
0.00638858
0.00638723
0.00638561
0.00638381
0.0063819
0.00637993
0.00637795
0.006376
0.00637414
0.00637238
0.00637075
0.00636928
0.00636799
0.0063669
0.006366
0.00636533
0.00636487
0.00636464
0.00157643
0.00157028
0.00156369
0.0015567
0.000119377
0.00154514
0.00153748
0.00152954
0.0015214
0.00151308
0.00150466
0.00149618
0.0014877
8.58512e-05
0.00147486
0.00146649
0.00145829
0.0014503
0.00144257
0.00143516
0.00142812
0.00142148
0.0014153
0.00140961
0.00140446
0.00139987
0.00139588
0.00139252
2.01143e-05
0.00138478
0.00138271
0.00138132
0.00138063
)
;
    }
}


// ************************************************************************* //
