/*--------------------------------*- C++ -*----------------------------------*\
  =========                 |
  \\      /  F ield         | OpenFOAM: The Open Source CFD Toolbox
   \\    /   O peration     | Website:  https://openfoam.org
    \\  /    A nd           | Version:  7
     \\/     M anipulation  |
\*---------------------------------------------------------------------------*/
FoamFile
{
    version     2.0;
    format      ascii;
    class       volScalarField;
    location    "55";
    object      p;
}
// * * * * * * * * * * * * * * * * * * * * * * * * * * * * * * * * * * * * * //

dimensions      [0 2 -2 0 0 0 0];

internalField   nonuniform List<scalar> 
8820
(
-0.243677
-0.245116
-0.246009
-0.246671
-0.247231
-0.247707
-0.24812
-0.248486
-0.248808
-0.249085
-0.249311
-0.249476
-0.249574
-0.2496
-0.249551
-0.249432
-0.24926
-0.249066
-0.248835
-0.248486
-0.248515
-0.243877
-0.245303
-0.246186
-0.246841
-0.247394
-0.247864
-0.248271
-0.248631
-0.248947
-0.249219
-0.249437
-0.249595
-0.249684
-0.249696
-0.249631
-0.249491
-0.249291
-0.249063
-0.248795
-0.248401
-0.248387
-0.244278
-0.245672
-0.246536
-0.247175
-0.247713
-0.248169
-0.248563
-0.248911
-0.249216
-0.249475
-0.249681
-0.249825
-0.249895
-0.249885
-0.24979
-0.249611
-0.249362
-0.249075
-0.248738
-0.248264
-0.248177
-0.244874
-0.24622
-0.247053
-0.247667
-0.248183
-0.248618
-0.248993
-0.249322
-0.24961
-0.249852
-0.25004
-0.250163
-0.250209
-0.250167
-0.25003
-0.249796
-0.249475
-0.249101
-0.248665
-0.248072
-0.247874
-0.245655
-0.246938
-0.24773
-0.248311
-0.248796
-0.249203
-0.249553
-0.249858
-0.250123
-0.250342
-0.250507
-0.250605
-0.250621
-0.25054
-0.250351
-0.250047
-0.249634
-0.249145
-0.248576
-0.247824
-0.247466
-0.24661
-0.247815
-0.248557
-0.249097
-0.249544
-0.249916
-0.250233
-0.250509
-0.250746
-0.250939
-0.251077
-0.251146
-0.251127
-0.251002
-0.250754
-0.250367
-0.249844
-0.249213
-0.248476
-0.24752
-0.246934
-0.247725
-0.24884
-0.249522
-0.250013
-0.250415
-0.250745
-0.251024
-0.251264
-0.251468
-0.251631
-0.25174
-0.251777
-0.251722
-0.25155
-0.251237
-0.250761
-0.250111
-0.249311
-0.248371
-0.247167
-0.246249
-0.248984
-0.249998
-0.250613
-0.251047
-0.251396
-0.251677
-0.25191
-0.252109
-0.252275
-0.252403
-0.25248
-0.252485
-0.252394
-0.252176
-0.251799
-0.251229
-0.250442
-0.249449
-0.248271
-0.246774
-0.245318
-0.250371
-0.251275
-0.251815
-0.252186
-0.252473
-0.252697
-0.252877
-0.253027
-0.25315
-0.25324
-0.253282
-0.253254
-0.253127
-0.252866
-0.252428
-0.251768
-0.250842
-0.249641
-0.248195
-0.246358
-0.244028
-0.251869
-0.252658
-0.253116
-0.253415
-0.253633
-0.25379
-0.253908
-0.254002
-0.254074
-0.254119
-0.254122
-0.25406
-0.253899
-0.253599
-0.253108
-0.252366
-0.251309
-0.249903
-0.248164
-0.245951
-0.243054
-0.253462
-0.254133
-0.254504
-0.254724
-0.254862
-0.254942
-0.254987
-0.255014
-0.255026
-0.255019
-0.254977
-0.254877
-0.254682
-0.254345
-0.253808
-0.252995
-0.251821
-0.25022
-0.248163
-0.245397
-0.242037
-0.255137
-0.25569
-0.255969
-0.2561
-0.256148
-0.256139
-0.256099
-0.256046
-0.255986
-0.255915
-0.25582
-0.255674
-0.25544
-0.255066
-0.254487
-0.253612
-0.252334
-0.250556
-0.248196
-0.244893
-0.240707
-0.256886
-0.257322
-0.257503
-0.257536
-0.257482
-0.257371
-0.25723
-0.257081
-0.256934
-0.256786
-0.256623
-0.256421
-0.256139
-0.255722
-0.255096
-0.254162
-0.252792
-0.250845
-0.248204
-0.244419
-0.23907
-0.258703
-0.259026
-0.259104
-0.259029
-0.258859
-0.258629
-0.258371
-0.258109
-0.257857
-0.257613
-0.257366
-0.25709
-0.256744
-0.25627
-0.255587
-0.254585
-0.253119
-0.25101
-0.248098
-0.243934
-0.237142
-0.260592
-0.260803
-0.260773
-0.260578
-0.260278
-0.259912
-0.259517
-0.259123
-0.258745
-0.258385
-0.258033
-0.257664
-0.257234
-0.256682
-0.255921
-0.254832
-0.253256
-0.250978
-0.247783
-0.243391
-0.234968
-0.26256
-0.262664
-0.262518
-0.262191
-0.261744
-0.261222
-0.260671
-0.260123
-0.259598
-0.259101
-0.258623
-0.258137
-0.2576
-0.256945
-0.25608
-0.254878
-0.253166
-0.250707
-0.2472
-0.242749
-0.232674
-0.264627
-0.264625
-0.264354
-0.263878
-0.263267
-0.262571
-0.261842
-0.261119
-0.260426
-0.25977
-0.259144
-0.258519
-0.257851
-0.257069
-0.256073
-0.254728
-0.252852
-0.250198
-0.246351
-0.241982
-0.230492
-0.266819
-0.266707
-0.266296
-0.26566
-0.264865
-0.263975
-0.263049
-0.262131
-0.261249
-0.260415
-0.259619
-0.258836
-0.258015
-0.257082
-0.25593
-0.254415
-0.252349
-0.249486
-0.245308
-0.241043
-0.228668
-0.269168
-0.268935
-0.268377
-0.267559
-0.266561
-0.265458
-0.264315
-0.263184
-0.262096
-0.261066
-0.260085
-0.259124
-0.258131
-0.257026
-0.255697
-0.253993
-0.251723
-0.248642
-0.244208
-0.239834
-0.227217
-0.271717
-0.271348
-0.270623
-0.269606
-0.268386
-0.26705
-0.265674
-0.264313
-0.263004
-0.261763
-0.260581
-0.259427
-0.258244
-0.256947
-0.255421
-0.253517
-0.251057
-0.247791
-0.243328
-0.238454
-0.226217
-0.274513
-0.273985
-0.273071
-0.271833
-0.270372
-0.268786
-0.267161
-0.265557
-0.264015
-0.262551
-0.261155
-0.259791
-0.258397
-0.256885
-0.255139
-0.253019
-0.250384
-0.247022
-0.242903
-0.237642
-0.228041
-0.277607
-0.276889
-0.27576
-0.274279
-0.272557
-0.270706
-0.268818
-0.26696
-0.265174
-0.263475
-0.261849
-0.260256
-0.258625
-0.256864
-0.25486
-0.252488
-0.24965
-0.246212
-0.242489
-0.2379
-0.237345
-0.281051
-0.280104
-0.278732
-0.276985
-0.274982
-0.272849
-0.270686
-0.268564
-0.266524
-0.264577
-0.262703
-0.260852
-0.258947
-0.256889
-0.25457
-0.251884
-0.248771
-0.245195
-0.241459
-0.237503
-0.235998
-0.284897
-0.283675
-0.282028
-0.27999
-0.277687
-0.275258
-0.272809
-0.270412
-0.268105
-0.265892
-0.263743
-0.261596
-0.259364
-0.256945
-0.254234
-0.251148
-0.247658
-0.243776
-0.239758
-0.235586
-0.232649
-0.289195
-0.287647
-0.28569
-0.283335
-0.280713
-0.277974
-0.275228
-0.272544
-0.269953
-0.267448
-0.264985
-0.262488
-0.25986
-0.256996
-0.253804
-0.250222
-0.246247
-0.241917
-0.237434
-0.23276
-0.228727
-0.293991
-0.292059
-0.289757
-0.287061
-0.2841
-0.281037
-0.27798
-0.274993
-0.272094
-0.269259
-0.266428
-0.263509
-0.260398
-0.256996
-0.253228
-0.249058
-0.244511
-0.23964
-0.234616
-0.229386
-0.224479
-0.299325
-0.296951
-0.294266
-0.291204
-0.287887
-0.284484
-0.2811
-0.277786
-0.274543
-0.271325
-0.268052
-0.264622
-0.26093
-0.256891
-0.252456
-0.247625
-0.242447
-0.236995
-0.231422
-0.225667
-0.220191
-0.305231
-0.302353
-0.299252
-0.295801
-0.292109
-0.288349
-0.284616
-0.280942
-0.277302
-0.273628
-0.269821
-0.265775
-0.261395
-0.256624
-0.251448
-0.245903
-0.240068
-0.234032
-0.227933
-0.221723
-0.215801
-0.311734
-0.308294
-0.304743
-0.300881
-0.296796
-0.292658
-0.288546
-0.284462
-0.280354
-0.27613
-0.27168
-0.266903
-0.26173
-0.256142
-0.250169
-0.243886
-0.237393
-0.23079
-0.224203
-0.217595
-0.211326
-0.31885
-0.314792
-0.310761
-0.306471
-0.301973
-0.297431
-0.292895
-0.288333
-0.283664
-0.278775
-0.273557
-0.26793
-0.261868
-0.255397
-0.248596
-0.24157
-0.234435
-0.227297
-0.220258
-0.2133
-0.206717
-0.326582
-0.321856
-0.317322
-0.312586
-0.307654
-0.30267
-0.297648
-0.29252
-0.287171
-0.281484
-0.275366
-0.268777
-0.261744
-0.254348
-0.246708
-0.238952
-0.231204
-0.223562
-0.216106
-0.208829
-0.201956
-0.33492
-0.329483
-0.324426
-0.319229
-0.313836
-0.308359
-0.302771
-0.296959
-0.290793
-0.284162
-0.277012
-0.269363
-0.2613
-0.252959
-0.244487
-0.236028
-0.227698
-0.219584
-0.211739
-0.204167
-0.197012
-0.343836
-0.337655
-0.332063
-0.326389
-0.320498
-0.31446
-0.308197
-0.301563
-0.294424
-0.2867
-0.278399
-0.269609
-0.260483
-0.251195
-0.241916
-0.232786
-0.223908
-0.21535
-0.207141
-0.199292
-0.191864
-0.353282
-0.346335
-0.3402
-0.334031
-0.327593
-0.320902
-0.313833
-0.306217
-0.297939
-0.28898
-0.279425
-0.269443
-0.259241
-0.249026
-0.238971
-0.229207
-0.219814
-0.210839
-0.202288
-0.194177
-0.186485
-0.363186
-0.355462
-0.348781
-0.342094
-0.335043
-0.327587
-0.319555
-0.310782
-0.301201
-0.29088
-0.279997
-0.268795
-0.257528
-0.246417
-0.235626
-0.225264
-0.215389
-0.206024
-0.197155
-0.188795
-0.180854
-0.37345
-0.364954
-0.357727
-0.350488
-0.34274
-0.334379
-0.325211
-0.3151
-0.304065
-0.29228
-0.280021
-0.2676
-0.255297
-0.24333
-0.231847
-0.220927
-0.210603
-0.200872
-0.191708
-0.183117
-0.174944
-0.383948
-0.374698
-0.366926
-0.359089
-0.350539
-0.341114
-0.330625
-0.319002
-0.306382
-0.293062
-0.279413
-0.265795
-0.252499
-0.239727
-0.227596
-0.216158
-0.205417
-0.19535
-0.185918
-0.177114
-0.168732
-0.394523
-0.384552
-0.376234
-0.367742
-0.358264
-0.347601
-0.335602
-0.322311
-0.308008
-0.293117
-0.278091
-0.263319
-0.249084
-0.235561
-0.222832
-0.210916
-0.199795
-0.189422
-0.179751
-0.170755
-0.162195
-0.404991
-0.394345
-0.385477
-0.376256
-0.365707
-0.353623
-0.339939
-0.324852
-0.308803
-0.29234
-0.275976
-0.26011
-0.245001
-0.230786
-0.217509
-0.20516
-0.193695
-0.183052
-0.173175
-0.164014
-0.155309
-0.415137
-0.403875
-0.39445
-0.384411
-0.372637
-0.358951
-0.343429
-0.326453
-0.308636
-0.290633
-0.272995
-0.256109
-0.240196
-0.225351
-0.211581
-0.198846
-0.187079
-0.176204
-0.166158
-0.156863
-0.148054
-0.424724
-0.412915
-0.402918
-0.39196
-0.378802
-0.363349
-0.345867
-0.326953
-0.307386
-0.287906
-0.269077
-0.251255
-0.234615
-0.219207
-0.205001
-0.19193
-0.179908
-0.168844
-0.158669
-0.149274
-0.14041
-0.433492
-0.421215
-0.410625
-0.398639
-0.383942
-0.366582
-0.34706
-0.326203
-0.304941
-0.284073
-0.264152
-0.245488
-0.228205
-0.212305
-0.197725
-0.184372
-0.172143
-0.160938
-0.150678
-0.141224
-0.132358
-0.441168
-0.428505
-0.417297
-0.404171
-0.387796
-0.368422
-0.346826
-0.324067
-0.301202
-0.279058
-0.258157
-0.238753
-0.220913
-0.204596
-0.189708
-0.176132
-0.163751
-0.152455
-0.142157
-0.132688
-0.123879
-0.447466
-0.434505
-0.422648
-0.408276
-0.390108
-0.368657
-0.345003
-0.320424
-0.296077
-0.27279
-0.251033
-0.230996
-0.212693
-0.196039
-0.180911
-0.167175
-0.154699
-0.143366
-0.13308
-0.123647
-0.114958
-0.452102
-0.438931
-0.426395
-0.410681
-0.390638
-0.367094
-0.341447
-0.315171
-0.289491
-0.265207
-0.242726
-0.222172
-0.203502
-0.186595
-0.171301
-0.157469
-0.144955
-0.133638
-0.123416
-0.114078
-0.105575
-0.454794
-0.441502
-0.428258
-0.411128
-0.389166
-0.363566
-0.336035
-0.308221
-0.281377
-0.256257
-0.233192
-0.212239
-0.193304
-0.176232
-0.160849
-0.146988
-0.134494
-0.123239
-0.113125
-0.103935
-0.0956647
-0.455274
-0.441948
-0.427975
-0.409377
-0.3855
-0.357929
-0.32867
-0.299503
-0.271683
-0.245895
-0.222393
-0.201166
-0.182073
-0.164928
-0.149536
-0.135717
-0.123301
-0.112155
-0.10218
-0.093146
-0.0850683
-0.453296
-0.440019
-0.425304
-0.405223
-0.37948
-0.35007
-0.319274
-0.288966
-0.26037
-0.234092
-0.210303
-0.18893
-0.16979
-0.152669
-0.137354
-0.123651
-0.111379
-0.100403
-0.0906142
-0.0817025
-0.0735775
-0.448638
-0.435491
-0.420037
-0.398488
-0.370976
-0.339906
-0.307795
-0.276575
-0.247413
-0.220827
-0.196907
-0.17552
-0.156447
-0.139449
-0.124301
-0.110792
-0.0987373
-0.0880104
-0.0784892
-0.0697433
-0.0613338
-0.441112
-0.428171
-0.411998
-0.389037
-0.359897
-0.327382
-0.294204
-0.262314
-0.232803
-0.206095
-0.1822
-0.160935
-0.142045
-0.125274
-0.110382
-0.0971487
-0.0853866
-0.0749858
-0.0657508
-0.0571253
-0.049338
-0.430565
-0.417906
-0.401052
-0.376771
-0.346187
-0.312473
-0.278496
-0.246187
-0.216547
-0.189902
-0.166191
-0.145182
-0.126596
-0.110156
-0.0956154
-0.0827442
-0.0713571
-0.0613322
-0.0524273
-0.0440899
-0.0370142
-0.416889
-0.404581
-0.387108
-0.361635
-0.329825
-0.295186
-0.260688
-0.228215
-0.198666
-0.17227
-0.148901
-0.128286
-0.110126
-0.0941238
-0.0800248
-0.0675985
-0.0566599
-0.0470772
-0.0385756
-0.0306305
-0.024214
-0.400015
-0.388128
-0.370117
-0.343614
-0.310826
-0.275552
-0.240819
-0.208438
-0.179197
-0.153236
-0.130368
-0.110286
-0.0926645
-0.0772049
-0.0636422
-0.0517433
-0.041325
-0.0322511
-0.0242199
-0.0167196
-0.0109376
-0.379923
-0.368523
-0.350075
-0.322731
-0.289239
-0.253633
-0.218953
-0.186914
-0.158194
-0.132855
-0.11064
-0.0912204
-0.0742575
-0.0594438
-0.046509
-0.0352179
-0.0253905
-0.016889
-0.00938344
-0.0023658
0.00276679
-0.356635
-0.345786
-0.327022
-0.299052
-0.265147
-0.229518
-0.195171
-0.163721
-0.135734
-0.111182
-0.0897738
-0.0711495
-0.0549603
-0.0408937
-0.0286758
-0.0180704
-0.00890184
-0.00103079
0.00590175
0.0123997
0.0168544
-0.330221
-0.319982
-0.301041
-0.272685
-0.238669
-0.203309
-0.169568
-0.13895
-0.111894
-0.0883024
-0.0678445
-0.0501423
-0.0348384
-0.0216171
-0.0102023
-0.000358216
0.00808637
0.0152723
0.0215875
0.027531
0.0312966
-0.300792
-0.291219
-0.272261
-0.243778
-0.209932
-0.17511
-0.142271
-0.112711
-0.0867774
-0.0643063
-0.0449375
-0.0282784
-0.0139668
-0.00168501
0.00884355
0.0178532
0.0255096
0.0319557
0.037609
0.0429713
0.0460698
-0.268492
-0.259651
-0.240857
-0.212482
-0.179021
-0.14512
-0.113422
-0.0851308
-0.060497
-0.0392983
-0.0211491
-0.00564761
0.00757078
0.0188237
0.0283871
0.0364919
0.0432971
0.0489493
0.0538986
0.058656
0.0610819
-0.233489
-0.22548
-0.20701
-0.178863
-0.146244
-0.113501
-0.0831763
-0.0563506
-0.0331805
-0.013394
0.00341435
0.0176516
0.0296826
0.0398235
0.048348
0.0554819
0.0613788
0.0661951
0.0704125
0.074517
0.0761156
-0.195982
-0.188936
-0.170826
-0.143303
-0.111785
-0.0804399
-0.0517039
-0.0265228
-0.00496574
0.013281
0.0286374
0.0415127
0.0522697
0.0612218
0.0686388
0.0747414
0.0796846
0.0836468
0.0871184
0.0904722
0.0910143
-0.156188
-0.15028
-0.132625
-0.106056
-0.0758541
-0.0461385
-0.0191871
0.004189
0.0239995
0.0405923
0.0543969
0.0658221
0.0752266
0.0829191
0.0891641
0.0941786
0.0981301
0.101225
0.103913
0.106394
0.106047
-0.114443
-0.109741
-0.0927904
-0.0673369
-0.0386856
-0.0108114
0.0141821
0.0356123
0.0535591
0.0683978
0.0805634
0.0904611
0.0984435
0.104813
0.109825
0.113695
0.116609
0.118786
0.120578
0.122098
0.121534
-0.071251
-0.0675074
-0.0515434
-0.0274154
-0.000528367
0.0253175
0.0482026
0.0675664
0.0835498
0.0965496
0.107002
0.115307
0.121808
0.126799
0.130526
0.133202
0.135023
0.136187
0.136909
0.137362
0.136596
-0.0267441
-0.0240122
-0.00917799
0.0134256
0.0383574
0.0620154
0.0826662
0.0998638
0.113802
0.124894
0.133574
0.140233
0.145207
0.148776
0.151179
0.152624
0.153309
0.153381
0.152834
0.151741
0.151283
0.0187488
0.0203959
0.0339863
0.0548918
0.0777044
0.0990428
0.117358
0.132312
0.144143
0.153275
0.160138
0.165112
0.168522
0.170639
0.171692
0.171883
0.171399
0.170332
0.168634
0.166588
0.165616
0.0648662
0.0653797
0.0776208
0.0966812
0.11724
0.136156
0.152061
0.164715
0.174395
0.181532
0.186547
0.189812
0.191638
0.192284
0.19197
0.19089
0.189208
0.18698
0.184182
0.181251
0.179463
0.111246
0.110594
0.121393
0.138488
0.156691
0.173109
0.186554
0.196874
0.204379
0.209503
0.212657
0.214202
0.214435
0.213605
0.211921
0.209568
0.206688
0.203323
0.199485
0.195672
0.192966
0.157526
0.155689
0.16497
0.180008
0.19578
0.209656
0.220616
0.22859
0.233916
0.237025
0.238321
0.238148
0.236793
0.234493
0.231446
0.227824
0.223756
0.219274
0.214419
0.20971
0.206072
0.203343
0.200314
0.208021
0.220936
0.234236
0.245552
0.254027
0.259666
0.262827
0.263938
0.263391
0.261518
0.258593
0.254841
0.250448
0.245577
0.240342
0.23477
0.228923
0.223319
0.218743
0.248338
0.244122
0.250217
0.260975
0.27179
0.280556
0.286572
0.289906
0.290934
0.29008
0.287723
0.284181
0.279716
0.27454
0.268831
0.262738
0.256363
0.249733
0.24292
0.236434
0.230925
0.292159
0.28677
0.29124
0.299832
0.30818
0.314434
0.318037
0.319119
0.318066
0.315295
0.311174
0.306008
0.300045
0.293486
0.286498
0.279219
0.271742
0.264089
0.256345
0.248993
0.242565
0.334463
0.327928
0.330778
0.337226
0.343152
0.346957
0.348219
0.347118
0.344052
0.33943
0.333607
0.326873
0.319465
0.311574
0.303354
0.294934
0.286398
0.277767
0.269129
0.260938
0.253611
0.374919
0.367275
0.368534
0.372885
0.376461
0.377905
0.376917
0.373724
0.368731
0.362338
0.354886
0.346654
0.337867
0.328703
0.319308
0.309801
0.300257
0.290695
0.281209
0.27221
0.264014
0.41321
0.404506
0.404223
0.40655
0.407876
0.407069
0.403944
0.398767
0.391948
0.383877
0.374884
0.365235
0.355143
0.344777
0.334273
0.32374
0.313244
0.302808
0.292523
0.282753
0.273726
0.449039
0.439333
0.437576
0.43798
0.437178
0.434252
0.429121
0.422085
0.413555
0.403914
0.393479
0.382505
0.371193
0.359704
0.348164
0.336673
0.325291
0.314041
0.303011
0.292516
0.282703
0.482126
0.471488
0.468345
0.466947
0.464163
0.459271
0.452282
0.443527
0.433417
0.422325
0.410558
0.398361
0.385924
0.373399
0.360904
0.34853
0.336332
0.324333
0.312618
0.30145
0.290903
0.512215
0.500722
0.4963
0.493243
0.488643
0.481956
0.473274
0.462953
0.451405
0.438994
0.426017
0.412708
0.399249
0.385783
0.37242
0.359245
0.346306
0.33363
0.321294
0.309509
0.298289
0.539072
0.52681
0.521231
0.516679
0.510448
0.502153
0.491958
0.480238
0.467406
0.453818
0.43976
0.425459
0.411088
0.396783
0.382647
0.368757
0.355159
0.341881
0.328992
0.316652
0.304827
0.56249
0.549553
0.542954
0.537087
0.529427
0.519726
0.508209
0.495269
0.481317
0.466702
0.451702
0.436536
0.421371
0.406335
0.391526
0.377013
0.362842
0.34904
0.335669
0.322844
0.310487
0.582286
0.568777
0.561308
0.55432
0.545447
0.534555
0.52192
0.507948
0.493049
0.477565
0.46177
0.445873
0.430037
0.414383
0.399005
0.383967
0.369311
0.355067
0.34129
0.328052
0.315243
0.598309
0.584335
0.576155
0.568257
0.558399
0.546541
0.532999
0.518192
0.502526
0.48634
0.4699
0.453412
0.437033
0.420879
0.405041
0.389578
0.374531
0.35993
0.345825
0.332251
0.319074
0.610435
0.596107
0.587388
0.578797
0.568191
0.555601
0.541374
0.525933
0.509687
0.49297
0.476043
0.459108
0.442317
0.425786
0.409599
0.393815
0.378472
0.363601
0.349247
0.335419
0.321963
0.61857
0.604005
0.594922
0.585865
0.574757
0.561676
0.546987
0.531123
0.514487
0.497413
0.480159
0.462924
0.445857
0.429073
0.412653
0.396653
0.381112
0.366061
0.35154
0.33754
0.323896
0.622652
0.607968
0.598701
0.589411
0.57805
0.564722
0.549803
0.533725
0.516895
0.499642
0.482224
0.464838
0.447633
0.430722
0.414184
0.398077
0.382435
0.367294
0.352689
0.338604
0.324865
0.62265
0.607965
0.598699
0.589409
0.578049
0.564721
0.549802
0.533725
0.516894
0.499642
0.482224
0.464838
0.447633
0.430722
0.414185
0.398077
0.382436
0.367294
0.35269
0.338604
0.324866
0.618562
0.603997
0.594915
0.585859
0.574752
0.561672
0.546984
0.53112
0.514486
0.497412
0.480159
0.462924
0.445858
0.429074
0.412654
0.396654
0.381113
0.366062
0.351541
0.337541
0.323897
0.610422
0.596095
0.587376
0.578787
0.568183
0.555595
0.541369
0.52593
0.509685
0.492969
0.476042
0.459108
0.442318
0.425787
0.409601
0.393817
0.378474
0.363604
0.34925
0.335421
0.321965
0.598291
0.584317
0.576139
0.568243
0.558387
0.546532
0.532992
0.518187
0.502522
0.486338
0.4699
0.453413
0.437034
0.420881
0.405043
0.389581
0.374534
0.359933
0.345828
0.332254
0.319077
0.582263
0.568755
0.561287
0.554303
0.545433
0.534544
0.521911
0.507942
0.493044
0.477563
0.461769
0.445874
0.430038
0.414385
0.399008
0.38397
0.369315
0.355071
0.341294
0.328056
0.315247
0.562461
0.549526
0.54293
0.537066
0.52941
0.519712
0.508199
0.495262
0.481312
0.466699
0.451702
0.436537
0.421373
0.406338
0.391529
0.377018
0.362847
0.349044
0.335674
0.322848
0.310492
0.539039
0.526779
0.521203
0.516654
0.510428
0.502138
0.491946
0.48023
0.467401
0.453815
0.439759
0.42546
0.411091
0.396787
0.382652
0.368762
0.355165
0.341887
0.328998
0.316658
0.304833
0.512178
0.500686
0.496268
0.493216
0.488621
0.481939
0.473261
0.462944
0.451399
0.438991
0.426017
0.412709
0.399252
0.385787
0.372426
0.359251
0.346313
0.333637
0.321301
0.309516
0.298296
0.482086
0.471449
0.468311
0.466917
0.464139
0.459253
0.452269
0.443517
0.433411
0.422322
0.410558
0.398363
0.385928
0.373405
0.360911
0.348537
0.33634
0.324342
0.312627
0.301458
0.290911
0.448995
0.439292
0.437539
0.437948
0.437153
0.434233
0.429107
0.422075
0.41355
0.403912
0.39348
0.382508
0.371198
0.359711
0.348172
0.336682
0.3253
0.31405
0.30302
0.292526
0.282711
0.413164
0.404463
0.404183
0.406517
0.407849
0.407048
0.403929
0.398758
0.391943
0.383875
0.374885
0.365239
0.355149
0.344784
0.334282
0.32375
0.313255
0.302819
0.292533
0.282764
0.273736
0.374871
0.36723
0.368493
0.37285
0.376434
0.377884
0.376902
0.373715
0.368727
0.362337
0.354888
0.346659
0.337874
0.328712
0.319319
0.309813
0.300269
0.290708
0.281221
0.272221
0.264025
0.334414
0.327882
0.330737
0.337191
0.343124
0.346936
0.348204
0.347109
0.344049
0.339431
0.333611
0.32688
0.319474
0.311584
0.303366
0.294947
0.286412
0.27778
0.269142
0.260951
0.253623
0.29211
0.286724
0.291198
0.299797
0.308152
0.314414
0.318024
0.319111
0.318063
0.315297
0.31118
0.306017
0.300056
0.293499
0.286512
0.279234
0.271757
0.264105
0.25636
0.249008
0.242578
0.248289
0.244076
0.250176
0.26094
0.271763
0.280538
0.28656
0.2899
0.290934
0.290084
0.28773
0.284192
0.279729
0.274555
0.268847
0.262754
0.256381
0.24975
0.242937
0.23645
0.23094
0.203295
0.20027
0.207981
0.220903
0.234211
0.245535
0.254017
0.259662
0.262828
0.263944
0.263401
0.261531
0.258608
0.254858
0.250467
0.245596
0.240361
0.23479
0.228942
0.223337
0.21876
0.157481
0.155647
0.164933
0.179977
0.195757
0.209641
0.220608
0.228589
0.23392
0.237034
0.238333
0.238163
0.236811
0.234512
0.231466
0.227846
0.223778
0.219295
0.21444
0.20973
0.20609
0.111204
0.110555
0.121359
0.138461
0.156671
0.173097
0.18655
0.196876
0.204387
0.209514
0.212673
0.21422
0.214455
0.213627
0.211944
0.209591
0.206712
0.203347
0.199508
0.195694
0.192986
0.0648289
0.0653455
0.0775912
0.0966582
0.117225
0.136148
0.152061
0.16472
0.174406
0.181547
0.186566
0.189833
0.191661
0.192309
0.191996
0.190917
0.189235
0.187006
0.184208
0.181276
0.179486
0.0187173
0.0203674
0.0339622
0.054874
0.0776939
0.0990397
0.117362
0.132322
0.144158
0.153294
0.16016
0.165137
0.168549
0.170667
0.17172
0.171912
0.171428
0.17036
0.168662
0.166616
0.165642
-0.0267686
-0.0240338
-0.00919542
0.013414
0.0383527
0.0620178
0.0826751
0.0998784
0.113822
0.124918
0.133601
0.140262
0.145237
0.148807
0.151211
0.152656
0.153341
0.153412
0.152865
0.151772
0.151313
-0.0712671
-0.0675208
-0.0515529
-0.0274197
-0.000526282
0.0253262
0.0482175
0.0675865
0.0835744
0.0965776
0.107033
0.11534
0.121842
0.126834
0.130561
0.133237
0.135058
0.136222
0.136943
0.137396
0.136631
-0.114449
-0.109745
-0.0927907
-0.0673327
-0.0386757
-0.0107955
0.0142035
0.0356386
0.0535894
0.0684311
0.0805991
0.0904983
0.0984817
0.104851
0.109863
0.113733
0.116647
0.118822
0.120614
0.122134
0.121571
-0.156184
-0.150273
-0.132615
-0.106042
-0.0758353
-0.0461145
-0.0191581
0.0042222
0.0240361
0.0406314
0.0544378
0.0658641
0.0752691
0.0829615
0.089206
0.0942196
0.0981701
0.101264
0.10395
0.10643
0.106082
-0.195965
-0.188915
-0.170804
-0.143278
-0.111756
-0.0804068
-0.0516666
-0.0264821
-0.00492224
0.0133264
0.028684
0.0415598
0.0523167
0.0612681
0.0686841
0.0747854
0.0797269
0.0836871
0.0871568
0.0905088
0.091049
-0.233459
-0.225446
-0.206974
-0.178826
-0.146204
-0.113458
-0.0831298
-0.0563014
-0.0331294
-0.0133418
0.00346703
0.0177041
0.0297344
0.039874
0.0483968
0.0555287
0.0614232
0.066237
0.0704516
0.0745536
0.0761495
-0.268446
-0.259602
-0.240807
-0.212432
-0.178969
-0.145065
-0.113366
-0.0850726
-0.0604378
-0.0392388
-0.0210899
-0.00558936
0.00762753
0.0188785
0.0284395
0.0365416
0.0433437
0.0489926
0.0539385
0.0586925
0.061115
-0.300729
-0.291153
-0.272196
-0.243712
-0.209866
-0.175043
-0.142204
-0.112643
-0.0867093
-0.0642389
-0.0448713
-0.0282141
-0.0139048
-0.00162582
0.00889955
0.0179057
0.0255583
0.0320004
0.0376493
0.0430075
0.0461019
-0.330141
-0.319898
-0.300958
-0.272603
-0.238589
-0.203229
-0.169489
-0.138871
-0.111817
-0.0882266
-0.067771
-0.0500715
-0.034771
-0.0215533
-0.0101426
-0.000302908
0.00813702
0.0153181
0.0216282
0.0275667
0.0313274
-0.356535
-0.345683
-0.32692
-0.298953
-0.265051
-0.229423
-0.195078
-0.163631
-0.135646
-0.111098
-0.0896924
-0.071072
-0.0548871
-0.0408252
-0.0286123
-0.0180123
-0.00884929
-0.000984015
0.00594259
0.0124347
0.0168836
-0.379802
-0.368399
-0.349953
-0.322613
-0.289125
-0.253523
-0.218847
-0.186811
-0.158095
-0.13276
-0.11055
-0.0911357
-0.0741783
-0.0593704
-0.0464417
-0.0351569
-0.0253361
-0.0168413
-0.00934266
-0.00233175
0.00279427
-0.399873
-0.387983
-0.369974
-0.343476
-0.310694
-0.275426
-0.240698
-0.208322
-0.179087
-0.153131
-0.13027
-0.110193
-0.092579
-0.0771264
-0.063571
-0.0516795
-0.0412689
-0.0322028
-0.0241794
-0.0166868
-0.0109122
-0.416723
-0.404413
-0.386943
-0.361476
-0.329674
-0.295042
-0.260551
-0.228085
-0.198543
-0.172155
-0.148793
-0.128186
-0.110034
-0.0940401
-0.0799496
-0.067532
-0.0566022
-0.0470283
-0.0385356
-0.0305993
-0.0241911
-0.430376
-0.417714
-0.400864
-0.37659
-0.346015
-0.31231
-0.278342
-0.246042
-0.216411
-0.189775
-0.166073
-0.145074
-0.126497
-0.110067
-0.0955361
-0.082675
-0.0712979
-0.0612829
-0.0523881
-0.0440606
-0.0369943
-0.440898
-0.427955
-0.411785
-0.388833
-0.359703
-0.327199
-0.294033
-0.262153
-0.232654
-0.205956
-0.182072
-0.160817
-0.141939
-0.125179
-0.110298
-0.0970767
-0.0853262
-0.0749363
-0.0657128
-0.0570982
-0.0493219
-0.4484
-0.43525
-0.4198
-0.39826
-0.37076
-0.339702
-0.307605
-0.276397
-0.247249
-0.220675
-0.196768
-0.175394
-0.156334
-0.139349
-0.124213
-0.110717
-0.0986754
-0.0879615
-0.0784529
-0.0697185
-0.061323
-0.453033
-0.439753
-0.425042
-0.40497
-0.37924
-0.349845
-0.319064
-0.288771
-0.26019
-0.233927
-0.210153
-0.188794
-0.169669
-0.152562
-0.137262
-0.123574
-0.111316
-0.100355
-0.0905804
-0.0816828
-0.073572
-0.454986
-0.441657
-0.427687
-0.4091
-0.385237
-0.357681
-0.32844
-0.299291
-0.271487
-0.245716
-0.222231
-0.20102
-0.181944
-0.164815
-0.14944
-0.135637
-0.123237
-0.112107
-0.102149
-0.0931305
-0.0850677
-0.45448
-0.441185
-0.427946
-0.410825
-0.388878
-0.363296
-0.335784
-0.307989
-0.281164
-0.256063
-0.233017
-0.212082
-0.193166
-0.176112
-0.160747
-0.146905
-0.134429
-0.123192
-0.113096
-0.103923
-0.0956697
-0.451763
-0.43859
-0.426058
-0.410354
-0.390326
-0.366801
-0.341174
-0.31492
-0.289261
-0.264998
-0.242538
-0.222004
-0.203355
-0.186468
-0.171195
-0.157383
-0.14489
-0.133592
-0.12339
-0.114071
-0.105587
-0.447104
-0.43414
-0.422287
-0.407925
-0.389772
-0.36834
-0.344708
-0.320152
-0.295829
-0.272565
-0.25083
-0.230817
-0.212536
-0.195905
-0.1808
-0.167087
-0.154633
-0.143321
-0.133058
-0.123646
-0.114978
-0.440783
-0.428117
-0.416912
-0.403796
-0.387436
-0.368082
-0.346509
-0.323774
-0.300934
-0.278815
-0.25794
-0.238561
-0.220746
-0.204454
-0.189591
-0.17604
-0.163684
-0.152412
-0.142139
-0.132693
-0.123907
-0.433085
-0.420806
-0.410219
-0.398241
-0.383559
-0.366218
-0.34672
-0.325889
-0.304654
-0.283813
-0.263919
-0.245283
-0.228027
-0.212154
-0.197602
-0.184277
-0.172075
-0.160897
-0.150665
-0.141236
-0.132395
-0.424296
-0.412486
-0.402491
-0.391541
-0.378396
-0.362963
-0.345504
-0.326617
-0.307078
-0.287626
-0.268827
-0.251035
-0.234426
-0.219048
-0.204872
-0.191831
-0.179839
-0.168806
-0.158661
-0.149295
-0.140459
-0.414689
-0.403426
-0.394003
-0.383971
-0.372209
-0.358542
-0.343043
-0.326095
-0.308307
-0.290334
-0.272728
-0.255874
-0.239994
-0.225182
-0.211445
-0.198743
-0.18701
-0.176168
-0.166155
-0.156892
-0.148114
-0.404525
-0.393878
-0.385012
-0.375797
-0.36526
-0.353192
-0.339531
-0.324471
-0.308452
-0.292021
-0.275691
-0.259859
-0.244785
-0.230605
-0.217365
-0.205053
-0.193625
-0.183018
-0.173178
-0.164053
-0.155382
-0.394041
-0.38407
-0.375752
-0.367266
-0.357798
-0.34715
-0.335173
-0.321908
-0.307635
-0.292777
-0.277785
-0.263049
-0.248853
-0.235368
-0.222679
-0.210803
-0.199722
-0.18939
-0.17976
-0.170804
-0.162282
-0.38345
-0.374201
-0.366429
-0.358597
-0.350056
-0.340645
-0.330175
-0.318577
-0.305986
-0.292699
-0.279086
-0.265506
-0.25225
-0.23952
-0.227433
-0.216038
-0.205342
-0.19532
-0.185933
-0.177173
-0.168835
-0.372939
-0.364444
-0.357217
-0.349981
-0.342241
-0.333892
-0.324742
-0.314653
-0.303646
-0.291893
-0.279672
-0.26729
-0.255029
-0.243108
-0.231671
-0.220799
-0.210524
-0.200843
-0.19173
-0.183188
-0.175063
-0.362662
-0.35494
-0.34826
-0.341575
-0.33453
-0.327083
-0.319067
-0.310314
-0.30076
-0.29047
-0.279623
-0.268462
-0.25724
-0.246176
-0.235436
-0.225127
-0.215306
-0.205996
-0.197182
-0.188878
-0.180991
-0.352747
-0.345801
-0.339668
-0.333501
-0.327068
-0.320385
-0.313328
-0.305729
-0.297475
-0.288545
-0.279026
-0.269085
-0.25893
-0.248765
-0.238765
-0.229057
-0.219724
-0.21081
-0.202322
-0.194272
-0.186641
-0.343291
-0.337112
-0.331522
-0.32585
-0.319962
-0.313929
-0.307676
-0.301057
-0.293937
-0.28624
-0.277973
-0.269224
-0.260145
-0.250911
-0.24169
-0.232622
-0.22381
-0.215319
-0.207179
-0.199399
-0.19204
-0.334365
-0.328932
-0.323877
-0.318681
-0.313291
-0.307817
-0.302235
-0.296434
-0.290285
-0.283677
-0.276558
-0.268948
-0.260934
-0.252647
-0.244238
-0.235847
-0.227588
-0.219549
-0.211781
-0.204288
-0.197209
-0.326019
-0.321298
-0.316765
-0.31203
-0.3071
-0.302117
-0.2971
-0.291978
-0.286641
-0.280973
-0.274882
-0.268331
-0.261345
-0.254007
-0.246432
-0.238749
-0.231079
-0.22352
-0.21615
-0.208962
-0.202175
-0.31828
-0.314227
-0.310198
-0.305909
-0.301412
-0.296869
-0.292333
-0.287775
-0.283113
-0.278239
-0.273044
-0.267451
-0.261434
-0.255021
-0.248288
-0.24134
-0.234291
-0.227245
-0.220303
-0.213444
-0.20696
-0.311158
-0.307723
-0.304174
-0.300314
-0.296228
-0.292088
-0.287973
-0.283888
-0.279783
-0.275568
-0.271137
-0.266389
-0.261259
-0.255728
-0.249826
-0.243625
-0.237225
-0.230725
-0.224246
-0.21775
-0.211592
-0.304649
-0.301778
-0.298679
-0.295228
-0.291534
-0.28777
-0.284032
-0.280353
-0.276711
-0.27304
-0.269247
-0.265225
-0.260885
-0.256169
-0.251064
-0.245606
-0.239872
-0.233947
-0.227969
-0.221886
-0.216092
-0.298738
-0.296371
-0.29369
-0.290628
-0.287307
-0.283898
-0.280506
-0.277183
-0.273932
-0.270713
-0.267447
-0.264036
-0.260378
-0.256392
-0.252028
-0.247287
-0.242217
-0.236886
-0.231447
-0.225836
-0.220507
-0.2934
-0.291477
-0.289178
-0.286481
-0.283516
-0.280444
-0.277375
-0.274375
-0.271465
-0.268623
-0.265793
-0.262887
-0.259805
-0.256451
-0.252753
-0.248675
-0.24424
-0.239501
-0.234625
-0.229559
-0.224818
-0.288602
-0.287064
-0.28511
-0.282754
-0.280125
-0.277375
-0.274614
-0.271913
-0.269306
-0.266789
-0.264322
-0.261832
-0.259226
-0.256406
-0.25328
-0.24979
-0.245932
-0.241742
-0.237421
-0.23293
-0.229089
-0.284306
-0.283095
-0.281451
-0.279409
-0.277097
-0.274655