/*--------------------------------*- C++ -*----------------------------------*\
  =========                 |
  \\      /  F ield         | OpenFOAM: The Open Source CFD Toolbox
   \\    /   O peration     | Website:  https://openfoam.org
    \\  /    A nd           | Version:  7
     \\/     M anipulation  |
\*---------------------------------------------------------------------------*/
FoamFile
{
    version     2.0;
    format      ascii;
    class       surfaceScalarField;
    location    "55";
    object      phi;
}
// * * * * * * * * * * * * * * * * * * * * * * * * * * * * * * * * * * * * * //

dimensions      [0 3 -1 0 0 0 0];

internalField   nonuniform List<scalar> 
17388
(
-3.40936e-06
3.0709e-06
3.38463e-07
-1.23587e-05
7.958e-06
9.91359e-07
-2.59754e-05
1.19738e-05
1.6429e-06
-4.34772e-05
1.52171e-05
2.28472e-06
-6.41571e-05
1.77686e-05
2.91125e-06
-8.73761e-05
1.96966e-05
3.52243e-06
-0.000112554
2.10544e-05
4.1236e-06
-0.000139159
2.18802e-05
4.72486e-06
-0.000166699
2.21996e-05
5.3398e-06
-0.000194711
2.20286e-05
5.98377e-06
-0.000222764
2.13806e-05
6.6721e-06
-0.000250457
2.02746e-05
7.41838e-06
-0.000277438
1.87483e-05
8.23321e-06
-0.000303435
1.68734e-05
9.12342e-06
-0.0003283
1.4773e-05
1.00919e-05
-0.000352077
1.26396e-05
1.1138e-05
-0.000375084
1.07478e-05
1.2259e-05
-0.00039799
9.45392e-06
1.3452e-05
-0.000421871
9.16472e-06
1.47162e-05
-0.000448213
1.02877e-05
1.60541e-05
1.32324e-05
1.74766e-05
-0.000478922
-3.37507e-06
6.44597e-06
-1.22379e-05
1.68209e-05
-2.57267e-05
2.54625e-05
-4.30677e-05
3.25581e-05
-6.35612e-05
3.82621e-05
-8.65739e-05
4.27094e-05
-0.000111531
4.6011e-05
-0.000137903
4.82531e-05
-0.000165203
4.94986e-05
-0.000192967
4.97933e-05
-0.000220762
4.91751e-05
-0.000248177
4.76901e-05
-0.000274844
4.54155e-05
-0.00030046
4.24891e-05
-0.000324833
3.91456e-05
-0.000347947
3.57541e-05
-0.00037005
3.28502e-05
-0.00039174
3.11444e-05
-0.000414046
3.14709e-05
-0.000438449
3.46904e-05
4.1699e-05
-0.000466916
-3.29877e-06
9.74474e-06
-1.19694e-05
2.54915e-05
-2.51735e-05
3.86667e-05
-4.21562e-05
4.95408e-05
-6.22324e-05
5.83382e-05
-8.47808e-05
6.52578e-05
-0.000109236
7.04662e-05
-0.000135078
7.4095e-05
-0.000161822
7.62425e-05
-0.000189008
7.69799e-05
-0.000216197
7.63633e-05
-0.000242962
7.4455e-05
-0.000268901
7.13548e-05
-0.000293656
6.72438e-05
-0.000316948
6.24385e-05
-0.000338648
5.74532e-05
-0.000358856
5.30586e-05
-0.000378027
5.03153e-05
-0.000397077
5.05211e-05
-0.000417461
5.50742e-05
6.54954e-05
-0.000441257
-3.18194e-06
1.29267e-05
-1.15577e-05
3.38672e-05
-2.4324e-05
5.1433e-05
-4.0753e-05
6.59698e-05
-6.01809e-05
7.77661e-05
-8.20037e-05
8.70806e-05
-0.000105669
9.4132e-05
-0.000130669
9.90946e-05
-0.000156526
0.000102099
-0.000182782
0.000103237
-0.000208992
0.000102573
-0.00023471
0.000100173
-0.000259492
9.61367e-05
-0.000282904
9.06553e-05
-0.00030455
8.40849e-05
-0.000324132
7.70347e-05
-0.000341538
7.04649e-05
-0.000356989
6.57663e-05
-0.000371207
6.47395e-05
-0.000385567
6.94342e-05
8.22113e-05
-0.000402283
-3.02709e-06
1.59538e-05
-1.10107e-05
4.18508e-05
-2.31917e-05
6.36141e-05
-3.88762e-05
8.16543e-05
-5.74263e-05
9.63163e-05
-7.82584e-05
0.000107913
-0.000100837
0.00011671
-0.000124665
0.000122923
-0.000149276
0.00012671
-0.000174218
0.000128178
-0.000199038
0.000127394
-0.000223272
0.000124408
-0.000246431
0.000119296
-0.000267998
0.000112222
-0.00028744
0.000103527
-0.000304253
9.38481e-05
-0.00031805
8.42623e-05
-0.000328726
7.64418e-05
-0.000336699
7.27123e-05
-0.000343163
7.58987e-05
8.94843e-05
-0.000350436
-2.83785e-06
1.87916e-05
-1.03396e-05
4.93525e-05
-2.1797e-05
7.50715e-05
-3.65533e-05
9.64106e-05
-5.39991e-05
0.000113762
-7.35722e-05
0.000127486
-9.47534e-05
0.000137892
-0.00011706
0.00014523
-0.000140034
0.000149684
-0.000163228
0.000151372
-0.000186189
0.000150355
-0.000208436
0.000146655
-0.000229439
0.000140299
-0.000248602
0.000131384
-0.000265252
0.000120178
-0.000278665
0.000107261
-0.000288131
9.37284e-05
-0.000293131
8.14422e-05
-0.000293654
7.32344e-05
-0.000290561
7.28059e-05
8.50616e-05
-0.000286138
-2.61902e-06
2.14106e-05
-9.55963e-06
5.62931e-05
-2.01668e-05
8.56786e-05
-3.38219e-05
0.000110066
-4.99429e-05
0.000129883
-6.79871e-05
0.00014553
-8.74498e-05
0.000157354
-0.000107859
0.000165638
-0.000128763
0.000170588
-0.00014972
0.00017233
-0.000170274
0.00017091
-0.000189934
0.000166314
-0.000208137
0.000158502
-0.000224221
0.000147468
-0.000237392
0.000133348
-0.000246712
0.00011658
-0.000251137
9.81535e-05
-0.000249674
7.99798e-05
-0.000241758
6.5318e-05
-0.000227762
5.88098e-05
6.6914e-05
-0.000209614
-2.37668e-06
2.37873e-05
-8.68965e-06
6.26061e-05
-1.83356e-05
9.53246e-05
-3.07306e-05
0.000122461
-4.53157e-05
0.000144468
-6.15627e-05
0.000161777
-7.89754e-05
0.000174767
-9.70851e-05
0.000183748
-0.000115443
0.000188946
-0.000133603
0.00019049
-0.000151107
0.000188414
-0.000167451
0.000182658
-0.00018205
0.000173101
-0.000194194
0.000159612
-0.000202994
0.000142149
-0.000207337
0.000120923
-0.000205874
9.66903e-05
-0.000197126
7.12319e-05
-0.000179886
4.80781e-05
-0.000154018
3.29416e-05
3.35535e-05
-0.000120658
-2.11805e-06
2.59054e-05
-7.75234e-06
6.82404e-05
-1.63449e-05
0.000103917
-2.7339e-05
0.000133455
-4.01906e-05
0.00015732
-5.43776e-05
0.000175964
-6.9402e-05
0.000189791
-8.47886e-05
0.000199135
-0.000100077
0.000204234
-0.000114809
0.000205222
-0.000128509
0.000202113
-0.000140655
0.000194803
-0.00015064
0.000183086
-0.000157719
0.000166691
-0.000160938
0.000145368
-0.000159058
0.000119043
-0.000150484
8.81162e-05
-0.00013328
5.40283e-05
-0.000105443
2.02404e-05
-6.61798e-05
-6.32117e-06
-1.31306e-05
-1.94957e-05
-1.85138e-06
2.77567e-05
-6.7734e-06
7.31624e-05
-1.4242e-05
0.000111386
-2.37158e-05
0.000142929
-3.46542e-05
0.000168258
-4.65281e-05
0.000187838
-5.88246e-05
0.000202088
-7.10457e-05
0.000211356
-8.27025e-05
0.000215891
-9.3303e-05
0.000215823
-0.000102334
0.000211145
-0.000109236
0.000201705
-0.000113364
0.000187214
-0.000113935
0.000167262
-0.000109949
0.000141382
-0.000100083
0.000109176
-8.25604e-05
7.0594e-05
-5.50397e-05
2.65077e-05
-1.46204e-05
-2.01789e-05
4.14355e-05
-6.23771e-05
-8.21387e-05
0.000110444
-1.58554e-06
2.93423e-05
-5.78041e-06
7.73573e-05
-1.20777e-05
0.000117683
-1.99357e-05
0.000150787
-2.88018e-05
0.000177124
-3.81238e-05
0.00019716
-4.73561e-05
0.00021132
-5.59577e-05
0.000219957
-6.3387e-05
0.00022332
-6.90902e-05
0.000221526
-7.24853e-05
0.00021454
-7.29395e-05
0.00020216
-6.97362e-05
0.000184011
-6.20264e-05
0.000159552
-4.8761e-05
0.000128117
-2.85657e-05
8.89812e-05
4.2184e-07
4.16065e-05
4.07776e-05
-1.38481e-05
9.59083e-05
-7.53096e-05
0.000169558
-0.000136027
-0.000176885
0.000264305
-1.32949e-06
3.06718e-05
-4.80089e-06
8.08287e-05
-9.90269e-06
0.000122785
-1.60735e-05
0.000156957
-2.27294e-05
0.00018378
-2.92766e-05
0.000203707
-3.5115e-05
0.000217158
-3.96364e-05
0.000224479
-4.2217e-05
0.000225901
-4.22062e-05
0.000221515
-3.89109e-05
0.000211244
-3.15775e-05
0.000194826
-1.93646e-05
0.000171798
-1.30852e-06
0.000141496
2.37466e-05
0.000103062
5.72114e-05
5.55164e-05
0.000100961
-2.14351e-06
0.000157582
-7.04687e-05
0.000230747
-0.000148475
0.000325375
-0.000230655
-0.00029843
0.000446919
-1.09152e-06
3.17633e-05
-3.85982e-06
8.3597e-05
-7.7625e-06
0.000126687
-1.21953e-05
0.00016139
-1.6522e-05
0.000188107
-2.00844e-05
0.000207269
-2.22042e-05
0.000219278
-2.21777e-05
0.000224452
-1.92655e-05
0.000222989
-1.26795e-05
0.000214929
-1.56737e-06
0.000200132
1.50058e-05
0.000178253
3.80736e-05
0.00014873
6.87945e-05
0.000110775
0.000108478
6.33786e-05
0.000158653
5.34141e-06
0.000221153
-6.4644e-05
0.000298442
-0.000147757
0.000394022
-0.000244055
0.000513029
-0.000349662
-0.000449865
0.000664464
-8.78295e-07
3.26416e-05
-2.97653e-06
8.56952e-05
-5.69107e-06
0.000129402
-8.34907e-06
0.000164048
-1.02376e-05
0.000189995
-1.06098e-05
0.000207642
-8.68177e-06
0.00021735
-3.62325e-06
0.000219394
5.45775e-06
0.000213908
1.9531e-05
0.000200856
3.96614e-05
0.000180002
6.70235e-05
0.000150891
0.000102916
0.000112837
0.000148771
6.49205e-05
0.000206154
5.9957e-06
0.000276773
-6.52775e-05
0.000362507
-0.000150378
0.000465561
-0.000250812
0.000588942
-0.000367435
0.00073695
-0.00049767
-0.000635042
0.000922127
-6.93892e-07
3.33355e-05
-2.16138e-06
8.71627e-05
-3.7041e-06
0.000130945
-4.55236e-06
0.000164897
-3.88993e-06
0.000189333
-8.53951e-07
0.000204606
5.4743e-06
0.000211022
1.60871e-05
0.000208781
3.20685e-05
0.000197926
5.46161e-05
0.000178308
8.50595e-05
0.000149559
0.000124874
0.000111076
0.000175688
6.20231e-05
0.000239274
1.33489e-06
0.000317524
-7.22547e-05
0.000412409
-0.000160163
0.000525909
-0.000263878
0.000659986
-0.000384889
0.000816935
-0.000524384
0.000999373
-0.000680108
-0.000857906
0.00122224
-5.38755e-07
3.38742e-05
-1.41244e-06
8.80364e-05
-1.79271e-06
0.000131325
-7.80892e-07
0.000163885
2.5683e-06
0.000185984
9.2659e-06
0.000197908
2.04003e-05
0.000199888
3.71621e-05
0.000192019
6.08708e-05
0.000174218
9.29989e-05
0.00014618
0.000135191
0.000107366
0.000189275
5.69925e-05
0.000257252
-5.9542e-06
0.000341275
-8.26873e-05
0.000443582
-0.000174562
0.00056641
-0.000282991
0.000711843
-0.00040931
0.000881608
-0.000554654
0.00107713
-0.000719905
0.00129913
-0.000902105
-0.00112113
0.00156235
-4.08884e-07
3.42831e-05
-7.13235e-07
8.83407e-05
8.84628e-08
0.000130523
3.03802e-06
0.000160935
9.25924e-06
0.000179762
1.99404e-05
0.000187227
3.63755e-05
0.000183452
5.99963e-05
0.000168398
9.24029e-05
0.000141811
0.000135389
0.000103194
0.000190959
5.17961e-05
0.000261324
-1.33717e-05
0.000348874
-9.35044e-05
0.000456121
-0.000189934
0.000585591
-0.000304032
0.00073967
-0.000437069
0.000920388
-0.000590029
0.00112913
-0.000763397
0.00136614
-0.000956915
0.00163095
-0.00116691
-0.00142402
0.00193384
-2.95408e-07
3.45785e-05
-2.3942e-08
8.80693e-05
1.99669e-06
0.000128503
7.03187e-06
0.0001559
1.63885e-05
0.000170406
3.14747e-05
0.000172141
5.38337e-05
0.000161093
8.5183e-05
0.000137049
0.000127448
9.95456e-05
0.000182786
4.78557e-05
0.000253586
-1.90032e-05
0.000342444
-0.00010223
0.000452101
-0.000203162
0.000585333
-0.000323166
0.000744773
-0.000463473
0.000932689
-0.000624985
0.00115069
-0.000808034
0.00139949
-0.0010122
0.00167766
-0.00123508
0.00198491
-0.00147417
-0.00176026
0.00232115
-1.86849e-07
3.47654e-05
6.81967e-07
8.72005e-05
4.0488e-06
0.000125136
1.13855e-05
0.000148563
2.42419e-05
0.000157549
4.42861e-05
0.000152097
7.33542e-05
0.000132025
0.000113494
9.6909e-05
0.000166997
4.60429e-05
0.000236404
-2.15513e-05
0.000324485
-0.000107084
0.000434171
-0.000211915
0.000568433
-0.000337424
0.000730099
-0.000484832
0.000921605
-0.000654979
0.00114468
-0.000848058
0.00139998
-0.00106334
0.00168692
-0.00129914
0.00200196
-0.00155011
0.0023459
-0.00181811
-0.00211677
0.00270241
-6.48201e-08
3.48302e-05
1.49077e-06
8.56449e-05
6.37565e-06
0.000120251
1.63281e-05
0.000138611
3.31733e-05
0.000140704
5.88821e-05
0.000126388
9.56267e-05
9.52807e-05
0.000145823
4.67124e-05
0.000212149
-2.02825e-05
0.00029752
-0.000106923
0.000405027
-0.000214591
0.000537798
-0.000344686
0.000698801
-0.000498428
0.000890575
-0.000676606
0.0011149
-0.000879299
0.00137242
-0.00110559
0.00166236
-0.00135327
0.00198213
-0.00161891
0.00232638
-0.00189436
0.00269442
-0.00218615
-0.00247321
0.00305086
9.59384e-08
3.47343e-05
2.46681e-06
8.3274e-05
9.12997e-06
0.000113588
2.2121e-05
0.00012562
4.35801e-05
0.000119245
7.58214e-05
9.41464e-05
0.000121389
4.97127e-05
0.000183088
-1.49863e-05
0.000263968
-0.000101163
0.000367258
-0.000210212
0.00049622
-0.000343553
0.000653934
-0.0005024
0.000842995
-0.000687489
0.00106516
-0.000898769
0.00132096
-0.0011351
0.00160941
-0.00139403
0.00192778
-0.00167165
0.00227145
-0.00196258
0.00263518
-0.00225809
0.00301049
-0.00256146
-0.00279609
0.00333336
3.11174e-07
3.44231e-05
3.68726e-06
7.98979e-05
1.24738e-05
0.000104801
2.90375e-05
0.000109056
5.58703e-05
9.24124e-05
9.56625e-05
5.43542e-05
0.000151349
-5.97394e-06
0.00022611
-8.97475e-05
0.000323306
-0.000198358
0.000446328
-0.000333235
0.000598365
-0.00049559
0.000782069
-0.000686104
0.000999163
-0.000904583
0.00125003
-0.00114963
0.00153334
-0.00141842
0.0018459
-0.00170659
0.00218271
-0.00200846
0.00253704
-0.00231691
0.0029043
-0.00262534
0.00327185
-0.00292901
-0.00320055
0.00367631
6.06543e-07
3.38165e-05
5.22952e-06
7.52749e-05
1.65658e-05
9.3465e-05
3.73406e-05
8.82812e-05
7.04252e-05
5.93277e-05
0.000118903
5.87623e-06
0.00018609
-7.31609e-05
0.000275481
-0.000179138
0.000390607
-0.000313484
0.000534783
-0.000477411
0.000710753
-0.00067156
0.000920254
-0.000895605
0.00116356
-0.00114788
0.00143907
-0.00142515
0.00174315
-0.0017225
0.00207015
-0.00203358
0.00241283
-0.00235114
0.00276323
-0.00266732
0.00311419
-0.00297629
0.00345633
-0.00327115
-0.00354872
0.0038045
1.00188e-06
3.28147e-05
7.16366e-06
6.91132e-05
2.15483e-05
7.90804e-05
4.72593e-05
6.25702e-05
8.75609e-05
1.9026e-05
0.000145922
-5.24847e-05
0.000225985
-0.000153224
0.000331435
-0.000284589
0.000465749
-0.000447798
0.000631816
-0.000643477
0.000831466
-0.00087121
0.00106496
-0.0011291
0.00133057
-0.00141349
0.00162432
-0.0017189
0.00194007
-0.00203825
0.00226998
-0.00236349
0.00260529
-0.00268645
0.00293746
-0.00299949
0.0032589
-0.00329773
0.00356362
-0.00357588
-0.00383746
0.00385236
1.51433e-06
3.13003e-05
9.5481e-06
6.10794e-05
2.75365e-05
6.10921e-05
5.89687e-05
3.11379e-05
0.000107495
-2.95001e-05
0.000176924
-0.000121914
0.000271119
-0.000247418
0.000393751
-0.000407222
0.000547922
-0.000601968
0.000735653
-0.000831209
0.000957333
-0.00109289
0.00121123
-0.001383
0.0014932
-0.00169547
0.0017968
-0.0020225
0.00211374
-0.00235519
0.00243478
-0.00268453
0.00275083
-0.0030025
0.00305409
-0.00330275
0.00333872
-0.00358236
0.00360117
-0.00383833
-0.00407868
0.00384238
2.15718e-06
2.91431e-05
1.24264e-05
5.08102e-05
3.46106e-05
3.89078e-05
7.25754e-05
-6.82684e-06
0.00013032
-8.72447e-05
0.000211904
-0.000203499
0.000321235
-0.000356748
0.000461685
-0.000547672
0.000635573
-0.000775857
0.000843556
-0.00103919
0.00108407
-0.00133341
0.00135302
-0.00165194
0.00164378
-0.00198623
0.00194776
-0.00232649
0.00225537
-0.0026628
0.00255717
-0.00298633
0.00284509
-0.00329042
0.0031134
-0.00357106
0.00335892
-0.00382787
0.0035814
-0.00406081
-0.00427965
0.00378237
2.93953e-06
2.62036e-05
1.58255e-05
3.79243e-05
4.28112e-05
1.19221e-05
8.81067e-05
-5.21223e-05
0.000155987
-0.000155125
0.000250619
-0.00029813
0.000375704
-0.000481834
0.000533953
-0.000705921
0.000726437
-0.000968341
0.00095196
-0.00126471
0.00120664
-0.00158808
0.00148389
-0.00192919
0.00177495
-0.00227729
0.00206992
-0.00262145
0.00235901
-0.00295189
0.0026339
-0.00326122
0.0028887
-0.00354522
0.00312046
-0.00380282
0.00332892
-0.00403633
0.0035164
-0.0042483
-0.00444908
0.00368583
3.86654e-06
2.23371e-05
1.97556e-05
2.20352e-05
5.21373e-05
-2.04596e-05
0.000105506
-0.000105491
0.000184297
-0.000233917
0.000292576
-0.000406409
0.000433522
-0.00062278
0.000608758
-0.000881157
0.000817641
-0.00117722
0.00105673
-0.00150381
0.00131969
-0.00185104
0.00159773
-0.00220723
0.00188069
-0.00256025
0.00215841
-0.00289918
0.00242221
-0.00321568
0.00266589
-0.00350491
0.00288635
-0.00376568
0.00308346
-0.00399993
0.00325935
-0.00421222
0.00341803
-0.00440697
-0.00459419
0.00356313
4.93977e-06
1.73973e-05
2.42108e-05
2.76412e-06
6.25456e-05
-5.87943e-05
0.000124631
-0.000167576
0.000214895
-0.000324181
0.000337033
-0.000528547
0.000493328
-0.000779074
0.000683869
-0.0010717
0.000905898
-0.00139925
0.00115355
-0.00175145
0.0014182
-0.00211569
0.00168952
-0.00247855
0.00195697
-0.0028277
0.00221132
-0.00315353
0.00244593
-0.00345029
0.00265732
-0.0037163
0.00284515
-0.00395351
0.0030116
-0.00416638
0.00316039
-0.00436101
0.00329621
-0.00454279
-0.00472076
0.00342279
6.15753e-06
1.12398e-05
2.91688e-05
-2.02472e-05
7.39504e-05
-0.000103576
0.00014525
-0.000238876
0.000247272
-0.000426203
0.000383018
-0.000664293
0.00055346
-0.000949517
0.000756751
-0.00127499
0.000987768
-0.00163027
0.0012383
-0.00200198
0.00149799
-0.00237538
0.00175589
-0.00273645
0.00200215
-0.00307396
0.00222946
-0.00338083
0.00243376
-0.00365459
0.00261429
-0.00389684
0.00277301
-0.00411222
0.00291362
-0.00430699
0.00304057
-0.00448796
0.0031585
-0.00466072
-0.00483299
0.00327072
7.51483e-06
3.72495e-06
3.4591e-05
-4.73234e-05
8.62226e-05
-0.000155207
0.000167047
-0.0003197
0.000280775
-0.000539931
0.00042935
-0.000812869
0.000612037
-0.0011322
0.000824745
-0.0014877
0.00105997
-0.00186549
0.00130754
-0.00224956
0.00155619
-0.00262403
0.00179535
-0.00297562
0.00201685
-0.00329546
0.00221582
-0.0035798
0.00239088
-0.00382964
0.00254357
-0.00404953
0.00267741
-0.00424607
0.00279688
-0.00442646
0.00290644
-0.00459752
0.00301023
-0.0047645
-0.00493366
0.0031109
9.00308e-06
-5.27813e-06
4.04215e-05
-7.87418e-05
9.9189e-05
-0.000213975
0.000189618
-0.000410129
0.000314617
-0.00066493
0.000474696
-0.000972947
0.000667068
-0.00132458
0.000885273
-0.0017059
0.00111966
-0.00209987
0.00135879
-0.00248869
0.00159139
-0.00285663
0.00180825
-0.00319248
0.00200344
-0.00349066
0.00217472
-0.00375108
0.00232302
-0.00397795
0.00245157
-0.00417808
0.00256474
-0.00435923
0.0026671
-0.00452882
0.00276271
-0.00469314
0.00285498
-0.00485677
-0.00502454
0.00294587
1.06095e-05
-1.58876e-05
4.65857e-05
-0.000114718
0.000112631
-0.000280021
0.000212482
-0.000509979
0.000347908
-0.000800356
0.000517632
-0.00114267
0.000716597
-0.00152354
0.000936058
-0.00192536
0.00116472
-0.00232854
0.0013907
-0.00271467
0.00160365
-0.00306958
0.00179637
-0.00338519
0.00196543
-0.00365972
0.00211096
-0.00389661
0.0022357
-0.00410269
0.00234386
-0.00428624
0.00244003
-0.0044554
0.00252846
-0.00461725
0.00261259
-0.00477726
0.00269506
-0.00493924
-0.00510667
0.00277719
1.23166e-05
-2.82042e-05
5.29896e-05
-0.000155391
0.000126288
-0.000353319
0.000235089
-0.00061878
0.000379687
-0.000944955
0.000556735
-0.00131972
0.000758845
-0.00172565
0.000975306
-0.00214182
0.00119388
-0.00254711
0.00140309
-0.00292388
0.00159425
-0.00326074
0.00176249
-0.00355344
0.00190682
-0.00380405
0.00202928
-0.00401907
0.00213377
-0.00420718
0.00222489
-0.00437736
0.00230704
-0.00453755
0.0023839
-0.00469411
0.00245821
-0.00485158
0.00253194
-0.00501297
-0.0051806
0.00260587
1.41014e-05
-4.23056e-05
5.952e-05
-0.00020081
0.000139861
-0.000433661
0.000256843
-0.000735762
0.000408979
-0.00109709
0.000590673
-0.00150141
0.000792344
-0.00192732
0.00100183
-0.00235131
0.00120673
-0.00275201
0.00139675
-0.0031139
0.0015653
-0.00342929
0.0017099
-0.00369804
0.00183163
-0.00392577
0.00193389
-0.00412133
0.0020212
-0.00429449
0.00209809
-0.00445425
0.00216848
-0.00460795
0.00223541
-0.00476103
0.00230096
-0.00491713
0.00236654
-0.00507855
-0.00524659
0.00243253
1.59355e-05
-5.82411e-05
6.60458e-05
-0.00025092
0.000153022
-0.000520637
0.000277128
-0.000859868
0.000434845
-0.00125481
0.0006183
-0.00168487
0.000816039
-0.00212506
0.00101511
-0.00255038
0.00120369
-0.00294058
0.00137322
-0.00328343
0.00151941
-0.00357548
0.00164196
-0.0038206
0.00174354
-0.00402735
0.00182838
-0.00420618
0.00190113
-0.00436724
0.00196598
-0.00451909
0.00202624
-0.00466821
0.00208431
-0.0048191
0.00214175
-0.00497457
0.00219948
-0.00513628
-0.00530474
0.00225763
1.77855e-05
-7.60265e-05
7.2422e-05
-0.000305557
0.000165426
-0.000613641
0.000295336
-0.000989777
0.000456445
-0.00141592
0.00063873
-0.00186715
0.000829339
-0.00231567
0.00101522
-0.00273627
0.00118578
-0.00311114
0.00133452
-0.00343217
0.00145937
-0.00370033
0.00156185
-0.00392308
0.00164573
-0.00411122
0.00171561
-0.00427606
0.00177593
-0.00442756
0.00183036
-0.00457352
0.00188161
-0.00471946
0.00193151
-0.004869
0.00198117
-0.00502423
0.00203119
-0.0051863
-0.00535506
0.00208151
1.96137e-05
-9.56402e-05
7.84945e-05
-0.000364437
0.000176729
-0.000711875
0.000310907
-0.00112396
0.000473092
-0.0015781
0.000651383
-0.00204544
0.000832113
-0.0024964
0.00100279
-0.00290694
0.00115448
-0.00326283
0.00128287
-0.00356056
0.00138787
-0.00380533
0.00147239
-0.0040076
0.00154083
-0.00417966
0.0015978
-0.00433303
0.00164734
-0.0044771
0.00169251
-0.0046187
0.00173548
-0.00476243
0.00177761
-0.00491112
0.00181967
-0.0050663
0.00186202
-0.00522865
-0.00539752
0.00190449
2.13792e-05
-0.000117019
8.41065e-05
-0.000427165
0.000186604
-0.000814372
0.000323357
-0.00126071
0.000484282
-0.00173903
0.000656003
-0.00221717
0.000824643
-0.00266504
0.00097881
-0.00306111
0.00111152
-0.00339554
0.00122053
-0.00366957
0.0013074
-0.0038922
0.00137599
-0.00407619
0.00143096
-0.00423463
0.00147666
-0.00437874
0.00151662
-0.00451705
0.00155334
-0.00465542
0.00158849
-0.00479758
0.00162305
-0.00494569
0.00165758
-0.00510082
0.00169224
-0.00526332
-0.0054321
0.00172682
2.304e-05
-0.000140059
8.91057e-05
-0.00049323
0.000194756
-0.000920022
0.000332304
-0.00139826
0.000489721
-0.00189644
0.000652641
-0.00238009
0.000807548
-0.00281995
0.000944558
-0.00319812
0.0010587
-0.00350969
0.0011496
-0.00376047
0.0012201
-0.0039627
0.00127461
-0.0041307
0.00131774
-0.00427776
0.00135345
-0.00441445
0.0013847
-0.0045483
0.00141349
-0.00468422
0.00144108
-0.00482516
0.00146818
-0.00497279
0.00149518
-0.00512782
0.00152212
-0.00529026
-0.00545875
0.00154877
2.45538e-05
-0.000164613
9.33512e-05
-0.000562028
0.000200939
-0.00102761
0.000337486
-0.0015348
0.000489323
-0.00204828
0.000641613
-0.00253238
0.000781691
-0.00296003
0.000901427
-0.00331785
0.000997808
-0.00360607
0.00107203
-0.00383469
0.00112782
-0.00401849
0.00116984
-0.00417272
0.00120245
-0.00431036
0.0012291
-0.00444111
0.00125224
-0.00457144
0.00127343
-0.0047054
0.0012936
-0.00484533
0.00131327
-0.00499247
0.0013327
-0.00514725
0.00135188
-0.00530943
-0.00547745
0.00137058
2.58806e-05
-0.000190494
9.67196e-05
-0.000632867
0.000204967
-0.00113586
0.000338767
-0.0016686
0.000483195
-0.00219271
0.000623443
-0.00267262
0.000748085
-0.00308467
0.000850842
-0.00342061
0.000930487
-0.00368572
0.00098946
-0.00389366
0.00103206
-0.0040611
0.00106293
-0.00420358
0.00108603
-0.00433347
0.00110432
-0.0044594
0.00111975
-0.00458688
0.00113353
-0.00471918
0.00114634
-0.00485814
0.00115857
-0.00500469
0.00117039
-0.00515906
0.00118174
-0.00532079
-0.00548819
0.00119248
2.6984e-05
-0.000217478
9.91107e-05
-0.000704994
0.000206719
-0.00124347
0.000336136
-0.00179802
0.000471607
-0.00232818
0.000598809
-0.00279983
0.000707814
-0.00319367
0.000794179
-0.00350698
0.000858227
-0.00374976
0.000903326
-0.00393876
0.000934058
-0.00409183
0.000954845
-0.00422437
0.000969214
-0.00434783
0.000979621
-0.0044698
0.000987609
-0.00459487
0.00099408
-0.00472565
0.000999547
-0.00486361
0.00100429
-0.00500944
0.00100844
-0.00516321
0.00101193
-0.00532428
-0.00549092
0.00101466
2.78326e-05
-0.00024531
0.000100451
-0.000777612
0.000206141
-0.00134916
0.000329693
-0.00192157
0.000454957
-0.00245344
0.000568477
-0.00291335
0.000661968
-0.00328716
0.000732714
-0.00357772
0.000782324
-0.00379937
0.000814802
-0.00397124
0.000834778
-0.0041118
0.000846345
-0.00423594
0.000852558
-0.00435405
0.00085542
-0.00447266
0.000856122
-0.00459557
0.000855338
-0.00472486
0.000853446
-0.00486172
0.00085066
-0.00500665
0.000847069
-0.00515962
0.000842629
-0.00531984
-0.0054856
0.000837311
2.84009e-05
-0.000273711
0.000100694
-0.000849904
0.000203243
-0.00145171
0.000319632
-0.00203796
0.000433737
-0.00256755
0.000533255
-0.00301287
0.000611594
-0.0033655
0.000667597
-0.00363372
0.000703889
-0.00383567
0.000724853
-0.0039922
0.000734996
-0.00412195
0.000738013
-0.00423895
0.000736494
-0.00435253
0.000732041
-0.00446821
0.000725558
-0.00458908
0.000717536
-0.00471684
0.000708256
-0.00485244
0.000697881
-0.00499628
0.000686486
-0.00514822
0.000674045
-0.0053074
-0.00547212
0.000660559
2.86706e-05
-0.000302382
9.98233e-05
-0.000921057
0.000198095
-0.00154998
0.000306225
-0.00214609
0.00040849
-0.00266981
0.000493949
-0.00309833
0.000557664
-0.00342921
0.000599837
-0.0036759
0.000623852
-0.00385968
0.00063426
-0.00400261
0.000635322
-0.00412301
0.000630306
-0.00423394
0.000621366
-0.00434359
0.00060976
-0.00445661
0.000596158
-0.00457548
0.000580907
-0.00470159
0.000564204
-0.00483574
0.000546173
-0.00497825
0.000526892
-0.00512894
0.000506368
-0.00528687
-0.00545029
0.000484536
2.86305e-05
-0.000331012
9.78496e-05
-0.000990276
0.000190815
-0.00164294
0.000289795
-0.00224507
0.000379788
-0.00275981
0.000451333
-0.00316987
0.000501058
-0.00347894
0.000530303
-0.00370514
0.000542984
-0.00387236
0.000543649
-0.00400327
0.000536238
-0.0041156
0.000523585
-0.00422129
0.000507455
-0.00432746
0.000488816
-0.00443797
0.000468149
-0.00455482
0.00044569
-0.00467913
0.000421559
-0.00481161
0.00039583
-0.00495252
0.00036855
-0.00510166
0.000339758
-0.00525808
-0.00542005
0.000309526
2.82763e-05
-0.000359289
9.48074e-05
-0.00105681
0.000181562
-0.0017297
0.000270698
-0.00233421
0.000348197
-0.0028373
0.00040613
-0.0032278
0.000442553
-0.00351536
0.000459732
-0.00372232
0.000461916
-0.00387455
0.000453522
-0.00399488
0.000438123
-0.0041002
0.000418141
-0.0042013
0.000394996
-0.00430431
0.000369419
-0.00441239
0.000341743
-0.00452714
0.000312115
-0.00464951
0.000280606
-0.0047801
0.000247258
-0.00491917
0.000212017
-0.00506642
0.000174466
-0.00522053
-0.00538121
0.000135623
2.76107e-05
-0.000386899
9.07526e-05
-0.00111995
0.000170522
-0.00180947
0.000249307
-0.00241299
0.000314267
-0.00290226
0.000358996
-0.00327253
0.000382825
-0.00353919
0.000388743
-0.00372824
0.00038116
-0.00386696
0.000364277
-0.003978
0.000341279
-0.0040772
0.000314209
-0.00417423
0.00028419
-0.0042743
0.000251757
-0.00437996
0.000217127
-0.00449251
0.000180377
-0.00461276
0.000141559
-0.00474128
0.000100729
-0.00487834
5.80813e-05
-0.00502377
1.36209e-05
-0.00517607
-0.00533019
-3.73988e-05
2.66427e-05
-0.000413542
8.57576e-05
-0.00117906
0.0001579
-0.00188161
0.000225993
-0.00248108
0.000278511
-0.00295478
0.000310518
-0.00330454
0.000322454
-0.00355113
0.000317845
-0.00372363
0.000301131
-0.00385025
0.000276232
-0.0039531
0.000245952
-0.00404692
0.000211987
-0.00414027
0.000175212
-0.00423752
0.000136005
-0.00434075
9.44807e-05
-0.00445099
5.06553e-05
-0.00456893
4.53475e-06
-0.00469516
-4.37284e-05
-0.00483008
-9.414e-05
-0.00497336
-0.000147216
-0.00512299
-0.00527608
-0.000201328
2.53863e-05
-0.000438928
7.99077e-05
-0.00123359
0.000143912
-0.00194561
0.000201117
-0.00253829
0.0002414
-0.00299506
0.000261212
-0.00332435
0.00026193
-0.00355184
0.000247458
-0.00370916
0.000222161
-0.00382495
0.000189642
-0.00392058
0.000152339
-0.00400962
0.000111644
-0.00409957
6.82145e-05
-0.00419409
2.2305e-05
-0.00429484
-2.60294e-05
-0.00440265
-7.68223e-05
-0.00451814
-0.000130082
-0.0046419
-0.000185788
-0.00477437
-0.000243907
-0.00491524
-0.000304293
-0.00506261
-0.00521432
-0.00036605
2.38602e-05
-0.000462789
7.32968e-05
-0.00128302
0.000128772
-0.00200109
0.000175021
-0.00258454
0.000203361
-0.0030234
0.000211523
-0.00333251
0.000201664
-0.00354199
0.000177924
-0.00368542
0.000144517
-0.00379155
0.000104712
-0.00388077
6.05992e-05
-0.0039655
1.3301e-05
-0.00405228
-3.66604e-05
-0.00414413
-8.91573e-05
-0.00424234
-0.000144217
-0.00434759
-0.000201912
-0.00446044
-0.000262292
-0.00458152
-0.000325339
-0.00471133
-0.000390927
-0.00484965
-0.000458767
-0.00499477
-0.00514448
-0.000528609
2.20865e-05
-0.000484875
6.60233e-05
-0.00132696
0.000112692
-0.00204776
0.000148022
-0.00261987
0.00016477
-0.00304015
0.000161832
-0.00332958
0.000141995
-0.00352215
0.00010952
-0.00365294
6.84142e-05
-0.00375044
2.15987e-05
-0.00383396
-2.91241e-05
-0.00391478
-8.28566e-05
-0.00399854
-0.000139265
-0.00408772
-0.000198273
-0.00418333
-0.000259958
-0.00428591
-0.000324445
-0.00439595
-0.000391838
-0.00451412
-0.000462136
-0.00464103
-0.000535175
-0.00477661
-0.000610652
-0.00491929
-0.00506672
-0.000688411
2.00903e-05
-0.000504965
5.8188e-05
-0.00136506
9.58748e-05
-0.00208545
0.000120407
-0.0026444
0.00012596
-0.00304571
0.000112464
-0.00331608
8.32035e-05
-0.00349289
4.24669e-05
-0.00361221
-5.99692e-06
-0.00370198
-5.95408e-05
-0.00378042
-0.000116701
-0.00385762
-0.00017677
-0.00393847
-0.000239507
-0.00402498
-0.00030491
-0.00411793
-0.000373098
-0.00421772
-0.000444247
-0.00432481
-0.000518517
-0.00443985
-0.000595951
-0.00456359
-0.000676386
-0.00469618
-0.000759482
-0.00483619
-0.00498118
-0.00084502
1.78991e-05
-0.000522865
4.98912e-05
-0.00139705
7.85105e-05
-0.00211406
9.24406e-05
-0.00265833
8.72149e-05
-0.00304048
6.36863e-05
-0.00329255
2.55233e-05
-0.00345472
-2.30451e-05
-0.00356364
-7.85168e-05
-0.00364651
-0.000138607
-0.00372033
-0.000202056
-0.00379417
-0.000268327
-0.0038722
-0.000337273
-0.00395604
-0.000408945
-0.00404626
-0.000483499
-0.00414316
-0.000561156
-0.00424715
-0.000642142
-0.00435887
-0.000726571
-0.00447916
-0.000814317
-0.00460843
-0.000904972
-0.00474554
-0.004888
-0.000998154
1.55434e-05
-0.000538408
4.12315e-05
-0.00142274
6.07793e-05
-0.00213361
6.43538e-05
-0.00266191
4.87805e-05
-0.00302491
1.57591e-05
-0.00325953
-3.08591e-05
-0.00340811
-8.68817e-05
-0.00350762
-0.000149102
-0.00358428
-0.000215517
-0.00365391
-0.000285096
-0.00372459
-0.000357438
-0.00379986
-0.000432466
-0.00388101
-0.00051027
-0.00396846
-0.000591035
-0.0040624
-0.00067502
-0.00416316
-0.000762521
-0.00427137
-0.000853755
-0.00438793
-0.000948666
-0.00451352
-0.00104678
-0.00464743
-0.00478733
-0.00114745
1.30601e-05
-0.000551468
3.23079e-05
-0.00144198
4.28482e-05
-0.00214415
3.63534e-05
-0.00265541
1.0974e-05
-0.00299953
-3.11887e-05
-0.00321737
-8.58107e-05
-0.00335348
-0.000148936
-0.00344449
-0.000217643
-0.00351558
-0.000290192
-0.00358136
-0.00036575
-0.00364903
-0.000444025
-0.00372159
-0.000525
-0.00380003
-0.00060879
-0.00388467
-0.000695597
-0.00397559
-0.000785708
-0.00407305
-0.000879487
-0.00417759
-0.00097727
-0.00429015
-0.00107913
-0.00441166
-0.00118454
-0.00454201
-0.0046793
-0.00129257
1.04854e-05
-0.000561953
2.32155e-05
-0.00145471
2.48695e-05
-0.00214581
8.77947e-06
-0.00263932
-2.62927e-05
-0.00296445
-7.70083e-05
-0.00316665
-0.000139213
-0.00329128
-0.000209118
-0.00337459
-0.000284069
-0.00344063
-0.000362571
-0.00350286
-0.000443954
-0.00356765
-0.000528022
-0.00363752
-0.000614801
-0.00371326
-0.000704423