/*--------------------------------*- C++ -*----------------------------------*\
  =========                 |
  \\      /  F ield         | OpenFOAM: The Open Source CFD Toolbox
   \\    /   O peration     | Website:  https://openfoam.org
    \\  /    A nd           | Version:  7
     \\/     M anipulation  |
\*---------------------------------------------------------------------------*/
FoamFile
{
    version     2.0;
    format      ascii;
    class       volVectorField;
    location    "55";
    object      U;
}
// * * * * * * * * * * * * * * * * * * * * * * * * * * * * * * * * * * * * * //

dimensions      [0 1 -1 0 0 0 0];

internalField   nonuniform List<vector> 
8820
(
(-0.000592989 0.000582852 0)
(-0.00338479 0.00139953 0)
(-0.00880714 0.00193059 0)
(-0.0157075 0.0022397 0)
(-0.0235034 0.00237173 -6.64696e-21)
(-0.0318017 0.0023613 -6.27648e-21)
(-0.0402629 0.00223577 -1.18171e-20)
(-0.0486156 0.0020159 0)
(-0.0566481 0.00171726 2.09408e-20)
(-0.0641949 0.00135192 -9.84133e-21)
(-0.0711281 0.000930247 7.27699e-24)
(-0.0773522 0.000462672 1.73596e-20)
(-0.0828022 -3.84498e-05 -8.13423e-21)
(-0.0874464 -0.000557142 0)
(-0.0912911 -0.00107237 7.13712e-21)
(-0.0943889 -0.00155721 6.67979e-21)
(-0.0968566 -0.00197927 0)
(-0.0989017 -0.00230316 2.33556e-20)
(-0.100736 -0.00249412 0)
(-0.102349 -0.00251998 0)
(-0.104562 -0.00237041 0)
(-0.000691076 0.0020337 0)
(-0.00361115 0.00500959 -3.14021e-20)
(-0.00909662 0.00709523 -2.97623e-20)
(-0.0160144 0.00847579 0)
(-0.0237935 0.00928344 0)
(-0.0320488 0.0096243 1.25366e-20)
(-0.0404478 0.00958648 1.18171e-20)
(-0.0487244 0.00924093 -2.22769e-20)
(-0.0566708 0.00864427 2.09499e-20)
(-0.0641245 0.00784239 5.70444e-24)
(-0.0709588 0.00687453 0)
(-0.0770781 0.00577778 -1.73549e-20)
(-0.0824155 0.00459205 0)
(-0.0869352 0.00336528 0)
(-0.0906373 0.0021582 0)
(-0.0935659 0.00104782 1.33708e-20)
(-0.0958287 0.000127636 0)
(-0.0976259 -0.000498042 -2.33555e-20)
(-0.0991669 -0.000723456 2.18005e-20)
(-0.100438 -0.000446969 -4.07442e-20)
(-0.102273 0.000370907 1.94109e-20)
(-0.000888751 0.00345269 3.13078e-20)
(-0.00406574 0.00854495 3.14021e-20)
(-0.00967299 0.0121597 8.93915e-20)
(-0.0166183 0.0145984 0)
(-0.0243541 0.0160776 5.32797e-20)
(-0.0325121 0.0167726 0)
(-0.0407739 0.0168304 2.36853e-20)
(-0.0488839 0.0163707 -2.22721e-20)
(-0.0566429 0.0154898 4.19713e-20)
(-0.0638937 0.014266 0)
(-0.070513 0.0127657 0)
(-0.0764053 0.0110502 3.47547e-20)
(-0.0815003 0.00918416 4.08559e-24)
(-0.0857546 0.00724403 -1.2215e-19)
(-0.0891563 0.00532679 1.55762e-23)
(-0.0917331 0.003557 5.35126e-20)
(-0.093574 0.00208919 0)
(-0.094864 0.00110092 -4.66817e-20)
(-0.0958063 0.000779418 8.72723e-20)
(-0.0963758 0.00131321 0)
(-0.0974279 0.00279079 -3.89189e-20)
(-0.00118079 0.00481694 -6.26537e-20)
(-0.00473684 0.0119518 0)
(-0.0105212 0.0170512 -8.95206e-20)
(-0.0175023 0.0205246 -2.81934e-20)
(-0.0251672 0.0226673 1.16386e-22)
(-0.0331722 0.0237199 -1.00726e-19)
(-0.0412193 0.0238855 1.42307e-19)
(-0.0490692 0.0233302 5.53277e-23)
(-0.0565348 0.0221879 -8.39505e-20)
(-0.0634677 0.0205669 -7.9042e-20)
(-0.0697497 0.0185579 7.42311e-20)
(-0.0752861 0.0162429 -6.96547e-20)
(-0.0800028 0.0137067 1.30551e-19)
(-0.0838465 0.0110487 1.22247e-19)
(-0.0867885 0.00839595 -5.72349e-20)
(-0.0888332 0.00591554 -1.3723e-23)
(-0.0900414 0.00382133 -5.00481e-20)
(-0.0905732 0.00236935 0)
(-0.0906201 0.00184431 -5.7127e-23)
(-0.0901355 0.00255082 -8.13802e-20)
(-0.0899932 0.00466384 3.90942e-20)
(-0.00155941 0.00610498 -3.14459e-20)
(-0.0056071 0.0151792 0)
(-0.0116192 0.0217003 5.97419e-20)
(-0.0186418 0.0261739 -5.65374e-20)
(-0.0262063 0.0289669 1.08589e-22)
(-0.0340005 0.0303802 -5.04845e-20)
(-0.0417524 0.0306691 1.42756e-19)
(-0.0492438 0.0300427 4.48898e-20)
(-0.0563036 0.0286699 0)
(-0.062795 0.0266862 7.89725e-20)
(-0.0686071 0.0242032 -1.48505e-19)
(-0.0736476 0.0213193 -6.98544e-20)
(-0.077839 0.0181332 5.16465e-23)
(-0.081117 0.0147596 -6.11736e-20)
(-0.0834339 0.011347 -1.14675e-19)
(-0.0847653 0.00809604 0)
(-0.085135 0.00527479 4.99985e-20)
(-0.0846679 0.00322104 -1.40233e-19)
(-0.0835356 0.00233552 0)
(-0.0816567 0.00307837 -8.12057e-20)
(-0.0798981 0.00577019 1.54658e-19)
(-0.00201464 0.00729736 0)
(-0.00665419 0.0181803 1.27061e-19)
(-0.0129384 0.0260419 1.20073e-19)
(-0.0200052 0.0314696 5.70561e-20)
(-0.0274375 0.0348933 1.07431e-19)
(-0.0349601 0.0366683 5.06083e-20)
(-0.0423322 0.0370969 -4.74438e-20)
(-0.0493603 0.0364282 -1.79279e-19)
(-0.0558926 0.0348627 0)
(-0.0618068 0.0325602 1.58628e-19)
(-0.0670016 0.0296498 7.45661e-20)
(-0.071389 0.0262412 2.79558e-19)
(-0.0748894 0.0224404 -6.54917e-20)
(-0.0774288 0.0183683 0)
(-0.0789398 0.0141831 -2.02896e-22)
(-0.0793669 0.0101064 -1.07357e-19)
(-0.0786904 0.00644921 1.00228e-19)
(-0.0769888 0.00362838 -3.10698e-23)
(-0.0744071 0.00217643 -8.71331e-20)
(-0.070815 0.00275251 8.11033e-20)
(-0.0670043 0.00590443 0)
(-0.00253469 0.0083773 6.35609e-20)
(-0.00785177 0.0209137 -1.90576e-19)
(-0.0144452 0.030017 0)
(-0.0215549 0.0363403 -1.70814e-19)
(-0.0288204 0.0403669 -5.3666e-20)
(-0.0360072 0.0424997 0)
(-0.0429093 0.0430835 0)
(-0.0493609 0.0424029 0)
(-0.0552322 0.0406874 -8.47671e-20)
(-0.0604175 0.0381182 7.98775e-20)
(-0.0648272 0.0348383 -7.45649e-20)
(-0.0683796 0.0309645 -1.39903e-19)
(-0.0709953 0.0266038 0)
(-0.0725928 0.0218734 0)
(-0.0730874 0.016928 2.29752e-19)
(-0.0723932 0.0119931 -4.24979e-22)
(-0.0704445 0.00740423 -2.00639e-19)
(-0.0672646 0.00364488 9.3488e-20)
(-0.0629693 0.00138386 8.71305e-20)
(-0.0573801 0.00151416 -3.98133e-23)
(-0.0510615 0.00491057 1.54107e-19)
(-0.00310655 0.00933129 0)
(-0.00917057 0.0233448 1.28242e-19)
(-0.0161023 0.0335739 0)
(-0.0232487 0.0407209 0)
(-0.0303089 0.0453125 1.08098e-19)
(-0.0370913 0.0477922 -2.03718e-19)
(-0.0434263 0.0485421 9.60497e-20)
(-0.0491782 0.0478789 -2.00896e-22)
(-0.0542403 0.0460578 -1.56866e-22)
(-0.0585251 0.0432793 4.75891e-22)
(-0.0619557 0.0396979 7.48697e-20)
(-0.0644585 0.0354341 0)
(-0.0659565 0.0305902 0)
(-0.0663635 0.0252718 0)
(-0.0655815 0.0196165 2.71221e-22)
(-0.0634991 0.0138345 3.2277e-19)
(-0.0600063 0.00826136 -1.00571e-19)
(-0.0550671 0.00342277 0)
(-0.0487766 0.000109934 0)
(-0.0409534 -0.000525507 -1.6195e-19)
(-0.031662 0.00287332 0)
(-0.00371662 0.0101496 -1.28582e-19)
(-0.0105797 0.0254465 -1.28242e-19)
(-0.0178696 0.0366698 0)
(-0.0250411 0.0445543 0)
(-0.0318528 0.0496606 -1.0875e-19)
(-0.0381561 0.0524663 0)
(-0.0438189 0.0533857 -9.6131e-20)
(-0.0487355 0.0527641 -9.11348e-20)
(-0.052823 0.05088 -1.707e-19)
(-0.0560118 0.0479514 -1.6006e-19)
(-0.0582379 0.0441428 -3.00449e-19)
(-0.059436 0.0395767 1.40902e-19)
(-0.0595323 0.0343482 0)
(-0.0584387 0.0285451 1.23743e-19)
(-0.0560479 0.0222774 -2.30754e-19)
(-0.0522291 0.0157209 2.16e-19)
(-0.0468346 0.00918398 0)
(-0.0397681 0.00319803 0)
(-0.0311081 -0.00135945 0)
(-0.0207666 -0.00302851 0)
(-0.00813345 0.000481618 1.52906e-19)
(-0.00435143 0.0108267 -5.80597e-22)
(-0.0120478 0.0272003 1.29069e-19)
(-0.0197058 0.0392716 -2.45029e-19)
(-0.0268839 0.0477926 1.15466e-19)
(-0.0333976 0.0533492 3.27044e-19)
(-0.0391398 0.0564473 -2.05428e-19)
(-0.0440147 0.0575287 3.87232e-19)
(-0.0479461 0.056964 1.81619e-19)
(-0.0508735 0.0550532 2.56534e-19)
(-0.0527438 0.0520303 1.60617e-19)
(-0.0535039 0.04807 1.50729e-19)
(-0.0530949 0.0432972 0)
(-0.0514454 0.0377992 -2.64949e-19)
(-0.0484656 0.0316446 1.24055e-19)
(-0.0440416 0.0249098 -1.15944e-19)
(-0.0380284 0.0177217 6.18269e-22)
(-0.030248 0.0103319 2.02194e-19)
(-0.0205465 0.00322665 9.39873e-20)
(-0.00893165 -0.00270013 0)
(0.00473409 -0.00567387 0)
(0.0212184 -0.00213864 0)
(-0.00499837 0.0113615 -4.2899e-22)
(-0.0135447 0.0285969 1.3043e-19)
(-0.0215697 0.0413571 1.22949e-19)
(-0.0287271 0.0503985 1.1608e-19)
(-0.0348846 0.0563256 7.99912e-22)
(-0.0399738 0.0596673 -4.9223e-22)
(-0.0439325 0.0608893 -2.90929e-19)
(-0.0467117 0.0603844 1.82664e-19)
(-0.0482706 0.0584725 -3.42966e-19)
(-0.0485691 0.0554032 -1.60892e-19)
(-0.0475617 0.0513619 1.51203e-19)
(-0.0451916 0.0464776 -1.41817e-19)
(-0.0413859 0.0408333 1.3261e-19)
(-0.0360503 0.0344811 1.24149e-19)
(-0.0290648 0.0274649 -1.1627e-19)
(-0.0202742 0.0198557 -2.16489e-19)
(-0.00948183 0.0118253 -2.01691e-19)
(0.0034991 0.00375668 -1.86909e-19)
(0.0187229 -0.00354012 5.21938e-19)
(0.036614 -0.00807043 -2.00364e-21)
(0.0580402 -0.0052282 -1.51359e-19)
(-0.00564638 0.0117572 3.92073e-19)
(-0.015042 0.0296359 -2.61112e-19)
(-0.0234203 0.042915 -1.23335e-19)
(-0.0305186 0.0523464 2.34171e-19)
(-0.03625 0.0585479 -2.19603e-19)
(-0.0405804 0.0620683 -9.82886e-22)
(-0.043478 0.0633935 -4.50629e-22)
(-0.044917 0.0629366 -1.83023e-19)
(-0.0448722 0.0610354 1.72308e-19)
(-0.0433118 0.057955 0)
(-0.0401916 0.0538928 0)
(-0.0354511 0.0489852 0)
(-0.0290093 0.0433156 1.33386e-19)
(-0.020761 0.0369277 0)
(-0.0105773 0.0298397 1.16253e-19)
(0.00170412 0.0220753 1.07911e-19)
(0.0162888 0.0137206 -2.02819e-19)
(0.0333768 0.00501913 -1.88008e-19)
(0.0530298 -0.00339125 -1.74043e-19)
(0.075842 -0.00952362 0)
(0.103532 -0.00797082 -2.99224e-19)
(-0.00628643 0.012021 -2.63086e-19)
(-0.0165139 0.0303258 1.32098e-19)
(-0.0252173 0.0439455 -1.24438e-19)
(-0.0322028 0.0536229 1.1874e-19)
(-0.0374217 0.0599875 1.10627e-19)
(-0.040869 0.0636052 1.03643e-19)
(-0.0425384 0.0649804 1.95505e-19)
(-0.0424226 0.0645439 -3.67845e-19)
(-0.0405065 0.0626502 1.72613e-19)
(-0.03676 0.0595797 -9.80878e-23)
(-0.0311331 0.0555433 -4.56806e-19)
(-0.0235533 0.0506877 2.85516e-19)
(-0.013923 0.0451039 7.60485e-23)
(-0.00211971 0.0388361 -1.25041e-19)
(0.0120025 0.031892 0)
(0.0286133 0.0242663 -2.17157e-19)
(0.0479137 0.0159741 2.03208e-19)
(0.070102 0.00712431 8.58011e-22)
(0.0951942 -0.00188985 9.85369e-22)
(0.123675 -0.00938004 -1.60061e-19)
(0.159176 -0.00915455 2.9778e-19)
(-0.00691186 0.0121637 2.64545e-19)
(-0.0179373 0.0306824 1.42992e-21)
(-0.0269198 0.0444587 0)
(-0.0337189 0.0542276 -2.35504e-19)
(-0.0383161 0.0606304 -3.34285e-19)
(-0.0407299 0.0642499 1.0472e-19)
(-0.0409741 0.0656072 0)
(-0.0390537 0.0651495 0)
(-0.0349572 0.063247 3.46685e-19)
(-0.0286486 0.060195 -1.6288e-19)
(-0.020064 0.0562186 1.52413e-19)
(-0.00910944 0.0514786 9.22479e-23)
(0.00433751 0.0460793 -2.12995e-22)
(0.020425 0.0400758 1.24753e-19)
(0.0393199 0.0334828 -4.68218e-19)
(0.0612002 0.0262876 0)
(0.0862522 0.0184715 0)
(0.114651 0.0100514 0)
(0.146349 0.00117585 1.73987e-19)
(0.181264 -0.00706988 2.33162e-21)
(0.226435 -0.00768351 2.94247e-19)
(-0.00751822 0.0121981 0)
(-0.0192909 0.030727 -2.65977e-19)
(-0.0284843 0.044474 -2.52863e-19)
(-0.0349967 0.0541723 1.18731e-19)
(-0.0388322 0.0604787 -5.99077e-22)
(-0.0400268 0.0639938 1.05266e-19)
(-0.0386082 0.0652553 -1.97524e-19)
(-0.0345868 0.0647259 1.85733e-19)
(-0.0279466 0.0627904 0)
(-0.0186378 0.059759 -1.63175e-19)
(-0.00657328 0.0558722 1.52847e-19)
(0.00836987 0.0513074 -1.43419e-19)
(0.0263463 0.0461873 0)
(0.0475341 0.0405871 2.50416e-19)
(0.072121 0.0345421 -5.09294e-22)
(0.100287 0.0280567 -2.18285e-19)
(0.132184 0.0211164 0)
(0.167931 0.0137069 0)
(0.207458 0.00584488 -1.2983e-21)
(0.249439 -0.00231572 -1.60977e-19)
(0.306237 -0.00269245 -2.89287e-19)
(-0.0081028 0.0121381 0)
(-0.0205538 0.0304844 2.69794e-19)
(-0.0298623 0.0440177 2.52862e-19)
(-0.0359528 0.0534804 2.39835e-19)
(-0.0388456 0.0595515 0)
(-0.0385883 0.0628515 2.11985e-19)
(-0.0352151 0.0639359 1.98343e-19)
(-0.0287342 0.0632827 -1.87041e-19)
(-0.0191167 0.0612915 -1.7488e-19)
(-0.00628948 0.0582874 -1.63582e-19)
(0.00986511 0.0545274 4.59924e-19)
(0.0295053 0.0502084 -2.87634e-19)
(0.05282 0.0454756 -1.34442e-19)
(0.0800134 0.0404307 2.50604e-19)
(0.111283 0.0351396 -2.34688e-19)
(0.146788 0.0296399 4.35829e-19)
(0.186613 0.0239471 -2.03583e-19)
(0.230748 0.0180658 1.87739e-19)
(0.279202 0.012091 3.45225e-19)
(0.32859 0.00485849 -1.6055e-19)
(0.398547 0.00631111 -1.31601e-21)
(-0.00866362 0.0119972 1.35498e-19)
(-0.0217027 0.0299799 -5.41656e-19)
(-0.0309955 0.0431199 1.27627e-19)
(-0.0364853 0.0521862 -4.80411e-19)
(-0.0382016 0.057885 1.13267e-19)
(-0.0361987 0.0608623 2.13354e-19)
(-0.0305097 0.0616939 -5.98781e-19)
(-0.0211316 0.0608742 3.73927e-19)
(-0.00801336 0.0588181 0)
(0.00894925 0.055867 0)
(0.0299104 0.0522962 0)
(0.0550643 0.0483246 2.87331e-19)
(0.0846274 0.0441233 2.68925e-19)
(0.118813 0.0398247 2.5064e-19)
(0.157795 0.0355297 -4.68371e-19)
(0.201669 0.0313152 2.18717e-19)
(0.250388 0.0272349 2.01564e-19)
(0.303705 0.0233161 -5.62362e-19)
(0.361768 0.0199849 1.74028e-19)
(0.418566 0.0143067 1.54853e-19)
(0.501957 0.0193696 -1.39608e-21)
(-0.00919813 0.0117865 0)
(-0.0227088 0.0292359 6.8229e-19)
(-0.0318129 0.041815 -2.51478e-22)
(-0.0364672 0.0503318 -2.42198e-19)
(-0.0367089 0.0555305 1.13993e-19)
(-0.0325913 0.0580908 -2.13093e-19)
(-0.024139 0.0586109 1.99067e-19)
(-0.0113289 0.0576038 -1.88065e-19)
(0.00592079 0.055502 0)
(0.0277509 0.0526651 -1.64751e-19)
(0.0543523 0.0493894 -1.53712e-19)
(0.085946 0.0459184 2.87876e-19)
(0.122754 0.0424512 -9.41175e-19)
(0.16496 0.0391515 2.51568e-19)
(0.212656 0.0361538 0)
(0.265791 0.0335697 -2.16967e-19)
(0.32409 0.031483 1.09805e-21)
(0.386946 0.0299053 -1.86639e-19)
(0.454485 0.0297524 0)
(0.518429 0.0260129 -1.57485e-19)
(0.613244 0.0361621 0)
(-0.00970215 0.011514 -2.76892e-19)
(-0.0235344 0.0282732 -1.36402e-19)
(-0.0322245 0.0401353 1.30961e-19)
(-0.0357439 0.0479629 1.22169e-19)
(-0.0341343 0.0525546 2.29877e-19)
(-0.0274432 0.0546272 4.2991e-19)
(-0.015679 0.0548059 -9.28115e-22)
(0.00120981 0.0536263 0)
(0.0233409 0.0515412 -1.76023e-19)
(0.0508915 0.0489319 3.30024e-19)
(0.0840779 0.0461182 0)
(0.123122 0.0433692 0)
(0.168207 0.0409109 5.01694e-22)
(0.219417 0.0389333 5.02551e-19)
(0.276668 0.0375938 0)
(0.339645 0.0370223 0)
(0.407707 0.0373082 2.01885e-19)
(0.479807 0.0384269 1.93732e-21)
(0.555478 0.0416219 1.7386e-19)
(0.626103 0.0402642 2.76628e-21)
(0.726915 0.056252 2.75704e-19)
(-0.0101666 0.0111843 1.37823e-19)
(-0.0241308 0.0271044 1.38657e-19)
(-0.0321186 0.0381078 -1.28679e-19)
(-0.034127 0.0451319 0)
(-0.0302004 0.0490373 -2.29874e-19)
(-0.0203758 0.0505855 -2.15499e-19)
(-0.00463897 0.0504344 0)
(0.0170945 0.0491462 -3.78545e-19)
(0.0449768 0.0471983 1.77415e-19)
(0.0792086 0.0449963 -3.31255e-19)
(0.120003 0.0428844 0)
(0.167531 0.0411548 -1.43921e-19)
(0.221857 0.0400525 1.34901e-19)
(0.282861 0.039778 -2.50948e-19)
(0.350153 0.0404873 0)
(0.423009 0.0422953 0)
(0.50028 0.0452501 0)
(0.580471 0.0493443 0)
(0.661737 0.0555115 1.6831e-19)
(0.738307 0.0575874 4.6711e-19)
(0.835364 0.0788616 4.99468e-22)
(-0.0105765 0.0107953 1.4056e-19)
(-0.0244319 0.0257341 0)
(-0.0313591 0.035759 -2.62718e-19)
(-0.0313946 0.0418936 0)
(-0.024587 0.0450699 2.31697e-19)
(-0.0109602 0.0461018 -1.29901e-21)
(0.00952564 0.0456854 -2.041e-19)
(0.0369849 0.0444142 3.7934e-19)
(0.0715903 0.0427934 -3.5532e-19)
(0.113534 0.0412537 4.97571e-19)
(0.162968 0.0401607 0)
(0.219927 0.0398195 0)
(0.284238 0.0404746 0)
(0.355431 0.0423066 0)
(0.432653 0.0454267 0)
(0.514626 0.0498813 0)
(0.599592 0.0556066 0)
(0.685642 0.0626734 0)
(0.769419 0.0709295 -3.3856e-19)
(0.850611 0.0782364 -1.54333e-19)
(0.931113 0.100504 -5.54818e-19)
(-0.0109089 0.010342 -1.42144e-19)
(-0.0243532 0.0241617 0)
(-0.0297826 0.0331108 -1.35034e-19)
(-0.0272909 0.0383049 -1.25385e-19)
(-0.0169358 0.0407544 -2.33461e-19)
(0.00127134 0.0413323 1.51294e-21)
(0.0273912 0.0407784 2.05458e-19)
(0.0615528 0.0397205 1.91731e-19)
(0.103915 0.038693 1.77846e-19)
(0.154602 0.0381481 1.66582e-19)
(0.213612 0.0384612 0)
(0.280714 0.0399288 0)
(0.355343 0.0427607 0)
(0.436505 0.0470696 0)
(0.522724 0.052861 0)
(0.612058 0.0600438 0)
(0.70213 0.0683767 0)
(0.790584 0.0778934 0)
(0.873716 0.087423 -1.20771e-21)
(0.955594 0.100322 -4.68406e-19)
(1.00943 0.111997 1.46811e-21)
(-0.0111333 0.00981527 4.3369e-19)
(-0.0237906 0.0223814 -1.42975e-19)
(-0.0271989 0.0301834 1.31996e-19)
(-0.0215301 0.0344264 0)
(-0.00685919 0.0362037 -4.72901e-19)
(0.0168077 0.0364525 -9.06785e-23)
(0.0495353 0.0359593 0)
(0.091433 0.0353876 -1.38269e-22)
(0.142584 0.0352966 -1.80002e-19)
(0.202948 0.0361481 -3.33538e-19)
(0.272235 0.0383042 0)
(0.349784 0.0420158 1.44468e-19)
(0.434455 0.0474068 -1.35407e-19)
(0.524565 0.0544589 -2.5077e-19)
(0.617903 0.0630057 0)
(0.711842 0.072754 0)
(0.803508 0.0832594 0)
(0.890173 0.0942821 0)
(0.969153 0.104661 -1.66735e-19)
(1.04037 0.116697 7.7749e-19)
(1.09492 0.122142 2.87195e-19)
(-0.0112099 0.00920391 -2.90088e-19)
(-0.022621 0.0203859 -4.37786e-19)
(-0.0233936 0.0269989 4.06756e-19)
(-0.0138025 0.0303261 -1.28116e-19)
(0.00604707 0.031544 2.37474e-19)
(0.0361363 0.0316569 -8.11038e-24)
(0.0765001 0.0314977 4.17362e-19)
(0.127167 0.0317613 0)
(0.188048 0.0330191 1.79622e-19)
(0.2588 0.0357185 -2.24384e-22)
(0.338676 0.040169 0)
(0.426395 0.0465216 0)
(0.520068 0.0547481 5.39415e-19)
(0.617215 0.0646315 -1.23619e-21)
(0.714883 0.0757757 0)
(0.809894 0.0876543 0)
(0.899142 0.0996219 1.97649e-19)
(0.980006 0.111212 3.62827e-19)
(1.05042 0.121375 1.65565e-19)
(1.11009 0.131216 -3.11909e-19)
(1.15614 0.135464 2.83686e-19)
(-0.0110903 0.00849667 1.47691e-19)
(-0.0207029 0.0181706 2.94661e-19)
(-0.0181322 0.0235858 1.03927e-21)
(-0.00378313 0.0260833 1.29713e-19)
(0.0221879 0.0269184 0)
(0.0597169 0.0271607 -2.26192e-19)
(0.10875 0.0276843 -2.06608e-19)
(0.169142 0.029202 1.96104e-19)
(0.240495 0.0322731 0)
(0.32199 0.0372895 -1.68405e-19)
(0.412226 0.0444508 0)
(0.509121 0.0537383 -1.45142e-19)
(0.609926 0.0648998 -1.36112e-19)
(0.71136 0.077462 -5.01455e-19)
(0.809891 0.090774 2.334e-19)
(0.902101 0.104096 0)
(0.985066 0.116651 -1.97628e-19)
(1.05673 0.127899 -1.81784e-19)
(1.11597 0.136937 0)
(1.1631 0.14468 -1.53236e-19)
(1.19763 0.147109 0)
(-0.0107184 0.00768458 -1.50533e-19)
(-0.0178795 0.0157384 -5.97979e-19)
(-0.0111659 0.0199856 -1.39373e-19)
(0.00885741 0.0217952 -1.91751e-21)
(0.0419508 0.0224913 -1.22719e-19)
(0.0879518 0.0232017 -2.2885e-19)
(0.146631 0.0248275 2.12788e-19)
(0.217535 0.0280741 -9.54443e-23)
(0.299786 0.0334466 0)
(0.391888 0.041222 0)
(0.491594 0.0514162 0)
(0.5959 0.0637629 2.93423e-19)
(0.701191 0.0777248 2.70914e-19)
(0.803556 0.092546 -2.48945e-19)
(0.899211 0.107348 4.62608e-19)
(0.984951 0.121258 -2.14816e-19)
(1.05851 0.133493 -1.93757e-19)
(1.11881 0.143593 1.80396e-19)
(1.16584 0.150937 -1.66022e-19)
(1.20076 0.156427 -1.48537e-19)
(1.22512 0.157184 1.37369e-19)
(-0.0100313 0.0067631 0)
(-0.0139827 0.0131045 3.01368e-19)
(-0.00223889 0.0162583 2.86781e-19)
(0.0244403 0.0175828 2.63602e-19)
(0.0656848 0.018454 0)
(0.121155 0.0200422 -5.92017e-23)
(0.190324 0.0232495 2.5503e-21)
(0.272261 0.0287317 -1.95494e-19)
(0.365404 0.0368787 1.85744e-19)
(0.467378 0.0477743 1.70298e-19)
(0.574953 0.0611666 -1.58271e-19)
(0.684183 0.0764735 -2.9141e-19)
(0.790749 0.0928414 1.36842e-19)
(0.89045 0.109259 -2.48498e-19)
(0.979716 0.124706 2.32701e-19)
(1.05605 0.138306 1.4245e-21)
(1.11823 0.149415 1.9612e-19)
(1.16637 0.157785 1.78382e-19)
(1.20158 0.163127 7.44969e-22)
(1.22588 0.166486 1.49602e-19)
(1.24128 0.165615 2.63367e-19)
(-0.00896171 0.00573419 0)
(-0.00883783 0.0103012 -3.12438e-19)
(0.0089027 0.0124891 -2.86778e-19)
(0.0432637 0.0135969 -1.34017e-19)
(0.0936785 0.0150277 5.04037e-19)
(0.159522 0.0179677 1.14406e-19)
(0.239807 0.0232774 -2.82012e-21)
(0.332929 0.0315011 -2.0243e-19)
(0.436428 0.0428322 0)
(0.546891 0.0570703 1.71569e-19)
(0.660059 0.0736171 -4.78932e-19)
(0.771184 0.091535 1.48778e-19)
(0.875581 0.109677 0)
(0.969228 0.126862 -2.47864e-19)
(1.04928 0.142065 4.61219e-19)
(1.11433 0.154552 -2.11006e-19)
(1.16443 0.163941 0)
(1.20085 0.170261 0)
(1.22563 0.17357 -3.182e-19)
(1.24125 0.174989 1.47181e-19)
(1.25002 0.172743 -2.6139e-19)
(-0.00743888 0.00460785 2.68052e-21)
(-0.00226903 0.00738209 3.11676e-19)
(0.0225007 0.00879244 0)
(0.065587 0.0100218 -2.76848e-19)
(0.126136 0.012465 -1.26362e-19)
(0.203094 0.0172819 -1.19253e-19)
(0.294824 0.0252298 0)
(0.398826 0.0366582 0)
(0.511561 0.051466 2.49817e-21)
(0.628497 0.0690785 1.75668e-19)
(0.744452 0.0884978 1.61464e-19)
(0.854191 0.108442 -2.95362e-19)
(0.95313 0.127555 2.79839e-21)
(1.03795 0.144627 -1.20684e-19)
(1.10693 0.158778 2.20967e-21)
(1.15999 0.169545 0)
(1.19843 0.176876 0)
(1.22445 0.181081 0)
(1.24064 0.182508 1.55567e-19)
(1.24966 0.182271 2.81408e-19)
(1.25364 0.178957 -5.8902e-22)
(-0.00539101 0.00340338 -3.26679e-19)
(0.00589413 0.00442409 1.59399e-19)
(0.0387732 0.00531516 1.4914e-19)
(0.0916122 0.00707661 -1.46031e-19)
(0.163152 0.0110457 -1.28776e-19)
(0.251734 0.0182961 3.64017e-19)
(0.354857 0.0293982 2.24761e-19)
(0.468921 0.0444034 -3.12796e-21)
(0.589186 0.0628132 -5.71008e-19)
(0.710057 0.0836079 3.1873e-21)
(0.825703 0.105385 1.62518e-19)
(0.93086 0.126593 -1.88545e-21)
(1.02158 0.145805 -2.70953e-19)
(1.09566 0.161945 1.26171e-19)
(1.15279 0.174412 0)
(1.19419 0.183093 0)
(1.22216 0.188266 0)
(1.23951 0.190476 3.36332e-19)
(1.24904 0.190276 -3.12297e-19)
(1.25328 0.188678 -1.41013e-19)
(1.25411 0.184596 7.25201e-22)
(-0.00274715 0.00215015 5.00633e-19)
(0.0158098 0.00152933 -3.3254e-19)
(0.0579023 0.00223675 -3.07236e-19)
(0.121465 0.00501175 4.25751e-19)
(0.204687 0.0110688 -2.6698e-19)
(0.305105 0.0213136 4.4206e-21)
(0.41913 0.036024 -4.49395e-19)
(0.541904 0.0548387 6.26465e-19)
(0.667478 0.0767708 -1.94889e-19)
(0.789412 0.100327 0)
(0.901658 0.123756 0)
(0.999453 0.145374 0)
(1.07995 0.16385 1.36279e-19)
(1.14238 0.17839 0)
(1.18782 0.188765 -1.10951e-19)
(1.21859 0.195219 1.03867e-19)
(1.23771 0.198316 0)
(1.24821 0.198758 -1.68765e-19)
(1.25283 0.197211 -1.49773e-19)
(1.25376 0.194525 -1.34497e-19)
(1.25256 0.189924 1.21079e-19)
(0.0005604 0.000887886 -3.40842e-19)
(0.0276163 -0.00117514 1.66625e-19)
(0.0800204 -0.000232982 3.13625e-19)
(0.155179 0.00410273 0)
(0.250553 0.012839 2.6439e-19)
(0.362656 0.0266092 -4.96632e-19)
(0.486622 0.045276 -1.16194e-19)
(0.616257 0.067953 -2.10325e-19)
(0.744549 0.0931069 9.02595e-22)
(0.86459 0.118801 -1.80131e-19)
(0.970636 0.14306 -1.61823e-19)
(1.05894 0.164238 2.99158e-19)
(1.1281 0.181268 -1.36259e-19)
(1.17883 0.19374 4.09919e-21)
(1.21343 0.201824 1.13651e-19)
(1.23506 0.206088 -2.00464e-19)
(1.24703 0.207299 -1.80713e-19)
(1.25235 0.20624 1.61535e-19)
(1.25349 0.203606 -1.46952e-19)
(1.25222 0.200057 4.82348e-21)
(1.24979 0.195116 1.21952e-19)
(0.00459357 -0.000333276 3.52982e-19)
(0.0414236 -0.00353884 -1.74376e-19)
(0.105197 -0.00185892 5.07957e-22)
(0.192673 0.00463959 -1.50085e-19)
(0.300393 0.0166502 1.39026e-19)
(0.423634 0.0344086 2.54387e-19)
(0.556115 0.0572323 -2.05427e-21)
(0.690364 0.0836196 2.19884e-19)
(0.818605 0.111486 3.00568e-19)
(0.933962 0.138551 7.23556e-19)
(1.03154 0.162786 -1.67367e-19)
(1.109 0.182762 0)
(1.16651 0.197805 -2.5718e-21)
(1.20618 0.207942 -2.46819e-19)
(1.23126 0.213713 0)
(1.24533 0.215938 1.01698e-19)
(1.25176 0.215502 2.68662e-19)
(1.25331 0.213197 -8.22633e-20)
(1.25206 0.209689 0)
(1.24938 0.205447 0)
(1.24621 0.200284 0)
(0.00940543 -0.00145322 -2.68049e-19)
(0.0573051 -0.00539078 -9.00221e-20)
(0.133425 -0.00238799 0)
(0.233745 0.00691374 1.50808e-19)
(0.353684 0.0227667 -2.81312e-19)
(0.487102 0.0448687 0)
(0.626266 0.071871 -1.20503e-19)
(0.762627 0.101609 -1.07057e-19)
(0.888089 0.131509 -1.9907e-19)
(0.996359 0.159105 -5.44014e-19)
(1.08385 0.182508 3.30929e-19)
(1.14987 0.200663 -1.5247e-19)
(1.19611 0.213364 0)
(1.22582 0.221069 1.21993e-19)
(1.24284 0.224627 -1.41262e-21)
(1.25092 0.225022 -1.37282e-21)
(1.25319 0.223177 0)
(1.25208 0.219845 0)
(1.24924 0.215621 0)
(1.24567 0.210806 0)
(1.24206 0.205487 0)
(0.015037 -0.00240275 0)
(0.0752894 -0.00654392 1.79529e-19)
(0.164613 -0.00155855 0)
(0.278065 0.011203 0)
(0.409748 0.0314056 -1.42342e-19)
(0.551989 0.0580647 2.64925e-19)
(0.695692 0.0890722 -2.65384e-21)
(0.831583 0.121613 -1.1035e-19)
(0.951779 0.152756 1.01701e-19)
(1.05109 0.180044 8.9062e-20)
(1.12758 0.201911 -8.45497e-20)
(1.18222 0.21779 0)
(1.21805 0.227963 1.31246e-19)
(1.23913 0.23327 -1.22975e-19)
(1.24958 0.234784 2.13747e-19)
(1.25302 0.233571 -9.7482e-20)
(1.25227 0.23053 8.82361e-20)
(1.24932 0.226341 0)
(1.24545 0.22151 0)
(1.24134 0.216202 -1.21764e-19)
(1.23746 0.210749 0)
(0.0215141 -0.00310489 -9.45474e-20)
(0.0953532 -0.00680066 -9.47384e-20)
(0.198576 0.00088874 0)
(0.325173 0.0177565 -8.2686e-20)
(0.467771 0.0427214 -2.23334e-19)
(0.617142 0.0739839 0)
(0.76306 0.108631 0)
(0.895995 0.143281 0)
(1.00884 0.174826 -1.017e-19)
(1.09793 0.20103 9.16563e-20)
(1.16312 0.220797 -8.28199e-20)
(1.20695 0.234104 -7.54768e-20)
(1.23352 0.241699 -6.80985e-20)
(1.24736 0.244724 0)
(1.25259 0.244392 1.46364e-21)
(1.25256 0.241777 9.49443e-20)
(1.24966 0.237714 -8.32667e-20)
(1.24548 0.23279 7.41901e-20)
(1.24094 0.227418 6.61267e-20)
(1.23651 0.221666 1.21453e-19)
(1.23246 0.216074 -1.06883e-19)
(0.0288442 -0.00347677 0)
(0.117415 -0.00595968 1.8921e-19)
(0.235034 0.00519928 2.04735e-21)
(0.374492 0.0267801 1.63551e-19)
(0.526843 0.0567957 2.2509e-19)
(0.681398 0.0925283 -6.79371e-20)
(0.827165 0.130279 -1.86453e-19)
(0.954911 0.166246 1.53752e-21)
(1.05881 0.197367 0)
(1.137 0.221811 1.84828e-19)
(1.19113 0.239061 8.28242e-20)
(1.22507 0.249643 1.49589e-19)
(1.24365 0.254707 6.75081e-20)
(1.25157 0.255612 0)
(1.25278 0.25363 -2.05963e-21)
(1.25019 0.249789 -9.34896e-20)
(1.2458 0.244832 8.3275e-20)
(1.2408 0.239255 -2.14414e-21)
(1.23586 0.233376 -6.61331e-20)
(1.23125 0.227206 5.8981e-20)
(1.22707 0.221451 0)
(0.0370134 -0.00343199 5.05013e-20)
(0.141334 -0.00382355 0)
(0.273614 0.0115928 -8.76394e-20)
(0.425348 0.0384248 8.4784e-20)
(0.585998 0.0736327 -1.53545e-19)
(0.743641 0.113525 2.11375e-19)
(0.886997 0.153706 -6.51364e-20)
(1.00768 0.190159 1.73557e-19)
(1.10156 0.220087 0)
(1.16871 0.242223 -9.02937e-20)
(1.2124 0.256677 2.59182e-21)
(1.23756 0.26449 7.04148e-20)
(1.24943 0.267132 -1.31071e-19)
(1.25264 0.266093 -5.68854e-20)
(1.25079 0.262637 -1.02919e-19)
(1.24637 0.257709 0)
(1.24096 0.251948 -3.89837e-20)
(1.23545 0.245764 -3.55907e-20)
(1.23028 0.239389 0)
(1.22557 0.232813 5.4553e-20)
(1.22129 0.226859 -2.39362e-21)
(0.0459849 -0.00288349 -6.49393e-22)
(0.166904 -0.00020692 0)
(0.31386 0.020252 -2.32204e-19)
(0.476994 0.0527778 4.34038e-20)
(0.644264 0.09316 -1.54311e-21)
(0.802863 0.136742 -7.40681e-22)
(0.941763 0.178588 -6.50122e-20)
(1.05395 0.214703 2.78231e-21)
(1.13723 0.242761 1.39527e-21)
(1.19361 0.262169 -9.23759e-20)
(1.22776 0.273668 8.20411e-20)
(1.24532 0.278748 -7.2694e-20)
(1.25168 0.279111 6.43271e-20)
(1.25122 0.276298 5.78088e-20)
(1.24711 0.271514 9.95849e-20)
(1.2414 0.2656 -1.31154e-19)
(1.23532 0.259093 3.99552e-20)
(1.2295 0.252323 0)
(1.2242 0.245449 -5.92699e-20)
(1.21946 0.238469 5.3791e-20)
(1.2151 0.232271 -1.19506e-19)
(0.0556978 -0.00174678 5.24904e-20)
(0.193864 0.00505511 5.22346e-20)
(0.355243 0.0313134 1.42345e-19)
(0.528639 0.0698573 0)
(0.700704 0.115235 7.92715e-20)
(0.858198 0.161904 0)
(0.990907 0.204601 -3.18779e-20)
(1.09359 0.239601 2.99714e-20)
(1.16615 0.265223 5.18794e-20)
(1.21237 0.281605 0)
(1.238 0.290086 0)
(1.24914 0.292521 -3.44935e-20)
(1.25107 0.290758 2.00419e-21)
(1.24781 0.286323 -5.55381e-22)
(1.24205 0.280325 -1.51582e-21)
(1.23546 0.273494 3.47855e-22)
(1.22896 0.266271 0)
(1.22298 0.258918 3.20879e-20)
(1.21765 0.251534 -2.86387e-22)
(1.21291 0.244146 0)
(1.20849 0.237657 2.21411e-20)
(0.0660666 5.66156e-05 0)
(0.221894 0.0120991 -5.22343e-20)
(0.397181 0.0448591 -4.815e-20)
(0.579483 0.0896121 0)
(0.754456 0.139655 0)
(0.908949 0.188708 1.84481e-20)
(1.03408 0.231438 1.64775e-20)
(1.1267 0.264622 2.83862e-20)
(1.18878 0.287354 -7.74287e-20)
(1.22563 0.30052 4.60697e-20)
(1.24385 0.305991 0)
(1.24967 0.305902 -1.72502e-20)
(1.24811 0.30216 0)
(1.24275 0.296229 0)
(1.23583 0.289102 0)
(1.22867 0.281396 1.08395e-20)
(1.22193 0.273469 0)
(1.21589 0.265525 -1.54451e-20)
(1.21059 0.257613 -1.34975e-20)
(1.2059 0.249807 2.44898e-20)
(1.20146 0.242979 -1.11247e-20)
(0.0769828 0.00259576 0)
(0.250631 0.0210262 0)
(0.439058 0.0609122 0)
(0.628746 0.111924 0)
(0.804761 0.166169 1.00781e-20)
(0.954592 0.216842 -2.79382e-20)
(1.07114 0.258815 -1.64781e-20)
(1.15349 0.289573 7.06168e-21)
(1.2056 0.309073 1.90932e-20)
(1.23405 0.318921 -3.33923e-20)
(1.24593 0.321443 1.01587e-20)
(1.24743 0.31896 9.019e-21)
(1.24319 0.313375 7.71815e-21)
(1.23629 0.306048 0)
(1.22859 0.29785 -5.46348e-21)
(1.22108 0.289292 1.51811e-20)
(1.21424 0.28066 0)
(1.20823 0.272107 1.54466e-20)
(1.20301 0.26365 0)
(1.19841 0.255412 0)
(1.19399 0.248199 0)
(0.0883165 0.00592699 0)
(0.279677 0.0318963 0)
(0.480245 0.0794341 0)
(0.675694 0.136613 0)
(0.850981 0.194486 -1.01553e-20)
(0.994766 0.24599 -9.0669e-21)
(1.10208 0.28647 -1.64527e-20)
(1.1743 0.314294 0)
(1.21715 0.330319 2.50981e-20)
(1.23819 0.33682 -1.11663e-20)
(1.24477 0.336487 -7.46963e-22)
(1.24284 0.331742 1.56687e-20)
(1.23657 0.32443 -7.49081e-21)
(1.2286 0.315785 0)
(1.2204 0.306554 5.23185e-21)
(1.21272 0.297152 4.28651e-21)
(1.20588 0.287804 0)
(1.19997 0.278624 1.38573e-20)
(1.1949 0.269602 0)
(1.19043 0.260915 0)
(1.18607 0.253273 0)
(0.0999197 0.0100911 0)
(0.308606 0.0447243 -5.58562e-20)
(0.52012 0.100325 -5.12699e-20)
(0.719664 0.163446 0)
(0.892605 0.224293 0)
(1.02926 0.275841 1.86302e-20)
(1.12703 0.314169 1.64536e-20)
(1.18949 0.338652 -2.75989e-20)
(1.22392 0.351046 2.47627e-20)
(1.23857 0.354226 -6.93958e-22)
(1.2408 0.351151 0)
(1.2362 0.34427 -1.63178e-20)
(1.22846 0.335328 0)
(1.21978 0.325424 0)
(1.21131 0.315181 0)
(1.20359 0.304934 8.18679e-21)
(1.19685 0.294857 0)
(1.19111 0.285029 -1.38587e-20)
(1.18623 0.275423 1.12576e-20)
(1.18193 0.266265 -2.03067e-20)
(1.1777 0.258158 9.19871e-21)
(0.11163 0.0151108 5.80435e-20)
(0.336985 0.0594775 5.58562e-20)
(0.558089 0.123428 1.54487e-19)
(0.760077 0.192145 0)
(0.929252 0.255259 8.37272e-20)
(1.058 0.306097 0)
(1.14618 0.341698 3.12647e-20)
(1.19948 0.362527 -2.93974e-20)
(1.2264 0.371212 4.79846e-20)
(1.23562 0.371136 0)
(1.23436 0.365441 0)
(1.22775 0.356541 2.96079e-20)
(1.21899 0.346051 -2.32023e-21)
(1.20989 0.334929 -8.99908e-20)
(1.20132 0.323688 1.667e-21)
(1.19369 0.312588 3.28259e-20)
(1.18712 0.301765 0)
(1.1816 0.29127 -2.41103e-20)