/*--------------------------------*- C++ -*----------------------------------*\
  =========                 |
  \\      /  F ield         | OpenFOAM: The Open Source CFD Toolbox
   \\    /   O peration     | Website:  https://openfoam.org
    \\  /    A nd           | Version:  7
     \\/     M anipulation  |
\*---------------------------------------------------------------------------*/
FoamFile
{
    version     2.0;
    format      ascii;
    class       volVectorField;
    location    "5";
    object      U;
}
// * * * * * * * * * * * * * * * * * * * * * * * * * * * * * * * * * * * * * //

dimensions      [0 1 -1 0 0 0 0];

internalField   nonuniform List<vector> 
392
(
(-0.00838272 0.00141932 6.03724e-21)
(-0.0107241 0.00149282 4.41857e-21)
(-0.0132063 0.00153344 2.35281e-22)
(-0.0157799 0.00154364 5.56587e-21)
(-0.00844188 0.0042329 -8.16884e-21)
(-0.0107503 0.0044512 1.19961e-20)
(-0.0131887 0.00457122 -1.26102e-20)
(-0.0157077 0.00460027 -1.5039e-20)
(-0.00855467 0.0069668 -3.3312e-20)
(-0.0107967 0.00732277 1.01783e-20)
(-0.0131472 0.00751618 -1.18799e-21)
(-0.0155569 0.0075591 3.39718e-20)
(-0.00871008 0.0095694 -1.09188e-20)
(-0.0108516 0.0100513 -1.24311e-20)
(-0.0130693 0.0103082 9.13297e-21)
(-0.0153144 0.0103568 -1.17953e-20)
(-0.00889166 0.0119913 -1.958e-20)
(-0.0108971 0.012583 -7.17749e-21)
(-0.0129363 0.0128898 -1.12608e-20)
(-0.0149607 0.0129328 2.99899e-20)
(-0.0109098 0.0148673 1.9699e-20)
(-0.0127232 0.015207 1.43645e-21)
(-0.0144699 0.0152305 1.06491e-21)
(-0.0108603 0.016858 4.90258e-20)
(-0.012399 0.0172104 -5.0376e-20)
(-0.0138094 0.0171978 7.13009e-21)
(-0.0150449 0.0168525 -4.69935e-20)
(-0.0107141 0.0185134 -2.99997e-20)
(-0.0119266 0.0188558 -4.12007e-20)
(-0.0129404 0.0187886 -5.21027e-21)
(-0.0137095 0.0183481 2.1771e-20)
(-0.0104309 0.0197975 8.43888e-20)
(-0.0112629 0.020105 7.45933e-21)
(-0.0118175 0.0199631 6.59377e-21)
(-0.0120491 0.0194119 -4.0554e-20)
(-0.0103591 0.0209263 3.19405e-21)
(-0.010389 0.0206889 4.49123e-20)
(-0.01001 0.020011 9.86997e-20)
(-0.00917864 0.0189402 -4.53474e-20)
(-0.00916067 0.0212951 -2.89719e-20)
(-0.00859693 0.020941 8.07395e-20)
(-0.00753144 0.020121 -8.72431e-20)
(-0.00592133 0.0188856 -4.58903e-20)
(-0.00637746 0.0207028 -2.25738e-20)
(-0.00454617 0.0197264 -2.24104e-20)
(-0.00207186 0.0183178 1.0047e-19)
(-0.00366101 0.0199658 5.97324e-20)
(-0.000980721 0.0188207 1.78818e-20)
(0.00244643 0.0172331 -1.39307e-20)
(0.00665965 0.0152632 2.31079e-20)
(0.00324409 0.0174069 -1.0836e-19)
(0.00771651 0.015638 -8.28454e-20)
(0.0130823 0.0134849 -1.86106e-20)
(0.0082124 0.0154967 1.19268e-19)
(0.0138268 0.0135491 9.89984e-20)
(0.0204457 0.0112225 1.99909e-20)
(0.0281034 0.00858481 -6.36882e-20)
(0.0208702 0.0109921 -1.65904e-19)
(0.0288467 0.00850813 6.93893e-20)
(0.037974 0.00572637 1.17949e-19)
(0.0383853 0.005383 1.58621e-19)
(0.0490932 0.00248947 -1.74504e-19)
(0.0610924 -0.000606871 -6.87678e-20)
(0.0491618 0.00189548 -1.57168e-20)
(0.0615659 -0.00106876 2.11263e-19)
(0.0753725 -0.00420535 -9.07801e-20)
(0.0906014 -0.00743719 9.49921e-20)
(0.0754945 -0.00488655 -6.39272e-20)
(0.091229 -0.00800172 -1.21193e-20)
(0.108492 -0.0111735 2.08283e-20)
(0.108761 -0.0119244 1.21598e-20)
(0.128182 -0.0149503 -2.70073e-21)
(0.149238 -0.0179056 4.82425e-20)
(0.149763 -0.0186946 -2.04498e-19)
(0.173203 -0.0213422 -9.0069e-20)
(0.198357 -0.0237805 2.64816e-19)
(0.173299 -0.0223498 1.65533e-19)
(0.199261 -0.0245747 1.12379e-19)
(0.227024 -0.0264972 -1.37374e-19)
(0.256551 -0.028054 2.72881e-19)
(0.227437 -0.0275823 -7.94796e-20)
(0.257964 -0.0288562 -5.32196e-20)
(0.290343 -0.0296251 -1.02433e-19)
(0.324504 -0.0298355 -1.11665e-19)
(0.29114 -0.0309302 1.83218e-19)
(0.326582 -0.0307957 -8.844e-20)
(0.363963 -0.0298755 -5.47691e-20)
(0.403174 -0.0281334 3.46005e-20)
(0.36503 -0.0318582 1.1535e-19)
(0.405947 -0.0298967 -2.40259e-19)
(0.449257 -0.0267869 1.47878e-20)
(0.495474 -0.0221361 -1.92586e-19)
(0.449403 -0.0304269 -5.57863e-20)
(0.496525 -0.0267735 3.13975e-20)
(0.54718 -0.0219167 -5.10496e-20)
(0.602583 -0.0164798 2.1045e-19)
(0.596882 -0.0230308 9.92634e-20)
(0.654206 -0.0191467 -1.8298e-19)
(0.714714 -0.020121 5.36165e-20)
(0.70217 -0.0205715 -1.94295e-21)
(0.76106 -0.0218807 -4.62599e-19)
(0.805134 -0.0207987 4.17103e-19)
(0.805136 0.0207994 -1.33069e-20)
(0.702172 0.0205722 2.00175e-19)
(0.761063 0.0218814 -2.39164e-19)
(0.596884 0.0230314 -1.30209e-19)
(0.654208 0.0191473 -8.67888e-20)
(0.714717 0.0201216 2.44333e-19)
(0.449405 0.0304274 -1.65943e-20)
(0.496527 0.026774 3.15163e-20)
(0.547182 0.0219172 7.06757e-20)
(0.602586 0.0164802 -1.38916e-19)
(0.365032 0.0318585 1.56638e-19)
(0.405949 0.029897 5.81425e-20)
(0.449259 0.0267872 -2.35584e-19)
(0.495476 0.0221364 2.03907e-19)
(0.291142 0.0309303 -1.88103e-19)
(0.326584 0.0307958 -2.4459e-19)
(0.363965 0.0298757 2.38998e-19)
(0.403176 0.0281336 1.23287e-19)
(0.227439 0.0275823 -9.35397e-20)
(0.257966 0.0288562 -1.15528e-19)
(0.290345 0.0296251 -8.18438e-20)
(0.324506 0.0298355 1.81953e-19)
(0.173301 0.0223497 4.39313e-20)
(0.199263 0.0245745 -1.48773e-19)
(0.227026 0.0264971 2.34532e-19)
(0.256553 0.0280538 -2.75614e-20)
(0.149765 0.0186944 1.19525e-20)
(0.173205 0.021342 3.19907e-20)
(0.198359 0.0237803 -1.88333e-19)
(0.108763 0.011924 2.11872e-20)
(0.128184 0.01495 -2.2942e-19)
(0.149239 0.0179052 2.1927e-19)
(0.0754957 0.00488609 -6.86467e-20)
(0.0912304 0.00800124 -8.82255e-20)
(0.108493 0.011173 1.75692e-19)
(0.0491627 -0.00189606 -1.33658e-19)
(0.061567 0.00106816 -1.5629e-19)
(0.0753738 0.00420472 2.68194e-19)
(0.0906029 0.00743655 -7.63107e-20)
(0.0383861 -0.00538373 5.17827e-20)
(0.0490941 -0.00249022 8.52218e-20)
(0.0610935 0.000606102 -4.16492e-20)
(0.0208707 -0.0109929 1.46391e-19)
(0.0288474 -0.008509 -1.52603e-19)
(0.0379749 -0.00572727 7.43029e-20)
(0.00821274 -0.0154976 -2.45763e-20)
(0.0138273 -0.0135501 4.2357e-20)
(0.0204464 -0.0112235 -1.43784e-20)
(0.0281042 -0.00858586 3.83247e-20)
(0.00324437 -0.017408 -1.22023e-19)
(0.00771691 -0.0156392 -4.96185e-20)
(0.0130829 -0.013486 1.04664e-19)
(-0.00366091 -0.019967 -4.86499e-20)
(-0.000980507 -0.0188219 1.21365e-19)
(0.00244677 -0.0172344 -1.24239e-19)
(0.00666013 -0.0152645 -9.25883e-20)
(-0.0063774 -0.0207041 3.42382e-20)
(-0.004546 -0.0197277 -1.53135e-20)
(-0.00207158 -0.0183192 1.38419e-19)
(-0.00916072 -0.0212965 -3.12633e-20)
(-0.0085969 -0.0209424 -1.81351e-19)
(-0.00753133 -0.0201225 7.44983e-20)
(-0.00592111 -0.0188872 -9.32775e-20)
(-0.0103591 -0.0209277 9.00141e-20)
(-0.010389 -0.0206904 4.42087e-20)
(-0.01001 -0.0200126 -8.50413e-20)
(-0.00917846 -0.0189419 9.44173e-20)
(-0.010431 -0.019799 -1.6356e-20)
(-0.011263 -0.0201065 2.10098e-20)
(-0.0118175 -0.0199648 6.37211e-20)
(-0.0120491 -0.0194136 -1.39739e-21)
(-0.0107142 -0.0185149 -5.33743e-20)
(-0.0119267 -0.0188574 -3.71517e-20)
(-0.0129405 -0.0187903 -3.01266e-20)
(-0.0137094 -0.0183499 8.03986e-20)
(-0.0108605 -0.0168596 -1.08018e-20)
(-0.0123991 -0.0172121 3.30635e-20)
(-0.0138095 -0.0171996 -3.39166e-20)
(-0.0150449 -0.0168544 2.00318e-20)
(-0.0109099 -0.014869 -2.50463e-20)
(-0.0127233 -0.0152088 7.40545e-21)
(-0.01447 -0.0152324 -1.62865e-21)
(-0.00889178 -0.0119929 3.23148e-20)
(-0.0108972 -0.0125847 -2.21614e-20)
(-0.0129364 -0.0128917 1.90316e-20)
(-0.0149608 -0.0129348 -1.31242e-20)
(-0.00871018 -0.00957101 8.82591e-21)
(-0.0108517 -0.0100531 1.64032e-20)
(-0.0130694 -0.0103101 1.29664e-20)
(-0.0153144 -0.0103589 -4.15325e-20)
(-0.00855474 -0.00696844 1.69492e-20)
(-0.0107968 -0.00732457 -1.3339e-20)
(-0.0131473 -0.00751814 -1.5106e-21)
(-0.0155569 -0.00756119 -1.15408e-20)
(-0.00844193 -0.00423456 9.39183e-21)
(-0.0107503 -0.00445303 -8.1958e-21)
(-0.0131887 -0.0045732 2.60915e-21)
(-0.0157077 -0.00460239 -7.45851e-22)
(-0.00838274 -0.00142098 -1.53931e-21)
(-0.0107241 -0.00149466 2.7728e-21)
(-0.0132063 -0.00153544 7.97554e-21)
(-0.0157799 -0.00154577 5.36469e-21)
(1.26359 0.0762627 3.56143e-20)
(1.25416 0.0726099 -5.41382e-21)
(1.24511 0.0689101 4.90748e-21)
(1.23651 0.0652266 -3.64383e-21)
(1.2284 0.0615965 -5.04072e-21)
(1.22076 0.0580404 -9.3424e-21)
(1.21361 0.0545689 1.54194e-20)
(1.20692 0.0511863 -1.22564e-20)
(1.20068 0.047893 -7.72635e-21)
(1.19487 0.0446871 7.68384e-21)
(1.18949 0.041565 3.4249e-21)
(1.18451 0.0385223 3.92227e-22)
(1.17993 0.0355539 -1.23096e-21)
(1.17572 0.0326545 -2.17193e-21)
(1.17188 0.0298185 1.52407e-21)
(1.16839 0.0270403 3.19087e-22)
(1.16525 0.0243145 -4.18576e-21)
(1.16245 0.0216353 9.06242e-22)
(1.15997 0.0189975 6.50668e-22)
(1.15782 0.0163956 -1.26106e-21)
(1.15598 0.0138243 1.9861e-22)
(1.15446 0.0112783 -4.55847e-23)
(1.15324 0.00875224 -6.92663e-22)
(1.15233 0.00624107 1.65232e-21)
(1.15173 0.00373915 -6.54923e-22)
(1.15143 0.00124695 4.37177e-22)
(0.866099 -0.0185305 -2.84972e-21)
(0.998622 0.00470569 1.37174e-19)
(1.10092 0.0227475 -8.21674e-20)
(1.18021 0.0425268 -3.86288e-20)
(1.23688 0.0597618 5.37866e-20)
(1.27432 0.0734653 -2.12939e-20)
(1.29629 0.083278 -7.37074e-21)
(1.30659 0.0893984 7.35274e-21)
(1.30862 0.0923913 -4.78126e-21)
(1.30519 0.092945 2.77081e-20)
(1.29841 0.0917293 -2.43085e-20)
(1.28976 0.089314 1.19281e-20)
(1.28024 0.0861403 -9.7713e-21)
(1.27046 0.082526 2.23018e-20)
(1.2608 0.078687 -2.72682e-20)
(1.25145 0.0747623 9.5865e-22)
(1.24252 0.0708379 -2.2275e-21)
(1.23406 0.0669643 3.96169e-22)
(1.22609 0.0631699 1.14827e-20)
(1.21859 0.0594694 -2.2341e-21)
(1.21157 0.0558692 3.353e-21)
(1.205 0.0523707 -1.02368e-20)
(1.19888 0.0489721 1.15669e-20)
(1.19318 0.0456697 -5.03161e-23)
(1.1879 0.0424589 -2.00023e-21)
(1.18302 0.0393341 2.15862e-21)
(1.17852 0.0362895 5.71161e-22)
(1.17438 0.0333189 -2.0505e-21)
(1.17061 0.0304161 -3.14109e-21)
(1.16719 0.0275751 5.85896e-21)
(1.16411 0.0247897 -3.60247e-21)
(1.16135 0.0220539 2.61314e-21)
(1.15892 0.019362 -1.44516e-21)
(1.15681 0.0167081 1.30236e-21)
(1.155 0.0140866 -1.02743e-21)
(1.1535 0.0114918 3.81892e-22)
(1.1523 0.00891795 1.49847e-21)
(1.15141 0.00635971 -6.99223e-22)
(1.15081 0.00381084 -1.1532e-22)
(1.15052 0.00127191 -8.17268e-22)
(0.90482 -0.014233 3.69835e-21)
(1.03195 0.0133498 -1.57695e-21)
(1.12791 0.0332657 -9.99256e-20)
(1.20084 0.0536066 1.07733e-20)
(1.25156 0.0704413 6.31015e-20)
(1.28385 0.0831615 -7.83439e-20)
(1.30168 0.0917329 1.00301e-20)
(1.30887 0.0965754 -2.73718e-21)
(1.30872 0.0983932 -1.69807e-20)
(1.30386 0.0979414 2.42813e-20)
(1.29621 0.0959053 -5.83778e-21)
(1.2871 0.0928398 -8.78444e-21)
(1.27737 0.0891576 9.27933e-21)
(1.26755 0.0851453 -2.99419e-20)
(1.25795 0.0809906 1.45616e-20)
(1.2487 0.0768105 8.31614e-21)
(1.23991 0.0726743 -3.03409e-20)
(1.23159 0.068621 1.05886e-20)
(1.22375 0.064671 -9.13224e-21)
(1.2164 0.0608335 -8.64799e-21)
(1.20951 0.0571109 2.33142e-20)
(1.20307 0.053502 -1.21383e-20)
(1.19706 0.050003 -6.27172e-21)
(1.19148 0.0466088 -6.2709e-23)
(1.18629 0.0433133 5.80826e-21)
(1.1815 0.0401103 -5.60358e-21)
(1.17709 0.0369928 1.50313e-21)
(1.17303 0.0339542 -3.76364e-21)
(1.16933 0.0309877 4.39885e-21)
(1.16597 0.0280865 -2.14947e-21)
(1.16294 0.0252441 -3.97185e-21)
(1.16024 0.0224542 6.32503e-22)
(0.904822 0.0142339 -9.37091e-21)
(1.03195 -0.0133488 1.12517e-20)
(1.12792 -0.0332647 8.71598e-20)
(1.20084 -0.0536056 -1.23716e-20)
(1.25156 -0.0704403 -6.02141e-20)
(1.28385 -0.0831605 7.89841e-20)
(1.30168 -0.091732 -1.60027e-20)
(1.30887 -0.0965745 -6.23223e-21)
(1.30872 -0.0983923 1.78694e-20)
(1.30386 -0.0979406 -2.7788e-20)
(1.29621 -0.0959045 5.90265e-21)
(1.2871 -0.092839 9.77316e-21)
(1.27737 -0.0891569 -1.60485e-20)
(1.26756 -0.0851445 3.05115e-20)
(1.25795 -0.0809899 -1.93808e-20)
(1.2487 -0.0768098 -1.12351e-20)
(1.23991 -0.0726737 3.07896e-20)
(1.23159 -0.0686204 -9.84496e-21)
(1.22376 -0.0646705 7.17602e-21)
(1.2164 -0.060833 5.2294e-21)
(1.20951 -0.0571105 -2.28343e-20)
(1.20307 -0.0535016 8.79443e-21)
(1.19706 -0.0500026 6.68962e-21)
(1.19148 -0.0466084 -2.47417e-22)
(1.1863 -0.043313 -5.35414e-21)
(1.1815 -0.0401099 5.84173e-21)
(1.17709 -0.0369925 -2.56922e-21)
(1.17303 -0.0339539 3.97595e-21)
(1.16933 -0.0309874 -4.29106e-21)
(1.16597 -0.0280863 1.41478e-21)
(1.16294 -0.025244 3.98782e-21)
(1.16024 -0.0224541 -1.58197e-22)
(1.15785 -0.0197104 1.59944e-21)
(1.15577 -0.0170068 -1.49597e-21)
(1.15399 -0.0143372 9.03284e-22)
(1.15252 -0.0116957 3.89335e-22)
(1.15134 -0.0090762 -1.12599e-22)
(1.15046 -0.00647298 1.07083e-21)
(1.14987 -0.00387931 1.98262e-22)
(1.14958 -0.00129573 9.16928e-22)
(0.866102 0.0185313 8.57134e-21)
(0.998625 -0.00470478 -1.4693e-19)
(1.10093 -0.0227466 9.50332e-20)
(1.18022 -0.0425258 4.02388e-20)
(1.23688 -0.0597607 -5.66941e-20)
(1.27433 -0.0734643 2.06506e-20)
(1.29629 -0.083277 1.33769e-20)
(1.30659 -0.0893974 1.66238e-21)
(1.30862 -0.0923903 3.8887e-21)
(1.30519 -0.0929441 -2.41874e-20)
(1.29841 -0.0917284 2.42437e-20)
(1.28976 -0.0893131 -1.29199e-20)
(1.28024 -0.0861395 1.65583e-20)
(1.27046 -0.0825253 -2.28725e-20)
(1.2608 -0.0786863 3.07778e-20)
(1.25145 -0.0747617 6.64619e-21)
(1.24252 -0.0708372 6.59191e-22)
(1.23406 -0.0669636 1.43515e-21)
(1.22609 -0.0631693 -1.28521e-20)
(1.21859 -0.0594689 4.76234e-21)
(1.21157 -0.0558687 -6.83906e-21)
(1.205 -0.0523702 1.2807e-20)
(1.19888 -0.0489716 -1.02376e-20)
(1.19319 -0.0456693 -3.13279e-22)
(1.1879 -0.0424585 -7.48945e-22)
(1.18302 -0.0393338 -4.45693e-21)
(1.17852 -0.0362892 7.1931e-22)
(1.17439 -0.0333186 2.70225e-21)
(1.17061 -0.0304159 3.23751e-21)
(1.16719 -0.0275749 -6.78556e-21)
(1.16411 -0.0247895 4.69492e-21)
(1.16135 -0.0220538 -2.54316e-21)
(1.15892 -0.0193619 2.6598e-21)
(1.15681 -0.016708 -1.79573e-21)
(1.155 -0.0140865 9.57669e-22)
(1.1535 -0.0114917 1.53503e-22)
(1.1523 -0.00891787 7.1561e-22)
(1.15141 -0.00635965 -6.64084e-22)
(1.15081 -0.0038108 -1.43897e-22)
(1.15052 -0.0012719 -8.48619e-22)
(1.16525 -0.0243143 6.25607e-22)
(1.16245 -0.0216351 -1.44644e-21)
(1.15997 -0.0189973 -1.66794e-21)
(1.15782 -0.0163955 1.66571e-21)
(1.15598 -0.0138242 1.22827e-21)
(1.15446 -0.0112782 4.27959e-22)
(1.15324 -0.00875216 -2.16122e-22)
(1.15234 -0.00624102 -3.74936e-22)
(1.15173 -0.00373912 1.07916e-21)
(1.15143 -0.00124693 8.266e-22)
)
;

boundaryField
{
    inlet
    {
        type            uniformFixedValue;
        uniformValue    constant (1 0 0);
        value           nonuniform 0();
    }
    outlet
    {
        type            pressureInletOutletVelocity;
        value           nonuniform 0();
    }
    cylinder
    {
        type            fixedValue;
        value           nonuniform 0();
    }
    top
    {
        type            symmetryPlane;
    }
    bottom
    {
        type            symmetryPlane;
    }
    defaultFaces
    {
        type            empty;
    }
    procBoundary22to21
    {
        type            processor;
        value           nonuniform List<vector> 
175
(
(-0.00623221 0.00131074 2.97595e-21)
(-0.00631337 0.00390976 -8.15242e-21)
(-0.00647069 0.00643742 2.24857e-21)
(-0.00669419 0.00884748 9.03932e-21)
(-0.00696901 0.0110958 -3.38821e-20)
(-0.00907766 0.0141862 -6.34009e-21)
(-0.00907766 0.0141862 -6.34009e-21)
(-0.00924117 0.0161113 -2.19029e-20)
(-0.00935026 0.0177287 1.78038e-20)
(-0.00936821 0.0190048 -4.04534e-20)
(-0.00996533 0.0206802 2.95711e-20)
(-0.00996533 0.0206802 2.95711e-20)
(-0.00926692 0.0211376 6.10935e-20)
(-0.00760777 0.0211942 6.38139e-20)
(-0.00760777 0.0211942 6.38139e-20)
(-0.00563544 0.0206136 -5.9323e-20)
(-0.000372883 0.0187299 -2.09648e-20)
(-0.000372883 0.0187299 -2.09648e-20)
(0.00356601 0.017003 -8.44428e-20)
(0.0140121 0.0131105 2.81294e-20)
(0.0140121 0.0131105 2.81294e-20)
(0.0289418 0.0080009 -2.84215e-20)
(0.0289418 0.0080009 -2.84215e-20)
(0.0381374 0.00461692 1.26099e-19)
(0.0612742 -0.00190075 2.4681e-19)
(0.0612742 -0.00190075 2.4681e-19)
(0.090974 -0.00890055 3.26045e-19)
(0.090974 -0.00890055 3.26045e-19)
(0.128055 -0.0159069 7.00037e-20)
(0.128055 -0.0159069 7.00037e-20)
(0.14917 -0.0198912 -5.71596e-20)
(0.198814 -0.0258794 -5.84501e-20)
(0.198814 -0.0258794 -5.84501e-20)
(0.257691 -0.0303826 2.29206e-20)
(0.257691 -0.0303826 2.29206e-20)
(0.326353 -0.0328449 -7.48558e-20)
(0.326353 -0.0328449 -7.48558e-20)
(0.405065 -0.0330234 1.5e-19)
(0.405065 -0.0330234 1.5e-19)
(0.493338 -0.0311633 -8.63215e-20)
(0.543427 -0.0274289 -3.18193e-20)
(0.543427 -0.0274289 -3.18193e-20)
(0.644462 -0.0236783 -9.04584e-20)
(0.644462 -0.0236783 -9.04584e-20)
(0.747806 -0.0199693 2.24241e-20)
(0.747806 -0.0199693 2.24241e-20)
(0.847667 -0.0170146 4.32028e-19)
(0.847669 0.0170154 -1.84719e-20)
(0.747808 0.0199701 2.94955e-19)
(0.747808 0.0199701 2.94955e-19)
(0.644464 0.0236789 -1.57973e-19)
(0.644464 0.0236789 -1.57973e-19)
(0.493341 0.0311638 -1.43945e-20)
(0.543429 0.0274295 1.55655e-19)
(0.543429 0.0274295 1.55655e-19)
(0.405067 0.0330238 -2.10662e-19)
(0.405067 0.0330238 -2.10662e-19)
(0.326355 0.0328452 7.98598e-20)
(0.326355 0.0328452 7.98598e-20)
(0.257692 0.0303827 -4.84893e-20)
(0.257692 0.0303827 -4.84893e-20)
(0.198816 0.0258794 7.93883e-20)
(0.198816 0.0258794 7.93883e-20)
(0.149171 0.0198911 -2.95615e-19)
(0.128056 0.0159066 -5.93095e-20)
(0.128056 0.0159066 -5.93095e-20)
(0.0909752 0.00890022 -2.93718e-19)
(0.0909752 0.00890022 -2.93718e-19)
(0.0612752 0.00190031 -8.12662e-20)
(0.0612752 0.00190031 -8.12662e-20)
(0.0381381 -0.00461748 1.26726e-19)
(0.0289425 -0.00800161 -1.06619e-19)
(0.0289425 -0.00800161 -1.06619e-19)
(0.0140125 -0.0131113 -2.68476e-20)
(0.0140125 -0.0131113 -2.68476e-20)
(0.00356623 -0.017004 -2.76878e-20)
(-0.000372727 -0.0187309 7.19282e-20)
(-0.000372727 -0.0187309 7.19282e-20)
(-0.00563542 -0.0206147 -1.05311e-19)
(-0.0076078 -0.0211954 2.51089e-20)
(-0.0076078 -0.0211954 2.51089e-20)
(-0.00926703 -0.0211389 3.79381e-20)
(-0.00996545 -0.0206816 -3.12891e-20)
(-0.00996545 -0.0206816 -3.12891e-20)
(-0.00936837 -0.0190061 -1.43508e-20)
(-0.00935042 -0.01773 1.80263e-20)
(-0.00924132 -0.0161128 -5.26094e-21)
(-0.0090778 -0.0141877 1.3664e-20)
(-0.0090778 -0.0141877 1.3664e-20)
(-0.00696913 -0.0110971 1.32616e-20)
(-0.00669429 -0.0088489 1.07218e-20)
(-0.00647077 -0.00643886 -7.23639e-21)
(-0.00631342 -0.00391122 3.34161e-21)
(-0.00623223 -0.00131221 2.0639e-21)
(1.15785 0.0197105 -5.92831e-23)
(1.15577 0.0170069 1.49593e-21)
(1.15399 0.0143373 -9.03263e-22)
(1.15252 0.0116958 -3.89326e-22)
(1.15134 0.00907628 1.12597e-22)
(1.15046 0.00647304 -1.07081e-21)
(1.14987 0.00387934 -1.98257e-22)
(1.14958 0.00129574 -9.16906e-22)
(0.942847 -0.00760061 -1.58975e-19)
(1.06398 0.0232868 9.71887e-20)
(1.15335 0.0445879 -7.96161e-20)
(1.21978 0.065058 3.80548e-20)
(1.26462 0.081183 6.15919e-21)
(1.29196 0.0927171 2.21006e-20)
(1.30591 0.0999382 -2.35536e-20)
(1.31025 0.103465 -1.9246e-20)
(1.30816 0.104117 2.3121e-20)
(1.30207 0.102692 -3.14787e-20)
(1.2937 0.0998767 1.67698e-20)
(1.28423 0.0962008 -2.34015e-20)
(1.27437 0.0920439 -1.6161e-20)
(1.26456 0.08766 1.68153e-20)
(1.25503 0.0832095 -1.22459e-20)
(1.24592 0.0787885 1.4592e-20)
(1.23726 0.0744513 -9.47198e-21)
(1.22909 0.0702263 1.08797e-20)
(1.2214 0.0661268 -1.96195e-20)
(1.21419 0.062157 1.66328e-20)
(1.20743 0.0583161 -1.31689e-20)
(1.20112 0.0546002 6.23822e-22)
(1.19523 0.0510038 2.65834e-21)
(1.18975 0.0475203 -2.00934e-21)
(1.18467 0.0441427 -1.26933e-21)
(1.17997 0.0408636 -1.44911e-21)
(1.17563 0.0376754 3.02222e-21)
(1.17166 0.0345707 -1.63706e-21)
(1.16802 0.0315421 -3.38831e-21)
(1.16473 0.0285825 -1.11827e-21)
(1.16175 0.0256848 2.14911e-21)
(1.15785 0.0197105 -5.92831e-23)
(1.1591 0.0228423 -2.92564e-21)
(0.94285 0.00760152 1.59125e-19)
(1.06398 -0.0232859 -1.02023e-19)
(1.15335 -0.0445869 8.39319e-20)
(1.21978 -0.065057 -4.01846e-20)
(1.26462 -0.081182 -2.62154e-21)
(1.29196 -0.0927161 -2.68577e-20)
(1.30591 -0.0999372 2.27318e-20)
(1.31025 -0.103464 1.77504e-20)
(1.30816 -0.104116 -2.06568e-20)
(1.30207 -0.102691 3.6025e-20)
(1.2937 -0.0998759 -1.79088e-20)
(1.28423 -0.0962001 2.52835e-20)
(1.27437 -0.0920432 1.07101e-20)
(1.26456 -0.0876593 -1.74646e-20)
(1.25503 -0.0832088 1.37025e-20)
(1.24592 -0.0787879 -1.53353e-20)
(1.23726 -0.0744507 1.07105e-20)
(1.22909 -0.0702258 -9.7784e-21)
(1.2214 -0.0661263 1.93252e-20)
(1.21419 -0.0621565 -1.7178e-20)
(1.20743 -0.0583156 1.4084e-20)
(1.20112 -0.0545998 -9.73128e-22)
(1.19523 -0.0510034 -3.09895e-21)
(1.18975 -0.04752 7.76017e-22)
(1.18467 -0.0441424 2.61427e-21)
(1.17997 -0.0408633 1.18034e-21)
(1.17563 -0.0376751 -3.36452e-21)
(1.17166 -0.0345704 2.22103e-21)
(1.16802 -0.0315419 3.94181e-21)
(1.16473 -0.0285823 1.6245e-21)
(1.16175 -0.0256847 -2.28857e-21)
(1.1591 -0.0228421 2.65949e-21)
(1.15675 -0.0200481 -6.17808e-22)
(1.15471 -0.0172962 -1.54207e-21)
(1.15296 -0.01458 1.39221e-21)
(1.15151 -0.0118931 1.30956e-21)
(1.15035 -0.00922935 -3.37039e-22)
(1.14948 -0.00658255 2.34142e-21)
(1.1489 -0.00394552 1.07353e-22)
(1.14862 -0.00131869 9.80814e-22)
)
;
    }
    procBoundary22to23
    {
        type            processor;
        value           nonuniform List<vector> 
164
(
(-0.0183964 0.00152609 5.65659e-21)
(-0.018259 0.00454638 -8.22187e-21)
(-0.0179776 0.00746482 -1.95326e-20)
(-0.0175388 0.0102155 1.76123e-20)
(-0.0169227 0.0127354 3.42788e-20)
(-0.0161025 0.0149657 -7.84577e-21)
(-0.0161025 0.0149657 -7.84577e-21)
(-0.0160602 0.0162101 3.42862e-20)
(-0.0141889 0.0175744 -3.85226e-20)
(-0.0119136 0.0184953 5.73374e-20)
(-0.0119136 0.0184953 5.73374e-20)
(-0.00785334 0.0175291 3.35603e-20)
(-0.00372571 0.0172907 -1.33779e-20)
(0.00108561 0.0165354 8.0369e-20)
(0.00108561 0.0165354 8.0369e-20)
(0.0116958 0.0129778 4.29474e-22)
(0.0193774 0.0110152 -7.45013e-20)
(0.0193774 0.0110152 -7.45013e-20)
(0.0368313 0.00571221 6.12535e-20)
(0.0482816 0.00272161 2.86631e-20)
(0.0482816 0.00272161 2.86631e-20)
(0.0744067 -0.00382464 -1.12368e-19)
(0.0744067 -0.00382464 -1.12368e-19)
(0.107268 -0.0106769 2.64248e-20)
(0.127292 -0.0143222 -2.07234e-19)
(0.127292 -0.0143222 -2.07234e-19)
(0.171924 -0.0207113 -1.07897e-19)
(0.171924 -0.0207113 -1.07897e-19)
(0.225207 -0.0259359 6.29168e-21)
(0.225207 -0.0259359 6.29168e-21)
(0.287798 -0.0291933 8.19986e-20)
(0.287798 -0.0291933 8.19986e-20)
(0.360311 -0.0295313 4.45883e-20)
(0.360311 -0.0295313 4.45883e-20)
(0.444098 -0.0255047 -7.46902e-20)
(0.444098 -0.0255047 -7.46902e-20)
(0.54609 -0.0153752 1.50346e-19)
(0.54609 -0.0153752 1.50346e-19)
(0.663876 -0.015468 3.63996e-19)
(0.663876 -0.015468 3.63996e-19)
(0.827077 -0.0205443 -1.05354e-19)
(0.663878 0.0154684 -4.21874e-20)
(0.82708 0.020545 1.10424e-19)
(0.663878 0.0154684 -4.21874e-20)
(0.546093 0.0153756 1.91039e-19)
(0.546093 0.0153756 1.91039e-19)
(0.4441 0.0255049 3.21096e-19)
(0.4441 0.0255049 3.21096e-19)
(0.360314 0.0295313 1.50971e-19)
(0.360314 0.0295313 1.50971e-19)
(0.2878 0.0291931 1.13288e-20)
(0.2878 0.0291931 1.13288e-20)
(0.225209 0.0259357 -1.59307e-19)
(0.225209 0.0259357 -1.59307e-19)
(0.171926 0.0207109 1.57152e-19)
(0.171926 0.0207109 1.57152e-19)
(0.127294 0.0143217 4.41385e-20)
(0.127294 0.0143217 4.41385e-20)
(0.10727 0.0106762 -8.54768e-21)
(0.074408 0.00382386 -9.06888e-21)
(0.074408 0.00382386 -9.06888e-21)
(0.0482827 -0.00272252 2.61247e-20)
(0.0482827 -0.00272252 2.61247e-20)
(0.0368323 -0.00571328 2.22498e-20)
(0.0193781 -0.0110164 -2.17085e-20)
(0.0193781 -0.0110164 -2.17085e-20)
(0.0116964 -0.0129792 -8.13613e-21)
(0.00108602 -0.0165369 5.71322e-22)
(0.00108602 -0.0165369 5.71322e-22)
(-0.00372536 -0.0172923 -1.12967e-19)
(-0.00785305 -0.0175308 2.84766e-21)
(-0.0119135 -0.0184972 -4.46079e-20)
(-0.0119135 -0.0184972 -4.46079e-20)
(-0.0141888 -0.0175763 1.21844e-20)
(-0.0160601 -0.0162121 1.51402e-20)
(-0.0161025 -0.0149677 7.63605e-22)
(-0.0161025 -0.0149677 7.63605e-22)
(-0.0169227 -0.0127375 -5.69643e-21)
(-0.0175388 -0.0102177 3.95679e-21)
(-0.0179776 -0.00746703 -2.40298e-20)
(-0.018259 -0.00454861 3.44883e-21)
(-0.0183964 -0.00152834 -3.90659e-22)
(1.26631 0.0736456 7.54645e-21)
(1.25682 0.0702839 1.54907e-20)
(1.24767 0.0668263 -2.04731e-20)
(1.23895 0.0633484 2.89913e-21)
(1.2307 0.0598964 6.37138e-21)
(1.22293 0.0564971 -2.14028e-21)
(1.21564 0.0531655 7.16285e-21)
(1.20883 0.049909 -1.68662e-20)
(1.20247 0.0467302 9.78336e-21)
(1.19655 0.0436289 -4.37305e-21)
(1.19107 0.0406031 -4.90797e-21)
(1.186 0.0376493 6.83956e-21)
(1.18132 0.0347634 -2.75714e-21)
(1.17703 0.031941 -2.82866e-21)
(1.17312 0.0291771 -7.0335e-22)
(1.16957 0.0264667 -8.63779e-22)
(1.16637 0.0238049 1.51919e-21)
(1.16352 0.0211866 -1.91391e-21)
(1.161 0.0186069 -6.20935e-22)
(1.15881 0.0160608 9.41721e-24)
(1.15695 0.0135434 2.33214e-21)
(1.1554 0.0110498 -2.36419e-22)
(1.15416 0.00857487 -2.10244e-21)
(1.15324 0.00611417 7.2373e-22)
(1.15263 0.00366257 -1.16856e-21)
(1.15233 0.00122035 8.22675e-24)
(0.827077 -0.0205443 -1.05354e-19)
(0.964146 -0.00271272 3.15326e-20)
(1.07246 0.0131371 1.2385e-20)
(1.15794 0.0319975 1.55206e-20)
(1.22059 0.049325 -4.66135e-20)
(1.26334 0.0637735 6.81795e-20)
(1.28969 0.0746719 -2.15924e-20)
(1.30334 0.0819888 -2.01889e-20)
(1.3078 0.0861303 5.56624e-20)
(1.30601 0.0876971 -4.30442e-20)
(1.30025 0.0873267 3.83052e-20)
(1.29219 0.0855919 -2.42404e-20)
(1.28295 0.082956 9.88105e-21)
(1.27327 0.0797653 9.02072e-21)
(1.27327 0.0797653 9.02072e-21)
(0.82708 0.020545 1.10424e-19)
(0.964148 0.00271357 -3.3266e-20)
(1.07246 -0.0131361 -1.29045e-20)
(1.15794 -0.0319965 -1.89354e-20)
(1.22059 -0.0493239 5.17751e-20)
(1.26335 -0.0637724 -6.34465e-20)
(1.28969 -0.0746709 2.46869e-20)
(1.30335 -0.0819878 2.41263e-20)
(1.30781 -0.0861293 -5.59342e-20)
(1.30601 -0.0876962 4.43642e-20)
(1.30025 -0.0873258 -3.53324e-20)
(1.29219 -0.085591 2.46518e-20)
(1.28295 -0.0829552 -8.10373e-21)
(1.27327 -0.0797646 -6.7451e-21)
(1.26359 -0.0762619 9.7101e-21)
(1.25416 -0.0726092 5.41387e-21)
(1.24511 -0.0689095 -4.90753e-21)
(1.23651 -0.065226 3.64386e-21)
(1.2284 -0.0615959 5.04078e-21)
(1.22076 -0.0580398 9.34251e-21)
(1.21361 -0.0545684 -1.54196e-20)
(1.20692 -0.0511858 1.22565e-20)
(1.20068 -0.0478926 7.72646e-21)
(1.19487 -0.0446867 -7.68395e-21)
(1.18949 -0.0415646 -3.42495e-21)
(1.18451 -0.0385219 -3.92234e-22)
(1.17993 -0.0355536 1.23098e-21)
(1.17572 -0.0326542 2.17197e-21)
(1.17188 -0.0298182 -1.5241e-21)
(1.16839 -0.0270401 -3.19094e-22)
(1.16839 -0.0270401 -3.19094e-22)
(1.16637 -0.0238047 2.61517e-21)
(1.16352 -0.0211865 -2.4597e-21)
(1.161 -0.0186068 1.10652e-21)
(1.15881 -0.0160607 4.64052e-22)
(1.15695 -0.0135433 -2.54138e-21)
(1.1554 -0.0110497 2.37296e-22)
(1.15416 -0.00857479 2.08812e-21)
(1.15324 -0.00611411 -9.29693e-22)
(1.15263 -0.00366254 1.15461e-21)
(1.15233 -0.00122034 -2.22143e-23)
)
;
    }
}


// ************************************************************************* //
