/*--------------------------------*- C++ -*----------------------------------*\
  =========                 |
  \\      /  F ield         | OpenFOAM: The Open Source CFD Toolbox
   \\    /   O peration     | Website:  https://openfoam.org
    \\  /    A nd           | Version:  7
     \\/     M anipulation  |
\*---------------------------------------------------------------------------*/
FoamFile
{
    version     2.0;
    format      ascii;
    class       surfaceScalarField;
    location    "91";
    object      phi;
}
// * * * * * * * * * * * * * * * * * * * * * * * * * * * * * * * * * * * * * //

dimensions      [0 3 -1 0 0 0 0];

internalField   nonuniform List<scalar> 
79480
(
-7.24276e-07
2.60572e-05
-2.53329e-05
-2.8819e-06
7.29656e-05
-7.0808e-05
-6.51702e-06
0.000116453
-0.000112818
-1.16651e-05
0.000156226
-0.000151078
-1.8347e-05
0.000192062
-0.00018538
-2.65673e-05
0.000223852
-0.000215632
-3.6314e-05
0.000251605
-0.000241858
-4.75598e-05
0.00027545
-0.000264205
-6.02651e-05
0.00029563
-0.000282925
-7.43818e-05
0.00031248
-0.000298363
-8.98564e-05
0.0003264
-0.000310926
-0.000106634
0.000337824
-0.000321046
-0.000124663
0.000347175
-0.000329147
-0.000143893
0.000354829
-0.000335599
-0.00016428
0.000361077
-0.00034069
-0.000185785
0.000366094
-0.000344589
-0.000208371
0.00036992
-0.000347333
-0.000232005
0.000372442
-0.000348809
-0.00025665
0.000373396
-0.000348751
-0.000282267
0.000372362
-0.000346745
-0.000308811
0.000368773
-0.000342229
-0.00033623
0.00036192
-0.000334501
-0.000364465
0.000350953
-0.000322717
-0.000393457
0.000334883
-0.000305892
-0.000423147
0.00031258
-0.000282889
-0.000453497
0.000282766
-0.000252416
-0.000484498
0.000244011
-0.00021301
-0.000516185
0.000194718
-0.000163031
-0.000548678
0.000133044
-0.00010055
5.68514e-05
-2.3201e-05
-0.000582329
-5.919e-07
2.66491e-05
-2.39777e-06
7.47715e-05
-5.49507e-06
0.00011955
-9.9508e-06
0.000160681
-1.58151e-05
0.000197927
-2.31183e-05
0.000231155
-3.18701e-05
0.000260357
-4.20603e-05
0.000285641
-5.36612e-05
0.000307231
-6.66312e-05
0.00032545
-8.09185e-05
0.000340688
-9.64654e-05
0.000353371
-0.000113212
0.000363922
-0.000131098
0.000372715
-0.000150066
0.000380045
-0.000170062
0.00038609
-0.000191032
0.00039089
-0.000212924
0.000394334
-0.000235682
0.000396155
-0.000259247
0.000395927
-0.000283548
0.000393075
-0.000308506
0.000386878
-0.000334028
0.000376475
-0.000360013
0.000360869
-0.00038636
0.000338926
-0.000412977
0.000309383
-0.000439811
0.000270845
-0.000466868
0.000221775
-0.000494268
0.000160444
8.50449e-05
-0.000522461
-4.51683e-07
2.71007e-05
-1.88261e-06
7.62024e-05
-4.40288e-06
0.000122071
-8.11036e-06
0.000164389
-1.30837e-05
0.0002029
-1.93786e-05
0.00023745
-2.70258e-05
0.000268004
-3.60316e-05
0.000294646
-4.63797e-05
0.000317579
-5.8034e-05
0.000337104
-7.0943e-05
0.000353597
-8.50442e-05
0.000367472
-0.000100268
0.000379145
-0.00011654
0.000388988
-0.000133787
0.000397292
-0.000151935
0.000404237
-0.000170908
0.000409863
-0.00019063
0.000414057
-0.000211022
0.000416546
-0.000231994
0.000416899
-0.000253446
0.000414526
-0.000275259
0.000408691
-0.000297298
0.000398514
-0.00031941
0.000382981
-0.000341432
0.000360948
-0.000363206
0.000331157
-0.000384609
0.000292248
-0.00040559
0.000242756
-0.000426245
0.000181098
0.00010586
-0.00044706
-3.05474e-07
2.74062e-05
-1.3429e-06
7.72399e-05
-3.25351e-06
0.000123981
-6.16462e-06
0.0001673
-1.01821e-05
0.000206917
-1.5386e-05
0.000242654
-2.18274e-05
0.000274445
-2.95282e-05
0.000302347
-3.84826e-05
0.000326533
-4.86595e-05
0.000347281
-6.00066e-05
0.000364944
-7.24547e-05
0.00037992
-8.59227e-05
0.000392613
-0.000100321
0.000403386
-0.000115555
0.000412527
-0.000131528
0.00042021
-0.00014814
0.000426474
-0.000165286
0.000431203
-0.000182855
0.000434115
-0.000200724
0.000434768
-0.000218756
0.000432557
-0.000236789
0.000426724
-0.000254637
0.000416362
-0.000272088
0.000400431
-0.000288905
0.000377766
-0.000304848
0.0003471
-0.000319702
0.000307102
-0.000333338
0.000256392
-0.000345786
0.000193547
0.000117587
-0.000357513
-1.55356e-07
2.75616e-05
-7.86241e-07
7.78708e-05
-2.06242e-06
0.000125257
-4.13861e-06
0.000169376
-7.14607e-06
0.000209925
-1.11874e-05
0.000246695
-1.6333e-05
0.000279591
-2.26195e-05
0.000308634
-3.00506e-05
0.000333965
-3.85993e-05
0.000355829
-4.82117e-05
0.000374556
-5.88111e-05
0.00039052
-7.03032e-05
0.000404105
-8.25806e-05
0.000415664
-9.55267e-05
0.000425473
-0.000109018
0.000433701
-0.000122925
0.000440382
-0.000137112
0.00044539
-0.000151433
0.000448437
-0.000165729
0.000449064
-0.000179818
0.000446647
-0.000193494
0.0004404
-0.000206516
0.000429384
-0.000218606
0.000412521
-0.000229451
0.000388611
-0.000238716
0.000356365
-0.000246077
0.000314464
-0.000251299
0.000261613
-0.000254317
0.000196564
0.000118736
-0.000255466
-4.87635e-09
2.75665e-05
-2.21278e-07
7.80872e-05
-8.47092e-07
0.000125883
-2.06112e-06
0.00017059
-4.01685e-06
0.000211881
-6.83786e-06
0.000249516
-1.06118e-05
0.000283365
-1.53888e-05
0.000313411
-2.11814e-05
0.000339757
-2.79659e-05
0.000362614
-3.56859e-05
0.000382276
-4.42564e-05
0.00039909
-5.35692e-05
0.000413418
-6.34973e-05
0.000425592
-7.39e-05
0.000435875
-8.46254e-05
0.000444427
-9.55126e-05
0.000451269
-0.000106391
0.000456268
-0.000117077
0.000459123
-0.000127371
0.000459358
-0.000137049
0.000456324
-0.000145854
0.000449205
-0.000153491
0.000437021
-0.000159617
0.000418647
-0.00016384
0.000392834
-0.000165728
0.000358252
-0.000164834
0.00031357
-0.000160793
0.000257572
-0.000153431
0.000189202
0.000108078
-0.000142773
1.4639e-07
2.74201e-05
3.43313e-07
7.78902e-05
3.7347e-07
0.000125853
3.72224e-08
0.000170927
-8.40519e-07
0.000212758
-2.39939e-06
0.000251075
-4.74267e-06
0.000285708
-7.93253e-06
0.000316601
-1.19891e-05
0.000343814
-1.68914e-05
0.000367516
-2.25799e-05
0.000387965
-2.89611e-05
0.000405472
-3.59118e-05
0.000420369
-4.32849e-05
0.000432965
-5.09142e-05
0.000443505
-5.86182e-05
0.000452131
-6.62021e-05
0.000458853
-7.34585e-05
0.000463524
-8.01647e-05
0.000465829
-8.60784e-05
0.000465272
-9.09307e-05
0.000461177
-9.44175e-05
0.000452692
-9.61894e-05
0.000438793
-9.58422e-05
0.0004183
-9.29097e-05
0.000389902
-8.68637e-05
0.000352206
-7.71318e-05
0.000303838
-6.31797e-05
0.00024362
-4.46845e-05
0.000170707
8.52455e-05
-2.18516e-05
2.92526e-07
2.71275e-05
8.97214e-07
7.72855e-05
1.57836e-06
0.000125172
2.11967e-06
0.000170385
2.3322e-06
0.000212546
2.05996e-06
0.000251348
1.18733e-06
0.000286581
-3.57789e-07
0.000318146
-2.60179e-06
0.000346058
-5.52538e-06
0.00037044
-9.06579e-06
0.000391505
-1.31202e-05
0.000409526
-1.75508e-05
0.000424799
-2.21898e-05
0.000437604
-2.68449e-05
0.00044816
-3.13038e-05
0.00045659
-3.53372e-05
0.000462886
-3.86992e-05
0.000466886
-4.11263e-05
0.000468256
-4.23331e-05
0.000466478
-4.20058e-05
0.000460849
-3.97932e-05
0.000450479
-3.52959e-05
0.000434295
-2.80536e-05
0.000411058
-1.75342e-05
0.000379382
-3.12694e-06
0.000337799
1.58443e-05
0.000284867
4.00976e-05
0.000219367
7.0184e-05
0.000140621
4.97567e-05
0.000105673
4.32405e-07
2.66951e-05
1.43084e-06
7.62871e-05
2.74714e-06
0.000123856
4.15352e-06
0.000168979
5.44929e-06
0.00021125
6.46813e-06
0.000250329
7.08468e-06
0.000285964
7.21931e-06
0.000318011
6.84093e-06
0.000346436
5.96788e-06
0.000371313
4.66681e-06
0.000392806
3.04961e-06
0.000411143
1.26898e-06
0.00042658
-4.86851e-07
0.00043936
-1.99968e-06
0.000449673
-3.02613e-06
0.000457616
-3.30135e-06
0.000463161
-2.54059e-06
0.000466126
-4.38646e-07
0.000466154
3.33344e-06
0.000462706
9.13461e-06
0.000455048
1.73618e-05
0.000442252
2.84614e-05
0.000423196
4.2943e-05
0.000396576
6.13949e-05
0.000360931
8.45001e-05
0.000314694
0.000113043
0.000256324
0.000147845
0.000184565
0.000189544
9.89216e-05
1.01563e-06
0.000238285
5.63206e-07
2.61319e-05
1.93444e-06
7.49159e-05
3.85867e-06
0.000121931
6.10184e-06
0.000166736
8.45677e-06
0.000208895
1.07507e-05
0.000248035
1.28524e-05
0.000283863
1.46771e-05
0.000316186
1.61912e-05
0.000344922
1.74132e-05
0.000370091
1.8414e-05
0.000391805
1.93147e-05
0.000410243
2.02824e-05
0.000425612
2.15252e-05
0.000438117
2.32868e-05
0.000447911
2.58414e-05
0.000455061
2.94892e-05
0.000459513
3.45542e-05
0.000461061
4.13838e-05
0.000459325
5.03512e-05
0.000453739
6.18601e-05
0.000443539
7.63527e-05
0.000427759
9.43198e-05
0.000405229
0.000116316
0.00037458
0.000142976
0.00033427
0.000175041
0.000282629
0.000213377
0.000217988
0.000258944
0.000138998
0.000312606
4.52595e-05
-6.11045e-05
0.000374726
6.824e-07
2.54495e-05
2.39855e-06
7.31997e-05
4.89244e-06
0.000119437
7.9294e-06
0.000163699
1.13011e-05
0.000205523
1.4833e-05
0.000244503
1.83917e-05
0.000280304
2.1891e-05
0.000312687
2.52964e-05
0.000341517
2.86284e-05
0.000366759
3.19628e-05
0.000388471
3.54295e-05
0.000406776
3.92096e-05
0.000421832
4.35303e-05
0.000433796
4.866e-05
0.000442781
5.49027e-05
0.000448819
6.25935e-05
0.000451823
7.20954e-05
0.000451559
8.37982e-05
0.000447622
9.81197e-05
0.000439417
0.000115509
0.00042615
0.000136455
0.000406814
0.000161491
0.000380192
0.000191216
0.000344856
0.000226305
0.000299181
0.000267545
0.000241389
0.00031587
0.000169664
0.000372367
8.25004e-05
0.000438114
-2.04872e-05
-0.000136805
0.000513815
7.87684e-07
2.46618e-05
2.81436e-06
7.11731e-05
5.82912e-06
0.000116423
9.60251e-06
0.000159925
1.39305e-05
0.000201195
1.86419e-05
0.000239791
2.36055e-05
0.00027534
2.87368e-05
0.000307556
3.40036e-05
0.00033625
3.94295e-05
0.000361333
4.50962e-05
0.000382804
5.11427e-05
0.000400729
5.77631e-05
0.000415212
6.5203e-05
0.000426356
7.37541e-05
0.00043423
8.37491e-05
0.000438824
9.55569e-05
0.000440015
0.000109579
0.000437537
0.000126248
0.000430953
0.000146026
0.000419639
0.00016941
0.000402766
0.000196935
0.000379289
0.000229183
0.000347944
0.000266795
0.000307244
0.00031049
0.000255486
0.000361093
0.000190786
0.000419587
0.000111169
0.000487171
1.49172e-05
0.000565115
-9.84316e-05
-0.000226298
0.000654608
8.77017e-07
2.37848e-05
3.17395e-06
6.88761e-05
6.65109e-06
0.000112946
1.10901e-05
0.000155486
1.6297e-05
0.000195989
2.21088e-05
0.00023398
2.84013e-05
0.000269048
3.50955e-05
0.000300862
4.21642e-05
0.000329181
4.96364e-05
0.000353861
5.76005e-05
0.00037484
6.62049e-05
0.000392125
7.56565e-05
0.00040576
8.62179e-05
0.000415795
9.82028e-05
0.000422245
0.000111971
0.000425055
0.000127925
0.000424061
0.000146503
0.000418959
0.000168179
0.000409277
0.000193464
0.000394355
0.000222901
0.000373328
0.000257078
0.000345112
0.000296627
0.000308395
0.000342241
0.00026163
0.000394684
0.000203042
0.000454825
0.000130645
0.000523685
4.23083e-05
0.00060255
-6.39475e-05
0.000692849
-0.000188731
-0.000329842
0.000796393
9.48681e-07
2.28361e-05
3.47054e-06
6.63543e-05
7.34305e-06
0.000109073
1.23648e-05
0.000150464
1.83574e-05
0.000189996
2.51715e-05
0.000227166
3.26944e-05
0.000261525
4.08566e-05
0.000292699
4.96393e-05
0.000320398
5.90791e-05
0.000344421
6.92726e-05
0.000364647
8.03779e-05
0.00038102
9.26146e-05
0.000393523
0.000106261
0.000402148
0.000121653
0.000406854
0.000139175
0.000407533
0.000159261
0.000403975
0.000182386
0.000395833
0.000209068
0.000382595
0.000239863
0.00036356
0.000275368
0.000337823
0.000316226
0.000304254
0.000363129
0.000261492
0.000416828
0.000207931
0.000478148
0.000141722
0.00054801
6.07834e-05
0.000627476
-3.71576e-05
0.000717891
-0.000154362
0.000820786
-0.000291626
-0.000447783
0.000938727
1.00133e-06
2.18348e-05
3.69868e-06
6.36569e-05
7.8925e-06
0.000104879
1.3404e-05
0.000144953
2.00756e-05
0.000183324
2.77769e-05
0.000219464
3.64113e-05
0.000252891
4.59233e-05
0.000283187
5.63055e-05
0.000310016
6.7605e-05
0.000333121
7.99283e-05
0.000352323
9.34444e-05
0.000367504
0.000108385
0.000378582
0.000125046
0.000385488
0.000143781
0.000388119
0.000165
0.000386314
0.000189168
0.000379807
0.000216798
0.000368204
0.000248448
0.000350944
0.000284727
0.000327282
0.000326286
0.000296263
0.000373832
0.000256708
0.000428126
0.000207199
0.000489993
0.000146064
0.000560333
7.13815e-05
0.000640138
-1.90213e-05
0.000730516
-0.000127536
0.000832858
-0.000256704
0.000948703
-0.000407471
-0.000580562
0.00108148
1.03402e-06
2.08008e-05
3.85449e-06
6.08364e-05
8.29033e-06
0.000100443
1.41905e-05
0.000139053
2.14238e-05
0.000176091
2.98834e-05
0.000211005
3.94937e-05
0.00024328
5.02169e-05
0.000272464
6.20611e-05
0.000298172
7.50867e-05
0.000320096
8.94126e-05
0.000337997
0.00010522
0.000351696
0.000122754
0.000361048
0.000142326
0.000365916
0.00016431
0.000366135
0.000189142
0.000361481
0.000217317
0.000351633
0.000249384
0.000336136
0.00028595
0.000314378
0.000327674
0.000285558
0.000375273
0.000248664
0.000429524
0.000202457
0.00049127
0.000145453
0.000561425
7.5909e-05
0.000640985
-8.17804e-06
0.000731031
-0.000109068
0.000832729
-0.000229233
0.000947498
-0.000371473
0.00107677
-0.000536741
-0.000728666
0.00122487
1.04628e-06
1.97545e-05
3.93587e-06
5.79469e-05
8.53125e-06
9.5848e-05
1.47142e-05
0.00013287
2.23844e-05
0.000168421
3.14635e-05
0.000201925
4.19011e-05
0.000232843
5.36817e-05
0.000260683
6.68324e-05
0.000285021
8.14304e-05
0.000305498
9.76094e-05
0.000321818
0.000115565
0.000333741
0.000135558
0.000341055
0.000157917
0.000343557
0.000183038
0.000341015
0.000211381
0.000333138
0.000243475
0.000319539
0.00027991
0.000299701
0.000321343
0.000272946
0.000368493
0.000238408
0.000422148
0.000195009
0.000483171
0.000141435
0.000552498
7.61255e-05
0.00063115
-2.74343e-06
0.000720237
-9.72644e-05
0.00082094
-0.000209771
0.00093449
-0.000342783
0.00106231
-0.000499292
0.00120558
-0.000680007
-0.000892531
0.00136944
1.03815e-06
1.87164e-05
3.94264e-06
5.50424e-05
8.61432e-06
9.11764e-05
1.49722e-05
0.000126512
2.29512e-05
0.000160442
3.25058e-05
0.000192371
4.36151e-05
0.000221733
5.62898e-05
0.000248009
7.05802e-05
0.000270731
8.65837e-05
0.000289494
0.000104453
0.00030395
0.0001244
0.000313793
0.000146705
0.00031875
0.000171716
0.000318546
0.000199852
0.000312878
0.000231606
0.000301384
0.000267541
0.000283604
0.000308296
0.000258946
0.000354582
0.00022666
0.00040719
0.0001858
0.000466993
0.000135206
0.000534948
7.34796e-05
0.000612104
-1.0299e-06
0.000699605
-9.0245e-05
0.000798672
-0.000196331
0.000910597
-0.000321696
0.00103666
-0.000468843
0.00117822
-0.000640858
0.00133606
-0.000837847
-0.00107235
0.00151588
1.01021e-06
1.77061e-05
3.87684e-06
5.21757e-05
8.5434e-06
8.65098e-05
1.49702e-05
0.000120085
2.31313e-05
0.000152281
3.30178e-05
0.000182484
4.46423e-05
0.000210109
5.8046e-05
0.000234605
7.33062e-05
0.000255471
9.05447e-05
0.000272256
0.000109936
0.000284558
0.000131716
0.000292013
0.000156186
0.00029428
0.000183719
0.000291013
0.000214764
0.000281833
0.000249849
0.0002663
0.000289581
0.000243871
0.000334655
0.000213873
0.000385851
0.000175464
0.000444042
0.000127609
0.000510197
6.90505e-05
0.000585386
-1.70892e-06
0.000670784
-8.64284e-05
0.000767652
-0.000187112
0.000877325
-0.000306005
0.00100117
-0.000445543
0.00114047
-0.00060814
0.00129643
-0.000796823
0.00146927
-0.00101069
-0.00126784
0.00166476
9.63654e-07
1.67425e-05
3.74281e-06
4.93966e-05
8.32757e-06
8.1925e-05
1.4723e-05
0.00011369
2.29459e-05
0.000144058
3.30274e-05
0.000172403
4.50175e-05
0.000198119
5.89916e-05
0.000220631
7.50584e-05
0.000239404
9.33692e-05
0.000253945
0.000114126
0.000263801
0.000137592
0.000268548
0.000164097
0.000267775
0.000194046
0.000261063
0.000227925
0.000247954
0.000266307
0.000227918
0.000309856
0.000200323
0.000359332
0.000164397
0.000415597
0.000119198
0.000479622
6.35838e-05
0.000552487
-3.81421e-06
0.000635387
-8.46086e-05
0.000729613
-0.000180655
0.000836544
-0.000294043
0.000957591
-0.000427052
0.00109413
-0.000582079
0.00124733
-0.000761344
0.00141811
-0.000967598
0.00160597
-0.00119855
-0.00147795
0.00181608
9.00314e-07
1.58422e-05
3.54742e-06
4.67495e-05
7.98149e-06
7.7491e-05
1.42554e-05
0.000107416
2.24317e-05
0.000135882
3.25848e-05
0.00016225
4.48056e-05
0.000185898
5.92077e-05
0.000206229
7.59361e-05
0.000222676
9.51766e-05
0.000234705
0.000117165
0.000241812
0.000142199
0.000243514
0.000170646
0.000239329
0.000202951
0.000228759
0.000239648
0.000211256
0.000281368
0.000186198
0.000328843
0.000152848
0.000382916
0.000110324
0.000444546
5.75684e-05
0.000514812
-6.6829e-06
0.000594918
-8.39201e-05
0.000686175
-0.000175865
0.000789986
-0.000284466
0.000907799
-0.000411857
0.00104103
-0.000560281
0.00119094
-0.000731986
0.00135845
-0.000928862
0.00154395
-0.00115309
0.00174618
-0.00140078
-0.00170063
0.00196885
8.22726e-07
1.50195e-05
3.30017e-06
4.4272e-05
7.52556e-06
7.32656e-05
1.36022e-05
0.000101339
2.16411e-05
0.000127843
3.1763e-05
0.000152128
4.41029e-05
0.000173558
5.88172e-05
0.000191515
7.60921e-05
0.000205401
9.61542e-05
0.000214643
0.000119281
0.000218685
0.000145813
0.000216982
0.000176163
0.000208978
0.000210832
0.000194089
0.000250415
0.000171674
0.000295613
0.000141
0.000347242
0.000101218
0.000406244
5.13222e-05
0.000473687
-9.87414e-06
0.000550768
-8.37643e-05
0.000638805
-0.000171957
0.000739213
-0.000276273
0.000853458
-0.000398711
0.000982981
-0.00054138
0.00112908
-0.000706382
0.00129274
-0.000895645
0.00147445
-0.00111057
0.00167379
-0.00135243
0.00188876
-0.00161575
-0.00193267
0.00212081
7.34124e-07
1.42853e-05
3.01317e-06
4.1993e-05
6.98595e-06
6.92928e-05
1.28085e-05
9.55167e-05
2.06424e-05
0.000120009
3.06577e-05
0.000142113
4.30372e-05
0.000161179
5.79844e-05
0.000176567
7.57328e-05
0.000187652
9.65566e-05
0.000193819
0.000120784
0.000194458
0.000148808
0.000188958
0.000181102
0.000176684
0.000218233
0.000156959
0.000260871
0.000129035
0.000309807
9.20646e-05
0.000365955
4.50698e-05
0.000430365
-1.30879e-05
0.000504221
-8.37303e-05
0.000588833
-0.000168376
0.000685611
-0.000268735
0.000796024
-0.000386686
0.000921523
-0.000524209
0.00106342
-0.000683279
0.00122274
-0.000865703
0.00139998
-0.00107288
0.00159498
-0.00130558
0.0018063
-0.00156375
0.00203126
-0.00184071
-0.00216982
0.00226841
6.38426e-07
1.36469e-05
2.70106e-06
3.99304e-05
6.39423e-06
6.55996e-05
1.19285e-05
8.99825e-05
1.95184e-05
0.000112419
2.93858e-05
0.000132245
4.17653e-05
0.000148799
5.69126e-05
0.00016142
7.51145e-05
0.00016945
9.67016e-05
0.000172232
0.000122062
0.000169098
0.000151654
0.000159366
0.000186024
0.000142314
0.000225819
0.000117163
0.000271804
8.30505e-05
0.000324867
3.90015e-05
0.000386034
-1.60975e-05
0.000456468
-8.35221e-05
0.000537461
-0.000164723
0.000630407
-0.000261322
0.000736765
-0.000375093
0.000857974
-0.000507896
0.000995348
-0.000661583
0.00114991
-0.000837847
0.00132223
-0.00103801
0.00151209
-0.00126275
0.00171849
-0.00151198
0.00193883
-0.00178408
0.00216994
-0.00207181
-0.00240704
0.00240716
5.40155e-07
1.31067e-05
2.38063e-06
3.80899e-05
5.78664e-06
6.21936e-05
1.10247e-05
8.47444e-05
1.83644e-05
0.000105079
2.80824e-05
0.000122527
4.04691e-05
0.000136413
5.58376e-05
0.000146051
7.45358e-05
0.000150752
9.69593e-05
0.000149808
0.000123567
0.000142491
0.000154895
0.000128038
0.000191576
0.000105633
0.000234353
7.43856e-05
0.000284094
3.33098e-05
0.000341799
-1.8703e-05
0.000408604
-8.29034e-05
0.000485778
-0.000160696
0.000574691
-0.000253636
0.000676777
-0.000363408
0.000793455
-0.000491771
0.000926021
-0.000640462
0.0010755
-0.00081106
0.00124244
-0.00100479
0.00142674
-0.00122231
0.00162734
-0.00146334
0.00184222
-0.00172686
0.00206766
-0.00200952
0.00230022
-0.00230438
-0.00263897
0.00253216
4.44304e-07
1.26624e-05
2.07033e-06
3.64639e-05
5.20287e-06
5.90611e-05
1.01656e-05
7.97817e-05
1.7285e-05
9.79596e-05
2.68957e-05
0.000112917
3.93481e-05
0.00012396
5.50191e-05
0.00013038
7.43251e-05
0.000131446
9.77362e-05
0.000126397
0.000125793
0.000114435
0.000159122
9.47088e-05
0.000198455
6.62998e-05
0.00024464
2.82e-05
0.000298657
-2.07069e-05
0.000361617
-8.16627e-05
0.000434757
-0.000156044
0.000519422
-0.00024536
0.000617012
-0.000351226
0.000728919
-0.000475315
0.000856412
-0.000619264
0.0010005
-0.000784547
0.00116173
-0.000972297
0.00134003
-0.00118309
0.00153443
-0.00141671
0.00174292
-0.00167183
0.00196244
-0.00194639
0.00218838
-0.00223546
0.00241725
-0.00253324
-0.00286047
0.00263875
3.56126e-07
1.23063e-05
1.78948e-06
3.50305e-05
4.68443e-06
5.61661e-05
9.42265e-06
7.50434e-05
1.63894e-05
9.09928e-05
2.59804e-05
0.000103326
3.86109e-05
0.00011133
5.47279e-05
0.000114263
7.48239e-05
0.00011135
9.94531e-05
0.000101768
0.000129248
8.464e-05
0.000164936
5.90209e-05
0.000207355
2.38803e-05
0.000257467
-2.1912e-05
0.00031636
-7.95997e-05
0.000385244
-0.000150547
0.00046543
-0.00023623
0.000558287
-0.000338217
0.000665172
-0.000458112
0.000787326
-0.000597469
0.000925735
-0.000757673
0.00108095
-0.000939766
0.00125291
-0.00114426
0.00144072
-0.00137089
0.00164247
-0.00161846
0.00185521
-0.00188457
0.00207491
-0.00216609
0.00229654
-0.00245709
0.00251656
-0.00275327
-0.00306696
0.00272305
2.8087e-07
1.20254e-05
1.55734e-06
3.3754e-05
4.27261e-06
5.34508e-05
8.86686e-06
7.04492e-05
1.5786e-05
8.40736e-05
2.54901e-05
9.36216e-05
3.8464e-05
9.83558e-05
5.52308e-05
9.74966e-05
7.63671e-05
9.02137e-05
0.000102519
7.56159e-05
0.000134419
5.27397e-05
0.000172903
2.05373e-05
0.000218919
-2.21357e-05
0.000273536
-7.65297e-05
0.000337941
-0.000144004
0.000413413
-0.000226019
0.000501289
-0.000324106
0.000602893
-0.000439821
0.000719437
-0.000574655
0.000851888
-0.00072992
0.0010008
-0.000906585
0.00116613
-0.0011051
0.00134704
-0.00132516
0.00154174
-0.00156559
0.0017474
-0.00182412
0.00196023
-0.00209739
0.00217544
-0.0023813
0.00238817
-0.00266982
0.00259461
-0.00295971
-0.00325492
0.00278257
2.23479e-07
1.1802e-05
1.392e-06
3.25855e-05
4.0062e-06
5.08366e-05
8.56497e-06
6.58904e-05
1.55766e-05
7.70621e-05
2.55684e-05
8.36297e-05
3.90997e-05
8.48245e-05
5.67752e-05
7.98211e-05
7.92617e-05
6.77273e-05
0.000107304
4.75739e-05
0.000141739
1.83043e-05
0.000183512
-2.12351e-05
0.000233676
-7.23005e-05
0.000293398
-0.000136251
0.000363929
-0.000214536
0.000446578
-0.000308668
0.000542639
-0.000420166
0.000653298
-0.000550481
0.000779511
-0.000700868
0.000921835
-0.000872245
0.00108026
-0.00106501
0.00125402
-0.00127885
0.00144143
-0.00151258
0.00163983
-0.00176399
0.00184556
-0.00202985
0.00205419
-0.00230602
0.00226055
-0.00258766
0.00246033
-0.0028696
0.00264908
-0.00314847
-0.0034219
0.00281606
1.8828e-07
1.16137e-05
1.30934e-06
3.14645e-05
3.9193e-06
4.82267e-05
8.57559e-06
6.12341e-05
1.58502e-05
6.97875e-05
2.63409e-05
7.3139e-05
4.06847e-05
7.04807e-05
5.95729e-05
6.09329e-05
8.37667e-05
4.35335e-05
0.000114112
1.72286e-05
0.000151552
-1.91355e-05
0.000197133
-6.6816e-05
0.000252002
-0.00012717
0.000317394
-0.000201642
0.000394588
-0.00029173
0.000484855
-0.000398935
0.000589365
-0.000524677
0.000709065
-0.000670181
0.00084453
-0.000836332
0.000995789
-0.0010235
0.00116216
-0.00123138
0.00134207
-0.00145877
0.00153304
-0.00170354
0.00173159
-0.00196255
0.00193348
-0.00223174
0.00213397
-0.00250651
0.00232796
-0.00278165
0.00251155
-0.0030532
0.00267857
-0.00331548
-0.0035683
0.00282498
1.78699e-07
1.1435e-05
1.32205e-06
3.03211e-05
4.03925e-06
4.55095e-05
8.94578e-06
5.63276e-05
1.66783e-05
6.20549e-05
2.79072e-05
6.19102e-05
4.335e-05
5.50378e-05
6.37872e-05
4.04957e-05
9.00759e-05
1.72448e-05
0.000123162
-1.58576e-05
0.000164088
-6.00612e-05
0.000213989
-0.000116717
0.000274081
-0.000187262
0.000345627
-0.000273188
0.000429878
-0.000375982
0.000527996
-0.000497052
0.000640929
-0.00063761
0.000769277
-0.000798529
0.000913124
-0.00098018
0.00107187
-0.00118225
0.0012441
-0.0014036
0.00142746
-0.00164214
0.00161872
-0.0018948
0.00181383
-0.00215767
0.00200826
-0.00242617
0.0021973
-0.00269555
0.0023765
-0.00296084
0.00254258
-0.00321927
0.00269017
-0.00346308
-0.0037038
0.00282567
1.97077e-07
1.12379e-05
1.43898e-06
2.90792e-05
4.38528e-06
4.25632e-05
9.70868e-06
5.10042e-05
1.8111e-05
5.36526e-05
3.03362e-05
4.9685e-05
4.71839e-05
3.81901e-05
6.95237e-05
1.81559e-05
9.83065e-05
-1.1538e-05
0.000134572
-5.21234e-05
0.000179449
-0.000104938
0.000234139
-0.000171407
0.000299891
-0.000253015
0.000377947
-0.000351244
0.000469465
-0.000467499
0.000575406
-0.000602993
0.000696406
-0.00075861
0.000832615
-0.000934738
0.000983536
-0.0011311
0.00114788
-0.0013466
0.0013235
-0.00157922
0.00150734
-0.00182598
0.0016956
-0.00208305
0.00188392
-0.00234599
0.00206781
-0.00261006
0.00224297
-0.00287071
0.00240584
-0.00312371
0.00255365
-0.00336708
0.00268538
-0.0035948
-0.00382087
0.00280244
2.44552e-07
1.09934e-05
1.66472e-06
2.76591e-05
4.96768e-06
3.92602e-05
1.08822e-05
4.50897e-05
2.0175e-05
4.43598e-05
3.36634e-05
3.61966e-05
5.22283e-05
1.96252e-05
7.68259e-05
-6.44163e-06
0.000108495
-4.32068e-05
0.000148356
-9.19849e-05
0.000197604
-0.000154185
0.000257477
-0.00023128
0.000329211
-0.000324749
0.000413969
-0.000436002
0.000512735
-0.000566265
0.000626191
-0.000716449
0.000754563
-0.000886982
0.000897468
-0.00107764
0.00105377
-0.0012874
0.0012215
-0.00151433
0.00139782
-0.00175553
0.00157913
-0.00200729
0.00176129
-0.00226522
0.00193996
-0.00252467
0.00211098
-0.00278107
0.00227077
-0.0030305
0.00241674
-0.00326968
0.00254725
-0.0034976
0.00266244
-0.00370999
-0.00392096
0.00276253
3.21099e-07
1.06723e-05
1.99973e-06
2.59804e-05
5.78798e-06
3.54719e-05
1.24691e-05
3.84085e-05
2.28736e-05
3.39553e-05
3.78908e-05
2.11795e-05
5.84797e-05
-9.6369e-07
8.56768e-05
-3.36387e-05
0.000120597
-7.81275e-05
0.000164427
-0.000135815
0.000218398
-0.000208156
0.000283744
-0.000296627
0.00036164
-0.000402645
0.000453098
-0.00052746
0.000558856
-0.000672023
0.000679227
-0.00083682
0.000813953
-0.00102171
0.000962061
-0.00122575
0.00112177
-0.00144711
0.00129045
-0.00168301
0.00146474
-0.00192982
0.00164068
-0.00218323
0.00181409
-0.00243863
0.00198089
-0.00269146
0.00213754
-0.00293772
0.00228136
-0.00317431
0.0024108
-0.00339912
0.00252527
-0.00361207
0.0026258
-0.00381052
-0.00400831
0.00271315
4.25662e-07
1.02466e-05
2.44074e-06
2.39653e-05
6.83981e-06
3.10729e-05
1.44588e-05
3.07896e-05
2.61897e-05
2.22244e-05
4.29906e-05
4.37858e-06
6.5893e-05
-2.38661e-05
9.60045e-05
-6.37502e-05
0.000134502
-0.000116625
0.00018261
-0.000183923
0.000241566
-0.000267112
0.000312556
-0.000367617
0.000396629
-0.000486718
0.000494583
-0.000625414
0.000606829
-0.000784268
0.000733241
-0.000963232
0.000873019
-0.00116149
0.00102458
-0.00137731
0.00118553
-0.00160806
0.00135271
-0.00185019
0.00152237
-0.00209948
0.00169047
-0.00235132
0.00185301
-0.00260116
0.00200645
-0.00284491
0.00214806
-0.00307933
0.00227611
-0.00330237
0.00239003
-0.00351304
0.00249014
-0.00371218
0.00257813
-0.00389851
-0.00408505
0.00265487
5.56393e-07
9.69021e-06
2.98158e-06
2.15402e-05
8.11042e-06
2.5944e-05
1.68292e-05
2.20708e-05
3.00884e-05
8.96518e-06
4.89098e-05
-1.44428e-05
7.43892e-05
-4.93456e-05
0.000107692
-9.7053e-05
0.000150036
-0.000158969
0.000202658
-0.000236545
0.00026676
-0.000331214
0.000343427
-0.000444284
0.000433523
-0.000576814
0.00053756
-0.000729452
0.000655556
-0.000902264
0.000786891
-0.00109457
0.000930196
-0.00130479
0.0010833
-0.00153042
0.00124328
-0.00176804
0.00140659
-0.0020135
0.00156932
-0.00226221
0.00172755
-0.00250956
0.00187776
-0.00275137
0.0020171
-0.00298425
0.00214372
-0.00320595
0.00225682
-0.00341547
0.00235666
-0.00361289
0.00244427
-0.00379979
0.00252171
-0.00397595
-0.00415333
0.00258998
7.10945e-07
8.97926e-06
3.61407e-06
1.8637e-05
9.58257e-06
1.99755e-05
1.95504e-05
1.2103e-05
3.45223e-05
-6.00667e-06
5.55767e-05
-3.54973e-05
8.38631e-05
-7.7632e-05
0.000120588
-0.000133778
0.000166985
-0.000205366
0.00022427
-0.00029383
0.000293565
-0.000400508
0.000375799
-0.000526518
0.00047159
-0.000672605
0.000581101
-0.000838963
0.0007039
-0.00102506
0.000838841
-0.00122951
0.000983995
-0.00144995
0.00113667
-0.0016831
0.00129353
-0.0019249
0.00145082
-0.00217079
0.00160471
-0.0024161
0.00175164
-0.00265649
0.00188869
-0.00288842
0.00201383
-0.0031094
0.00212608
-0.0033182
0.00222546
-0.00351485
0.0023129
-0.00370032
0.00238986
-0.00387675
0.00245857
-0.00404466
-0.00421479
0.00252004
8.86767e-07
8.0925e-06
4.32905e-06
1.51947e-05
1.12366e-05
1.3068e-05
2.25876e-05
7.51878e-07
3.94358e-05
-2.28548e-05
6.29077e-05
-5.89692e-05
9.41923e-05
-0.000108917
0.000134517
-0.000174102
0.000185105
-0.000255954
0.00024711
-0.000355835
0.000321527
-0.000474925
0.000409075
-0.000614067
0.000510066
-0.000773596
0.000624259
-0.000953156
0.000750736
-0.00115154
0.000887822
-0.00136659
0.00103307
-0.0015952
0.00118337
-0.0018334
0.00133514
-0.00207666
0.00148461
-0.00232026
0.00162823
-0.00255972
0.00176297
-0.00279124
0.00188664
-0.00301209
0.00199803
-0.00322079
0.00209694
-0.00341711
0.00218407
-0.00360197
0.00226079
-0.00377704
0.00232883
-0.00394478
0.00239038
-0.00410622
-0.00427079
0.00244638
1.08138e-06
7.01112e-06
5.11727e-06
1.11589e-05
1.30519e-05
5.13338e-06
2.59042e-05
-1.21004e-05
4.47697e-05
-4.17203e-05
7.08122e-05
-8.50117e-05
0.000105244
-0.000143349
0.00014929
-0.000218148
0.00020413
-0.000310794
0.000270816
-0.000422521
0.000350166
-0.000554275
0.000442635
-0.000706536
0.000548174
-0.000879135
0.0006661
-0.00107108
0.000794997
-0.00128044
0.000932685
-0.00150428
0.00107629
-0.0017388
0.0012224
-0.00197951
0.00136736
-0.00222163
0.00150761
-0.00246051
0.00164002
-0.00269213
0.00176223
-0.00291344
0.00187279
-0.00312265
0.00197127
-0.00331926
0.00205813
-0.00350397
0.00213454
-0.00367839
0.00220216
-0.00384466
0.00226279
-0.0040054
0.00231848
-0.00416191
-0.00432232
0.00237001
1.29254e-06
5.71858e-06
5.97001e-06
6.48138e-06
1.50088e-05
-3.90545e-06
2.94636e-05
-2.65551e-05
5.04636e-05
-6.27203e-05
7.91972e-05
-0.000113745
0.000116881
-0.000181032
0.000164711
-0.000265978
0.000223787
-0.00036987
0.000295017
-0.000493751
0.000378993
-0.000638251
0.000475855
-0.000803398
0.000585152
-0.000988433
0.000705736
-0.00119167
0.000835707
-0.00141041
0.000972441
-0.00164102
0.00111274
-0.00187909
0.00125305
-0.00211983
0.00138984
-0.00235841
0.00151988
-0.00259055
0.00164063
-0.00281288
0.00175041
-0.00302322
0.00184852
-0.00322077
0.00193519
-0.00340593
0.00201138
-0.00358016
0.00207858
-0.00374558
0.00213854
-0.00390462
0.00219303
-0.00405989
0.00224388
-0.00421276
-0.00437015
0.0022917
1.5184e-06
4.20018e-06
6.87946e-06
1.12032e-06
1.70887e-05
-1.41147e-05
3.32306e-05
-4.2697e-05
5.64583e-05
-8.59481e-05
8.79696e-05