/*--------------------------------*- C++ -*----------------------------------*\
  =========                 |
  \\      /  F ield         | OpenFOAM: The Open Source CFD Toolbox
   \\    /   O peration     | Website:  https://openfoam.org
    \\  /    A nd           | Version:  7
     \\/     M anipulation  |
\*---------------------------------------------------------------------------*/
FoamFile
{
    version     2.0;
    format      ascii;
    class       volVectorField;
    location    "80";
    object      U;
}
// * * * * * * * * * * * * * * * * * * * * * * * * * * * * * * * * * * * * * //

dimensions      [0 1 -1 0 0 0 0];

internalField   nonuniform List<vector> 
183
(
(1.12962 0.234935 6.43995e-20)
(1.12644 0.268587 9.40738e-20)
(1.12124 0.254416 4.93248e-20)
(1.11638 0.23992 -8.14142e-20)
(1.12553 0.327699 8.12456e-20)
(1.11973 0.308564 -3.75076e-20)
(1.11496 0.290569 -8.28824e-20)
(1.11083 0.273922 4.28727e-20)
(1.11217 0.355033 1.03344e-19)
(1.10641 0.333905 -9.89417e-20)
(1.10162 0.314128 1.68803e-20)
(1.10312 0.409073 8.77697e-20)
(1.09678 0.384109 -5.66279e-20)
(1.09132 0.360809 -1.37315e-19)
(1.09115 0.471973 3.96609e-21)
(1.08462 0.442454 -4.05714e-20)
(1.07894 0.41494 -8.99962e-20)
(1.07404 0.389304 3.43439e-20)
(1.06833 0.510248 -8.56664e-20)
(1.06293 0.477807 1.27354e-19)
(1.05818 0.447536 -6.97797e-20)
(1.04107 0.550375 -5.98169e-20)
(1.03747 0.515076 -2.10664e-20)
(1.03405 0.48189 -6.13012e-20)
(1.00482 0.627883 3.25659e-21)
(1.00796 0.591487 -1.62969e-19)
(1.00743 0.553983 1.4529e-19)
(1.00599 0.517923 2.30001e-21)
(0.952766 0.662894 1.17845e-19)
(0.966524 0.631392 -7.05433e-20)
(0.971522 0.59369 1.39087e-20)
(0.880059 0.68252 7.57589e-20)
(0.912451 0.6653 -1.66945e-20)
(0.927463 0.632089 6.89338e-20)
(0.77631 0.671229 5.72566e-20)
(0.838884 0.684013 -2.4441e-20)
(0.87132 0.664525 -1.2782e-20)
(0.887881 0.629919 -2.40003e-20)
(0.629293 0.606537 5.20059e-20)
(0.736259 0.672079 -6.88937e-20)
(0.796821 0.681974 -7.56913e-20)
(0.829667 0.660528 2.29337e-20)
(0.593437 0.606994 1.59238e-20)
(0.69525 0.669159 3.13964e-20)
(0.754206 0.676373 8.23312e-21)
(0.401316 0.460156 -1.47869e-20)
(0.55662 0.603741 -3.85578e-21)
(0.653651 0.662446 1.66495e-20)
(0.15838 0.200315 -6.04956e-20)
(0.373386 0.457307 -4.24583e-21)
(0.519207 0.596752 1.96978e-20)
(0.146266 0.19896 1.04194e-19)
(0.34495 0.451356 1.27252e-19)
(0.48156 0.586033 1.32609e-19)
(0.133888 0.19612 1.90909e-20)
(0.316314 0.442307 -1.85453e-19)
(0.121395 0.191791 -1.50172e-19)
(0.287777 0.430187 1.57891e-19)
(0.108936 0.185986 1.37894e-20)
(0.0966584 0.178731 2.33189e-19)
(0.0990191 -0.183455 2.57828e-20)
(0.111405 -0.190517 -2.55684e-19)
(0.123949 -0.196111 2.66405e-20)
(0.295084 -0.442925 -5.4415e-21)
(0.136499 -0.200207 -1.07558e-19)
(0.323923 -0.454604 -1.27633e-19)
(0.148903 -0.202795 1.98293e-19)
(0.352808 -0.463176 7.27251e-20)
(0.493443 -0.60413 -5.00483e-21)
(0.161008 -0.203878 -5.27366e-20)
(0.381431 -0.468609 -3.40934e-20)
(0.531504 -0.614281 2.74597e-20)
(0.409476 -0.470903 2.63132e-20)
(0.569257 -0.620661 -1.36983e-20)
(0.669174 -0.683262 -1.83897e-20)
(0.606332 -0.623268 2.22745e-20)
(0.711225 -0.689379 1.47789e-20)
(0.771744 -0.69848 -2.65701e-20)
(0.642352 -0.622125 -1.13075e-19)
(0.752602 -0.691674 -1.14328e-19)
(0.814871 -0.70355 2.42564e-20)
(0.848301 -0.682651 -1.49332e-20)
(0.792931 -0.690173 3.61919e-20)
(0.857371 -0.70504 4.58442e-20)
(0.890484 -0.686199 6.6358e-20)
(0.907057 -0.651424 -1.09705e-20)
(0.898899 -0.702987 -1.43082e-19)
(0.932077 -0.686521 -6.16851e-20)
(0.947161 -0.653228 -2.35044e-21)
(0.954002 -0.614025 3.18129e-20)
(0.972782 -0.683665 -2.51327e-20)
(0.986685 -0.652175 1.29276e-19)
(0.99149 -0.614072 -2.74545e-20)
(0.992898 -0.575166 -2.64603e-21)
(1.02538 -0.648327 -1.03207e-19)
(1.02838 -0.611605 1.34583e-19)
(1.0276 -0.573591 3.66585e-21)
(1.02591 -0.536952 3.67294e-20)
(1.06168 -0.569805 -3.65738e-20)
(1.05787 -0.53397 4.36224e-20)
(1.05427 -0.500206 -4.06216e-20)
(1.08916 -0.529046 -6.69953e-21)
(1.08363 -0.49606 -1.06897e-20)
(1.07877 -0.465201 7.15429e-20)
(1.11229 -0.490205 -1.38464e-21)
(1.1057 -0.460122 5.57332e-21)
(1.09996 -0.431995 7.3697e-20)
(1.09503 -0.405699 1.30658e-20)
(1.12467 -0.426192 -7.77685e-20)
(1.11834 -0.400574 7.83734e-21)
(1.11289 -0.376576 1.69048e-20)
(1.13439 -0.370914 3.40236e-21)
(1.12876 -0.349056 6.58366e-20)
(1.12424 -0.328553 -4.92958e-20)
(1.14312 -0.323123 7.323e-21)
(1.13885 -0.304438 5.37704e-20)
(1.1354 -0.287207 -5.36622e-20)
(1.1518 -0.281947 -3.62125e-20)
(1.14726 -0.26722 -3.12396e-20)
(1.14289 -0.252227 9.4841e-21)
(1.15681 -0.24714 -5.96136e-24)
(1.12473 0.181734 -4.35565e-21)
(1.11246 0.167248 -6.24137e-21)
(1.10555 0.128315 3.15294e-21)
(1.09863 0.113689 -9.84068e-23)
(1.09116 0.0941397 -1.09629e-22)
(1.08805 0.0809036 -2.13178e-21)
(1.08251 0.0724135 -8.18216e-22)
(1.07571 0.0626507 6.47048e-22)
(1.07283 0.0528699 3.69476e-23)
(1.07102 0.0464513 3.86938e-22)
(1.06782 0.0423357 7.94139e-23)
(1.11465 0.184809 -6.73995e-21)
(1.10591 0.170743 7.92923e-21)
(1.10051 0.131545 -2.86954e-21)
(1.09482 0.116061 8.09611e-21)
(1.088 0.0961244 3.35618e-21)
(1.08567 0.0821866 -4.1735e-21)
(1.08075 0.0738055 4.31375e-22)
(1.07391 0.0639199 9.42382e-22)
(1.07114 0.0535407 -5.11047e-22)
(1.06983 0.0468422 5.48397e-22)
(1.06701 0.0429497 -5.19468e-22)
(1.06207 0.0390143 -4.85486e-23)
(1.05786 0.0325132 2.30549e-22)
(1.0559 0.0289313 5.39173e-23)
(1.05228 0.0227635 2.14186e-22)
(1.05329 0.0201146 -3.05788e-22)
(1.04859 0.0178344 -5.96082e-22)
(1.04663 0.0132582 3.27385e-22)
(1.04507 0.00779929 -5.45451e-22)
(1.04763 0.00492219 5.89502e-22)
(1.04358 0.00445459 2.834e-23)
(1.04598 -0.002059 -2.01275e-21)
(1.14133 -0.196423 7.52552e-21)
(1.13151 -0.178456 -3.09411e-21)
(1.12734 -0.134316 -6.12757e-22)
(1.11914 -0.115849 -9.31819e-22)
(1.11372 -0.0940002 1.18714e-21)
(1.10436 -0.0820083 1.06732e-21)
(1.09462 -0.068976 -5.5587e-22)
(1.08803 -0.0552897 4.86704e-23)
(1.0828 -0.0501379 -5.10418e-22)
(1.07366 -0.0402657 3.18791e-22)
(1.07143 -0.0346429 -3.89287e-22)
(1.06324 -0.0292459 1.03547e-21)
(1.06275 -0.0227206 -1.01483e-21)
(1.0571 -0.019819 -6.33619e-23)
(1.05807 -0.0153525 4.17301e-22)
(1.0524 -0.0154209 -1.79875e-22)
(1.0507 -0.00971563 1.14252e-21)
(1.04935 -0.00714884 -7.34287e-23)
(1.0506 -0.0044175 -1.32534e-23)
(1.04925 -0.00473769 -4.94233e-22)
(1.04665 -0.0018351 4.93295e-22)
(1.15206 -0.192887 -6.51482e-22)
(1.13902 -0.174244 2.3874e-21)
(1.13312 -0.130378 -3.90953e-21)
(1.12349 -0.112871 -9.80846e-22)
(1.11684 -0.0912542 -1.44677e-21)
(1.1067 -0.0794165 1.49421e-21)
(1.09677 -0.0666063 3.26568e-22)
(1.08983 -0.0536607 -1.70271e-22)
)
;

boundaryField
{
    inlet
    {
        type            uniformFixedValue;
        uniformValue    constant (1 0 0);
        value           nonuniform 0();
    }
    outlet
    {
        type            pressureInletOutletVelocity;
        value           nonuniform 0();
    }
    cylinder
    {
        type            fixedValue;
        value           uniform (0 0 0);
    }
    top
    {
        type            symmetryPlane;
    }
    bottom
    {
        type            symmetryPlane;
    }
    defaultFaces
    {
        type            empty;
    }
    procBoundary11to10
    {
        type            processor;
        value           nonuniform List<vector> 
123
(
(1.10649 0.259302 -4.66681e-20)
(1.10263 0.244182 6.39026e-21)
(1.09782 0.295544 -6.19172e-20)
(1.10649 0.259302 -4.66681e-20)
(1.09464 0.278401 1.70761e-20)
(1.08669 0.339056 2.83706e-20)
(1.09782 0.295544 -6.19172e-20)
(1.08295 0.318701 1.32933e-20)
(1.08669 0.339056 2.83706e-20)
(1.06989 0.365404 -4.85151e-20)
(1.05414 0.419375 -4.06567e-20)
(1.06989 0.365404 -4.85151e-20)
(1.05076 0.39317 1.07652e-19)
(1.05414 0.419375 -4.06567e-20)
(1.03117 0.451003 -1.1994e-19)
(1.03117 0.451003 -1.1994e-19)
(1.00464 0.484155 -1.1155e-19)
(0.973214 0.55535 -2.61875e-21)
(1.00464 0.484155 -1.1155e-19)
(0.974026 0.518725 -4.40828e-21)
(0.973214 0.55535 -2.61875e-21)
(0.934536 0.593358 -2.84922e-21)
(0.934536 0.593358 -2.84922e-21)
(0.897215 0.590441 1.04182e-21)
(0.848025 0.624847 -1.75415e-20)
(0.848025 0.624847 -1.75415e-20)
(0.787783 0.653286 3.80654e-20)
(0.787783 0.653286 3.80654e-20)
(0.711371 0.6672 2.80634e-20)
(0.711371 0.6672 2.80634e-20)
(0.611823 0.651942 -4.26237e-20)
(0.611823 0.651942 -4.26237e-20)
(0.570121 0.637676 1.04477e-19)
(0.444035 0.57162 -1.43939e-19)
(0.444035 0.57162 -1.43939e-19)
(0.40698 0.553575 2.52656e-20)
(0.259638 0.415056 2.13319e-19)
(0.259638 0.415056 2.13319e-19)
(0.232183 0.396994 -5.71898e-20)
(0.0847054 0.170067 5.96456e-20)
(0.0869366 -0.174965 -3.80292e-19)
(0.238748 -0.410496 -1.79417e-19)
(0.266594 -0.428194 2.88863e-21)
(0.266594 -0.428194 2.88863e-21)
(0.417848 -0.572686 1.94143e-19)
(0.455439 -0.590244 -3.7788e-20)
(0.455439 -0.590244 -3.7788e-20)
(0.584526 -0.659587 7.35179e-20)
(0.62682 -0.673321 -5.48846e-20)
(0.62682 -0.673321 -5.48846e-20)
(0.728328 -0.689821 1.58919e-20)
(0.728328 -0.689821 1.58919e-20)
(0.805823 -0.675854 -9.39922e-21)
(0.805823 -0.675854 -9.39922e-21)
(0.866625 -0.646724 -2.58034e-20)
(0.866625 -0.646724 -2.58034e-20)
(0.91613 -0.61141 -7.506e-21)
(0.91613 -0.61141 -7.506e-21)
(0.957745 -0.574465 1.59595e-20)
(0.957745 -0.574465 1.59595e-20)
(0.993438 -0.537918 8.08122e-21)
(0.993438 -0.537918 8.08122e-21)
(1.02436 -0.502569 1.34826e-20)
(1.02436 -0.502569 1.34826e-20)
(1.05124 -0.468705 2.34102e-20)
(1.05124 -0.468705 2.34102e-20)
(1.07463 -0.43641 4.43009e-20)
(1.07463 -0.43641 4.43009e-20)
(1.07117 -0.409537 -4.59858e-20)
(1.09084 -0.381101 4.15697e-20)
(1.09084 -0.381101 4.15697e-20)
(1.10834 -0.354099 -2.92907e-20)
(1.10834 -0.354099 -2.92907e-20)
(1.10481 -0.333028 2.92751e-20)
(1.12092 -0.309306 -5.60735e-22)
(1.12092 -0.309306 -5.60735e-22)
(1.11844 -0.291618 -1.03603e-20)
(1.13181 -0.272106 -3.54116e-20)
(1.13181 -0.272106 -3.54116e-20)
(1.12853 -0.256593 1.92557e-20)
(1.10422 0.187412 8.56852e-21)
(1.09922 0.17379 -6.4342e-21)
(1.09536 0.134666 -3.6046e-21)
(1.09089 0.118368 5.12522e-21)
(1.08469 0.0980778 -1.42265e-21)
(1.08319 0.0833915 -3.77132e-21)
(1.07899 0.0751603 2.19199e-21)
(1.07208 0.0652366 -9.74815e-22)
(1.06937 0.0542047 -5.72594e-22)
(1.06861 0.0471525 -5.29099e-22)
(1.06625 0.0435206 -1.6631e-22)
(1.06125 0.0398042 -9.29485e-23)
(1.05688 0.0331131 4.20823e-22)
(1.05493 0.0293914 -1.50005e-22)
(1.05137 0.0229383 5.52783e-22)
(1.05272 0.0203497 1.24179e-22)
(1.04788 0.0183607 -6.53065e-22)
(1.04566 0.0136 4.46727e-22)
(1.04419 0.00769251 -4.6278e-22)
(1.04708 0.00502613 -3.12859e-22)
(1.04265 0.00478473 1.24514e-21)
(1.04528 -0.00232149 -2.50538e-21)
(1.13038 -0.19948 -4.64996e-21)
(1.12393 -0.182247 3.72024e-21)
(1.12147 -0.138146 1.88558e-21)
(1.11463 -0.118697 -7.93606e-22)
(1.11052 -0.0966207 -4.16612e-22)
(1.102 -0.0845472 1.04066e-21)
(1.09242 -0.071367 1.36899e-22)
(1.08617 -0.0568924 1.52795e-22)
(1.08145 -0.0517098 -4.52573e-22)
(1.07232 -0.0415749 -4.85131e-22)
(1.07038 -0.0356765 -1.23551e-21)
(1.06212 -0.0301665 5.88117e-22)
(1.06183 -0.023249 -1.52481e-21)
(1.05632 -0.020183 1.10902e-21)
(1.05762 -0.015691 -1.15776e-21)
(1.05182 -0.0160124 1.50208e-22)
(1.04994 -0.0100067 1.0125e-21)
(1.04872 -0.00709521 4.09993e-22)
(1.0503 -0.00438984 -8.2524e-22)
(1.04893 -0.00503894 3.06926e-23)
(1.04893 -0.00503894 3.06926e-23)
)
;
    }
    procBoundary11to12
    {
        type            processor;
        value           nonuniform List<vector> 
116
(
(1.14234 0.229245 6.8997e-21)
(1.14145 0.262431 1.97895e-20)
(1.13542 0.248746 9.07819e-21)
(1.13542 0.248746 9.07819e-21)
(1.14399 0.320487 -5.58586e-20)
(1.13722 0.30205 1.03251e-20)
(1.13149 0.284694 -1.22928e-19)
(1.13149 0.284694 -1.22928e-19)
(1.13238 0.34813 -2.01551e-20)
(1.13238 0.34813 -2.01551e-20)
(1.1266 0.401841 1.80195e-20)
(1.11889 0.377645 -1.04471e-19)
(1.11889 0.377645 -1.04471e-19)
(1.11858 0.464468 1.01881e-19)
(1.11037 0.435825 -6.08872e-20)
(1.11037 0.435825 -6.08872e-20)
(1.09841 0.503517 -6.61974e-20)
(1.09841 0.503517 -6.61974e-20)
(1.07395 0.5446 -2.6771e-19)
(1.07395 0.5446 -2.6771e-19)
(1.04209 0.621629 -5.2752e-20)
(1.04365 0.586813 4.74835e-20)
(1.04365 0.586813 4.74835e-20)
(0.991973 0.657369 -3.08315e-20)
(0.991973 0.657369 -3.08315e-20)
(0.920008 0.677551 1.75855e-19)
(0.920008 0.677551 1.75855e-19)
(0.815036 0.666666 -8.67819e-20)
(0.815036 0.666666 -8.67819e-20)
(0.663825 0.602423 -2.08197e-20)
(0.663825 0.602423 -2.08197e-20)
(0.454437 0.45669 -7.64598e-21)
(0.428434 0.459932 -3.1846e-20)
(0.428434 0.459932 -3.1846e-20)
(0.170082 0.200203 -3.18083e-20)
(0.170082 0.200203 -3.18083e-20)
(0.172659 -0.203476 -3.70903e-20)
(0.172659 -0.203476 -3.70903e-20)
(0.436631 -0.470087 -4.80872e-21)
(0.436631 -0.470087 -4.80872e-21)
(0.462582 -0.466218 -8.87727e-20)
(0.676944 -0.61729 -6.75551e-20)
(0.676944 -0.61729 -6.75551e-20)
(0.831831 -0.684934 -3.46671e-20)
(0.831831 -0.684934 -3.46671e-20)
(0.939108 -0.697448 -4.46727e-20)
(0.939108 -0.697448 -4.46727e-20)
(1.0123 -0.677697 -2.35494e-19)
(1.0123 -0.677697 -2.35494e-19)
(1.06299 -0.641759 1.54147e-19)
(1.06447 -0.606695 -1.6005e-20)
(1.06447 -0.606695 -1.6005e-20)
(1.09495 -0.563888 2.87477e-20)
(1.09495 -0.563888 2.87477e-20)
(1.11966 -0.522261 -6.43327e-20)
(1.11966 -0.522261 -6.43327e-20)
(1.14015 -0.482729 5.79936e-20)
(1.13193 -0.453544 -6.3959e-20)
(1.13193 -0.453544 -6.3959e-20)
(1.14867 -0.419075 -2.92033e-20)
(1.14103 -0.394227 5.37443e-20)
(1.14103 -0.394227 5.37443e-20)
(1.15525 -0.364175 -1.12261e-20)
(1.1486 -0.343 -5.39157e-20)
(1.1486 -0.343 -5.39157e-20)
(1.16139 -0.316779 -3.41481e-20)
(1.15619 -0.298695 2.0294e-20)
(1.15619 -0.298695 2.0294e-20)
(1.1676 -0.275884 -1.15032e-19)
(1.16218 -0.261556 2.25465e-21)
(1.16218 -0.261556 2.25465e-21)
(1.17028 -0.241361 4.0483e-20)
(1.13445 0.178204 -4.16333e-21)
(1.11883 0.163348 -5.74564e-22)
(1.11048 0.124988 -6.8018e-21)
(1.10235 0.111239 2.83713e-21)
(1.0942 0.0921161 5.13949e-23)
(1.09034 0.0795507 1.06651e-21)
(1.08428 0.070995 4.79849e-22)
(1.07749 0.0614193 1.21295e-21)
(1.07444 0.0521851 7.18504e-22)
(1.07218 0.0459913 -5.10316e-22)
(1.06867 0.0416897 5.87898e-23)
(1.06292 0.0382498 -2.71219e-22)
(1.06292 0.0382498 -2.71219e-22)
(1.05884 0.0319418 2.58339e-22)
(1.05684 0.0284749 -4.03834e-22)
(1.05317 0.0225582 2.55074e-23)
(1.05388 0.0198588 -7.55019e-22)
(1.04932 0.0173461 1.88033e-22)
(1.04757 0.0129403 3.78346e-22)
(1.04594 0.00786961 1.9755e-22)
(1.04819 0.00482233 1.09123e-21)
(1.04449 0.0041596 -6.36964e-23)
(1.08412 -0.0485402 -4.34403e-22)
(1.07498 -0.0389608 4.67238e-22)
(1.07246 -0.0336056 3.34966e-23)
(1.06434 -0.0283347 3.47837e-21)
(1.06364 -0.0221771 -1.55002e-21)
(1.05787 -0.0194161 -1.79432e-22)
(1.05853 -0.0149952 -4.70884e-22)
(1.05299 -0.0148607 -5.61643e-22)
(1.05142 -0.00944024 -1.66317e-22)
(1.04996 -0.00716099 1.36298e-21)
(1.05092 -0.00441583 1.50243e-21)
(1.0496 -0.00447057 -4.14812e-22)
(1.04729 -0.00164513 2.9898e-22)
(1.16251 -0.188895 -9.01465e-21)
(1.14641 -0.169648 6.88834e-22)
(1.1388 -0.126329 4.72913e-21)
(1.12775 -0.109748 5.20903e-22)
(1.1199 -0.088393 -2.16439e-21)
(1.10905 -0.0767787 -6.43149e-22)
(1.09889 -0.0642498 -1.86517e-22)
(1.08412 -0.0485402 -4.34403e-22)
(1.09157 -0.0520026 -4.62836e-23)
)
;
    }
}


// ************************************************************************* //
