/*--------------------------------*- C++ -*----------------------------------*\
  =========                 |
  \\      /  F ield         | OpenFOAM: The Open Source CFD Toolbox
   \\    /   O peration     | Website:  https://openfoam.org
    \\  /    A nd           | Version:  7
     \\/     M anipulation  |
\*---------------------------------------------------------------------------*/
FoamFile
{
    version     2.0;
    format      ascii;
    class       volScalarField;
    location    "55";
    object      p;
}
// * * * * * * * * * * * * * * * * * * * * * * * * * * * * * * * * * * * * * //

dimensions      [0 2 -2 0 0 0 0];

internalField   nonuniform List<scalar> 
183
(
-0.111829
-0.0805955
-0.112934
-0.0808252
-0.0649492
-0.113945
-0.0810325
-0.0649699
-0.114854
-0.0812347
-0.0650919
-0.115654
-0.0814457
-0.065323
-0.116335
-0.0816758
-0.0656667
-0.116886
-0.0819312
-0.0661219
-0.117295
-0.0822138
-0.0666839
-0.117548
-0.0825211
-0.0673444
-0.0828469
-0.0680929
-0.0831813
-0.0689163
-0.0835112
-0.0698001
-0.0838209
-0.0707287
-0.084093
-0.0716851
-0.0843086
-0.0726523
-0.0844476
-0.0736136
-0.0844896
-0.074552
-0.0844134
-0.0754479
-0.0841997
-0.0762736
-0.0838219
-0.0769877
-0.0833628
-0.0778178
-0.0800596
-0.0852909
-0.0657819
-0.0825558
-0.0512139
-0.0772672
-0.0406801
-0.0667489
-0.0270854
-0.0487884
-0.0101947
-0.0279216
0.00339863
-0.0114279
0.0123583
0.000310011
0.0176153
0.00827421
0.0205452
0.0136408
0.0220643
0.0172188
0.0227518
0.0196017
0.0229601
0.0211623
0.0229021
0.02217
0.0227099
0.0228044
0.0224654
0.0231917
0.0222182
0.0234166
0.0219991
0.0235377
0.0218287
0.0235953
0.0216419
0.0236131
0.0215823
0.0236193
-0.0450239
-0.0288271
-0.0152552
-0.00115596
0.00977934
0.0193748
0.0260623
0.0306393
0.0331112
0.0341886
0.0343264
0.0339262
0.0332519
0.0324714
0.03169
0.0309699
0.0303461
0.0298361
0.029449
0.0291895
0.0290595
-0.0394809
-0.0230402
-0.00586997
0.0104832
0.0244857
0.0349488
0.0417622
0.0455144
0.0466646
0.0461425
0.0446542
0.0427908
0.0408925
0.0391304
0.0375801
0.0362709
0.0352057
0.0343747
0.0337654
0.0333665
0.0331694
-0.0534097
-0.0470803
-0.0555893
-0.0499829
-0.0571704
-0.0527716
-0.0589498
-0.0550908
-0.0609138
-0.057113
-0.0628837
-0.0589606
-0.064793
-0.0606247
-0.0666397
-0.0620674
-0.0684182
-0.0632753
-0.070111
-0.0642541
-0.0716987
-0.065015
-0.0731658
-0.065571
-0.0985483
-0.0745009
-0.0659387
-0.100252
-0.0756958
-0.0661392
-0.101911
-0.0767461
-0.0661974
-0.103522
-0.0776521
-0.0661409
-0.105077
-0.0784183
-0.0659985
-0.106572
-0.0790541
-0.0658
-0.108
-0.0795723
-0.0655752
-0.109356
-0.0799892
-0.110634
-0.0803236
)
;

boundaryField
{
    inlet
    {
        type            zeroGradient;
    }
    outlet
    {
        type            fixedValue;
        value           nonuniform 0();
    }
    cylinder
    {
        type            zeroGradient;
    }
    top
    {
        type            symmetryPlane;
    }
    bottom
    {
        type            symmetryPlane;
    }
    defaultFaces
    {
        type            empty;
    }
    procBoundary38to37
    {
        type            processor;
        value           nonuniform List<scalar> 
86
(
-0.132906
-0.133641
-0.134328
-0.134957
-0.135511
-0.135966
-0.1363
-0.136482
-0.136512
-0.117631
-0.117631
-0.117525
-0.117212
-0.116672
-0.115881
-0.114813
-0.113438
-0.111724
-0.109631
-0.107114
-0.104114
-0.100676
-0.082075
-0.0511205
-0.0164146
0.00567118
0.0177842
0.0265352
0.031735
0.0331374
0.0323964
0.0307558
0.0288509
0.0269865
0.0253002
0.0238417
0.0226181
0.0216174
0.0208207
0.0202082
0.0197617
0.0194649
0.0193204
-0.067091
-0.0482535
-0.0327202
-0.0173515
-0.00573798
0.00426187
0.0113945
0.0166733
0.0203016
0.0226704
0.0241326
0.0249375
0.0253007
0.025378
0.0252832
0.0250979
0.0248801
0.0246689
0.0244912
0.0243644
0.0242984
-0.0774879
-0.0796667
-0.0808006
-0.0823096
-0.0841296
-0.0859817
-0.0877997
-0.0896108
-0.0914271
-0.0932395
-0.0950359
-0.0968077
-0.0968077
-0.124314
-0.12548
-0.126585
-0.127632
-0.128625
-0.129567
-0.130463
-0.131317
-0.132131
)
;
    }
    procBoundary38to39
    {
        type            processor;
        value           nonuniform List<scalar> 
86
(
-0.0650176
-0.0650176
-0.0774301
-0.0770905
-0.0768784
-0.076801
-0.0768609
-0.0770556
-0.077378
-0.0778164
-0.0783548
-0.0789742
-0.0796553
-0.0803799
-0.0811309
-0.0818918
-0.0826451
-0.0833766
-0.0840778
-0.0846747
-0.0850319
-0.0858126
-0.0946625
-0.0828795
-0.0761535
-0.0615878
-0.0438885
-0.0268749
-0.0127841
-0.0021072
0.00586532
0.0117027
0.0159408
0.018996
0.0211719
0.0227069
0.0237753
0.0245079
0.025
0.0253213
0.0255221
0.0256372
0.0256896
-0.0594072
-0.0445749
-0.0195481
0.00441744
0.0284764
0.0454394
0.0555291
0.0593924
0.0586906
0.0560379
0.0528192
0.0496069
0.0466907
0.0441695
0.0420575
0.0403386
0.0389778
0.0379379
0.0371868
0.0367001
0.0364605
-0.0688666
-0.071811
-0.0742079
-0.0761083
-0.077776
-0.0792541
-0.0804995
-0.0814959
-0.0822488
-0.0827659
-0.0830565
-0.0831339
-0.0830166
-0.0827273
-0.0822927
-0.0817433
-0.0811121
-0.0804329
-0.0797394
-0.0653526
-0.0653526
-0.0651589
)
;
    }
}


// ************************************************************************* //
