/*--------------------------------*- C++ -*----------------------------------*\
  =========                 |
  \\      /  F ield         | OpenFOAM: The Open Source CFD Toolbox
   \\    /   O peration     | Website:  https://openfoam.org
    \\  /    A nd           | Version:  7
     \\/     M anipulation  |
\*---------------------------------------------------------------------------*/
FoamFile
{
    version     2.0;
    format      ascii;
    class       volScalarField;
    location    "70";
    object      p;
}
// * * * * * * * * * * * * * * * * * * * * * * * * * * * * * * * * * * * * * //

dimensions      [0 2 -2 0 0 0 0];

internalField   nonuniform List<scalar> 
183
(
-0.640296
-0.633791
-0.649611
-0.642371
-0.635834
-0.659349
-0.65135
-0.644209
-0.636552
-0.627641
-0.669411
-0.660643
-0.652877
-0.644461
-0.634477
-0.622407
-0.607718
-0.590081
-0.66173
-0.652481
-0.641289
-0.627585
-0.610893
-0.591054
-0.568326
-0.543298
-0.632393
-0.613539
-0.591408
-0.566506
-0.539624
-0.511615
-0.483237
-0.455068
-0.535311
-0.505992
-0.47674
-0.448073
-0.420301
-0.393586
-0.367994
-0.343538
-0.412716
-0.386042
-0.360637
-0.336477
-0.313517
-0.291723
-0.271073
-0.251384
-0.30634
-0.284957
-0.264741
-0.245479
-0.2364
-0.220786
-0.206069
-0.191993
-0.33539
-0.314798
-0.295294
-0.276876
-0.259494
-0.243077
-0.227555
-0.212877
-0.42299
-0.402417
-0.381256
-0.360133
-0.339502
-0.319641
-0.300687
-0.282678
-0.465424
-0.452478
-0.437409
-0.420364
-0.401805
-0.382346
-0.36259
-0.343021
-0.482448
-0.474421
-0.465741
-0.456059
-0.444887
-0.431867
-0.41695
-0.400405
-0.486513
-0.477918
-0.470461
-0.463034
-0.455176
-0.446642
-0.43699
-0.473629
-0.465879
-0.459001
-0.452126
-0.44496
-0.461365
-0.45446
-0.448161
-0.449793
-0.119689
-0.0950176
-0.074658
-0.0600964
-0.048026
-0.0384462
-0.0307781
-0.0244943
-0.019252
-0.014674
-0.011009
-0.00782057
-0.00522564
-0.00312478
-0.00132032
0.000132743
0.00116768
0.0016774
0.00220409
-0.202029
-0.152905
-0.117369
-0.093214
-0.0731284
-0.0588215
-0.0469127
-0.0374597
-0.0299193
-0.0237515
-0.018582
-0.0140431
-0.0104228
-0.0072652
-0.00470141
-0.00263156
-0.000833416
0.000627023
0.00164666
0.0021319
0.00268004
-0.160477
-0.122798
-0.0925958
-0.0717662
-0.0536453
-0.0402492
-0.0284772
-0.0196278
-0.0119436
-0.00569644
-0.00071734
0.0035218
0.0068708
0.00954491
0.0118024
0.0135325
0.0151195
0.0159976
0.0168057
0.0172555
0.0176393
-0.0423202
-0.0302426
-0.0211051
-0.0132199
-0.00681596
-0.00169168
0.00265235
0.0060992
0.00886097
0.0111837
0.0129598
0.0145713
0.0154973
0.0163358
0.0168003
0.0171759
)
;

boundaryField
{
    inlet
    {
        type            zeroGradient;
    }
    outlet
    {
        type            fixedValue;
        value           nonuniform 0();
    }
    cylinder
    {
        type            zeroGradient;
    }
    top
    {
        type            symmetryPlane;
    }
    bottom
    {
        type            symmetryPlane;
    }
    defaultFaces
    {
        type            empty;
    }
    procBoundary20to19
    {
        type            processor;
        value           nonuniform List<scalar> 
94
(
-0.679673
-0.670142
-0.670142
-0.670632
-0.660464
-0.647913
-0.647913
-0.636641
-0.615484
-0.591001
-0.563956
-0.563956
-0.53027
-0.499761
-0.46974
-0.440647
-0.440647
-0.404652
-0.378035
-0.352819
-0.328943
-0.328943
-0.298622
-0.277642
-0.257844
-0.239008
-0.229307
-0.213643
-0.198918
-0.184873
-0.330633
-0.309385
-0.289395
-0.270621
-0.252986
-0.252986
-0.424707
-0.402161
-0.379383
-0.356991
-0.356991
-0.474517
-0.459554
-0.442253
-0.442253
-0.494836
-0.486139
-0.476484
-0.476484
-0.499913
-0.490484
-0.490484
-0.197277
-0.149806
-0.114835
-0.0912578
-0.0714884
-0.0574714
-0.0457438
-0.0364268
-0.0290254
-0.0229847
-0.0178925
-0.0133925
-0.00981714
-0.0066916
-0.00416089
-0.0021242
-0.000330974
0.00113981
0.00214225
0.00260059
0.00317349
-0.154137
-0.117913
-0.0886467
-0.068645
-0.0510828
-0.0381423
-0.0266789
-0.0181192
-0.0106392
-0.00454902
0.000282988
0.00441567
0.00766464
0.0102471
0.0124369
0.0141215
0.015685
0.0165124
0.0172867
0.0177222
0.0181169
)
;
    }
    procBoundary20to21
    {
        type            processor;
        value           nonuniform List<scalar> 
102
(
-0.63148
-0.625671
-0.627834
-0.627834
-0.628874
-0.628874
-0.62092
-0.617033
-0.617033
-0.604177
-0.588626
-0.569524
-0.569524
-0.546421
-0.516716
-0.516716
-0.489318
-0.461725
-0.427496
-0.427496
-0.400754
-0.374967
-0.350194
-0.320204
-0.320204
-0.297976
-0.276864
-0.256731
-0.206236
-0.198813
-0.265596
-0.249387
-0.233994
-0.198813
-0.219385
-0.323972
-0.305632
-0.265596
-0.288084
-0.382709
-0.36441
-0.323972
-0.345996
-0.425801
-0.412875
-0.382709
-0.398298
-0.437369
-0.425801
-0.428985
-0.441803
-0.437369
-0.435228
-0.443721
-0.441803
-0.438003
-0.443721
-0.438956
-0.121803
-0.0966676
-0.0760781
-0.0612989
-0.0490848
-0.0393875
-0.0316028
-0.0252132
-0.0199021
-0.0152848
-0.011576
-0.00835775
-0.00573328
-0.00360351
-0.0017915
-0.000343115
0.000705439
0.00123707
0.00174559
-0.206236
-0.155648
-0.155648
-0.166641
-0.127583
-0.0964709
-0.0748335
-0.0561723
-0.0561723
-0.0443578
-0.031976
-0.0225528
-0.0144687
-0.00790783
-0.00264054
0.00180705
0.00534969
0.00819553
0.0105814
0.0124036
0.0140405
0.0150116
0.0158779
0.016357
0.0167268
)
;
    }
}


// ************************************************************************* //
