/*--------------------------------*- C++ -*----------------------------------*\
  =========                 |
  \\      /  F ield         | OpenFOAM: The Open Source CFD Toolbox
   \\    /   O peration     | Website:  https://openfoam.org
    \\  /    A nd           | Version:  7
     \\/     M anipulation  |
\*---------------------------------------------------------------------------*/
FoamFile
{
    version     2.0;
    format      ascii;
    class       volScalarField;
    location    "35";
    object      p;
}
// * * * * * * * * * * * * * * * * * * * * * * * * * * * * * * * * * * * * * //

dimensions      [0 2 -2 0 0 0 0];

internalField   nonuniform List<scalar> 
40000
(
-0.242045
-0.242924
-0.243586
-0.244129
-0.244618
-0.245056
-0.24545
-0.245807
-0.246137
-0.246445
-0.246738
-0.247018
-0.247289
-0.247553
-0.247807
-0.248053
-0.248288
-0.248508
-0.248713
-0.248898
-0.24906
-0.249197
-0.249307
-0.24939
-0.249444
-0.249473
-0.249479
-0.249466
-0.249437
-0.249409
-0.242148
-0.243021
-0.243678
-0.244217
-0.244703
-0.245138
-0.245529
-0.245884
-0.246211
-0.246517
-0.246808
-0.247086
-0.247356
-0.247617
-0.24787
-0.248113
-0.248346
-0.248565
-0.248767
-0.24895
-0.24911
-0.249244
-0.249351
-0.24943
-0.24948
-0.249504
-0.249506
-0.249488
-0.249453
-0.249421
-0.242353
-0.243214
-0.243862
-0.244394
-0.244874
-0.245303
-0.245688
-0.246038
-0.246361
-0.246662
-0.246949
-0.247223
-0.247489
-0.247746
-0.247995
-0.248235
-0.248464
-0.248679
-0.248877
-0.249056
-0.249211
-0.249339
-0.24944
-0.249512
-0.249554
-0.249569
-0.249561
-0.249535
-0.249487
-0.249448
-0.24266
-0.243502
-0.244137
-0.244659
-0.245128
-0.245549
-0.245926
-0.246269
-0.246584
-0.246879
-0.247159
-0.247427
-0.247687
-0.247938
-0.248182
-0.248416
-0.24864
-0.248849
-0.249041
-0.249213
-0.249361
-0.249481
-0.249573
-0.249633
-0.249664
-0.249665
-0.249644
-0.249603
-0.249536
-0.249486
-0.243064
-0.243883
-0.2445
-0.245008
-0.245465
-0.245874
-0.24624
-0.246573
-0.246879
-0.247165
-0.247436
-0.247696
-0.247948
-0.248192
-0.248428
-0.248655
-0.248871
-0.249072
-0.249257
-0.24942
-0.249558
-0.249667
-0.249746
-0.249793
-0.249806
-0.24979
-0.24975
-0.24969
-0.249597
-0.24953
-0.243561
-0.244352
-0.244948
-0.245438
-0.245879
-0.246274
-0.246627
-0.246947
-0.247242
-0.247516
-0.247777
-0.248027
-0.248268
-0.248503
-0.248729
-0.248947
-0.249153
-0.249345
-0.24952
-0.249672
-0.249798
-0.249894
-0.249957
-0.249985
-0.249979
-0.249939
-0.249875
-0.249791
-0.249664
-0.249575
-0.244148
-0.244905
-0.245476
-0.245946
-0.246369
-0.246747
-0.247084
-0.247389
-0.247669
-0.24793
-0.248178
-0.248415
-0.248645
-0.248867
-0.249082
-0.249288
-0.249484
-0.249664
-0.249826
-0.249965
-0.250077
-0.250157
-0.250201
-0.250208
-0.250176
-0.250108
-0.250014
-0.2499
-0.249731
-0.249611
-0.244818
-0.245537
-0.246081
-0.246527
-0.246929
-0.247287
-0.247606
-0.247894
-0.248157
-0.248402
-0.248635
-0.248857
-0.249072
-0.24928
-0.249482
-0.249675
-0.249857
-0.250024
-0.250172
-0.250296
-0.250391
-0.250452
-0.250475
-0.250456
-0.250394
-0.250291
-0.250161
-0.25001
-0.249791
-0.249627
-0.245565
-0.246243
-0.246756
-0.247177
-0.247555
-0.247891
-0.248189
-0.248457
-0.248701
-0.248928
-0.249142
-0.249348
-0.249546
-0.249738
-0.249923
-0.250101
-0.250267
-0.250419
-0.25055
-0.250657
-0.250734
-0.250773
-0.250771
-0.250723
-0.250627
-0.250484
-0.25031
-0.250116
-0.249838
-0.24961
-0.246383
-0.247016
-0.247496
-0.24789
-0.248241
-0.248553
-0.248828
-0.249073
-0.249296
-0.249502
-0.249696
-0.249881
-0.25006
-0.250234
-0.250401
-0.25056
-0.250709
-0.250843
-0.250956
-0.251044
-0.251099
-0.251115
-0.251086
-0.251005
-0.25087
-0.250681
-0.250455
-0.250211
-0.249866
-0.24954
-0.247265
-0.247852
-0.248297
-0.24866
-0.248984
-0.249269
-0.249518
-0.249738
-0.249937
-0.25012
-0.25029
-0.250453
-0.25061
-0.250762
-0.250908
-0.251047
-0.251176
-0.25129
-0.251383
-0.25145
-0.251482
-0.251472
-0.251413
-0.251296
-0.251118
-0.250877
-0.25059
-0.250287
-0.249873
-0.249382
-0.248204
-0.248744
-0.249152
-0.249484
-0.249777
-0.250033
-0.250254
-0.250448
-0.250619
-0.250775
-0.25092
-0.251057
-0.251189
-0.251316
-0.251439
-0.251555
-0.251661
-0.251753
-0.251824
-0.251867
-0.251875
-0.251837
-0.251746
-0.251591
-0.251366
-0.251067
-0.250708
-0.25034
-0.249865
-0.249055
-0.249195
-0.249686
-0.250056
-0.250355
-0.250617
-0.250842
-0.251032
-0.251196
-0.251337
-0.251464
-0.251579
-0.251687
-0.251791
-0.251891
-0.251987
-0.252077
-0.252158
-0.252225
-0.252271
-0.25229
-0.252271
-0.252204
-0.252078
-0.251883
-0.251608
-0.251246
-0.250808
-0.250366
-0.24985
-0.248519
-0.250231
-0.250673
-0.251005
-0.25127
-0.251498
-0.25169
-0.251848
-0.251978
-0.252087
-0.25218
-0.252263
-0.252338
-0.25241
-0.252479
-0.252545
-0.252606
-0.252659
-0.252698
-0.252718
-0.252709
-0.252662
-0.252565
-0.252404
-0.252166
-0.251839
-0.25141
-0.250888
-0.250343
-0.249682
-0.24833
-0.251307
-0.251701
-0.251994
-0.252225
-0.252418
-0.252574
-0.252696
-0.25279
-0.252863
-0.25292
-0.252966
-0.253006
-0.253042
-0.253076
-0.253108
-0.253136
-0.253157
-0.253166
-0.253156
-0.253118
-0.253041
-0.252912
-0.252715
-0.252435
-0.252054
-0.251556
-0.250946
-0.250289
-0.249436
-0.248002
-0.252418
-0.252766
-0.25302
-0.253215
-0.253372
-0.25349
-0.253575
-0.25363
-0.253663
-0.253679
-0.253685
-0.253684
-0.25368
-0.253675
-0.253669
-0.25366
-0.253646
-0.253622
-0.253579
-0.253509
-0.2534
-0.253238
-0.253004
-0.252681
-0.252247
-0.251678
-0.250975
-0.2502
-0.249163
-0.24748
-0.25356
-0.253864
-0.254081
-0.254239
-0.254358
-0.254437
-0.25448
-0.254493
-0.254482
-0.254454
-0.254415
-0.254369
-0.25432
-0.254271
-0.254223
-0.254173
-0.25412
-0.254058
-0.253979
-0.253875
-0.253732
-0.253534
-0.253263
-0.252897
-0.252409
-0.251771
-0.250972
-0.250074
-0.248858
-0.24679
-0.254733
-0.254994
-0.255174
-0.255295
-0.255374
-0.255412
-0.255411
-0.255378
-0.25532
-0.255243
-0.255154
-0.255058
-0.25496
-0.254862
-0.254766
-0.25467
-0.254573
-0.254469
-0.254351
-0.254208
-0.254028
-0.253793
-0.253484
-0.253074
-0.252534
-0.251828
-0.250931
-0.249906
-0.248519
-0.245936
-0.255935
-0.256157
-0.256299
-0.256383
-0.256422
-0.256415
-0.256367
-0.256285
-0.256174
-0.256044
-0.255899
-0.255748
-0.255595
-0.255443
-0.255294
-0.255148
-0.255001
-0.254851
-0.254688
-0.254503
-0.254283
-0.254008
-0.253658
-0.253204
-0.252612
-0.251839
-0.250847
-0.24969
-0.248152
-0.244919
-0.257167
-0.257352
-0.257459
-0.257505
-0.2575
-0.257447
-0.257349
-0.257212
-0.257045
-0.256856
-0.256651
-0.25644
-0.256226
-0.256014
-0.255806
-0.255603
-0.255402
-0.2552
-0.254988
-0.254757
-0.254491
-0.254174
-0.253779
-0.253279
-0.252634
-0.251796
-0.250711
-0.249419
-0.247766
-0.243746
-0.258432
-0.258582
-0.258655
-0.258661
-0.258613
-0.25851
-0.258357
-0.258162
-0.257934
-0.25768
-0.25741
-0.257132
-0.256851
-0.256574
-0.256301
-0.256036
-0.255775
-0.255516
-0.255249
-0.254966
-0.254651
-0.254285
-0.253843
-0.253293
-0.252593
-0.251689
-0.250513
-0.24908
-0.247365
-0.242435
-0.259735
-0.259853
-0.259891
-0.259857
-0.259762
-0.259606
-0.259395
-0.259138
-0.258842
-0.258519
-0.258178
-0.257827
-0.257474
-0.257124
-0.256782
-0.256448
-0.256122
-0.255799
-0.255473
-0.255132
-0.254763
-0.254343
-0.253848
-0.253242
-0.252482
-0.251511
-0.250245
-0.248661
-0.246949
-0.241014
-0.261082
-0.26117
-0.261173
-0.261097
-0.260953
-0.26074
-0.260467
-0.260142
-0.259775
-0.259377
-0.258958
-0.258529
-0.258097
-0.25767
-0.257251
-0.256843
-0.256445
-0.256054
-0.255662
-0.255259
-0.254829
-0.25435
-0.253796
-0.253129
-0.252302
-0.251256
-0.249902
-0.248151
-0.246505
-0.239532
-0.262482
-0.262541
-0.262508
-0.262389
-0.262192
-0.261919
-0.261579
-0.261181
-0.260736
-0.260258
-0.259756
-0.259242
-0.258726
-0.258215
-0.257715
-0.257227
-0.256752
-0.256287
-0.255824
-0.255352
-0.254856
-0.254312
-0.253692
-0.252956
-0.252055
-0.250928
-0.249482
-0.247548
-0.246013
-0.23805
-0.263945
-0.263975
-0.263905
-0.26374
-0.263486
-0.263149
-0.262737
-0.262261
-0.261734
-0.261168
-0.260578
-0.259974
-0.259368
-0.258768
-0.25818
-0.257607
-0.25705
-0.256506
-0.255967
-0.255421
-0.254853
-0.254238
-0.253544
-0.252733
-0.251749
-0.25053
-0.248989
-0.246866
-0.245443
-0.23665
-0.265483
-0.265484
-0.265375
-0.265159
-0.264845
-0.264439
-0.26395
-0.26339
-0.262774
-0.262117
-0.261432
-0.260733
-0.260032
-0.259338
-0.258657
-0.257995
-0.257351
-0.256723
-0.256102
-0.255478
-0.254831
-0.254138
-0.253365
-0.252468
-0.251393
-0.250073
-0.248426
-0.246127
-0.244761
-0.23543
-0.267112
-0.26708
-0.266928
-0.266659
-0.26628
-0.265798
-0.265226
-0.264578
-0.263868
-0.263113
-0.262329
-0.261529
-0.260728
-0.259935
-0.259158
-0.258401
-0.257666
-0.256949
-0.256243
-0.255534
-0.254804
-0.254025
-0.253163
-0.252174
-0.250997
-0.249567
-0.247794
-0.245355
-0.243894
-0.234432
-0.268845
-0.268777
-0.268578
-0.26825
-0.2678
-0.267238
-0.266578
-0.265834
-0.265025
-0.264167
-0.263278
-0.262373
-0.261467
-0.260571
-0.259693
-0.258839
-0.258009
-0.257199
-0.256402
-0.255603
-0.254782
-0.25391
-0.252951
-0.251858
-0.250572
-0.249028
-0.24711
-0.244593
-0.242722
-0.233541
-0.2707
-0.27059
-0.270338
-0.269945
-0.269418
-0.26877
-0.268015
-0.267171
-0.266256
-0.26529
-0.264291
-0.263277
-0.262263
-0.26126
-0.260278
-0.259322
-0.258393
-0.257486
-0.256593
-0.255697
-0.254777
-0.253802
-0.252734
-0.251527
-0.250123
-0.248468
-0.24642
-0.243948
-0.241271
-0.232963
-0.272693
-0.272534
-0.272223
-0.271758
-0.271148
-0.270406
-0.26955
-0.268599
-0.267574
-0.266495
-0.265383
-0.264255
-0.263129
-0.262016
-0.260926
-0.259865
-0.258833
-0.257824
-0.256828
-0.255827
-0.254797
-0.253706
-0.252514
-0.251178
-0.249645
-0.247882
-0.245746
-0.243494
-0.240096
-0.234927
-0.274844
-0.274626
-0.274248
-0.273703
-0.273002
-0.27216
-0.271197
-0.270133
-0.268992
-0.267795
-0.266565
-0.26532
-0.264078
-0.262852
-0.261652
-0.260482
-0.259342
-0.258225
-0.257118
-0.256
-0.254846
-0.253622
-0.252287
-0.250799
-0.249115
-0.247222
-0.24501
-0.242958
-0.239732
-0.242188
-0.277169
-0.276882
-0.276427
-0.275795
-0.274995
-0.274045
-0.272967
-0.271785
-0.270522
-0.269203
-0.267851
-0.266486
-0.265126
-0.263784
-0.262469
-0.261186
-0.259932
-0.258698
-0.257469
-0.256221
-0.254925
-0.253545
-0.25204
-0.250372
-0.248504
-0.246438
-0.244107
-0.241985
-0.239003
-0.240675
-0.279688
-0.279319
-0.278777
-0.278048
-0.277141
-0.276075
-0.274875
-0.273568
-0.272179
-0.270733
-0.269255
-0.267767
-0.266285
-0.264823
-0.26339
-0.261988
-0.260612
-0.259251
-0.257886
-0.25649
-0.255029
-0.253466
-0.25176
-0.249875
-0.247781
-0.245487
-0.242955
-0.240557
-0.237464
-0.237501
-0.282417
-0.281953
-0.281312
-0.280477
-0.279453
-0.278263
-0.276935
-0.275497
-0.273976
-0.272399
-0.270792
-0.269176
-0.267569
-0.265984
-0.264427
-0.262898
-0.261391
-0.259889
-0.258369
-0.256801
-0.255149
-0.253371
-0.251428
-0.249287
-0.246923
-0.244347
-0.241536
-0.238759
-0.235383
-0.234044
-0.285374
-0.284799
-0.284048
-0.283096
-0.281945
-0.280623
-0.27916
-0.277584
-0.275927
-0.274215
-0.272475
-0.270728
-0.268992
-0.267278
-0.26559
-0.263925
-0.262272
-0.260611
-0.258915
-0.257148
-0.255271
-0.253243
-0.251025
-0.248588
-0.245914
-0.243012
-0.239872
-0.23668
-0.232967
-0.230502
-0.288575
-0.287872
-0.286998
-0.285919
-0.284632
-0.28317
-0.281563
-0.279844
-0.278045
-0.276194
-0.274316
-0.272435
-0.270564
-0.268714
-0.266886
-0.265072
-0.263257
-0.261415
-0.259515
-0.257517
-0.25538
-0.253064
-0.250533
-0.247764
-0.244745
-0.24149
-0.237994
-0.234393
-0.230339
-0.22706
-0.292034
-0.291187
-0.290177
-0.288959
-0.287527
-0.285915
-0.284158
-0.282291
-0.280344
-0.278349
-0.27633
-0.274308
-0.272297
-0.270302
-0.268321
-0.266342
-0.264342
-0.262293
-0.260156
-0.257892
-0.255457
-0.252815
-0.249936
-0.246804
-0.243416
-0.239792
-0.235935
-0.231951
-0.227583
-0.223719
-0.295765
-0.294756
-0.293597
-0.29223
-0.290642
-0.288872
-0.286958
-0.284936
-0.282837
-0.280693
-0.278528
-0.276359
-0.274199
-0.272047
-0.269897
-0.267731
-0.26552
-0.263231
-0.260823
-0.258253
-0.255481
-0.252477
-0.249219
-0.245701
-0.24193
-0.237933
-0.233723
-0.229392
-0.224743
-0.220466
-0.29978
-0.298592
-0.297269
-0.295742
-0.293989
-0.292053
-0.289976
-0.287793
-0.285537
-0.283239
-0.28092
-0.278597
-0.276275
-0.273952
-0.271612
-0.269232
-0.26678
-0.264214
-0.261494
-0.258578
-0.255433
-0.252033
-0.248371
-0.24445
-0.240291
-0.235927
-0.23138
-0.226736
-0.22184
-0.217263
-0.304089
-0.302704
-0.301205
-0.299506
-0.297579
-0.29547
-0.293222
-0.290873
-0.288455
-0.285996
-0.283517
-0.281028
-0.27853
-0.276015
-0.27346
-0.270836
-0.268103
-0.265221
-0.262148
-0.258846
-0.255291
-0.251468
-0.247383
-0.243052
-0.238506
-0.233787
-0.228923
-0.223995
-0.21888
-0.214075
-0.3087
-0.307101
-0.305413
-0.303533
-0.301423
-0.299133
-0.296709
-0.294188
-0.291601
-0.288974
-0.286323
-0.283655
-0.280963
-0.27823
-0.275429
-0.272523
-0.269471
-0.266229
-0.262759
-0.259033
-0.255036
-0.250769
-0.246249
-0.241506
-0.236581
-0.231521
-0.22636
-0.221174
-0.215861
-0.210871
-0.313621
-0.311789
-0.309899
-0.307829
-0.305529
-0.303052
-0.300446
-0.297746
-0.294984
-0.292179
-0.289344
-0.286478
-0.283568
-0.280588
-0.277504
-0.274274
-0.270856
-0.267209
-0.263302
-0.259117
-0.254653
-0.249925
-0.244965
-0.239815
-0.234521
-0.229136
-0.223696
-0.218272
-0.212776
-0.207623
-0.318853
-0.316773
-0.31467
-0.312401
-0.309903
-0.307233
-0.304439
-0.301555
-0.298608
-0.295615
-0.292579
-0.289493
-0.286334
-0.283071
-0.279661
-0.276062
-0.272231
-0.268134
-0.26375
-0.259075
-0.254124
-0.248927
-0.243528
-0.237978
-0.232329
-0.226635
-0.220933
-0.215287
-0.209619
-0.204313
-0.324399
-0.322054
-0.319728
-0.317252
-0.31455
-0.311682
-0.308694
-0.305618
-0.302477
-0.299279
-0.296022
-0.292687
-0.289246
-0.285656
-0.281875
-0.277857
-0.273564
-0.268973
-0.264077
-0.258888
-0.253437
-0.247767
-0.241934
-0.235996
-0.230007
-0.224019
-0.218068
-0.212211
-0.206379
-0.200925
-0.330254
-0.32763
-0.325071
-0.322382
-0.319472
-0.3164
-0.313212
-0.309937
-0.306587
-0.303167
-0.299662
-0.296046
-0.292279
-0.288317
-0.284112
-0.279623
-0.274822
-0.269698
-0.26426
-0.258538
-0.252579
-0.246439
-0.240181
-0.233867
-0.227552
-0.221284
-0.215098
-0.209038
-0.203047
-0.197445
-0.336411
-0.333495
-0.330696
-0.32779
-0.324667
-0.321386
-0.317992
-0.314505
-0.310932
-0.307265
-0.303481
-0.299543
-0.295405
-0.291018
-0.286336
-0.281325
-0.27597
-0.270277
-0.264274
-0.258008
-0.251539
-0.244935
-0.238265
-0.231589
-0.224962
-0.218427
-0.212014
-0.205759
-0.199615
-0.193864
-0.342859
-0.339639
-0.336594
-0.333467
-0.330127
-0.326633
-0.323025
-0.319313
-0.315497
-0.311555
-0.307455
-0.30315
-0.298588
-0.29372
-0.288506
-0.282923
-0.276974
-0.270683
-0.264098
-0.257281
-0.250307
-0.24325
-0.236179
-0.229157
-0.222231
-0.21544
-0.20881
-0.202367
-0.196073
-0.190173
-0.349581
-0.346048
-0.342751
-0.339401
-0.335842
-0.33213
-0.328297
-0.324346
-0.320261
-0.316011
-0.311551
-0.306828
-0.301786
-0.296379
-0.290579
-0.284379
-0.2778
-0.270889
-0.26371
-0.256344
-0.248873
-0.241374
-0.233918
-0.226563
-0.219352
-0.212316
-0.205476
-0.198851
-0.192411
-0.186362
-0.356553
-0.352701
-0.349151
-0.345576
-0.341796
-0.337859
-0.33379
-0.329578
-0.325195
-0.320597
-0.315729
-0.310531
-0.30495
-0.298948
-0.29251
-0.285651
-0.278415
-0.270867
-0.263093
-0.255182
-0.247224
-0.239299
-0.231474
-0.2238
-0.216314
-0.209044
-0.202003
-0.195202
-0.18862
-0.182425
-0.363748
-0.359571
-0.355767
-0.351968
-0.347964
-0.343796
-0.339476
-0.33498
-0.330264
-0.325273
-0.319942
-0.314211
-0.308031
-0.301376
-0.294254
-0.286702
-0.278786
-0.270594
-0.262226
-0.253781
-0.245351
-0.237016
-0.228835
-0.220856
-0.213109
-0.205613
-0.198379
-0.191409
-0.184691
-0.178352
-0.371128
-0.366626
-0.362569
-0.358547
-0.354317
-0.349908
-0.34532
-0.340511
-0.335423
-0.329988
-0.324137
-0.31781
-0.310971
-0.303613
-0.295765
-0.287492
-0.278883
-0.270045
-0.261091
-0.252126
-0.243241
-0.234511
-0.225992
-0.217722
-0.209725
-0.202014
-0.194594
-0.187463
-0.180614
-0.174136
-0.378651
-0.373825
-0.36952
-0.365277
-0.360818
-0.356157
-0.351279
-0.346123
-0.340617
-0.334684
-0.328252
-0.321269
-0.313714
-0.305605
-0.296998
-0.287984
-0.278677
-0.269199
-0.259671
-0.250201
-0.24088
-0.231773
-0.222931
-0.214384
-0.206148
-0.198232
-0.190636
-0.183353
-0.17638
-0.16977
-0.386268
-0.381123
-0.376573
-0.372112
-0.36742
-0.362494
-0.357301
-0.351761
-0.345788
-0.339298
-0.332223
-0.324523
-0.316201
-0.307301
-0.297909
-0.288144
-0.278139
-0.268031
-0.257947
-0.247993
-0.238253
-0.228788
-0.219639
-0.210829
-0.202368
-0.194258
-0.186495
-0.179069
-0.171979
-0.165244
-0.39392
-0.388464
-0.383678
-0.379002
-0.374072
-0.368865
-0.363326
-0.35736
-0.350867
-0.34376
-0.335981
-0.327509
-0.318372
-0.308649
-0.298456
-0.287937
-0.277243
-0.266522
-0.255901
-0.245483
-0.235346
-0.225541
-0.216102
-0.207043
-0.198369
-0.190077
-0.182159
-0.1746
-0.167402
-0.160552
-0.401543
-0.395787
-0.390775
-0.385886
-0.380711
-0.375204
-0.369288
-0.362849
-0.35578
-0.347997
-0.339454
-0.330158
-0.32017
-0.3096
-0.298598
-0.28733
-0.275963
-0.264648
-0.253513
-0.242655
-0.232142
-0.222017
-0.212305
-0.203013
-0.19414
-0.185679
-0.177616
-0.169937
-0.162641
-0.155686
-0.409065
-0.403025
-0.397796
-0.392698
-0.38727
-0.38144
-0.37511
-0.368151
-0.360449
-0.35193
-0.342569
-0.332406
-0.321536
-0.310107
-0.298297
-0.286292
-0.274272
-0.262389
-0.250766
-0.239492
-0.228625
-0.218201
-0.208233
-0.198724
-0.189668
-0.181051
-0.172857
-0.16507
-0.157687
-0.150639
-0.416408
-0.410101
-0.404668
-0.399363
-0.393671
-0.387494
-0.380712
-0.373181
-0.36479
-0.355479
-0.345253
-0.334186
-0.322416
-0.310123
-0.297515
-0.284795
-0.272147
-0.259723
-0.24764
-0.235975
-0.224779
-0.214075
-0.203871
-0.194163
-0.184938
-0.176181
-0.167871
-0.15999
-0.152532
-0.145405
-0.423487
-0.416935
-0.41131
-0.4058
-0.399833
-0.393282
-0.386006
-0.377853
-0.368719
-0.358565
-0.347433
-0.335438
-0.322756
-0.309607
-0.296218
-0.282808
-0.269563
-0.25663
-0.244115
-0.232087
-0.220585
-0.209624
-0.199204
-0.189315
-0.17994
-0.171059
-0.162648
-0.154689
-0.147169
-0.139978
-0.430213
-0.42344
-0.417637
-0.411923
-0.405667
-0.398713
-0.390901
-0.382076
-0.372148
-0.361108
-0.349039
-0.336099
-0.322508
-0.308517
-0.294374
-0.280305
-0.266497
-0.253087
-0.240173
-0.22781
-0.216028
-0.204833
-0.194219
-0.184168
-0.174661
-0.165673
-0.157178
-0.149158
-0.14159
-0.134354
-0.436491
-0.429523
-0.423557
-0.417639
-0.41108
-0.403692
-0.395303
-0.385759
-0.374992
-0.36303
-0.350002
-0.336113
-0.321625
-0.306816
-0.291951
-0.277261
-0.262925
-0.249075
-0.235794
-0.223126
-0.211091
-0.199687
-0.1889
-0.178709
-0.169089
-0.160013
-0.151453
-0.14339
-0.135789
-0.128529
-0.442223
-0.43509
-0.428976
-0.422854
-0.415974
-0.408123
-0.399115
-0.38881
-0.377165
-0.364256
-0.350258
-0.335427
-0.320063
-0.304468
-0.28892
-0.273649
-0.258828
-0.244575
-0.230961
-0.218019
-0.205759
-0.194171
-0.183234
-0.172925
-0.163214
-0.154071
-0.145465
-0.137377
-0.12976
-0.122497
-0.44731
-0.440042
-0.433796
-0.427467
-0.420251
-0.411906
-0.402243
-0.391138
-0.378587
-0.364713
-0.349747
-0.333992
-0.317782
-0.301441
-0.285255
-0.269448
-0.254184
-0.239567
-0.225655
-0.212472
-0.200016
-0.188271
-0.177211
-0.166806
-0.157026
-0.147836
-0.139205
-0.131112
-0.123498
-0.116253
-0.45165
-0.44428
-0.437916
-0.43138
-0.42381
-0.414943
-0.404592
-0.392657
-0.379179
-0.364336
-0.348414
-0.331762
-0.314746
-0.297706
-0.28093
-0.264635
-0.248973
-0.234033
-0.219862
-0.206471
-0.19385
-0.181975
-0.170818
-0.160343
-0.150516
-0.141301
-0.132666
-0.124588
-0.116995
-0.109791
-0.455143
-0.447703
-0.441237
-0.434491
-0.426552
-0.417137
-0.406069
-0.393282
-0.378867
-0.363062
-0.346208
-0.328697
-0.310922
-0.293236
-0.275923
-0.259191
-0.243178
-0.227959
-0.213566
-0.200002
-0.187247
-0.175273
-0.164045
-0.153525
-0.143676
-0.13446
-0.125842
-0.1178
-0.110249
-0.10311
-0.457688
-0.450214
-0.44366
-0.436703
-0.428379
-0.418394
-0.406588
-0.392935
-0.377585
-0.360836
-0.343083
-0.32476
-0.306282
-0.288007
-0.270214
-0.253099
-0.236782
-0.221328
-0.206754
-0.193052
-0.180197
-0.168154
-0.156884
-0.146345
-0.136499
-0.127304
-0.118727
-0.110742
-0.103256
-0.09621
-0.45919
-0.451714
-0.445089
-0.437918
-0.429197
-0.418625
-0.406066
-0.391544
-0.37527
-0.357607
-0.339001
-0.319921
-0.300801
-0.281999
-0.263785
-0.246341
-0.229773
-0.214128
-0.199414
-0.185612
-0.172692
-0.160611
-0.149327
-0.138798
-0.128979
-0.119829
-0.111312
-0.103406
-0.0960108
-0.089087
-0.459554
-0.452113
-0.44543
-0.438045
-0.428917
-0.417745
-0.404428
-0.389044
-0.37187
-0.353332
-0.333927
-0.314153
-0.294457
-0.275193
-0.256621
-0.238906
-0.222137
-0.206349
-0.191536
-0.177674
-0.164722
-0.152637
-0.141371
-0.130878
-0.121112
-0.112029
-0.103592
-0.0957791
-0.088496
-0.0817095
-0.458695
-0.451322
-0.444596
-0.436996
-0.427455
-0.415679
-0.401605
-0.385376
-0.367337
-0.347975
-0.327833
-0.307435
-0.287233
-0.267577
-0.24871
-0.230782
-0.213866
-0.197981
-0.183114
-0.16923
-0.156285
-0.144229
-0.133011
-0.122583
-0.112897
-0.103905
-0.0955651
-0.0878592
-0.0806884
-0.0739924
-0.456531
-0.449258
-0.442505
-0.434693
-0.424736
-0.412356
-0.397538
-0.380492
-0.361632
-0.341506
-0.320697
-0.299749
-0.279116
-0.259138
-0.240043
-0.221962
-0.204952
-0.18902
-0.174143
-0.160278
-0.147376
-0.135383
-0.124247
-0.113915
-0.104336
-0.0954587
-0.0872414
-0.0796696
-0.0726082
-0.0658466
-0.452988
-0.445849
-0.439082
-0.431062
-0.420691
-0.407716
-0.392175
-0.374349
-0.354724
-0.333902
-0.312502
-0.291083
-0.270098
-0.249871
-0.230615
-0.21244
-0.195391
-0.179461
-0.164619
-0.150815
-0.137995
-0.126101
-0.115079
-0.104873
-0.0954296
-0.0866944
-0.0786312
-0.0712335
-0.064325
-0.0574063
-0.448001
-0.441026
-0.434262
-0.426039
-0.415262
-0.401707
-0.385474
-0.366916
-0.346589
-0.325146
-0.303238
-0.281432
-0.260173
-0.239772
-0.220421
-0.202215
-0.185182
-0.169305
-0.154543
-0.140842
-0.128142
-0.116384
-0.105509
-0.0954609
-0.0861822
-0.0776168
-0.0697384
-0.062519
-0.0556748
-0.0490832
-0.441514
-0.434734
-0.427987
-0.419571
-0.4084
-0.394288
-0.377402
-0.358169
-0.337211
-0.31523
-0.2929
-0.270792
-0.249342
-0.228841
-0.209464
-0.191288
-0.174326
-0.158552
-0.143917
-0.130361
-0.117822
-0.106237
-0.0955436
-0.0856846
-0.0766008
-0.0682361
-0.0605638
-0.0535353
-0.0468327
-0.0405945
-0.433481
-0.426925
-0.420211
-0.411612
-0.400065
-0.385428
-0.367936
-0.348093
-0.326584
-0.304152
-0.28149
-0.259168
-0.237607
-0.217083
-0.197748
-0.179663
-0.162828
-0.147208
-0.132747
-0.11938
-0.107041
-0.0956655
-0.0851886
-0.0755507
-0.0666915
-0.0585553
-0.0511143
-0.044304
-0.037796
-0.0318866
-0.423867
-0.417561
-0.410896
-0.40213
-0.39023
-0.375105
-0.357063
-0.336682
-0.314707
-0.291916
-0.269014
-0.246567
-0.224979
-0.204506
-0.18528
-0.167348
-0.150696
-0.135281
-0.121039
-0.107906
-0.095807
-0.0846777
-0.0744518
-0.0650674
-0.0564629
-0.0485827
-0.0413991
-0.0348359
-0.0285517
-0.0229583
-0.412646
-0.406616
-0.400016
-0.391101
-0.378877
-0.363309
-0.34478
-0.32394
-0.301588
-0.278532
-0.255484
-0.233001
-0.211469
-0.191121
-0.172073
-0.154354
-0.13794
-0.122781
-0.108807
-0.095948
-0.0841303
-0.0732845
-0.0633439
-0.0542451
-0.045925
-0.038328
-0.0314281
-0.0251375
-0.0190965
-0.0138233
-0.399805
-0.394075
-0.387558
-0.378514
-0.365999
-0.350039
-0.331093
-0.309878
-0.287243
-0.264019
-0.24092
-0.218489
-0.197094
-0.176946
-0.158141
-0.140696
-0.124576
-0.109722
-0.0960624
-0.083521
-0.0720235
-0.0614983
-0.0518774
-0.0430958
-0.0350893
-0.0278028
-0.021212
-0.0152168
-0.00943612
-0.00449444
-0.385342
-0.379933
-0.373517
-0.364368
-0.351601
-0.335307
-0.316017
-0.294516
-0.271693
-0.248399
-0.225344
-0.203054
-0.181876
-0.162
-0.143505
-0.126392
-0.11062
-0.0961213
-0.0828207
-0.0706398
-0.059502
-0.049334
-0.0400665
-0.0316335
-0.0239695
-0.0170202
-0.0107631
-0.00508447
0.000419014
0.00501488
-0.369264
-0.364198
-0.3579
-0.348673
-0.335697
-0.319131
-0.299578
-0.277882
-0.254969
-0.231703
-0.208785
-0.186723
-0.16584
-0.146307
-0.128185
-0.111463
-0.0960914
-0.0819971
-0.069101
-0.0573224
-0.046583
-0.0368081
-0.0279274
-0.0198738
-0.0125809
-0.00599514
-9.55966e-05
0.00524611
0.0104552
0.0146903
-0.351593
-0.346886
-0.340728
-0.331451
-0.318314
-0.301541
-0.281806
-0.260009
-0.237108
-0.213968
-0.191277
-0.169527
-0.149016
-0.129895
-0.112208
-0.0959344
-0.0810144
-0.0673719
-0.0549243
-0.0435888
-0.0332858
-0.0239394
-0.0154783
-0.00783447
-0.000940581
0.00525581
0.0107743
0.015759
0.0206559
0.024516
-0.332358
-0.328028
-0.322028
-0.312735
-0.299486
-0.282575
-0.262742
-0.240941
-0.218153
-0.195233
-0.172858
-0.151502
-0.131438
-0.112795
-0.0956042
-0.0798326
-0.065415
-0.0522705
-0.0403142
-0.0294616
-0.0196319
-0.0107483
-0.00273885
0.0044655
0.0109328
0.0167142
0.0218285
0.0264361
0.0310025
0.034474
-0.311601
-0.307663
-0.301842
-0.292566
-0.279258
-0.262282
-0.242442
-0.22074
-0.198145
-0.175537
-0.153572
-0.132689
-0.113142
-0.0950428
-0.0784056
-0.0631891
-0.0493221
-0.0367204
-0.0252967
-0.0149653
-0.0056446
0.00274285
0.0102696
0.0170054
0.023019
0.02836
0.0330471
0.037257
0.0414732
0.044542
-0.289373
-0.28584
-0.280219
-0.270996
-0.257686
-0.240722
-0.220973
-0.199481
-0.177099
-0.154932
-0.133465
-0.113132
-0.0941718
-0.0766766
-0.0606485
-0.0460377
-0.0327676
-0.0207513
-0.00989977
-0.000126476
0.00865099
0.0165103
0.0235244
0.0297635
0.0352966
0.0401719
0.0444085
0.0481995
0.0520425
0.0546902
-0.265737
-0.262618
-0.257218
-0.248085
-0.234832
-0.217959
-0.198377
-0.177105
-0.15519
-0.13349
-0.11259
-0.0928806
-0.0745715
-0.0577385
-0.0423721
-0.0284149
-0.0157858
-0.00439555
0.00584619
0.0150265
0.0232282
0.0305289
0.0370016
0.0427168
0.0477434
0.0521279
0.0558905
0.0592391
0.0626802
0.0648827
-0.240764
-0.238065
-0.232909
-0.223907
-0.210771
-0.194058
-0.174699
-0.153814
-0.132392
-0.111261
-0.0910058
-0.0719868
-0.0543896
-0.0382737
-0.0236186
-0.0103601
0.00158645
0.0123124
0.021909
0.0304635
0.0380587
0.0447721
0.0506764
0.0558421
0.060337
0.0642059
0.0674702
0.0703505
0.0733545
0.0750889
-0.214532
-0.212258
-0.207368
-0.198538
-0.185571
-0.169073
-0.150069
-0.129639
-0.108785
-0.0883092
-0.0687709
-0.0505058
-0.0336777
-0.0183301
-0.00443263
0.00808483
0.0193101
0.0293361
0.0382544
0.0461526
0.053113
0.0592126
0.0645235
0.0691156
0.0730551
0.0763839
0.0791258
0.0815117
0.0840411
0.0852853
-0.187114
-0.185285
-0.180679
-0.172055
-0.159307
-0.14313
-0.124546
-0.104654
-0.084447
-0.0647016
-0.0459478
-0.0284964
-0.0124903
0.00204143
0.0151383
0.0268756
0.0373437
0.0466368
0.0548465
0.0620604
0.06836
0.0738217
0.0785166
0.0825135
0.0858753
0.0886403
0.0908382
0.0927089
0.0947224
0.0954089
-0.158582
-0.157249
-0.152936
-0.144548
-0.132096
-0.116301
-0.0982135
-0.0789398
-0.0594559
-0.0405099
-0.0226028
-0.00602003
0.00911532
0.0227876
0.0350445
0.0459658
0.055644
0.064174
0.0716477
0.0781519
0.0837676
0.08857
0.0926292
0.0960118
0.0987754
0.100955
0.102593
0.103932
0.10535
0.1053
-0.129015
-0.128286
-0.124232
-0.116125
-0.104024
-0.0886781
-0.0711627
-0.0525821
-0.0338912
-0.0158084
0.00119506
0.0168592
0.0310795
0.0438528
0.055234
0.0653068
0.0741656
0.0819056
0.0886185
0.0943907
0.0993021
0.103427
0.106834
0.109587
0.111736
0.113315
0.114387
0.115163
0.115809
0.114787
-0.0986623
-0.0983942
-0.0946742
-0.0868908
-0.0751896
-0.0603593
-0.0434869
-0.0256689
-0.00783568
0.00932569
0.0253743
0.0400747
0.0533402
0.0651791
0.0756528
0.0848484
0.0928615
0.0997876
0.105718
0.110739
0.114929
0.118361
0.121104
0.123216
0.124742
0.125722
0.12624
0.126411
0.126043
0.123918
-0.0675619
-0.0677258
-0.0643741
-0.0569502
-0.0457
-0.0314464
-0.0152826
0.0017088
0.0186255
0.0348132
0.0498611
0.0635579
0.0758336
0.0867069
0.0962452
0.104538
0.111683
0.117775
0.122904
0.127157
0.13061
0.133338
0.135407
0.136872
0.137776
0.138177
0.13818
0.137732
0.136274
0.133245
-0.0358015
-0.0364152
-0.0334447
-0.0264139
-0.0156633
-0.00204411
0.0133508
0.0294577
0.0454052
0.0605728
0.07458
0.0872385
0.098494
0.108375
0.116954
0.124323
0.13058
0.13582
0.140133
0.143603
0.146309
0.148322
0.149708
0.150522
0.150809
0.15065
0.150155
0.14907
0.146592
0.144846
-0.00350611
-0.00457913
-0.00200212
0.00460378
0.014809
0.0277408
0.0423121
0.0574826
0.0724144
0.0865217
0.0994537
0.111044
0.121254
0.130121
0.137721
0.144149
0.149501
0.153875
0.157359
0.160036
0.161985
0.163275
0.163973
0.164131
0.163801
0.163076
0.162035
0.160353
0.157542
0.156478
0.0291979
0.0276628
0.029834
0.0359853
0.0456032
0.0577993
0.0714982
0.0856869
0.0995629
0.112576
0.124404
0.134903
0.144047
0.151881
0.158486
0.163958
0.168395
0.171892
0.174537
0.176413
0.177597
0.178159
0.178163
0.177663
0.176716
0.175413
0.173803
0.171571
0.168486
0.167371
0.0621842
0.0601875
0.0619414
0.067611
0.0766037
0.0880214
0.100805
0.113973
0.12676
0.13865
0.149352
0.15874
0.166802
0.173591
0.17919
0.183697
0.187209
0.189821
0.19162
0.19269
0.193104
0.192934
0.192241
0.191082
0.189514
0.187626
0.18545
0.182709
0.179317
0.177873
0.0953255
0.0928696
0.0941965
0.0993602
0.107694
0.118296
0.130128
0.142243
0.153913
0.16466
0.174218
0.182482
0.189452
0.195186
0.199771
0.203306
0.205889
0.207612
0.208563
0.208823
0.208466
0.207562
0.206172
0.204351
0.20216
0.199681
0.196939
0.19369
0.189929
0.188054
0.128494
0.125583
0.126475
0.131111
0.138757
0.148512
0.159362
0.170398
0.180931
0.190519
0.198922
0.206054
0.211925
0.2166
0.22017
0.222731
0.224382
0.225216
0.225318
0.224768
0.22364
0.222003
0.219916
0.217436
0.214621
0.211549
0.208242
0.20448
0.200309
0.197955
0.16156
0.1582
0.158651
0.162742
0.169676
0.178557
0.188403
0.19834
0.207723
0.216142
0.223384
0.229381
0.234153
0.23777
0.240324
0.241913
0.242635
0.242582
0.241838
0.240482
0.238587
0.236219
0.23344
0.230302
0.226864
0.223201
0.219329
0.215049
0.210446
0.20759
0.194397
0.190595
0.1906
0.194132
0.200335
0.208322
0.217146
0.225972
0.234197
0.241444
0.247526
0.252391
0.256067
0.25863
0.260174
0.260797
0.260596
0.259661
0.258077
0.255921
0.253265
0.250173
0.246705
0.242915
0.238859
0.234608
0.230174
0.225376
0.220331
0.216958
0.226877
0.222642
0.222198
0.225161
0.230617
0.237698
0.245488
0.253198
0.260264
0.266342
0.271269
0.275009
0.277598
0.279117
0.27966
0.279326
0.278212
0.276405
0.273991
0.271044
0.267634
0.263827
0.259679
0.255244
0.250576
0.245743
0.240752
0.235439
0.229949