/*--------------------------------*- C++ -*----------------------------------*\
  =========                 |
  \\      /  F ield         | OpenFOAM: The Open Source CFD Toolbox
   \\    /   O peration     | Website:  https://openfoam.org
    \\  /    A nd           | Version:  7
     \\/     M anipulation  |
\*---------------------------------------------------------------------------*/
FoamFile
{
    version     2.0;
    format      ascii;
    class       volScalarField;
    location    "45";
    object      p;
}
// * * * * * * * * * * * * * * * * * * * * * * * * * * * * * * * * * * * * * //

dimensions      [0 2 -2 0 0 0 0];

internalField   nonuniform List<scalar> 
183
(
-0.102999
-0.14586
-0.132603
-0.120691
-0.110002
-0.10016
-0.091102
-0.201452
-0.18119
-0.163081
-0.146886
-0.132389
-0.119399
-0.107783
-0.097396
-0.261937
-0.233768
-0.208538
-0.186047
-0.166022
-0.148191
-0.132304
-0.118131
-0.345686
-0.309858
-0.275848
-0.244673
-0.216633
-0.191645
-0.169466
-0.149801
-0.397296
-0.363675
-0.32716
-0.290879
-0.256782
-0.22577
-0.198045
-0.436922
-0.424816
-0.405904
-0.377915
-0.343351
-0.306264
-0.269827
-0.2359
-0.415418
-0.403804
-0.38445
-0.355633
-0.320412
-0.283071
-0.390671
-0.379611
-0.359943
-0.330524
-0.36276
-0.352313
-0.331807
-0.323482
-0.35401
-0.343591
-0.381487
-0.370454
-0.350987
-0.321903
-0.405796
-0.394205
-0.375056
-0.346584
-0.311777
-0.274863
-0.426858
-0.414773
-0.396067
-0.368433
-0.334302
-0.297668
-0.261673
-0.228164
-0.387377
-0.354204
-0.318166
-0.282354
-0.2487
-0.218104
-0.190777
-0.336288
-0.300952
-0.267413
-0.236678
-0.209057
-0.184471
-0.162672
-0.143367
-0.253608
-0.22588
-0.201071
-0.178979
-0.159337
-0.141875
-0.12635
-0.112531
-0.194104
-0.174244
-0.156523
-0.140704
-0.126577
-0.113953
-0.102696
-0.0926708
-0.139831
-0.126955
-0.115417
-0.105095
-0.0956381
-0.0869774
-0.0987082
-0.0897836
-0.0793225
-0.0647907
-0.059779
-0.0515062
-0.0475618
-0.0429994
-0.0388012
-0.0356916
-0.0797783
-0.0725827
-0.0587746
-0.0550563
-0.047435
-0.0441418
-0.0400921
-0.0361115
-0.0332736
-0.0318054
-0.0297785
-0.0269478
-0.0247454
-0.022715
-0.021752
-0.0209079
-0.0194328
-0.0179572
-0.0174866
-0.0179981
-0.0166731
-0.0167965
-0.0153235
-0.021917
-0.0212555
-0.0203592
-0.0190375
-0.0190268
-0.0196346
-0.0191876
-0.0182648
-0.0762868
-0.0704364
-0.0572352
-0.0543456
-0.0474641
-0.0439175
-0.0383984
-0.0352558
-0.0323187
-0.028873
-0.026914
-0.0249206
-0.0235982
-0.0235122
-0.0226668
-0.0217559
-0.0204817
-0.0203682
-0.0207845
-0.0203397
-0.01955
-0.0862259
-0.0770647
-0.0632353
-0.0590454
)
;

boundaryField
{
    inlet
    {
        type            zeroGradient;
    }
    outlet
    {
        type            fixedValue;
        value           nonuniform 0();
    }
    cylinder
    {
        type            zeroGradient;
    }
    top
    {
        type            symmetryPlane;
    }
    bottom
    {
        type            symmetryPlane;
    }
    defaultFaces
    {
        type            empty;
    }
    procBoundary14to13
    {
        type            processor;
        value           nonuniform List<scalar> 
104
(
-0.0877608
-0.0787434
-0.105486
-0.0942349
-0.0877608
-0.0841781
-0.132353
-0.116871
-0.105486
-0.103107
-0.173469
-0.15174
-0.132353
-0.132556
-0.205265
-0.173469
-0.178031
-0.246772
-0.205265
-0.213267
-0.294955
-0.246772
-0.257678
-0.332478
-0.294955
-0.302715
-0.332478
-0.322029
-0.322029
-0.297963
-0.290056
-0.313736
-0.313736
-0.323954
-0.323954
-0.29451
-0.286726
-0.286726
-0.249848
-0.238979
-0.238979
-0.205869
-0.197926
-0.197926
-0.171079
-0.166576
-0.166576
-0.145207
-0.12637
-0.126264
-0.126264
-0.111145
-0.0977142
-0.100235
-0.100235
-0.0893312
-0.0796237
-0.0834201
-0.0834201
-0.0746948
-0.0694998
-0.0655013
-0.0527441
-0.0501612
-0.0433215
-0.0406677
-0.0371734
-0.0333992
-0.0308198
-0.0297833
-0.0280534
-0.0252715
-0.0230728
-0.0210863
-0.0202842
-0.019602
-0.0181025
-0.0165265
-0.016149
-0.016149
-0.0156018
-0.0139569
-0.020317
-0.0198615
-0.0189695
-0.0175736
-0.0176702
-0.0184989
-0.0180474
-0.01696
-0.0661053
-0.0634504
-0.0512406
-0.0494721
-0.0434837
-0.0405003
-0.0353077
-0.0324504
-0.0298546
-0.0265438
-0.0247452
-0.0228856
-0.0217187
-0.0217187
)
;
    }
    procBoundary14to15
    {
        type            processor;
        value           nonuniform List<scalar> 
98
(
-0.114051
-0.158533
-0.145084
-0.132952
-0.122029
-0.112038
-0.112038
-0.215671
-0.195291
-0.177008
-0.1606
-0.1606
-0.27754
-0.249432
-0.22412
-0.22412
-0.361803
-0.326714
-0.293054
-0.293054
-0.413741
-0.381327
-0.381327
-0.455147
-0.442615
-0.424255
-0.424255
-0.44464
-0.432127
-0.413973
-0.413973
-0.403382
-0.37143
-0.37143
-0.351995
-0.317424
-0.284259
-0.284259
-0.26887
-0.241225
-0.216352
-0.216352
-0.208036
-0.188076
-0.170199
-0.154185
-0.154185
-0.152281
-0.139228
-0.127485
-0.116944
-0.107344
-0.107344
-0.109582
-0.0993365
-0.0859655
-0.0708572
-0.064294
-0.0555664
-0.0509204
-0.0458984
-0.0414652
-0.0380775
-0.033818
-0.033818
-0.0315236
-0.0286383
-0.0264093
-0.0243255
-0.0232129
-0.022225
-0.0207654
-0.0193683
-0.0188146
-0.0192019
-0.0180077
-0.0514344
-0.0473094
-0.0414855
-0.0380436
-0.0347772
-0.0311988
-0.0290656
-0.0269331
-0.0254537
-0.0251029
-0.0240913
-0.0231556
-0.0219073
-0.0216966
-0.021945
-0.0214998
-0.0208177
-0.0956817
-0.0836246
-0.069328
-0.0514344
-0.0635244
)
;
    }
}


// ************************************************************************* //
