/*--------------------------------*- C++ -*----------------------------------*\
  =========                 |
  \\      /  F ield         | OpenFOAM: The Open Source CFD Toolbox
   \\    /   O peration     | Website:  https://openfoam.org
    \\  /    A nd           | Version:  7
     \\/     M anipulation  |
\*---------------------------------------------------------------------------*/
FoamFile
{
    version     2.0;
    format      ascii;
    class       volVectorField;
    location    "60";
    object      U;
}
// * * * * * * * * * * * * * * * * * * * * * * * * * * * * * * * * * * * * * //

dimensions      [0 1 -1 0 0 0 0];

internalField   nonuniform List<vector> 
183
(
(1.01111 -0.494912 -1.05908e-22)
(1.02853 -0.355226 4.97884e-24)
(1.0153 -0.494651 -5.46518e-23)
(1.03017 -0.35568 -2.21806e-23)
(1.0193 -0.494221 1.84997e-22)
(1.03161 -0.355964 -2.62957e-23)
(1.02309 -0.493628 -5.30412e-22)
(1.03287 -0.356077 -2.307e-22)
(1.02669 -0.492872 6.06946e-22)
(1.03394 -0.356019 3.60279e-23)
(1.0301 -0.491959 -6.11452e-22)
(1.03483 -0.355786 -1.75712e-22)
(1.0333 -0.49089 5.1818e-22)
(1.03553 -0.355381 6.90922e-24)
(1.03629 -0.48967 4.13101e-22)
(1.03607 -0.354801 -6.04797e-22)
(1.03908 -0.488302 7.44209e-22)
(1.03643 -0.354049 5.11805e-22)
(1.04166 -0.48679 -3.95056e-22)
(1.03663 -0.353127 -4.77009e-22)
(1.04401 -0.485135 5.81955e-22)
(1.03667 -0.352037 9.50796e-22)
(1.04614 -0.483342 -7.79437e-22)
(1.03655 -0.350784 -3.75709e-22)
(1.04803 -0.481413 -3.87452e-22)
(1.03628 -0.349372 -1.0106e-22)
(1.04969 -0.479349 9.609e-22)
(1.03587 -0.347808 -5.29803e-22)
(1.0511 -0.477153 -4.25307e-24)
(1.03533 -0.346099 5.05347e-22)
(1.05227 -0.474826 -9.28268e-22)
(1.03468 -0.344255 -5.84467e-22)
(1.05319 -0.472381 -1.06863e-22)
(1.03392 -0.342287 6.0134e-22)
(1.05389 -0.469839 4.98943e-22)
(1.03306 -0.340203 -1.6755e-22)
(1.05438 -0.467198 4.68148e-22)
(1.03213 -0.338005 -1.78872e-22)
(1.05466 -0.464362 5.57105e-22)
(1.03112 -0.33571 -3.93826e-22)
(0.991501 -0.26912 2.39469e-23)
(1.05478 -0.461157 3.01066e-22)
(1.03003 -0.333396 -1.43912e-22)
(0.989287 -0.265664 -1.19794e-23)
(1.05474 -0.45063 0)
(1.0264 -0.326615 0)
(0.98272 -0.255369 0)
(1.04969 -0.435964 0)
(1.01354 -0.303998 0)
(0.969824 -0.230044 0)
(1.04405 -0.414678 0)
(0.997206 -0.282734 0)
(0.956553 -0.207218 0)
(0.978023 -0.257424 0)
(0.943158 -0.179854 0)
(0.956061 -0.231778 0)
(0.929472 -0.152729 0)
(0.933084 -0.204653 0)
(0.916081 -0.124422 0)
(0.909937 -0.176435 0)
(0.903149 -0.0958743 0)
(0.889356 -0.147519 0)
(0.891542 -0.067593 0)
(0.874651 -0.117753 0)
(0.881823 -0.0403396 0)
(0.869716 -0.0875686 0)
(0.875564 -0.0148103 0)
(0.876995 -0.0576532 0)
(0.876548 0.00919747 0)
(0.895301 -0.0305126 0)
(0.888457 0.0301543 0)
(0.918984 -0.00903694 0)
(0.91052 0.0451172 0)
(0.942747 0.00519388 0)
(0.937494 0.0520202 0)
(0.963889 0.012842 0)
(0.964354 0.0509415 0)
(0.981535 0.0158476 0)
(0.987957 0.0446215 0)
(0.99546 0.0157757 0)
(1.00683 0.0362099 0)
(1.00577 0.0137769 0)
(1.02074 0.0275541 0)
(1.01287 0.0105725 0)
(1.03025 0.0192718 0)
(1.01728 0.00661701 0)
(1.0361 0.0113938 0)
(1.01938 0.00224817 0)
(1.03888 0.00377098 0)
(0.865443 -0.452438 0)
(0.829369 -0.437573 0)
(0.793926 -0.416439 0)
(0.764763 -0.389972 0)
(0.750571 -0.356083 0)
(0.761575 -0.313685 0)
(0.803577 -0.265089 0)
(0.872611 -0.214437 0)
(0.95545 -0.16629 0)
(1.03448 -0.125234 0)
(1.09385 -0.0944317 0)
(1.12639 -0.0736203 0)
(1.13646 -0.0596724 0)
(1.13421 -0.0492446 0)
(1.12755 -0.0403968 0)
(1.11995 -0.0324613 0)
(1.11244 -0.025299 0)
(1.1056 -0.0188542 0)
(1.10001 -0.013019 0)
(1.0961 -0.00764101 0)
(1.09411 -0.00252277 0)
(0.937626 -0.298113 0)
(0.913747 -0.267179 0)
(0.894564 -0.229882 0)
(0.88507 -0.18689 0)
(0.890446 -0.138108 0)
(0.914635 -0.0867622 0)
(0.956762 -0.0374629 0)
(1.0107 0.00461678 0)
(1.06622 0.035353 0)
(1.11235 0.0530704 0)
(1.14115 0.0589615 0)
(1.151 0.0565579 0)
(1.14653 0.0499648 0)
(1.13455 0.0420108 0)
(1.12051 0.0340303 0)
(1.10764 0.026583 0)
(1.09738 0.0199475 0)
(1.08993 0.0142548 0)
(1.08488 0.00946634 0)
(1.08178 0.00539041 0)
(1.0803 0.00174947 0)
(0.958678 -0.278475 0)
(0.947408 -0.255856 0)
(0.941384 -0.225167 0)
(0.942346 -0.188007 0)
(0.952546 -0.144879 0)
(0.973134 -0.100013 0)
(1.00246 -0.057361 0)
(1.0362 -0.0219797 0)
(1.06786 0.00300134 0)
(0.88574 -0.460561 -1.00832e-22)
(0.951922 -0.310925 2.04283e-22)
(0.967379 -0.287417 -5.2312e-23)
(0.892818 -0.463894 -1.12239e-21)
(0.956968 -0.314396 5.48486e-22)
(0.89982 -0.466955 6.67822e-22)
(0.962 -0.317721 6.40884e-23)
(0.906754 -0.469885 1.72758e-22)
(0.966947 -0.320941 2.12215e-22)
(0.913616 -0.472679 1.37677e-21)
(0.971783 -0.32403 2.78887e-22)
(0.920398 -0.475327 -2.15917e-21)
(0.976489 -0.326987 -1.80665e-22)
(0.927093 -0.477825 2.21223e-22)
(0.981052 -0.329812 2.68847e-22)
(0.933691 -0.480167 9.41807e-24)
(0.985464 -0.332504 -4.02638e-22)
(0.940184 -0.482349 -4.69053e-22)
(0.989717 -0.335063 -4.92929e-22)
(0.946563 -0.484366 -1.24755e-21)
(0.993803 -0.337487 -1.68269e-22)
(0.952817 -0.486213 4.93571e-22)
(0.997718 -0.339774 8.93943e-22)
(0.958939 -0.487889 -4.96384e-22)
(1.00146 -0.341923 -1.49597e-22)
(0.964919 -0.48939 6.32107e-22)
(1.00502 -0.34393 8.15218e-22)
(0.970748 -0.490715 -4.30939e-24)
(1.00839 -0.345795 -1.82699e-22)
(0.976418 -0.491862 6.49303e-22)
(1.01159 -0.347513 1.14946e-22)
(0.981922 -0.492831 -7.27226e-22)
(1.01459 -0.349083 1.77614e-22)
(0.987251 -0.49362 9.53683e-22)
(1.0174 -0.350501 -1.48428e-22)
(0.992401 -0.494231 -3.64813e-22)
(1.02002 -0.351766 -3.18506e-22)
(0.997365 -0.494664 -1.15746e-22)
(1.02244 -0.352873 5.96515e-23)
(1.00214 -0.494921 -5.61141e-23)
(1.02466 -0.35382 -3.65268e-24)
(1.00672 -0.495003 -8.09568e-23)
(1.02669 -0.354606 -5.1582e-24)
)
;

boundaryField
{
    inlet
    {
        type            uniformFixedValue;
        uniformValue    constant (1 0 0);
        value           nonuniform 0();
    }
    outlet
    {
        type            pressureInletOutletVelocity;
        value           nonuniform 0();
    }
    cylinder
    {
        type            fixedValue;
        value           nonuniform 0();
    }
    top
    {
        type            symmetryPlane;
    }
    bottom
    {
        type            symmetryPlane;
    }
    defaultFaces
    {
        type            empty;
    }
    procBoundary46to45
    {
        type            processor;
        value           nonuniform List<vector> 
85
(
(1.02774 -0.297242 -2.26368e-23)
(1.03216 -0.29661 2.56916e-22)
(1.03634 -0.295909 -7.0551e-22)
(1.04028 -0.295143 3.72541e-22)
(1.04397 -0.294315 -6.48933e-23)
(1.04744 -0.293427 -8.77462e-22)
(1.05068 -0.292482 1.9799e-21)
(1.05371 -0.291481 -1.31529e-21)
(1.05653 -0.290423 -1.07165e-22)
(1.05917 -0.289308 1.26424e-21)
(1.06162 -0.288133 -2.79196e-21)
(1.06391 -0.286894 2.08678e-21)
(1.06604 -0.285587 -3.00121e-22)
(1.06804 -0.284205 2.22969e-22)
(1.0699 -0.282745 5.42261e-22)
(1.07165 -0.281201 -1.11482e-21)
(1.07329 -0.279562 -1.74978e-22)
(1.07482 -0.277795 -9.91542e-23)
(1.07625 -0.27587 -1.15034e-21)
(1.07757 -0.273889 6.02049e-22)
(1.07878 -0.272174 4.26969e-23)
(1.08221 -0.268343 0)
(1.08538 -0.272241 0)
(1.08669 -0.261639 0)
(1.03596 -0.391718 0)
(1.03596 -0.391718 0)
(1.0269 -0.363267 0)
(1.01751 -0.331737 0)
(1.00833 -0.295904 0)
(1.0006 -0.257503 0)
(0.99495 -0.216809 0)
(0.991514 -0.176127 0)
(0.989215 -0.137976 0)
(0.986836 -0.104592 0)
(0.98482 -0.0769487 0)
(0.985233 -0.0550992 0)
(0.98909 -0.038178 0)
(0.995523 -0.0254686 0)
(1.0027 -0.0163684 0)
(1.00916 -0.0101443 0)
(1.01417 -0.00597607 0)
(1.01751 -0.00311726 0)
(1.01916 -0.000966164 0)
(0.8655 -0.285967 0)
(0.827484 -0.283921 0)
(0.790264 -0.279604 0)
(0.756005 -0.274726 0)
(0.731936 -0.266834 0)
(0.728473 -0.251823 0)
(0.754449 -0.227402 0)
(0.810345 -0.193469 0)
(0.887414 -0.1529 0)
(0.970367 -0.11217 0)
(1.04054 -0.0783425 0)
(1.08357 -0.0548617 0)
(1.09845 -0.0406277 0)
(1.0954 -0.0321747 0)
(1.08575 -0.0263639 0)
(1.07626 -0.0214745 0)
(1.06926 -0.0169432 0)
(1.0648 -0.0127099 0)
(1.06216 -0.00879185 0)
(1.06071 -0.00513767 0)
(1.06005 -0.00168198 0)
(0.888228 -0.28715 -6.70342e-22)
(0.895976 -0.288923 6.69573e-22)
(0.903745 -0.290448 -3.08109e-22)
(0.911491 -0.291806 1.69318e-21)
(0.919191 -0.293068 1.54407e-21)
(0.926828 -0.294224 -2.21555e-21)
(0.934384 -0.295266 1.3571e-21)
(0.941842 -0.296191 -2.12056e-21)
(0.949183 -0.296997 6.98119e-23)
(0.956391 -0.297681 2.35182e-21)
(0.96345 -0.298244 -3.48632e-21)
(0.970345 -0.298687 3.09625e-21)
(0.977063 -0.299012 1.4193e-21)
(0.983588 -0.299221 -1.57239e-21)
(0.989911 -0.299318 2.31396e-21)
(0.99602 -0.299307 -2.19009e-21)
(1.0019 -0.299193 3.28027e-22)
(1.00756 -0.29898 1.88524e-22)
(1.01297 -0.298673 -8.688e-22)
(1.01814 -0.298278 3.15284e-22)
(1.02307 -0.297799 2.26197e-23)
)
;
    }
    procBoundary46to47
    {
        type            processor;
        value           nonuniform List<vector> 
87
(
(1.01548 -0.306388 -4.61349e-23)
(1.01584 -0.305688 7.86613e-23)
(1.01597 -0.304861 -1.46648e-22)
(1.01588 -0.303903 1.65117e-22)
(1.01558 -0.302814 1.78652e-22)
(1.01506 -0.30159 -6.61302e-22)
(1.01434 -0.300229 5.59776e-22)
(1.01341 -0.298729 4.53637e-22)
(1.0123 -0.297088 -1.43284e-21)
(1.01101 -0.295301 2.71436e-22)
(1.00955 -0.293368 4.58021e-22)
(1.00793 -0.291287 2.77241e-22)
(1.00617 -0.289055 -5.28556e-22)
(1.00429 -0.286671 -6.39327e-23)
(1.0023 -0.284134 7.34152e-22)
(1.00022 -0.281443 5.95684e-23)
(0.998088 -0.278601 -6.38438e-22)
(0.995911 -0.275607 -2.1468e-22)
(0.993712 -0.272452 1.0038e-22)
(0.993712 -0.272452 1.0038e-22)
(0.949066 -0.0710988 3.14281e-23)
(0.944015 -0.0670819 3.69497e-22)
(0.92913 -0.0538662 0)
(0.904072 -0.0225912 0)
(0.879969 0.00747307 0)
(0.855925 0.040519 0)
(0.832106 0.0735225 0)
(0.808606 0.107253 0)
(0.786367 0.140746 0)
(0.768426 0.172482 0)
(0.758734 0.200127 0)
(0.760524 0.220717 0)
(0.777057 0.230815 0)
(0.812302 0.227852 0)
(0.865469 0.212066 0)
(0.924815 0.186013 0)
(0.974919 0.154241 0)
(1.00831 0.122101 0)
(1.0273 0.0930173 0)
(1.03765 0.0678413 0)
(1.04358 0.0460524 0)
(1.04703 0.0266865 0)
(1.04865 0.00873986 0)
(1.0913 0.0163816 0)
(1.10343 0.019829 0)
(1.1055 0.016803 0)
(1.10169 0.0111299 0)
(1.09611 0.00556341 0)
(1.0911 0.00148679 0)
(1.08733 -0.000815429 0)
(1.08462 -0.00171888 0)
(1.08262 -0.00177343 0)
(1.08112 -0.00140888 0)
(1.08008 -0.000884191 0)
(1.07954 -0.000301913 0)
(1.02498 -0.118156 0)
(1.03019 -0.0980344 0)
(1.03827 -0.0760815 0)
(1.04989 -0.0504449 0)
(1.06541 -0.0245529 0)
(1.08395 0.000156923 0)
(1.1039 0.020805 0)
(1.12225 0.0357206 0)
(1.0913 0.0163816 0)
(1.136 0.0441279 0)
(1.02361 -0.125428 -6.18653e-23)
(0.970437 -0.290199 1.76293e-22)
(0.970437 -0.290199 1.76293e-22)
(0.973558 -0.292763 -1.56243e-22)
(0.976706 -0.295088 -5.94512e-24)
(0.979851 -0.297181 -3.28211e-22)
(0.982971 -0.299055 1.40266e-22)
(0.986045 -0.300721 3.2942e-22)
(0.989054 -0.302189 -6.68388e-23)
(0.991978 -0.303471 -4.64238e-22)
(0.994799 -0.304575 1.98133e-22)
(0.997499 -0.305511 2.80723e-22)
(1.00006 -0.306286 1.94446e-22)
(1.00247 -0.306909 -8.44477e-22)
(1.00472 -0.307385 3.62325e-22)
(1.00678 -0.30772 3.64273e-22)
(1.00866 -0.307918 -3.4203e-22)
(1.01033 -0.307984 1.99073e-22)
(1.0118 -0.307919 1.15976e-22)
(1.01305 -0.307726 -9.00473e-23)
(1.01409 -0.307406 7.56838e-23)
(1.01489 -0.30696 -4.60256e-23)
)
;
    }
}


// ************************************************************************* //
