/*--------------------------------*- C++ -*----------------------------------*\
  =========                 |
  \\      /  F ield         | OpenFOAM: The Open Source CFD Toolbox
   \\    /   O peration     | Website:  https://openfoam.org
    \\  /    A nd           | Version:  7
     \\/     M anipulation  |
\*---------------------------------------------------------------------------*/
FoamFile
{
    version     2.0;
    format      ascii;
    class       surfaceScalarField;
    location    "50";
    object      phi;
}
// * * * * * * * * * * * * * * * * * * * * * * * * * * * * * * * * * * * * * //

dimensions      [0 3 -1 0 0 0 0];

internalField   nonuniform List<scalar> 
1657
(
8.12411e-05
-1.41295e-05
4.45882e-12
9.557e-05
-1.4329e-05
3.67386e-12
0.000110068
-1.44984e-05
2.83449e-12
0.000124709
-1.46403e-05
1.94805e-12
0.000139466
-1.47571e-05
1.02262e-12
-1.48507e-05
7.18852e-14
8.46808e-05
-2.82289e-05
9.89779e-05
-2.86261e-05
0.000113443
-2.89634e-05
0.000128049
-2.9246e-05
0.00014277
-2.94783e-05
-2.96647e-05
9.15378e-05
0.000105771
-4.28594e-05
0.000120169
-4.33616e-05
0.000134705
-4.37821e-05
0.000149355
-4.41279e-05
-4.44052e-05
0.000115904
-5.69969e-05
0.000130202
-5.76594e-05
0.000144634
-5.82141e-05
0.000159176
-5.86701e-05
-5.90357e-05
0.00012931
-7.10063e-05
0.000143474
-7.18233e-05
0.000157767
-7.25071e-05
0.000172166
-7.30691e-05
-7.35195e-05
0.000145899
-8.4855e-05
0.000159895
-8.58193e-05
0.000174014
-8.66263e-05
0.000188235
-8.72892e-05
-8.78202e-05
0.000165561
-9.85102e-05
0.000179356
-9.96135e-05
0.000193266
-0.000100537
0.000207272
-0.000101295
-0.000101902
0.000188166
-0.000111938
0.000201724
-0.000113172
0.000215391
-0.000114204
0.000229147
-0.000115051
-0.000115728
0.000213563
-0.000125106
0.00022685
-0.00012646
0.000240239
-0.000127592
0.000253709
-0.000128521
-0.000129264
0.000241583
-0.000137979
0.000254565
-0.000139442
0.00026764
-0.000140667
0.00028079
-0.000141671
-0.000142474
0.00027204
-0.000150523
0.000284683
-0.000152086
0.000297409
-0.000153393
0.000310204
-0.000154466
0.000323054
-0.000155324
-0.000155984
0.000304732
0.000317
-0.000164354
0.000329344
-0.000165737
0.000341749
-0.000166871
0.000354204
-0.000167778
-0.000168476
0.0003513
-0.000176213
0.000363226
-0.000177663
0.000375208
-0.000178854
0.000387235
-0.000179805
-0.000180538
0.00038735
-0.000187629
0.000398826
-0.000189139
0.000410351
-0.000190379
0.000421918
-0.000191372
-0.000192138
0.000424909
-0.000198566
0.0004359
-0.00020013
0.000446937
-0.000201416
0.000458012
-0.000202448
-0.000203244
0.000463721
0.000474195
-0.000210604
0.000484713
-0.000211934
0.000495267
-0.000213002
0.000505852
-0.000213829
-0.000214433
0.00051345
-0.000220531
0.000523418
-0.000221902
0.000533422
-0.000223007
0.000543459
-0.000223865
-0.000224496
0.000553393
-0.000229879
0.000562784
-0.000231292
0.000572212
-0.000232435
0.000581675
-0.000233328
-0.00023399
0.000593751
-0.000238623
0.000602538
-0.000240079
0.000611367
-0.000241264
0.000620233
-0.000242195
-0.000242892
0.000634244
0.000642404
-0.000248239
0.00065061
-0.00024947
0.000658861
-0.000250446
0.000667153
-0.000251184
-0.000251701
0.000682102
-0.000255751
0.000689667
-0.000257035
0.000697284
-0.000258063
0.000704952
-0.000258852
-0.000259416
0.000721353
-0.000262596
0.000728262
-0.000263944
0.000735232
-0.000265033
0.000742262
-0.000265882
-0.000266504
0.000759881
0.00076612
-0.000270183
0.000772433
-0.000271346
0.000778817
-0.000272266
0.00078527
-0.000272958
-0.000273435
0.000802973
-0.000275744
0.000808622
-0.000276994
0.000814355
-0.000277999
0.00082017
-0.000278773
-0.00027933
0.000838557
-0.000280623
0.000843538
-0.000281975
0.000848619
-0.00028308
0.000853797
-0.000283951
-0.000284602
0.000872617
0.000876933
-0.000286291
0.000881365
-0.000287511
0.000885909
-0.000288496
0.000890563
-0.000289256
-0.000289805
0.000908564
-0.000289947
0.000912353
-0.000291301
0.000916273
-0.000292415
0.000920318
-0.000293301
-0.000293971
0.000938182
0.000941341
-0.00029446
0.000944648
-0.000295722
0.000948098
-0.000296751
-0.000297559
0.000968109
-0.000297004
0.000970819
-0.000298433
0.00097369
-0.000299622
0.000976717
-0.000300585
-0.000301332
0.00099258
-0.000298952
0.000994714
-0.000300566
0.000997027
-0.000301935
0.000999513
-0.000303071
-0.000303983
0.00337939
-0.000298922
0.00337963
-0.000300812
0.00338015
-0.000302453
0.00338093
-0.000303853
-0.000305025
0.00369991
-0.000295145
0.0036965
-0.000297406
0.00369346
-0.000299406
0.00369076
-0.000301155
-0.000302664
0.00402137
-0.000287686
0.00401437
-0.000290408
0.00400781
-0.000292851
0.00400169
-0.000295028
-0.000296951
0.00433882
-0.000276758
0.00432842
-0.000280015
0.00431855
-0.000282975
0.00430917
-0.000285649
-0.00028805
0.0046476
-0.000262707
0.00463414
-0.000266556
0.00462125
-0.000270084
0.0046089
-0.000273307
-0.000276237
0.00494346
-0.00024599
0.00492736
-0.000250461
0.00491187
-0.00025459
0.00489695
-0.000258391
-0.000261881
0.00522273
-0.000227144
0.00520451
-0.00023224
0.00518689
-0.000236975
0.00516986
-0.000241363
-0.000245421
0.00548241
-0.000206749
0.00546262
-0.000212447
0.00544341
-0.000217768
0.00542478
-0.000222728
-0.000227341
0.0057203
-0.000185389
0.0056995
-0.000191645
0.00567924
-0.000197512
0.00565952
-0.000203006
-0.000208143
0.00593497
-0.000163623
0.0059137
-0.000170372
0.00589291
-0.000176728
0.00587261
-0.000182705
-0.000188317
0.00612576
-0.000141956
0.00610451
-0.000149125
0.00608368
-0.0001559
0.00606327
-0.000162294
-0.000168322
0.00629271
-0.000120824
0.00627191
-0.000128331
0.00625146
-0.000135448
0.00623136
-0.000142188
-0.000148564
0.00643648
-0.000100582
0.00641649
-0.000108346
0.00639677
-0.000115727
0.00637732
-0.000122737
-0.00012939
0.00655821
-8.15031e-05
0.00653931
-8.94424e-05
0.00652059
-9.70106e-05
0.00650208
-0.000104219
-0.000111077
0.00665944
-6.37787e-05
0.00664182
-7.18194e-05
0.00662431
-7.95027e-05
0.00660693
-8.68382e-05
-9.38356e-05
0.00674194
-4.75278e-05
0.00672573
-5.56028e-05
0.00670956
-6.33358e-05
0.00669346
-7.07351e-05
-7.78093e-05
0.00680764
-3.28051e-05
0.0067929
-4.0856e-05
0.00677814
-4.85811e-05
0.00676339
-5.59878e-05
-6.30837e-05
0.00685853
-1.96126e-05
0.00684526
-2.75897e-05
0.00683194
-3.52578e-05
0.00681857
-4.26234e-05
-4.96929e-05
0.00689655
-7.91024e-06
0.00688473
-1.57728e-05
0.00687282
-2.33433e-05
0.00686082
-3.0627e-05
-3.76298e-05
0.00692357
2.37271e-06
0.00691314
-5.34278e-06
0.00690258
-1.27826e-05
0.00689191
-1.99515e-05
-2.68544e-05
0.00694134
1.13281e-05
0.00693221
3.78493e-06
0.00692293
-3.49861e-06
0.0069135
-1.05265e-05
-1.73031e-05
0.00695143
1.90603e-05
0.0069435
1.17082e-05
0.00693541
4.60044e-06
0.00692715
-2.26646e-06
-8.89606e-06
0.00695524
2.56792e-05
0.00694841
1.85316e-05
0.0069414
1.16137e-05
0.00693421
4.92264e-06
-1.54458e-06
0.00695399
3.12945e-05
0.00694816
2.43604e-05
0.00694213
1.76422e-05
0.00693592
1.11375e-05
4.8439e-06
0.00694874
3.60119e-05
0.00694381
2.92968e-05
0.00693866
2.27847e-05
0.00693333
1.64736e-05
1.03613e-05
0.00694038
3.99302e-05
0.00693624
3.34372e-05
0.00693189
2.71349e-05
0.00692734
2.10218e-05
1.50959e-05
0.00692965
4.31399e-05
0.00692622
3.687e-05
0.00692257
3.07793e-05
0.00691873
2.48665e-05
1.91301e-05
0.00691715
4.57221e-05
0.00691435
3.9675e-05
0.00691133
3.37962e-05
0.00690811
2.80847e-05
2.25394e-05
0.00690339
4.77487e-05
0.00690114
4.19232e-05
0.00689868
3.62556e-05
0.00689602
3.07454e-05
2.53916e-05
0.00688877
4.92828e-05
0.00688701
4.3677e-05
0.00688505
3.82194e-05
0.00688288
3.29097e-05
2.77471e-05
0.0068736
5.03792e-05
0.00687228
4.49908e-05
0.00687076
3.97415e-05
0.00686904
3.46311e-05
2.96591e-05
0.00685814
5.10853e-05
0.00685722
4.5912e-05
0.00685609
4.0869e-05
0.00685476
3.59564e-05
3.11739e-05
0.00684259
5.1442e-05
0.00684202
4.64813e-05
0.00684124
4.16427e-05
0.00684027
3.69262e-05
3.2332e-05
0.00682711
5.1485e-05
0.00682685
4.67343e-05
0.0068264
4.20978e-05
0.00682575
3.75759e-05
3.31685e-05
0.00681182
5.12448e-05
0.00681185
4.67017e-05
0.00681168
4.22653e-05
0.00681132
3.7936e-05
3.37142e-05
0.00679682
5.07484e-05
0.00679711
4.64103e-05
0.0067972
4.21718e-05
0.0067971
3.80336e-05
3.39958e-05
0.00678218
5.00192e-05
0.00678271
4.58837e-05
0.00678304
4.18411e-05
0.00678318
3.7892e-05
3.40369e-05
0.00676797
4.90781e-05
0.00676871
4.51427e-05
0.00676926
4.12939e-05
0.00676962
3.75323e-05
3.38583e-05
0.00675423
4.79434e-05
0.00675516
4.42058e-05
0.00675591
4.05488e-05
0.00675647
3.69728e-05
3.34786e-05
0.00674099
4.66318e-05
0.00674211
4.30897e-05
0.00674303
3.96224e-05
0.00674378
3.62304e-05
3.29145e-05
0.00672829
4.51583e-05
0.00672957
4.18094e-05
0.00673067
3.85298e-05
0.00673158
3.53201e-05
3.2181e-05
0.00671616
4.35365e-05
0.00671759
4.03786e-05
0.00671883
3.72848e-05
0.0067199
3.42557e-05
3.1292e-05
0.0067046
4.1779e-05
0.00670617
3.88099e-05
0.00670755
3.58999e-05
0.00670876
3.30497e-05
3.02601e-05
0.00669363
3.98973e-05
0.00669533
3.71149e-05
0.00669684
3.43869e-05
0.00669818
3.1714e-05
2.90969e-05
0.00668327
3.79021e-05
0.00668508
3.53044e-05
0.00668671
3.27566e-05
0.00668817
3.02594e-05
2.78135e-05
0.00667353
3.58034e-05
0.00667545
3.33884e-05
0.00667718
3.1019e-05
0.00667875
2.8696e-05
2.642e-05
0.00666441
3.36105e-05
0.00666642
3.13764e-05
0.00666826
2.91837e-05
0.00666992
2.70334e-05
2.4926e-05
0.00665593
3.13322e-05
0.00665803
2.92771e-05
0.00665995
2.72597e-05
0.0066617
2.52806e-05
2.33405e-05
0.00664808
2.89768e-05
0.00665026
2.70991e-05
0.00665226
2.52554e-05
0.00665409
2.34463e-05
2.16723e-05
0.00664087
2.65521e-05
0.00664312
2.48503e-05
0.0066452
2.31788e-05
0.0066471
2.15384e-05
1.99295e-05
0.00663431
2.40656e-05
0.00663662
2.25382e-05
0.00663876
2.10377e-05
0.00664074
1.95648e-05
0.00664255
1.81199e-05
1.67034e-05
0.0066284
2.15244e-05
0.00663077
2.01701e-05
0.00663297
1.88394e-05
0.006635
1.7533e-05
0.00663687
1.62511e-05
1.49943e-05
0.00662314
1.89353e-05
0.00662556
1.7753e-05
0.00662781
1.65911e-05
0.00662989
1.54501e-05
0.00663181
1.43305e-05
1.32325e-05
0.00661854
1.6305e-05
0.006621
1.52935e-05
0.00662329
1.42995e-05
0.00662542
1.33231e-05
0.00662738
1.23649e-05
1.14251e-05
0.00661459
1.36398e-05
0.00661708
1.27983e-05
0.00661941
1.19712e-05
0.00662158
1.11588e-05
0.00662358
1.03613e-05
9.57907e-06
0.0066113
1.09458e-05
0.00661382
1.02736e-05
0.00661618
9.61276e-06
0.00661837
8.96359e-06
0.00662041
8.32631e-06
7.70113e-06
0.00660866
8.22909e-06
0.00661121
7.72546e-06
0.00661359
7.23034e-06
0.00661581
6.74391e-06
0.00661787
6.26637e-06
5.79785e-06
0.00660669
5.49541e-06
0.00660925
5.15992e-06
0.00661165
4.83008e-06
0.00661389
4.50601e-06
0.00661597
4.18784e-06
3.87568e-06
0.00660537
2.7505e-06
0.00660794
2.58283e-06
0.00661036
2.41799e-06
0.00661261
2.25602e-06
0.0066147
2.097e-06
1.94096e-06
0.00660471
0.00660729
0.00660971
0.00661197
0.00661406
-0.000298922
0.00337939
0.000298952
-0.000295145
0.00369991
-0.000287686
0.00402137
-0.000276758
0.00433882
-0.000262707
0.0046476
-0.00024599
0.00494346
-0.000227144
0.00522273
-0.000206749
0.00548241
-0.000185389
0.0057203
-0.000163623
0.00593497
-0.000141956
0.00612576
-0.000120824
0.00629271
-0.000100582
0.00643648
-8.15031e-05
0.00655821
-6.37787e-05
0.00665944
-4.75278e-05
0.00674194
-3.28051e-05
0.00680764
-1.96126e-05
0.00685853
-7.91025e-06
0.00689655
2.3727e-06
0.00692357
1.13281e-05
0.00694134
1.90603e-05
0.00695143
2.56792e-05
0.00695524
3.12945e-05
0.00695399
3.60118e-05
0.00694874
3.99302e-05
0.00694038
4.31398e-05
0.00692965
4.57221e-05
0.00691715
4.77487e-05
0.00690339
4.92828e-05
0.00688877
5.03792e-05
0.0068736
5.10853e-05
0.00685814
5.1442e-05
0.00684259
5.1485e-05
0.00682711
5.12448e-05
0.00681182
5.07484e-05
0.00679682
5.00192e-05
0.00678218
4.90781e-05
0.00676797
4.79434e-05
0.00675423
4.66318e-05
0.00674099
4.51583e-05
0.00672829
4.35365e-05
0.00671616
4.1779e-05
0.0067046
3.98973e-05
0.00669363
3.79021e-05
0.00668327
3.58034e-05
0.00667353
3.36105e-05
0.00666441
3.13322e-05
0.00665593
2.89768e-05
0.00664808
2.65521e-05
0.00664087
2.40656e-05
0.00663431
2.15244e-05
0.0066284
1.89353e-05
0.00662314
1.6305e-05
0.00661854
1.36398e-05
0.00661459
1.09458e-05
0.0066113
8.22909e-06
0.00660866
5.49541e-06
0.00660669
2.7505e-06
0.00660537
0.00660471
-0.000300812
0.00337964
0.000300566
-0.000297406
0.0036965
-0.000290408
0.00401437
-0.000280015
0.00432842
-0.000266556
0.00463414
-0.000250461
0.00492736
-0.00023224
0.00520451
-0.000212447
0.00546262
-0.000191645
0.0056995
-0.000170372
0.0059137
-0.000149125
0.00610451
-0.000128331
0.00627191
-0.000108346
0.00641649
-8.94424e-05
0.00653931
-7.18195e-05
0.00664182
-5.56029e-05
0.00672573
-4.0856e-05
0.0067929
-2.75897e-05
0.00684526
-1.57728e-05
0.00688473
-5.34279e-06
0.00691314
3.78492e-06
0.00693221
1.17082e-05
0.0069435
1.85316e-05
0.00694841
2.43604e-05
0.00694816
2.92968e-05
0.00694381
3.34372e-05
0.00693624
3.687e-05
0.00692622
3.9675e-05
0.00691435
4.19232e-05
0.00690114
4.3677e-05
0.00688701
4.49908e-05
0.00687228
4.5912e-05
0.00685722
4.64813e-05
0.00684202
4.67343e-05
0.00682685
4.67017e-05
0.00681185
4.64103e-05
0.00679711
4.58837e-05
0.00678271
4.51427e-05
0.00676871
4.42058e-05
0.00675516
4.30897e-05
0.00674211
4.18094e-05
0.00672957
4.03786e-05
0.00671759
3.88099e-05
0.00670617
3.71149e-05
0.00669533
3.53044e-05
0.00668508
3.33884e-05
0.00667545
3.13764e-05
0.00666642
2.92771e-05
0.00665803
2.70991e-05
0.00665026
2.48503e-05
0.00664312
2.25382e-05
0.00663662
2.01701e-05
0.00663077
1.7753e-05
0.00662556
1.52935e-05
0.006621
1.27983e-05
0.00661708
1.02736e-05
0.00661382
7.72546e-06
0.00661121
5.15992e-06
0.00660925
2.58283e-06
0.00660794
0.00660729
-0.000302453
0.00338015
0.000301935
-0.000299406
0.00369346
-0.000292851
0.00400781
-0.000282975
0.00431855
-0.000270084
0.00462125
-0.00025459
0.00491187
-0.000236975
0.00518689
-0.000217768
0.00544341
-0.000197512
0.00567924
-0.000176728
0.00589291
-0.0001559
0.00608368
-0.000135448
0.00625146
-0.000115727
0.00639677
-9.70106e-05
0.00652059
-7.95027e-05
0.00662431
-6.33358e-05
0.00670956
-4.85811e-05
0.00677814
-3.52579e-05
0.00683194
-2.33433e-05
0.00687282
-1.27826e-05
0.00690258
-3.49862e-06
0.00692293
4.60043e-06
0.00693541
1.16137e-05
0.0069414
1.76422e-05
0.00694213
2.27847e-05
0.00693866
2.71349e-05
0.00693189
3.07793e-05
0.00692257
3.37962e-05
0.00691133
3.62556e-05
0.00689868
3.82194e-05
0.00688505
3.97415e-05
0.00687076
4.0869e-05
0.00685609
4.16427e-05
0.00684124
4.20978e-05
0.0068264
4.22653e-05
0.00681168
4.21718e-05
0.0067972
4.18411e-05
0.00678304
4.12939e-05
0.00676926
4.05488e-05
0.00675591
3.96224e-05
0.00674303
3.85298e-05
0.00673067
3.72848e-05
0.00671883
3.58999e-05
0.00670755
3.43869e-05
0.00669684
3.27566e-05
0.00668671
3.1019e-05
0.00667718
2.91837e-05
0.00666826
2.72597e-05
0.00665995
2.52554e-05
0.00665226
2.31788e-05
0.0066452
2.10377e-05
0.00663876
1.88394e-05
0.00663297
1.65911e-05
0.00662781
1.42995e-05
0.00662329
1.19712e-05
0.00661941
9.61276e-06
0.00661618
7.23034e-06
0.00661359
4.83008e-06
0.00661165
2.41799e-06
0.00661036
0.00660971
-0.000303853
0.00338094
0.000303071
-0.000301155
0.00369076
-0.000295028
0.00400169
-0.000285649
0.00430917
-0.000273307
0.0046089
-0.000258391
0.00489695
-0.000241363
0.00516986
-0.000222728
0.00542478
-0.000203006
0.00565952
-0.000182705
0.00587261
-0.000162294
0.00606327
-0.000142188
0.00623136
-0.000122737
0.00637732
-0.000104219
0.00650208
-8.68382e-05
0.00660693
-7.07351e-05
0.00669346
-5.59878e-05
0.00676339
-4.26234e-05
0.00681857
-3.0627e-05
0.00686082
-1.99515e-05
0.00689191
-1.05265e-05
0.0069135
-2.26647e-06
0.00692715
4.92263e-06
0.00693421
1.11375e-05
0.00693592
1.64736e-05
0.00693333
2.10217e-05
0.00692734
2.48665e-05
0.00691873
2.80847e-05
0.00690811
3.07454e-05
0.00689602
3.29097e-05
0.00688288
3.46311e-05
0.00686904
3.59564e-05
0.00685476
3.69262e-05
0.00684027
3.75759e-05
0.00682575
3.7936e-05
0.00681132
3.80336e-05
0.0067971
3.7892e-05
0.00678318
3.75323e-05
0.00676962
3.69728e-05
0.00675647
3.62304e-05
0.00674378
3.53201e-05
0.00673158
3.42557e-05
0.0067199
3.30497e-05
0.00670876
3.1714e-05
0.00669818
3.02594e-05
0.00668817
2.8696e-05
0.00667875
2.70334e-05
0.00666992
2.52806e-05
0.0066617
2.34463e-05
0.00665409
2.15384e-05
0.0066471
1.95648e-05
0.00664074
1.7533e-05
0.006635
1.54501e-05
0.00662989
1.33231e-05
0.00662542
1.11588e-05
0.00662158
8.96359e-06
0.00661837
6.74391e-06
0.00661581
4.50601e-06
0.00661389
2.25602e-06
0.00661261
0.00661197
-0.000305025
0.000303983
-0.000302664
-0.000296951
-0.00028805
-0.000276237
-0.000261881
-0.000245421
-0.000227341
-0.000208143
-0.000188317
-0.000168322
-0.000148564
-0.00012939
-0.000111077
-9.38356e-05
-7.78094e-05
-6.30837e-05
-4.96929e-05
-3.76298e-05
-2.68544e-05
-1.73031e-05
-8.89607e-06
-1.54459e-06
4.84389e-06
1.03613e-05
1.50959e-05
1.91301e-05
2.25394e-05
2.53916e-05
2.77471e-05
2.96591e-05
3.11739e-05
3.23319e-05
3.31685e-05
3.37142e-05
3.39958e-05
3.40369e-05
3.38583e-05
3.34786e-05
3.29145e-05
3.2181e-05
3.1292e-05
3.02601e-05
2.90969e-05
2.78135e-05
2.642e-05
2.4926e-05
2.33405e-05
2.16723e-05
1.99295e-05
1.81199e-05
1.62511e-05
1.43305e-05
1.23649e-05
1.03613e-05
8.32631e-06
6.26637e-06
4.18784e-06
2.097e-06
0.00099258
0.000297004
0.000994714
0.000298433
0.000997027
0.000299622
0.000999513
0.000300585
0.000301332
0.000968109
0.00029446
0.000970819
0.000295722
0.00097369
0.000296751
0.000976717
0.000297559
0.000938182
0.000289947
0.000941341
0.000291301
0.000944648
0.000292415
0.000948098
0.000293301
0.000293971
0.000908564
0.000286291
0.000912353
0.000287511
0.000916273
0.000288496
0.000920318
0.000289256
0.000289805
0.000872617
0.000280623
0.000876933
0.000281975
0.000881365
0.00028308
0.000885909
0.000283951
0.000890563
0.000284602
0.000838557
0.000275744
0.000843538
0.000276994
0.000848619
0.000277999
0.000853797
0.000278773
0.00027933
0.000802973
0.000270183
0.000808622
0.000271346
0.000814355
0.000272266
0.00082017
0.000272958
0.000273435
0.000759881
0.000262596
0.00076612
0.000263944
0.000772433
0.000265033
0.000778817
0.000265882
0.00078527
0.000266504
0.000721353
0.000255751
0.000728262
0.000257035
0.000735232
0.000258063
0.000742262
0.000258852
0.000259416
0.000682102
0.000248239
0.000689667
0.00024947
0.000697284
0.000250446
0.000704952
0.000251184
0.000251701
0.000634244
0.000238623
0.000642404
0.000240079
0.00065061
0.000241264
0.000658861
0.000242195
0.000667153
0.000242892
0.000593751
0.000229879
0.000602538
0.000231292
0.000611367
0.000232435
0.000620233
0.000233328
0.00023399
0.000553393
0.000220531
0.000562784
0.000221902
0.000572212
0.000223007
0.000581675
0.000223865
0.000224496
0.00051345
0.000210604
0.000523418
0.000211934
0.000533422
0.000213002
0.000543459
0.000213829
0.000214433
0.000463721
0.000198566
0.000474195
0.00020013
0.000484713
0.000201416
0.000495267
0.000202448
0.000505852
0.000203244
0.000424909
0.000187629
0.0004359
0.000189139
0.000446937
0.000190379
0.000458012
0.000191372
0.000192138
0.00038735
0.000176213
0.000398826
0.000177663
0.000410351
0.000178854
0.000421918
0.000179805
0.000180538
0.0003513
0.000164354
0.000363226
0.000165737
0.000375208
0.000166871
0.000387235
0.000167778
0.000168476
0.000304732
0.000150523
0.000317
0.000152086
0.000329344
0.000153393
0.000341749
0.000154466
0.000354204
0.000155324
0.000155984
0.00027204
0.000137979
0.000284683
0.000139442
0.000297409
0.000140667
0.000310204
0.000141671
0.000323054
0.000142474
0.000241583
0.000125106
0.000254565
0.00012646
0.00026764
0.000127592
0.00028079
0.000128521
0.000129264
0.000213563
0.000111938
0.00022685
0.000113172
0.000240239
0.000114204
0.000253709
0.000115051
0.000115728
0.000188166
9.85102e-05
0.000201724
9.96135e-05
0.000215391
0.000100537
0.000229147
0.000101295
0.000101902
0.000165561
8.4855e-05
0.000179356
8.58193e-05
0.000193266
8.66263e-05
0.000207272
8.72892e-05
8.78202e-05
0.000145899
7.10063e-05
0.000159895
7.18233e-05
0.000174014
7.25071e-05
0.000188235
7.30691e-05
7.35195e-05
0.00012931
5.69969e-05
0.000143474
5.76594e-05
0.000157767
5.82141e-05
0.000172166
5.86701e-05
5.90357e-05
0.000115904
4.28594e-05
0.000130202
4.33616e-05
0.000144634
4.37821e-05
0.000159176
4.41279e-05
4.44052e-05
9.15378e-05
2.82289e-05
0.000105771
2.86261e-05
0.000120169
2.89634e-05
0.000134705
2.9246e-05
0.000149355
2.94783e-05
2.96647e-05
8.46808e-05
1.41295e-05
9.89779e-05
1.43289e-05
0.000113443
1.44984e-05
0.000128049
1.46403e-05
0.00014277
1.47571e-05
1.48507e-05
8.12411e-05
9.557e-05
0.000110068
0.000124709
0.000139466
)
;

boundaryField
{
    inlet
    {
        type            calculated;
        value           nonuniform 0();
    }
    outlet
    {
        type            calculated;
        value           nonuniform 0();
    }
    cylinder
    {
        type            calculated;
        value           nonuniform 0();
    }
    top
    {
        type            symmetryPlane;
        value           uniform 0;
    }
    bottom
    {
        type            symmetryPlane;
        value           uniform 0;
    }
    defaultFaces
    {
        type            empty;
        value           nonuniform 0();
    }
    procBoundary23to22
    {
        type            processor;
        value           nonuniform List<scalar> 
194
(
-6.71116e-05
-7.05814e-05
-7.74985e-05
-4.22682e-05
-0.000101767
-0.000115301
-0.00013205
-0.000151906
-0.000174738
-0.000200395
-0.00022871
-0.000259496
-0.000292552
-0.000162702
-0.00033944
-0.000375935
-0.000413972
-0.000453295
-0.000208991
-0.000503523
-0.000544044
-0.000585008
-0.000626132
-0.000246735
-0.00067459
-0.000714508
-0.000753716
-0.000268761
-0.000797412
-0.000833678
-0.00086842
-0.00028482
-0.000904908
-0.000935175
-0.000292954
-0.000965565
-0.000990632
-0.00337942
-0.00370368
-0.00402883
-0.00434974
-0.00466165
-0.00496018
-0.00524157
-0.00550281
-0.00574166
-0.00595674
-0.00614742
-0.00631384
-0.00645672
-0.00657729
-0.00667717
-0.00675819
-0.00682237
-0.00687172
-0.00690825
-0.00693386
-0.0069503
-0.00695916
-0.00696185
-0.00695961
-0.00695346
-0.0069443
-0.00693286
-0.00691973
-0.00690542
-0.0068903
-0.00687469
-0.00685884
-0.00684294
-0.00682715
-0.00681158
-0.00679632
-0.00678145
-0.00676703
-0.00675309
-0.00673968
-0.00672682
-0.00671453
-0.00670284
-0.00669175
-0.00668128
-0.00667143
-0.00666222
-0.00665365
-0.00664572
-0.00663845
-0.00663182
-0.00662586
-0.00662055
-0.00661591
-0.00661192
-0.0066086
-0.00660594
-0.00660395
-0.00660262
-0.00660196
-0.00337942
-0.00370368
-0.00402883
-0.00434974
-0.00466165
-0.00496018
-0.00524157
-0.00550281
-0.00574166
-0.00595674
-0.00614742
-0.00631384
-0.00645672
-0.00657729
-0.00667717
-0.00675819
-0.00682237
-0.00687172
-0.00690825
-0.00693386
-0.0069503
-0.00695916
-0.00696185
-0.00695961
-0.00695346
-0.0069443
-0.00693286
-0.00691973
-0.00690542
-0.0068903
-0.00687469
-0.00685884
-0.00684294
-0.00682715
-0.00681158
-0.00679632
-0.00678145
-0.00676703
-0.00675309
-0.00673968
-0.00672682
-0.00671453
-0.00670284
-0.00669175
-0.00668128
-0.00667143
-0.00666222
-0.00665365
-0.00664572
-0.00663845
-0.00663182
-0.00662586
-0.00662055
-0.00661591
-0.00661192
-0.0066086
-0.00660594
-0.00660395
-0.00660262
-0.00660196
-0.000990632
-0.000965565
-0.000292954
-0.000935175
-0.000904908
-0.00028482
-0.00086842
-0.000833678
-0.000797412
-0.000268761
-0.000753716
-0.000714508
-0.00067459
-0.000246735
-0.000626132
-0.000585008
-0.000544044
-0.000503523
-0.000208991
-0.000453296
-0.000413972
-0.000375935
-0.00033944
-0.000162702
-0.000292552
-0.000259496
-0.00022871
-0.000200395
-0.000174738
-0.000151906
-0.00013205
-0.000115301
-0.000101767
-4.22682e-05
-7.74985e-05
-7.05814e-05
-6.71116e-05
)
;
    }
    procBoundary23to24
    {
        type            processor;
        value           nonuniform List<scalar> 
193
(
0.000154317
0.000157584
0.000164096
0.000173807
0.00018665
0.000202535
0.000221353
0.000242973
0.000267245
0.000294
0.000143093
0.000335945
0.000366697
0.000399297
0.000433518
0.000469119
0.000203824
0.000516461
0.000553522
0.000591169
0.000629136
0.00024337
0.000675485
0.000712667
0.00074935
0.000266915
0.00079179
0.000826065
0.000859069
0.000285046
0.000895322
0.000924484
0.000951686
0.000298156
0.000979892
0.00100216
0.00338198
0.0036884
0.00399597
0.00430027
0.00459709
0.0048826
0.0051534
0.0054067
0.00564032
0.00585279
0.00604327
0.0062116
0.00635814
0.00648376
0.00658969
0.00667743
0.00674867
0.00680518
0.00684876
0.00688113
0.00690395
0.00691874
0.00692686
0.00692953
0.00692781
0.00692261
0.00691469
0.0069047
0.00689317
0.00688053
0.00686713
0.00685325
0.00683912
0.00682491
0.00681078
0.00679682
0.00678314
0.0067698
0.00675685
0.00674434
0.00673231
0.00672079
0.00670979
0.00669934
0.00668945
0.00668014
0.00667142
0.00666329
0.00665576
0.00664885
-1.83525e-05
0.0066442
0.00663858
0.00663357
0.00662919
0.00662543
0.00662229
0.00661977
0.00661789
0.00661663
0.006616
0.00338198
0.0036884
0.00399597
0.00430027
0.00459709
0.0048826
0.0051534
0.0054067
0.00564032
0.00585279
0.00604327
0.0062116
0.00635814
0.00648376
0.00658969
0.00667743
0.00674867
0.00680518
0.00684876
0.00688113
0.00690395
0.00691874
0.00692686
0.00692953
0.00692781
0.00692261
0.00691469
0.0069047
0.00689317
0.00688053
0.00686713
0.00685325
0.00683912
0.00682491
0.00681078
0.00679682
0.00678314
0.0067698
0.00675685
0.00674434
0.00673231
0.00672079
0.00670979
0.00669934
0.00668945
0.00668014
0.00667142
0.00666329
0.00665576
0.00664885
0.00664255
0.00663687
0.00663181
0.00662738
0.00662358
0.00662041
0.00661787
0.00661597
0.0066147
0.00661406
0.00100216
0.000979892
0.000298156
0.000951686
0.000924484
0.000895322
0.000285046
0.000859069
0.000826065
0.00079179
0.000266915
0.00074935
0.000712667
0.000675485
0.00024337
0.000629136
0.000591169
0.000553522
0.000516461
0.000203824
0.000469119
0.000433518
0.000399297
0.000366697
0.000335945
0.000143093
0.000294
0.000267245
0.000242973
0.000221353
0.000202535
0.00018665
0.000173807
0.000164096
0.000157584
0.000154317
)
;
    }
}


// ************************************************************************* //
