/*--------------------------------*- C++ -*----------------------------------*\
  =========                 |
  \\      /  F ield         | OpenFOAM: The Open Source CFD Toolbox
   \\    /   O peration     | Website:  https://openfoam.org
    \\  /    A nd           | Version:  7
     \\/     M anipulation  |
\*---------------------------------------------------------------------------*/
FoamFile
{
    version     2.0;
    format      ascii;
    class       volScalarField;
    location    "41";
    object      p;
}
// * * * * * * * * * * * * * * * * * * * * * * * * * * * * * * * * * * * * * //

dimensions      [0 2 -2 0 0 0 0];

internalField   nonuniform List<scalar> 
40000
(
-0.232404
-0.233281
-0.233942
-0.234483
-0.234972
-0.23541
-0.235802
-0.236159
-0.236488
-0.236796
-0.237088
-0.237368
-0.237638
-0.2379
-0.238154
-0.238399
-0.238632
-0.238852
-0.239056
-0.23924
-0.239401
-0.239537
-0.239646
-0.239728
-0.239781
-0.239809
-0.239814
-0.239801
-0.239771
-0.239742
-0.232506
-0.233377
-0.234033
-0.234571
-0.235057
-0.235491
-0.235881
-0.236235
-0.236562
-0.236867
-0.237157
-0.237435
-0.237703
-0.237964
-0.238216
-0.238459
-0.23869
-0.238908
-0.239109
-0.239291
-0.23945
-0.239583
-0.23969
-0.239767
-0.239817
-0.239841
-0.239842
-0.239824
-0.239789
-0.239757
-0.232711
-0.23357
-0.234217
-0.234748
-0.235227
-0.235655
-0.23604
-0.236389
-0.236711
-0.237012
-0.237297
-0.237571
-0.237835
-0.238092
-0.23834
-0.238579
-0.238807
-0.239021
-0.239219
-0.239396
-0.23955
-0.239678
-0.239778
-0.239849
-0.239891
-0.239906
-0.239898
-0.239872
-0.239824
-0.239786
-0.233017
-0.233858
-0.234491
-0.235012
-0.23548
-0.2359
-0.236277
-0.236618
-0.236933
-0.237227
-0.237506
-0.237774
-0.238032
-0.238283
-0.238526
-0.238759
-0.238982
-0.23919
-0.239381
-0.239552
-0.239699
-0.239819
-0.23991
-0.23997
-0.24
-0.240002
-0.239981
-0.239941
-0.239875
-0.239826
-0.23342
-0.234237
-0.234853
-0.23536
-0.235816
-0.236224
-0.23659
-0.236921
-0.237226
-0.237512
-0.237782
-0.238042
-0.238292
-0.238535
-0.23877
-0.238996
-0.239211
-0.239412
-0.239595
-0.239757
-0.239895
-0.240004
-0.240082
-0.240129
-0.240143
-0.240127
-0.240088
-0.240029
-0.239937
-0.239873
-0.233916
-0.234705
-0.2353
-0.235789
-0.236229
-0.236623
-0.236975
-0.237294
-0.237588
-0.237862
-0.238122
-0.238371
-0.238611
-0.238844
-0.23907
-0.239287
-0.239492
-0.239683
-0.239857
-0.240008
-0.240133
-0.240229
-0.240292
-0.24032
-0.240314
-0.240275
-0.240212
-0.24013
-0.240006
-0.239919
-0.234501
-0.235256
-0.235826
-0.236295
-0.236717
-0.237094
-0.23743
-0.237734
-0.238014
-0.238274
-0.238521
-0.238757
-0.238986
-0.239207
-0.239421
-0.239626
-0.239821
-0.24
-0.240161
-0.2403
-0.240411
-0.240491
-0.240535
-0.240542
-0.24051
-0.240443
-0.240351
-0.240239
-0.240074
-0.239957
-0.235169
-0.235886
-0.236429
-0.236874
-0.237275
-0.237632
-0.23795
-0.238237
-0.2385
-0.238745
-0.238976
-0.239197
-0.239411
-0.239619
-0.239819
-0.240011
-0.240192
-0.240358
-0.240505
-0.240628
-0.240723
-0.240784
-0.240806
-0.240788
-0.240727
-0.240626
-0.240498
-0.24035
-0.240135
-0.239975
-0.235914
-0.23659
-0.237102
-0.237522
-0.237899
-0.238234
-0.238531
-0.238798
-0.239042
-0.239268
-0.239482
-0.239686
-0.239883
-0.240074
-0.240259
-0.240435
-0.2406
-0.240751
-0.240882
-0.240988
-0.241063
-0.241103
-0.241101
-0.241054
-0.240959
-0.240818
-0.240646
-0.240456
-0.240182
-0.239959
-0.236729
-0.237361
-0.23784
-0.238232
-0.238583
-0.238894
-0.239168
-0.239413
-0.239635
-0.23984
-0.240033
-0.240217
-0.240395
-0.240568
-0.240734
-0.240892
-0.24104
-0.241173
-0.241285
-0.241372
-0.241427
-0.241443
-0.241414
-0.241334
-0.2412
-0.241014
-0.24079
-0.24055
-0.24021
-0.23989
-0.237608
-0.238194
-0.238638
-0.239001
-0.239324
-0.239608
-0.239856
-0.240076
-0.240274
-0.240455
-0.240625
-0.240787
-0.240943
-0.241094
-0.241239
-0.241377
-0.241504
-0.241617
-0.24171
-0.241776
-0.241808
-0.241798
-0.241738
-0.241623
-0.241446
-0.241208
-0.240924
-0.240625
-0.240217
-0.239733
-0.238545
-0.239083
-0.239491
-0.239822
-0.240115
-0.24037
-0.24059
-0.240783
-0.240954
-0.241109
-0.241252
-0.241388
-0.241519
-0.241646
-0.241767
-0.241882
-0.241987
-0.242078
-0.242148
-0.242191
-0.242198
-0.24216
-0.242069
-0.241915
-0.241692
-0.241396
-0.241041
-0.240678
-0.240208
-0.239408
-0.239533
-0.240023
-0.240392
-0.240691
-0.240952
-0.241176
-0.241366
-0.241528
-0.241669
-0.241795
-0.241909
-0.242017
-0.242119
-0.242218
-0.242313
-0.242402
-0.242482
-0.242548
-0.242593
-0.242611
-0.242591
-0.242525
-0.242399
-0.242205
-0.241932
-0.241573
-0.241139
-0.240702
-0.240193
-0.238871
-0.240566
-0.241007
-0.241338
-0.241603
-0.241831
-0.242022
-0.242179
-0.242308
-0.242416
-0.242509
-0.242591
-0.242666
-0.242736
-0.242804
-0.242869
-0.242929
-0.24298
-0.243019
-0.243038
-0.243028
-0.24298
-0.242883
-0.242723
-0.242486
-0.242161
-0.241735
-0.241218
-0.240678
-0.240025
-0.238684
-0.241638
-0.242032
-0.242325
-0.242555
-0.242747
-0.242903
-0.243025
-0.243118
-0.24319
-0.243246
-0.243292
-0.24333
-0.243365
-0.243398
-0.243429
-0.243456
-0.243477
-0.243485
-0.243474
-0.243435
-0.243357
-0.243228
-0.243031
-0.242752
-0.242374
-0.241879
-0.241274
-0.240622
-0.239778
-0.238357
-0.242746
-0.243094
-0.243348
-0.243542
-0.243698
-0.243817
-0.243901
-0.243955
-0.243988
-0.244003
-0.244008
-0.244006
-0.244001
-0.243995
-0.243988
-0.243979
-0.243963
-0.243938
-0.243894
-0.243824
-0.243714
-0.243551
-0.243318
-0.242996
-0.242564
-0.241999
-0.241301
-0.240533
-0.239505
-0.237835
-0.243886
-0.244189
-0.244405
-0.244563
-0.244682
-0.244761
-0.244804
-0.244816
-0.244805
-0.244776
-0.244736
-0.244689
-0.24464
-0.24459
-0.24454
-0.24449
-0.244435
-0.244372
-0.244293
-0.244187
-0.244044
-0.243846
-0.243575
-0.24321
-0.242725
-0.24209
-0.241296
-0.240405
-0.239198
-0.237146
-0.245056
-0.245316
-0.245496
-0.245617
-0.245696
-0.245733
-0.245732
-0.245699
-0.24564
-0.245563
-0.245473
-0.245376
-0.245277
-0.245178
-0.245081
-0.244985
-0.244886
-0.244781
-0.244662
-0.244519
-0.244338
-0.244103
-0.243794
-0.243386
-0.242848
-0.242145
-0.241254
-0.240235
-0.238857
-0.236293
-0.246254
-0.246476
-0.246619
-0.246702
-0.246741
-0.246734
-0.246686
-0.246603
-0.246492
-0.246361
-0.246217
-0.246065
-0.245911
-0.245758
-0.245608
-0.24546
-0.245313
-0.245161
-0.244998
-0.244812
-0.244591
-0.244317
-0.243967
-0.243514
-0.242925
-0.242155
-0.241168
-0.240018
-0.238489
-0.235278
-0.247483
-0.247668
-0.247775
-0.247821
-0.247817
-0.247764
-0.247665
-0.247528
-0.247361
-0.247171
-0.246967
-0.246754
-0.246539
-0.246327
-0.246118
-0.245914
-0.245713
-0.245509
-0.245297
-0.245064
-0.244799
-0.244481
-0.244087
-0.243588
-0.242946
-0.242111
-0.241031
-0.239746
-0.238102
-0.234106
-0.248745
-0.248896
-0.248968
-0.248975
-0.248926
-0.248823
-0.248671
-0.248476
-0.248247
-0.247994
-0.247724
-0.247445
-0.247163
-0.246885
-0.246612
-0.246346
-0.246084
-0.245824
-0.245557
-0.245273
-0.244958
-0.244592
-0.244151
-0.243601
-0.242904
-0.242004
-0.240832
-0.239408
-0.2377
-0.232795
-0.250045
-0.250164
-0.250201
-0.250168
-0.250073
-0.249917
-0.249707
-0.249449
-0.249154
-0.248831
-0.24849
-0.248138
-0.247785
-0.247434
-0.247091
-0.246757
-0.24643
-0.246106
-0.245779
-0.245438
-0.245068
-0.24465
-0.244155
-0.243551
-0.242793
-0.241825
-0.240565
-0.238989
-0.237283
-0.231375
-0.251389
-0.251478
-0.251481
-0.251406
-0.251261
-0.251049
-0.250776
-0.250451
-0.250085
-0.249687
-0.249268
-0.248839
-0.248407
-0.247979
-0.247559
-0.247151
-0.246752
-0.24636
-0.245968
-0.245564
-0.245134
-0.244656
-0.244103
-0.243437
-0.242613
-0.241572
-0.240223
-0.23848
-0.23684
-0.229893
-0.252786
-0.252846
-0.252813
-0.252695
-0.252498
-0.252226
-0.251886
-0.251488
-0.251044
-0.250566
-0.250064
-0.249551
-0.249034
-0.248523
-0.248022
-0.247534
-0.247058
-0.246593
-0.246129
-0.245657
-0.245161
-0.244618
-0.243999
-0.243265
-0.242367
-0.241244
-0.239804
-0.23788
-0.236349
-0.228411
-0.254246
-0.254277
-0.254208
-0.254043
-0.25379
-0.253453
-0.253042
-0.252566
-0.252039
-0.251475
-0.250884
-0.250281
-0.249675
-0.249075
-0.248486
-0.247913
-0.247356
-0.246811
-0.246272
-0.245727
-0.245158
-0.244544
-0.243852
-0.243043
-0.242062
-0.240848
-0.239313
-0.2372
-0.235782
-0.227011
-0.255782
-0.255784
-0.255675
-0.25546
-0.255147
-0.254741
-0.254252
-0.253693
-0.253078
-0.252422
-0.251737
-0.251039
-0.250338
-0.249643
-0.248963
-0.2483
-0.247656
-0.247028
-0.246407
-0.245783
-0.245137
-0.244445
-0.243673
-0.242779
-0.241708
-0.240394
-0.238753
-0.236464
-0.235104
-0.225791
-0.257407
-0.257377
-0.257225
-0.256957
-0.256578
-0.256098
-0.255527
-0.254879
-0.25417
-0.253416
-0.252632
-0.251833
-0.251032
-0.250239
-0.249462
-0.248706
-0.24797
-0.247254
-0.246548
-0.245839
-0.24511
-0.244332
-0.243473
-0.242486
-0.241314
-0.239891
-0.238125
-0.235697
-0.234243
-0.224795
-0.259137
-0.259071
-0.258872
-0.258545
-0.258096
-0.257535
-0.256876
-0.256133
-0.255325
-0.254468
-0.25358
-0.252676
-0.25177
-0.250874
-0.249997
-0.249143
-0.248312
-0.247503
-0.246707
-0.245909
-0.245088
-0.244218
-0.243262
-0.242173
-0.240892
-0.239355
-0.237446
-0.234941
-0.233078
-0.223907
-0.260989
-0.26088
-0.26063
-0.260237
-0.259712
-0.259065
-0.258311
-0.257468
-0.256554
-0.255589
-0.254592
-0.253578
-0.252565
-0.251562
-0.250581
-0.249625
-0.248696
-0.24779
-0.246898
-0.246003
-0.245084
-0.244111
-0.243047
-0.241845
-0.240447
-0.238801
-0.236762
-0.234303
-0.231636
-0.223335
-0.262979
-0.262821
-0.262511
-0.262047
-0.261439
-0.260698
-0.259844
-0.258894
-0.25787
-0.256792
-0.255681
-0.254555
-0.253429
-0.252317
-0.251228
-0.250167
-0.249136
-0.248128
-0.247133
-0.246133
-0.245105
-0.244017
-0.242829
-0.241499
-0.239974
-0.23822
-0.236096
-0.233859
-0.230473
-0.225318
-0.265126
-0.26491
-0.264533
-0.26399
-0.26329
-0.262449
-0.261487
-0.260425
-0.259285
-0.25809
-0.256861
-0.255618
-0.254377
-0.253152
-0.251952
-0.250783
-0.249644
-0.248528
-0.247422
-0.246307
-0.245155
-0.243934
-0.242605
-0.241124
-0.23945
-0.237567
-0.235369
-0.233335
-0.230125
-0.232623
-0.267448
-0.267163
-0.266709
-0.266078
-0.26528
-0.264331
-0.263255
-0.262074
-0.260813
-0.259496
-0.258145
-0.256782
-0.255422
-0.254082
-0.252768
-0.251486
-0.250233
-0.249
-0.247773
-0.246528
-0.245236
-0.24386
-0.242362
-0.240702
-0.238845
-0.236791
-0.234476
-0.232374
-0.229412
-0.231126
-0.269963
-0.269596
-0.269055
-0.268328
-0.267422
-0.266358
-0.265161
-0.263855
-0.262468
-0.261024
-0.259548
-0.25806
-0.25658
-0.255119
-0.253688
-0.252287
-0.250912
-0.249553
-0.248191
-0.246798
-0.245341
-0.243784
-0.242086
-0.240211
-0.238129
-0.235849
-0.233334
-0.230957
-0.227886
-0.227963
-0.272689
-0.272225
-0.271586
-0.270753
-0.269731
-0.268543
-0.267217
-0.265781
-0.264262
-0.262687
-0.261082
-0.259468
-0.257862
-0.256278
-0.254723
-0.253196
-0.25169
-0.250191
-0.248674
-0.247111
-0.245463
-0.243693
-0.241759
-0.239629
-0.237279
-0.234719
-0.231927
-0.229172
-0.225818
-0.224515
-0.275641
-0.275067
-0.274318
-0.273369
-0.27222
-0.2709
-0.269439
-0.267865
-0.26621
-0.2645
-0.262762
-0.261017
-0.259282
-0.25757
-0.255884
-0.254221
-0.252571
-0.250913
-0.249221
-0.247459
-0.245589
-0.243569
-0.241362
-0.238938
-0.236278
-0.233395
-0.230274
-0.227104
-0.223414
-0.22098
-0.278837
-0.278136
-0.277264
-0.276187
-0.274903
-0.273442
-0.271838
-0.270122
-0.268325
-0.266476
-0.264601
-0.262721
-0.260852
-0.259004
-0.257178
-0.255367
-0.253555
-0.251717
-0.249822
-0.24783
-0.245702
-0.243395
-0.240877
-0.238122
-0.235119
-0.231883
-0.228407
-0.224828
-0.220798
-0.217547
-0.282291
-0.281447
-0.280439
-0.279223
-0.277793
-0.276184
-0.27443
-0.272564
-0.270621
-0.268627
-0.266611
-0.264591
-0.262582
-0.26059
-0.258612
-0.256635
-0.254639
-0.252595
-0.250465
-0.248208
-0.245783
-0.243152
-0.240287
-0.23717
-0.2338
-0.230195
-0.226359
-0.222398
-0.218052
-0.214214
-0.286017
-0.285011
-0.283854
-0.282489
-0.280904
-0.279136
-0.277225
-0.275206
-0.27311
-0.270968
-0.268805
-0.266639
-0.264481
-0.262333
-0.260186
-0.258023
-0.255817
-0.253534
-0.251133
-0.248572
-0.245812
-0.242821
-0.239577
-0.236076
-0.232324
-0.228347
-0.224158
-0.219849
-0.215223
-0.21097
-0.290026
-0.288841
-0.287521
-0.285996
-0.284246
-0.282313
-0.280239
-0.278058
-0.275806
-0.27351
-0.271194
-0.268874
-0.266555
-0.264235
-0.261899
-0.259524
-0.257077
-0.254519
-0.251807
-0.248902
-0.245769
-0.242384
-0.238737
-0.234835
-0.230695
-0.226352
-0.221826
-0.217203
-0.21233
-0.207776
-0.29433
-0.292948
-0.291452
-0.289756
-0.287832
-0.285725
-0.283481
-0.281134
-0.278719
-0.276263
-0.273787
-0.271301
-0.268807
-0.266295
-0.263745
-0.261126
-0.258401
-0.255528
-0.252464
-0.249175
-0.245633
-0.241826
-0.237758
-0.233446
-0.22892
-0.224221
-0.219379
-0.214473
-0.20938
-0.204597
-0.298936
-0.297339
-0.295654
-0.293777
-0.29167
-0.289383
-0.286963
-0.284444
-0.281861
-0.279237
-0.276589
-0.273924
-0.271236
-0.268508
-0.265713
-0.262814
-0.259769
-0.256537
-0.253079
-0.249367
-0.245385
-0.241135
-0.236633
-0.23191
-0.227005
-0.221965
-0.216825
-0.211662
-0.20637
-0.201401
-0.30385
-0.302021
-0.300135
-0.298068
-0.29577
-0.293297
-0.290694
-0.287998
-0.285238
-0.282437
-0.279606
-0.276744
-0.273838
-0.270864
-0.267786
-0.264565
-0.261156
-0.25752
-0.253626
-0.249456
-0.245009
-0.240299
-0.235358
-0.230227
-0.224955
-0.21959
-0.214172
-0.208769
-0.203295
-0.198163
-0.309076
-0.306999
-0.3049
-0.302634
-0.300139
-0.297472
-0.294682
-0.291801
-0.288858
-0.285868
-0.282837
-0.279755
-0.276602
-0.273345
-0.269943
-0.266353
-0.262533
-0.258449
-0.254079
-0.249421
-0.244487
-0.239309
-0.23393
-0.2284
-0.222772
-0.217099
-0.211418
-0.205793
-0.200147
-0.194862
-0.314615
-0.312274
-0.309951
-0.307478
-0.30478
-0.301915
-0.298931
-0.295859
-0.292721
-0.289528
-0.286275
-0.282946
-0.27951
-0.275929
-0.272157
-0.268149
-0.263869
-0.259293
-0.254413
-0.249241
-0.243808
-0.238158
-0.232345
-0.226427
-0.220459
-0.214492
-0.208562
-0.202726
-0.196915
-0.191482
-0.320463
-0.317843
-0.315288
-0.312603
-0.309696
-0.306627
-0.303444
-0.300172
-0.296827
-0.293411
-0.289911
-0.286301
-0.282542
-0.278588
-0.274394
-0.269917
-0.26513
-0.260022
-0.254601
-0.248898
-0.242958
-0.236838
-0.230601
-0.224307
-0.218013
-0.211766
-0.205601
-0.199561
-0.193592
-0.188011
-0.326613
-0.323701
-0.320906
-0.318004
-0.314884
-0.311607
-0.308217
-0.304734
-0.301166
-0.297504
-0.293726
-0.289796
-0.285666
-0.281289
-0.276619
-0.271622
-0.266283
-0.260607
-0.254622
-0.248375
-0.241926
-0.235343
-0.228693
-0.222038
-0.215432
-0.208918
-0.202526
-0.196292
-0.190168
-0.184438
-0.333054
-0.329839
-0.326797
-0.323674
-0.320338
-0.316848
-0.313244
-0.309537
-0.305726
-0.30179
-0.297697
-0.2934
-0.288848
-0.283991
-0.27879
-0.273224
-0.267291
-0.261019
-0.254453
-0.247656
-0.240702
-0.233666
-0.226616
-0.219614
-0.21271
-0.205939
-0.19933
-0.192907
-0.186634
-0.180754
-0.339769
-0.336241
-0.332949
-0.329602
-0.326047
-0.322339
-0.318511
-0.314564
-0.310485
-0.306241
-0.301789
-0.297075
-0.292045
-0.286651
-0.280866
-0.274683
-0.268122
-0.26123
-0.254072
-0.246727
-0.239276
-0.231799
-0.224364
-0.217029
-0.209838
-0.202823
-0.196004
-0.1894
-0.182979
-0.176951
-0.346735
-0.342888
-0.339341
-0.335771
-0.331994
-0.328062
-0.323998
-0.319791
-0.315415
-0.310824
-0.305965
-0.300778
-0.29521
-0.289222
-0.282801
-0.27596
-0.268743
-0.261215
-0.253462
-0.245573
-0.237636
-0.229732
-0.221927
-0.214274
-0.206809
-0.199559
-0.192539
-0.185758
-0.179196
-0.173021
-0.353923
-0.349751
-0.345951
-0.342156
-0.338157
-0.333993
-0.329678
-0.325188
-0.320479
-0.315496
-0.310176
-0.304457
-0.298291
-0.291653
-0.284549
-0.277016
-0.26912
-0.260949
-0.252603
-0.244179
-0.235771
-0.227457
-0.219297
-0.211339
-0.203612
-0.196137
-0.188923
-0.181973
-0.175274
-0.168956
-0.361297
-0.3568
-0.352747
-0.348729
-0.344504
-0.340099
-0.335517
-0.330714
-0.325634
-0.320208
-0.314369
-0.308056
-0.301233
-0.293893
-0.286064
-0.277811
-0.269224
-0.260408
-0.251476
-0.242532
-0.233669
-0.22496
-0.216462
-0.208212
-0.200236
-0.192545
-0.185145
-0.178034
-0.171204
-0.164747
-0.368814
-0.363993
-0.359692
-0.355453
-0.350998
-0.346343
-0.34147
-0.336322
-0.330825
-0.324903
-0.318484
-0.311516
-0.303979
-0.295889
-0.287302
-0.27831
-0.269025
-0.259569
-0.250063
-0.240616
-0.231316
-0.22223
-0.213409
-0.204882
-0.196667
-0.188771
-0.181195
-0.173931
-0.166977
-0.160386
-0.376425
-0.371285
-0.36674
-0.362283
-0.357595
-0.352675
-0.347488
-0.341956
-0.335994
-0.329516
-0.322455
-0.314773
-0.306469
-0.297589
-0.288219
-0.278477
-0.268494
-0.25841
-0.248347
-0.238415
-0.228697
-0.219254
-0.210125
-0.201335
-0.192894
-0.184804
-0.177061
-0.169654
-0.162583
-0.155867
-0.384072
-0.378621
-0.37384
-0.369168
-0.364242
-0.359041
-0.35351
-0.347553
-0.341071
-0.333978
-0.326215
-0.317761
-0.308644
-0.298943
-0.288773
-0.278276
-0.267606
-0.256908
-0.246309
-0.235914
-0.225798
-0.216015
-0.206596
-0.197557
-0.188903
-0.180631
-0.172731
-0.165192
-0.158013
-0.151181
-0.391691
-0.38594
-0.380932
-0.376048
-0.370877
-0.365376
-0.359469
-0.35304
-0.345984
-0.338215
-0.32969
-0.320414
-0.310447
-0.2999
-0.288922
-0.277677
-0.266334
-0.255043
-0.24393
-0.233094
-0.222602
-0.212499
-0.202807
-0.193535
-0.184682
-0.17624
-0.168196
-0.160535
-0.153259
-0.146322
-0.399209
-0.393174
-0.387949
-0.382856
-0.377433
-0.37161
-0.365289
-0.358341
-0.350653
-0.34215
-0.332809
-0.322666
-0.311819
-0.300414
-0.288628
-0.276648
-0.264651
-0.252792
-0.241192
-0.229939
-0.219094
-0.20869
-0.198742
-0.189254
-0.180216
-0.171619
-0.163444
-0.155675
-0.148311
-0.141281
-0.406549
-0.400247
-0.394818
-0.389518
-0.383832
-0.377662
-0.37089
-0.363371
-0.354995
-0.345702
-0.335497
-0.324453
-0.312706
-0.300438
-0.287854
-0.275159
-0.262535
-0.250135
-0.238074
-0.226431
-0.215255
-0.204572
-0.194388
-0.1847
-0.175495
-0.166756
-0.158465
-0.150602
-0.143162
-0.136053
-0.413626
-0.407079
-0.401458
-0.395953
-0.389992
-0.383449
-0.376184
-0.368044
-0.358926
-0.348793
-0.337682
-0.32571
-0.313054
-0.29993
-0.286566
-0.273181
-0.259959
-0.24705
-0.234557
-0.222551
-0.21107
-0.20013
-0.18973
-0.17986
-0.170504
-0.161641
-0.153248
-0.145308
-0.137805
-0.130632
-0.420351
-0.413583
-0.407784
-0.402075
-0.395826
-0.38888
-0.38108
-0.37227
-0.36236
-0.351341
-0.339294
-0.326379
-0.312814
-0.298848
-0.284731
-0.270687
-0.256902
-0.243516
-0.230624
-0.218283
-0.206522
-0.195347
-0.184752
-0.17472
-0.165232
-0.156262
-0.147785
-0.139783
-0.132232
-0.125014
-0.426629
-0.419666
-0.413704
-0.407791
-0.401239
-0.393861
-0.385484
-0.375957
-0.365208
-0.353269
-0.340264
-0.326401
-0.311939
-0.297156
-0.282317
-0.267652
-0.25334
-0.239513
-0.226254
-0.213608
-0.201593
-0.190208
-0.179441
-0.169268
-0.159667
-0.150609
-0.142067
-0.134021
-0.126437
-0.119194
-0.432363
-0.425234
-0.419124
-0.413007
-0.406135
-0.398294
-0.389301
-0.379012
-0.367388
-0.354502
-0.340529
-0.325724
-0.310386
-0.294818
-0.279296
-0.26405
-0.249252
-0.235022
-0.22143
-0.208509
-0.196269
-0.1847
-0.173783
-0.163492
-0.153799
-0.144674
-0.136085
-0.128015
-0.120415
-0.113168
-0.437452
-0.430188
-0.423946
-0.417623
-0.410415
-0.402081
-0.392433
-0.381347
-0.368817
-0.354968
-0.340027
-0.324299
-0.308115
-0.291802
-0.275641
-0.259858
-0.244618
-0.230023
-0.216134
-0.202971
-0.190535
-0.178809
-0.167768
-0.157381
-0.147619
-0.138446
-0.129832
-0.121756
-0.114158
-0.106929
-0.441796
-0.43443
-0.42807
-0.421539
-0.413978
-0.405123
-0.394788
-0.382872
-0.369417
-0.3546
-0.338704
-0.322079
-0.30509
-0.288077
-0.271326
-0.255056
-0.239417
-0.2245
-0.21035
-0.196979
-0.184377
-0.172522
-0.161382
-0.150925
-0.141116
-0.131918
-0.1233
-0.115238
-0.107661
-0.100473
-0.445294
-0.437858
-0.431396
-0.424656
-0.416726
-0.407324
-0.396273
-0.383506
-0.369115
-0.353336
-0.336509
-0.319025
-0.301278
-0.283618
-0.26633
-0.249623
-0.233632
-0.218434
-0.204063
-0.190519
-0.177783
-0.165828
-0.154617
-0.144115
-0.134283
-0.125083
-0.116482
-0.108456
-0.100921
-0.0937976
-0.447846
-0.440375
-0.433825
-0.426874
-0.41856
-0.408589
-0.3968
-0.383169
-0.367843
-0.351121
-0.333396
-0.3151
-0.296649
-0.2784
-0.260632
-0.24354
-0.227247
-0.211814
-0.19726
-0.183578
-0.170742
-0.158717
-0.147464
-0.136943
-0.127113
-0.117935
-0.109373
-0.101404
-0.0939337
-0.0869031
-0.449356
-0.441883
-0.435262
-0.428097
-0.419386
-0.408829
-0.396289
-0.381789
-0.365541
-0.347904
-0.329326
-0.310274
-0.29118
-0.272404
-0.254215
-0.236794
-0.220248
-0.204624
-0.18993
-0.176148
-0.163245
-0.151182
-0.139916
-0.129403
-0.1196
-0.110466
-0.101966
-0.0940741
-0.0866944
-0.0797864
-0.44973
-0.442291
-0.435612
-0.428233
-0.419116
-0.40796
-0.394662
-0.379301
-0.362153
-0.343642
-0.324265
-0.304518
-0.284848
-0.26561
-0.247062
-0.22937
-0.212623
-0.196855
-0.182062
-0.168219
-0.155285
-0.143217
-0.131968
-0.121491
-0.111741
-0.102674
-0.0942515
-0.086453
-0.079185
-0.0724156
-0.448881
-0.44151
-0.434788
-0.427195
-0.417665
-0.405905
-0.391852
-0.375646
-0.357633
-0.338299
-0.318184
-0.297813
-0.277637
-0.258006
-0.239163
-0.221258
-0.204362
-0.188498
-0.17365
-0.159785
-0.146857
-0.134817
-0.123616
-0.113204
-0.103533
-0.0945559
-0.0862305
-0.0785381
-0.0713825
-0.064705
-0.446729
-0.439458
-0.432708
-0.424904
-0.414959
-0.402595
-0.387798
-0.370776
-0.351942
-0.331844
-0.311062
-0.290141
-0.269534
-0.249581
-0.230509
-0.212449
-0.195459
-0.179547
-0.164688
-0.150842
-0.137957
-0.125981
-0.11486
-0.104543
-0.0949792
-0.0861165
-0.077913
-0.0703542
-0.0633086
-0.0565618
-0.443199
-0.436061
-0.429298
-0.421286
-0.410927
-0.397969
-0.382449
-0.364648
-0.345049
-0.324254
-0.302882
-0.281489
-0.260529
-0.240326
-0.221092
-0.202939
-0.18591
-0.169999
-0.155175
-0.141388
-0.128584
-0.116707
-0.1057
-0.0955088
-0.0860801
-0.077359
-0.0693091
-0.0619256
-0.0550364
-0.0481154
-0.438226
-0.431253
-0.424492
-0.416277
-0.405513
-0.391975
-0.375764
-0.35723
-0.336929
-0.315514
-0.293633
-0.271852
-0.250618
-0.23024
-0.210911
-0.192726
-0.175712
-0.159853
-0.145109
-0.131425
-0.118741
-0.106999
-0.0961389
-0.0861047
-0.07684
-0.0682885
-0.0604224
-0.0532171
-0.0463874
-0.0397998
-0.431754
-0.424976
-0.418232
-0.409824
-0.398666
-0.384572
-0.367708
-0.348499
-0.327568
-0.305614
-0.28331
-0.261228
-0.239801
-0.219323
-0.199967
-0.18181
-0.164867
-0.149111
-0.134493
-0.120954
-0.108431
-0.0968601
-0.0861813
-0.0763361
-0.0672659
-0.0589142
-0.0512543
-0.0442388
-0.0375484
-0.0313184
-0.423738
-0.417183
-0.410472
-0.401882
-0.390348
-0.375729
-0.358259
-0.33844
-0.316957
-0.294552
-0.271915
-0.249618
-0.228081
-0.207578
-0.188263
-0.170197
-0.153381
-0.137778
-0.123333
-0.109982
-0.0976583
-0.0862973
-0.0758344
-0.0662098
-0.0573637
-0.04924
-0.0418111
-0.0350128
-0.0285163
-0.0226166
-0.414141
-0.407836
-0.401174
-0.392417
-0.380531
-0.365424
-0.347404
-0.327048
-0.305097
-0.282332
-0.259455
-0.237032
-0.215467
-0.195015
-0.175809
-0.157895
-0.141261
-0.125862
-0.111636
-0.0985178
-0.0864338
-0.0753183
-0.0651057
-0.0557342
-0.0471422
-0.039274
-0.0321021
-0.0255503
-0.0192773
-0.0136938
-0.402939
-0.396909
-0.390313
-0.381406
-0.369196
-0.353646
-0.335139
-0.314324
-0.291996
-0.268965
-0.245942
-0.223482
-0.201971
-0.181644
-0.162615
-0.144913
-0.128517
-0.113373
-0.0994149
-0.0865701
-0.0747663
-0.0639338
-0.054006
-0.0449195
-0.0366113
-0.0290259
-0.0221371
-0.0158575
-0.00982744
-0.00456385
-0.390117
-0.384387
-0.377873
-0.368838
-0.356337
-0.340396
-0.321471
-0.30028
-0.277669
-0.254469
-0.231394
-0.208985
-0.187611
-0.167482
-0.148696
-0.131267
-0.115165
-0.100326
-0.0866804
-0.0741529
-0.0626688
-0.0521563
-0.0425476
-0.0337778
-0.0257828
-0.0185073
-0.0119272
-0.00594248
-0.00017235
0.00476002
-0.375673
-0.370265
-0.363852
-0.354711
-0.341958
-0.325682
-0.306415
-0.284937
-0.262138
-0.238867
-0.215834
-0.193566
-0.172407
-0.15255
-0.134072
-0.116976
-0.10122
-0.0867358
-0.0734491
-0.0612815
-0.0501565
-0.0400006
-0.0307448
-0.0223231
-0.0146701
-0.00773132
-0.00148436
0.00418422
0.00967751
0.0142645
-0.359616
-0.354549
-0.348255
-0.339037
-0.326075
-0.309526
-0.289994
-0.268321
-0.245432
-0.222188
-0.199291
-0.17725
-0.156386
-0.136871
-0.118766
-0.10206
-0.0867029
-0.0726226
-0.0597398
-0.0479739
-0.0372466
-0.0274833
-0.0186138
-0.010571
-0.00328847
0.00328727
0.00917708
0.0145092
0.0197084
0.0239352
-0.341966
-0.337259
-0.331103
-0.321836
-0.308712
-0.291957
-0.272242
-0.250468
-0.227589
-0.20447
-0.1818
-0.160069
-0.139577
-0.120473
-0.102802
-0.0865434
-0.0716375
-0.0580084
-0.0455734
-0.03425
-0.0239585
-0.0146232
-0.00617271
0.00146091
0.00834491
0.0145317
0.020041
0.0250165
0.029904
0.0337561
-0.322752
-0.318422
-0.312425
-0.30314
-0.289905
-0.273011
-0.253199
-0.23142
-0.208652
-0.185753
-0.163398
-0.14206
-0.122013
-0.103387
-0.0862114
-0.070454
-0.0560497
-0.042918
-0.0309736
-0.0201325
-0.0103137
-0.00144058
0.00655881
0.0137535
0.0202114
0.0259837
0.0310892
0.0356881
0.0402455
0.0437094
-0.302017
-0.298078
-0.29226
-0.282993
-0.269698
-0.252739
-0.232919
-0.211236
-0.188663
-0.166074
-0.144128
-0.123263
-0.103733
-0.0856487
-0.0690258
-0.0538228
-0.0399685
-0.0273787
-0.0159663
-0.00564581
0.0036646
0.0120422
0.0195594
0.0262861
0.0322907
0.0376232
0.0423019
0.0465035
0.0507112
0.0537728
-0.279811
-0.276277
-0.270659
-0.261444
-0.248147
-0.231199
-0.211469
-0.189991
-0.167641
-0.145488
-0.124038
-0.103722
-0.0847771
-0.0672963
-0.0512817
-0.0366835
-0.0234254
-0.0114204
-0.000579549
0.00918356
0.0179513
0.0258013
0.0328064
0.0390369
0.0445616
0.0494288
0.0536575
0.0574406
0.0612755
0.0639165
-0.256197
-0.253077
-0.24768
-0.238555
-0.225315
-0.208458
-0.188894
-0.167638
-0.145746
-0.124063
-0.10318
-0.0834858
-0.0651913
-0.0483719
-0.0330182
-0.0190728
-0.006455
0.00492471
0.0151564
0.0243272
0.0325197
0.0398116
0.0462759
0.0519831
0.0570017
0.0613786
0.0651337
0.0684749
0.0719082
0.0741045
-0.231246
-0.228546
-0.223393
-0.214398
-0.201275
-0.184578
-0.165235
-0.144368
-0.122965
-0.101851
-0.0816116
-0.0626072
-0.0450238
-0.0289206
-0.0142773
-0.00102998
0.0109061
0.0216222
0.0312093
0.0397549
0.0473416
0.0540468
0.0599432
0.0651013
0.0695888
0.0734505
0.0767078
0.0795811
0.0825777
0.0843062
-0.205036
-0.202761
-0.197874
-0.189051
-0.176097
-0.159613
-0.140625
-0.120212
-0.0993754
-0.078916
-0.0593926
-0.0411413
-0.0243261
-0.00899033
0.00489606
0.0174031
0.0286186
0.0386354
0.047545
0.0554349
0.0623873
0.0684793
0.0737829
0.0783679
0.0823005
0.0856225
0.0883579
0.0907371
0.0932595
0.0944982
-0.17764
-0.17581
-0.171206
-0.16259
-0.149853
-0.133691
-0.115122
-0.0952461
-0.0750554
-0.0553251
-0.0365853
-0.0191468
-0.00315262
0.0113681
0.0244547
0.0361823
0.0466414
0.0559258
0.0641275
0.0713337
0.077626
0.0830806
0.0877687
0.0917589
0.0951143
0.097873
0.100065
0.101929
0.103936
0.104618
-0.14913
-0.147796
-0.143485
-0.135105
-0.122664
-0.106882
-0.0888093
-0.0695508
-0.0500817
-0.0311498
-0.0132558
0.00331501
0.0184393
0.0321013
0.0443487
0.0552611
0.0649309
0.073453
0.0809193
0.0874163
0.0930253
0.0978212
0.101874
0.105251
0.108008
0.110182
0.111814
0.113147
0.114559
0.114504
-0.119585
-0.118854
-0.114803
-0.106703
-0.0946116
-0.0792789
-0.0617776
-0.0432113
-0.0245343
-0.00646456
0.0105269
0.0261799
0.04039
0.0531538
0.0645262
0.0745909
0.083442
0.0911748
0.0978809
0.103646
0.108552
0.112671
0.116072
0.118819
0.120963
0.122537
0.123603
0.124373
0.125013
0.123987
-0.0892536
-0.0889838
-0.0852663
-0.0774894
-0.065798
-0.0509798
-0.0341206
-0.016316
0.00150439
0.0186537
0.0346911
0.0493814
0.0626375
0.0744676
0.0849333
0.0941215
0.102128
0.109047
0.114971
0.119986
0.12417
0.127597
0.130335
0.132442
0.133963
0.134938
0.135451
0.135617
0.135243
0.133114
-0.0581744
-0.0583365
-0.054987
-0.0475693
-0.0363284
-0.0220862
-0.00593472
0.0110443
0.0279491
0.0441256
0.0591633
0.0728508
0.0851179
0.0959833
0.105514
0.113801
0.120939
0.127025
0.132149
0.136396
0.139844
0.142567
0.144631
0.146091
0.146991
0.147387
0.147386
0.146933
0.145471
0.142437
-0.0264347
-0.0270466
-0.0240781
-0.0170531
-0.00631127
0.0072973
0.0226807
0.0387761
0.0547126
0.06987
0.0838679
0.0965179
0.107766
0.11764
0.126212
0.133575
0.139826
0.14506
0.149368
0.152834
0.155535
0.157544
0.158926
0.159735
0.160018
0.159855
0.159357
0.158268
0.155786
0.154035
0.00584037
0.00476924
0.0073444
0.0139448
0.0241419
0.0370638
0.0516245
0.0667844
0.0817061
0.0958041
0.108728
0.120311
0.130514
0.139374
0.146968
0.15339
0.158738
0.163107
0.166586
0.169259
0.171204
0.17249
0.173184
0.173338
0.173005
0.172276
0.171231
0.169546
0.166732
0.165664
0.0385246
0.0369914
0.0391609
0.0453071
0.0549174
0.0671044
0.0807936
0.0949725
0.108839
0.121844
0.133665
0.144157
0.153294
0.161123
0.167723
0.17319
0.177623
0.181115
0.183756
0.185628
0.186809
0.187367
0.187368
0.186865
0.185914
0.184608
0.182995
0.18076
0.177672
0.176554
0.0714916
0.0694968
0.0712493
0.0769142
0.0858999
0.0973091
0.110084
0.123243
0.136021
0.147904
0.158599
0.167982
0.176038
0.182822
0.188416
0.192919
0.196427
0.199035
0.200832
0.201898
0.202309
0.202136
0.201441
0.200278
0.198708
0.196816
0.194638
0.191894
0.1885
0.187053
0.104614
0.10216
0.103486
0.108645
0.116973
0.127567
0.139391
0.151497
0.16316
0.1739
0.183452
0.191711
0.198676
0.204406
0.208988
0.212519
0.215098
0.216818
0.217767
0.218024
0.217664
0.216757
0.215365
0.213543
0.211349
0.208867
0.206122
0.202871
0.199108
0.19723
0.137764
0.134855
0.135746
0.140379
0.148019
0.157766
0.168609
0.179638
0.190165
0.199746
0.208144
0.215272
0.221139
0.22581
0.229376
0.231935
0.233583
0.234414
0.234514
0.233962
0.232832
0.231193
0.229104
0.226622
0.223805
0.220731
0.217421
0.213657
0.209485
0.207129
0.170813
0.167455
0.167905
0.171993
0.178922
0.187796
0.197635
0.207566
0.216943
0.225357
0.232595
0.238588
0.243356
0.24697
0.249521
0.251108
0.251828
0.251773
0.251027
0.249669
0.247773
0.245403
0.242622
0.239483
0.236043
0.232379
0.228505
0.224223
0.219619
0.21676
0.203633
0.199833
0.199837
0.203366
0.209564
0.217546
0.226363
0.235185
0.243404
0.250647
0.256725
0.261587
0.26526
0.267821
0.269363
0.269984
0.269781
0.268845
0.26726
0.265102
0.262445
0.259352
0.255883
0.252091
0.248034
0.243782
0.239346
0.234546
0.2295
0.226125
0.236097
0.231864
0.231419
0.234379
0.239831
0.246907
0.254692
0.262398
0.269459
0.275533
0.280457
0.284194
0.286781
0.288298
0.28884
0.288505
0.287389
0.285582
0.283166
0.280218
0.276808
0.273
0.268852
0.264415
0.259746
0.254912
0.24992
0.244606