/*--------------------------------*- C++ -*----------------------------------*\
  =========                 |
  \\      /  F ield         | OpenFOAM: The Open Source CFD Toolbox
   \\    /   O peration     | Website:  https://openfoam.org
    \\  /    A nd           | Version:  7
     \\/     M anipulation  |
\*---------------------------------------------------------------------------*/
FoamFile
{
    version     2.0;
    format      ascii;
    class       surfaceScalarField;
    location    "10";
    object      phi;
}
// * * * * * * * * * * * * * * * * * * * * * * * * * * * * * * * * * * * * * //

dimensions      [0 3 -1 0 0 0 0];

internalField   nonuniform List<scalar> 
251
(
3.5636e-05
2.52753e-07
3.53833e-05
8.12001e-05
5.84461e-07
3.47988e-05
5.57985e-06
7.62047e-05
9.24375e-05
1.04505e-06
7.75743e-06
6.94923e-05
2.3579e-05
7.66159e-05
5.48862e-05
1.04599e-05
3.02675e-05
5.68083e-05
6.4943e-05
2.02108e-05
-5.00351e-05
3.81396e-05
7.99444e-05
-2.1594e-05
0.000143491
-0.000113581
-0.000244909
9.69293e-05
0.000171333
-0.000187985
0.00027478
-0.000348356
0.00041097
-0.000552963
-0.000800923
0.000201726
0.000319395
0.000471735
-0.000705304
0.00065974
-0.000988928
-0.00131104
0.000533691
0.000736181
0.000969425
-0.00154429
0.00122593
-0.00191903
-0.00230105
0.00104878
0.00130486
-0.00217511
0.00156562
-0.00256181
-0.00292967
0.00136633
0.00161252
0.00184474
0.00205569
-0.00347896
-0.00375734
0.00202723
0.00218585
0.00232157
-0.00413574
-0.00433003
0.00222332
0.00232146
0.00240885
0.00248952
-0.00475558
-0.00491607
0.00234027
0.00240822
0.00247562
-0.00531595
0.00254283
0.00236696
0.00230986
0.00514263
0.00531176
0.0023695
0.00227201
0.00459034
0.00234229
0.00475135
0.00241037
0.00491183
0.00247789
0.00254522
0.00222427
0.00413053
0.00232278
0.00432521
0.00241045
0.00249133
0.00184229
0.00315452
0.00202655
0.00347208
0.00218576
0.00375104
0.00232202
0.00136369
0.00216741
0.00161012
0.00255389
0.00184278
0.00292187
0.00205429
0.00104586
0.00153746
0.00130179
0.00191147
0.00156264
0.0005316
0.000701016
0.000733553
0.000983576
0.000966336
0.00130467
0.000200734
0.000186039
0.000317921
0.000345576
0.000469706
0.00054923
0.000657123
9.63694e-05
2.06063e-05
0.000170407
0.000112001
0.000273389
0.000242595
3.78659e-05
-5.71826e-05
7.94214e-05
-2.09492e-05
0.000142623
4.87993e-05
1.03533e-05
-6.95439e-05
3.00069e-05
-7.68361e-05
6.44478e-05
-5.53901e-05
1.02114e-06
-3.47614e-05
7.65205e-06
-7.61748e-05
2.33255e-05
-9.25096e-05
5.592e-07
-3.53206e-05
5.47316e-06
-8.10888e-05
2.25485e-07
-3.55461e-05
-0.0199802
0.00234297
-0.0230486
0.00214498
-0.0224644
0.00196966
-0.0220967
0.00180718
-0.0217898
0.00165651
-0.0215369
0.00151701
-0.0213262
0.00138591
-0.0211304
0.00126261
-0.0209449
0.00114685
-0.0207951
0.0010365
-0.0206678
0.000929793
-0.0205466
0.000826525
0.000727056
0.000630948
0.000537182
0.000445293
0.000354242
0.000264466
0.000175519
8.79259e-05
0.00217226
0.00198278
0.00181653
0.00166327
0.00152179
0.00139143
0.00126938
0.00115499
0.00104796
0.000946213
0.00217487
0.0230376
0.00198528
0.022453
0.00181893
0.0220816
0.001666
0.0217703
0.00152515
0.0215328
0.00139426
0.0213161
0.00127146
0.021115
0.00115661
0.0209306
0.00104822
0.0207865
0.000944102
0.0206148
0.000845986
0.0205063
0.00075103
0.0203738
0.000660189
0.0202901
0.000571729
0.0202061
0.000485502
0.0201411
0.0200654
0.00234543
0.0021473
0.00197178
0.00180959
0.00165954
0.00151955
0.00138775
0.00126405
0.00114692
0.00103423
0.00092761
0.000824319
0.00072522
0.000628558
0.000534128
0.000441427
0.000350586
0.000261837
0.000174381
8.70902e-05
)
;

boundaryField
{
    inlet
    {
        type            calculated;
        value           nonuniform 0();
    }
    outlet
    {
        type            calculated;
        value           nonuniform 0();
    }
    cylinder
    {
        type            calculated;
        value           uniform 0;
    }
    top
    {
        type            symmetryPlane;
        value           uniform 0;
    }
    bottom
    {
        type            symmetryPlane;
        value           uniform 0;
    }
    defaultFaces
    {
        type            empty;
        value           nonuniform 0();
    }
    procBoundary22to21
    {
        type            processor;
        value           nonuniform List<scalar> 
108
(
3.37538e-05
-1.64399e-06
6.06764e-05
-1.37047e-05
3.23735e-05
-4.71858e-05
-7.13376e-05
-0.000115765
-0.000273946
-0.000466024
-0.000366085
-0.00087291
-0.00119142
-0.0008089
-0.00178416
-0.00111656
-0.00242487
-0.002808
-0.00316189
-0.00184356
-0.00366263
-0.00391596
-0.00210975
-0.00424931
-0.00442817
-0.00459463
-0.00227015
-0.0048257
-0.00498402
-0.00514679
-0.00230743
-0.00537547
-0.00520231
-0.00537139
-0.00466523
-0.00482163
-0.00225019
-0.00497992
-0.00424457
-0.00219712
-0.00442372
-0.00336287
-0.00365634
-0.00211023
-0.00391025
-0.00241718
-0.00163394
-0.00280033
-0.00111391
-0.00177699
-0.00086808
-0.000806324
-0.00118553
-0.000271613
-0.000364535
-0.000462763
-0.00011516
-7.00833e-05
-4.68924e-05
3.29104e-05
-1.35937e-05
6.08112e-05
-1.62055e-06
3.37403e-05
-0.0204172
-0.0203018
-0.0202106
-0.0201411
-0.0200868
-0.0200135
-0.0199606
-0.0199266
-0.0199228
-0.0198923
-0.0228539
-0.0222749
-0.0219305
-0.0216365
-0.0213954
-0.0211959
-0.0210083
-0.0208305
-0.0206881
-0.020566
0.000848041
-0.0204484
-0.022843
-0.0222634
-0.0219153
-0.0216173
-0.021392
-0.0211852
-0.0209922
-0.0208157
-0.0206781
-0.0205107
-0.0204082
-0.0202788
-0.0201993
-0.0201176
-0.0200549
-0.0199809
0.000400994
-0.0199996
-0.0199673
-0.0199533
-0.019929
-0.0199016
)
;
    }
    procBoundary22to23
    {
        type            processor;
        value           nonuniform List<scalar> 
111
(
-3.56739e-05
3.78467e-08
-8.48401e-05
3.89282e-06
-0.000104905
1.80474e-05
-8.32929e-05
5.19857e-05
-3.54483e-06
0.000118523
0.000155254
0.000233146
0.000416773
0.000629618
0.000582275
0.00108912
0.000881666
0.00166252
0.00203141
0.00149557
0.00267565
0.00181964
0.00326801
0.00357121
0.00224183
0.00400002
0.00421317
0.00243843
0.00450725
0.0046749
0.00483903
0.00256656
0.00507939
0.00524873
0.00507512
0.00524442
0.00450267
0.00467046
0.00256853
0.00483463
0.00399427
0.00243934
0.00420789
0.00326057
0.00224106
0.00356427
0.00229305
0.00181696
0.00266754
0.00122254
0.00165527
0.000796159
0.00087849
0.00108331
0.000409025
0.000413594
0.000231836
0.000153383
0.000117704
-4.45724e-06
5.15095e-05
-8.35741e-05
1.77962e-05
-0.000104833
3.7835e-06
-8.46468e-05
1.13989e-08
-3.55575e-05
0.020076
0.0232485
0.0226624
0.0222721
0.0219523
0.0216876
0.0214657
0.0212615
0.0210682
0.0209109
0.0207781
0.0206533
0.0205205
0.0204013
0.0203067
0.0202349
0.0201787
0.0201046
0.0200504
0.0200156
-9.5846e-05
0.0200104
0.0232374
0.0226511
0.0222571
0.0219325
0.0216829
0.0214561
0.0212468
0.0210543
0.0209036
0.0207275
0.020613
0.0204771
0.0203892
0.0203027
0.0202356
0.0201581
0.0200904
0.0200561
0.0200408
0.0200163
0.0199887
)
;
    }
}


// ************************************************************************* //
