# Probe 0 (2 -0.5 0)
# Probe 1 (2 0.5 0)
# Probe 2 (4 -0.5 0)
# Probe 3 (4 0.5 0)
# Probe 4 (5 -0.5 0)
# Probe 5 (5 0.5 0)
#       Probe             0             1             2             3             4             5
#        Time
        0.005      -10.9186      -10.9186       -2.6183       -2.6183      -1.54584      -1.54584
         0.01       1.28272       1.28272       0.45149       0.45149      0.274144      0.274144
        0.015     -0.182482     -0.182482    -0.0807421    -0.0807421    -0.0563031    -0.0563032
         0.02     -0.154061     -0.154061    -0.0557614    -0.0557614    -0.0323176    -0.0323176
        0.025     -0.131829     -0.131829    -0.0468189    -0.0468189    -0.0273646    -0.0273646
         0.03     -0.113772     -0.113772    -0.0402883    -0.0402883    -0.0236651    -0.0236651
        0.035      -0.09884      -0.09884     -0.035128     -0.035128    -0.0207142    -0.0207142
         0.04    -0.0863415    -0.0863415    -0.0309235    -0.0309235    -0.0183126    -0.0183126
        0.045    -0.0757746    -0.0757746    -0.0274264    -0.0274264    -0.0163239    -0.0163239
         0.05    -0.0667688    -0.0667688    -0.0244362    -0.0244362    -0.0146084    -0.0146084
        0.055    -0.0590353    -0.0590354     -0.021893     -0.021893    -0.0131556    -0.0131556
         0.06    -0.0523365    -0.0523365    -0.0196801    -0.0196801    -0.0118928    -0.0118928
        0.065    -0.0464926    -0.0464926    -0.0177585    -0.0177585    -0.0107784    -0.0107784
         0.07    -0.0413605    -0.0413605    -0.0160674    -0.0160674   -0.00979757   -0.00979758
        0.075    -0.0368278    -0.0368278    -0.0145779    -0.0145779    -0.0089349    -0.0089349
         0.08    -0.0328046    -0.0328046      -0.01326      -0.01326   -0.00816928   -0.00816929
        0.085    -0.0292127    -0.0292127     -0.012082     -0.012082   -0.00748395   -0.00748395
         0.09    -0.0259911    -0.0259912    -0.0110283    -0.0110283   -0.00686657   -0.00686658
        0.095    -0.0230899      -0.02309    -0.0100785    -0.0100785   -0.00630982   -0.00630982
          0.1    -0.0204677    -0.0204677   -0.00921929   -0.00921929   -0.00580305   -0.00580305
        0.105    -0.0180879    -0.0180879   -0.00843522   -0.00843524   -0.00533638   -0.00533639
         0.11    -0.0159187    -0.0159188   -0.00771776   -0.00771778   -0.00490275   -0.00490276
        0.115    -0.0139377    -0.0139378   -0.00706195   -0.00706197   -0.00451619    -0.0045162
         0.12    -0.0121249    -0.0121249   -0.00646041   -0.00646042   -0.00416807   -0.00416808
        0.125    -0.0104588    -0.0104588   -0.00590761   -0.00590762   -0.00385851   -0.00385852
         0.13   -0.00892387   -0.00892391   -0.00539406   -0.00539407   -0.00354753   -0.00354754
        0.135   -0.00750567   -0.00750571   -0.00491665   -0.00491666   -0.00325378   -0.00325378
         0.14   -0.00619142   -0.00619146   -0.00447295   -0.00447296    -0.0029801   -0.00298011
        0.145   -0.00497081   -0.00497085   -0.00405969    -0.0040597   -0.00272479   -0.00272479
         0.15   -0.00383692   -0.00383696   -0.00367525   -0.00367526   -0.00248739    -0.0024874
        0.155   -0.00277765   -0.00277769   -0.00331617   -0.00331618   -0.00226626   -0.00226626
         0.16   -0.00178624   -0.00178628   -0.00297878   -0.00297879   -0.00205814   -0.00205815
        0.165  -0.000858799  -0.000858835   -0.00266249    -0.0026625   -0.00186278   -0.00186279
         0.17   1.19668e-05    1.1931e-05    -0.0023654   -0.00236541   -0.00167909   -0.00167909
        0.175   0.000831549   0.000831515   -0.00208585   -0.00208586   -0.00150605   -0.00150606
         0.18    0.00160249    0.00160246   -0.00182289   -0.00182289    -0.0013431   -0.00134311
        0.185    0.00233043    0.00233039   -0.00157502   -0.00157502   -0.00118935   -0.00118935
         0.19    0.00301925    0.00301922   -0.00134097   -0.00134098   -0.00104396   -0.00104397
        0.195    0.00367145    0.00367142   -0.00112013   -0.00112013  -0.000906581  -0.000906585
          0.2    0.00429094    0.00429091  -0.000911281  -0.000911289   -0.00077648  -0.000776487
        0.205    0.00487759    0.00487756   -0.00071416  -0.000714167  -0.000653491  -0.000653496
         0.21    0.00543651    0.00543648    -0.0005273  -0.000527307  -0.000536678  -0.000536683
        0.215     0.0059679    0.00596787  -0.000351024  -0.000351031  -0.000427675   -0.00042768
         0.22    0.00647491    0.00647488  -0.000183143   -0.00018315  -0.000322798  -0.000322803
        0.225    0.00695684    0.00695681  -2.42939e-05  -2.43038e-05  -0.000223483  -0.000223491
         0.23    0.00741683     0.0074168   0.000126579   0.000126571  -0.000129355   -0.00012936
        0.235    0.00785493     0.0078549   0.000270017    0.00027001  -3.82499e-05  -3.82558e-05
         0.24    0.00827346    0.00827343   0.000406034   0.000406023   4.36425e-05   4.36359e-05
        0.245    0.00867627    0.00867624   0.000536275   0.000536269   0.000124436   0.000124431
         0.25    0.00905628    0.00905626   0.000659244   0.000659238   0.000201658   0.000201653
        0.255    0.00941984    0.00941982   0.000776389   0.000776382   0.000275124    0.00027512
         0.26    0.00976751    0.00976748   0.000887956   0.000887947   0.000344989   0.000344982
        0.265     0.0101007     0.0101006   0.000994409   0.000994402    0.00041154   0.000411535
         0.27     0.0104204     0.0104204    0.00109613    0.00109612   0.000475008   0.000475003
        0.275     0.0107242     0.0107242    0.00119265    0.00119265   0.000535072   0.000535067
         0.28     0.0110106     0.0110105    0.00128364    0.00128363   0.000591525    0.00059152
        0.285     0.0112834     0.0112834    0.00136995    0.00136994   0.000644895    0.00064489
         0.29     0.0115513     0.0115513    0.00145347    0.00145347   0.000696297   0.000696295
        0.295     0.0118072     0.0118072    0.00153278    0.00153277   0.000744963   0.000744956
          0.3     0.0120544     0.0120544    0.00160872    0.00160872   0.000791584   0.000791584
        0.305     0.0122894     0.0122894    0.00168047    0.00168046    0.00083548   0.000835472
         0.31     0.0125159     0.0125159    0.00174898    0.00174897   0.000877203   0.000877198
        0.315     0.0127336     0.0127336    0.00181425    0.00181424   0.000916634   0.000916632
         0.32     0.0129438     0.0129438    0.00187646    0.00187646   0.000953296   0.000953293
        0.325     0.0131451      0.013145    0.00193638    0.00193638   0.000990561   0.000990556
         0.33     0.0133387     0.0133386    0.00199394    0.00199393    0.00102733    0.00102733
        0.335      0.013525      0.013525    0.00204834    0.00204833    0.00106043    0.00106042
         0.34     0.0137052     0.0137052    0.00210044    0.00210043    0.00109187    0.00109186
        0.345     0.0138788     0.0138788    0.00215028    0.00215028    0.00112179    0.00112179
         0.35      0.014048     0.0140479    0.00219838    0.00219837     0.0011505    0.00115049
        0.355     0.0142111     0.0142111     0.0022444    0.00224439    0.00117774    0.00117773
         0.36      0.014369     0.0143689    0.00228861     0.0022886    0.00120361     0.0012036
        0.365     0.0145204     0.0145204    0.00233072    0.00233071    0.00122792    0.00122792
         0.37     0.0146689     0.0146689    0.00237152    0.00237152    0.00125099    0.00125099
        0.375     0.0148126     0.0148125    0.00241068    0.00241067    0.00127206    0.00127206
         0.38     0.0149522     0.0149521    0.00244827    0.00244826    0.00128934    0.00128934
        0.385     0.0150873     0.0150873    0.00248471     0.0024847    0.00130993    0.00130992
         0.39     0.0152192     0.0152191    0.00252058    0.00252057    0.00133901    0.00133899
        0.395      0.015348      0.015348    0.00255569    0.00255568    0.00137371     0.0013737
          0.4     0.0154729     0.0154728    0.00258857    0.00258856    0.00139376    0.00139376
        0.405     0.0155934     0.0155934    0.00262015    0.00262014    0.00141275    0.00141275
         0.41     0.0157115     0.0157115    0.00265091     0.0026509    0.00143122    0.00143122
        0.415     0.0158269     0.0158269    0.00268079    0.00268078    0.00144917    0.00144917
         0.42     0.0159393     0.0159393    0.00270982    0.00270982     0.0014666     0.0014666
        0.425     0.0160499     0.0160499    0.00273818    0.00273818    0.00148363    0.00148363
         0.43     0.0161564     0.0161563    0.00276536    0.00276536        0.0015        0.0015
        0.435     0.0162612     0.0162612    0.00279202    0.00279201    0.00151609    0.00151608
         0.44     0.0163633     0.0163633    0.00281799    0.00281799    0.00153176    0.00153176
        0.445     0.0164628     0.0164628    0.00284325    0.00284323      0.001547    0.00154698
         0.45     0.0165616     0.0165615    0.00286824    0.00286825    0.00156205    0.00156205
        0.455     0.0166592     0.0166591    0.00289285    0.00289284    0.00157685    0.00157684
         0.46     0.0167529     0.0167528    0.00291654    0.00291654    0.00159109    0.00159109
        0.465     0.0168383     0.0168383    0.00293828    0.00293827    0.00160417    0.00160417
         0.47     0.0169264     0.0169264    0.00296059    0.00296058    0.00161757    0.00161757
        0.475     0.0170151     0.0170151    0.00298297    0.00298296      0.001631      0.001631
         0.48      0.017102      0.017102    0.00300481    0.00300481    0.00164413    0.00164413
        0.485     0.0171867     0.0171867     0.0030261    0.00302609    0.00165698    0.00165698
         0.49     0.0172695     0.0172695    0.00304703    0.00304703    0.00166969    0.00166968
        0.495     0.0173516     0.0173516    0.00306779    0.00306779    0.00168242    0.00168241
          0.5     0.0174314     0.0174314    0.00308807    0.00308806    0.00169506    0.00169505
        0.505     0.0175099     0.0175099    0.00310797    0.00310796    0.00170763    0.00170762
         0.51     0.0175857     0.0175856     0.0031265    0.00312649    0.00171935    0.00171934
        0.515      0.017664      0.017664    0.00314721     0.0031472    0.00173371     0.0017337
         0.52     0.0177413     0.0177412    0.00316669    0.00316668    0.00174839    0.00174838
        0.525     0.0178132     0.0178132    0.00318409    0.00318409    0.00176385    0.00176385
         0.53     0.0178854     0.0178854    0.00320335    0.00320334    0.00176756    0.00176756
        0.535     0.0179564     0.0179563    0.00322225    0.00322225    0.00176855    0.00176855
         0.54     0.0180259     0.0180259    0.00323994    0.00323994    0.00177617    0.00177617
        0.545     0.0180948     0.0180948    0.00325734    0.00325733    0.00178565    0.00178564
         0.55     0.0181617     0.0181617     0.0032735     0.0032735    0.00179397    0.00179397
        0.555     0.0182295     0.0182295    0.00329119    0.00329119    0.00180431    0.00180431
         0.56     0.0182958     0.0182958    0.00330875    0.00330874    0.00181612    0.00181612
        0.565     0.0183614     0.0183613      0.003326    0.00332599     0.0018276    0.00182759
         0.57      0.018427      0.018427    0.00334298    0.00334297     0.0018383     0.0018383
        0.575     0.0184891     0.0184891    0.00335879    0.00335878    0.00184726    0.00184725
         0.58     0.0185525     0.0185525    0.00337481     0.0033748     0.0018563    0.00185629
        0.585      0.018614      0.018614    0.00339047    0.00339046    0.00186515    0.00186515
         0.59     0.0186756     0.0186756    0.00340611    0.00340611    0.00187402    0.00187402
        0.595     0.0187369     0.0187369    0.00342168    0.00342167    0.00188288    0.00188288
          0.6     0.0187967     0.0187967    0.00343693    0.00343692    0.00189159    0.00189158
        0.605     0.0188565     0.0188565    0.00345216    0.00345215    0.00190032    0.00190032
         0.61     0.0189178     0.0189178    0.00346773    0.00346772    0.00190929    0.00190928
        0.615     0.0189738     0.0189737    0.00348205    0.00348205    0.00191758    0.00191758
         0.62     0.0190321      0.019032    0.00349691     0.0034969    0.00192625    0.00192624
        0.625       0.01909       0.01909    0.00351166    0.00351166    0.00193494    0.00193494
         0.63     0.0191479     0.0191479    0.00352638    0.00352637    0.00194375    0.00194374
        0.635     0.0192047     0.0192047    0.00354083    0.00354082    0.00195262    0.00195262
         0.64     0.0192611     0.0192611    0.00355516    0.00355515    0.00196184    0.00196184
        0.645     0.0193172     0.0193171    0.00356932    0.00356932    0.00197195    0.00197194
         0.65     0.0193732     0.0193732    0.00358333    0.00358332    0.00198396    0.00198397
        0.655     0.0194304     0.0194303    0.00359841     0.0035984    0.00198533    0.00198533
         0.66     0.0194843     0.0194842    0.00361277    0.00361277    0.00198561    0.00198562
        0.665     0.0195398     0.0195398      0.003627    0.00362699    0.00199157    0.00199156
         0.67     0.0195951     0.0195951    0.00364094    0.00364093    0.00199984    0.00199983
        0.675     0.0196514     0.0196514    0.00365507    0.00365506    0.00200841     0.0020084
         0.68     0.0197052     0.0197052    0.00366868    0.00366867    0.00201666    0.00201665
        0.685     0.0197604     0.0197603    0.00368256    0.00368256      0.002025    0.00202499
         0.69     0.0198164     0.0198164    0.00369661    0.00369661    0.00203337    0.00203336
        0.695     0.0198707     0.0198707     0.0037103    0.00371029    0.00204146    0.00204145
          0.7     0.0199244     0.0199244    0.00372382    0.00372381    0.00204936    0.00204935
        0.705     0.0199799     0.0199799    0.00373768    0.00373767    0.00205737    0.00205737
         0.71     0.0200331     0.0200331    0.00375129    0.00375129    0.00206566    0.00206565
        0.715     0.0200883     0.0200882    0.00376532    0.00376531    0.00207419    0.00207419
         0.72      0.020144      0.020144    0.00377924    0.00377924    0.00208231    0.00208231
        0.725     0.0201961      0.020196    0.00379245    0.00379244    0.00209014    0.00209014
         0.73     0.0202507     0.0202507     0.0038062     0.0038062    0.00209835    0.00209834
        0.735     0.0203054     0.0203053    0.00381992    0.00381991    0.00210654    0.00210654
         0.74     0.0203602     0.0203602    0.00383356    0.00383355    0.00211467    0.00211466
        0.745     0.0204148     0.0204148    0.00384713    0.00384712    0.00212292    0.00212291
         0.75     0.0204696     0.0204696    0.00386068    0.00386067    0.00213158    0.00213157
        0.755     0.0205241     0.0205241    0.00387407    0.00387406    0.00214134    0.00214133
         0.76     0.0205782     0.0205782    0.00388754    0.00388753    0.00214808    0.00214808
        0.765     0.0206324     0.0206324    0.00390125    0.00390124    0.00215089    0.00215089
         0.77     0.0206889     0.0206889    0.00391633    0.00391632    0.00215344    0.00215344
        0.775     0.0207468     0.0207467    0.00393114    0.00393113    0.00216348    0.00216347
         0.78     0.0207998     0.0207998    0.00394441     0.0039444    0.00217185    0.00217184
        0.785     0.0208548     0.0208548    0.00395797    0.00395796       0.00218       0.00218
         0.79     0.0209102     0.0209102    0.00397163    0.00397162    0.00218812    0.00218811
        0.795     0.0209655     0.0209655    0.00398528    0.00398527    0.00219616    0.00219616
          0.8     0.0210211     0.0210211    0.00399902    0.00399901    0.00220421    0.00220421
        0.805      0.021077      0.021077    0.00401283    0.00401283    0.00221228    0.00221227
         0.81     0.0211333     0.0211333    0.00402677    0.00402676    0.00222039    0.00222038
        0.815     0.0211905     0.0211905    0.00404089    0.00404088     0.0022286    0.00222859
         0.82     0.0212472     0.0212472    0.00405493    0.00405493    0.00223677    0.00223676
        0.825     0.0213022     0.0213022    0.00406861    0.00406861    0.00224476    0.00224475
         0.83     0.0213586     0.0213586    0.00408261     0.0040826    0.00225298    0.00225298
        0.835     0.0214167     0.0214167    0.00409696    0.00409696    0.00226153    0.00226152
         0.84      0.021473      0.021473    0.00411095    0.00411094     0.0022701    0.00227009
        0.845     0.0215307     0.0215307    0.00412518    0.00412517     0.0022794    0.00227939
         0.85     0.0215905     0.0215905    0.00413978    0.00413977    0.00229004    0.00229005
        0.855     0.0216475     0.0216475    0.00415435    0.00415434    0.00229359    0.00229358
         0.86     0.0217048     0.0217048    0.00416887    0.00416887    0.00229661    0.00229661
        0.865     0.0217636     0.0217636    0.00418378    0.00418377    0.00230423    0.00230422
         0.87     0.0218203     0.0218203    0.00419804    0.00419804     0.0023131    0.00231309
        0.875     0.0218787     0.0218787    0.00421286    0.00421285    0.00232266    0.00232265
         0.88     0.0219381     0.0219381    0.00422753    0.00422752    0.00233129    0.00233129
        0.885     0.0219961     0.0219961    0.00424178    0.00424178    0.00233961     0.0023396
         0.89      0.022055      0.022055    0.00425645    0.00425644    0.00234813    0.00234812
        0.895     0.0221141     0.0221141    0.00427117    0.00427116    0.00235665    0.00235665
          0.9     0.0221748     0.0221748    0.00428624    0.00428623    0.00236537    0.00236536
        0.905     0.0222369     0.0222369    0.00430163    0.00430162    0.00237428    0.00237427
         0.91      0.022296      0.022296    0.00431641     0.0043164    0.00238288    0.00238287
        0.915     0.0223575     0.0223575    0.00433171     0.0043317    0.00239187    0.00239187
         0.92     0.0224185     0.0224185    0.00434689    0.00434688    0.00240104    0.00240103
        0.925     0.0224806     0.0224806    0.00436228    0.00436227    0.00241101      0.002411
         0.93     0.0225492     0.0225492    0.00437914    0.00437913    0.00242043    0.00242044
        0.935     0.0226029     0.0226029    0.00439308    0.00439307    0.00242532    0.00242532
         0.94     0.0226645     0.0226645    0.00440864    0.00440864    0.00242938    0.00242938
        0.945     0.0227281     0.0227281    0.00442479    0.00442478    0.00243909    0.00243909
         0.95     0.0227978     0.0227978    0.00444255    0.00444254    0.00245018    0.00245017
        0.955     0.0228634     0.0228633    0.00445942    0.00445941    0.00246123    0.00246123
         0.96     0.0229244     0.0229244    0.00447477    0.00447476    0.00247004    0.00247003
        0.965     0.0229918     0.0229918    0.00449148    0.00449147    0.00247957    0.00247957
         0.97     0.0230508     0.0230508    0.00450649    0.00450648    0.00248815    0.00248814
        0.975     0.0231158     0.0231157     0.0045228    0.00452279    0.00249749    0.00249748
         0.98     0.0231851     0.0231851    0.00454006    0.00454006    0.00250747    0.00250746
        0.985     0.0232456     0.0232456    0.00455551     0.0045555    0.00251656    0.00251655
         0.99     0.0233111     0.0233111    0.00457203    0.00457202    0.00252673    0.00252672
        0.995     0.0233772     0.0233772    0.00458875    0.00458874    0.00253654    0.00253655
            1      0.023443      0.023443    0.00460565    0.00460565    0.00254385    0.00254385
        1.005     0.0235109     0.0235109    0.00462308    0.00462308     0.0025506    0.00255061
         1.01     0.0235763     0.0235763    0.00463976    0.00463975    0.00255998    0.00255997
        1.015     0.0236461     0.0236461    0.00465739    0.00465738    0.00257021     0.0025702
         1.02     0.0237095     0.0237095    0.00467372    0.00467372    0.00257968    0.00257967
        1.025     0.0237804     0.0237804    0.00469175    0.00469174    0.00259011     0.0025901
         1.03     0.0238468     0.0238468    0.00470879    0.00470878    0.00259994    0.00259994
        1.035     0.0239142     0.0239142    0.00472614    0.00472614    0.00261002    0.00261001
         1.04     0.0239817     0.0239817    0.00474356    0.00474355    0.00262027    0.00262026
        1.045     0.0240494     0.0240494    0.00476106    0.00476105    0.00263098    0.00263096
         1.05     0.0241166     0.0241166    0.00477853    0.00477852     0.0026405    0.00264051
        1.055     0.0241853     0.0241853    0.00479645    0.00479644    0.00264931    0.00264931
         1.06     0.0242531     0.0242531     0.0048143     0.0048143    0.00265719    0.00265719
        1.065     0.0243213     0.0243213    0.00483206    0.00483205     0.0026674    0.00266739
         1.07     0.0243919     0.0243918    0.00485042    0.00485041      0.002678    0.00267799
        1.075     0.0244544     0.0244544    0.00486701      0.004867    0.00268754    0.00268753
         1.08     0.0245174     0.0245174    0.00488373    0.00488372    0.00269715    0.00269714
        1.085     0.0245868     0.0245867     0.0049019    0.00490189    0.00270765    0.00270764
         1.09     0.0246599     0.0246599    0.00492083    0.00492082    0.00271897    0.00271894
        1.095     0.0247232     0.0247232    0.00493797    0.00493797    0.00272741    0.00272743
          1.1     0.0247919     0.0247919    0.00495669    0.00495669    0.00273727    0.00273729
        1.105     0.0248663     0.0248663    0.00497665    0.00497664    0.00274856    0.00274855
         1.11     0.0249285     0.0249285    0.00499375    0.00499374    0.00275832    0.00275831
        1.115     0.0250023     0.0250023    0.00501324    0.00501323     0.0027694    0.00276939
         1.12     0.0250644     0.0250644    0.00503048    0.00503047     0.0027795    0.00277949
        1.125     0.0251333     0.0251333    0.00504932    0.00504931    0.00279073    0.00279074
         1.13     0.0252027     0.0252027    0.00506839    0.00506839    0.00280146    0.00280145
        1.135     0.0252773     0.0252773    0.00508835    0.00508834    0.00281193    0.00281193
         1.14     0.0253389     0.0253389    0.00510554    0.00510553    0.00282149    0.00282148
        1.145     0.0254071     0.0254071    0.00512415    0.00512414    0.00283198    0.00283196
         1.15     0.0254762     0.0254762    0.00514306    0.00514306    0.00284244    0.00284245
        1.155     0.0255435     0.0255435     0.0051616     0.0051616    0.00285246    0.00285248
         1.16     0.0256105     0.0256105    0.00518015    0.00518014    0.00286256    0.00286253
        1.165     0.0256764     0.0256764    0.00519844    0.00519844    0.00287273    0.00287274
         1.17      0.025746      0.025746    0.00521777    0.00521777    0.00288343    0.00288344
        1.175     0.0258167     0.0258167    0.00523741     0.0052374    0.00289438    0.00289437
         1.18     0.0258823     0.0258823    0.00525603    0.00525603    0.00290475    0.00290475
        1.185     0.0259567     0.0259567    0.00527658    0.00527657    0.00291624    0.00291623
         1.19     0.0260183     0.0260183    0.00529453    0.00529453    0.00292623    0.00292622
        1.195     0.0260903     0.0260903    0.00531472    0.00531471     0.0029375     0.0029375
          1.2     0.0261536     0.0261536    0.00533314    0.00533313    0.00294776    0.00294776
        1.205     0.0262222     0.0262222    0.00535278    0.00535277    0.00295873    0.00295872
         1.21     0.0262876     0.0262876     0.0053718    0.00537179    0.00296934    0.00296933
        1.215     0.0263545     0.0263545    0.00539119    0.00539119    0.00298016    0.00298015
         1.22     0.0264222     0.0264222    0.00541076    0.00541076    0.00299107    0.00299106
        1.225       0.02649       0.02649    0.00543046    0.00543045    0.00300207    0.00300207
         1.23     0.0265554     0.0265554    0.00545018    0.00545017    0.00301336    0.00301336
        1.235     0.0266188     0.0266188    0.00546951     0.0054695    0.00302436    0.00302436
         1.24      0.026688      0.026688    0.00549014    0.00549014    0.00303588    0.00303587
        1.245     0.0267541     0.0267541    0.00550985    0.00550985    0.00304676    0.00304675
         1.25     0.0268204     0.0268204     0.0055297    0.00552969    0.00305772    0.00305771
        1.255     0.0268866     0.0268866    0.00554962    0.00554962    0.00306872    0.00306871
         1.26     0.0269459     0.0269459    0.00556804    0.00556803    0.00307882    0.00307882
        1.265     0.0270124     0.0270124    0.00558802    0.00558801    0.00308986    0.00308985
         1.27     0.0270736     0.0270736    0.00560727    0.00560727    0.00310069    0.00310069
        1.275     0.0271306     0.0271306    0.00562579    0.00562578    0.00311114    0.00311113
         1.28     0.0271949     0.0271949    0.00564584    0.00564583    0.00312238    0.00312237
        1.285     0.0272598     0.0272598    0.00566604    0.00566603    0.00313368    0.00313367
         1.29       0.02732       0.02732    0.00568539    0.00568539    0.00314453    0.00314453
        1.295     0.0273814     0.0273814      0.005705      0.005705     0.0031554    0.00315539
          1.3     0.0274435     0.0274435    0.00572485    0.00572484    0.00316639    0.00316639
        1.305     0.0275058     0.0275058    0.00574484    0.00574483    0.00317748    0.00317747
         1.31     0.0275751     0.0275751    0.00576637    0.00576637    0.00318946    0.00318945
        1.315      0.027627      0.027627    0.00578438    0.00578438     0.0031994    0.00319939
         1.32     0.0276839     0.0276839    0.00580353    0.00580352       0.00321    0.00320999
        1.325     0.0277441     0.0277441    0.00582342    0.00582342      0.003221      0.003221
         1.33     0.0278041     0.0278041    0.00584333    0.00584332    0.00323197    0.00323197
        1.335     0.0278592     0.0278592    0.00586215    0.00586215    0.00324218    0.00324217
         1.34     0.0279197     0.0279197    0.00588297    0.00588297    0.00325417    0.00325417
        1.345     0.0279801     0.0279801    0.00590386    0.00590385    0.00326623    0.00326623
         1.35      0.028038      0.028038    0.00592455    0.00592455     0.0032785     0.0032785
        1.355     0.0280954     0.0280954    0.00594442    0.00594442    0.00328942    0.00328942
         1.36     0.0281591     0.0281591     0.0059657    0.00596569    0.00330113    0.00330113
        1.365     0.0282074     0.0282074    0.00598394    0.00598394    0.00331113    0.00331113
         1.37     0.0282627     0.0282627    0.00600378    0.00600378    0.00332207    0.00332206
        1.375     0.0283195     0.0283195    0.00602399    0.00602398    0.00333323    0.00333322
         1.38     0.0283709     0.0283709    0.00604302    0.00604302    0.00334371     0.0033437
        1.385     0.0284265     0.0284265    0.00606322    0.00606321    0.00335489    0.00335489
         1.39       0.02848       0.02848    0.00608314    0.00608313    0.00336593    0.00336592
        1.395     0.0285334     0.0285334    0.00610311     0.0061031      0.003377    0.00337699
          1.4     0.0285876     0.0285876    0.00612337    0.00612337    0.00338824    0.00338824
        1.405     0.0286416     0.0286416    0.00614371     0.0061437    0.00339953    0.00339953
         1.41     0.0286987     0.0286987    0.00616478    0.00616477    0.00341125    0.00341124
        1.415     0.0287466     0.0287466    0.00618407    0.00618406    0.00342194    0.00342193
         1.42      0.028799      0.028799     0.0062044    0.00620439    0.00343323    0.00343322
        1.425     0.0288553     0.0288553    0.00622561     0.0062256    0.00344501      0.003445
         1.43     0.0289014     0.0289014    0.00624473    0.00624473    0.00345555    0.00345554
        1.435     0.0289564     0.0289564    0.00626618    0.00626617    0.00346755    0.00346755
         1.44     0.0290045     0.0290045    0.00628652    0.00628651    0.00347912    0.00347911
        1.445     0.0290524     0.0290524    0.00630702    0.00630701    0.00349084    0.00349083
         1.45     0.0290914     0.0290914    0.00632516    0.00632515    0.00350085    0.00350085
        1.455     0.0291391     0.0291391    0.00634524    0.00634523    0.00351195    0.00351194
         1.46     0.0291873     0.0291873    0.00636558    0.00636557     0.0035232     0.0035232
        1.465     0.0292371     0.0292371     0.0063864     0.0063864    0.00353474    0.00353473
         1.47     0.0292845     0.0292845    0.00640686    0.00640685    0.00354607    0.00354606
        1.475     0.0293317     0.0293317    0.00642733    0.00642732     0.0035574     0.0035574
         1.48      0.029373      0.029373    0.00644679    0.00644679    0.00356817    0.00356817
        1.485     0.0294189     0.0294189    0.00646733    0.00646732    0.00357956    0.00357956
         1.49     0.0294637     0.0294637    0.00648773    0.00648773    0.00359088    0.00359088
        1.495     0.0295083     0.0295083    0.00650822    0.00650821    0.00360224    0.00360224
          1.5     0.0295525     0.0295525    0.00652876    0.00652876    0.00361364    0.00361364
        1.505     0.0295969     0.0295969    0.00654944    0.00654943    0.00362512    0.00362511
         1.51     0.0296401     0.0296401    0.00656994    0.00656993    0.00363651     0.0036365
        1.515     0.0296914     0.0296914    0.00659228    0.00659228    0.00364884    0.00364884