# Probe 0 (5 -0.5 0)
# Probe 1 (5 0.5 0)
#       Probe             0             1
#        Time
        0.005             (0.994831 0.00361998 -7.88093e-21)             (0.994831 -0.00361998 -4.59041e-20)
         0.01             (0.995703 0.00114893 1.65642e-21)             (0.995703 -0.00114893 8.30506e-21)
        0.015             (0.995517 0.0014414 -3.32092e-22)             (0.995517 -0.0014414 -1.66161e-21)
         0.02             (0.995399 0.00154686 -1.72315e-22)             (0.995399 -0.00154686 -9.58001e-22)
        0.025             (0.995296 0.00162097 -1.45191e-22)             (0.995296 -0.00162097 -8.08088e-22)
         0.03             (0.995205 0.00168054 -1.24331e-22)             (0.995205 -0.00168054 -6.98711e-22)
        0.035             (0.995122 0.00173128 -1.08413e-22)             (0.995122 -0.00173128 -6.11412e-22)
         0.04             (0.995046 0.00177656 -9.5108e-23)             (0.995046 -0.00177656 -5.4112e-22)
        0.045             (0.994977 0.00181509 -8.53634e-23)             (0.994977 -0.00181509 -4.81298e-22)
         0.05             (0.994914 0.00184798 -7.66114e-23)             (0.994914 -0.00184798 -4.30065e-22)
        0.055             (0.994855 0.00187621 -6.8684e-23)             (0.994855 -0.00187621 -3.87166e-22)
         0.06             (0.9948 0.00190037 -6.19987e-23)             (0.9948 -0.00190037 -3.49655e-22)
        0.065             (0.994747 0.00192187 -5.56288e-23)             (0.994747 -0.00192187 -3.17183e-22)
         0.07             (0.994698 0.00194071 -5.05455e-23)             (0.994698 -0.00194071 -2.88022e-22)
        0.075             (0.994652 0.00195746 -4.61438e-23)             (0.994652 -0.00195746 -2.6236e-22)
         0.08             (0.994608 0.00197257 -4.22635e-23)             (0.994608 -0.00197257 -2.39607e-22)
        0.085             (0.994566 0.00198637 -3.87724e-23)             (0.994566 -0.00198637 -2.19294e-22)
         0.09             (0.994525 0.00199915 -3.56715e-23)             (0.994525 -0.00199915 -2.0099e-22)
        0.095             (0.994487 0.00201124 -3.31606e-23)             (0.994487 -0.00201124 -1.8426e-22)
          0.1             (0.994451 0.00202278 -3.09362e-23)             (0.994451 -0.00202278 -1.68989e-22)
        0.105             (0.994416 0.00203381 -2.86675e-23)             (0.994416 -0.00203381 -1.5513e-22)
         0.11             (0.994382 0.00204446 -2.64435e-23)             (0.994382 -0.00204446 -1.42379e-22)
        0.115             (0.994349 0.00205461 -2.45122e-23)             (0.994349 -0.00205461 -1.3093e-22)
         0.12             (0.994318 0.00206422 -2.28206e-23)             (0.994318 -0.00206422 -1.20555e-22)
        0.125             (0.994287 0.00207324 -2.14486e-23)             (0.994287 -0.00207324 -1.11183e-22)
         0.13             (0.994258 0.00208206 -1.99311e-23)             (0.994258 -0.00208206 -1.01989e-22)
        0.135             (0.994229 0.00209069 -1.83941e-23)             (0.994229 -0.00209069 -9.34028e-23)
         0.14             (0.994201 0.00209916 -1.69433e-23)             (0.994201 -0.00209916 -8.54213e-23)
        0.145             (0.994174 0.00210746 -1.55532e-23)             (0.994174 -0.00210746 -7.80074e-23)
         0.15             (0.994147 0.00211565 -1.43519e-23)             (0.994147 -0.00211565 -7.10354e-23)
        0.155             (0.994121 0.00212376 -1.33595e-23)             (0.994121 -0.00212376 -6.44306e-23)
         0.16             (0.994096 0.00213176 -1.22897e-23)             (0.994096 -0.00213176 -5.83312e-23)
        0.165             (0.994071 0.00213964 -1.12541e-23)             (0.994071 -0.00213964 -5.26321e-23)
         0.17             (0.994047 0.0021474 -1.02775e-23)             (0.994047 -0.0021474 -4.72757e-23)
        0.175             (0.994023 0.00215506 -9.35687e-24)             (0.994023 -0.00215506 -4.22305e-23)
         0.18             (0.993999 0.00216262 -8.48954e-24)             (0.993999 -0.00216262 -3.74796e-23)
        0.185             (0.993976 0.00217009 -7.67053e-24)             (0.993976 -0.00217009 -3.29956e-23)
         0.19             (0.993953 0.00217746 -6.89591e-24)             (0.993953 -0.00217746 -2.87587e-23)
        0.195             (0.993931 0.00218475 -6.16262e-24)             (0.993931 -0.00218475 -2.47542e-23)
          0.2             (0.993909 0.00219195 -5.46653e-24)             (0.993909 -0.00219195 -2.09634e-23)
        0.205             (0.993887 0.00219908 -4.80574e-24)             (0.993887 -0.00219908 -1.73821e-23)
         0.21             (0.993865 0.00220613 -4.17398e-24)             (0.993865 -0.00220613 -1.39841e-23)
        0.215             (0.993844 0.00221312 -3.60268e-24)             (0.993844 -0.00221312 -1.07976e-23)
         0.22             (0.993823 0.00222004 -3.00928e-24)             (0.993823 -0.00222004 -7.76901e-24)
        0.225             (0.993802 0.00222691 -2.52968e-24)             (0.993802 -0.00222691 -4.82994e-24)
         0.23             (0.993781 0.00223372 -2.02557e-24)             (0.993781 -0.00223372 -2.08803e-24)
        0.235             (0.993761 0.0022405 -1.52509e-24)             (0.993761 -0.0022405 5.49587e-25)
         0.24             (0.993741 0.00224718 -1.10049e-24)             (0.993741 -0.00224718 2.96121e-24)
        0.245             (0.993721 0.0022538 -6.67037e-25)             (0.993721 -0.0022538 5.31999e-24)
         0.25             (0.993701 0.00226037 -2.47461e-25)             (0.993701 -0.00226037 7.56547e-24)
        0.255             (0.993681 0.00226689 1.51129e-25)             (0.993681 -0.00226689 9.70305e-24)
         0.26             (0.993661 0.00227337 5.288e-25)             (0.993661 -0.00227337 1.17379e-23)
        0.265             (0.993642 0.0022798 8.86996e-25)             (0.993642 -0.0022798 1.36785e-23)
         0.27             (0.993623 0.00228618 1.22663e-24)             (0.993623 -0.00228618 1.55316e-23)
        0.275             (0.993603 0.00229252 1.54563e-24)             (0.993603 -0.00229252 1.72897e-23)
         0.28             (0.993584 0.00229884 1.83981e-24)             (0.993584 -0.00229884 1.89433e-23)
        0.285             (0.993565 0.00230514 2.11021e-24)             (0.993565 -0.00230514 2.05144e-23)
         0.29             (0.993546 0.00231144 2.34882e-24)             (0.993546 -0.00231144 2.20446e-23)
        0.295             (0.993527 0.00231776 2.59004e-24)             (0.993527 -0.00231776 2.34783e-23)
          0.3             (0.993509 0.00232407 2.89103e-24)             (0.993509 -0.00232407 2.47889e-23)
        0.305             (0.99349 0.00233042 3.12447e-24)             (0.99349 -0.00233042 2.60649e-23)
         0.31             (0.993471 0.0023368 3.33167e-24)             (0.993471 -0.0023368 2.72885e-23)
        0.315             (0.993453 0.00234324 3.51781e-24)             (0.993453 -0.00234324 2.84527e-23)
         0.32             (0.993434 0.00234975 3.66364e-24)             (0.993434 -0.00234975 2.95581e-23)
        0.325             (0.993416 0.00235633 3.87125e-24)             (0.993416 -0.00235633 3.06257e-23)
         0.33             (0.993397 0.00236296 4.10716e-24)             (0.993397 -0.00236296 3.1654e-23)
        0.335             (0.993379 0.00236968 4.2743e-24)             (0.993379 -0.00236968 3.26173e-23)
         0.34             (0.99336 0.00237647 4.42768e-24)             (0.99336 -0.00237647 3.35365e-23)
        0.345             (0.993342 0.00238336 4.57086e-24)             (0.993342 -0.00238336 3.44131e-23)
         0.35             (0.993323 0.00239034 4.70484e-24)             (0.993323 -0.00239034 3.52563e-23)
        0.355             (0.993305 0.00239744 4.82601e-24)             (0.993305 -0.00239744 3.60619e-23)
         0.36             (0.993287 0.00240466 4.92291e-24)             (0.993287 -0.00240466 3.68412e-23)
        0.365             (0.993269 0.00241202 5.05741e-24)             (0.993269 -0.00241202 3.75354e-23)
         0.37             (0.99325 0.00241956 5.19942e-24)             (0.99325 -0.00241956 3.81797e-23)
        0.375             (0.993232 0.00242737 5.2876e-24)             (0.993232 -0.00242737 3.87996e-23)
         0.38             (0.993214 0.00243573 5.31416e-24)             (0.993214 -0.00243573 3.93304e-23)
        0.385             (0.993195 0.00244418 5.4081e-24)             (0.993195 -0.00244418 3.99487e-23)
         0.39             (0.993177 0.00245179 5.65183e-24)             (0.993177 -0.00245179 4.07851e-23)
        0.395             (0.993159 0.00245798 5.99175e-24)             (0.993159 -0.00245798 4.17573e-23)
          0.4             (0.993141 0.00246422 6.08948e-24)             (0.993141 -0.00246422 4.23378e-23)
        0.405             (0.993122 0.00247053 6.17779e-24)             (0.993122 -0.00247053 4.28882e-23)
         0.41             (0.993104 0.00247692 6.26223e-24)             (0.993104 -0.00247692 4.34248e-23)
        0.415             (0.993086 0.00248338 6.34154e-24)             (0.993086 -0.00248338 4.39475e-23)
         0.42             (0.993067 0.00248991 6.41079e-24)             (0.993067 -0.00248991 4.44627e-23)
        0.425             (0.993049 0.0024965 6.50011e-24)             (0.993049 -0.0024965 4.49467e-23)
         0.43             (0.993031 0.00250314 6.60387e-24)             (0.993031 -0.00250314 4.5396e-23)
        0.435             (0.993012 0.00250982 6.69758e-24)             (0.993012 -0.00250982 4.58453e-23)
         0.44             (0.992994 0.00251656 6.77035e-24)             (0.992994 -0.00251656 4.62987e-23)
        0.445             (0.992976 0.00252334 6.83993e-24)             (0.992976 -0.00252334 4.67407e-23)
         0.45             (0.992957 0.00253016 6.90805e-24)             (0.992957 -0.00253016 4.71766e-23)
        0.455             (0.992939 0.00253703 6.97459e-24)             (0.992939 -0.00253703 4.76059e-23)
         0.46             (0.99292 0.00254395 7.03742e-24)             (0.99292 -0.00254395 4.80187e-23)
        0.465             (0.992902 0.00255092 7.09282e-24)             (0.992902 -0.00255092 4.83982e-23)
         0.47             (0.992883 0.00255793 7.14528e-24)             (0.992883 -0.00255793 4.87895e-23)
        0.475             (0.992865 0.00256499 7.20361e-24)             (0.992865 -0.00256499 4.91753e-23)
         0.48             (0.992846 0.00257211 7.27357e-24)             (0.992846 -0.00257211 4.95386e-23)
        0.485             (0.992828 0.00257927 7.34905e-24)             (0.992828 -0.00257927 4.98854e-23)
         0.49             (0.992809 0.0025865 7.39913e-24)             (0.992809 -0.0025865 5.02466e-23)
        0.495             (0.99279 0.00259379 7.44753e-24)             (0.99279 -0.00259379 5.06059e-23)
          0.5             (0.992772 0.00260118 7.49375e-24)             (0.992772 -0.00260118 5.0957e-23)
        0.505             (0.992753 0.00260867 7.53489e-24)             (0.992753 -0.00260867 5.13005e-23)
         0.51             (0.992734 0.0026163 7.56785e-24)             (0.992734 -0.0026163 5.16358e-23)
        0.515             (0.992716 0.00262415 7.58508e-24)             (0.992716 -0.00262415 5.19473e-23)
         0.52             (0.992697 0.00263237 7.61871e-24)             (0.992697 -0.00263237 5.23012e-23)
        0.525             (0.992678 0.00264122 7.59977e-24)             (0.992678 -0.00264122 5.25517e-23)
         0.53             (0.992659 0.00264906 7.74541e-24)             (0.992659 -0.00264906 5.29255e-23)
        0.535             (0.99264 0.00265566 7.91161e-24)             (0.99264 -0.00265566 5.32862e-23)
         0.54             (0.992621 0.00266204 7.97959e-24)             (0.992621 -0.00266204 5.35973e-23)
        0.545             (0.992603 0.00266845 8.0145e-24)             (0.992603 -0.00266845 5.38961e-23)
         0.55             (0.992584 0.00267495 8.04329e-24)             (0.992584 -0.00267495 5.41762e-23)
        0.555             (0.992565 0.00268151 8.07849e-24)             (0.992565 -0.00268151 5.44726e-23)
         0.56             (0.992546 0.00268812 8.17343e-24)             (0.992546 -0.00268812 5.47575e-23)
        0.565             (0.992527 0.00269476 8.28259e-24)             (0.992527 -0.00269476 5.50752e-23)
         0.57             (0.992507 0.00270144 8.36711e-24)             (0.992507 -0.00270144 5.5366e-23)
        0.575             (0.992488 0.00270817 8.41036e-24)             (0.992488 -0.00270817 5.56341e-23)
         0.58             (0.992469 0.00271493 8.45369e-24)             (0.992469 -0.00271493 5.59057e-23)
        0.585             (0.99245 0.00272173 8.49307e-24)             (0.99245 -0.00272173 5.61753e-23)
         0.59             (0.99243 0.00272856 8.53457e-24)             (0.99243 -0.00272856 5.64443e-23)
        0.595             (0.992411 0.00273542 8.57656e-24)             (0.992411 -0.00273542 5.6713e-23)
          0.6             (0.992392 0.00274232 8.61843e-24)             (0.992392 -0.00274232 5.69774e-23)
        0.605             (0.992372 0.00274924 8.66134e-24)             (0.992372 -0.00274924 5.72425e-23)
         0.61             (0.992353 0.00275619 8.70639e-24)             (0.992353 -0.00275619 5.75145e-23)
        0.615             (0.992333 0.00276316 8.7491e-24)             (0.992333 -0.00276316 5.77665e-23)
         0.62             (0.992314 0.00277015 8.79483e-24)             (0.992314 -0.00277015 5.80294e-23)
        0.625             (0.992294 0.00277716 8.84221e-24)             (0.992294 -0.00277716 5.82933e-23)
         0.63             (0.992275 0.00278419 8.89215e-24)             (0.992275 -0.00278419 5.85603e-23)
        0.635             (0.992255 0.00279122 8.94546e-24)             (0.992255 -0.00279122 5.88288e-23)
         0.64             (0.992235 0.00279826 9.00583e-24)             (0.992235 -0.00279826 5.91065e-23)
        0.645             (0.992216 0.00280527 9.08236e-24)             (0.992216 -0.00280527 5.94072e-23)
         0.65             (0.992196 0.00281223 9.19174e-24)             (0.992196 -0.00281223 5.97571e-23)
        0.655             (0.992176 0.0028193 9.13589e-24)             (0.992176 -0.0028193 5.98579e-23)
         0.66             (0.992156 0.00282652 9.05802e-24)             (0.992156 -0.00282652 5.99175e-23)
        0.665             (0.992136 0.00283383 9.05839e-24)             (0.992136 -0.00283383 6.01016e-23)
         0.67             (0.992116 0.0028412 9.09351e-24)             (0.992116 -0.0028412 6.03379e-23)
        0.675             (0.992096 0.00284861 9.13259e-24)             (0.992096 -0.00284861 6.05829e-23)
         0.68             (0.992076 0.00285607 9.17058e-24)             (0.992076 -0.00285607 6.08196e-23)
        0.685             (0.992056 0.00286356 9.20901e-24)             (0.992056 -0.00286356 6.10605e-23)
         0.69             (0.992036 0.00287109 9.24743e-24)             (0.992036 -0.00287109 6.13037e-23)
        0.695             (0.992016 0.00287865 9.28412e-24)             (0.992016 -0.00287865 6.15399e-23)
          0.7             (0.991996 0.00288624 9.31916e-24)             (0.991996 -0.00288624 6.17721e-23)
        0.705             (0.991976 0.00289385 9.3539e-24)             (0.991976 -0.00289385 6.2009e-23)
         0.71             (0.991955 0.00290149 9.39666e-24)             (0.991955 -0.00290149 6.22491e-23)
        0.715             (0.991935 0.00290915 9.44108e-24)             (0.991935 -0.00290915 6.24967e-23)
         0.72             (0.991915 0.00291683 9.47841e-24)             (0.991915 -0.00291683 6.27369e-23)
        0.725             (0.991894 0.00292454 9.51617e-24)             (0.991894 -0.00292454 6.29679e-23)
         0.73             (0.991874 0.00293226 9.55609e-24)             (0.991874 -0.00293226 6.32094e-23)
        0.735             (0.991853 0.00293999 9.59589e-24)             (0.991853 -0.00293999 6.34519e-23)
         0.74             (0.991833 0.00294775 9.63429e-24)             (0.991833 -0.00294775 6.36938e-23)
        0.745             (0.991812 0.00295551 9.67415e-24)             (0.991812 -0.00295551 6.39399e-23)
         0.75             (0.991792 0.00296328 9.71887e-24)             (0.991792 -0.00296328 6.41971e-23)
        0.755             (0.991771 0.00297102 9.77857e-24)             (0.991771 -0.00297102 6.44835e-23)
         0.76             (0.99175 0.0029788 9.78602e-24)             (0.99175 -0.0029788 6.47042e-23)
        0.765             (0.991729 0.0029867 9.7267e-24)             (0.991729 -0.0029867 6.4836e-23)
         0.77             (0.991709 0.00299472 9.7163e-24)             (0.991709 -0.00299472 6.49074e-23)
        0.775             (0.991688 0.00300273 9.82804e-24)             (0.991688 -0.00300273 6.51496e-23)
         0.78             (0.991667 0.00301076 9.88628e-24)             (0.991667 -0.00301076 6.53823e-23)
        0.785             (0.991646 0.00301879 9.9274e-24)             (0.991646 -0.00301879 6.56228e-23)
         0.79             (0.991625 0.00302684 9.96636e-24)             (0.991625 -0.00302684 6.58641e-23)
        0.795             (0.991603 0.00303491 1.00045e-23)             (0.991603 -0.00303491 6.61042e-23)
          0.8             (0.991582 0.00304299 1.00424e-23)             (0.991582 -0.00304299 6.63448e-23)
        0.805             (0.991561 0.00305109 1.00804e-23)             (0.991561 -0.00305109 6.65859e-23)
         0.81             (0.99154 0.0030592 1.01186e-23)             (0.99154 -0.0030592 6.68285e-23)
        0.815             (0.991518 0.00306733 1.01575e-23)             (0.991518 -0.00306733 6.70741e-23)
         0.82             (0.991497 0.00307547 1.01963e-23)             (0.991497 -0.00307547 6.73185e-23)
        0.825             (0.991476 0.00308363 1.02345e-23)             (0.991476 -0.00308363 6.75573e-23)
         0.83             (0.991454 0.00309181 1.02745e-23)             (0.991454 -0.00309181 6.78028e-23)
        0.835             (0.991433 0.0031 1.03171e-23)             (0.991433 -0.0031 6.80573e-23)
         0.84             (0.991411 0.00310819 1.0362e-23)             (0.991411 -0.00310819 6.83111e-23)
        0.845             (0.99139 0.00311639 1.0416e-23)             (0.99139 -0.00311639 6.85834e-23)
         0.85             (0.991368 0.00312457 1.04872e-23)             (0.991368 -0.00312457 6.88898e-23)
        0.855             (0.991346 0.00313285 1.04533e-23)             (0.991346 -0.00313285 6.90264e-23)
         0.86             (0.991325 0.00314124 1.04113e-23)             (0.991325 -0.00314124 6.91518e-23)
        0.865             (0.991303 0.00314966 1.04409e-23)             (0.991303 -0.00314966 6.9382e-23)
         0.87             (0.991281 0.00315809 1.04935e-23)             (0.991281 -0.00315809 6.96395e-23)
        0.875             (0.991259 0.00316653 1.05556e-23)             (0.991259 -0.00316653 6.99128e-23)
         0.88             (0.991237 0.00317498 1.05985e-23)             (0.991237 -0.00317498 7.01709e-23)
        0.885             (0.991215 0.00318344 1.06387e-23)             (0.991215 -0.00318344 7.04202e-23)
         0.89             (0.991193 0.00319192 1.06793e-23)             (0.991193 -0.00319192 7.06762e-23)
        0.895             (0.991171 0.00320041 1.07193e-23)             (0.991171 -0.00320041 7.09324e-23)
          0.9             (0.991149 0.00320892 1.07599e-23)             (0.991149 -0.00320892 7.11947e-23)
        0.905             (0.991127 0.00321745 1.08011e-23)             (0.991127 -0.00321745 7.14631e-23)
         0.91             (0.991104 0.00322599 1.08408e-23)             (0.991104 -0.00322599 7.17228e-23)
        0.915             (0.991082 0.00323455 1.08822e-23)             (0.991082 -0.00323455 7.19935e-23)
         0.92             (0.99106 0.00324312 1.09257e-23)             (0.99106 -0.00324312 7.22689e-23)
        0.925             (0.991037 0.00325169 1.09782e-23)             (0.991037 -0.00325169 7.25668e-23)
         0.93             (0.991015 0.00326029 1.10112e-23)             (0.991015 -0.00326029 7.28579e-23)
        0.935             (0.990993 0.00326895 1.09886e-23)             (0.990993 -0.00326895 7.30362e-23)
         0.94             (0.99097 0.00327773 1.09289e-23)             (0.99097 -0.00327773 7.32129e-23)
        0.945             (0.990948 0.0032865 1.0997e-23)             (0.990948 -0.0032865 7.34863e-23)
         0.95             (0.990925 0.00329527 1.109e-23)             (0.990925 -0.00329527 7.37865e-23)
        0.955             (0.990902 0.00330401 1.12254e-23)             (0.990902 -0.00330401 7.40513e-23)
         0.96             (0.99088 0.00331277 1.12702e-23)             (0.99088 -0.00331277 7.43131e-23)
        0.965             (0.990857 0.00332155 1.13166e-23)             (0.990857 -0.00332155 7.45983e-23)
         0.97             (0.990834 0.00333036 1.13582e-23)             (0.990834 -0.00333036 7.48543e-23)
        0.975             (0.990811 0.00333919 1.14042e-23)             (0.990811 -0.00333919 7.51332e-23)
         0.98             (0.990788 0.00334804 1.14542e-23)             (0.990788 -0.00334804 7.54301e-23)
        0.985             (0.990765 0.00335691 1.15016e-23)             (0.990765 -0.00335691 7.56994e-23)
         0.99             (0.990742 0.00336579 1.15588e-23)             (0.990742 -0.00336579 7.59981e-23)
        0.995             (0.990719 0.00337469 1.16099e-23)             (0.990719 -0.00337469 7.62888e-23)
            1             (0.990695 0.00338365 1.16237e-23)             (0.990695 -0.00338365 7.65197e-23)
        1.005             (0.990672 0.00339268 1.16269e-23)             (0.990672 -0.00339268 7.67388e-23)
         1.01             (0.990649 0.00340173 1.16725e-23)             (0.990649 -0.00340173 7.70181e-23)
        1.015             (0.990626 0.0034108 1.17252e-23)             (0.990626 -0.0034108 7.7321e-23)
         1.02             (0.990602 0.00341989 1.17742e-23)             (0.990602 -0.00341989 7.76013e-23)
        1.025             (0.990579 0.003429 1.18278e-23)             (0.990579 -0.003429 7.79101e-23)
         1.03             (0.990555 0.00343813 1.18783e-23)             (0.990555 -0.00343813 7.82014e-23)
        1.035             (0.990532 0.00344728 1.19307e-23)             (0.990532 -0.00344728 7.84989e-23)
         1.04             (0.990508 0.00345644 1.19854e-23)             (0.990508 -0.00345644 7.88005e-23)
        1.045             (0.990485 0.00346562 1.20465e-23)             (0.990485 -0.00346562 7.91132e-23)
         1.05             (0.990461 0.00347483 1.20908e-23)             (0.990461 -0.00347483 7.93976e-23)
        1.055             (0.990437 0.00348408 1.21224e-23)             (0.990437 -0.00348408 7.96656e-23)
         1.06             (0.990413 0.00349339 1.21414e-23)             (0.990413 -0.00349339 7.99105e-23)
        1.065             (0.99039 0.00350272 1.21952e-23)             (0.99039 -0.00350272 8.02108e-23)
         1.07             (0.990366 0.00351207 1.22518e-23)             (0.990366 -0.00351207 8.05213e-23)
        1.075             (0.990342 0.00352145 1.23038e-23)             (0.990342 -0.00352145 8.07992e-23)
         1.08             (0.990318 0.00353086 1.23576e-23)             (0.990318 -0.00353086 8.10769e-23)
        1.085             (0.990294 0.00354029 1.24195e-23)             (0.990294 -0.00354029 8.13768e-23)
         1.09             (0.99027 0.00354976 1.24964e-23)             (0.99027 -0.00354976 8.16885e-23)
        1.095             (0.990245 0.00355928 1.25356e-23)             (0.990245 -0.00355928 8.19344e-23)
          1.1             (0.990221 0.00356878 1.25466e-23)             (0.990221 -0.00356878 8.22709e-23)
        1.105             (0.990197 0.00357823 1.25542e-23)             (0.990197 -0.00357823 8.26685e-23)
         1.11             (0.990173 0.0035877 1.2595e-23)             (0.990173 -0.0035877 8.2969e-23)
        1.115             (0.990148 0.00359719 1.2648e-23)             (0.990148 -0.00359719 8.33002e-23)
         1.12             (0.990124 0.00360672 1.27013e-23)             (0.990124 -0.00360672 8.35978e-23)
        1.125             (0.9901 0.00361627 1.27664e-23)             (0.9901 -0.00361627 8.39246e-23)
         1.13             (0.990075 0.00362584 1.28239e-23)             (0.990075 -0.00362584 8.42392e-23)
        1.135             (0.990051 0.00363545 1.28682e-23)             (0.990051 -0.00363545 8.4556e-23)
         1.14             (0.990026 0.0036451 1.29126e-23)             (0.990026 -0.0036451 8.48431e-23)
        1.145             (0.990002 0.00365477 1.29625e-23)             (0.990002 -0.00365477 8.51571e-23)
         1.15             (0.989977 0.00366446 1.30107e-23)             (0.989977 -0.00366446 8.54721e-23)
        1.155             (0.989952 0.00367419 1.30546e-23)             (0.989952 -0.00367419 8.57749e-23)
         1.16             (0.989927 0.00368395 1.30993e-23)             (0.989927 -0.00368395 8.60789e-23)
        1.165             (0.989903 0.00369374 1.3147e-23)             (0.989903 -0.00369374 8.63845e-23)
         1.17             (0.989878 0.00370356 1.31965e-23)             (0.989878 -0.00370356 8.67059e-23)
        1.175             (0.989853 0.0037134 1.32479e-23)             (0.989853 -0.0037134 8.70337e-23)
         1.18             (0.989828 0.00372327 1.32968e-23)             (0.989828 -0.00372327 8.73446e-23)
        1.185             (0.989803 0.00373317 1.33513e-23)             (0.989803 -0.00373317 8.76882e-23)
         1.19             (0.989778 0.0037431 1.33985e-23)             (0.989778 -0.0037431 8.79868e-23)
        1.195             (0.989752 0.00375306 1.34528e-23)             (0.989752 -0.00375306 8.8324e-23)
          1.2             (0.989727 0.00376305 1.35018e-23)             (0.989727 -0.00376305 8.86293e-23)
        1.205             (0.989702 0.00377307 1.35557e-23)             (0.989702 -0.00377307 8.89562e-23)
         1.21             (0.989677 0.00378312 1.36082e-23)             (0.989677 -0.00378312 8.92695e-23)
        1.215             (0.989651 0.00379321 1.36643e-23)             (0.989651 -0.00379321 8.95878e-23)
         1.22             (0.989626 0.00380334 1.37254e-23)             (0.989626 -0.00380334 8.99016e-23)
        1.225             (0.9896 0.00381351 1.37871e-23)             (0.9896 -0.00381351 9.02187e-23)
         1.23             (0.989575 0.00382367 1.38134e-23)             (0.989575 -0.00382367 9.05933e-23)
        1.235             (0.989549 0.00383378 1.38315e-23)             (0.989549 -0.00383378 9.09684e-23)
         1.24             (0.989524 0.00384392 1.38779e-23)             (0.989524 -0.00384392 9.13233e-23)
        1.245             (0.989498 0.00385409 1.39296e-23)             (0.989498 -0.00385409 9.16478e-23)
         1.25             (0.989472 0.00386429 1.39824e-23)             (0.989472 -0.00386429 9.19737e-23)
        1.255             (0.989446 0.00387453 1.40353e-23)             (0.989446 -0.00387453 9.23012e-23)
         1.26             (0.989421 0.0038848 1.4083e-23)             (0.989421 -0.0038848 9.26027e-23)
        1.265             (0.989395 0.0038951 1.41354e-23)             (0.989395 -0.0038951 9.29321e-23)
         1.27             (0.989369 0.00390544 1.41895e-23)             (0.989369 -0.00390544 9.32531e-23)
        1.275             (0.989343 0.0039158 1.4242e-23)             (0.989343 -0.0039158 9.35626e-23)
         1.28             (0.989317 0.0039262 1.42971e-23)             (0.989317 -0.0039262 9.38971e-23)
        1.285             (0.989291 0.00393663 1.43518e-23)             (0.989291 -0.00393663 9.42339e-23)
         1.29             (0.989264 0.00394709 1.44049e-23)             (0.989264 -0.00394709 9.45571e-23)
        1.295             (0.989238 0.00395758 1.44561e-23)             (0.989238 -0.00395758 9.48821e-23)
          1.3             (0.989212 0.0039681 1.4508e-23)             (0.989212 -0.0039681 9.52113e-23)
        1.305             (0.989186 0.00397866 1.45605e-23)             (0.989186 -0.00397866 9.55429e-23)
         1.31             (0.989159 0.00398924 1.46176e-23)             (0.989159 -0.00398924 9.5901e-23)
        1.315             (0.989133 0.00399986 1.46649e-23)             (0.989133 -0.00399986 9.6198e-23)
         1.32             (0.989106 0.00401051 1.47159e-23)             (0.989106 -0.00401051 9.65137e-23)
        1.325             (0.98908 0.0040212 1.47697e-23)             (0.98908 -0.0040212 9.68406e-23)
         1.33             (0.989053 0.00403193 1.48252e-23)             (0.989053 -0.00403193 9.71637e-23)
        1.335             (0.989026 0.00404271 1.48827e-23)             (0.989026 -0.00404271 9.74552e-23)
         1.34             (0.988999 0.00405349 1.49256e-23)             (0.988999 -0.00405349 9.78359e-23)
        1.345             (0.988973 0.00406427 1.49719e-23)             (0.988973 -0.00406427 9.82148e-23)
         1.35             (0.988946 0.00407502 1.50165e-23)             (0.988946 -0.00407502 9.86063e-23)
        1.355             (0.988919 0.00408581 1.50687e-23)             (0.988919 -0.00408581 9.89311e-23)
         1.36             (0.988892 0.00409664 1.51249e-23)             (0.988892 -0.00409664 9.92792e-23)
        1.365             (0.988865 0.0041075 1.51726e-23)             (0.988865 -0.0041075 9.95766e-23)
         1.37             (0.988838 0.00411841 1.52248e-23)             (0.988838 -0.00411841 9.99022e-23)
        1.375             (0.988811 0.00412935 1.52779e-23)             (0.988811 -0.00412935 1.00235e-22)
         1.38             (0.988784 0.00414033 1.53274e-23)             (0.988784 -0.00414033 1.00548e-22)
        1.385             (0.988756 0.00415135 1.53805e-23)             (0.988756 -0.00415135 1.00882e-22)
         1.39             (0.988729 0.0041624 1.54327e-23)             (0.988729 -0.0041624 1.01212e-22)
        1.395             (0.988702 0.00417349 1.54852e-23)             (0.988702 -0.00417349 1.01542e-22)
          1.4             (0.988674 0.00418461 1.55386e-23)             (0.988674 -0.00418461 1.01878e-22)