/*--------------------------------*- C++ -*----------------------------------*\
  =========                 |
  \\      /  F ield         | OpenFOAM: The Open Source CFD Toolbox
   \\    /   O peration     | Website:  https://openfoam.org
    \\  /    A nd           | Version:  7
     \\/     M anipulation  |
\*---------------------------------------------------------------------------*/
FoamFile
{
    version     2.0;
    format      ascii;
    class       surfaceScalarField;
    location    "5";
    object      phi;
}
// * * * * * * * * * * * * * * * * * * * * * * * * * * * * * * * * * * * * * //

dimensions      [0 3 -1 0 0 0 0];

internalField   nonuniform List<scalar> 
651
(
0.00295374
2.09274e-06
9.11894e-10
0.00295161
2.12729e-06
8.83375e-10
2.15956e-06
8.5237e-10
0.00295357
4.15764e-06
0.00295147
4.22669e-06
4.29117e-06
0.00295323
6.16507e-06
0.00295119
6.26857e-06
6.36521e-06
0.00295273
8.08638e-06
0.00295077
8.22424e-06
0.00294879
8.35295e-06
8.47282e-06
0.00295206
9.893e-06
0.00295022
1.00651e-05
0.00294835
1.02258e-05
1.03754e-05
0.00295122
1.15565e-05
0.00294952
1.17627e-05
0.00294779
1.19552e-05
1.21344e-05
0.00295022
0.00294869
1.32886e-05
0.00294713
1.35128e-05
1.37215e-05
0.00294772
1.46148e-05
0.00294636
1.48705e-05
1.51085e-05
0.00294662
1.57132e-05
0.00294549
1.60002e-05
1.62673e-05
0.00294538
1.65561e-05
0.0029445
1.68743e-05
1.71701e-05
0.00294401
1.71162e-05
0.00294341
1.74652e-05
1.77896e-05
0.0029425
1.73661e-05
0.00294222
1.77457e-05
1.80983e-05
0.00294086
1.72791e-05
0.00294092
1.7689e-05
1.80696e-05
0.0029391
1.68287e-05
0.00293952
1.72686e-05
1.76768e-05
0.00293721
1.59887e-05
0.00293802
1.64583e-05
1.68937e-05
0.00293519
1.47334e-05
0.00293641
1.52325e-05
1.56946e-05
0.00293305
1.30376e-05
0.00293471
1.35658e-05
1.40541e-05
0.00293078
1.08764e-05
0.00293292
1.14333e-05
1.19475e-05
0.0029284
8.22551e-06
0.00293102
8.81083e-06
9.35031e-06
0.0029259
5.06104e-06
0.00292904
5.67443e-06
6.23873e-06
0.00292329
1.35972e-06
0.00292696
2.00087e-06
2.58949e-06
0.00292056
-2.90115e-06
0.00292479
-2.2326e-06
-1.61999e-06
0.00291772
-7.74371e-06
0.00292254
-7.04807e-06
-6.41167e-06
0.00291478
-1.31894e-05
0.0029202
-1.24673e-05
-1.1806e-05
0.00821436
-1.44387e-05
0.00821555
-1.36527e-05
-1.29244e-05
0.0082153
-1.56213e-05
0.00821642
-1.47736e-05
-1.39858e-05
0.00821627
-1.67347e-05
0.00821732
-1.58292e-05
-1.49867e-05
0.00821728
-1.77764e-05
0.00821827
-1.68171e-05
-1.5924e-05
0.00821833
-1.87434e-05
0.00821925
-1.77342e-05
-1.6795e-05
0.00821942
-1.96327e-05
0.00822027
-1.85782e-05
-1.75963e-05
0.00822056
-2.04413e-05
0.00822133
-1.93457e-05
-1.83255e-05
0.00822173
-2.11661e-05
0.00822242
-2.00341e-05
-1.89797e-05
0.00822295
-2.18044e-05
0.00822356
-2.06407e-05
-1.95563e-05
0.0082242
-2.23536e-05
0.00822473
-2.11627e-05
-2.00531e-05
0.00822549
-2.28111e-05
0.00822593
-2.15982e-05
-2.04678e-05
0.00822681
-2.31749e-05
0.00822716
-2.1945e-05
-2.07984e-05
0.00822815
-2.34433e-05
0.00822841
-2.22015e-05
-2.10436e-05
0.00822951
-2.36153e-05
0.00822968
-2.23667e-05
-2.12022e-05
0.00823089
-2.36897e-05
0.00823096
-2.24397e-05
-2.12735e-05
0.00823228
-2.36668e-05
0.00823226
-2.24202e-05
-2.12571e-05
0.00823366
-2.35462e-05
0.00823355
-2.23084e-05
-2.11531e-05
0.00823505
-2.33288e-05
0.00823484
-2.21048e-05
-2.09621e-05
0.00823642
-2.30159e-05
0.00823612
-2.18103e-05
-2.0685e-05
0.00823777
-2.26085e-05
0.00823738
-2.14268e-05
-2.03231e-05
0.0082391
-2.21091e-05
0.00823863
-2.09556e-05
-1.98781e-05
0.0082404
-2.15199e-05
0.00823984
-2.03992e-05
-1.93521e-05
0.00824166
-2.08435e-05
0.00824102
-1.97601e-05
-1.87475e-05
0.00824288
-2.00832e-05
0.00824216
-1.90412e-05
-1.80671e-05
0.00824406
-1.92424e-05
0.00824326
-1.82456e-05
-1.73137e-05
0.00824518
-1.83247e-05
0.00824432
-1.7377e-05
-1.64909e-05
0.00824626
-1.73341e-05
0.00824532
-1.64391e-05
-1.5602e-05
0.00824727
-1.62749e-05
0.00824627
-1.54358e-05
-1.46509e-05
0.00824822
-1.51514e-05
0.00824715
-1.43713e-05
-1.36416e-05
0.0082491
-1.39685e-05
0.00824798
-1.32503e-05
-1.25783e-05
0.00824991
-1.27309e-05
0.00824874
-1.20772e-05
-1.14654e-05
0.00825065
-1.14437e-05
0.00824943
-1.08567e-05
-1.03072e-05
0.00825132
-1.01118e-05
0.00825005
-9.59372e-06
-9.10864e-06
0.0082519
-8.74094e-06
0.0082506
-8.29339e-06
-7.87439e-06
0.00825241
-7.33616e-06
0.00825108
-6.9608e-06
-6.60936e-06
0.00825283
-5.90307e-06
0.00825148
-5.6012e-06
-5.31854e-06
0.00825318
-4.44723e-06
0.0082518
-4.21978e-06
-4.00698e-06
0.00825343
-2.9743e-06
0.00825204
-2.82224e-06
-2.6798e-06
0.00825361
-1.48998e-06
0.0082522
-1.41377e-06
-1.34234e-06
0.00825369
0.00825228
-1.4437e-05
0.00821436
1.31877e-05
-1.56196e-05
0.0082153
-1.67331e-05
0.00821627
-1.77748e-05
0.00821728
-1.87418e-05
0.00821833
-1.96311e-05
0.00821942
-2.04397e-05
0.00822056
-2.11646e-05
0.00822173
-2.18029e-05
0.00822295
-2.23521e-05
0.0082242
-2.28097e-05
0.00822549
-2.31735e-05
0.00822681
-2.3442e-05
0.00822815
-2.3614e-05
0.00822951
-2.36886e-05
0.00823089
-2.36655e-05
0.00823228
-2.3545e-05
0.00823366
-2.33277e-05
0.00823504
-2.30147e-05
0.00823641
-2.26075e-05
0.00823777
-2.21081e-05
0.00823909
-2.15189e-05
0.00824039
-2.08426e-05
0.00824166
-2.00824e-05
0.00824288
-1.92416e-05
0.00824406
-1.83239e-05
0.00824518
-1.73333e-05
0.00824625
-1.62742e-05
0.00824727
-1.51508e-05
0.00824822
-1.3968e-05
0.0082491
-1.27305e-05
0.00824991
-1.14432e-05
0.00825065
-1.01114e-05
0.00825131
-8.74061e-06
0.0082519
-7.33589e-06
0.00825241
-5.90285e-06
0.00825283
-4.44706e-06
0.00825317
-2.97419e-06
0.00825343
-1.48992e-06
0.0082536
0.00825369
-1.3651e-05
0.00821555
1.24657e-05
-1.4772e-05
0.00821642
-1.58277e-05
0.00821732
-1.68155e-05
0.00821827
-1.77327e-05
0.00821925
-1.85767e-05
0.00822027
-1.93442e-05
0.00822133
-2.00327e-05
0.00822242
-2.06392e-05
0.00822356
-2.11613e-05
0.00822472
-2.15968e-05
0.00822593
-2.19436e-05
0.00822715
-2.22002e-05
0.00822841
-2.23654e-05
0.00822968
-2.24384e-05
0.00823096
-2.2419e-05
0.00823226
-2.23072e-05
0.00823355
-2.21037e-05
0.00823484
-2.18094e-05
0.00823612
-2.14258e-05
0.00823738
-2.09547e-05
0.00823862
-2.03983e-05
0.00823984
-1.97592e-05
0.00824102
-1.90403e-05
0.00824216
-1.82448e-05
0.00824326
-1.73763e-05
0.00824431
-1.64385e-05
0.00824532
-1.54352e-05
0.00824626
-1.43709e-05
0.00824715
-1.32498e-05
0.00824798
-1.20766e-05
0.00824874
-1.08562e-05
0.00824943
-9.59335e-06
0.00825005
-8.29307e-06
0.0082506
-6.96054e-06
0.00825108
-5.60098e-06
0.00825147
-4.21962e-06
0.00825179
-2.82213e-06
0.00825203
-1.41377e-06
0.0082522
0.00825228
-1.29229e-05
1.18044e-05
-1.39843e-05
-1.49852e-05
-1.59225e-05
-1.67935e-05
-1.75948e-05
-1.8324e-05
-1.89783e-05
-1.9555e-05
-2.00518e-05
-2.04665e-05
-2.07972e-05
-2.10424e-05
-2.1201e-05
-2.12723e-05
-2.1256e-05
-2.1152e-05
-2.0961e-05
-2.0684e-05
-2.03221e-05
-1.98771e-05
-1.93512e-05
-1.87467e-05
-1.80663e-05
-1.7313e-05
-1.64902e-05
-1.56014e-05
-1.46503e-05
-1.36411e-05
-1.25778e-05
-1.14649e-05
-1.03068e-05
-9.10838e-06
-7.87409e-06
-6.60911e-06
-5.31834e-06
-4.00683e-06
-2.67969e-06
-1.34229e-06
0.00291478
7.74198e-06
0.0029202
7.04641e-06
6.41007e-06
0.00291772
2.89942e-06
0.00292254
2.23093e-06
1.61838e-06
0.00292056
-1.36145e-06
0.00292479
-2.00254e-06
-2.59109e-06
0.00292329
-5.06278e-06
0.00292696
-5.6761e-06
-6.24034e-06
0.0029259
-8.22725e-06
0.00292904
-8.8125e-06
-9.35192e-06
0.0029284
-1.08782e-05
0.00293102
-1.1435e-05
-1.19491e-05
0.00293078
-1.30394e-05
0.00293292
-1.35674e-05
-1.40558e-05
0.00293305
-1.47352e-05
0.00293471
-1.52342e-05
-1.56962e-05
0.00293519
-1.59905e-05
0.00293641
-1.646e-05
-1.68953e-05
0.00293721
-1.68304e-05
0.00293802
-1.72703e-05
-1.76784e-05
0.0029391
-1.72809e-05
0.00293952
-1.76907e-05
-1.80712e-05
0.00294086
-1.73679e-05
0.00294092
-1.77474e-05
-1.81e-05
0.0029425
-1.71179e-05
0.00294222
-1.74668e-05
-1.77912e-05
0.00294401
-1.65579e-05
0.00294341
-1.6876e-05
-1.71717e-05
0.00294538
-1.57149e-05
0.0029445
-1.60019e-05
-1.62689e-05
0.00294772
-1.43427e-05
0.00294662
-1.46165e-05
0.00294549
-1.48722e-05
-1.51101e-05
0.00294905
-1.30503e-05
0.00294772
-1.32904e-05
0.00294636
-1.35145e-05
-1.37232e-05
0.00295022
-1.15583e-05
0.00294869
-1.17644e-05
0.00294713
-1.19569e-05
-1.21361e-05
0.00295122
-9.89483e-06
0.00294952
-1.00669e-05
0.00294779
-1.02275e-05
0.00295206
-8.08821e-06
0.00295022
-8.22601e-06
-8.35466e-06
0.00295273
-6.1669e-06
0.00295077
-6.27034e-06
-6.36692e-06
0.00295323
-4.15946e-06
0.00295119
-4.22846e-06
-4.29288e-06
0.00295357
-2.09456e-06
0.00295147
-2.12906e-06
-2.16127e-06
0.00295374
0.00295161
)
;

boundaryField
{
    inlet
    {
        type            calculated;
        value           nonuniform 0();
    }
    outlet
    {
        type            calculated;
        value           nonuniform 0();
    }
    cylinder
    {
        type            calculated;
        value           nonuniform 0();
    }
    top
    {
        type            symmetryPlane;
        value           uniform 0;
    }
    bottom
    {
        type            symmetryPlane;
        value           uniform 0;
    }
    defaultFaces
    {
        type            empty;
        value           nonuniform 0();
    }
    procBoundary62to61
    {
        type            processor;
        value           nonuniform List<scalar> 
130
(
-0.00295583
-0.00295564
-0.00295524
-0.00295465
-0.00295387
-0.00295288
-0.00295171
1.30484e-05
-0.00294905
-0.00294772
-0.00294622
-0.00294457
-0.00294275
-0.00294078
-0.00293865
-0.00293637
-0.00293393
-0.00293135
-0.00292862
-0.00292575
-0.00292274
-0.00291958
-0.0029163
-0.00291288
-0.00290933
-0.00821311
-0.00821411
-0.00821515
-0.00821624
-0.00821736
-0.00821854
-0.00821975
-0.00822101
-0.00822231
-0.00822365
-0.00822503
-0.00822644
-0.00822788
-0.00822934
-0.00823082
-0.0082323
-0.00823378
-0.00823526
-0.00823673
-0.00823817
-0.0082396
-0.00824098
-0.00824233
-0.00824364
-0.0082449
-0.0082461
-0.00824725
-0.00824833
-0.00824934
-0.00825028
-0.00825115
-0.00825194
-0.00825265
-0.00825327
-0.00825381
-0.00825427
-0.00825463
-0.00825491
-0.00825509
-0.00825518
-0.00821311
-0.00821411
-0.00821515
-0.00821624
-0.00821736
-0.00821853
-0.00821975
-0.00822101
-0.00822231
-0.00822365
-0.00822503
-0.00822644
-0.00822788
-0.00822934
-0.00823082
-0.0082323
-0.00823378
-0.00823526
-0.00823673
-0.00823817
-0.00823959
-0.00824098
-0.00824233
-0.00824364
-0.0082449
-0.0082461
-0.00824724
-0.00824833
-0.00824934
-0.00825028
-0.00825115
-0.00825194
-0.00825265
-0.00825327
-0.00825381
-0.00825427
-0.00825463
-0.0082549
-0.00825509
-0.00825518
-0.00290933
-0.00291288
-0.0029163
-0.00291958
-0.00292274
-0.00292575
-0.00292862
-0.00293135
-0.00293393
-0.00293637
-0.00293865
-0.00294078
-0.00294275
-0.00294457
-0.00294622
1.54076e-05
-0.00294878
-0.00295034
-0.00295171
-0.00295288
-0.00295387
-0.00295465
-0.00295524
-0.00295564
-0.00295583
)
;
    }
    procBoundary62to63
    {
        type            processor;
        value           nonuniform List<scalar> 
130
(
0.00294945
0.00294934
0.00294912
-6.4552e-06
0.00294677
0.00294644
0.00294603
0.00294555
0.00294498
0.00294433
0.0029436
0.0029428
0.00294191
0.00294095
0.00293991
0.0029388
0.00293761
0.00293635
0.00293502
0.00293362
0.00293215
0.00293061
0.002929
0.00292733
0.00292559
0.00821667
0.00821748
0.00821832
0.00821921
0.00822012
0.00822107
0.00822206
0.00822308
0.00822413
0.00822522
0.00822634
0.00822749
0.00822865
0.00822984
0.00823104
0.00823224
0.00823345
0.00823465
0.00823584
0.00823702
0.00823818
0.00823931
0.00824041
0.00824148
0.00824251
0.00824349
0.00824443
0.00824531
0.00824614
0.00824692
0.00824763
0.00824827
0.00824886
0.00824937
0.00824981
0.00825018
0.00825048
0.00825071
0.00825086
0.00825094
0.00821666
0.00821748
0.00821832
0.0082192
0.00822012
0.00822107
0.00822205
0.00822308
0.00822413
0.00822522
0.00822634
0.00822748
0.00822865
0.00822984
0.00823103
0.00823224
0.00823345
0.00823465
0.00823584
0.00823702
0.00823818
0.00823931
0.00824041
0.00824148
0.00824251
0.00824349
0.00824443
0.00824531
0.00824614
0.00824691
0.00824762
0.00824827
0.00824885
0.00824937
0.00824981
0.00825018
0.00825048
0.00825071
0.00825086
0.00825093
0.00292559
0.00292733
0.002929
0.00293061
0.00293215
0.00293362
0.00293502
0.00293635
0.00293761
0.0029388
0.00293991
0.00294095
0.00294191
0.00294279
0.0029436
0.00294433
0.00294498
0.00294555
0.00294603
-1.0377e-05
0.00294835
0.00294879
0.00294912
0.00294934
0.00294945
)
;
    }
}


// ************************************************************************* //
