/*--------------------------------*- C++ -*----------------------------------*\
  =========                 |
  \\      /  F ield         | OpenFOAM: The Open Source CFD Toolbox
   \\    /   O peration     | Website:  https://openfoam.org
    \\  /    A nd           | Version:  7
     \\/     M anipulation  |
\*---------------------------------------------------------------------------*/
FoamFile
{
    version     2.0;
    format      ascii;
    class       volVectorField;
    location    "25";
    object      U;
}
// * * * * * * * * * * * * * * * * * * * * * * * * * * * * * * * * * * * * * //

dimensions      [0 1 -1 0 0 0 0];

internalField   nonuniform List<vector> 
392
(
(0.489881 -0.00107049 8.5006e-23)
(0.495011 -0.00104942 -1.00221e-22)
(0.500046 -0.00102887 3.01231e-24)
(0.490761 -0.00320919 1.46232e-22)
(0.495876 -0.00314609 -2.98503e-22)
(0.500896 -0.00308454 1.22751e-24)
(0.492516 -0.00533815 -5.62825e-22)
(0.497602 -0.00523327 8.87139e-23)
(0.502592 -0.00513096 4.2069e-22)
(0.495139 -0.00745098 1.35515e-22)
(0.500179 -0.00730472 4.44334e-22)
(0.505126 -0.00716203 -3.93165e-22)
(0.498615 -0.00954135 5.33476e-23)
(0.503596 -0.00935428 -5.1796e-22)
(0.508485 -0.00917177 -1.71321e-22)
(0.502928 -0.0116031 2.09416e-22)
(0.507835 -0.011376 1.02592e-21)
(0.512652 -0.0111543 -1.42882e-21)
(0.508055 -0.0136303 -2.44585e-22)
(0.512876 -0.0133639 -3.53843e-22)
(0.517608 -0.013104 9.44989e-23)
(0.513973 -0.0156173 2.43663e-22)
(0.518693 -0.0153127 3.00855e-22)
(0.523327 -0.0150154 -1.03715e-21)
(0.520651 -0.0175585 3.42481e-21)
(0.52526 -0.0172168 -2.13012e-21)
(0.529784 -0.0168834 4.86304e-22)
(0.528059 -0.0194489 -1.11295e-22)
(0.532543 -0.0190713 -2.63094e-21)
(0.536947 -0.0187029 2.17994e-21)
(0.53616 -0.0212836 3.49364e-21)
(0.54051 -0.0208715 -4.82371e-22)
(0.544782 -0.0204694 1.28351e-22)
(0.544916 -0.0230582 -1.59809e-22)
(0.549122 -0.0226131 -5.79124e-22)
(0.553253 -0.0221787 -5.17231e-22)
(0.554288 -0.0247686 -2.65058e-21)
(0.55834 -0.024292 1.58446e-21)
(0.562321 -0.0238269 -1.85657e-21)
(0.564231 -0.0264111 -1.02207e-21)
(0.568122 -0.0259048 9.77326e-22)
(0.571945 -0.0254105 -4.83436e-22)
(0.574702 -0.0279826 -1.5274e-21)
(0.578425 -0.0274481 1.42771e-21)
(0.582084 -0.0269263 -1.3365e-21)
(0.585654 -0.0294803 9.1303e-22)
(0.589203 -0.0289194 1.30646e-21)
(0.592692 -0.0283717 8.62051e-22)
(0.596123 -0.0278371 -3.17341e-22)
(0.600411 -0.0303162 -2.01502e-21)
(0.603725 -0.0297444 -1.1434e-21)
(0.606985 -0.0291862 2.03816e-21)
(0.612001 -0.0316367 -3.05706e-21)
(0.615137 -0.0310426 1.47851e-21)
(0.618222 -0.0304625 1.75828e-21)
(0.623927 -0.0328796 -1.90267e-21)
(0.626881 -0.0322649 1.32491e-21)
(0.629789 -0.0316645 -1.40728e-21)
(0.63614 -0.0340436 -1.61622e-22)
(0.638912 -0.03341 -3.35531e-22)
(0.641641 -0.0327912 3.20078e-23)
(0.648595 -0.0351274 4.75431e-21)
(0.651182 -0.0344767 3.98866e-22)
(0.653731 -0.0338412 -5.57336e-21)
(0.661244 -0.0361321 3.84688e-21)
(0.663646 -0.035466 -5.02398e-21)
(0.666016 -0.0348154 1.7604e-21)
(0.674041 -0.0370653 -2.7468e-21)
(0.67626 -0.0363852 -1.00131e-21)
(0.678451 -0.0357207 1.52911e-21)
(0.686942 -0.0379274 -2.96469e-21)
(0.68898 -0.0372344 -2.93921e-21)
(0.690993 -0.0365573 2.28296e-21)
(0.711796 -0.0393524 0)
(0.713515 -0.0386429 0)
(0.715216 -0.0379493 0)
(0.750453 -0.0408895 0)
(0.751683 -0.0401666 0)
(0.752903 -0.0394595 0)
(0.789732 -0.0419387 0)
(0.790483 -0.0412113 0)
(0.791234 -0.0404994 0)
(0.828964 -0.0424868 0)
(0.829259 -0.0417646 0)
(0.829562 -0.0410573 0)
(0.867525 -0.0425585 0)
(0.867397 -0.0418504 0)
(0.867286 -0.0411563 0)
(0.904853 -0.0421967 0)
(0.904344 -0.0415104 0)
(0.903858 -0.0408371 0)
(0.940459 -0.0414505 1.16771e-28)
(0.939617 -0.0407925 -4.27413e-28)
(0.938803 -0.0401462 0)
(0.973941 -0.0403742 -1.16771e-28)
(0.972817 -0.0397493 4.27413e-28)
(0.971725 -0.0391348 0)
(1.00498 -0.0390254 2.80404e-28)
(1.00363 -0.0384371 0)
(1.00232 -0.0378577 -1.51832e-29)
(1.03337 -0.0374625 -2.80404e-28)
(1.03184 -0.0369127 0)
(1.03035 -0.0363704 1.51832e-29)
(1.05896 -0.0357424 0)
(1.05731 -0.0352317 0)
(1.0557 -0.0347271 0)
(1.08172 -0.0339181 0)
(1.08 -0.0334459 0)
(1.07831 -0.0329786 0)
(1.10167 -0.0320375 0)
(1.09991 -0.0316024 0)
(1.09819 -0.031171 0)
(1.11892 -0.0301421 0)
(1.11716 -0.0297419 0)
(1.11543 -0.0293444 0)
(1.1336 -0.0282662 3.07825e-28)
(1.13187 -0.0278983 -1.73155e-29)
(1.13017 -0.0275322 0)
(1.14591 -0.0264368 -3.07825e-28)
(1.14423 -0.0260983 1.73155e-29)
(1.14258 -0.025761 0)
(1.15606 -0.0246738 0)
(1.15445 -0.024362 0)
(1.15287 -0.0240506 0)
(1.16428 -0.0229905 0)
(1.16275 -0.0227027 0)
(1.16124 -0.0224148 0)
(1.17081 -0.0213946 0)
(1.16936 -0.0211282 0)
(1.16793 -0.0208614 -4.60902e-28)
(1.16652 -0.0205946 0)
(1.17587 -0.0198888 0)
(1.1745 -0.0196417 0)
(1.17316 -0.0193938 4.60902e-28)
(1.17182 -0.0191456 0)
(1.17969 -0.0184718 0)
(1.1784 -0.0182422 0)
(1.17713 -0.0180115 0)
(1.17588 -0.0177802 0)
(1.18247 -0.0171398 0)
(1.18126 -0.0169261 0)
(1.18006 -0.0167111 0)
(1.17888 -0.0164954 0)
(1.18439 -0.0158866 -1.44662e-28)
(1.18325 -0.0156877 0)
(1.18212 -0.0154873 0)
(1.18101 -0.015286 0)
(1.18561 -0.0147051 1.44662e-28)
(1.18454 -0.0145201 0)
(1.18348 -0.0143334 0)
(1.18243 -0.0141456 0)
(1.18528 -0.0134155 -5.41061e-28)
(1.18427 -0.0132419 5.25158e-28)
(1.18327 -0.0130669 0)
(1.18558 -0.0123664 5.41061e-28)
(1.18462 -0.0122052 -5.25158e-28)
(1.18367 -0.0120427 0)
(1.18556 -0.0113651 0)
(1.18464 -0.0112161 0)
(1.18374 -0.0110657 0)
(1.1853 -0.0104047 0)
(1.18442 -0.0102676 0)
(1.18355 -0.010129 0)
(1.18487 -0.00947876 -5.14533e-28)
(1.18402 -0.00935335 4.99917e-28)
(1.18318 -0.00922646 -5.43169e-28)
(1.18434 -0.00858168 5.14533e-28)
(1.18351 -0.00846778 -4.99917e-28)
(1.18269 -0.00835242 4.08166e-28)
(1.18374 -0.00770848 5.58687e-28)
(1.18294 -0.00760596 -5.43033e-28)
(1.18214 -0.007502 0)
(1.18313 -0.00685492 -5.58687e-28)
(1.18234 -0.00676363 5.43033e-28)
(1.18156 -0.00667097 1.28283e-28)
(1.18253 -0.00601736 0)
(1.18175 -0.00593717 0)
(1.18098 -0.00585572 -6.52666e-28)
(1.18196 -0.00519273 0)
(1.18119 -0.00512353 0)
(1.18044 -0.00505318 0)
(1.18144 -0.00437844 0)
(1.18068 -0.00432011 0)
(1.17994 -0.00426077 0)
(1.18099 -0.00357229 0)
(1.18024 -0.00352473 0)
(1.1795 -0.00347631 0)
(1.18062 -0.00277239 5.66878e-28)
(1.17988 -0.00273551 0)
(1.17914 -0.00269794 -3.70164e-28)
(1.18034 -0.00197712 -5.66878e-28)
(1.1796 -0.00195084 0)
(1.17887 -0.00192405 5.10675e-28)
(1.18015 -0.00118505 0)
(1.17941 -0.0011693 5.12999e-28)
(1.17868 -0.00115325 0)
(1.18005 -0.000394817 0)
(1.17931 -0.000389572 -5.18509e-28)
(1.17858 -0.000384226 0)
(0.711796 0.0393532 0)
(0.750453 0.0408902 0)
(0.789732 0.0419394 0)
(0.828964 0.0424874 0)
(0.867525 0.042559 0)
(0.904853 0.0421972 0)
(0.940459 0.041451 -1.1677e-28)
(0.973941 0.0403746 1.1677e-28)
(1.00498 0.0390258 2.80403e-28)
(1.03337 0.0374629 -2.80403e-28)
(1.05896 0.0357427 0)
(1.08172 0.0339184 0)
(1.10167 0.0320378 0)
(1.11892 0.0301424 0)
(1.1336 0.0282664 -3.07824e-28)
(1.14591 0.026437 3.07824e-28)
(1.15606 0.024674 0)
(1.16428 0.0229907 0)
(1.17081 0.0213948 -8.31756e-12)
(1.17587 0.0198889 8.31756e-12)
(1.17969 0.018472 0)
(1.18246 0.0171399 0)
(1.18439 0.0158867 0)
(1.18561 0.0147052 0)
(1.18629 0.0135875 1.75341e-11)
(1.18655 0.0125257 -1.75341e-11)
(1.18649 0.0115122 0)
(1.18619 0.0105399 0)
(1.18573 0.00960229 2.0099e-28)
(1.18517 0.00869373 -2.0099e-28)
(1.18456 0.00780924 9.03946e-12)
(1.18393 0.00694454 -9.03946e-12)
(1.18331 0.00609599 0)
(1.18273 0.00526052 0)
(1.18221 0.00443554 0)
(1.18175 0.00361881 0)
(1.18138 0.00280845 0)
(1.18109 0.00200282 0)
(1.1809 0.00120043 -9.17865e-12)
(1.1808 0.000399941 9.27723e-12)
(0.713515 0.0386436 0)
(0.751683 0.0401673 0)
(0.790483 0.0412119 0)
(0.829259 0.0417652 0)
(0.867397 0.0418509 0)
(0.904344 0.041511 0)
(0.939617 0.040793 4.27412e-28)
(0.972817 0.0397498 -4.27412e-28)
(1.00363 0.0384375 -1.57352e-29)
(1.03184 0.0369131 1.57352e-29)
(1.05731 0.035232 0)
(1.07999 0.0334462 0)
(1.09991 0.0316027 0)
(1.11716 0.0297421 0)
(1.13187 0.0278985 1.73154e-29)
(1.14423 0.0260986 -1.73154e-29)
(1.15445 0.0243622 0)
(1.16275 0.0227029 0)
(1.16936 0.0211284 -8.05888e-12)
(1.1745 0.0196418 8.05888e-12)
(1.1784 0.0182423 0)
(1.18126 0.0169263 0)
(1.18325 0.0156879 5.32769e-28)
(1.18454 0.0145202 -5.32769e-28)
(1.18528 0.0134156 1.70239e-11)
(1.18558 0.0123664 -1.70239e-11)
(1.18556 0.0113651 0)
(1.1853 0.0104047 0)
(1.18487 0.00947881 -5.14532e-28)
(1.18434 0.00858173 5.14532e-28)
(1.18374 0.00770853 8.78925e-12)
(1.18313 0.00685496 -8.78925e-12)
(1.18253 0.00601739 0)
(1.18196 0.00519275 0)
(1.18144 0.00437846 5.65095e-28)
(1.18099 0.0035723 -5.65095e-28)
(1.18062 0.0027724 0)
(1.18034 0.00197713 0)
(1.18015 0.00118505 0)
(1.18005 0.000394819 0)
(0.715216 0.0379501 0)
(0.752903 0.0394602 0)
(0.791234 0.0405001 0)
(0.829562 0.0410579 0)
(0.867286 0.0411569 0)
(0.903858 0.0408376 0)
(0.938803 0.0401466 0)
(0.971725 0.0391352 0)
(1.00232 0.0378581 0)
(1.03035 0.0363708 0)
(1.0557 0.0347274 0)
(1.07831 0.0329789 0)
(1.09819 0.0311713 0)
(1.11543 0.0293446 0)
(1.13017 0.0275324 0)
(1.14258 0.0257612 0)
(1.15286 0.0240508 0)
(1.16124 0.0224149 0)
(1.16793 0.0208615 -1.56127e-11)
(1.17316 0.0193939 1.56127e-11)
(1.17713 0.0180116 0)
(1.18006 0.0167113 0)
(1.18212 0.0154874 0)
(1.18348 0.0143335 0)
(1.18427 0.0132419 1.65236e-11)
(1.18462 0.0122053 -1.65236e-11)
(1.18464 0.0112162 0)
(1.18442 0.0102676 0)
(1.18402 0.0093534 0)
(1.18351 0.00846783 0)
(1.18294 0.00760599 0)
(1.18234 0.00676366 0)
(1.18175 0.0059372 0)
(1.18119 0.00512355 0)
(1.18068 0.00432013 -5.49571e-28)
(1.18024 0.00352474 5.49571e-28)
(1.17988 0.00273552 0)
(1.1796 0.00195085 0)
(1.17941 0.0011693 0)
(1.17931 0.000389574 0)
(0.686942 0.0379281 2.9692e-21)
(0.68898 0.0372351 2.94354e-21)
(0.690994 0.036558 -2.14299e-21)
(0.674041 0.0370661 2.69756e-21)
(0.67626 0.036386 9.64822e-22)
(0.678451 0.0357215 -1.57404e-21)
(0.661244 0.0361329 7.72973e-22)
(0.663647 0.0354668 5.12697e-21)
(0.666016 0.0348162 -1.75001e-21)
(0.648595 0.0351282 -4.88849e-21)
(0.651182 0.0344776 -3.40829e-22)
(0.653731 0.033842 5.60914e-21)
(0.636141 0.0340444 3.59341e-22)
(0.638912 0.0334108 1.69166e-22)
(0.641641 0.032792 -1.64298e-23)
(0.623927 0.0328804 1.76415e-21)
(0.626881 0.0322657 -1.30114e-21)
(0.62979 0.0316654 -7.94403e-22)
(0.612001 0.0316376 3.28927e-21)
(0.615137 0.0310435 -1.62906e-21)
(0.618223 0.0304634 -1.71847e-21)
(0.600411 0.0303171 1.58396e-21)
(0.603725 0.0297453 9.56135e-22)
(0.606985 0.0291871 -2.09612e-21)
(0.585655 0.0294812 -5.68604e-22)
(0.589203 0.0289202 -1.25988e-21)
(0.592692 0.0283726 -1.91957e-22)
(0.596123 0.027838 4.55994e-22)
(0.574702 0.0279835 1.00378e-21)
(0.578425 0.027449 6.8595e-22)
(0.582084 0.0269272 -1.17132e-21)
(0.564231 0.026412 9.64077e-22)
(0.568122 0.0259057 1.15845e-21)
(0.571946 0.0254114 -1.74439e-21)
(0.554288 0.0247695 2.66087e-21)
(0.55834 0.0242929 -1.7965e-21)
(0.562321 0.0238278 2.66406e-21)
(0.544916 0.0230591 1.42454e-22)
(0.549122 0.022614 9.34098e-22)
(0.553253 0.0221797 -1.29796e-22)
(0.53616 0.0212845 -3.19136e-21)
(0.54051 0.0208725 6.43716e-22)
(0.544782 0.0204704 4.68189e-22)
(0.528059 0.0194498 -1.78532e-22)
(0.532543 0.0190723 2.31833e-21)
(0.536947 0.0187038 -2.45685e-21)
(0.520652 0.0175595 -3.39994e-21)
(0.52526 0.0172178 2.23595e-21)
(0.529784 0.0168843 -7.7055e-22)
(0.513973 0.0156182 -3.29332e-23)
(0.518694 0.0153136 -4.73595e-22)
(0.523328 0.0150164 1.40047e-21)
(0.508055 0.0136313 3.09043e-22)
(0.512876 0.0133649 3.87703e-22)
(0.517608 0.013105 -2.02499e-22)
(0.502928 0.0116041 -4.15151e-22)
(0.507835 0.0113769 -9.7382e-22)
(0.512652 0.0111553 1.37561e-21)
(0.498615 0.00954231 -9.63709e-23)
(0.503596 0.00935526 2.54645e-22)
(0.508485 0.00917277 -6.33856e-23)
(0.495139 0.00745194 5.73627e-22)
(0.500179 0.00730571 -8.3627e-22)
(0.505126 0.00716304 5.86924e-22)
(0.492516 0.00533913 5.11097e-22)
(0.497602 0.00523427 1.32746e-23)
(0.502592 0.00513197 -3.8129e-22)
(0.490761 0.00321016 -1.13021e-22)
(0.495876 0.00314708 2.69915e-22)
(0.500896 0.00308555 7.39536e-24)
(0.489881 0.00107146 -9.94239e-23)
(0.495011 0.00105042 9.37846e-23)
(0.500046 0.00102988 -2.15002e-23)
)
;

boundaryField
{
    inlet
    {
        type            uniformFixedValue;
        uniformValue    constant (1 0 0);
        value           nonuniform 0();
    }
    outlet
    {
        type            pressureInletOutletVelocity;
        value           nonuniform 0();
    }
    cylinder
    {
        type            fixedValue;
        value           nonuniform 0();
    }
    top
    {
        type            symmetryPlane;
    }
    bottom
    {
        type            symmetryPlane;
    }
    defaultFaces
    {
        type            empty;
    }
    procBoundary46to45
    {
        type            processor;
        value           nonuniform List<vector> 
131
(
(0.484651 -0.00109208 1.35516e-22)
(0.485547 -0.00327386 -1.13568e-23)
(0.487333 -0.00544566 6.50578e-23)
(0.490002 -0.00760089 5.14667e-23)
(0.493539 -0.00973309 -4.47625e-23)
(0.497927 -0.011836 -2.70189e-22)
(0.503144 -0.0139034 -3.14397e-22)
(0.509164 -0.0159295 -2.80079e-22)
(0.515957 -0.0179087 4.06942e-21)
(0.523491 -0.0198358 -2.38159e-22)
(0.53173 -0.0217058 2.87156e-21)
(0.540634 -0.0235142 -1.72107e-21)
(0.550163 -0.0252568 -6.7926e-22)
(0.560271 -0.0269298 -2.48375e-21)
(0.570914 -0.0285301 -3.68929e-22)
(0.582045 -0.0300548 1.06907e-21)
(0.597041 -0.0309018 -2.12691e-21)
(0.597041 -0.0309018 -2.12691e-21)
(0.608814 -0.0322452 -8.74204e-22)
(0.620926 -0.0335091 -4.85757e-22)
(0.633327 -0.0346923 1.0347e-21)
(0.64597 -0.0357935 2.67119e-21)
(0.658807 -0.0368138 -4.79978e-21)
(0.671791 -0.0377614 -2.71624e-21)
(0.684878 -0.0386366 5.59774e-24)
(0.710057 -0.0400782 0)
(0.749215 -0.0416286 0)
(0.788982 -0.0426818 0)
(0.828678 -0.043224 0)
(0.86767 -0.0432806 0)
(0.905386 -0.0428958 0)
(0.941331 -0.04212 0)
(0.975098 -0.0410091 0)
(1.00637 -0.0396222 -1.68942e-29)
(1.03493 -0.0380194 1.68942e-29)
(1.06065 -0.0362587 0)
(1.08348 -0.0343946 0)
(1.10347 -0.0324758 0)
(1.12071 -0.0305444 0)
(1.13536 -0.0286353 0)
(1.14761 -0.0267757 0)
(1.15769 -0.0249854 0)
(1.16583 -0.0232777 0)
(1.17228 -0.0216599 0)
(1.17725 -0.0201344 0)
(1.18099 -0.0186997 0)
(1.18369 -0.0173514 0)
(1.18554 -0.0160833 5.65736e-28)
(1.1867 -0.0148878 -5.65736e-28)
(1.18629 -0.0135874 0)
(1.18629 -0.0135874 0)
(1.18655 -0.0125256 0)
(1.18649 -0.0115121 0)
(1.18619 -0.0105398 0)
(1.18573 -0.00960223 0)
(1.18517 -0.00869368 0)
(1.18456 -0.00780919 0)
(1.18393 -0.0069445 0)
(1.18331 -0.00609596 0)
(1.18273 -0.0052605 0)
(1.18221 -0.00443551 0)
(1.18175 -0.00361879 0)
(1.18138 -0.00280844 0)
(1.18109 -0.00200281 0)
(1.1809 -0.00120043 -2.05746e-28)
(1.1808 -0.000399939 2.07956e-28)
(0.710058 0.0400789 0)
(0.749215 0.0416292 0)
(0.788982 0.0426825 0)
(0.828678 0.0432246 0)
(0.86767 0.0432812 0)
(0.905386 0.0428963 0)
(0.941331 0.0421205 0)
(0.975098 0.0410095 0)
(1.00637 0.0396227 -1.68941e-29)
(1.03493 0.0380198 1.68941e-29)
(1.06065 0.0362591 0)
(1.08348 0.0343949 0)
(1.10347 0.0324761 0)
(1.12071 0.0305447 0)
(1.13536 0.0286356 0)
(1.14761 0.0267759 0)
(1.15769 0.0249856 0)
(1.16583 0.0232779 0)
(1.17228 0.0216601 -8.58254e-12)
(1.17725 0.0201345 8.58254e-12)
(1.18099 0.0186998 0)
(1.18369 0.0173516 0)
(1.18554 0.0160834 -5.65735e-28)
(1.1867 0.0148879 5.65735e-28)
(1.18733 0.013757 9.0271e-12)
(1.18753 0.0126825 -9.0271e-12)
(1.18743 0.0116568 0)
(1.18709 0.0106726 0)
(1.18661 0.00972334 0)
(1.18602 0.00880339 0)
(1.18539 0.00790771 0)
(1.18474 0.00703202 0)
(1.18411 0.00617267 0)
(1.18352 0.00532657 0)
(1.18299 0.00449111 0)
(1.18252 0.00366406 0)
(1.18214 0.00284351 5.98494e-28)
(1.18185 0.00202777 -5.98494e-28)
(1.18165 0.00121538 -1.88572e-11)
(1.18155 0.000404917 1.90597e-11)
(0.684878 0.0386373 5.24482e-21)
(0.671792 0.0377621 2.66726e-21)
(0.658807 0.0368146 4.3453e-22)
(0.64597 0.0357943 -2.73359e-21)
(0.633327 0.0346931 -1.15425e-21)
(0.620926 0.0335099 4.89091e-22)
(0.608815 0.032246 8.85152e-22)
(0.597041 0.0309026 2.21781e-21)
(0.597041 0.0309026 2.21781e-21)
(0.582045 0.0300556 -1.20916e-21)
(0.570914 0.028531 1.38164e-21)
(0.560271 0.0269307 -3.45067e-22)
(0.550163 0.0252576 3.01989e-21)
(0.540635 0.023515 1.46082e-21)
(0.53173 0.0217067 -2.20311e-21)
(0.523492 0.0198367 -4.50651e-22)
(0.515957 0.0179096 -1.43256e-21)
(0.509164 0.0159304 1.0452e-22)
(0.503144 0.0139043 4.0104e-22)
(0.497927 0.0118369 1.90914e-22)
(0.493539 0.00973403 -7.62734e-23)
(0.490002 0.00760183 2.70195e-23)
(0.487333 0.0054466 -1.43268e-22)
(0.485547 0.00327481 1.34628e-22)
(0.484651 0.00109303 -1.5077e-22)
)
;
    }
    procBoundary46to47
    {
        type            processor;
        value           nonuniform List<vector> 
131
(
(0.504987 -0.00100883 -7.69152e-23)
(0.505823 -0.0030245 -1.42818e-22)
(0.50749 -0.00503116 2.04912e-22)
(0.509981 -0.00702285 4.50856e-22)
(0.513283 -0.00899373 -3.23619e-22)
(0.51738 -0.0109381 -1.1671e-21)
(0.522253 -0.0128505 -5.13345e-22)
(0.527877 -0.0147254 -7.14609e-23)
(0.534226 -0.016558 -6.17149e-22)
(0.541271 -0.0183434 1.86103e-21)
(0.548977 -0.020077 2.79363e-22)
(0.557311 -0.0217548 -2.4407e-22)
(0.566232 -0.023373 -1.10074e-21)
(0.575703 -0.0249281 -5.21061e-22)
(0.585681 -0.026417 1.85277e-22)
(0.585681 -0.026417 1.85277e-22)
(0.599497 -0.0273153 2.27684e-21)
(0.610192 -0.0286413 -4.16147e-22)
(0.621259 -0.0298961 8.88165e-22)
(0.632653 -0.0310784 4.39056e-22)
(0.644329 -0.0321869 -1.40784e-21)
(0.656244 -0.0332205 -3.20977e-21)
(0.668353 -0.0341799 5.30139e-23)
(0.680613 -0.0350717 -8.38603e-22)
(0.692982 -0.0358958 -4.61413e-21)
(0.716899 -0.0372715 -2.77063e-28)
(0.754114 -0.0387682 -2.661e-28)
(0.791984 -0.0398029 0)
(0.829874 -0.0403647 0)
(0.86719 -0.0404762 0)
(0.903393 -0.0401768 0)
(0.938015 -0.0395116 0)
(0.970664 -0.0385307 0)
(1.00103 -0.0372875 1.66592e-28)
(1.0289 -0.035836 -1.66592e-28)
(1.05412 -0.0342291 0)
(1.07665 -0.0325167 -3.82843e-28)
(1.0965 -0.0307439 9.72368e-29)
(1.11374 -0.0289502 0)
(1.1285 -0.0271685 1.84167e-28)
(1.14096 -0.0254253 -1.84167e-28)
(1.1513 -0.0237404 -1.98297e-28)
(1.15975 -0.0221274 3.24019e-28)
(1.15975 -0.0221274 3.24019e-28)
(1.16512 -0.0203286 4.3214e-28)
(1.17051 -0.0188979 -4.3214e-28)
(1.17464 -0.0175491 0)
(1.17772 -0.0162795 0)
(1.17991 -0.0150843 0)
(1.18139 -0.0139572 0)
(1.18229 -0.0128913 -4.94277e-28)
(1.18274 -0.0118794 4.94277e-28)
(1.18284 -0.0109144 0)
(1.18269 -0.00998945 0)
(1.18235 -0.00909851 -3.58825e-28)
(1.18189 -0.00823597 2.23822e-28)
(1.18135 -0.00739697 0)
(1.18079 -0.00657728 1.28283e-28)
(1.18023 -0.00577328 -6.52666e-28)
(1.17969 -0.00498193 0)
(1.1792 -0.00420064 0)
(1.17877 -0.00342722 0)
(1.17842 -0.00265983 -2.28914e-28)
(1.17814 -0.00189687 3.69425e-28)
(1.17796 -0.00113696 0)
(1.17786 -0.000378798 0)
(0.716899 0.0372722 0)
(0.754114 0.0387689 0)
(0.791984 0.0398036 -6.04879e-12)
(0.829874 0.0403653 -1.22884e-11)
(0.86719 0.0404768 -6.24636e-12)
(0.903393 0.0401773 3.44089e-28)
(0.938015 0.0395121 -3.5019e-28)
(0.970664 0.0385312 8.90158e-29)
(1.00103 0.0372879 -2.79928e-28)
(1.0289 0.0358363 3.69566e-28)
(1.05412 0.0342294 -9.39344e-29)
(1.07665 0.032517 0)
(1.0965 0.0307442 9.72364e-29)
(1.11374 0.0289504 -3.95917e-28)
(1.1285 0.0271688 -1.84166e-28)
(1.14096 0.0254255 1.84166e-28)
(1.1513 0.0237406 0)
(1.15975 0.0221276 3.24018e-28)
(1.16652 0.0205948 -1.51197e-11)
(1.17182 0.0191458 1.51197e-11)
(1.17588 0.0177804 0)
(1.17888 0.0164955 1.19727e-28)
(1.18101 0.0152861 -6.12938e-28)
(1.18243 0.0141457 -3.46235e-28)
(1.18327 0.013067 1.60329e-11)
(1.18367 0.0120428 -1.60329e-11)
(1.18374 0.0110658 0)
(1.18355 0.0101291 -6.37317e-28)
(1.18318 0.0092265 -3.13042e-28)
(1.18269 0.00835246 1.78039e-28)
(1.18214 0.00750203 8.30068e-12)
(1.18156 0.006671 -1.70162e-11)
(1.18098 0.00585574 -8.74767e-12)
(1.18044 0.0050532 0)
(1.17994 0.00426079 -3.67465e-28)
(1.1795 0.00347633 8.81889e-12)
(1.17914 0.00269795 8.8345e-12)
(1.17887 0.00192406 -8.83056e-28)
(1.17868 0.00115325 -8.44888e-12)
(1.17858 0.000384227 8.53963e-12)
(0.692982 0.0358965 4.70846e-21)
(0.680613 0.0350725 8.42335e-22)
(0.668353 0.0341807 -7.69006e-23)
(0.656244 0.0332213 3.23612e-21)
(0.644329 0.0321877 -3.73377e-22)
(0.632653 0.0310792 1.40724e-21)
(0.621259 0.029897 -9.87294e-22)
(0.610192 0.0286422 8.95696e-23)
(0.599497 0.0273162 -1.65651e-21)
(0.585681 0.0264179 1.30412e-22)
(0.585681 0.0264179 1.30412e-22)
(0.575703 0.024929 2.81278e-22)
(0.566233 0.0233739 6.9598e-22)
(0.557311 0.0217558 8.69789e-22)
(0.548977 0.020078 -2.18527e-22)
(0.541271 0.0183443 -2.28762e-21)
(0.534226 0.016559 8.43275e-22)
(0.527877 0.0147264 -8.00169e-23)
(0.522253 0.0128515 5.87844e-22)
(0.51738 0.0109391 1.00137e-21)
(0.513283 0.00899475 2.50307e-22)
(0.509981 0.00702386 -2.71198e-22)
(0.50749 0.00503217 -2.31072e-22)
(0.505823 0.00302552 1.55152e-22)
(0.504987 0.00100985 7.09458e-23)
)
;
    }
}


// ************************************************************************* //
