/*--------------------------------*- C++ -*----------------------------------*\
  =========                 |
  \\      /  F ield         | OpenFOAM: The Open Source CFD Toolbox
   \\    /   O peration     | Website:  https://openfoam.org
    \\  /    A nd           | Version:  7
     \\/     M anipulation  |
\*---------------------------------------------------------------------------*/
FoamFile
{
    version     2.0;
    format      ascii;
    class       volScalarField;
    location    "22";
    object      p;
}
// * * * * * * * * * * * * * * * * * * * * * * * * * * * * * * * * * * * * * //

dimensions      [0 2 -2 0 0 0 0];

internalField   nonuniform List<scalar> 
40000
(
-0.266749
-0.26764
-0.26831
-0.268859
-0.269354
-0.269798
-0.270196
-0.270558
-0.270893
-0.271206
-0.271505
-0.271791
-0.272069
-0.272339
-0.272602
-0.272856
-0.2731
-0.273331
-0.273546
-0.273743
-0.273917
-0.274068
-0.274192
-0.274289
-0.27436
-0.274406
-0.274431
-0.27444
-0.274436
-0.274438
-0.266855
-0.267739
-0.268405
-0.26895
-0.269442
-0.269883
-0.270278
-0.270638
-0.27097
-0.271281
-0.271577
-0.271862
-0.272138
-0.272406
-0.272667
-0.27292
-0.273162
-0.273391
-0.273604
-0.273798
-0.27397
-0.274118
-0.274239
-0.274332
-0.274399
-0.27444
-0.274461
-0.274465
-0.274455
-0.274452
-0.267066
-0.267937
-0.268594
-0.269132
-0.269617
-0.270052
-0.270442
-0.270796
-0.271123
-0.27143
-0.271722
-0.272002
-0.272274
-0.272539
-0.272796
-0.273045
-0.273283
-0.273509
-0.273718
-0.273908
-0.274075
-0.274217
-0.274331
-0.274418
-0.274476
-0.274508
-0.27452
-0.274514
-0.27449
-0.27448
-0.267379
-0.268232
-0.268875
-0.269402
-0.269877
-0.270303
-0.270685
-0.271031
-0.271352
-0.271652
-0.271937
-0.272211
-0.272477
-0.272736
-0.272988
-0.273231
-0.273464
-0.273683
-0.273886
-0.27407
-0.27423
-0.274363
-0.274468
-0.274544
-0.274589
-0.274608
-0.274605
-0.274585
-0.27454
-0.274517
-0.267792
-0.26862
-0.269245
-0.269758
-0.27022
-0.270634
-0.271005
-0.271341
-0.271652
-0.271943
-0.27222
-0.272486
-0.272744
-0.272995
-0.273239
-0.273475
-0.2737
-0.273912
-0.274107
-0.274281
-0.274432
-0.274554
-0.274647
-0.274707
-0.274736
-0.274735
-0.274713
-0.274673
-0.2746
-0.27456
-0.268299
-0.269098
-0.269701
-0.270196
-0.270642
-0.271042
-0.271399
-0.271723
-0.272021
-0.272301
-0.272567
-0.272823
-0.273071
-0.273312
-0.273547
-0.273773
-0.273989
-0.274191
-0.274376
-0.274539
-0.274677
-0.274786
-0.274862
-0.274904
-0.274912
-0.274887
-0.27484
-0.274774
-0.274666
-0.2746
-0.268897
-0.269662
-0.270239
-0.270713
-0.27114
-0.271522
-0.271863
-0.272172
-0.272456
-0.272722
-0.272975
-0.273218
-0.273454
-0.273683
-0.273906
-0.274121
-0.274325
-0.274516
-0.274689
-0.274839
-0.274963
-0.275055
-0.275112
-0.275131
-0.275113
-0.275059
-0.27498
-0.274882
-0.27473
-0.274631
-0.269579
-0.270305
-0.270854
-0.271304
-0.27171
-0.272071
-0.272394
-0.272685
-0.272952
-0.273202
-0.273439
-0.273667
-0.273888
-0.274104
-0.274313
-0.274514
-0.274705
-0.274882
-0.27504
-0.275175
-0.275282
-0.275355
-0.27539
-0.275383
-0.275334
-0.275244
-0.275127
-0.274992
-0.274787
-0.274641
-0.270339
-0.271023
-0.27154
-0.271964
-0.272345
-0.272684
-0.272986
-0.273257
-0.273505
-0.273736
-0.273955
-0.274165
-0.274369
-0.274568
-0.274761
-0.274947
-0.275122
-0.275283
-0.275425
-0.275543
-0.27563
-0.275681
-0.275691
-0.275654
-0.275569
-0.275439
-0.275276
-0.275095
-0.274829
-0.274615
-0.271171
-0.271809
-0.272292
-0.272688
-0.273042
-0.273356
-0.273634
-0.273882
-0.274108
-0.274318
-0.274516
-0.274707
-0.274891
-0.275071
-0.275246
-0.275413
-0.27557
-0.275713
-0.275837
-0.275935
-0.276001
-0.276028
-0.276009
-0.275939
-0.275815
-0.275636
-0.27542
-0.275186
-0.274852
-0.274534
-0.272067
-0.272657
-0.273104
-0.27347
-0.273796
-0.274082
-0.274334
-0.274557
-0.274758
-0.274944
-0.275119
-0.275286
-0.275448
-0.275606
-0.27576
-0.275906
-0.276043
-0.276166
-0.276269
-0.276346
-0.276388
-0.276389
-0.276339
-0.276233
-0.276064
-0.275832
-0.275553
-0.275258
-0.274852
-0.274363
-0.273021
-0.273562
-0.273971
-0.274305
-0.2746
-0.274857
-0.27508
-0.275275
-0.275449
-0.275608
-0.275756
-0.275897
-0.276034
-0.276167
-0.276296
-0.27642
-0.276534
-0.276634
-0.276714
-0.276767
-0.276785
-0.276757
-0.276675
-0.276529
-0.276312
-0.276021
-0.275669
-0.275306
-0.27484
-0.274023
-0.274025
-0.274517
-0.274888
-0.275188
-0.27545
-0.275676
-0.275867
-0.276032
-0.276176
-0.276304
-0.276422
-0.276534
-0.276642
-0.276748
-0.27685
-0.276946
-0.277035
-0.27711
-0.277165
-0.277193
-0.277183
-0.277125
-0.277009
-0.276822
-0.276555
-0.276199
-0.275765
-0.275327
-0.274831
-0.273504
-0.275075
-0.275517
-0.275849
-0.276114
-0.276342
-0.276534
-0.276692
-0.276823
-0.276933
-0.277028
-0.277113
-0.277192
-0.277268
-0.277341
-0.277412
-0.27748
-0.277539
-0.277586
-0.277614
-0.277614
-0.277575
-0.277487
-0.277335
-0.277105
-0.276785
-0.276361
-0.275842
-0.275298
-0.274632
-0.273298
-0.276164
-0.276557
-0.276849
-0.277079
-0.277272
-0.277427
-0.277549
-0.277644
-0.277717
-0.277775
-0.277823
-0.277865
-0.277904
-0.277942
-0.277979
-0.278012
-0.27804
-0.278056
-0.278054
-0.278023
-0.277955
-0.277834
-0.277645
-0.277372
-0.276998
-0.276504
-0.275897
-0.275239
-0.274378
-0.272944
-0.277287
-0.277633
-0.277886
-0.27808
-0.278235
-0.278353
-0.278437
-0.278491
-0.278524
-0.278541
-0.278547
-0.278548
-0.278546
-0.278544
-0.278542
-0.278539
-0.27853
-0.278512
-0.278476
-0.278414
-0.278312
-0.278157
-0.277932
-0.277616
-0.277187
-0.276623
-0.275922
-0.275145
-0.274101
-0.2724
-0.278442
-0.278743
-0.278958
-0.279114
-0.279231
-0.279309
-0.279351
-0.279362
-0.279351
-0.279322
-0.279283
-0.279238
-0.27919
-0.279144
-0.279098
-0.279053
-0.279004
-0.278947
-0.278875
-0.278777
-0.278641
-0.27845
-0.278187
-0.277827
-0.277346
-0.276712
-0.275914
-0.275013
-0.27379
-0.27169
-0.279626
-0.279884
-0.280061
-0.28018
-0.280257
-0.280293
-0.28029
-0.280255
-0.280195
-0.280116
-0.280026
-0.27993
-0.279832
-0.279736
-0.279642
-0.27955
-0.279456
-0.279356
-0.279243
-0.279106
-0.278933
-0.278705
-0.278402
-0.277999
-0.277465
-0.276763
-0.275867
-0.274839
-0.273445
-0.270817
-0.280839
-0.281057
-0.281197
-0.281278
-0.281313
-0.281304
-0.281253
-0.281168
-0.281055
-0.280922
-0.280776
-0.280624
-0.28047
-0.280318
-0.28017
-0.280026
-0.279882
-0.279735
-0.279577
-0.279397
-0.279182
-0.278914
-0.27857
-0.278122
-0.277536
-0.276767
-0.275777
-0.274616
-0.273075
-0.269782
-0.282081
-0.282262
-0.282366
-0.282408
-0.282401
-0.282344
-0.282242
-0.282102
-0.281931
-0.281739
-0.281532
-0.281318
-0.281102
-0.280889
-0.280682
-0.280479
-0.28028
-0.28008
-0.279872
-0.279645
-0.279384
-0.279072
-0.278683
-0.278189
-0.27755
-0.276716
-0.275632
-0.274337
-0.272686
-0.268592
-0.283356
-0.283502
-0.283571
-0.283574
-0.283521
-0.283414
-0.283257
-0.283058
-0.282825
-0.282567
-0.282294
-0.282012
-0.281729
-0.281449
-0.281176
-0.28091
-0.28065
-0.280392
-0.280128
-0.279848
-0.279537
-0.279176
-0.278739
-0.278193
-0.277498
-0.276599
-0.275425
-0.273987
-0.272282
-0.267265
-0.284668
-0.284782
-0.284816
-0.284779
-0.284679
-0.284518
-0.284302
-0.284039
-0.283739
-0.283411
-0.283065
-0.282709
-0.282352
-0.282
-0.281655
-0.28132
-0.280993
-0.28067
-0.280345
-0.280007
-0.279641
-0.279225
-0.278734
-0.278133
-0.277377
-0.27641
-0.275146
-0.273555
-0.271861
-0.265832
-0.286025
-0.286109
-0.286108
-0.286028
-0.285878
-0.285661
-0.285381
-0.28505
-0.284677
-0.284272
-0.283848
-0.283413
-0.282976
-0.282545
-0.282122
-0.281712
-0.281313
-0.280921
-0.280529
-0.280127
-0.279699
-0.279224
-0.278673
-0.278009
-0.277186
-0.276144
-0.274791
-0.27303
-0.27141
-0.264342
-0.287434
-0.28749
-0.287453
-0.287329
-0.287126
-0.286847
-0.2865
-0.286095
-0.285644
-0.285158
-0.284649
-0.284129
-0.283607
-0.28309
-0.282585
-0.282094
-0.281616
-0.281149
-0.280686
-0.280215
-0.279719
-0.279178
-0.27856
-0.277827
-0.276928
-0.275802
-0.274359
-0.272412
-0.270907
-0.262856
-0.288907
-0.288934
-0.28886
-0.288689
-0.28843
-0.288086
-0.287666
-0.287182
-0.286647
-0.286073
-0.285475
-0.284864
-0.28425
-0.283644
-0.28305
-0.282473
-0.281912
-0.281365
-0.280825
-0.280279
-0.279711
-0.279096
-0.278404
-0.277594
-0.276611
-0.275392
-0.273851
-0.271712
-0.27032
-0.261457
-0.290457
-0.290454
-0.290341
-0.29012
-0.289799
-0.289385
-0.288887
-0.288319
-0.287694
-0.287028
-0.286334
-0.285626
-0.284916
-0.284215
-0.283528
-0.28286
-0.282211
-0.28158
-0.280957
-0.280331
-0.279684
-0.278991
-0.278217
-0.27732
-0.276243
-0.274921
-0.273272
-0.270953
-0.269614
-0.260238
-0.292097
-0.292062
-0.291906
-0.29163
-0.291244
-0.290755
-0.290173
-0.289515
-0.288795
-0.28803
-0.287235
-0.286426
-0.285616
-0.284814
-0.28403
-0.283267
-0.282526
-0.281805
-0.281096
-0.280385
-0.279653
-0.278873
-0.278009
-0.277017
-0.275836
-0.2744
-0.272621
-0.270161
-0.268717
-0.259237
-0.293844
-0.293772
-0.293568
-0.293233
-0.292776
-0.292205
-0.291535
-0.290781
-0.28996
-0.289091
-0.288191
-0.287276
-0.28636
-0.285455
-0.284569
-0.283707
-0.282871
-0.282056
-0.281255
-0.280453
-0.279628
-0.278753
-0.27779
-0.276691
-0.275397
-0.273842
-0.271914
-0.269374
-0.26751
-0.258334
-0.295713
-0.2956
-0.295343
-0.294942
-0.294407
-0.293749
-0.292984
-0.292128
-0.291201
-0.290223
-0.289213
-0.288187
-0.287162
-0.286149
-0.285158
-0.284194
-0.283258
-0.282346
-0.281447
-0.280547
-0.279622
-0.278641
-0.277566
-0.276349
-0.274932
-0.273262
-0.271194
-0.268696
-0.266017
-0.257729
-0.297723
-0.29756
-0.297243
-0.29677
-0.296151
-0.295399
-0.294532
-0.293569
-0.29253
-0.291439
-0.290314
-0.289174
-0.288036
-0.286913
-0.285813
-0.284744
-0.283704
-0.282688
-0.281685
-0.280678
-0.27964
-0.27854
-0.277338
-0.275987
-0.274435
-0.272647
-0.270483
-0.268193
-0.264779
-0.2596
-0.299892
-0.29967
-0.299285
-0.298732
-0.298021
-0.297168
-0.296192
-0.295116
-0.293961
-0.292751
-0.291507
-0.290249
-0.288995
-0.287758
-0.286548
-0.285368
-0.284219
-0.283094
-0.281979
-0.280853
-0.279688
-0.278451
-0.2771
-0.275591
-0.273881
-0.271954
-0.269702
-0.267596
-0.264324
-0.266602
-0.302239
-0.301946
-0.301483
-0.300843
-0.300032
-0.29907
-0.297979
-0.296783
-0.295506
-0.294173
-0.292806
-0.291428
-0.290055
-0.288701
-0.287375
-0.286082
-0.284818
-0.283574
-0.282335
-0.281075
-0.279765
-0.278367
-0.27684
-0.275144
-0.273241
-0.271131
-0.268749
-0.266556
-0.263513
-0.264989
-0.30478
-0.304405
-0.303854
-0.303116
-0.302197
-0.301118
-0.299905
-0.298583
-0.297179
-0.295718
-0.294226
-0.292723
-0.291228
-0.289754
-0.288309
-0.286895
-0.285508
-0.284135
-0.282757
-0.281345
-0.279866
-0.278279
-0.276544
-0.274623
-0.272485
-0.270137
-0.267542
-0.265063
-0.261896
-0.261755
-0.307535
-0.307062
-0.306412
-0.305567
-0.30453
-0.303327
-0.301984
-0.30053
-0.298994
-0.297402
-0.29578
-0.294149
-0.292528
-0.290929
-0.289359
-0.287818
-0.286297
-0.284781
-0.283245
-0.281657
-0.27998
-0.278172
-0.276192
-0.274006
-0.271589
-0.268949
-0.266067
-0.263203
-0.259742
-0.258246
-0.310519
-0.309934
-0.309173
-0.30821
-0.307046
-0.305709
-0.30423
-0.302639
-0.300965
-0.299237
-0.297481
-0.295719
-0.293968
-0.29224
-0.290538
-0.288858
-0.28719
-0.285511
-0.283794
-0.282002
-0.280094
-0.278028
-0.275765
-0.273275
-0.270537
-0.267565
-0.264345
-0.261061
-0.257258
-0.254656
-0.313749
-0.313036
-0.312151
-0.311059
-0.309758
-0.30828
-0.306657
-0.304922
-0.303105
-0.301237
-0.299344
-0.297446
-0.29556
-0.293695
-0.291851
-0.29002
-0.288186
-0.286322
-0.284396
-0.282367
-0.280192
-0.27783
-0.275245
-0.272414
-0.269324
-0.26599
-0.262408
-0.258713
-0.254566
-0.251166
-0.31724
-0.316382
-0.315359
-0.314128
-0.31268
-0.311051
-0.309278
-0.307393
-0.305429
-0.303416
-0.30138
-0.299342
-0.297314
-0.295302
-0.293303
-0.291304
-0.289282
-0.287206
-0.285037
-0.282734
-0.280253
-0.277557
-0.274616
-0.271413
-0.267947
-0.264238
-0.260291
-0.256211
-0.251747
-0.247775
-0.321006
-0.319984
-0.31881
-0.317429
-0.315824
-0.314037
-0.312105
-0.310065
-0.307948
-0.305786
-0.303603
-0.301417
-0.299238
-0.297068
-0.294897
-0.292707
-0.29047
-0.288148
-0.2857
-0.283084
-0.280259
-0.277191
-0.273862
-0.270266
-0.266411
-0.262324
-0.25802
-0.253592
-0.248847
-0.244469
-0.325057
-0.323854
-0.322517
-0.320973
-0.319203
-0.317249
-0.315152
-0.31295
-0.310676
-0.308359
-0.306022
-0.30368
-0.301338
-0.298993
-0.29663
-0.294222
-0.291737
-0.289132
-0.286366
-0.283395
-0.280187
-0.276716
-0.272975
-0.26897
-0.26472
-0.260263
-0.255619
-0.250877
-0.245884
-0.24121
-0.329405
-0.328003
-0.326488
-0.324772
-0.322826
-0.320698
-0.318431
-0.316062
-0.313624
-0.311146
-0.308646
-0.306137
-0.303618
-0.301077
-0.298495
-0.295837
-0.293066
-0.290137
-0.287009
-0.283645
-0.280018
-0.276116
-0.271945
-0.267524
-0.262883
-0.258067
-0.253104
-0.248078
-0.242864
-0.237965
-0.334058
-0.332439
-0.330733
-0.328835
-0.326706
-0.324396
-0.321951
-0.31941
-0.316802
-0.314155
-0.311483
-0.308792
-0.306075
-0.303314
-0.30048
-0.297535
-0.294436
-0.291139
-0.287606
-0.283809
-0.279733
-0.275379
-0.270767
-0.265929
-0.260905
-0.255745
-0.250484
-0.245199
-0.239786
-0.234702
-0.339021
-0.337168
-0.335259
-0.333169
-0.330849
-0.328351
-0.325723
-0.323003
-0.320219
-0.317392
-0.314534
-0.311643
-0.308704
-0.305691
-0.302568
-0.299293
-0.29582
-0.29211
-0.288131
-0.283866
-0.279315
-0.274495
-0.269438
-0.264187
-0.258793
-0.253306
-0.247764
-0.242241
-0.236644
-0.231396
-0.344298
-0.342195
-0.340071
-0.337781
-0.335262
-0.33257
-0.329754
-0.326848
-0.323879
-0.320861
-0.3178
-0.314685
-0.311494
-0.308192
-0.304737
-0.301084
-0.297191
-0.293022
-0.288557
-0.283795
-0.27875
-0.273454
-0.267954
-0.2623
-0.256549
-0.250751
-0.244946
-0.239198
-0.233429
-0.228027
-0.349889
-0.34752
-0.345172
-0.342674
-0.33995
-0.337059
-0.334048
-0.33095
-0.327784
-0.32456
-0.321275
-0.317908
-0.314428
-0.310794
-0.306959
-0.302879
-0.298515
-0.293844
-0.28886
-0.283575
-0.278024
-0.272251
-0.266313
-0.260268
-0.254174
-0.248081
-0.242027
-0.236067
-0.230133
-0.224581
-0.35579
-0.353141
-0.350559
-0.347848
-0.344915
-0.341819
-0.338607
-0.335307
-0.331932
-0.328483
-0.324946
-0.321292
-0.317481
-0.313467
-0.309201
-0.304641
-0.29976
-0.294547
-0.289013
-0.28319
-0.277125
-0.270878
-0.264512
-0.25809
-0.251668
-0.245294
-0.239003
-0.23284
-0.226746
-0.221045
-0.361996
-0.359053
-0.356229
-0.3533
-0.350153
-0.346847
-0.343428
-0.339915
-0.336314
-0.332616
-0.328795
-0.324814
-0.320625
-0.316178
-0.311425
-0.306335
-0.300891
-0.295101
-0.288995
-0.282621
-0.276043
-0.269329
-0.262547
-0.255762
-0.249027
-0.242385
-0.235867
-0.229508
-0.22326
-0.217408
-0.368493
-0.365244
-0.362173
-0.359022
-0.355658
-0.352138
-0.348503
-0.344764
-0.340916
-0.336939
-0.332797
-0.328443
-0.323822
-0.318885
-0.313592
-0.307921
-0.301874
-0.295479
-0.288784
-0.281855
-0.274768
-0.267597
-0.260414
-0.253281
-0.246246
-0.239348
-0.232612
-0.226063
-0.219665
-0.213663
-0.375263
-0.371701
-0.368378
-0.365002
-0.361418
-0.357679
-0.353819
-0.349837
-0.345717
-0.341427
-0.336919
-0.332139
-0.32703
-0.321546
-0.315657
-0.30936
-0.302675
-0.295653
-0.28836
-0.280877
-0.273289
-0.265675
-0.258105
-0.250638
-0.243317
-0.236173
-0.229227
-0.222496
-0.215951
-0.209799
-0.382284
-0.378401
-0.374824
-0.371223
-0.367417
-0.363452
-0.359354
-0.355109
-0.350687
-0.346043
-0.341121
-0.335858
-0.330201
-0.324111
-0.317576
-0.310611
-0.303261
-0.295597
-0.287703
-0.279672
-0.271596
-0.263554
-0.255613
-0.247826
-0.240231
-0.232851
-0.225703
-0.218796
-0.212109
-0.20581
-0.389527
-0.385318
-0.381486
-0.377661
-0.37363
-0.369433
-0.365081
-0.360548
-0.355789
-0.350746
-0.345353
-0.339548
-0.333282
-0.326532
-0.319303
-0.311636
-0.303601
-0.295286
-0.286795
-0.278227
-0.269677
-0.261223
-0.252927
-0.244835
-0.236977
-0.229372
-0.22203
-0.214954
-0.20813
-0.201687
-0.396954
-0.392418
-0.388333
-0.384285
-0.380027
-0.375587
-0.370964
-0.366114
-0.360977
-0.355484
-0.349562
-0.343153
-0.336219
-0.328755
-0.320793
-0.312398
-0.303663
-0.294699
-0.285618
-0.276527
-0.267521
-0.258671
-0.250036
-0.241652
-0.233544
-0.225723
-0.218196
-0.210959
-0.204004
-0.197422
-0.404522
-0.399662
-0.395328
-0.391058
-0.386569
-0.381876
-0.37696
-0.371759
-0.366199
-0.360199
-0.353688
-0.346612
-0.338953
-0.330729
-0.322
-0.312857
-0.303419
-0.293811
-0.284154
-0.274558
-0.265113
-0.255886
-0.246927
-0.238266
-0.22992
-0.221894
-0.21419
-0.2068
-0.199722
-0.193007
-0.412181
-0.407001
-0.402423
-0.397935
-0.393212
-0.388251
-0.383016
-0.377426
-0.371391
-0.364827
-0.357663
-0.349862
-0.341425
-0.332402
-0.32288
-0.312981
-0.302842
-0.2926
-0.282385
-0.272303
-0.262439
-0.252854
-0.243588
-0.234663
-0.226091
-0.217872
-0.210001
-0.202468
-0.195274
-0.188435
-0.419872
-0.414381
-0.409567
-0.404862
-0.3999
-0.394656
-0.389072
-0.383049
-0.376487
-0.369297
-0.36142
-0.352836
-0.343577
-0.333722
-0.323393
-0.312735
-0.301903
-0.291046
-0.280292
-0.269746
-0.259484
-0.249559
-0.240003
-0.23083
-0.222045
-0.213644
-0.205618
-0.197953
-0.190651
-0.183697
-0.42753
-0.42174
-0.416698
-0.411781
-0.406573
-0.401025
-0.395059
-0.388558
-0.381411
-0.373536
-0.364885
-0.355469
-0.345349
-0.334641
-0.323497
-0.312086
-0.300578
-0.289126
-0.277857
-0.26687
-0.256232
-0.245987
-0.236158
-0.226752
-0.217768
-0.209198
-0.201029
-0.193244
-0.185845
-0.178786
-0.435083
-0.429008
-0.423751
-0.418624
-0.41316
-0.407287
-0.400901
-0.393872
-0.386085
-0.377464
-0.367987
-0.357693
-0.346684
-0.335111
-0.323154
-0.311003
-0.29884
-0.286818
-0.275061
-0.263658
-0.252667
-0.242122
-0.232038
-0.222415
-0.213248
-0.204523
-0.196223
-0.188331
-0.180846
-0.173695
-0.442451
-0.436111
-0.430649
-0.425314
-0.419585
-0.413361
-0.406517
-0.398909
-0.390424
-0.381002
-0.37065
-0.359445
-0.347529
-0.335086
-0.322327
-0.309458
-0.296666
-0.284103
-0.271885
-0.260092
-0.248771
-0.237947
-0.227627
-0.217806
-0.208471
-0.199607
-0.191191
-0.183206
-0.175646
-0.168417
-0.44955
-0.442965
-0.437312
-0.431771
-0.425765
-0.419162
-0.411819
-0.403581
-0.394343
-0.38407
-0.372803
-0.360662
-0.347829
-0.334524
-0.320982
-0.307422
-0.294031
-0.280958
-0.268309
-0.256153
-0.244527
-0.233447
-0.222911
-0.21291
-0.203426
-0.194437
-0.185922
-0.177861
-0.170239
-0.162948
-0.456289
-0.449484
-0.443654
-0.437908
-0.43161
-0.424599
-0.416714
-0.407796
-0.397756
-0.386588
-0.374375
-0.361283
-0.347535
-0.333385
-0.319087
-0.304867
-0.290912
-0.277363
-0.264315
-0.251825
-0.239919
-0.228606
-0.217876
-0.207714
-0.198099
-0.189005
-0.180407
-0.172286
-0.164617
-0.157283
-0.462573
-0.455575
-0.449582
-0.443631
-0.437027
-0.429578
-0.421108
-0.411464
-0.400576
-0.388477
-0.375298
-0.361252
-0.346602
-0.331631
-0.316609
-0.301767
-0.287286
-0.273297
-0.259883
-0.247088
-0.234931
-0.223409
-0.212508
-0.202206
-0.192479
-0.183299
-0.174637
-0.166474
-0.158774
-0.151417
-0.468304
-0.461142
-0.455001
-0.448845
-0.441917
-0.433999
-0.424905
-0.414491
-0.402718
-0.389663
-0.375509
-0.360515
-0.344985
-0.329227
-0.313522
-0.298099
-0.283133
-0.268741
-0.254995
-0.241928
-0.229546
-0.217841
-0.206792
-0.196374
-0.186557
-0.17731
-0.168604
-0.160417
-0.152703
-0.145344
-0.473382
-0.466087
-0.459814
-0.45345
-0.446182
-0.437765
-0.428009
-0.416787
-0.4041
-0.390075
-0.374946
-0.359024
-0.342646
-0.326142
-0.309797
-0.293839
-0.27843
-0.263676
-0.249634
-0.236326
-0.22375
-0.21189
-0.200718
-0.190206
-0.180321
-0.171029
-0.162299
-0.154109
-0.146399
-0.13906
-0.477705
-0.470309
-0.463919
-0.457346
-0.449721
-0.440776
-0.430325
-0.418266
-0.404645
-0.389644
-0.373555
-0.356733
-0.339548
-0.322344
-0.30541
-0.288965
-0.273159
-0.258085
-0.243784
-0.23027
-0.21753
-0.205542
-0.194274
-0.183693
-0.173763
-0.164449
-0.155715
-0.147542
-0.139855
-0.13256
-0.481172
-0.473709
-0.467216
-0.460432
-0.452434
-0.442936
-0.431761
-0.418844
-0.404279
-0.388311
-0.371286
-0.353603
-0.335659
-0.317808
-0.300339
-0.283458
-0.267303
-0.25195
-0.23743
-0.223744
-0.210873
-0.198786
-0.18745
-0.176826
-0.166875
-0.157561
-0.148847
-0.140711
-0.133068
-0.12584
-0.483683
-0.476187
-0.469608
-0.462609
-0.454223
-0.444151
-0.432231
-0.418441
-0.402936
-0.38602
-0.368094
-0.349597
-0.330949
-0.312511
-0.294563
-0.2773
-0.260845
-0.245258
-0.230559
-0.216737
-0.203768
-0.191614
-0.180237
-0.169596
-0.15965
-0.150359
-0.141687
-0.133611
-0.126035
-0.1189
-0.485141
-0.477647
-0.470995
-0.463782
-0.454995
-0.44433
-0.431652
-0.416988
-0.400554
-0.38272
-0.363939
-0.344685
-0.325396
-0.306432
-0.288065
-0.270476
-0.253771
-0.237996
-0.223158
-0.209239
-0.196206
-0.184017
-0.172629
-0.161999
-0.152083
-0.142838
-0.134229
-0.126233
-0.118749
-0.111735
-0.485454
-0.477995
-0.471287
-0.463857
-0.45466
-0.443391
-0.429949
-0.414417
-0.39708
-0.378369
-0.358788
-0.338841
-0.318976
-0.299553
-0.28083
-0.262973
-0.246069
-0.230153
-0.21522
-0.201242
-0.18818
-0.175989
-0.164621
-0.154029
-0.144168
-0.134993
-0.126466
-0.118566
-0.111195
-0.104312
-0.484535
-0.477145
-0.470394
-0.462749
-0.453135
-0.441256
-0.427053
-0.410673
-0.392467
-0.372931
-0.352612
-0.332042
-0.311674
-0.291861
-0.272847
-0.254779
-0.23773
-0.221721
-0.206735
-0.192739
-0.179685
-0.167525
-0.156208
-0.145685
-0.135906
-0.126823
-0.118397
-0.110609
-0.103349
-0.0965488
-0.482301
-0.475015
-0.468236
-0.460377
-0.450343
-0.437857
-0.422906
-0.405705
-0.386677
-0.366376
-0.345391
-0.324273
-0.303477
-0.283345
-0.264105
-0.245887
-0.228748
-0.212694
-0.197701
-0.183726
-0.170718
-0.158625
-0.147391
-0.136965
-0.127296
-0.118332
-0.110031
-0.102379
-0.0952262
-0.0883725
-0.478681
-0.47153
-0.464739
-0.456669
-0.446219
-0.433133
-0.417456
-0.399473
-0.379678
-0.358681
-0.337108
-0.315522
-0.294376
-0.273999
-0.2546
-0.236292
-0.219117
-0.203069
-0.188113
-0.174202
-0.161279
-0.149287
-0.13817
-0.127873
-0.118342
-0.109522
-0.101378
-0.0938969
-0.0868834
-0.0799478
-0.473609
-0.466625
-0.459835
-0.451561
-0.440702
-0.427034
-0.410662
-0.391945
-0.371448
-0.349832
-0.327753
-0.305782
-0.284366
-0.263818
-0.244329
-0.225993
-0.208837
-0.192844
-0.177973
-0.164167
-0.151368
-0.139514
-0.128548
-0.118411
-0.109048
-0.100401
-0.0924416
-0.0851407
-0.0782125
-0.0715822
-0.46703
-0.460242
-0.453469
-0.445001
-0.433745
-0.419518
-0.40249
-0.383098
-0.361971
-0.339819
-0.317321
-0.295051
-0.273448
-0.252805
-0.233293
-0.21499
-0.19791
-0.182023
-0.167282
-0.153625
-0.140989
-0.129311
-0.118529
-0.108585
-0.0994188
-0.0909749
-0.0832249
-0.0761192
-0.0693424
-0.06305
-0.458897
-0.452335
-0.445595
-0.436943
-0.425309
-0.410554
-0.39292
-0.372918
-0.351241
-0.32864
-0.305813
-0.283334
-0.261625
-0.240962
-0.221496
-0.203289
-0.186339
-0.17061
-0.156046
-0.142581
-0.130148
-0.118684
-0.108121
-0.0984008
-0.0894623
-0.0812494
-0.0737339
-0.0668507
-0.0602719
-0.0543024
-0.449176
-0.442866
-0.436175
-0.427354
-0.415366
-0.400123
-0.381938
-0.361399
-0.339258
-0.316301
-0.293238
-0.270638
-0.248907
-0.228299
-0.208948
-0.190897
-0.174134
-0.158613
-0.144272
-0.131044
-0.118855
-0.10764
-0.0973312
-0.0878674
-0.0791866
-0.0712325
-0.0639775
-0.0573448
-0.0509917
-0.0453378
-0.437843
-0.43181
-0.425185
-0.416214
-0.4039
-0.388213
-0.369542
-0.348545
-0.32603
-0.302812
-0.279608
-0.256977
-0.235306
-0.214828
-0.195658
-0.177825
-0.161304
-0.146044
-0.131974
-0.119024
-0.107119
-0.0961902
-0.0861703
-0.0769952
-0.0686016
-0.0609338
-0.0539654
-0.0476081
-0.0415002
-0.036168
-0.424884
-0.419152
-0.41261
-0.403509
-0.390905
-0.374826
-0.355738
-0.334369
-0.311574
-0.288192
-0.264942
-0.242368
-0.220839
-0.200566
-0.181644
-0.164089
-0.147866
-0.132915
-0.119162
-0.106534
-0.0949528
-0.084348
-0.0746508
-0.0657961
-0.0577192
-0.0503648
-0.0437085
-0.0376492
-0.0318037
-0.0268054
-0.410298
-0.404889
-0.398447
-0.389241
-0.376384
-0.359972
-0.340542
-0.31889
-0.295911
-0.272464
-0.249262
-0.226835
-0.205528
-0.185531
-0.166925
-0.149707
-0.133835
-0.119243
-0.105854
-0.0935895
-0.0823719
-0.0721277
-0.0627873
-0.0542843
-0.046553
-0.0395387
-0.0332189
-0.0274788
-0.0219128
-0.0172629
-0.394093
-0.389027
-0.382705
-0.373421
-0.360355
-0.343671
-0.32398
-0.302136
-0.279072
-0.255658
-0.232599
-0.210405
-0.189398
-0.16975
-0.151521
-0.134699
-0.119232
-0.105049
-0.092068
-0.0802093
-0.0693937
-0.0595461
-0.0505958
-0.0424754
-0.0351182
-0.0284704
-0.0225111
-0.0171104
-0.0118413
-0.0075548
-0.37629
-0.371586
-0.365403
-0.35607
-0.342843
-0.325953
-0.306084
-0.284143
-0.261094
-0.237812
-0.214987
-0.19311
-0.172481
-0.15325
-0.135461
-0.119091
-0.104081
-0.0903532
-0.077825
-0.0664133
-0.0560376
-0.0466219
-0.0380946
-0.0303872
-0.023432
-0.0171766
-0.0116012
-0.00656015
-0.00160557
0.00230304
-0.356921
-0.352594
-0.346571
-0.337221
-0.323883
-0.306859
-0.286897
-0.264955
-0.242022
-0.218964
-0.196462
-0.174986
-0.154809
-0.136062
-0.118773
-0.102911
-0.088407
-0.0751817
-0.0631489
-0.0522239
-0.0423252
-0.0333759
-0.0253035
-0.0180388
-0.0115133
-0.00567582
-0.000507407
0.00415387
0.00877551
0.0122927
-0.336027
-0.332093
-0.326249
-0.316917
-0.303522
-0.286436
-0.26647
-0.244627
-0.221904
-0.199153
-0.177069
-0.156073
-0.13642
-0.118221
-0.101492
-0.0861886
-0.0722402
-0.0595619
-0.0480658
-0.0376658
-0.0282799
-0.0198302
-0.0122439
-0.00545089
0.000617734
0.00601191
0.0107502
0.0150113
0.0192803
0.022392
-0.313661
-0.310132
-0.304488
-0.29521
-0.281815
-0.264743
-0.244865
-0.223216
-0.200766
-0.178447
-0.156859
-0.136418
-0.117357
-0.0997675
-0.0836518
-0.0689591
-0.0556123
-0.0435236
-0.0326038
-0.0227657
-0.0139268
-0.00600878
0.00106144
0.00735453
0.0129396
0.0178652
0.0221503
0.0259898
0.0298832
0.0325712
-0.289884
-0.28677
-0.281349
-0.272162
-0.258825
-0.241846
-0.222139
-0.200743
-0.178719
-0.156895
-0.135882
-0.116069
-0.097664
-0.0807423
-0.0652933
-0.0512589
-0.0385576
-0.0270993
-0.0167933
-0.00755216
0.000707293
0.00806311
0.0145886
0.0203546
0.0254302
0.0298621
0.0336703
0.0370649
0.040554
0.0427943
-0.26477
-0.262077
-0.2569
-0.247845
-0.234628
-0.21781
-0.198338
-0.177334
-0.155798
-0.134556
-0.114194
-0.0950774
-0.0773903
-0.061191
-0.0464583
-0.0331275
-0.0211132
-0.0103235
-0.000666799
0.00794466
0.015594
0.022359
0.0283127
0.033526
0.0380669
0.0419801
0.0452875
0.0482113
0.0512608
0.0530306
-0.238396
-0.236129
-0.231219
-0.222337
-0.20929
-0.192695
-0.173582
-0.153039
-0.132075
-0.111494
-0.0918565
-0.0735
-0.0565875
-0.0411618
-0.0271918
-0.0146068
-0.00331825
0.00676716
0.0157415
0.0236928
0.0307036
0.0368513
0.0422083
0.0468448
0.0508272
0.0541976
0.0569799
0.0594067
0.0619795
0.0632567
-0.210836
-0.209015
-0.20439
-0.195715
-0.182892
-0.166622
-0.147933
-0.127934
-0.107623
-0.0877783
-0.068932
-0.0513951
-0.0353102
-0.0207057
-0.00754133
0.0042588
0.0147857
0.0241339
0.0323956
0.0396587
0.0460051
0.0515113
0.056249
0.0602871
0.0636889
0.0664927
0.0687283
0.0706376
0.0726921
0.0734095
-0.182161
-0.180839
-0.176508
-0.168072
-0.155547
-0.139663
-0.121476
-0.102101
-0.0825191
-0.0634802
-0.0454869
-0.0288245
-0.013616
0.000123802
0.0124432
0.0234226
0.0331552
0.0417361
0.0492577
0.0558073
0.0614661
0.0663096
0.0704083
0.073829
0.0766297
0.0788452
0.0805181
0.0818932
0.0833502
0.083329
-0.152455
-0.151738
-0.147665
-0.139513
-0.127342
-0.111911
-0.0943023
-0.0756266
-0.0568435
-0.0386741
-0.0215905
-0.00585264
0.00843532
0.0212709
0.0327097
0.0428361
0.0517447
0.0595315
0.0662884
0.0721021
0.0770531
0.0812157
0.0846591
0.087447
0.0896301
0.0912424
0.0923465
0.0931567
0.0938395
0.0928448
-0.121966
-0.121707
-0.117971
-0.110144
-0.0983767
-0.0834657
-0.0665053
-0.0485983
-0.0306792
-0.0134373
0.00268544
0.0174538
0.0307816
0.0426776
0.0532041
0.0624486
0.0705073
0.077476
0.0834466
0.0885051
0.0927309
0.0961976
0.0989733
0.101117
0.102675
0.103685
0.104234
0.104436
0.104102
0.102004
-0.0907285
-0.0909026
-0.0875357
-0.0800704
-0.0687579
-0.0544285
-0.0381822
-0.0211077
-0.00411123
0.0121508
0.027267
0.0410262
0.0533588
0.0642842
0.0738706
0.0822081
0.089394
0.0955242
0.10069
0.104977
0.108463
0.111222
0.11332
0.114814
0.115746
0.116175
0.116206
0.115787
0.11436
0.111355
-0.0588335
-0.0594583
-0.0564737
-0.0494037
-0.0385945
-0.0249041
-0.00943229
0.0067517
0.0227728
0.0380087
0.0520784
0.0647938
0.0761011
0.0860294
0.0946518
0.102061
0.108355
0.113629
0.117974
0.121475
0.12421
0.126251
0.127664
0.128503
0.128816
0.128682
0.128212
0.127153
0.124698
0.122975
-0.0264062
-0.0274909
-0.024901
-0.0182583
-0.00799816
0.00500002
0.0196428
0.0348845
0.0498839
0.0640536
0.0770426
0.0886848
0.0989415
0.10785
0.115489
0.121953
0.127338
0.131743
0.135255
0.13796
0.139934
0.141249
0.14197
0.142151
0.141844
0.14114
0.140122
0.138461
0.13567
0.134628
0.00642678
0.00487956
0.00706239
0.013248
0.0229171
0.035175
0.0489398
0.0631938
0.0771316
0.0902013
0.102081
0.112626
0.121812
0.129684
0.136323
0.141827
0.146293
0.149816
0.152486
0.154386
0.155592
0.156176
0.1562
0.15572
0.154793
0.153509
0.15192
0.149706
0.146636
0.145541
0.039539
0.0375297
0.039294
0.0449955
0.0540356
0.0655103
0.0783546
0.091582
0.104425
0.116367
0.127114
0.136544
0.144643
0.151464
0.157094
0.161628
0.165165
0.1678
0.169621
0.170711
0.171145
0.170993
0.170318
0.169176
0.167625
0.165753
0.163594
0.160869
0.157491
0.156066
0.0728028
0.070334
0.07167
0.076863
0.0852406
0.0958947
0.107782
0.119951
0.131672
0.142464
0.152063
0.160364
0.167365
0.173128
0.17774
0.181298
0.183902
0.185645
0.186614
0.186891
0.18655
0.185661
0.184286
0.182481
0.180304
0.177839
0.175111
0.171876
0.168126
0.166268
0.10609
0.103166
0.104065
0.108729
0.116415
0.126217
0.137118
0.148202
0.15878
0.168408
0.176847
0.184011
0.18991
0.19461
0.198201
0.200782
0.202451
0.2033
0.203417
0.202881
0.201767
0.200142
0.198068
0.195599
0.192796
0.189737
0.186441
0.182691
0.17853
0.176192
0.139272
0.135898
0.136355
0.140471
0.147441
0.156365
0.166256
0.176236
0.185659
0.194113
0.201387
0.207411
0.212206
0.215844
0.218416
0.220021
0.220757
0.220716
0.219984
0.218639
0.216754
0.214396
0.211626
0.208498
0.20507
0.201417
0.197555
0.193285
0.18869
0.185849
0.17222
0.168404
0.168413
0.171968
0.178203
0.18623
0.195093
0.203958
0.212217
0.219495
0.225604
0.23049
0.234186
0.236766
0.238324
0.238959
0.238769
0.237844
0.236269
0.234121
0.231471
0.228387
0.224926
0.221143
0.217094
0.212852
0.208425
0.203635
0.198597
0.195237
0.204806
0.200557
0.200117
0.203099
0.208585
0.2157
0.223526
0.23127
0.238365
0.244469
0.249418
0.253176
0.255781
0.257312
0.257866
0.257541
0.256434
0.254634
0.252225
0.249283
0.245879
0.242076
0.237933
0.233502
0.22884
0.224013