/*--------------------------------*- C++ -*----------------------------------*\
  =========                 |
  \\      /  F ield         | OpenFOAM: The Open Source CFD Toolbox
   \\    /   O peration     | Website:  https://openfoam.org
    \\  /    A nd           | Version:  7
     \\/     M anipulation  |
\*---------------------------------------------------------------------------*/
FoamFile
{
    version     2.0;
    format      ascii;
    class       volVectorField;
    location    "10";
    object      U;
}
// * * * * * * * * * * * * * * * * * * * * * * * * * * * * * * * * * * * * * //

dimensions      [0 1 -1 0 0 0 0];

internalField   nonuniform List<vector> 
928
(
(0.21872 -0.00192852 5.8814e-22)
(0.224342 -0.00191678 -4.01475e-22)
(0.229932 -0.00190497 -2.88044e-22)
(0.235489 -0.00189312 -8.98568e-23)
(0.241014 -0.00188125 -1.91312e-22)
(0.219929 -0.00577644 -1.16048e-21)
(0.225539 -0.0057411 8.11792e-23)
(0.231117 -0.00570558 -2.97596e-23)
(0.236663 -0.00566995 -4.47545e-22)
(0.242176 -0.00563426 1.22505e-22)
(0.222342 -0.00961073 -2.44097e-21)
(0.227929 -0.00955194 8.16114e-21)
(0.233483 -0.00949284 -4.6937e-21)
(0.239006 -0.00943355 -2.81233e-21)
(0.244496 -0.00937418 4.44565e-21)
(0.225949 -0.0134223 6.91858e-21)
(0.2315 -0.0133403 -6.28102e-21)
(0.23702 -0.0132579 9.70103e-22)
(0.242508 -0.0131752 3.76111e-21)
(0.247964 -0.0130923 1.02182e-22)
(0.230735 -0.0172024 1.47605e-21)
(0.236239 -0.0170974 -4.53169e-21)
(0.241712 -0.016992 1.53495e-22)
(0.247154 -0.0168861 1.04798e-21)
(0.252565 -0.0167802 -1.14207e-21)
(0.236681 -0.0209419 -1.27624e-20)
(0.242126 -0.0208145 1.66626e-20)
(0.247542 -0.0206864 -1.89816e-20)
(0.252926 -0.0205579 8.908e-21)
(0.25828 -0.0204292 5.35631e-22)
(0.243761 -0.0246324 5.72813e-21)
(0.249138 -0.024483 -9.01739e-21)
(0.254484 -0.0243328 6.75464e-21)
(0.2598 -0.0241821 -6.25533e-21)
(0.265086 -0.0240312 4.29305e-21)
(0.251948 -0.0282652 -1.59974e-21)
(0.257244 -0.0280945 6.29861e-21)
(0.26251 -0.0279228 1.81267e-21)
(0.267748 -0.0277505 -4.85553e-21)
(0.272955 -0.027578 3.42817e-21)
(0.261209 -0.0318322 -3.26248e-21)
(0.266413 -0.0316408 -1.13624e-20)
(0.271589 -0.0314483 2.16562e-22)
(0.276736 -0.0312551 1.52526e-20)
(0.281855 -0.0310617 -1.29427e-21)
(0.286946 -0.0308681 -4.65814e-21)
(0.271506 -0.0353253 -8.34103e-21)
(0.276608 -0.035114 1.40533e-20)
(0.281683 -0.0349015 -1.76691e-20)
(0.286731 -0.0346883 1.79493e-21)
(0.291751 -0.0344746 6.88952e-21)
(0.296743 -0.0342609 1.71776e-21)
(0.287789 -0.0385065 1.18063e-20)
(0.292753 -0.0382749 -1.65337e-21)
(0.29769 -0.0380425 -1.09516e-20)
(0.302602 -0.0378095 1.35717e-20)
(0.307486 -0.0375765 -9.42601e-21)
(0.299912 -0.0418111 -8.66716e-21)
(0.304755 -0.0415613 1.73022e-20)
(0.309573 -0.0413106 -2.5257e-20)
(0.314365 -0.0410593 1.37343e-20)
(0.319133 -0.0408079 -1.16148e-20)
(0.31293 -0.0450206 -8.90365e-21)
(0.317642 -0.0447538 9.50845e-22)
(0.322331 -0.0444859 -6.17385e-21)
(0.326997 -0.0442174 -6.2245e-21)
(0.331638 -0.0439487 2.92592e-21)
(0.326792 -0.0481286 2.67402e-20)
(0.331366 -0.0478459 -2.52529e-20)
(0.335917 -0.047562 4.96694e-21)
(0.340446 -0.0472774 -5.26025e-21)
(0.344953 -0.0469925 -3.2668e-21)
(0.341448 -0.0511289 1.60158e-20)
(0.345874 -0.0508316 -1.3184e-20)
(0.350279 -0.050533 7.19872e-21)
(0.354664 -0.0502334 7.17859e-21)
(0.359028 -0.0499335 -1.20736e-20)
(0.356842 -0.0540158 2.62213e-21)
(0.361112 -0.0537053 -1.39527e-20)
(0.365364 -0.0533932 8.23848e-21)
(0.369596 -0.0530801 -8.06445e-21)
(0.373811 -0.0527665 -4.34941e-21)
(0.378006 -0.0524529 9.07929e-21)
(0.377025 -0.0564617 -1.59678e-20)
(0.381116 -0.0561376 1.89458e-20)
(0.385189 -0.0558123 5.65491e-21)
(0.389246 -0.0554864 -1.94811e-21)
(0.393286 -0.0551604 -1.58057e-20)
(0.393556 -0.0590962 3.50745e-20)
(0.397478 -0.0587616 -8.47081e-21)
(0.401386 -0.0584256 -2.18202e-20)
(0.405279 -0.0580888 6.68101e-22)
(0.409157 -0.0577518 2.10457e-20)
(0.410647 -0.0616047 4.16389e-21)
(0.414395 -0.0612612 -6.86367e-21)
(0.41813 -0.060916 4.37772e-21)
(0.421853 -0.0605699 -1.62708e-20)
(0.425563 -0.0602234 9.94907e-21)
(0.428238 -0.0639835 7.68615e-21)
(0.431806 -0.0636327 -2.05893e-21)
(0.435364 -0.06328 -8.39467e-22)
(0.438911 -0.0629261 8.15775e-22)
(0.442448 -0.0625716 -4.64995e-22)
(0.445975 -0.062217 2.0446e-20)
(0.449654 -0.0658731 -2.64514e-20)
(0.453029 -0.0655146 1.76517e-20)
(0.456396 -0.0651545 -3.3101e-21)
(0.459755 -0.0647936 1.78769e-20)
(0.463106 -0.0644324 -1.70513e-20)
(0.467879 -0.06798 -1.13457e-20)
(0.471067 -0.0676173 1.34292e-20)
(0.47425 -0.0672528 -2.16631e-20)
(0.477427 -0.0668872 2.22985e-20)
(0.480598 -0.066521 -1.07629e-20)
(0.486424 -0.0699514 3.16225e-20)
(0.489421 -0.0695864 -2.08392e-20)
(0.492416 -0.0692191 3.93977e-21)
(0.495408 -0.0688504 1.69706e-20)
(0.498396 -0.0684809 -3.91319e-21)
(0.50523 -0.0717859 -5.63559e-20)
(0.508034 -0.0714204 -3.58412e-21)
(0.510838 -0.0710522 6.06278e-20)
(0.513641 -0.0706822 -2.33463e-20)
(0.516443 -0.070311 1.14748e-20)
(0.519244 -0.0699393 -1.62864e-20)
(0.526849 -0.0731189 2.65243e-20)
(0.529459 -0.0727516 -2.56759e-20)
(0.532072 -0.072382 4.42943e-20)
(0.534686 -0.0720108 -8.22483e-21)
(0.537302 -0.0716388 -9.37518e-21)
(0.54581 -0.0746817 -4.09284e-20)
(0.548226 -0.0743171 3.66994e-20)
(0.550646 -0.0739496 1.02117e-20)
(0.553071 -0.0735802 -2.17393e-20)
(0.5555 -0.0732094 4.50502e-20)
(0.564865 -0.0761065 5.05308e-21)
(0.567085 -0.0757464 5.24497e-20)
(0.569312 -0.0753829 -4.63116e-20)
(0.571546 -0.075017 3.55474e-21)
(0.573787 -0.0746493 -1.01632e-20)
(0.576035 -0.0742804 2.04074e-21)
(0.585985 -0.0770394 -2.15952e-20)
(0.588018 -0.0766817 -2.61376e-20)
(0.590062 -0.076321 2.07901e-20)
(0.592115 -0.075958 -1.61864e-20)
(0.594177 -0.0755933 2.20693e-20)
(0.604876 -0.078222 -5.77744e-20)
(0.606716 -0.0778713 3.28101e-20)
(0.608569 -0.077517 -7.99644e-21)
(0.610434 -0.0771598 2.28338e-20)
(0.612311 -0.0768005 2.85458e-20)
(0.623712 -0.0793193 6.12309e-20)
(0.625359 -0.0789773 -3.28547e-20)
(0.627023 -0.078631 -3.92012e-20)
(0.628701 -0.0782812 3.4649e-20)
(0.630393 -0.0779286 2.03678e-20)
(0.632099 -0.0775739 2.63567e-20)
(0.654697 -0.0803506 0)
(0.656095 -0.0800265 0)
(0.657512 -0.0796979 0)
(0.658947 -0.0793654 0)
(0.660398 -0.0790298 0)
(0.697613 -0.0820635 0)
(0.698618 -0.0817682 0)
(0.699646 -0.0814672 0)
(0.700697 -0.0811614 0)
(0.70177 -0.0808514 0)
(0.740661 -0.0831991 0)
(0.741272 -0.0829416 0)
(0.741912 -0.0826768 0)
(0.74258 -0.0824058 0)
(0.743274 -0.0821292 -3.56166e-28)
(0.783369 -0.0837619 0)
(0.783594 -0.0835497 0)
(0.783853 -0.0833287 0)
(0.784144 -0.0830997 0)
(0.784466 -0.0828637 3.56534e-28)
(0.825292 -0.0837841 0)
(0.825146 -0.0836239 0)
(0.825038 -0.083453 0)
(0.824966 -0.0832724 0)
(0.82493 -0.0830832 9.50044e-28)
(0.866019 -0.0832907 0)
(0.865523 -0.0831882 0)
(0.865069 -0.0830732 0)
(0.864655 -0.0829467 0)
(0.86428 -0.0828097 1.37164e-27)
(0.90518 -0.082317 0)
(0.904362 -0.0822771 0)
(0.903589 -0.0822227 0)
(0.902859 -0.0821548 0)
(0.902171 -0.0820746 0)
(0.942455 -0.080907 0)
(0.941348 -0.0809332 0)
(0.940287 -0.0809428 0)
(0.939272 -0.0809371 0)
(0.938301 -0.0809171 1.68513e-27)
(0.977576 -0.0791109 0)
(0.976216 -0.0792052 0)
(0.974904 -0.0792809 0)
(0.973638 -0.0793394 0)
(0.972417 -0.0793819 0)
(1.01033 -0.0769829 0)
(1.00876 -0.0771459 0)
(1.00723 -0.0772885 0)
(1.00575 -0.0774121 0)
(1.00432 -0.0775178 1.22685e-27)
(1.04058 -0.0745797 0)
(1.03883 -0.0748106 0)
(1.03713 -0.0750194 0)
(1.03547 -0.0752075 0)
(1.03386 -0.075376 0)
(1.06821 -0.0719585 0)
(1.06633 -0.0722551 0)
(1.06449 -0.0725281 0)
(1.0627 -0.0727789 0)
(1.06094 -0.0730087 0)
(1.0932 -0.0691749 0)
(1.09122 -0.0695339 0)
(1.08928 -0.069868 0)
(1.08739 -0.0701785 0)
(1.08553 -0.0704668 -1.21543e-27)
(1.11556 -0.0662817 0)
(1.11352 -0.0666987 0)
(1.11152 -0.0670898 0)
(1.10955 -0.0674562 0)
(1.10762 -0.0677994 -1.65668e-27)
(1.13535 -0.0633272 0)
(1.13327 -0.0637972 0)
(1.13124 -0.0642404 0)
(1.12923 -0.0646582 0)
(1.12726 -0.0650518 0)
(1.15266 -0.0603548 0)
(1.15058 -0.0608721 0)
(1.14854 -0.061362 0)
(1.14653 -0.0618259 0)
(1.14455 -0.0622651 0)
(1.16762 -0.0574018 0)
(1.16557 -0.0579603 0)
(1.16355 -0.0584913 0)
(1.16155 -0.0589958 0)
(1.15958 -0.0594752 0)
(1.1804 -0.0544993 0)
(1.17839 -0.0550931 0)
(1.1764 -0.0556591 0)
(1.17444 -0.0561987 0)
(1.17249 -0.0567128 -1.18513e-27)
(1.19115 -0.0516723 0)
(1.1892 -0.0522954 0)
(1.18727 -0.0528908 0)
(1.18535 -0.0534597 0)
(1.18346 -0.0540032 1.17778e-27)
(1.20007 -0.0489399 0)
(1.19818 -0.0495865 0)
(1.19632 -0.0502056 0)
(1.19446 -0.0507984 0)
(1.19263 -0.051366 1.60155e-27)
(1.20733 -0.0463158 0)
(1.20552 -0.0469804 0)
(1.20373 -0.047618 0)
(1.20195 -0.0482296 0)
(1.20018 -0.0488161 1.16218e-27)
(1.21312 -0.0438088 0)
(1.2114 -0.0444865 0)
(1.20968 -0.0451375 0)
(1.20798 -0.0457631 0)
(1.20628 -0.046364 0)
(1.21762 -0.0414235 0)
(1.21599 -0.0421097 0)
(1.21435 -0.0427698 0)
(1.21273 -0.0434048 0)
(1.2111 -0.0440158 4.45301e-11)
(1.221 -0.0391611 0)
(1.21945 -0.0398516 0)
(1.2179 -0.0405168 0)
(1.21635 -0.0411575 0)
(1.21481 -0.0417746 4.42022e-11)
(1.22342 -0.03702 0)
(1.22195 -0.0377113 0)
(1.22048 -0.0383779 0)
(1.21901 -0.0390207 0)
(1.21754 -0.0396405 1.12877e-27)
(1.22501 -0.0349965 0)
(1.22362 -0.0356854 0)
(1.22223 -0.0363504 0)
(1.22084 -0.0369922 0)
(1.21944 -0.0376117 0)
(1.22592 -0.0330854 0)
(1.22461 -0.0337692 0)
(1.22329 -0.0344299 0)
(1.22197 -0.035068 0)
(1.22064 -0.0356844 0)
(1.22625 -0.0312806 0)
(1.22501 -0.0319569 0)
(1.22376 -0.0326108 0)
(1.22251 -0.033243 0)
(1.22125 -0.033854 -1.10308e-27)
(1.22611 -0.0295751 0)
(1.22494 -0.030242 0)
(1.22376 -0.0308872 0)
(1.22257 -0.0315113 0)
(1.22138 -0.0321151 -1.49816e-27)
(1.2256 -0.0279621 0)
(1.22448 -0.0286178 0)
(1.22336 -0.0292525 0)
(1.22223 -0.0298669 0)
(1.2211 -0.0304616 0)
(1.22477 -0.0264346 0)
(1.22372 -0.0270776 0)
(1.22265 -0.0277004 0)
(1.22158 -0.0283035 0)
(1.2205 -0.0288877 0)
(1.22371 -0.0249859 0)
(1.22271 -0.0256149 0)
(1.2217 -0.0262244 0)
(1.22067 -0.026815 0)
(1.21964 -0.0273873 0)
(1.22246 -0.0236095 0)
(1.22151 -0.0242234 0)
(1.22055 -0.0248185 0)
(1.21957 -0.0253955 0)
(1.21859 -0.0259548 -1.06158e-27)
(1.22108 -0.0222995 0)
(1.22017 -0.0228973 0)
(1.21925 -0.0234771 0)
(1.21832 -0.0240395 0)
(1.21738 -0.0245848 0)
(1.21961 -0.0210506 0)
(1.21874 -0.0216314 0)
(1.21786 -0.0221949 0)
(1.21697 -0.0227417 0)
(1.21607 -0.0232722 0)
(1.21806 -0.0198575 0)
(1.21723 -0.0204206 0)
(1.21639 -0.0209671 0)
(1.21554 -0.0214976 0)
(1.21467 -0.0220124 2.37169e-27)
(1.21649 -0.0187159 0)
(1.21569 -0.0192605 0)
(1.21488 -0.0197894 0)
(1.21406 -0.0203028 0)
(1.21323 -0.0208013 0)
(1.21489 -0.0176216 0)
(1.21413 -0.0181472 0)
(1.21335 -0.0186576 0)
(1.21256 -0.0191534 0)
(1.21176 -0.0196348 1.40174e-27)
(1.2133 -0.016571 0)
(1.21257 -0.0170768 0)
(1.21182 -0.0175683 0)
(1.21106 -0.0180458 0)
(1.21028 -0.0185096 1.0173e-27)
(1.21173 -0.0155607 0)
(1.21102 -0.0160463 0)
(1.2103 -0.0165182 0)
(1.20957 -0.0169768 0)
(1.20882 -0.0174225 0)
(1.21019 -0.0145876 0)
(1.20951 -0.0150524 0)
(1.20881 -0.0155043 0)
(1.2081 -0.0159436 0)
(1.20738 -0.0163706 0)
(1.20869 -0.013649 0)
(1.20803 -0.0140926 0)
(1.20736 -0.014524 0)
(1.20667 -0.0149434 0)
(1.20597 -0.0153512 0)
(1.20724 -0.0127424 0)
(1.20661 -0.0131643 0)
(1.20596 -0.0135747 0)
(1.20529 -0.0139739 0)
(1.20461 -0.014362 -9.92576e-28)
(1.20585 -0.0118653 0)
(1.20524 -0.0122652 0)
(1.2046 -0.0126542 0)
(1.20396 -0.0130327 0)
(1.20329 -0.0134008 -1.35104e-27)
(1.20452 -0.0110157 0)
(1.20392 -0.0113931 0)
(1.20331 -0.0117604 0)
(1.20268 -0.0121177 0)
(1.20204 -0.0124653 0)
(1.20326 -0.0101913 0)
(1.20268 -0.010546 0)
(1.20208 -0.0108911 0)
(1.20147 -0.011227 0)
(1.20084 -0.0115538 0)
(1.20207 -0.00939037 0)
(1.2015 -0.00972187 0)
(1.20092 -0.0100446 0)
(1.20032 -0.0103587 0)
(1.19971 -0.0106644 0)
(1.20095 -0.00861092 0)
(1.2004 -0.008919 0)
(1.19983 -0.00921896 0)
(1.19925 -0.00951097 0)
(1.19865 -0.00979521 -9.68103e-28)
(1.19991 -0.00785119 0)
(1.19937 -0.00813557 0)
(1.19882 -0.0084125 0)
(1.19825 -0.00868215 0)
(1.19766 -0.00894465 9.64129e-28)
(1.19895 -0.00710943 0)
(1.19843 -0.00736987 0)
(1.19788 -0.00762353 0)
(1.19732 -0.00787055 0)
(1.19675 -0.00811107 1.31461e-27)
(1.19807 -0.00638397 0)
(1.19756 -0.00662025 0)
(1.19703 -0.00685041 0)
(1.19648 -0.00707457 0)
(1.19591 -0.00729286 9.57136e-28)
(1.19728 -0.00567315 0)
(1.19677 -0.00588507 0)
(1.19625 -0.00609153 0)
(1.19571 -0.00629263 0)
(1.19516 -0.00648849 0)
(1.19657 -0.00497536 0)
(1.19607 -0.00516275 0)
(1.19556 -0.00534532 0)
(1.19503 -0.00552319 0)
(1.19448 -0.00569643 1.30225e-27)
(1.19595 -0.00428902 0)
(1.19546 -0.00445172 0)
(1.19495 -0.00461026 0)
(1.19443 -0.00476472 0)
(1.19389 -0.00491519 9.4909e-28)
(1.19541 -0.00361255 0)
(1.19493 -0.00375044 0)
(1.19443 -0.00388481 0)
(1.19391 -0.00401573 0)
(1.19338 -0.00414328 0)
(1.19496 -0.00294441 0)
(1.19449 -0.00305737 0)
(1.19399 -0.00316746 0)
(1.19348 -0.00327474 0)
(1.19295 -0.00337925 0)
(1.19461 -0.00228307 0)
(1.19413 -0.00237102 0)
(1.19364 -0.00245674 0)
(1.19313 -0.00254027 0)
(1.19261 -0.00262166 0)
(1.19434 -0.00162701 0)
(1.19387 -0.00168988 0)
(1.19338 -0.00175116 0)
(1.19287 -0.00181087 0)
(1.19235 -0.00186906 -9.43017e-28)
(1.19416 -0.00097468 0)
(1.19369 -0.00101242 0)
(1.1932 -0.00104921 0)
(1.1927 -0.00108506 0)
(1.19218 -0.00111999 -1.28979e-27)
(1.19407 -0.000324627 0)
(1.1936 -0.000337211 0)
(1.19311 -0.000349478 0)
(1.19261 -0.000361432 0)
(1.19209 -0.00037308 0)
(1.20262 0.00904963 0)
(1.20149 0.00829432 0)
(1.20043 0.00755899 0)
(1.19946 0.00684188 0)
(1.19857 0.00614127 0)
(1.19777 0.00545551 0)
(1.19705 0.00478294 0)
(1.19642 0.00412196 0)
(1.19588 0.00347099 0)
(1.19543 0.00282845 0)
(1.19506 0.00219279 0)
(1.19479 0.00156247 0)
(1.19461 0.00093594 0)
(1.19452 0.00031171 0)
(0.654694 0.0803469 0)
(0.69761 0.0820599 0)
(0.740659 0.0831957 0)
(0.783367 0.0837586 0)
(0.825291 0.0837809 0)
(0.866018 0.0832876 0)
(0.905179 0.082314 0)
(0.942453 0.0809042 0)
(0.977575 0.0791082 0)
(1.01033 0.0769803 0)
(1.04058 0.0745773 0)
(1.06821 0.0719561 0)
(1.0932 0.0691726 0)
(1.11556 0.0662795 0)
(1.13535 0.0633252 0)
(1.15266 0.0603529 0)
(1.16762 0.0573999 0)
(1.1804 0.0544975 0)
(1.19115 0.0516706 0)
(1.20007 0.0489383 0)
(1.20733 0.0463143 0)
(1.21312 0.0438074 0)
(1.21762 0.0414222 0)
(1.221 0.0391599 0)
(1.22342 0.0370188 0)
(1.22502 0.0349954 0)
(1.22592 0.0330844 0)
(1.22625 0.0312795 0)
(1.22612 0.0295742 0)
(1.2256 0.0279612 0)
(1.22477 0.0264338 0)
(1.22371 0.0249851 0)
(1.22247 0.0236087 0)
(1.22108 0.0222988 0)
(1.21961 0.0210499 0)
(1.21807 0.0198569 0)
(1.21649 0.0187153 0)
(1.21489 0.0176211 0)
(1.2133 0.0165705 0)
(1.21173 0.0155602 0)
(1.21019 0.0145872 0)
(1.20869 0.0136486 0)
(1.20725 0.012742 0)
(1.20585 0.011865 0)
(1.20452 0.0110153 0)
(1.20326 0.010191 0)
(1.20207 0.0093901 0)
(1.20095 0.00861068 0)
(1.19991 0.00785097 0)
(1.19895 0.00710923 0)
(1.19808 0.00638379 0)
(1.19728 0.00567299 0)
(1.19657 0.00497522 0)
(1.19595 0.0042889 0)
(1.19541 0.00361245 0)
(1.19497 0.00294433 0)
(1.19461 0.00228301 0)
(1.19434 0.00162696 0)
(1.19416 0.000974653 0)
(1.19407 0.000324618 0)
(0.656093 0.0800227 0)
(0.698615 0.0817646 0)
(0.74127 0.082938 0)
(0.783592 0.0835463 0)
(0.825144 0.0836206 0)
(0.865522 0.0831851 0)
(0.904361 0.0822741 0)
(0.941347 0.0809303 0)
(0.976215 0.0792024 0)
(1.00876 0.0771433 0)
(1.03883 0.0748081 0)
(1.06633 0.0722527 0)
(1.09122 0.0695316 0)
(1.11352 0.0666965 0)
(1.13328 0.0637951 0)
(1.15058 0.0608701 0)
(1.16557 0.0579585 0)
(1.17839 0.0550913 0)
(1.1892 0.0522937 0)
(1.19818 0.0495849 0)
(1.20552 0.0469789 0)
(1.2114 0.044485 0)
(1.21599 0.0421083 0)
(1.21945 0.0398504 0)
(1.22195 0.0377101 0)
(1.22363 0.0356843 0)
(1.22461 0.0337682 0)
(1.22501 0.0319559 0)
(1.22494 0.0302411 0)
(1.22448 0.0286169 0)
(1.22372 0.0270768 0)
(1.22271 0.0256141 0)
(1.22151 0.0242226 0)
(1.22018 0.0228966 0)
(1.21874 0.0216307 0)
(1.21724 0.02042 0)
(1.21569 0.01926 0)
(1.21413 0.0181466 0)
(1.21257 0.0170764 0)
(1.21103 0.0160458 0)
(1.20951 0.015052 0)
(1.20804 0.0140922 0)
(1.20661 0.013164 0)
(1.20524 0.0122649 0)
(1.20392 0.0113928 0)
(1.20268 0.0105457 0)
(1.2015 0.00972161 0)
(1.2004 0.00891876 0)
(1.19937 0.00813535 0)
(1.19843 0.00736967 0)
(1.19756 0.00662007 0)
(1.19678 0.00588491 0)
(1.19607 0.00516261 0)
(1.19546 0.0044516 0)
(1.19493 0.00375034 0)
(1.19449 0.00305729 0)
(1.19413 0.00237096 0)
(1.19387 0.00168983 0)
(1.19369 0.0010124 0)
(1.1936 0.000337203 0)
(0.65751 0.079694 0)
(0.699644 0.0814635 0)
(0.74191 0.0826732 0)
(0.783851 0.0833252 0)
(0.825036 0.0834497 0)
(0.865067 0.0830701 0)
(0.903588 0.0822197 0)
(0.940286 0.0809399 0)
(0.974903 0.0792782 0)
(1.00723 0.0772859 0)
(1.03713 0.0750169 0)
(1.06449 0.0725257 0)
(1.08928 0.0698657 0)
(1.11152 0.0670876 0)
(1.13124 0.0642383 0)
(1.14854 0.06136 0)
(1.16355 0.0584894 0)
(1.1764 0.0556574 0)
(1.18727 0.0528891 0)
(1.19632 0.050204 0)
(1.20373 0.0476165 0)
(1.20969 0.0451361 0)
(1.21435 0.0427684 0)
(1.2179 0.0405155 0)
(1.22048 0.0383767 0)
(1.22223 0.0363493 0)
(1.22329 0.0344288 0)
(1.22377 0.0326098 0)
(1.22376 0.0308862 0)
(1.22336 0.0292516 0)
(1.22265 0.0276995 0)
(1.2217 0.0262236 0)
(1.22055 0.0248178 0)
(1.21926 0.0234765 0)
(1.21786 0.0221943 0)
(1.21639 0.0209665 0)
(1.21488 0.0197888 0)
(1.21335 0.0186571 0)
(1.21182 0.0175678 0)
(1.2103 0.0165178 0)
(1.20881 0.0155039 0)
(1.20736 0.0145236 0)
(1.20596 0.0135744 0)
(1.2046 0.0126539 0)
(1.20331 0.0117601 0)
(1.20208 0.0108908 0)
(1.20092 0.0100443 0)
(1.19983 0.00921872 0)
(1.19882 0.00841229 0)
(1.19788 0.00762334 0)
(1.19703 0.00685023 0)
(1.19625 0.00609137 0)
(1.19556 0.00534519 0)
(1.19495 0.00461014 0)
(1.19443 0.00388471 0)
(1.19399 0.00316739 0)
(1.19364 0.00245668 0)
(1.19338 0.00175111 0)
(1.1932 0.00104918 0)
(1.19311 0.000349469 0)
(0.658944 0.0793615 0)
(0.700695 0.0811576 0)
(0.742578 0.0824022 0)
(0.784142 0.0830962 0)
(0.824964 0.0832691 0)
(0.864654 0.0829435 0)
(0.902858 0.0821518 0)
(0.939271 0.0809342 0)
(0.973637 0.0793367 0)
(1.00575 0.0774094 0)
(1.03547 0.075205 0)
(1.0627 0.0727765 0)
(1.08739 0.0701763 0)
(1.10955 0.0674541 0)
(1.12923 0.0646561 0)
(1.14653 0.061824 0)
(1.16155 0.058994 0)
(1.17444 0.0561969 0)
(1.18535 0.053458 0)
(1.19446 0.0507969 0)
(1.20195 0.0482281 0)
(1.20798 0.0457617 0)
(1.21273 0.0434035 0)
(1.21635 0.0411562 0)
(1.21901 0.0390195 0)
(1.22084 0.0369911 0)
(1.22197 0.035067 0)
(1.22251 0.033242 0)
(1.22257 0.0315104 0)
(1.22224 0.0298661 0)
(1.22158 0.0283027 0)
(1.22068 0.0268143 0)
(1.21957 0.0253948 0)
(1.21833 0.0240388 0)
(1.21697 0.0227411 0)
(1.21554 0.021497 0)
(1.21406 0.0203023 0)
(1.21256 0.0191529 0)
(1.21106 0.0180453 0)
(1.20957 0.0169764 0)
(1.2081 0.0159432 0)
(1.20667 0.0149431 0)
(1.20529 0.0139735 0)
(1.20396 0.0130323 0)
(1.20268 0.0121174 0)
(1.20147 0.0112267 0)
(1.20032 0.0103584 0)
(1.19925 0.00951074 0)
(1.19825 0.00868194 0)
(1.19732 0.00787036 0)
(1.19648 0.0070744 0)
(1.19571 0.00629248 0)
(1.19503 0.00552306 0)
(1.19443 0.00476461 0)
(1.19391 0.00401564 0)
(1.19348 0.00327466 0)
(1.19313 0.00254021 0)
(1.19287 0.00181083 0)
(1.1927 0.00108503 0)
(1.19261 0.000361423 0)
(0.660396 0.0790258 0)
(0.701768 0.0808476 6.45537e-29)
(0.743272 0.0821256 0)
(0.784464 0.0828602 0)
(0.824928 0.0830798 4.79123e-11)
(0.864279 0.0828065 4.79164e-11)
(0.90217 0.0820716 0)
(0.9383 0.0809142 -1.68513e-27)
(0.972416 0.0793791 0)
(1.00432 0.0775151 0)
(1.03386 0.0753735 0)
(1.06094 0.0730063 -1.21987e-27)
(1.08553 0.0704646 1.21543e-27)
(1.10762 0.0677973 1.65668e-27)
(1.12727 0.0650498 -7.78744e-28)
(1.14455 0.0622631 -1.19869e-27)
(1.15958 0.0594734 -1.63167e-27)
(1.17249 0.0567111 -1.18513e-27)
(1.18346 0.0540015 1.17778e-27)
(1.19263 0.0513644 1.60155e-27)
(1.20018 0.0488147 1.16218e-27)
(1.20628 0.0463626 7.45934e-28)
(1.21111 0.0440145 4.45302e-11)
(1.21481 0.0417733 4.42023e-11)
(1.21754 0.0396394 -1.12877e-27)
(1.21945 0.0376106 0)
(1.22065 0.0356834 0)
(1.22126 0.0338531 1.10308e-27)
(1.22138 0.0321142 1.49816e-27)
(1.2211 0.0304608 1.08615e-27)
(1.2205 0.0288869 0)
(1.21965 0.0273866 0)
(1.21859 0.0259541 -1.06158e-27)
(1.21738 0.0245841 1.05369e-27)
(1.21607 0.0232716 0)
(1.21467 0.0220119 0)
(1.21323 0.0208007 0)
(1.21176 0.0196343 0)
(1.21029 0.0185091 -1.0173e-27)
(1.20882 0.0174221 1.01072e-27)
(1.20738 0.0163702 0)
(1.20597 0.0153508 0)
(1.20461 0.0143617 0)
(1.20329 0.0134004 1.35104e-27)
(1.20204 0.012465 9.81889e-28)
(1.20084 0.0115536 0)
(1.19971 0.0106641 0)
(1.19865 0.00979499 -9.68104e-28)
(1.19766 0.00894445 9.6413e-28)
(1.19675 0.00811088 1.31461e-27)
(1.19591 0.0072927 9.57138e-28)
(1.19516 0.00648834 0)
(1.19448 0.0056963 0)
(1.19389 0.00491508 -9.49091e-28)
(1.19338 0.00414319 9.4707e-28)
(1.19295 0.00337918 0)
(1.19261 0.0026216 0)
(1.19235 0.00186902 0)
(1.19218 0.00111997 1.2898e-27)
(1.19209 0.000373072 9.59711e-28)
(0.623709 0.0793156 -6.117e-20)
(0.625357 0.0789735 3.3006e-20)
(0.62702 0.0786271 3.93312e-20)
(0.628698 0.0782772 -3.46635e-20)
(0.630391 0.0779246 -2.02717e-20)
(0.632097 0.0775698 -2.63566e-20)
(0.604873 0.0782182 1.47242e-20)
(0.606713 0.0778674 1.01944e-20)
(0.608567 0.077513 7.9079e-21)
(0.610432 0.0771558 -2.28294e-20)
(0.612309 0.0767964 -2.85469e-20)
(0.585982 0.0770355 2.12068e-20)
(0.588015 0.0766777 2.54626e-20)
(0.590059 0.0763169 -2.11635e-20)
(0.592112 0.0759539 1.56842e-20)
(0.594174 0.0755891 -2.24546e-20)
(0.564862 0.0761026 -4.65461e-21)
(0.567082 0.0757424 -5.16109e-20)
(0.569309 0.0753789 5.52496e-21)
(0.571543 0.0750129 3.83978e-20)
(0.573785 0.0746451 1.061e-20)
(0.576032 0.0742761 -1.74289e-21)
(0.545807 0.0746778 3.98935e-20)
(0.548223 0.074313 -3.71903e-20)
(0.550643 0.0739455 -1.06156e-20)
(0.553068 0.073576 2.11794e-20)
(0.555497 0.0732052 -4.53043e-20)
(0.526846 0.0731149 -2.56319e-20)
(0.529456 0.0727475 -1.53247e-20)
(0.532069 0.0723778 -3.09208e-21)
(0.534683 0.0720066 8.57687e-21)
(0.537299 0.0716344 9.999e-21)
(0.505227 0.071782 5.55535e-20)
(0.508031 0.0714163 3.93598e-21)
(0.510835 0.0710481 -2.10755e-20)
(0.513638 0.070678 -1.62338e-20)
(0.51644 0.0703067 -1.26541e-20)
(0.519242 0.0699349 1.59785e-20)
(0.486421 0.0699473 -3.19474e-20)
(0.489418 0.0695822 1.92006e-20)
(0.492413 0.0692149 -3.97852e-21)
(0.495405 0.0688461 -1.87088e-20)
(0.498393 0.0684765 3.87589e-21)
(0.467876 0.0679759 -9.62019e-21)
(0.471064 0.0676131 -1.18692e-20)
(0.474247 0.0672485 2.18771e-20)
(0.477424 0.0668828 -2.21538e-20)
(0.480596 0.0665165 1.23004e-20)
(0.449651 0.0658689 2.65907e-20)
(0.453026 0.0655103 -1.81788e-20)
(0.456393 0.0651501 3.36463e-21)
(0.459752 0.0647891 -1.79572e-20)
(0.463103 0.0644279 1.57771e-20)
(0.428235 0.0639793 -6.66247e-21)
(0.431803 0.0636284 3.0195e-21)
(0.435361 0.0632756 1.52498e-21)
(0.438908 0.0629216 9.52669e-22)
(0.442445 0.062567 1.58297e-21)
(0.445972 0.0622124 -1.96737e-20)
(0.410644 0.0616005 1.52185e-20)
(0.414392 0.0612569 -1.43691e-20)
(0.418127 0.0609116 -4.38568e-21)
(0.42185 0.0605654 1.43468e-20)
(0.42556 0.0602188 8.74417e-21)
(0.393553 0.059092 -3.4774e-20)
(0.397476 0.0587573 9.64678e-21)
(0.401383 0.0584212 2.08664e-20)
(0.405276 0.0580843 4.80563e-22)
(0.409154 0.0577472 -2.07936e-20)
(0.377022 0.0564574 1.62699e-20)
(0.381113 0.0561332 -1.98411e-20)
(0.385186 0.0558078 -5.49516e-21)
(0.389243 0.0554818 1.64204e-21)
(0.393283 0.0551557 1.56726e-20)
(0.356839 0.0540116 1.80329e-20)
(0.361109 0.0537009 -8.23164e-21)
(0.365361 0.0533887 -8.52903e-21)
(0.369594 0.0530755 9.21562e-21)
(0.373808 0.0527618 4.14674e-21)
(0.378004 0.0524481 -8.97842e-21)
(0.341445 0.0511246 -1.61635e-20)
(0.345871 0.0508272 1.42505e-20)
(0.350276 0.0505284 -6.85289e-21)
(0.354661 0.0502288 -8.91026e-21)
(0.359026 0.0499288 1.16006e-20)
(0.32679 0.0481243 -2.79144e-20)
(0.331363 0.0478415 2.51014e-20)
(0.335915 0.0475574 -5.47314e-21)
(0.340444 0.0472727 5.62873e-21)
(0.344951 0.0469877 2.91943e-21)
(0.312927 0.0450162 1.08985e-20)
(0.31764 0.0447493 -1.10993e-21)
(0.322329 0.0444813 6.65418e-21)
(0.326994 0.0442126 6.05304e-21)
(0.331636 0.0439438 -1.86471e-21)
(0.29991 0.0418066 8.82013e-21)
(0.304753 0.0415568 -1.6468e-20)
(0.309571 0.0413059 2.62192e-20)
(0.314363 0.0410545 -1.30192e-20)
(0.319131 0.040803 1.0565e-20)
(0.287787 0.0385021 -1.22031e-20)
(0.292751 0.0382703 2.05686e-20)
(0.297688 0.0380377 -8.94479e-21)
(0.3026 0.0378047 -1.32914e-20)
(0.307484 0.0375715 1.08507e-20)
(0.271504 0.0353209 7.98307e-21)
(0.276607 0.0351095 -1.45159e-20)
(0.281681 0.0348969 8.36928e-21)
(0.286729 0.0346835 7.37065e-21)
(0.291749 0.0344697 -7.26509e-21)
(0.296741 0.0342559 -2.17987e-21)
(0.261207 0.0318278 3.28052e-21)
(0.266411 0.0316362 1.156e-20)
(0.271587 0.0314436 -6.64823e-22)
(0.276735 0.0312503 -1.49853e-20)
(0.281854 0.0310567 9.10966e-22)
(0.286944 0.0308631 4.8153e-21)
(0.251947 0.0282608 -8.41553e-21)
(0.257242 0.0280899 3.57973e-21)
(0.262509 0.0279181 -1.43983e-21)
(0.267746 0.0277457 4.30295e-21)
(0.272954 0.027573 -3.014e-21)
(0.24376 0.0246279 -5.05099e-21)
(0.249136 0.0244784 8.69939e-21)
(0.254483 0.0243281 -6.56746e-21)
(0.259799 0.0241772 6.84919e-21)
(0.265085 0.0240262 -4.59906e-21)
(0.236679 0.0209374 1.25141e-20)
(0.242125 0.0208099 -6.52982e-21)
(0.247541 0.0206816 9.14861e-21)
(0.252925 0.020553 -9.12227e-21)
(0.258279 0.0204242 -9.38939e-22)
(0.230734 0.0171978 -1.84896e-21)
(0.236238 0.0170928 4.30332e-21)
(0.241711 0.0169872 -2.69938e-22)
(0.247153 0.0168812 -1.37819e-21)
(0.252564 0.0167751 1.81741e-21)
(0.225948 0.0134178 -6.83689e-21)
(0.231499 0.0133356 6.38179e-21)
(0.237019 0.0132531 -1.03425e-21)
(0.242507 0.0131702 -3.46685e-21)
(0.247963 0.0130873 -2.73794e-23)
(0.222342 0.00960618 2.60025e-21)
(0.227928 0.00954724 -8.21056e-21)
(0.233483 0.00948799 4.67043e-21)
(0.239005 0.00942857 2.74901e-21)
(0.244495 0.00936907 -4.60969e-21)
(0.219929 0.00577188 1.18577e-21)
(0.225539 0.00573639 -1.82485e-23)
(0.231117 0.00570073 5.40956e-23)
(0.236662 0.00566496 4.82887e-22)
(0.242176 0.00562914 -2.0381e-22)
(0.21872 0.00192396 4.34198e-23)
(0.224342 0.00191206 9.79494e-22)
(0.229932 0.00190011 -3.17393e-22)
(0.235489 0.00188812 7.95048e-23)
(0.241014 0.00187613 2.46698e-22)
)
;

boundaryField
{
    inlet
    {
        type            uniformFixedValue;
        uniformValue    constant (1 0 0);
        value           nonuniform 0();
    }
    outlet
    {
        type            pressureInletOutletVelocity;
        value           nonuniform 0();
    }
    cylinder
    {
        type            fixedValue;
        value           nonuniform 0();
    }
    top
    {
        type            symmetryPlane;
    }
    bottom
    {
        type            symmetryPlane;
    }
    defaultFaces
    {
        type            empty;
    }
    procBoundary29to28
    {
        type            processor;
        value           nonuniform List<vector> 
193
(
(0.213067 -0.00194017 -4.51604e-22)
(0.214288 -0.00581152 -9.53681e-22)
(0.216724 -0.00966909 2.87766e-21)
(0.220367 -0.0135038 4.01577e-21)
(0.2252 -0.0173065 -9.76535e-22)
(0.231204 -0.0210684 3.72717e-21)
(0.238355 -0.0247806 5.98599e-21)
(0.246624 -0.0284347 -1.71294e-21)
(0.255977 -0.0320222 8.93995e-22)
(0.266377 -0.035535 1.01137e-20)
(0.2828 -0.0387368 5.46536e-21)
(0.2828 -0.0387368 5.46536e-21)
(0.295044 -0.0420593 -1.67977e-20)
(0.308194 -0.0452857 -1.53629e-20)
(0.322197 -0.0484094 2.54827e-20)
(0.337002 -0.0514242 1.07102e-20)
(0.352553 -0.0543241 -6.76524e-21)
(0.372918 -0.056784 9.42683e-21)
(0.372918 -0.056784 9.42683e-21)
(0.389619 -0.0594288 1.77592e-20)
(0.406887 -0.0619459 -2.27792e-20)
(0.42466 -0.0643317 1.41038e-20)
(0.446271 -0.0662294 -1.93673e-20)
(0.446271 -0.0662294 -1.93673e-20)
(0.464686 -0.0683401 2.11842e-20)
(0.483424 -0.0703134 6.12569e-20)
(0.502426 -0.0721481 5.67753e-21)
(0.524241 -0.0734832 3.76045e-20)
(0.524241 -0.0734832 3.76045e-20)
(0.5434 -0.0750428 -1.56245e-20)
(0.562654 -0.0764625 1.12301e-20)
(0.583962 -0.0773932 -3.18606e-20)
(0.583962 -0.0773932 -3.18606e-20)
(0.603049 -0.0785682 5.6833e-21)
(0.622081 -0.0796562 1.27618e-21)
(0.653318 -0.0806692 0)
(0.653318 -0.0806692 0)
(0.696632 -0.0823521 0)
(0.74008 -0.0834486 0)
(0.783179 -0.0839643 0)
(0.825478 -0.0839327 0)
(0.866558 -0.0833794 0)
(0.906044 -0.0823411 0)
(0.94361 -0.080863 0)
(0.978984 -0.0789968 0)
(1.01196 -0.0767982 0)
(1.04237 -0.0743254 0)
(1.07014 -0.071637 0)
(1.09523 -0.0687897 0)
(1.11765 -0.0658374 0)
(1.13746 -0.0628292 0)
(1.15476 -0.059809 0)
(1.1697 -0.0568143 0)
(1.18243 -0.0538765 0)
(1.19312 -0.0510204 0)
(1.20196 -0.0482648 0)
(1.20914 -0.0456231 0)
(1.21485 -0.0431036 0)
(1.21927 -0.0407105 0)
(1.22256 -0.0384444 0)
(1.22489 -0.0363032 0)
(1.2264 -0.0342828 0)
(1.22723 -0.0323776 0)
(1.22749 -0.030581 0)
(1.22728 -0.0288858 0)
(1.2267 -0.0272849 0)
(1.22582 -0.0257708 0)
(1.2247 -0.0243369 0)
(1.22341 -0.0229764 0)
(1.22198 -0.0216833 0)
(1.22046 -0.020452 0)
(1.21888 -0.0192775 0)
(1.21727 -0.0181551 0)
(1.21564 -0.0170807 0)
(1.21402 -0.0160505 0)
(1.21242 -0.0150611 0)
(1.21086 -0.0141095 0)
(1.20934 -0.0131929 0)
(1.20787 -0.0123086 0)
(1.20645 -0.0114544 0)
(1.2051 -0.0106279 0)
(1.20382 -0.00982704 0)
(1.20262 -0.00904991 0)
(1.20149 -0.00829457 0)
(1.20043 -0.00755922 0)
(1.19946 -0.00684208 0)
(1.19857 -0.00614146 0)
(1.19777 -0.00545567 0)
(1.19705 -0.00478308 0)
(1.19642 -0.00412208 0)
(1.19588 -0.00347109 0)
(1.19542 -0.00282853 0)
(1.19506 -0.00219285 0)
(1.19479 -0.00156252 0)
(1.19461 -0.000935967 0)
(1.19452 -0.000311719 0)
(1.20315 0.00870001 0)
(1.202 0.00796952 0)
(1.20094 0.00725928 0)
(1.19995 0.00656748 0)
(1.19905 0.00589241 0)
(1.19824 0.00523235 0)
(1.19751 0.00458566 0)
(1.19687 0.00395071 0)
(1.19633 0.00332588 0)
(1.19587 0.00270958 0)
(1.1955 0.00210026 0)
(1.19522 0.00149633 0)
(1.19504 0.000896238 0)
(1.19495 0.000298473 0)
(0.653315 0.0806656 0)
(0.653315 0.0806656 0)
(0.69663 0.0823486 0)
(0.740077 0.0834452 0)
(0.783177 0.083961 0)
(0.825476 0.0839295 0)
(0.866557 0.0833764 0)
(0.906042 0.0823381 0)
(0.943608 0.0808602 0)
(0.978983 0.0789941 0)
(1.01196 0.0767956 0)
(1.04237 0.074323 0)
(1.07014 0.0716346 0)
(1.09523 0.0687874 0)
(1.11765 0.0658352 0)
(1.13746 0.0628272 0)
(1.15476 0.059807 0)
(1.1697 0.0568125 0)
(1.18243 0.0538747 0)
(1.19312 0.0510187 0)