/*--------------------------------*- C++ -*----------------------------------*\
  =========                 |
  \\      /  F ield         | OpenFOAM: The Open Source CFD Toolbox
   \\    /   O peration     | Website:  https://openfoam.org
    \\  /    A nd           | Version:  7
     \\/     M anipulation  |
\*---------------------------------------------------------------------------*/
FoamFile
{
    version     2.0;
    format      ascii;
    class       surfaceScalarField;
    location    "15";
    object      phi;
}
// * * * * * * * * * * * * * * * * * * * * * * * * * * * * * * * * * * * * * //

dimensions      [0 3 -1 0 0 0 0];

internalField   nonuniform List<scalar> 
49774
(
-3.8276e-07
3.82764e-07
-4.39028e-12
-1.48639e-06
1.10365e-06
-1.25739e-11
-3.29816e-06
1.81179e-06
-2.04668e-11
-5.7992e-06
2.50107e-06
-2.79931e-11
-8.96388e-06
3.16472e-06
-3.50169e-11
-1.27596e-05
3.79578e-06
-4.13768e-11
-1.71469e-05
4.38729e-06
-4.68925e-11
-2.20792e-05
4.93239e-06
-5.13412e-11
-2.75036e-05
5.42448e-06
-5.44737e-11
-3.3361e-05
5.85744e-06
-5.60054e-11
-3.95869e-05
6.22591e-06
-5.56007e-11
-4.61124e-05
6.52562e-06
-5.28977e-11
-5.28662e-05
6.7538e-06
-4.74383e-11
-5.97758e-05
6.90964e-06
-3.87426e-11
-6.67706e-05
6.99486e-06
-2.62672e-11
-7.37849e-05
7.01433e-06
-9.45e-12
-8.07616e-05
6.97669e-06
1.2418e-11
-8.76567e-05
6.89499e-06
4.01146e-11
-9.44439e-05
6.78716e-06
7.43848e-11
-0.00010112
6.67627e-06
1.1602e-10
-0.00010771
6.58996e-06
1.65893e-10
-0.000114269
6.55792e-06
2.24966e-10
-0.000120882
6.61335e-06
2.94313e-10
6.81526e-06
3.75091e-10
-0.000127698
-3.78051e-07
7.60816e-07
-1.46736e-06
2.19295e-06
-3.25442e-06
3.59885e-06
-5.71953e-06
4.96618e-06
-8.83609e-06
6.28127e-06
-1.25704e-05
7.53012e-06
-1.68818e-05
8.69866e-06
-2.17224e-05
9.77302e-06
-2.70378e-05
1.07398e-05
-3.2767e-05
1.15866e-05
-3.88435e-05
1.23025e-05
-4.51965e-05
1.28786e-05
-5.17518e-05
1.33091e-05
-5.84342e-05
1.35921e-05
-6.51699e-05
1.37306e-05
-7.18897e-05
1.37341e-05
-7.85325e-05
1.36195e-05
-8.50502e-05
1.34127e-05
-9.14126e-05
1.31495e-05
-9.76125e-05
1.28762e-05
-0.000103671
1.26483e-05
-0.000109639
1.25261e-05
-0.000115603
1.2577e-05
1.29211e-05
-0.000121709
-3.68686e-07
1.1295e-06
-1.42948e-06
3.25375e-06
-3.16736e-06
5.33673e-06
-5.56091e-06
7.35973e-06
-8.58161e-06
9.30197e-06
-1.21937e-05
1.11422e-05
-1.63539e-05
1.28589e-05
-2.10118e-05
1.44309e-05
-2.61098e-05
1.58378e-05
-3.15835e-05
1.70604e-05
-3.73626e-05
1.80816e-05
-4.33717e-05
1.88876e-05
-4.95315e-05
1.94689e-05
-5.57613e-05
1.98218e-05
-6.19806e-05
1.995e-05
-6.81133e-05
1.98667e-05
-7.40906e-05
1.95968e-05
-7.98563e-05
1.91783e-05
-8.53716e-05
1.86648e-05
-9.06212e-05
1.81259e-05
-9.56189e-05
1.7646e-05
-0.00010041
1.73172e-05
-0.000105076
1.72433e-05
1.761e-05
-0.000109765
-3.54764e-07
1.48427e-06
-1.37313e-06
4.27212e-06
-3.0378e-06
7.0014e-06
-5.32477e-06
9.6467e-06
-8.20265e-06
1.21799e-05
-1.16324e-05
1.45719e-05
-1.55673e-05
1.67938e-05
-1.99528e-05
1.88164e-05
-2.47268e-05
2.06118e-05
-2.98197e-05
2.21533e-05
-3.51553e-05
2.34172e-05
-4.06516e-05
2.43839e-05
-4.62219e-05
2.50392e-05
-5.17767e-05
2.53766e-05
-5.72264e-05
2.53996e-05
-6.24837e-05
2.51241e-05
-6.74686e-05
2.45816e-05
-7.21123e-05
2.38221e-05
-7.63636e-05
2.29161e-05
-8.01948e-05
2.1957e-05
-8.36084e-05
2.10596e-05
-8.66409e-05
2.03498e-05
-8.93676e-05
1.997e-05
2.01788e-05
-9.19364e-05
-3.36427e-07
1.82069e-06
-1.29885e-06
5.23454e-06
-2.86688e-06
8.56944e-06
-5.0131e-06
1.17929e-05
-7.70227e-06
1.4869e-05
-1.08911e-05
1.77608e-05
-1.45281e-05
2.04308e-05
-1.85535e-05
2.28417e-05
-2.28989e-05
2.49572e-05
-2.74882e-05
2.67426e-05
-3.22374e-05
2.81665e-05
-3.70558e-05
2.92023e-05
-4.18467e-05
2.98301e-05
-4.65093e-05
3.00393e-05
-5.09412e-05
2.98315e-05
-5.50412e-05
2.92241e-05
-5.87135e-05
2.82539e-05
-6.18729e-05
2.69814e-05
-6.44509e-05
2.54941e-05
-6.64034e-05
2.39095e-05
-6.77179e-05
2.23742e-05
-6.84191e-05
2.1051e-05
-6.85725e-05
2.01233e-05
1.9928e-05
-6.83217e-05
-3.13846e-07
2.13454e-06
-1.20727e-06
6.12796e-06
-2.65602e-06
1.00182e-05
-4.62834e-06
1.37652e-05
-7.08427e-06
1.7325e-05
-9.97521e-06
2.06517e-05
-1.32438e-05
2.36993e-05
-1.68235e-05
2.64214e-05
-2.06387e-05
2.87725e-05
-2.4605e-05
3.07088e-05
-2.86288e-05
3.21903e-05
-3.26086e-05
3.31821e-05
-3.64355e-05
3.3657e-05
-3.99949e-05
3.35986e-05
-4.31683e-05
3.3005e-05
-4.58369e-05
3.18927e-05
-4.78854e-05
3.03024e-05
-4.92076e-05
2.83036e-05
-4.97134e-05
2.6e-05
-4.93377e-05
2.35338e-05
-4.80493e-05
2.10858e-05
-4.58593e-05
1.8861e-05
-4.28252e-05
1.70892e-05
1.61461e-05
-3.90433e-05
-2.87213e-07
2.42175e-06
-1.09911e-06
6.93986e-06
-2.40676e-06
1.13258e-05
-4.17323e-06
1.55317e-05
-6.35283e-06
1.95046e-05
-8.89069e-06
2.31896e-05
-1.17224e-05
2.6531e-05
-1.47737e-05
2.94728e-05
-1.79604e-05
3.19592e-05
-2.1188e-05
3.39364e-05
-2.43519e-05
3.53542e-05
-2.73379e-05
3.61681e-05
-3.00226e-05
3.63417e-05
-3.22749e-05
3.58509e-05
-3.39576e-05
3.46876e-05
-3.49306e-05
3.28657e-05
-3.50549e-05
3.04268e-05
-3.41989e-05
2.74476e-05
-3.22459e-05
2.4047e-05
-2.91046e-05
2.03925e-05
-2.47206e-05
1.67018e-05
-1.90888e-05
1.32292e-05
-1.22826e-05
1.02829e-05
8.40103e-06
-4.53745e-06
-2.56722e-07
2.67847e-06
-9.75114e-07
7.65826e-06
-2.12071e-06
1.24714e-05
-3.65055e-06
1.70615e-05
-5.5123e-06
2.13663e-05
-7.64383e-06
2.53211e-05
-9.97269e-06
2.88599e-05
-1.24157e-05
3.19158e-05
-1.48787e-05
3.44222e-05
-1.7256e-05
3.63137e-05
-1.94304e-05
3.75286e-05
-2.12732e-05
3.80109e-05
-2.26446e-05
3.77131e-05
-2.33943e-05
3.66007e-05
-2.33638e-05
3.46571e-05
-2.23881e-05
3.189e-05
-2.03008e-05
2.83394e-05
-1.69395e-05
2.40864e-05
-1.21554e-05
1.92629e-05
-5.82454e-06
1.40616e-05
2.13712e-06
8.7401e-06
1.1759e-05
3.60734e-06
2.29984e-05
-9.56497e-07
-4.32766e-06
3.57271e-05
-2.2256e-07
2.90103e-06
-8.35966e-07
8.27166e-06
-1.7994e-06
1.34349e-05
-3.06297e-06
1.83251e-05
-4.56684e-06
2.28702e-05
-6.24064e-06
2.69949e-05
-8.00291e-06
3.06222e-05
-9.76053e-06
3.36734e-05
-1.14081e-05
3.60698e-05
-1.28277e-05
3.77332e-05
-1.38879e-05
3.85889e-05
-1.44442e-05
3.85671e-05
-1.43382e-05
3.76071e-05
-1.3399e-05
3.56614e-05
-1.14433e-05
3.27014e-05
-8.27863e-06
2.87253e-05
-3.70665e-06
2.37674e-05
2.47022e-06
1.79095e-05
1.04392e-05
1.12939e-05
2.03634e-05
4.13744e-06
3.23633e-05
-3.25984e-06
4.64961e-05
-1.05254e-05
6.27321e-05
-1.71925e-05
-2.24955e-05
8.09e-05
-1.84883e-07
3.08592e-06
-6.82272e-07
8.76905e-06
-1.44414e-06
1.41967e-05
-2.41284e-06
1.92938e-05
-3.52012e-06
2.39775e-05
-4.68647e-06
2.81613e-05
-5.82048e-06
3.17562e-05
-6.81807e-06
3.4671e-05
-7.56176e-06
3.68135e-05
-7.91996e-06
3.80914e-05
-7.74616e-06
3.84151e-05
-6.87838e-06
3.76993e-05
-5.1386e-06
3.58674e-05
-2.33276e-06
3.28556e-05
1.74872e-06
2.86199e-05
7.32929e-06
2.31448e-05
1.46427e-05
1.6454e-05
2.39268e-05
8.62539e-06
3.54132e-05
-1.92551e-07
4.93115e-05
-9.76079e-06
6.57863e-05
-1.97346e-05
8.49297e-05
-2.96689e-05
0.000106726
-3.89889e-05
-4.6746e-05
0.000130977
-1.43814e-07
3.22973e-06
-5.14495e-07
9.13973e-06
-1.05598e-06
1.47382e-05
-1.702e-06
1.99398e-05
-2.37505e-06
2.46505e-05
-2.98562e-06
2.87718e-05
-3.43145e-06
3.2202e-05
-3.59658e-06
3.48362e-05
-3.3505e-06
3.65674e-05
-2.54711e-06
3.7288e-05
-1.02367e-06
3.68916e-05
1.40021e-06
3.52754e-05
4.92358e-06
3.2344e-05
9.76482e-06
2.80143e-05
1.61619e-05
2.22229e-05
2.43714e-05
1.49352e-05
3.4666e-05
6.15943e-06
4.73285e-05
-4.03709e-06
6.26413e-05
-1.55053e-05
8.08685e-05
-2.7988e-05
0.000102229
-4.1095e-05
0.000126859
-5.42993e-05
0.000154765
-6.68945e-05
-7.77049e-05
0.000185724
-9.94221e-08
3.32915e-06
-3.32926e-07
9.37323e-06
-6.35585e-07
1.50409e-05
-9.31686e-07
2.02359e-05
-1.13363e-06
2.48525e-05
-1.1411e-06
2.87793e-05
-8.40094e-07
3.1901e-05
-1.0199e-07
3.40981e-05
1.21763e-06
3.52478e-05
3.28019e-06
3.52255e-05
6.26547e-06
3.39064e-05
1.03731e-05
3.11678e-05
1.58239e-05
2.68931e-05
2.28617e-05
2.09766e-05
3.17538e-05
1.33307e-05
4.27919e-05
3.89713e-06
5.62901e-05
-7.33878e-06
7.25804e-05
-2.03273e-05
9.20022e-05
-3.49271e-05
0.000114884
-5.08694e-05
0.000141509
-6.77206e-05
0.000172074
-8.48641e-05
0.000206616
-0.000101437
-0.000115984
0.000244895
-5.17209e-08
3.38087e-06
-1.37669e-07
9.45918e-06
-1.83233e-07
1.50864e-05
-1.02464e-07
2.01552e-05
2.03126e-07
2.45469e-05
8.45516e-07
2.81369e-05
1.95119e-06
3.07953e-05
3.66229e-06
3.2387e-05
6.13788e-06
3.27722e-05
9.55543e-06
3.18079e-05
1.41124e-05
2.93494e-05
2.00282e-05
2.52521e-05
2.7546e-05
1.93754e-05
3.69351e-05
1.15874e-05
4.84932e-05
1.77269e-06
6.25473e-05
-1.01571e-05
7.94549e-05
-2.42464e-05
9.96001e-05
-4.04725e-05
0.000123385
-5.87124e-05
0.000151212
-7.86961e-05
0.000183445
-9.99534e-05
0.000220354
-0.000121773
0.000262028
-0.00014311
-0.00016218
0.000308223
-7.34454e-10
3.38161e-06
7.13325e-08
9.38712e-06
3.01157e-07
1.48566e-05
7.85707e-07
1.96706e-05
1.63516e-06
2.36974e-05
2.97393e-06
2.67981e-05
4.94182e-06
2.88274e-05
7.69524e-06
2.96335e-05
1.14087e-05
2.90588e-05
1.62763e-05
2.69404e-05
2.25137e-05
2.31119e-05
3.03604e-05
1.74053e-05
4.00821e-05
9.65366e-06
5.19736e-05
-3.04051e-07
6.6362e-05
-1.26157e-05
8.36099e-05
-2.7405e-05
0.000104118
-4.47543e-05
0.000128324
-6.46785e-05
0.000156697
-8.70861e-05
0.000189723
-0.000111721
0.00022786
-0.000138091
0.000271478
-0.000165391
0.000320737
-0.000192369
-0.000216814
0.000375371
5.37224e-08
3.32789e-06
2.94313e-07
9.14652e-06
8.17945e-07
1.4333e-05
1.73332e-06
1.87552e-05
3.16307e-06
2.22677e-05
5.24484e-06
2.47164e-05
8.13254e-06
2.59397e-05
1.19977e-05
2.57684e-05
1.70309e-05
2.40256e-05
2.34437e-05
2.05276e-05
3.14704e-05
1.50851e-05
4.1371e-05
7.50481e-06
5.34331e-05
-2.40852e-06
6.79766e-05
-1.48475e-05
8.53569e-05
-2.9996e-05
0.00010597
-4.80183e-05
0.000130258
-6.90424e-05
0.000158712
-9.31322e-05
0.00019187
-0.000120244
0.000230307
-0.000150158
0.000274596
-0.000182379
0.000325233
-0.000216028
0.000382494
-0.00024963
-0.000280468
0.000446149
1.11623e-07
3.21626e-06
5.31511e-07
8.72664e-06
1.3676e-06
1.34969e-05
2.74106e-06
1.73818e-05
4.78772e-06
2.0221e-05
7.65927e-06
2.18448e-05
1.15246e-05
2.20744e-05
1.65711e-05
2.07219e-05
2.30065e-05
1.75902e-05
3.10604e-05
1.24737e-05
4.09865e-05
5.15903e-06
5.30652e-05
-4.57382e-06
6.76062e-05
-1.69496e-05
8.49532e-05
-3.21945e-05
0.000105488
-5.05308e-05
0.000129637
-7.21676e-05
0.00015788
-9.7285e-05
0.000190755
-0.000126008
0.000228869
-0.000158357
0.000272887
-0.000194177
0.000323514
-0.000233006
0.000381407
-0.000273922
0.000447012
-0.000315236
-0.000353645
0.000520188
1.73109e-07
3.04315e-06
7.83178e-07
8.11657e-06
1.95052e-06
1.23295e-05
3.80941e-06
1.55229e-05
6.50964e-06
1.75208e-05
1.02178e-05
1.81367e-05
1.51186e-05
1.71736e-05
2.14163e-05
1.44241e-05
2.93368e-05
9.66972e-06
3.91286e-05
2.68188e-06
5.10655e-05
-6.77795e-06
6.54491e-05
-1.89573e-05
8.26111e-05
-3.41116e-05
0.000102918
-5.25013e-05
0.000126775
-7.43884e-05
0.000154637
-0.000100029
0.000187011
-0.00012966
0.000224478
-0.000163474
0.0002677
-0.000201579
0.000317433
-0.00024391
0.000374518
-0.00029009
0.000439813
-0.000339216
0.000514007
-0.00038943
-0.00043678
0.000597142
2.38221e-07
2.80493e-06
1.0494e-06
7.30539e-06
2.56672e-06
1.08122e-05
4.93821e-06
1.31514e-05
8.32832e-06
1.41307e-05
1.29194e-05
1.35456e-05
1.89129e-05
1.11801e-05
2.65312e-05
6.80575e-06
3.60192e-05
1.81731e-07
4.76458e-05
-8.94475e-06
6.17062e-05
-2.08383e-05
7.85238e-05
-3.57749e-05
9.8453e-05
-5.40408e-05
0.000121883
-7.5931e-05
0.000149241
-0.000101747
0.000181002
-0.00013179
0.000217699
-0.000166356
0.000259938
-0.000205713
0.000308422
-0.000250063
0.000363979
-0.000299468
0.000427582
-0.000353693
0.000500318
-0.000411953
0.000583217
-0.000472329
-0.000530227
0.000676664
3.06939e-07
2.49799e-06
1.32997e-06
6.28236e-06
3.21561e-06
8.92659e-06
6.12615e-06
1.02408e-05
1.02414e-05
1.00154e-05
1.57603e-05
8.02677e-06
2.29022e-05
4.03828e-06
3.19085e-05
-2.20062e-06
4.30447e-05
-1.09545e-05
5.66016e-05
-2.25016e-05
7.28971e-05
-3.71339e-05
9.22786e-05
-5.51564e-05
0.000115124
-7.68865e-05
0.000141847
-0.000102653
0.000172895
-0.000132795
0.000208763
-0.000167659
0.000249998
-0.000207591
0.000297218
-0.000252933
0.000351143
-0.000303988
0.00041264
-0.000360965
0.000482784
-0.000423838
0.000562896
-0.000492064
0.000654447
-0.00056388
-0.000634199
0.000758418
3.79139e-07
2.11885e-06
1.62433e-06
5.03717e-06
3.89572e-06
6.6552e-06
7.37038e-06
6.76617e-06
1.22442e-05
5.14161e-06
1.87333e-05
1.53767e-06
2.70759e-05
-4.30433e-06
3.75339e-05
-1.26586e-05
5.03946e-05
-2.38152e-05
6.59724e-05
-3.80794e-05
8.46104e-05
-5.57719e-05
0.000106682
-7.7228e-05
0.000132592
-0.000102797
0.00016278
-0.000132841
0.000197718
-0.000167734
0.00023792
-0.00020786
0.000283942
-0.000253614
0.000336403
-0.000305394
0.000396011
-0.000363596
0.000463625
-0.000428579
0.000540356
-0.000500568
0.000627704
-0.000579412
0.000727652
-0.000663827
-0.000748676
0.000842129
4.54577e-07
1.66428e-06
1.93141e-06
3.56034e-06
4.60453e-06
3.98208e-06
8.66616e-06
2.70454e-06
1.43287e-05
-5.20887e-07
2.18262e-05
-5.95991e-06
3.14168e-05
-1.38949e-05
4.33836e-05
-2.46255e-05
5.80374e-05
-3.8469e-05
7.57181e-05
-5.576e-05
9.6796e-05
-7.68498e-05
0.000121674
-0.000102106
0.000150788
-0.000131911
0.000184607
-0.00016666
0.000223635
-0.000206762
0.00026841
-0.000252635
0.000319504
-0.000304707
0.000377531
-0.000363421
0.000443171
-0.000429235
0.000517217
-0.000502626
0.000600714
-0.000584064
0.000695198
-0.000673896
0.000803098
-0.000771728
-0.000873314
0.000927736
5.32876e-07
1.1314e-06
2.24967e-06
1.84354e-06
5.33842e-06
8.93334e-07
1.00067e-05
-1.96378e-06
1.64838e-05
-6.99798e-06
2.50224e-05
-1.44985e-05
3.59006e-05
-2.4773e-05
4.9424e-05
-3.81489e-05
6.59279e-05
-5.49729e-05
8.5779e-05
-7.56111e-05
0.000109377
-0.000100448
0.000137158
-0.000129887
0.000169593
-0.000164345
0.000207189
-0.000204256
0.000250489
-0.000250062
0.000300069
-0.000302215
0.000356535
-0.000361173
0.000420516
-0.000427402
0.000492666
-0.000501386
0.000573691
-0.000583651
0.000664449
-0.000674822
0.000766233
-0.000775681
0.000881579
-0.000887074
-0.00100768
0.00101594
6.13538e-07
5.17865e-07
2.5771e-06
-1.20019e-07
6.09274e-06
-2.62231e-06
1.13835e-05
-7.25456e-06
1.86956e-05
-1.43101e-05
2.83003e-05
-2.41032e-05
4.04962e-05
-3.6969e-05
5.56117e-05
-5.32644e-05
7.40068e-05
-7.3368e-05
9.60761e-05
-9.76804e-05
0.000122251
-0.000126623
0.000153
-0.000160636
0.000188835
-0.00020018
0.000230308
-0.000245729
0.000278013
-0.000297767
0.000332584
-0.000356786
0.000394691
-0.00042328
0.000465029
-0.00049774
0.000544297
-0.000580655
0.000633185
-0.000672539
0.000732373
-0.00077401
0.000842581
-0.000885888
0.000965311
-0.0010098
-0.00115143
0.00110906
6.95973e-07
-1.78109e-07
2.91134e-06
-2.33538e-06
6.86205e-06
-6.57302e-06
1.27865e-05
-1.3179e-05
2.09475e-05
-2.24711e-05
3.16348e-05
-3.47905e-05
4.51672e-05
-5.05014e-05
6.18951e-05
-6.99923e-05
8.22032e-05
-9.36761e-05
0.000106513
-0.00012199
0.000135287
-0.000155396
0.000169029
-0.000194378
0.00020829
-0.000239441
0.00025367
-0.000291109
0.000305823
-0.00034992
0.00036546
-0.000416423
0.000433352
-0.000491172
0.000510334
-0.000574722
0.000597306
-0.000667627
0.000695234
-0.000770467
0.000805143
-0.000883919
0.00092785
-0.00100859
0.00106259
-0.00114455
-0.00129864
0.00120981
7.79545e-07
-9.57654e-07
3.24985e-06
-4.80568e-06
7.64049e-06
-1.09637e-05
1.42047e-05
-1.97432e-05
2.32217e-05
-3.1488e-05
3.49987e-05
-4.65675e-05
4.98737e-05
-6.53764e-05
6.8218e-05
-8.83366e-05
9.04391e-05
-0.000115897
0.000116984
-0.000148535
0.000148342
-0.000186754
0.000185049
-0.000231086
0.000227694
-0.000282085
0.000276919
-0.000340334
0.000333434
-0.000406435
0.000398024
-0.000481014
0.000471572
-0.000564719
0.000555087
-0.000658237
0.000649775
-0.000762316
0.000757175
-0.000877867
0.000879444
-0.00100619
0.00102025
-0.0011494
0.00118836
-0.00131267
-0.00151657
0.0014063
8.63622e-07
-1.82128e-06
3.59009e-06
-7.53215e-06
8.42219e-06
-1.57958e-05
1.56275e-05
-2.69485e-05
2.55003e-05
-4.13609e-05
3.83645e-05
-5.94317e-05
5.45756e-05
-8.15874e-05
7.45235e-05
-0.000108285
9.86358e-05
-0.00014001
0.00012738
-0.00017728
0.00016127
-0.000220644
0.000200864
-0.00027068
0.000246777
-0.000327999
0.000299684
-0.000393241
0.000360328
-0.000467079
0.000429539
-0.000550224
0.000508255
-0.000643435
0.000597563
-0.000747545
0.000698777
-0.000863529
0.00081355
-0.00099264
0.000944077
-0.00113671
0.00109345
-0.00129877
0.0012657
-0.00148491
-0.00170907
0.00145819
9.47628e-07
-2.7689e-06
3.92972e-06
-1.05142e-05
9.2017e-06
-2.10677e-05
1.70445e-05
-3.47913e-05
2.77666e-05
-5.2083e-05
4.17066e-05
-7.33716e-05
5.92353e-05
-9.91161e-05
8.07584e-05
-0.000129808
0.000106719
-0.000165971
0.000137602
-0.000208163
0.000173935
-0.000256976
0.000216292
-0.000313037
0.000265301
-0.000377008
0.000321645
-0.000449585
0.000386075
-0.000531509
0.000459417
-0.000623566
0.000542589
-0.000726607
0.000636629
-0.000841586
0.000742725
-0.000969625
0.000862244
-0.00111216
0.000996711
-0.00127118
0.00114764
-0.0014497
0.00131548
-0.00165275
-0.00188835
0.00149476
1.03108e-06
-3.79999e-06
4.26675e-06
-1.37499e-05
9.9743e-06
-2.67753e-05
1.84469e-05
-4.32639e-05
3.00058e-05
-6.36419e-05
4.50022e-05
-8.8368e-05
6.38196e-05
-0.000117934
8.68761e-05
-0.000152864
0.000114627
-0.000193721
0.000147565
-0.000241101
0.000186226
-0.000295637
0.000231188
-0.000358
0.000283077
-0.000428897
0.000342566
-0.000509074
0.000410381
-0.000599324
0.000487303
-0.000700488
0.000574173
-0.000813477
0.00067189
-0.000939303
0.000781404
-0.00107914
0.000903663
-0.00123442
0.00103948
-0.001407
0.00118918
-0.0015994
0.00135167
-0.00181524
-0.00205894
0.00152226
1.11362e-06
-4.91361e-06
4.59957e-06
-1.72359e-05
1.07361e-05
-3.29118e-05
1.98274e-05
-5.23552e-05
3.22056e-05
-7.60201e-05
4.82323e-05
-0.000104395
6.8301e-05
-0.000138002
9.28381e-05
-0.000177401
0.000122305
-0.000223188
0.000157199
-0.000275995
0.000198055
-0.000336493
0.000245444
-0.000405389
0.000299976
-0.000483428
0.000362296
-0.000571394
0.000433083
-0.000670111
0.000513045
-0.00078045
0.000602909
-0.000903341
0.000703402
-0.0010398
0.00081521
-0.00119095
0.000938892
-0.0013581
0.00107471
-0.00154282
0.00122233
-0.00174702
0.00138018
-0.00197309
-0.00222331
0.00154456
1.19496e-06
-6.10857e-06
4.92694e-06
-2.09679e-05
1.1484e-05
-3.94689e-05
2.118e-05
-6.20512e-05
3.43559e-05
-8.9196e-05
5.13816e-05
-0.00012142
7.26571e-05
-0.000159278
9.86136e-05
-0.000203358
0.000129714
-0.000254288
0.000166454
-0.000312735
0.000209359
-0.000379398
0.000258984
-0.000455015
0.000315913
-0.000540357
0.000380749
-0.00063623
0.000454109
-0.000743471
0.000536613
-0.000862953
0.00062886
-0.000995588
0.0007314
-0.00114234
0.000844679
-0.00130423
0.000968945
-0.00148237
0.0011041
-0.00167797
0.00124945
-0.00189237
0.00140339
-0.00212703
-0.0023829
0.00156297
1.27492e-06
-7.38348e-06
5.24793e-06
-2.49409e-05
1.22157e-05
-4.64366e-05
2.24999e-05
-7.23354e-05
3.64487e-05
-0.000103145
5.44374e-05
-0.000139409
7.68698e-05
-0.00018171
0.000104178
-0.000230666
0.000136822
-0.000286932
0.000175288
-0.000351201
0.000220089
-0.000424198
0.000271756
-0.000506682
0.000330835
-0.000599437
0.000397881
-0.000703276
0.000473439
-0.000819029
0.000558033
-0.000947547
0.000652136
-0.00108969
0.000756133
-0.00124633
0.000870268
-0.00141836
0.000994552
-0.00160665
0.00112865
-0.00181207
0.00127171
-0.00203544
0.00142218
-0.0022775
-0.00253836
0.00157764
1.35333e-06
-8.73681e-06
5.56173e-06
-2.91493e-05
1.2929e-05
-5.38039e-05
2.37831e-05
-8.31895e-05
3.84769e-05
-0.000117839
5.73889e-05
-0.000158321
8.09233e-05
-0.000205244
0.000109509
-0.000259252
0.0001436
-0.000321023
0.000183669
-0.00039127
0.000230207
-0.000470737
0.000283717
-0.000560191
0.000344703
-0.000660423
0.000413661
-0.000772233
0.000491062
-0.000896431
0.000577334
-0.00103382
0.000672828
-0.00118519
0.000777784
-0.00135129
0.000892276
-0.00153285
0.00101614
-0.00173051
0.00114888
-0.00194481
0.00128957
-0.00217612
0.00143673
-0.00242466
-0.0026899
0.00158826
1.43005e-06
-1.01669e-05
5.86758e-06
-3.35868e-05
1.36219e-05
-6.15583e-05
2.50254e-05
-9.4593e-05
4.04336e-05
-0.000133247
6.02255e-05
-0.000178113
8.48026e-05
-0.000229822
0.000114588
-0.000289037
0.000150023
-0.000356458
0.000191564
-0.000432811
0.000239677
-0.00051885
0.000294828
-0.000615343
0.000357476
-0.00072307
0.000428054
-0.000842812
0.000506959
-0.000975335
0.00059452
-0.00112138
0.000690978
-0.00128164
0.000796441
-0.00145675
0.000910841
-0.00164725
0.00103388
-0.00185355
0.00116494
-0.00207588
0.00130307
-0.00231425
0.00144683
-0.00256842
-0.00283741
0.00159434
1.50489e-06
-1.16718e-05
6.16456e-06
-3.82465e-05
1.42922e-05
-6.96859e-05
2.62225e-05
-0.000106523
4.23115e-05
-0.000149336
6.29358e-05
-0.000198737
8.84915e-05
-0.000255377
0.000119392
-0.000319937
0.000156063
-0.000393129
0.00019894
-0.000475688
0.000248458
-0.000568368
0.000305045
-0.000671929
0.000369106
-0.000787132
0.000441015
-0.00091472
0.000521087
-0.00105541
0.000609561
-0.00120985
0.000706569
-0.00137865
0.000812103
-0.00156229
0.000925974
-0.00176112
0.00104777
-0.00197534
0.00117679
-0.0022049
0.00131205
-0.0024495
0.00145215
-0.00270853
-0.00298061
0.00159535
1.5776e-06
-1.32494e-05
6.45154e-06
-4.31204e-05
1.49371e-05
-7.81715e-05
2.73692e-05
-0.000118955
4.41018e-05
-0.000166068
6.55069e-05
-0.000220142
9.19718e-05
-0.000281842
0.000123897
-0.000351862
0.000161689
-0.000430921
0.000205757
-0.000519757
0.000256504
-0.000619114
0.000314312
-0.000729737
0.000379535
-0.000852355
0.000452478
-0.000987663
0.000533379
-0.00113631
0.000622386
-0.00129886
0.000719532
-0.0014758
0.000824699
-0.00166746
0.000937594
-0.00187402
0.0010577
-0.00209545
0.00118427
-0.00233147
0.00131626
-0.00258149
0.00145232
-0.00284459
-0.00311909
0.00159081
1.64782e-06
-1.48972e-05
6.7271e-06
-4.81997e-05
1.55531e-05
-8.69975e-05
2.84591e-05
-0.000131861
4.57945e-05
-0.000183404
6.79236e-05
-0.000242272
9.52223e-05
-0.000309141
0.000128074
-0.000384714
0.000166864
-0.000469711
0.000211971
-0.000564864
0.00026376
-0.000670903
0.000322567
-0.000788545
0.000388689
-0.000918476
0.000462362
-0.00106134
0.000543746
-0.00121769
0.000632901
-0.00138802
0.000729763
-0.00157266
0.000834115
-0.00177181
0.000945567
-0.00198547
0.00106352
-0.00221341
0.00118716
-0.00245511
0.00131543
-0.00270975
0.00144701
-0.00297617
-0.00325241
0.00158032
1.71513e-06
-1.66123e-05
6.98946e-06
-5.3474e-05
1.61364e-05
-9.61444e-05
2.94848e-05
-0.00014521
4.73776e-05
-0.000201297
7.01684e-05
-0.000265062
9.82186e-05
-0.000337191
0.000131892
-0.000418387
0.000171547
-0.000509366
0.00021753
-0.000610847
0.000270165
-0.000723537
0.000329737
-0.000848117
0.000396484
-0.000985223
0.000470572
-0.00113542
0.000552083
-0.0012992
0.000640989
-0.00147692
0.000737135
-0.0016688
0.000840211
-0.00187488
0.000949738
-0.002095
0.00106505
-0.00232872
0.00118527
-0.00257533
0.00130933
-0.00283381
0.00143593
-0.00310277
-0.00338006
0.00156358
1.779e-06
-1.83913e-05
7.23655e-06
-5.89316e-05
1.6682e-05
-0.00010559
3.04379e-05
-0.000158966
4.88376e-05
-0.000219696
7.22217e-05
-0.000288446
0.000100934
-0.000365903
0.000135314
-0.000452767
0.000175692
-0.000549745
0.000222378
-0.000657534
0.000275651
-0.00077681
0.000335743
-0.000908209
0.000402829
-0.00105231
0.000477005
-0.0012096
0.000558275
-0.00138047
0.000646526
-0.00156517
0.000741513
-0.00176379
0.000842842
-0.00197621
0.000949954
-0.00220211
0.00106211
-0.00244088
0.00117841
-0.00269163
0.00129776
-0.00295316
0.00141889
-0.00322391
-0.00350158
0.00154041
1.83886e-06
-2.02302e-05
7.46602e-06
-6.45587e-05
1.71847e-05
-0.000115309
3.13089e-05
-0.00017309
5.01597e-05
-0.000238547
7.40617e-05
-0.000312349
0.000103338
-0.000395179
0.000138302
-0.000487732
0.000179252
-0.000590694
0.000226456
-0.000704738
0.000280147
-0.0008305
0.000340501
-0.000968564
0.000407629
-0.00111944
0.000481557
-0.00128353
0.000562208
-0.00146112
0.000649388
-0.00165235
0.000742769
-0.00185717
0.000841875
-0.00207532
0.000946076
-0.00230631
0.00105458
-0.00254938
0.00116645
-0.0028035
0.00128059
-0.0030673
0.00139579
-0.0033391
-0.00361651
0.00151072
1.89402e-06
-2.21242e-05
7.67531e-06
-7.034e-05
1.76389e-05
-0.000125272
3.20875e-05
-0.000187538
5.13278e-05
-0.000257787
7.56658e-05
-0.000336686
0.0001054
-0.000424914
0.000140816
-0.000523147
0.000182175
-0.000632053
0.000229703
-0.000752266
0.000283581
-0.000884379
0.000343929
-0.00102891
0.000410793
-0.0011863
0.000484125
-0.00135686
0.000563772
-0.00154077
0.000649461
-0.00173804
0.000740786
-0.0019485
0.000837197
-0.00217173
0.000938001
-0.00240711
0.00104236
-0.00265375
0.00114932
-0.00291045
0.00125779
-0.00317577
0.0013666
-0.00344791
-0.00372443
0.00147453
1.9438e-06
-2.4068e-05
7.86168e-06
-7.62579e-05
1.80383e-05
-0.000135449
3.27631e-05
-0.000202263
5.23256e-05
-0.00027735
7.70102e-05
-0.000361371
0.000107089
-0.000454993
0.000142815
-0.000558873
0.000184411
-0.000673648
0.000232057
-0.000799913
0.000285883
-0.000938204
0.000345948
-0.00108898
0.000412231
-0.00125258
0.000484614
-0.00142924
0.00056287
-0.00161903
0.000646649
-0.00182182
0.000735471
-0.00203732
0.000828723
-0.00226498
0.000925658
-0.00250405
0.00102541
-0.00275349
0.00112699
-0.00301204
0.00122936
-0.00327813
0.00133139
-0.00354994
-0.003825
0.00143196
1.98747e-06
-2.60555e-05
8.02234e-06
-8.22928e-05
1.83769e-05
-0.000145803
3.33249e-05
-0.000217211
5.31365e-05
-0.000297161
7.80717e-05
-0.000386306
0.000108374
-0.000485295
0.00014426
-0.00059476
0.000185912
-0.0007153
0.000233463
-0.000847464
0.000286987
-0.000991728
0.000346484
-0.00114847
0.000411866
-0.00131797
0.000482945
-0.00150032
0.000559421
-0.0016955
0.000640875
-0.00190328
0.00072676
-0.0021232
0.000816407
-0.00235463
0.000909024
-0.00259667
0.00100372
-0.00284819
0.00109952
-0.00310784
0.0011954
-0.00337401
0.00129031
-0.00364485
-0.00391792
0.00138322
2.02429e-06
-2.80797e-05
8.15449e-06
-8.8423e-05
1.86485e-05
-0.000156297
3.37623e-05
-0.000232325
5.3744e-05
-0.000317143
7.88273e-05
-0.000411389
0.000109223
-0.000515691
0.000145113
-0.000630649
0.000186632
-0.00075682
0.000233867
-0.000894699
0.000286834
-0.0010447
0.000345473
-0.00120711
0.00040963
-0.00138212
0.00047905
-0.00156974
0.000553365
-0.00176982
0.000632089
-0.001982
0.000714618
-0.00220573
0.000800235
-0.00244024
0.000888117
-0.00268455
0.000977361
-0.00293743
0.001067
-0.00319748
0.00115606
-0.00346307
0.00124356
-0.00373235
-0.00400294
0.00132858
2.05355e-06
-3.01333e-05
8.25542e-06
-9.46248e-05
1.88472e-05
-0.000166889
3.4065e-05
-0.000247543
5.41328e-05
-0.000337211
7.92556e-05
-0.000436512
0.000109611
-0.000546046
0.000145338
-0.000666376
0.000186531
-0.000798013
0.000233222
-0.00094139
0.000285373
-0.00109685
0.000342862
-0.0012646
0.000405472
-0.00144473
0.000472883
-0.00163715
0.000544663
-0.0018416
0.000620268
-0.00205761
0.000699044
-0.00228451
0.000780235
-0.00252144
0.000862998
-0.00276731
0.00094643
-0.00302087
0.00102959
-0.00328065
0.00111155
-0.00354503
0.00119141
-0.00381221
-0.0040799
0.00126837
2.07457e-06
-3.22079e-05
8.32253e-06
-0.000100873
1.89674e-05
-0.000177534
3.42235e-05
-0.000262799
5.42887e-05
-0.000357276
7.9337e-05
-0.000461561
0.00010951
-0.000576219
0.000144907
-0.000701773
0.000185573
-0.000838679
0.00023149
-0.000987307
0.000282564
-0.00114792
0.000338613
-0.00132065
0.000399358
-0.00150548
0.000464417
-0.00170221
0.000533303
-0.00191048
0.000605419
-0.00212972
0.000680069
-0.00235916
0.00075647
-0.00259784
0.000833771
-0.00284461
0.000911079
-0.00309817
0.000987491
-0.00335706
0.00106213
-0.00361967
0.00113419
-0.00388426
-0.00414868
0.00120297
2.08669e-06
-3.42946e-05
8.35344e-06
-0.00010714
1.9004e-05
-0.000188185
3.42291e-05
-0.000278024
5.41987e-05
-0.000377246
7.90544e-05
-0.000486416
0.0001089
-0.000606065
0.000143792
-0.000736665
0.00018373
-0.000878616
0.000228642
-0.00103222
0.000278378
-0.00119766
0.000332698
-0.00137497
0.000391268
-0.00156405
0.000453647
-0.00176459
0.000519296
-0.00197613
0.000587575
-0.002198
0.000657757
-0.00242934
0.000729041
-0.00266912
0.000800578
-0.00291615
0.000871496
-0.00316909
0.000940938
-0.0034265
0.00100809
-0.00368683
0.00107224
-0.00394841
-0.00420924
0.0011328
2.08935e-06
-3.63839e-05
8.346e-06
-0.000113396
1.89525e-05
-0.000198791
3.40743e-05
-0.000293146
5.38521e-05
-0.000397024
7.83935e-05
-0.000510958
0.000107764
-0.000635435
0.000141976
-0.000770878
0.00018098
-0.000917621
0.000224655
-0.00107589
0.000272797
-0.0012458
0.00032511
-0.00142728
0.000381203
-0.00162014
0.000440588
-0.00182398
0.000502678
-0.00203822
0.0005668
-0.00226212
0.000632202
-0.00249474
0.00069808
-0.002735
0.000763593
-0.00298166
0.000827905
-0.0032334
0.000890208
-0.0034888
0.000949765
-0.00374638
0.00100594
-0.00400459
-0.00426157
0.00105827
2.08204e-06
-3.84659e-05
8.29839e-06
-0.000119613
1.8809e-05
-0.000209302
3.37529e-05
-0.00030809
5.32401e-05
-0.000416511
7.7343e-05
-0.00053506
0.000106087
-0.000664179
0.000139443
-0.000804233
0.000177312
-0.00095549
0.000219523
-0.00111811
0.000265819
-0.00129209
0.000315852
-0.00147732
0.000369184
-0.00167347
0.000425277
-0.00188007
0.00048351
-0.00209646
0.000543182
-0.00232179
0.000603529
-0.00255509
0.000663748
-0.00279522
0.000723023
-0.00304094
0.000780556
-0.00329094
0.000835601
-0.00354385
0.000887496
-0.00379828
0.000935701
-0.00405279
-0.0043057
0.000979836
2.06433e-06
-4.05303e-05
8.20911e-06
-0.000125757
1.85706e-05
-0.000219663
3.32602e-05
-0.00032278
5.23563e-05
-0.000435607
7.58955e-05
-0.0005586
0.000103864
-0.000692147
0.000136186
-0.000836555
0.00017272
-0.000992024
0.000213244
-0.00115863
0.000257452
-0.0013363
0.000304947
-0.00152481
0.000355246
-0.00172377
0.000407773
-0.0019326
0.000461876
-0.00215056
0.000516835
-0.00237675
0.000571884
-0.00261014
0.000626232
-0.00284957
0.000679095
-0.0030938
0.000729723
-0.00334157
0.000777435
-0.00359156
0.00082165
-0.00384249
0.000861913
-0.00409306
-0.00434173
0.00089794
2.03589e-06
-4.25662e-05
8.07701e-06
-0.000131798
1.8235e-05
-0.000229821
3.25929e-05
-0.000337137
5.11967e-05
-0.000454211
7.40468e-05
-0.00058145
0.000101089
-0.00071919
0.000132207
-0.000867673
0.00016721
-0.00102703
0.000205832
-0.00119725
0.000247719
-0.00137819
0.000292432
-0.00156953
0.000339445
-0.00177078
0.000388153
-0.00198131
0.000437879
-0.00220029
0.000487895