/*--------------------------------*- C++ -*----------------------------------*\
  =========                 |
  \\      /  F ield         | OpenFOAM: The Open Source CFD Toolbox
   \\    /   O peration     | Website:  https://openfoam.org
    \\  /    A nd           | Version:  7
     \\/     M anipulation  |
\*---------------------------------------------------------------------------*/
FoamFile
{
    version     2.0;
    format      ascii;
    class       surfaceScalarField;
    location    "53";
    object      phi;
}
// * * * * * * * * * * * * * * * * * * * * * * * * * * * * * * * * * * * * * //

dimensions      [0 3 -1 0 0 0 0];

internalField   nonuniform List<scalar> 
79480
(
-7.44081e-07
8.91691e-07
-1.4761e-07
-2.86593e-06
2.52411e-06
-4.02256e-07
-6.31478e-06
4.07586e-06
-6.27009e-07
-1.10379e-05
5.5442e-06
-8.21066e-07
-1.69802e-05
6.92647e-06
-9.84143e-07
-2.40848e-05
8.22107e-06
-1.11652e-06
-3.22932e-05
9.42739e-06
-1.21899e-06
-4.15461e-05
1.05457e-05
-1.29282e-06
-5.17837e-05
1.15772e-05
-1.33963e-06
-6.29462e-05
1.25238e-05
-1.36125e-06
-7.49744e-05
1.33877e-05
-1.35958e-06
-8.78098e-05
1.41719e-05
-1.33641e-06
-0.000101396
1.4879e-05
-1.29321e-06
-0.000115676
1.55117e-05
-1.23098e-06
-0.000130599
1.60723e-05
-1.15007e-06
-0.000146111
1.65628e-05
-1.05007e-06
-0.000162166
1.69846e-05
-9.2968e-07
-0.000178719
1.73392e-05
-7.86711e-07
-0.000195729
1.76283e-05
-6.18032e-07
-0.000213164
1.78544e-05
-4.19591e-07
-0.000231
1.80222e-05
-1.86432e-07
-0.000249226
1.81388e-05
8.72922e-08
-0.000267849
1.82152e-05
4.08343e-07
-0.000286901
1.8267e-05
7.84451e-07
-0.00030644
1.83146e-05
1.22443e-06
-0.00032656
1.83824e-05
1.73838e-06
-0.000347395
1.84965e-05
2.33787e-06
-0.00036911
1.86789e-05
3.03613e-06
-0.000391903
1.89446e-05
3.84881e-06
1.93241e-05
4.79638e-06
-0.000416024
-7.38375e-07
1.63007e-06
-2.84456e-06
4.63029e-06
-6.26864e-06
7.49994e-06
-1.09587e-05
1.02342e-05
-1.68602e-05
1.2828e-05
-2.39167e-05
1.52776e-05
-3.20703e-05
1.7581e-05
-4.12619e-05
1.97373e-05
-5.14319e-05
2.17472e-05
-6.25204e-05
2.36123e-05
-7.44682e-05
2.53355e-05
-8.72165e-05
2.69203e-05
-0.000100708
2.83706e-05
-0.000114887
2.96907e-05
-0.000129699
3.08846e-05
-0.000145093
3.19563e-05
-0.000161018
3.29098e-05
-0.000177429
3.37499e-05
-0.000194283
3.44826e-05
-0.000211545
3.51167e-05
-0.000229189
3.56654e-05
-0.000247198
3.61485e-05
-0.000265577
3.65941e-05
-0.000284351
3.70407e-05
-0.000303574
3.75378e-05
-0.000323337
3.81449e-05
-0.000343768
3.89274e-05
-0.000365033
3.99443e-05
-0.000387332
4.12435e-05
4.29093e-05
-0.000410917
-7.2735e-07
2.35742e-06
-2.80318e-06
6.70612e-06
-6.17915e-06
1.08759e-05
-1.08047e-05
1.48597e-05
-1.66264e-05
1.86497e-05
-2.35888e-05
2.224e-05
-3.16346e-05
2.56268e-05
-4.07051e-05
2.88078e-05
-5.07408e-05
3.17829e-05
-6.1682e-05
3.45535e-05
-7.3469e-05
3.71225e-05
-8.60426e-05
3.94939e-05
-9.93447e-05
4.16727e-05
-0.000113318
4.36642e-05
-0.000127907
4.54738e-05
-0.000143058
4.71072e-05
-0.000158719
4.85704e-05
-0.000174839
4.98705e-05
-0.000191374
5.1017e-05
-0.000208281
5.2024e-05
-0.000225528
5.29119e-05
-0.000243091
5.37117e-05
-0.000260964
5.44673e-05
-0.000279163
5.52392e-05
-0.00029773
5.61056e-05
-0.000316748
5.71623e-05
-0.000336337
5.85165e-05
-0.000356661
6.02685e-05
-0.000377921
6.25037e-05
6.53652e-05
-0.000400377
-7.11184e-07
3.0686e-06
-2.74244e-06
8.73738e-06
-6.04766e-06
1.41811e-05
-1.05781e-05
1.93902e-05
-1.62821e-05
2.43537e-05
-2.31052e-05
2.90632e-05
-3.09911e-05
3.35127e-05
-3.98817e-05
3.76984e-05
-4.97177e-05
4.16189e-05
-6.04391e-05
4.52749e-05
-7.19857e-05
4.86691e-05
-8.42976e-05
5.18058e-05
-9.73153e-05
5.46903e-05
-0.00011098
5.73287e-05
-0.000125233
5.97272e-05
-0.000140018
6.18923e-05
-0.000155279
6.38313e-05
-0.000170961
6.55527e-05
-0.000187012
6.7068e-05
-0.000203383
6.83945e-05
-0.00022003
6.95585e-05
-0.000236917
7.05996e-05
-0.000254026
7.15755e-05
-0.000271353
7.25668e-05
-0.000288928
7.36802e-05
-0.000306814
7.50486e-05
-0.000325122
7.6825e-05
-0.000344012
7.91577e-05
-0.000363685
8.21767e-05
8.60934e-05
-0.000384413
-6.90148e-07
3.75875e-06
-2.6633e-06
1.07105e-05
-5.87615e-06
1.7394e-05
-1.02823e-05
2.37963e-05
-1.5832e-05
2.99033e-05
-2.24723e-05
3.57035e-05
-3.01479e-05
4.11883e-05
-3.88014e-05
4.63519e-05
-4.83735e-05
5.1191e-05
-5.88039e-05
5.57054e-05
-7.00319e-05
5.9897e-05
-8.1996e-05
6.37699e-05
-9.46349e-05
6.73293e-05
-0.000107887
7.05812e-05
-0.000121693
7.35322e-05
-0.000135989
7.61888e-05
-0.000150716
7.85581e-05
-0.000165812
8.06485e-05
-0.000181216
8.24722e-05
-0.000196869
8.40474e-05
-0.000212713
8.54032e-05
-0.000228699
8.65852e-05
-0.000244785
8.76617e-05
-0.000260949
8.87309e-05
-0.000277195
8.99262e-05
-0.000293566
9.14192e-05
-0.000310154
9.34133e-05
-0.000327111
9.61144e-05
-0.000344642
9.97078e-05
0.000104488
-0.000363037
-6.64596e-07
4.42335e-06
-2.56705e-06
1.2613e-05
-5.66728e-06
2.04942e-05
-9.9216e-06
2.80507e-05
-1.52824e-05
3.52641e-05
-2.16984e-05
4.21196e-05
-2.91155e-05
4.86054e-05
-3.74766e-05
5.4713e-05
-4.67227e-05
6.0437e-05
-5.67929e-05
6.57756e-05
-6.76252e-05
7.07294e-05
-7.91568e-05
7.53015e-05
-9.13239e-05
7.94964e-05
-0.000104062
8.33197e-05
-0.000117307
8.67769e-05
-0.000130992
8.98737e-05
-0.00014505
9.26159e-05
-0.000159411
9.50101e-05
-0.000174006
9.70666e-05
-0.000188761
9.88022e-05
-0.000203603
0.000100245
-0.000218461
0.000101444
-0.000233271
0.000102472
-0.000247983
0.000103442
-0.000262568
0.000104512
-0.000277041
0.000105892
-0.000291469
0.000107841
-0.00030599
0.000110636
-0.000320816
0.000114533
0.000119932
-0.000336259
-6.34964e-07
5.05831e-06
-2.45524e-06
1.44333e-05
-5.4243e-06
2.34633e-05
-9.50134e-06
3.21277e-05
-1.4641e-05
4.04038e-05
-2.07939e-05
4.82724e-05
-2.79067e-05
5.57182e-05
-3.59229e-05
6.27292e-05
-4.47832e-05
6.92974e-05
-5.44261e-05
7.54185e-05
-6.4788e-05
8.10913e-05
-7.58039e-05
8.63173e-05
-8.74072e-05
9.10998e-05
-9.95301e-05
9.54426e-05
-0.000112103
9.93496e-05
-0.000125054
0.000102824
-0.000138308
0.00010587
-0.000151786
0.000108489
-0.000165408
0.000110688
-0.000179084
0.000112478
-0.000192723
0.000113885
-0.000206231
0.000114951
-0.000219514
0.000115755
-0.000232486
0.000116415
-0.000245083
0.000117109
-0.000257277
0.000118086
-0.000269103
0.000119667
-0.000280681
0.000122214
-0.000292222
0.000126074
0.000131785
-0.000304075
-6.0176e-07
5.66007e-06
-2.32971e-06
1.61612e-05
-5.151e-06
2.62846e-05
-9.0278e-06
3.60045e-05
-1.3917e-05
4.5293e-05
-1.97708e-05
5.41262e-05
-2.65367e-05
6.24841e-05
-3.41585e-05
7.03509e-05
-4.25762e-05
7.77151e-05
-5.17273e-05
8.45695e-05
-6.15461e-05
9.09101e-05
-7.1965e-05
9.67363e-05
-8.29141e-05
0.000102049
-9.43209e-05
0.000106849
-0.00010611
0.000111139
-0.000118204
0.000114918
-0.000130518
0.000118184
-0.000142964
0.000120935
-0.000155447
0.000123171
-0.000167862
0.000124894
-0.000180098
0.00012612
-0.000192031
0.000126885
-0.000203536
0.00012726
-0.000214486
0.000127365
-0.000224769
0.000127392
-0.000234306
0.000127623
-0.000243086
0.000128447
-0.000251202
0.00013033
-0.000258863
0.000133735
0.000139373
-0.00026645
-5.65559e-07
6.22563e-06
-2.19251e-06
1.77882e-05
-4.85168e-06
2.89437e-05
-8.50806e-06
3.96609e-05
-1.31206e-05
4.99056e-05
-1.86428e-05
5.96484e-05
-2.50228e-05
6.8864e-05
-3.2204e-05
7.75321e-05
-4.01257e-05
8.56369e-05
-4.87234e-05
9.31672e-05
-5.79291e-05
0.000100116
-6.76719e-05
0.000106479
-7.78775e-05
0.000112254
-8.84684e-05
0.00011744
-9.93629e-05
0.000122034
-0.000110475
0.00012603
-0.000121712
0.000129421
-0.000132974
0.000132197
-0.00014415
0.000134347
-0.000155119
0.000135863
-0.000165745
0.000136746
-0.000175877
0.000137017
-0.000185352
0.000136734
-0.000193995
0.000136008
-0.00020164
0.000135036
-0.000208143
0.000134126
-0.000213431
0.000133735
-0.000217556
0.000134455
-0.000220716
0.000136895
0.000141968
-0.000223311
-5.26991e-07
6.75262e-06
-2.04593e-06
1.93071e-05
-4.53106e-06
3.14289e-05
-7.94988e-06
4.30797e-05
-1.22631e-05
5.42188e-05
-1.7425e-05
6.48102e-05
-2.33837e-05
7.48228e-05
-3.00821e-05
8.42305e-05
-3.74579e-05
9.30126e-05
-4.54441e-05
0.000101153
-5.39696e-05
0.000108641
-6.29592e-05
0.000115469
-7.23337e-05
0.000121629
-8.20094e-05
0.000127116
-9.18972e-05
0.000131921
-0.000101902
0.000136035
-0.000111922
0.00013944
-0.000121842
0.000142118
-0.000131538
0.000144043
-0.000140869
0.000145193
-0.000149674
0.000145551
-0.000157771
0.000145114
-0.000164956
0.000143919
-0.000171004
0.000142056
-0.000175682
0.000139714
-0.000178771
0.000137215
-0.000180115
0.00013508
-0.000179708
0.000134048
-0.000177725
0.000134912
0.000138777
-0.000174534
-4.86731e-07
7.23935e-06
-1.89237e-06
2.07127e-05
-4.19416e-06
3.37306e-05
-7.36159e-06
4.62471e-05
-1.13565e-05
5.82137e-05
-1.61334e-05
6.95871e-05
-2.16399e-05
8.03293e-05
-2.78173e-05
9.04079e-05
-3.46011e-05
9.97964e-05
-4.19211e-05
0.000108473
-4.97022e-05
0.000116423
-5.78641e-05
0.000123631
-6.63213e-05
0.000130086
-7.49828e-05
0.000135777
-8.37512e-05
0.00014069
-9.25213e-05
0.000144805
-0.000101178
0.000148097
-0.000109595
0.000150535
-0.00011763
0.000152078
-0.00012512
0.000152684
-0.00013188
0.000152311
-0.000137695
0.000150929
-0.000142317
0.000148541
-0.000145467
0.000145206
-0.00014684
0.000141086
-0.000146126
0.000136502
-0.000143069
0.000132022
-0.000137574
0.000128553
-0.000129799
0.000127137
0.000128924
-0.000119945
-4.45484e-07
7.68483e-06
-1.73438e-06
2.20016e-05
-3.84625e-06
3.58425e-05
-6.75186e-06
4.91527e-05
-1.04134e-05
6.18753e-05
-1.47848e-05
7.39585e-05
-1.98124e-05
8.53569e-05
-2.5435e-05
9.60306e-05
-3.15849e-05
0.000105946
-3.81878e-05
0.000115076
-4.51634e-05
0.000123398
-5.24251e-05
0.000130892
-5.98801e-05
0.000137541
-6.74286e-05
0.000143326
-7.49632e-05
0.000148224
-8.23669e-05
0.000152209
-8.95114e-05
0.000155242
-9.6254e-05
0.000157277
-0.000102434
0.000158258
-0.000107867
0.000158117
-0.00011234
0.000156784
-0.000115605
0.000154194
-0.00011737
0.000150306
-0.000117297
0.000145134
-0.000115003
0.000138793
-0.00011008
0.000131578
-0.000102142
0.000124084
-9.0962e-05
0.000117373
-7.67687e-05
0.000112944
0.000111618
-5.94625e-05
-4.03971e-07
8.08881e-06
-1.57453e-06
2.31722e-05
-3.49267e-06
3.77607e-05
-6.12952e-06
5.17896e-05
-9.44664e-06
6.51924e-05
-1.33965e-05
7.79084e-05
-1.79227e-05
8.98832e-05
-2.29611e-05
0.000101069
-2.84394e-05
0.000111425
-3.42779e-05
0.000120915
-4.039e-05
0.00012951
-4.66813e-05
0.000137184
-5.30502e-05
0.00014391
-5.93865e-05
0.000149662
-6.55706e-05
0.000154409
-7.1472e-05
0.00015811
-7.69466e-05
0.000160716
-8.18334e-05
0.000162164
-8.59509e-05
0.000162375
-8.90908e-05
0.000161257
-9.10115e-05
0.000158704
-9.14289e-05
0.000154612
-9.00071e-05
0.000148884
-8.63483e-05
0.000141475
-7.99891e-05
0.000132433
-7.04119e-05
0.000122001
-5.70884e-05
0.000110761
-3.95455e-05
9.98305e-05
-1.76532e-05
9.10512e-05
8.82747e-05
5.68983e-06
-3.62908e-07
8.45171e-06
-1.41538e-06
2.42247e-05
-3.13876e-06
3.9484e-05
-5.50334e-06
5.41542e-05
-8.46892e-06
6.8158e-05
-1.19852e-05
8.14246e-05
-1.59923e-05
9.38903e-05
-2.04212e-05
0.000105498
-2.5194e-05
0.000116197
-3.02246e-05
0.000125945
-3.54179e-05
0.000134703
-4.06707e-05
0.000142436
-4.58702e-05
0.00014911
-5.0894e-05
0.000154686
-5.56081e-05
0.000159123
-5.98654e-05
0.000162367
-6.35034e-05
0.000164354
-6.634e-05
0.000165001
-6.81696e-05
0.000164205
-6.87566e-05
0.000161844
-6.78278e-05
0.000157776
-6.5062e-05
0.000151846
-6.00773e-05
0.0001439
-5.24169e-05
0.000133814
-4.15366e-05
0.000121553
-2.68034e-05
0.000107268
-7.53319e-06
9.14906e-05
1.68966e-05
7.54006e-05
4.67572e-05
6.11907e-05
5.38511e-05
8.11807e-05
-3.22992e-07
8.77471e-06
-1.25942e-06
2.51611e-05
-2.78961e-06
4.10142e-05
-4.88171e-06
5.62463e-05
-7.49238e-06
7.07686e-05
-1.05672e-05
8.44995e-05
-1.40413e-05
9.73643e-05
-1.78396e-05
0.000109296
-2.1877e-05
0.000120235
-2.6059e-05
0.000130127
-3.0281e-05
0.000138925
-3.44283e-05
0.000146584
-3.83753e-05
0.000153057
-4.19844e-05
0.000158295
-4.51046e-05
0.000162243
-4.75692e-05
0.000164832
-4.91932e-05
0.000165978
-4.97695e-05
0.000165577
-4.9064e-05
0.000163499
-4.68095e-05
0.000159589
-4.26968e-05
0.000153663
-3.6364e-05
0.000145513
-2.73813e-05
0.000134917
-1.52329e-05
0.000121666
7.04677e-07
0.000105615
2.11769e-05
8.67958e-05
4.70422e-05
6.56253e-05
7.91435e-05
4.32993e-05
0.000117938
2.23959e-05
8.69948e-06
0.00016309
-2.84872e-07
9.05958e-06
-1.10893e-06
2.59851e-05
-2.44995e-06
4.23553e-05
-4.27237e-06
5.80687e-05
-6.52817e-06
7.30244e-05
-9.15731e-06
8.71286e-05
-1.20882e-05
0.000100295
-1.52382e-05
0.000112446
-1.85134e-05
0.00012351
-2.1809e-05
0.000133423
-2.50087e-05
0.000142125
-2.79843e-05
0.000149559
-3.05946e-05
0.000155667
-3.26841e-05
0.000160385
-3.40811e-05
0.00016364
-3.45955e-05
0.000165346
-3.40152e-05
0.000165398
-3.2103e-05
0.000163665
-2.85906e-05
0.000159987
-2.31728e-05
0.000154171
-1.54986e-05
0.000145989
-5.1595e-06
0.000135174
8.32623e-06
0.000121431
2.55347e-05
0.000104457
4.71642e-05
8.3986e-05
7.4068e-05
5.9892e-05
0.00010727
3.24231e-05
0.00014787
2.69971e-06
0.000196714
-2.64481e-05
-4.82631e-05
0.000253676
-2.49132e-07
9.30871e-06
-9.65956e-07
2.6702e-05
-2.12393e-06
4.35132e-05
-3.68207e-06
5.96268e-05
-5.58593e-06
7.49283e-05
-7.76813e-06
8.93108e-05
-1.01487e-05
0.000102676
-1.26355e-05
0.000114933
-1.51239e-05
0.000125998
-1.74969e-05
0.000135796
-1.96241e-05
0.000144252
-2.13611e-05
0.000151296
-2.25484e-05
0.000156854
-2.30088e-05
0.000160845
-2.25463e-05
0.000163177
-2.09421e-05
0.000163742
-1.79522e-05
0.000162408
-1.33025e-05
0.000159015
-6.68355e-06
0.000153368
2.25565e-06
0.000145232
1.39167e-05
0.000134328
2.87629e-05
0.000120328
4.73346e-05
0.00010286
7.02719e-05
8.15202e-05
9.83458e-05
5.5912e-05
0.000132503
2.57346e-05
0.000173917
-8.99055e-06
0.000223949
-4.73328e-05
0.000283851
-8.63497e-05
-0.000118381
0.000353969
-2.16257e-07
9.52497e-06
-8.3217e-07
2.73179e-05
-1.81493e-06
4.4496e-05
-3.11619e-06
6.09281e-05
-4.67325e-06
7.64853e-05
-6.40948e-06
9.10471e-05
-8.23468e-06
0.000104501
-1.00451e-05
0.000116743
-1.17234e-05
0.000127677
-1.31378e-05
0.00013721
-1.41415e-05
0.000145256
-1.4571e-05
0.000151726
-1.42446e-05
0.000156528
-1.29601e-05
0.000159561
-1.04918e-05
0.000160709
-6.58759e-06
0.000159838
-9.64581e-07
0.000156785
6.69539e-06
0.000151355
1.67514e-05
0.000143312
2.961e-05
0.000132373
4.57339e-05
0.000118204
6.56518e-05
0.00010041
8.99732e-05
7.85381e-05
0.000119409
5.20843e-05
0.000154803
2.05185e-05
0.00019718
-1.66428e-05
0.00024783
-5.96406e-05
0.000308346
-0.000107849
0.00038038
-0.000158384
-0.000203051
0.00046505
-1.86613e-07
9.71158e-06
-7.08782e-07
2.784e-05
-1.52529e-06
4.53125e-05
-2.57842e-06
6.19812e-05
-3.79512e-06
7.7702e-05
-5.0875e-06
9.23395e-05
-6.353e-06
0.000105767
-7.47425e-06
0.000117865
-8.3186e-06
0.000128521
-8.73719e-06
0.000137629
-8.56361e-06
0.000145082
-7.61202e-06
0.000150774
-5.6749e-06
0.000154591
-2.5201e-06
0.000156406
2.1125e-06
0.000156077
8.515e-06
0.000153435
1.70161e-05
0.000148284
2.79864e-05
0.000140385
4.18443e-05
0.000129454
5.90629e-05
0.000115155
8.01778e-05
9.7089e-05
0.000105796
7.47911e-05
0.00013661
4.77247e-05
0.00017341
1.52842e-05
0.000217116
-2.31871e-05
0.000268819
-6.83465e-05
0.000329883
-0.000120705
0.000402066
-0.000180032
0.000487363
-0.00024368
-0.000303641
0.000587953
-1.60415e-07
9.87199e-06
-5.96445e-07
2.82761e-05
-1.25619e-06
4.59722e-05
-2.07032e-06
6.27954e-05
-2.95332e-06
7.85851e-05
-3.80386e-06
9.319e-05
-4.50473e-06
0.000106467
-4.92255e-06
0.000118282
-4.90684e-06
0.000128505
-4.2887e-06
0.000137011
-2.87888e-06
0.000143673
-4.65439e-07
0.000148361
3.18934e-06
0.000150936
8.35252e-06
0.000151243
1.53246e-05
0.000149104
2.44445e-05
0.000144316
3.60947e-05
0.000136634
5.07072e-05
0.000125772
6.87701e-05
0.000111391
9.08346e-05
9.30903e-05
0.000117522
7.04017e-05
0.000149532
4.27815e-05
0.00018765
9.60645e-06
0.000232761
-2.98269e-05
0.000285865
-7.62913e-05
0.000348112
-0.000130594
0.000420893
-0.000193485
0.000506037
-0.000265176
0.000605748
-0.000343392
-0.000421381
0.000723488
-1.37705e-07
1.00097e-05
-4.95156e-07
2.86335e-05
-1.00734e-06
4.64844e-05
-1.59104e-06
6.33791e-05
-2.14597e-06
7.914e-05
-2.55499e-06
9.3599e-05
-2.68388e-06
0.000106596
-2.38061e-06
0.000117979
-1.47399e-06
0.000127599
2.2811e-07
0.000135309
2.94134e-06
0.000140959
6.90807e-06
0.000144394
1.2401e-05
0.000145443
1.97278e-05
0.000143916
2.92358e-05
0.000139596
4.13181e-05
0.000132233
5.64193e-05
0.000121533
7.50426e-05
0.000107149
9.77562e-05
8.86773e-05
0.0001252
6.5646e-05
0.000158095
3.75077e-05
0.000197242
3.63431e-06
0.000243535
-3.66866e-05
0.00029796
-8.42522e-05
0.000361604
-0.000139935
0.000435664
-0.000204655
0.000521517
-0.000279338
0.000620954
-0.000364612
0.000736193
-0.000458631
-0.000557227
0.00087204
-1.18327e-07
1.0128e-05
-4.04176e-07
2.89194e-05
-7.76924e-07
4.68572e-05
-1.13702e-06
6.37392e-05
-1.367e-06
7.937e-05
-1.33148e-06
9.35635e-05
-8.7656e-07
0.000106141
1.71261e-07
0.000116931
2.0069e-06
0.000125763
4.84943e-06
0.000132466
8.94506e-06
0.000136864
1.45711e-05
0.000138768
2.20408e-05
0.000137973
3.17083e-05
0.000134248
4.3975e-05
0.00012733
5.92961e-05
0.000116912
7.81871e-05
0.000102641
0.000101232
8.41042e-05
0.000129088
6.0821e-05
0.000162496
3.22381e-05
0.000202281
-2.27783e-06
0.00024936
-4.34444e-05
0.000304737
-9.20633e-05
0.000369502
-0.000149017
0.000444823
-0.000215256
0.000531937
-0.000291768
0.000632161
-0.000379563
0.000747128
-0.000479579
0.000878857
-0.000590361
-0.000711685
0.00103332
-1.01908e-07
1.02299e-05
-3.21971e-07
2.91394e-05
-5.61361e-07
4.70966e-05
-7.01708e-07
6.38795e-05
-6.05845e-07
7.92741e-05
-1.17478e-07
9.30751e-05
9.39617e-07
0.000105084
2.76362e-06
0.000115107
5.57685e-06
0.00012295
9.62904e-06
0.000128414
1.52015e-05
0.000131291
2.26117e-05
0.000131358
3.22193e-05
0.000128366
4.44318e-05
0.000122036
5.9712e-05
0.000112049
7.85852e-05
9.80391e-05
0.000101647
7.95801e-05
0.000129569
5.61819e-05
0.000163109
2.72809e-05
0.000203113
-7.76592e-06
0.000250519
-4.9684e-05
0.000306357
-9.92817e-05
0.000371738
-0.000157445
0.000447847
-0.000225126
0.000535913
-0.000303322
0.000637183
-0.000393038
0.000752876
-0.000495256
0.00088433
-0.000611032
0.0010332
-0.000739235
-0.000884585
0.0012061
-8.78515e-08
1.03178e-05
-2.46172e-07
2.92978e-05
-3.55306e-07
4.72057e-05
-2.75498e-07
6.37997e-05
1.52741e-07
7.88459e-05
1.10927e-06
9.21186e-05
2.79599e-06
0.000103398
5.43893e-06
0.000112464
9.29153e-06
0.000119097
1.46387e-05
0.000123067
2.18018e-05
0.000124128
3.11443e-05
0.000122015
4.30783e-05
0.000116432
5.8072e-05
0.000107042
7.66572e-05
9.34642e-05
9.94373e-05
7.5259e-05
0.000127095
5.19224e-05
0.000160399
2.28774e-05
0.000200212
-1.25313e-05
0.000247487
-5.50413e-05
0.000303274
-0.000105471
0.000368707
-0.000164714
0.000444989
-0.000233727
0.000533367
-0.000313504
0.000635092
-0.000405047
0.000751366
-0.000509311
0.000883258
-0.000627148
0.00103166
-0.000759437
0.00119783
-0.000905404
-0.00107482
0.00138806
-7.53303e-08
1.03931e-05
-1.73569e-07
2.9396e-05
-1.51608e-07
4.71837e-05
1.54296e-07
6.34938e-05
9.28635e-07
7.80715e-05
2.37797e-06
9.06693e-05
4.73287e-06
0.000101043
8.251e-06
0.000108946
1.32212e-05
0.000114127
1.99682e-05
0.00011632
2.88589e-05
0.000115238
4.03087e-05
0.000110566
5.47893e-05
0.000101951
7.28364e-05
8.89949e-05
9.50583e-05
7.12423e-05
0.000122144
4.81735e-05
0.000154869
1.91967e-05
0.000194105
-1.63584e-05
0.000240818
-5.92436e-05
0.000296067
-0.000110291
0.000361002
-0.000170406
0.000436839
-0.000240552
0.000524838
-0.000321727
0.000626261
-0.000414926
0.000742308
-0.000521095
0.000874051
-0.000641054
0.00102234
-0.000775433
0.00118746
-0.000924561
0.00137038
-0.00108832
-0.00128002
0.00157559
-6.32993e-08
1.04564e-05
-1.00162e-07
2.94329e-05
5.86235e-08
4.7025e-05
6.03269e-07
6.29491e-05
1.7463e-06
7.69285e-05
3.72391e-06
8.86917e-05
6.79891e-06
9.79677e-05
1.12646e-05
0.00010448
1.74496e-05
0.000107942
2.57238e-05
0.000108045
3.65053e-05
0.000104456
5.0268e-05
9.68028e-05
6.75496e-05
8.46694e-05
8.89606e-05
6.75839e-05
0.000115192
4.50106e-05
0.000147024
1.63415e-05
0.000185331
-1.91097e-05
0.000231082
-6.21102e-05
0.000285346
-0.000113507
0.000349274
-0.000174219
0.000424091
-0.000245222
0.000511059
-0.00032752
0.000611442
-0.000422109
0.000726438
-0.000529923
0.000857108
-0.000651764
0.00100427
-0.000788219
0.00116845
-0.000939611
0.00134921
-0.00110532
0.00154746
-0.00128658
-0.00149635
0.00176379
-5.05158e-08
1.05069e-05
-2.1173e-08
2.94035e-05
2.85622e-07
4.67182e-05
1.08966e-06
6.21451e-05
2.63406e-06
7.53841e-05
5.18801e-06
8.61377e-05
9.05026e-06
9.41055e-05
1.45539e-05
9.89768e-05
2.20724e-05
0.000100424
3.20261e-05
9.80918e-05
4.48902e-05
9.15918e-05
6.12034e-05
8.04897e-05
8.15761e-05
6.42967e-05
0.000106699
4.24607e-05
0.000137352
1.43575e-05
0.000174409
-2.0715e-05
0.000218839
-6.35401e-05
0.000271709
-0.00011498
0.000334171
-0.000175968
0.000407444
-0.000247493
0.00049279
-0.000330568
0.000591463
-0.000426193
0.000704652
-0.000535298
0.000833401
-0.000658672
0.00097851
-0.000796874
0.00114042
-0.00095013
0.00131917
-0.00111836
0.00151356
-0.00129971
0.00172467
-0.00149769
-0.00171831
0.00194663
-3.55913e-08
1.05425e-05
6.85368e-08
2.92994e-05
5.41174e-07
4.62455e-05
1.63387e-06
6.10524e-05
3.62354e-06
7.33944e-05
6.81572e-06
8.29455e-05
1.1549e-05
8.93722e-05
1.82009e-05
9.2325e-05
2.71943e-05
9.14302e-05
3.90059e-05
8.62802e-05
5.41739e-05
7.64239e-05
7.33074e-05
6.13561e-05
9.70953e-05
4.05089e-05
0.000126313
1.32425e-05
0.000161832
-2.11606e-05
0.000204615
-6.34988e-05
0.000255725
-0.000114649
0.000316305
-0.00017556
0.000387568
-0.000247232
0.000470763
-0.000330688
0.00056713
-0.000426935
0.00067784
-0.000536903
0.000803915
-0.000661373
0.000946132
-0.000800889
0.00110491
-0.000955652
0.00128019
-0.00112541
0.00147133
-0.0013095
0.0016765
-0.00150489
0.00189659
-0.00171777
-0.00193899
0.00211727
-1.69764e-08
1.05595e-05
1.74915e-07
2.91075e-05
8.3782e-07
4.55826e-05
2.25783e-06
5.96324e-05
4.74865e-06
7.09036e-05
8.65564e-06
7.90385e-05
1.43613e-05
8.36665e-05
2.22919e-05
8.43943e-05
3.29254e-05
8.07968e-05
4.67994e-05
7.24062e-05
6.45211e-05
5.87023e-05
8.6775e-05
3.91022e-05
0.000114332
1.29519e-05
0.000148055
-2.04802e-05
0.000188901
-6.20069e-05
0.000237922
-0.000112519
0.000296251
-0.000172978
0.000365087
-0.000244397
0.000445664
-0.000327808
0.000539202
-0.000424226
0.000646848
-0.000534581
0.000769597
-0.000659651
0.000908193
-0.00079997
0.00106303
-0.000955724
0.00123403
-0.00112665
0.00142055
-0.00131193
0.00162123
-0.00151017
0.0018339
-0.00171756
0.0020574
-0.00194126
-0.00215004
0.00226844
6.92304e-09
1.05526e-05
3.03903e-07
2.88105e-05
1.18863e-06
4.46979e-05
2.98432e-06
5.78367e-05
6.04447e-06
6.78434e-05
1.07579e-05
7.43251e-05
1.75549e-05
7.68694e-05
2.69153e-05
7.50339e-05
3.93765e-05
6.83356e-05
5.55425e-05
5.62401e-05
7.60934e-05
3.81514e-05
0.000101793
1.34027e-05
0.000133495
-1.87501e-05
0.000172147
-5.91321e-05
0.000218787
-0.000108647
0.000274536
-0.000168268
0.000340576
-0.000239019
0.000418123
-0.000321944
0.000508376
-0.000418061
0.000612457
-0.000528306
0.000731327
-0.000653452
0.000865698
-0.000794022
0.00101592
-0.000950193
0.00118189
-0.00112169
0.00136293
-0.0013077
0.00155781
-0.00150681
0.00176455
-0.00171691
0.00198132
-0.00193433
0.00220271
-0.00216265
-0.002343
0.00239567
3.77098e-08
1.05149e-05
4.61523e-07
2.83867e-05
1.60671e-06
4.35527e-05
3.83612e-06
5.56073e-05
7.54605e-06
6.41335e-05
1.31721e-05
6.86991e-05
2.11967e-05
6.88449e-05
3.21571e-05
6.40735e-05
4.66547e-05
5.3838e-05
6.5364e-05
3.75308e-05
8.90407e-05
1.44747e-05
0.000118529
-1.60851e-05
0.000154762
-5.49841e-05
0.000198767
-0.000103136
0.000251646
-0.000161526
0.000314566
-0.000231188
0.000388723
-0.000313176
0.000475294
-0.000408515
0.000575378
-0.000518145
0.000689909
-0.000642838
0.000819567
-0.000783109
0.000964664
-0.00093912
0.00112505
-0.00111058
0.00130001
-0.00129665
0.00148823
-0.00149592
0.00168782
-0.0017064
0.00189627
-0.00192536
0.00211203
-0.00215009
0.00232944
-0.00238007
-0.00258629
0.00257274
7.69515e-08
1.04379e-05
6.53642e-07
2.781e-05
2.10481e-06
4.21015e-05
4.83529e-06
5.28768e-05
9.28705e-06
5.96818e-05
1.5946e-05
6.20401e-05
2.535e-05
5.94409e-05
3.80979e-05
5.13257e-05
5.48583e-05
3.70775e-05
7.63787e-05
1.60105e-05
0.000103491
-1.2638e-05
0.000137118
-4.97115e-05
0.000178267
-9.6133e-05
0.000228026
-0.000152896
0.000287543
-0.000221043
0.000357995
-0.00030164
0.000440541
-0.000395721
0.000536258
-0.000504233
0.000646062
-0.000627949
0.000770608
-0.000767383
0.000910183
-0.000922685
0.00106461
-0.00109354
0.00123313
-0.0012791
0.00141438
-0.00147791
0.00160639
-0.00168793
0.00180663
-0.00190664
0.00201222
-0.00213096
0.0022207
-0.00235856
0.00242733
-0.0025867
-0.00280225
0.00264328
1.26109e-07
1.03118e-05
8.8574e-07
2.70504e-05
2.69478e-06
4.02925e-05
6.00228e-06
4.95693e-05
1.12986e-05
5.43855e-05
1.91229e-05
5.42158e-05
3.00718e-05
4.84919e-05
4.48085e-05
3.65889e-05
6.40715e-05
1.78146e-05
8.86812e-05
-8.59925e-06
0.000119545
-4.35015e-05
0.000157654
-8.78211e-05
0.00020408
-0.000142559
0.000259952
-0.000208767
0.000326429
-0.00028752
0.000404653
-0.000379865
0.000495688
-0.000486756
0.000600436
-0.00060898
0.000719539
-0.000747052
0.000853277
-0.000901121
0.00100146
-0.00107086
0.00116331
-0.0012554
0.00133747
-0.00145325
0.0015219
-0.00166234
0.00171403
-0.00188006
0.00191086
-0.00210347
0.00210922
-0.00232932
0.00230604
-0.00255538
0.00249765
-0.00277831
-0.00299229
0.00268769
1.86502e-07
1.01253e-05
1.16275e-06
2.60741e-05
3.38727e-06
3.8068e-05
7.35534e-06
4.56012e-05
1.36081e-05
4.81327e-05
2.27405e-05
4.50834e-05
3.54105e-05
3.58219e-05
5.23476e-05
1.96519e-05
7.436e-05
-4.19788e-06
0.00010234
-3.6579e-05
0.000137262
-7.84239e-05
0.000180179
-0.000130738
0.000232203
-0.000194583
0.000294476
-0.00027104
0.000368128
-0.000361172
0.000454211
-0.000465947
0.000553622
-0.000586168
0.000667006
-0.000722364
0.000794648
-0.000874694
0.000936362
-0.00104284
0.0010914
-0.0012259
0.00125839
-0.00142239
0.00143533
-0.00163019
0.00161962
-0.00184663
0.00180825
-0.00206868
0.00199795
-0.00229317
0.00218552
-0.00251689
0.00236795
-0.00273781
0.00254232
-0.00295268
-0.00316035
0.00271038
2.59271e-07
9.86603e-06
1.48894e-06
2.48445e-05
4.19142e-06
3.53655e-05
8.90994e-06
4.08827e-05
1.62383e-05
4.08044e-05
2.68295e-05
3.44923e-05
4.14039e-05
2.12474e-05
6.07576e-05
2.98141e-07
8.57672e-05
-2.92074e-05
0.000117391
-6.82024e-05
0.000156661
-0.000117695
0.000204674
-0.000178751
0.000262555
-0.000252464
0.000331424
-0.000339909
0.000412328
-0.000442076
0.000506168
-0.000559787
0.000613599
-0.000693599
0.000734927
-0.000843692
0.000869997
-0.00100976
0.0010181
-0.00119094
0.0011779
-0.0013857
0.00134742
-0.00159192
0.00152411
-0.00180688
0.00170498
-0.0020275
0.00188678
-0.00225048
0.00206626
-0.00247265
0.0022405
-0.00269113
0.00240696
-0.00290427
0.00256369
-0.0031094
-0.00330835
0.00271168
3.45362e-07
9.52067e-06
1.86779e-06
2.3322e-05
5.11461e-06
3.21187e-05
1.06783e-05
3.5319e-05
1.92069e-05
3.22758e-05
3.14121e-05
2.2287e-05
4.80774e-05
4.58213e-06
7.00637e-05
-2.16881e-05
9.8311e-05
-5.74548e-05
0.000133834
-0.000103726
0.000177711
-0.000161571
0.000231052
-0.000232093
0.000294969
-0.000316381
0.000370508
-0.000415448
0.000458579
-0.000530147
0.00055986
-0.000661068
0.000674692
-0.000808431
0.000802967
-0.000971967
0.000944028
-0.00115083
0.00109661
-0.00134351
0.0012588
-0.00154789
0.0014281
-0.00176122
0.00160157
-0.00198035
0.001776
-0.00220193
0.00194817
-0.00242265
0.00211514
-0.00263963
0.00227453
-0.00285052
0.00242453
-0.00305426
0.00256418
-0.00324906
-0.0034386
0.00269443
4.45518e-07
9.07515e-06
2.30201e-06
2.14655e-05
6.16238e-06
2.82583e-05
1.26693e-05
2.88121e-05
2.25255e-05
2.24196e-05
3.65018e-05
8.31072e-06
5.5443e-05
-1.43591e-05
8.02709e-05
-4.65161e-05
0.000111981
-8.91653e-05
0.000151633
-0.000143378
0.000200326
-0.000210263
0.00025916
-0.000290927
0.000329186
-0.000386407
0.000411329
-0.000497591
0.000506298
-0.000625115
0.000614478
-0.000769249
0.000735825
-0.000929778
0.00086976
-0.0011059
0.0010151
-0.00129616
0.00117001
-0.00149843
0.0013321
-0.00170997
0.00149847
-0.00192759
0.00166596
-0.00214785
0.00183139
-0.00236736
0.00199184
-0.0025831
0.0021449
-0.00279268
0.00228887
-0.00299449
0.00242279
-0.00318818
0.00254662
-0.00337289
-0.00355345
0.00266147
5.60289e-07
8.51486e-06
2.7935e-06
1.92323e-05
7.33841e-06
2.37134e-05
1.48881e-05
2.12624e-05
2.62e-05
1.11076e-05
4.21025e-05
-7.59176e-06
6.34984e-05
-3.5755e-05
9.13639e-05
-7.43815e-05
0.000126739
-0.000124541
0.000170709
-0.000187347
0.000224368
-0.000263922
0.000288771
-0.00035533
0.000364861
-0.000462497
0.000453384
-0.000586114
0.000554783
-0.000726514
0.000669088
-0.000883554
0.000795813
-0.0010565
0.000933874
-0.00124396
0.00108156
-0.00144385
0.00123656
-0.00165343
0.00139606
-0.00186948
0.00155697
-0.0020885
0.00171614
-0.00230701
0.00187064
-0.00252186
0.00201804
-0.0027305
0.0021566
-0.00293124
0.0022854
-0.0031233
0.00240429
-0.00330707
0.00251398
-0.00348258
-0.0036552
0.00261573
6.90043e-07
7.82482e-06
3.34338e-06
1.6579e-05
8.64447e-06
1.84123e-05
1.73364e-05
1.25705e-05
3.02299e-05
-1.78593e-06
4.82082e-05
-2.557e-05
7.22264e-05
-5.97732e-05
0.000103305
-0.00010546
0.000142514
-0.00016375
0.000190941
-0.000235774
0.000249645
-0.000322626
0.000319591
-0.000425275
0.000401565
-0.000544471
0.000496074
-0.000680624
0.000603236
-0.000833676
0.000722671
-0.00100299
0.000853417
-0.00118725
0.000993886
-0.00138443
0.00114188
-0.00159185
0.00129471
-0.00180625
0.00144933
-0.0020241
0.00160262
-0.00224179
0.00175164
-0.00245604
0.00189393
-0.00266415
0.00202769
-0.00286425
0.00215191
-0.00305546
0.00226642
-0.00323781
0.00237174
-0.00341239
0.00246911
-0.00357996
-0.00374601
0.00255993
8.34984e-07
6.98984e-06
3.95204e-06
1.34619e-05
1.00806e-05
1.22838e-05
2.00122e-05
2.63886e-06
3.46088e-05
-1.63825e-05
5.48031e-05
-4.57644e-05
8.1595e-05
-8.6565e-05
0.000116037
-0.000139902
0.000159207
-0.00020692
0.00021217
-0.000288737
0.000275911
-0.000386367
0.00035126
-0.000500625
0.000438794
-0.000632005
0.000538724
-0.000780554
0.00065079
-0.000945742
0.000774166
-0.00112636
0.000907408
-0.00132049
0.00104846
-0.00152548
0.00119473
-0.00173812