/*--------------------------------*- C++ -*----------------------------------*\
  =========                 |
  \\      /  F ield         | OpenFOAM: The Open Source CFD Toolbox
   \\    /   O peration     | Website:  https://openfoam.org
    \\  /    A nd           | Version:  7
     \\/     M anipulation  |
\*---------------------------------------------------------------------------*/
FoamFile
{
    version     2.0;
    format      ascii;
    class       surfaceScalarField;
    location    "8";
    object      phi;
}
// * * * * * * * * * * * * * * * * * * * * * * * * * * * * * * * * * * * * * //

dimensions      [0 3 -1 0 0 0 0];

internalField   nonuniform List<scalar> 
79480
(
-1.39557e-06
1.39532e-06
2.47794e-10
-5.31141e-06
3.91511e-06
7.26982e-10
-1.1614e-05
6.30141e-06
1.20422e-09
-2.01867e-05
8.57096e-06
1.6761e-09
-3.09258e-05
1.0737e-05
2.14054e-09
-4.37415e-05
1.28131e-05
2.59581e-09
-5.85574e-05
1.48129e-05
3.04065e-09
-7.53113e-05
1.67504e-05
3.47466e-09
-9.39555e-05
1.86403e-05
3.89822e-09
-0.000114458
2.0498e-05
4.31293e-09
-0.000136802
2.234e-05
4.72154e-09
-0.000160991
2.41836e-05
5.12784e-09
-0.000187044
2.60472e-05
5.5365e-09
-0.000215
2.79497e-05
5.95276e-09
-0.000244917
2.99107e-05
6.38181e-09
-0.000276873
3.195e-05
6.82861e-09
-0.000310968
3.40876e-05
7.29719e-09
-0.00034732
3.63438e-05
7.79043e-09
-0.000386068
3.87394e-05
8.30984e-09
-0.000427372
4.1296e-05
8.85533e-09
-0.000471419
4.4037e-05
9.42526e-09
-0.000518417
4.6988e-05
1.00165e-08
-0.000568606
5.01779e-05
1.06244e-08
-0.000622256
5.36396e-05
1.12432e-08
-0.000679679
5.74104e-05
1.18654e-08
-0.000741224
6.15323e-05
1.24829e-08
-0.000807285
6.60483e-05
1.30857e-08
-0.000878288
7.09895e-05
1.36626e-08
-0.000954703
7.64006e-05
1.42e-08
8.24368e-05
1.46818e-08
-0.00103715
-1.37321e-06
2.76853e-06
-5.2295e-06
7.7714e-06
-1.14399e-05
1.25119e-05
-1.98914e-05
1.70224e-05
-3.04832e-05
2.13288e-05
-4.31272e-05
2.54571e-05
-5.77481e-05
2.94338e-05
-7.42839e-05
3.32862e-05
-9.26862e-05
3.70426e-05
-0.000112921
4.07332e-05
-0.000134971
4.439e-05
-0.000158835
4.80468e-05
-0.000184527
5.17394e-05
-0.000212082
5.55047e-05
-0.000241552
5.93808e-05
-0.000273008
6.34062e-05
-0.00030654
6.76197e-05
-0.000342257
7.20607e-05
-0.000380287
7.67691e-05
-0.000420777
8.17866e-05
-0.000463898
8.71577e-05
-0.000509841
9.29313e-05
-0.000558826
9.91629e-05
-0.000611102
0.000105916
-0.000666953
0.000113261
-0.000726702
0.000121281
-0.000790713
0.000130059
-0.00085938
0.000139657
-0.000933137
0.000150157
0.000161861
-0.00101256
-1.32919e-06
4.09771e-06
-5.06815e-06
1.15104e-05
-1.10969e-05
1.85406e-05
-1.93093e-05
2.52349e-05
-2.961e-05
3.16295e-05
-4.19147e-05
3.77617e-05
-5.615e-05
4.36691e-05
-7.22543e-05
4.93905e-05
-9.0178e-05
5.49663e-05
-0.000109884
6.04397e-05
-0.000131351
6.58564e-05
-0.00015457
7.12654e-05
-0.000179548
7.67176e-05
-0.00020631
8.22664e-05
-0.000234895
8.79662e-05
-0.000265361
9.38721e-05
-0.000297781
0.000100039
-0.000332244
0.000106524
-0.000368856
0.000113381
-0.00040774
0.000120671
-0.000449035
0.000128453
-0.0004929
0.000136797
-0.000539516
0.000145778
-0.000589087
0.000155487
-0.000641848
0.000166022
-0.000698069
0.000177501
-0.000758055
0.000190045
-0.000822142
0.000203744
-0.000890692
0.000218707
0.000235367
-0.000964197
-1.26489e-06
5.3626e-06
-4.83223e-06
1.50777e-05
-1.05948e-05
2.43031e-05
-1.84565e-05
3.30966e-05
-2.83299e-05
4.15029e-05
-4.01357e-05
4.95675e-05
-5.38036e-05
5.7337e-05
-6.92724e-05
6.48593e-05
-8.64907e-05
7.21845e-05
-0.000105417
7.93664e-05
-0.000126023
8.64623e-05
-0.000148291
9.35331e-05
-0.000172216
0.000100643
-0.000197809
0.000107859
-0.000225091
0.000115248
-0.000254099
0.00012288
-0.000284882
0.000130823
-0.000317502
0.000139144
-0.000352033
0.000147913
-0.000388561
0.000157198
-0.000427183
0.000167074
-0.000468008
0.000177622
-0.000511161
0.000188932
-0.000556785
0.000201111
-0.000605044
0.000214281
-0.000656127
0.000228585
-0.000710261
0.000244179
-0.000767699
0.000261182
-0.000828705
0.000279714
0.000300318
-0.000893657
-1.18232e-06
6.54492e-06
-4.52879e-06
1.84242e-05
-9.94816e-06
2.97225e-05
-1.73571e-05
4.05055e-05
-2.66775e-05
5.08233e-05
-3.78369e-05
6.07269e-05
-5.07685e-05
7.02686e-05
-6.54116e-05
7.95024e-05
-8.17122e-05
8.84852e-05
-9.96241e-05
9.72783e-05
-0.000119109
0.000105947
-0.000140139
0.000114563
-0.000162693
0.000123198
-0.000186764
0.000131929
-0.000212351
0.000140835
-0.000239465
0.000149994
-0.000268124
0.000159482
-0.000298357
0.000169376
-0.000330195
0.000179751
-0.000363679
0.000190682
-0.000398853
0.000202248
-0.000435765
0.000214534
-0.000474469
0.000227637
-0.00051503
0.000241671
-0.000557521
0.000256772
-0.000602036
0.0002731
-0.000648699
0.000290842
-0.000697663
0.000310147
-0.000749086
0.000331136
0.000354436
-0.000803203
-1.08403e-06
7.62895e-06
-4.16685e-06
2.1507e-05
-9.17559e-06
3.47312e-05
-1.60414e-05
4.73714e-05
-2.46973e-05
5.94792e-05
-3.50781e-05
7.11078e-05
-4.71211e-05
8.23116e-05
-6.07662e-05
9.31474e-05
-7.59564e-05
0.000103675
-9.26389e-05
0.000113961
-0.000110766
0.000124074
-0.000130294
0.000134091
-0.000151187
0.000144091
-0.000173414
0.000154156
-0.00019695
0.000164371
-0.000221774
0.000174818
-0.00024787
0.000185579
-0.000275225
0.000196731
-0.000303825
0.000208351
-0.000333656
0.000220513
-0.0003647
0.000233292
-0.000396935
0.000246769
-0.000430336
0.000261038
-0.000464874
0.000276208
-0.00050052
0.000292418
-0.000537255
0.000309836
-0.000575086
0.000328672
-0.000614057
0.000349118
-0.00065421
0.000371289
0.000395861
-0.000695634
-9.7301e-07
8.60196e-06
-3.757e-06
2.4291e-05
-8.29901e-06
3.92732e-05
-1.45458e-05
5.36181e-05
-2.2442e-05
6.73754e-05
-3.19307e-05
8.05964e-05
-4.29531e-05
9.3334e-05
-5.54495e-05
0.000105644
-6.93595e-05
0.000117585
-8.46231e-05
0.000129224
-0.000101181
0.000140632
-0.000118975
0.000151885
-0.000137948
0.000163064
-0.000158047
0.000174255
-0.000179216
0.00018554
-0.000201403
0.000197005
-0.000224552
0.000208728
-0.000248605
0.000220784
-0.000273497
0.000233244
-0.000299156
0.000246172
-0.000325497
0.000259633
-0.000352422
0.000273694
-0.000379817
0.000288433
-0.000407553
0.000303945
-0.00043549
0.000320355
-0.000463486
0.000337831
-0.000491416
0.000356602
-0.000519211
0.000376913
-0.000546806
0.000398884
0.000423181
-0.000574127
-8.52579e-07
9.45454e-06
-3.3111e-06
2.67495e-05
-7.34297e-06
4.33051e-05
-1.29108e-05
5.9186e-05
-1.99713e-05
7.4436e-05
-2.84753e-05
8.91004e-05
-3.83682e-05
0.000103227
-4.95902e-05
0.000116866
-6.20771e-05
0.000130072
-7.57608e-05
0.000142908
-9.05699e-05
0.000155441
-0.00010643
0.000167745
-0.000123263
0.000179898
-0.00014099
0.000191981
-0.000159526
0.000204076
-0.000178782
0.000216261
-0.000198663
0.000228608
-0.000219061
0.000241183
-0.000239861
0.000254044
-0.000260929
0.000267239
-0.00028211
0.000280815
-0.000303229
0.000294813
-0.00032408
0.000309284
-0.000344432
0.000324296
-0.000364028
0.000339951
-0.000382594
0.000356398
-0.00039987
0.000373878
-0.000415669
0.000392712
-0.000429832
0.000413047
0.000435439
-0.000442089
-7.2627e-07
1.01808e-05
-2.84178e-06
2.8865e-05
-6.33383e-06
4.67972e-05
-1.11804e-05
6.40325e-05
-1.73496e-05
8.06051e-05
-2.47997e-05
9.65505e-05
-3.34795e-05
0.000111907
-4.3329e-05
0.000126715
-5.42795e-05
0.000141023
-6.62543e-05
0.000154883
-7.91695e-05
0.000168356
-9.29336e-05
0.000181509
-0.000107448
0.000194412
-0.000122606
0.000207139
-0.000138293
0.000219763
-0.000154383
0.000232351
-0.000170739
0.000244964
-0.000187209
0.000257653
-0.000203621
0.000270456
-0.000219782
0.0002834
-0.000235469
0.000296502
-0.000250429
0.000309772
-0.000264367
0.000323222
-0.000276952
0.000336881
-0.000287809
0.000350808
-0.000296535
0.000365124
-0.000302724
0.000380066
-0.000306068
0.000396056
-0.00030636
0.00041334
0.000432103
-0.000303025
-5.9769e-07
1.07785e-05
-2.36204e-06
3.06294e-05
-5.29879e-06
4.97339e-05
-9.39997e-06
6.81337e-05
-1.46439e-05
8.5849e-05
-2.09953e-05
0.000102902
-2.84058e-05
0.000119317
-3.68141e-05
0.000135124
-4.61466e-05
0.000150355
-5.63179e-05
0.000165054
-6.72311e-05
0.000179269
-7.87776e-05
0.000193055
-9.08373e-05
0.000206472
-0.000103278
0.00021958
-0.000115953
0.000232439
-0.000128703
0.000245101
-0.000141349
0.00025761
-0.000153694
0.000269997
-0.000165513
0.000282275
-0.000176556
0.000294443
-0.000186536
0.000306482
-0.000195125
0.000318361
-0.000201947
0.000330045
-0.000206574
0.000341508
-0.000208522
0.000352756
-0.000207262
0.000363864
-0.00020224
0.000375045
-0.000193004
0.00038682
-0.000179437
0.000399773
0.000413187
-0.000160521
-4.70403e-07
1.12489e-05
-1.8848e-06
3.20438e-05
-4.26506e-06
5.21142e-05
-7.61521e-06
7.14839e-05
-1.1922e-05
9.01559e-05
-1.71553e-05
0.000108135
-2.3268e-05
0.00012543
-3.0197e-05
0.000142053
-3.78631e-05
0.000158022
-4.6172e-05
0.000173363
-5.50136e-05
0.000188111
-6.42626e-05
0.000202304
-7.3778e-05
0.000215987
-8.34023e-05
0.000229204
-9.29601e-05
0.000241996
-0.000102257
0.000254398
-0.000111076
0.000266429
-0.000119175
0.000278096
-0.000126285
0.000289385
-0.000132099
0.000300257
-0.000136272
0.000310655
-0.00013841
0.000320499
-0.000138064
0.000329698
-0.000134719
0.000338163
-0.000127792
0.00034583
-0.000116638
0.00035271
-0.000100558
0.000358965
-7.8869e-05
0.000365131
-5.11886e-05
0.000372093
0.000381955
-1.99568e-05
-3.47807e-07
1.15967e-05
-1.42245e-06
3.31184e-05
-3.2589e-06
5.39506e-05
-5.87045e-06
7.40954e-05
-9.25008e-06
9.35355e-05
-1.33706e-05
0.000112256
-1.81852e-05
0.000130245
-2.36275e-05
0.000147495
-2.96124e-05
0.000164006
-3.6036e-05
0.000179787
-4.27755e-05
0.00019485
-4.96895e-05
0.000209218
-5.66166e-05
0.000222914
-6.33757e-05
0.000235963
-6.97637e-05
0.000248384
-7.55543e-05
0.000260188
-8.04951e-05
0.00027137
-8.43049e-05
0.000281906
-8.66692e-05
0.000291749
-8.72351e-05
0.000300823
-8.5605e-05
0.000309025
-8.1328e-05
0.000316222
-7.38912e-05
0.000322261
-6.27085e-05
0.00032698
-4.71116e-05
0.000330233
-2.63514e-05
0.00033195
3.74436e-07
0.000332239
3.39659e-05
0.000331539
7.49436e-05
0.000331115
0.0003343
0.000122599
-2.33024e-07
1.18297e-05
-9.86494e-07
3.38719e-05
-2.30475e-06
5.52689e-05
-4.20722e-06
7.59979e-05
-6.69031e-06
9.60186e-05
-9.7277e-06
0.000115293
-1.32708e-05
0.000133788
-1.72491e-05
0.000151473
-2.15705e-05
0.000168328
-2.61215e-05
0.000184338
-3.07668e-05
0.000199496
-3.53491e-05
0.000213801
-3.96886e-05
0.000227254
-4.35817e-05
0.000239856
-4.67999e-05
0.000251603
-4.90879e-05
0.000262476
-5.01612e-05
0.000272443
-4.97029e-05
0.000281448
-4.73598e-05
0.000289406
-4.27376e-05
0.000296201
-3.53938e-05
0.000301681
-2.483e-05
0.000305658
-1.04813e-05
0.000307913
8.29681e-06
0.000308202
3.22421e-05
0.000306288
6.21989e-05
0.000301993
9.91206e-05
0.000295317
0.000143944
0.000286716
0.000197342
0.000277717
0.000272095
0.000259546
-1.28806e-07
1.19585e-05
-5.87111e-07
3.43302e-05
-1.42448e-06
5.61063e-05
-2.66287e-06
7.72363e-05
-4.29904e-06
9.76548e-05
-6.30502e-06
0.000117299
-8.62855e-06
0.000136111
-1.11935e-05
0.000154038
-1.38999e-05
0.000171034
-1.66244e-05
0.000187062
-1.92191e-05
0.00020209
-2.15122e-05
0.000216094
-2.33059e-05
0.000229048
-2.43765e-05
0.000240927
-2.44722e-05
0.000251698
-2.33116e-05
0.000261315
-2.05813e-05
0.000269713
-1.59329e-05
0.0002768
-8.97958e-06
0.000282453
7.09233e-07
0.000286512
1.36137e-05
0.000288776
3.02721e-05
0.000289
5.12912e-05
0.000286894
7.73613e-05
0.000282132
0.000109275
0.000274374
0.000147949
0.000263319
0.000194441
0.000248825
0.000249887
0.00023127
0.00031526
0.000212344
0.000196524
0.000390831
-3.75539e-08
1.19961e-05
-2.32878e-07
3.45255e-05
-6.36604e-07
5.651e-05
-1.26926e-06
7.78689e-05
-2.12467e-06
9.85102e-05
-3.1705e-06
0.000118345
-4.34869e-06
0.000137289
-5.57582e-06
0.000155265
-6.74332e-06
0.000172202
-7.71713e-06
0.000188036
-8.3374e-06
0.000202711
-8.41771e-06
0.000216174
-7.74412e-06
0.000228374
-6.07396e-06
0.000239257
-3.13435e-06
0.000248759
1.37968e-06
0.000256801
7.80741e-06
0.000263285
1.65253e-05
0.000268082
2.79503e-05
0.000271028
4.25448e-05
0.000271917
6.08222e-05
0.000270499
8.33549e-05
0.000266467
0.000110785
0.000259463
0.000143841
0.000249076
0.000183358
0.000234857
0.000230311
0.000216366
0.000285853
0.000193283
0.000351308
0.000165815
0.000427964
0.000135688
0.000108096
0.000516392
3.93802e-08
1.19567e-05
6.95066e-08
3.44954e-05
4.42745e-08
5.65352e-05
-5.16622e-08
7.79649e-05
-2.05875e-07
9.86644e-05
-3.78789e-07
0.000118518
-5.04272e-07
0.000137415
-4.89985e-07
0.000155251
-2.17376e-07
0.000171929
4.58555e-07
0.00018736
1.71018e-06
0.000201459
3.73787e-06
0.000214146
6.77126e-06
0.000225341
1.10706e-05
0.000234958
1.69284e-05
0.000242901
2.46716e-05
0.000249058
3.46632e-05
0.000253294
4.7306e-05
0.000255439
6.30452e-05
0.000255288
8.23732e-05
0.000252589
0.000105835
0.000247037
0.000134037
0.000238266
0.000167655
0.000225845
0.000207454
0.000209277
0.000254308
0.000188003
0.000309241
0.000161433
0.000373485
0.000129039
0.000448537
9.07634e-05
0.000536014
4.82106e-05
7.0033e-06
0.000637106
1.0017e-07
1.18565e-05
3.15512e-07
3.428e-05
6.08154e-07
5.62426e-05
9.72201e-07
7.76008e-05
1.42991e-06
9.82067e-05
2.03096e-06
0.000117917
2.85188e-06
0.000136594
3.99577e-06
0.000154107
5.59247e-06
0.000170333
7.79907e-06
0.000185153
1.08008e-05
0.000198457
1.4812e-05
0.000210135
2.00781e-05
0.000220075
2.68763e-05
0.000228159
3.55186e-05
0.000234259
4.63531e-05
0.000238224
5.97667e-05
0.00023988
7.61885e-05
0.000239017
9.60929e-05
0.000235384
0.000120004
0.000228678
0.000148503
0.000218538
0.000182232
0.000204536
0.00022191
0.000186167
0.000268342
0.000162844
0.000322451
0.000133895
0.000385308
9.85758e-05
0.000458214
5.61339e-05
0.00054281
6.16751e-06
0.000641021
-5.0001e-05
-0.000106977
0.000755002
1.4467e-07
1.17119e-05
5.02787e-07
3.39219e-05
1.04975e-06
5.56956e-05
1.79296e-06
7.68576e-05
2.76787e-06
9.72318e-05
4.03715e-06
0.000116648
5.69018e-06
0.000134941
7.84285e-06
0.000151954
1.06379e-05
0.000167538
1.42457e-05
0.000181546
1.88653e-05
0.000193838
2.47263e-05
0.000204274
3.20901e-05
0.000212711
4.12522e-05
0.000218997
5.25447e-05
0.000222966
6.63384e-05
0.00022443
8.30463e-05
0.000223172
0.000103127
0.000218937
0.000127088
0.000211423
0.000155493
0.000200273
0.000188965
0.000185067
0.000228196
0.000165305
0.00027396
0.000140404
0.000327121
0.000109683
0.000388663
7.23524e-05
0.000459721
2.7518e-05
0.000541655
-2.58001e-05
0.000636222
-8.83993e-05
0.000745565
-0.000159344
-0.000234528
0.000873115
1.72826e-07
1.1539e-05
6.3146e-07
3.34633e-05
1.36904e-06
5.4958e-05
2.41008e-06
7.58165e-05
3.80656e-06
9.58353e-05
5.63704e-06
0.000114817
8.00622e-06
0.000132572
1.1045e-05
0.000148916
1.49109e-05
0.000163672
1.97894e-05
0.000176667
2.58954e-05
0.000187732
3.3475e-05
0.000196694
4.2808e-05
0.000203378
5.42103e-05
0.000207595
6.8037e-05
0.000209139
8.46857e-05
0.000207781
0.0001046
0.000203257
0.000128275
0.000195261
0.000156261
0.000183437
0.00018917
0.000167365
0.000227683
0.000146554
0.000272559
0.000120429
0.000324645
8.83176e-05
0.000384892
4.94365e-05
0.000454366
2.87824e-06
0.000534285
-5.24017e-05
0.000626071
-0.000117586
0.000731552
-0.00019388
0.000852936
-0.000280728
-0.000376729
0.000995137
1.8535e-07
1.13537e-05
7.0406e-07
3.29446e-05
1.57124e-06
5.40909e-05
2.83216e-06
7.45556e-05
4.55852e-06
9.41089e-05
6.84761e-06
0.000112528
9.8221e-06
0.000129597
1.36303e-05
0.000145107
1.8447e-05
0.000158855
2.44753e-05
0.000170639
3.19482e-05
0.000180259
4.11317e-05
0.000187511
5.23273e-05
0.000192182
6.58755e-05
0.000194047
8.21598e-05
0.000192855
0.000101611
0.00018833
0.000124713
0.000180156
0.000152005
0.000167969
0.000184094
0.000151348
0.000221657
0.000129802
0.000265452
0.000102759
0.000316324
6.9556e-05
0.000375223
2.94194e-05
0.000443203
-1.85443e-05
0.000521448
-7.53665e-05
0.000611272
-0.000142226
0.000714154
-0.000220468
0.00083194
-0.000311665
0.000966699
-0.000415487
-0.000534865
0.00112484
1.83594e-07
1.11701e-05
7.2553e-07
3.24026e-05
1.66682e-06
5.31496e-05
3.07689e-06
7.31456e-05
5.05022e-06
9.21356e-05
7.70573e-06
0.000109872
1.11868e-05
0.000126116
1.56619e-05
0.000140632
2.13262e-05
0.000153191
2.84035e-05
0.000163562
3.71489e-05
0.000171513
4.78523e-05
0.000176807
6.08422e-05
0.000179192
7.64903e-05
0.000178399
9.52162e-05
0.000174129
0.000117494
0.000166053
0.000143856
0.000153793
0.000174906
0.000136919
0.000211319
0.000114934
0.000253858
8.7263e-05
0.000303376
5.32407e-05
0.000360833
1.20994e-05
0.000427296
-3.70439e-05
0.000503952
-9.52003e-05
0.000592107
-0.000163521
0.000693181
-0.0002433
0.000808692
-0.000335979
0.000940423
-0.000443396
0.00109008
-0.000565147
-0.000710093
0.00126531
1.69529e-07
1.10006e-05
7.03112e-07
3.1869e-05
1.67124e-06
5.21814e-05
3.17064e-06
7.16462e-05
5.32154e-06
8.99847e-05
8.26737e-06
0.000106927
1.21752e-05
0.000122208
1.72372e-05
0.00013557
2.36721e-05
0.000146756
3.17287e-05
0.000155505
4.16892e-05
0.000161553
5.38735e-05
0.000164623
6.86441e-05
0.000164422
8.64124e-05
0.00016063
0.000107644
0.000152897
0.000132869
0.000140828
0.000162685
0.000123977
0.00019777
0.000101834
0.000238893
7.38119e-05
0.000286917
3.92388e-05
0.000342815
-2.65716e-06
0.000407673
-5.27587e-05
0.000482694
-0.000112066
0.000569199
-0.000181704
0.000668607
-0.000262929
0.00078242
-0.000357112
0.000912146
-0.000465705
0.00105939
-0.000590638
0.00122532
-0.000731074
-0.000903
0.00141822
1.45683e-07
1.08549e-05
6.46138e-07
3.13686e-05
1.6045e-06
5.12231e-05
3.14768e-06
7.0103e-05
5.42456e-06
8.77078e-05
8.60607e-06
0.000103745
1.28864e-05
0.000117928
1.84846e-05
0.000129972
2.56481e-05
0.000139592
3.46557e-05
0.000146497
4.58228e-05
0.000150386
5.95067e-05
0.000150939
7.61132e-05
0.000147815
9.61035e-05
0.00014064
0.000120003
0.000128998
0.000148409
0.000112422
0.000182002
9.03841e-05
0.000221555
6.22812e-05
0.000267941
2.74256e-05
0.000322146
-1.49661e-05
0.000385272
-6.57828e-05
0.000458538
-0.000126025
0.00054328
-0.000196807
0.000640927
-0.000279351
0.000752973
-0.000374976
0.000880926
-0.000485065
0.0010262
-0.000610985
0.00119006
-0.00075449
0.00137304
-0.00091406
-0.00111314
0.00158319
1.15061e-07
1.07398e-05
5.65713e-07
3.09179e-05
1.49045e-06
5.02984e-05
3.04904e-06
6.85444e-05
5.42178e-06
8.53351e-05
8.81032e-06
0.000100357
1.34394e-05
0.000113299
1.95599e-05
0.000123852
2.74524e-05
0.0001317
3.74322e-05
0.000136517
4.98556e-05
0.000137962
6.51261e-05
0.000135669
8.3703e-05
0.000129238
0.00010611
0.000118233
0.000132945
0.000102163
0.000164889
8.04777e-05
0.00020272
5.25532e-05
0.000247319
1.76825e-05
0.00029968
-2.49352e-05
0.000360916
-7.62022e-05
0.000432259
-0.000137126
0.000515051
-0.000208817
0.000610724
-0.000292481
0.000720766
-0.000389393
0.000846658
-0.000500868
0.000989795
-0.000628203
0.00115138
-0.000772572
0.00133209
-0.000935197
0.00153196
-0.00111393
-0.00133865
0.00175747
8.10344e-08
1.06588e-05
4.74292e-07
3.05247e-05
1.35587e-06
4.94168e-05
2.92082e-06
6.69794e-05
5.38366e-06
8.28722e-05
8.98001e-06
9.67602e-05
1.39694e-05
0.00010831
2.0639e-05
0.000117182
2.93089e-05
0.00012303
4.03381e-05
0.000125488
5.4132e-05
0.000124169
7.11507e-05
0.00011865
9.19183e-05
0.000108471
0.000117033
9.31179e-05
0.00014718
7.20167e-05
0.000183137
4.45204e-05
0.000225791
9.89938e-06
0.000276141
-3.26677e-05
0.000335306
-8.41001e-05
0.000404521
-0.000145417
0.000485128
-0.000217733
0.000578553
-0.000302242
0.000686266
-0.000400193
0.000809716
-0.000512843
0.00095025
-0.000641401
0.00110899
-0.000786941
0.00128676
-0.000950343
0.00148342
-0.00113186
0.00169876
-0.00132927
-0.00157598
0.00193608
4.71979e-08
1.06116e-05
3.85153e-07
3.01867e-05
1.22935e-06
4.85726e-05
2.8123e-06
6.53965e-05
5.38552e-06
8.0299e-05
9.22215e-06
9.29236e-05
1.46208e-05
0.000102911
2.19105e-05
0.000109892
3.14574e-05
0.000113483
4.36721e-05
0.000113274
5.90183e-05
0.000108822
7.80228e-05
9.96455e-05
0.000101286
8.52074e-05
0.000129494
6.49101e-05
0.000163428
3.80832e-05
0.000203974
3.97384e-06
0.000252135
-3.82612e-05
0.000309028
-8.95604e-05
0.000375885
-0.000150957
0.000454041
-0.000223573
0.000544905
-0.000308598
0.000649921
-0.000407258
0.000770499
-0.000520771
0.000907928
-0.000650272
0.00106326
-0.000796735
0.00123717
-0.000960848
0.00142991
-0.00114308
0.00164037
-0.00134232
0.00186842
-0.00155731
-0.00181986
0.0021123
1.72043e-08
1.05944e-05
3.11796e-07
2.98921e-05
1.13997e-06
4.77444e-05
2.77369e-06
6.37628e-05
5.50423e-06
7.75685e-05
9.6459e-06
8.87819e-05
1.55411e-05
9.70157e-05
2.35666e-05
0.000101867
3.41415e-05
0.000102908
4.77361e-05
9.9679e-05
6.48818e-05
9.16767e-05
8.61822e-05
7.83451e-05
0.000112325
5.90649e-05
0.000144091
3.31437e-05
0.000182368
-1.93382e-07
0.000228153
-4.18118e-05
0.000282561
-9.2669e-05
0.000346815
-0.000153814
0.000422234
-0.000226377
0.000510207
-0.000311546
0.000612142
-0.000410533
0.000729405
-0.000524521
0.000863225
-0.00065459
0.00101458
-0.000801628
0.00118407
-0.000966221
0.00137173
-0.00114851
0.00157705
-0.0013484
0.00179798
-0.00156326
0.00203465
-0.00179398
-0.00206361
0.0022784
-5.41303e-09
1.05998e-05
2.67307e-07
2.96194e-05
1.11596e-06
4.68957e-05
2.85374e-06
6.2025e-05
5.81446e-06
7.46078e-05
1.03573e-05
8.42391e-05
1.68734e-05
9.04997e-05
2.57931e-05
9.2947e-05
3.75957e-05
9.11054e-05
5.28189e-05
8.44557e-05
7.20705e-05
7.2425e-05
9.60396e-05
5.4376e-05
0.000125508
2.95968e-05
0.000161359
-2.70723e-06
0.000204586
-4.34206e-05
0.000256294
-9.35196e-05
0.000317693
-0.000154068
0.000390084
-0.000226206
0.000474829
-0.000311121
0.0005733
-0.000410017
0.000686815
-0.000524048
0.000816544
-0.000654249
0.000963393
-0.00080144
0.00112788
-0.000966113
0.00130998
-0.00114832
0.00150899
-0.00134752
0.00172345
-0.00156286
0.00195063
-0.00179044
0.00219048
-0.00203384
-0.00229956
0.00242644
-1.74201e-08
1.06172e-05
2.63727e-07
2.93383e-05
1.18335e-06
4.59761e-05
3.09753e-06
6.01108e-05
6.38527e-06
7.132e-05
1.14545e-05
7.91698e-05
1.87496e-05
8.32045e-05
2.87607e-05
8.29359e-05
4.20335e-05
7.78326e-05
5.91807e-05
6.73085e-05
8.08933e-05
5.07124e-05
0.000107952
2.73175e-05
0.000141236
-3.68731e-06
0.000181731
-4.32027e-05
0.000230531
-9.22206e-05
0.000288831
-0.000151819
0.000357909
-0.000223146
0.000439098
-0.000307395
0.000533735
-0.000405759
0.000643092
-0.000519374
0.000768283
-0.000649239
0.000910152
-0.000796118
0.00106914
-0.000960429
0.00124516
-0.00114213
0.00143746
-0.00134062
0.00164454
-0.00155461
0.00186397
-0.00178229
0.00209281
-0.00201927
0.00232923
-0.00227025
-0.00251934
0.00254901
-1.60911e-08
1.06333e-05
3.1149e-07
2.90107e-05
1.36483e-06
4.49228e-05
3.54439e-06
5.79312e-05
7.27695e-06
6.75875e-05
1.30227e-05
7.34241e-05
2.12842e-05
7.49431e-05
3.26161e-05
7.1604e-05
4.76368e-05
6.28119e-05
6.70392e-05
4.79061e-05
9.16022e-05
2.61494e-05
0.0001222
-3.28068e-06
0.00015981
-4.12971e-05
0.000205511
-8.8904e-05
0.000260481
-0.000147191
0.000325977
-0.000217314
0.000403302
-0.000300471
0.00049376
-0.000397853
0.000598582
-0.000510581
0.000718835
-0.000639627
0.000855308
-0.000785712
0.00100839
-0.000949197
0.00117793
-0.00112997
0.00136312
-0.00132733
0.00156244
-0.00153993
0.00177361
-0.00176578
0.00199347
-0.00200215
0.00221931
-0.00224511
0.00244555
-0.0024965
-0.00271678
0.00264299
1.23266e-09
1.06321e-05
4.19082e-07
2.85928e-05
1.67879e-06
4.36631e-05
4.22636e-06
5.53837e-05
8.53863e-06
6.32752e-05
1.51314e-05
6.68313e-05
2.45693e-05
6.55052e-05
3.74763e-05
5.8697e-05
5.45474e-05
4.57409e-05
7.65593e-05
2.58942e-05
0.00010438
-1.67166e-06
0.000138977
-3.7877e-05
0.000181414
-8.37342e-05
0.00023285
-0.000140341
0.000294521
-0.000208861
0.000367702
-0.000290496
0.000453669
-0.000386438
0.000553617
-0.000497801
0.000668576
-0.000625541
0.000799298
-0.000770349
0.000946131
-0.000932544
0.00110889
-0.00111195
0.00128673
-0.00130781
0.00147811
-0.00151871
0.00168071
-0.00174254
0.00189158
-0.00197665
0.00210711
-0.00221768
0.00232471
-0.00246271
0.0025376
-0.00270939
-0.00294002
0.00276084
3.52397e-08
1.05968e-05
5.9248e-07
2.80356e-05
2.13884e-06
4.21167e-05
5.16726e-06
5.23552e-05
1.02068e-05
5.82356e-05
1.78319e-05
5.92062e-05
2.86722e-05
5.46649e-05
4.34243e-05
4.39449e-05
6.28623e-05
2.63029e-05
8.78474e-05
9.09111e-07
0.000119335
-3.31588e-05
0.000158374
-7.69165e-05
0.000206105
-0.000131466
0.000263741
-0.000197977
0.000332536
-0.000277655
0.000413736
-0.000371696
0.000508513
-0.000481215
0.000617872
-0.00060716
0.000742541
-0.00075021
0.000882848
-0.000910657
0.00103859
-0.00108829
0.00120894
-0.0012823
0.00139232
-0.0014912
0.00158645
-0.00171284
0.00178836
-0.00194445
0.00199457
-0.00218286
0.00220137
-0.00242448
0.00240543
-0.00266677
0.00260195
-0.0029059
-0.00313626
0.00279819
8.76694e-08
1.05092e-05
8.35658e-07
2.72876e-05
2.75365e-06
4.01987e-05
6.38242e-06
4.87265e-05
1.2305e-05
5.2313e-05
2.11564e-05
5.03549e-05
3.36339e-05
4.21874e-05
5.05082e-05
2.70706e-05
7.26324e-05
4.17865e-06
0.000100949
-2.74079e-05
0.000136494
-6.87031e-05
0.000180386
-0.000120809
0.000233818
-0.000184898
0.000298022
-0.00026218
0.000374224
-0.000353858
0.000463578
-0.00046105
0.000567075
-0.000584711
0.000685436
-0.000725521
0.00081899
-0.000883764
0.000967548
-0.00105921
0.00113029
-0.00125103
0.00130569
-0.00145769
0.00149148
-0.00167699
0.00168476
-0.00190611
0.00188208
-0.00214176
0.00207972
-0.00238051
0.00227405
-0.00261881
0.00246172
-0.00285444
0.00263946
-0.00308364
-0.00330619
0.00280938
1.58548e-07
1.03506e-05
1.15022e-06
2.62959e-05
3.52725e-06
3.78217e-05
7.87911e-06
4.43746e-05
1.48441e-05
4.5348e-05
2.51193e-05
4.00797e-05
3.94706e-05
2.78361e-05
5.87421e-05
7.79916e-06
8.38636e-05
-2.09428e-05
0.000115853
-5.93973e-05
0.000155812
-0.000108662
0.000204912
-0.000169909
0.000264367
-0.000244352
0.000335385
-0.000333199
0.00041911
-0.000437582
0.000516529
-0.000558469
0.000628371
-0.000696554
0.000754985
-0.000852135
0.000896213
-0.00102499
0.00105128
-0.00121428
0.00121872
-0.00141847
0.00139633
-0.00163531
0.00158128
-0.00186194
0.00177019
-0.00209502
0.00195941
-0.00233099
0.00214531
-0.00256641
0.00232462
-0.00279811
0.00249455
-0.00302437
0.00265292
-0.00324201
-0.00345438
0.00280112
2.47731e-07
1.01029e-05
1.53596e-06
2.50077e-05
4.45963e-06
3.4898e-05
9.65756e-06
3.91767e-05
1.78242e-05
3.71814e-05
2.97189e-05
2.81849e-05
4.61756e-05
1.13795e-05
6.81096e-05
-1.41348e-05
9.65213e-05
-4.93545e-05
0.000132493
-9.53691e-05
0.000177176
-0.000153346
0.000231767
-0.000224499
0.000297461
-0.000310046
0.000375396
-0.000411134
0.000466567
-0.000528753
0.000571721
-0.000663623
0.000691242
-0.000816075
0.000825027
-0.000985919
0.000972368
-0.00117233
0.00113188
-0.00137379
0.00130145
-0.00158804
0.00147833
-0.00181219
0.00165925
-0.00204285
0.00184062
-0.0022764
0.00201889
-0.00250926
0.00219079
-0.00273831
0.00235369
-0.00296101
0.00250564
-0.00317631
0.00264564
-0.003382
-0.0035835
0.00277475
3.547e-07
9.7482e-06
1.99128e-06
2.33711e-05
5.54765e-06
3.13417e-05
1.17123e-05
3.3012e-05
2.1236e-05
2.76578e-05
3.49398e-05
1.4481e-05
5.37234e-05
-7.40405e-06
7.85681e-05
-3.89795e-05
0.000110536
-8.13223e-05
0.000150758
-0.000135592
0.000200414
-0.000203001
0.000260688
-0.000284774
0.000332719
-0.000382076
0.000417511
-0.000495927
0.000515846
-0.000627087
0.000628154
-0.000775932
0.000754403
-0.000942324
0.000893974
-0.00112549
0.00104558
-0.00132394
0.00120723
-0.00153544
0.00137628
-0.00175709
0.00154955
-0.00198546
0.00172355
-0.00221686
0.00189478
-0.00244762
0.00206002
-0.00267449
0.00221662
-0.00289492
0.00236277
-0.00310717
0.00249745
-0.00331099
0.00262066
-0.00350522
-0.00369643
0.00273359
4.78719e-07
9.26948e-06
2.51368e-06
2.13362e-05
6.78598e-06
2.70694e-05
1.40339e-05
2.57641e-05
2.50636e-05
1.6628e-05
4.07564e-05
-1.21172e-06
6.20729e-05
-2.87206e-05
9.00533e-05
-6.69599e-05
0.000125808
-0.000117077
0.000170498
-0.000180282
0.0002253
-0.000257803
0.000291352
-0.000350826
0.000369679
-0.000460403
0.000461097
-0.000587345
0.000566101
-0.00073209
0.000684739
-0.00089457
0.0008165
-0.00107409
0.00096022
-0.00126921
0.00111404
-0.00147776
0.00127543
-0.00169684
0.00144134
-0.001923
0.00160837
-0.00215249
0.00177306
-0.00238154
0.00193221
-0.00260678
0.00208318
-0.00282547
0.0022241
-0.00303584
0.00235401
-0.00323707
0.00247275
-0.00342973
0.00258115
-0.00361362
-0.00379579
0.00268051
6.18983e-07
8.6505e-06
3.10019e-06
1.8855e-05
8.16804e-06
2.20015e-05
1.66101e-05
1.7322e-05
2.92865e-05
3.95163e-06
4.7135e-05
-1.90602e-05
7.11714e-05
-5.27571e-05
0.000102484
-9.8272e-05
0.000142214
-0.000156807
0.000191529
-0.000229596
0.000251569
-0.000317843
0.000323378
-0.000422636
0.000407817
-0.000544843
0.000505448
-0.000684976
0.000616417
-0.000843058
0.000740331
-0.00101848
0.000876166
-0.00120992
0.00102221
-0.00141526
0.00117609
-0.00163164
0.00133487
-0.00185561
0.00149523
-0.00208337
0.00165379
-0.00231104
0.00180735
-0.0025351
0.00195322
-0.00275265
0.00208949
-0.00296173
0.00221508
-0.00316143
0.00232986
-0.00335185
0.00243439
-0.00353426
0.00253005
-0.00370928
-0.00388395
0.00261821
7.74733e-07
7.87576e-06
3.74781e-06
1.58819e-05
9.68673e-06
1.60626e-05
1.94272e-05
7.58159e-06
3.38807e-05
-1.05019e-05
5.40364e-05
-3.92159e-05
8.09566e-05
-7.96773e-05
0.000115763
-0.000133078
0.000159609
-0.000200654
0.000213637
-0.000283625
0.000278913
-0.000383119
0.00035634
-0.000500063
0.000446555
-0.000635057
0.000549806
-0.000788228
0.000665836
-0.000959088
0.000793774
-0.00114642
0.000932076
-0.00134822
0.00107853
-0.00156171
0.00123033
-0.00178344
0.00138429
-0.00200957
0.00153704
-0.00223612
0.00168541
-0.00245941
0.00182666
-0.00267635
0.00195876
-0.00288476
0.00208056
-0.00308353
0.00219176
-0.00327263
0.00229289
-0.00345298
0.00238506
-0.00362642
0.00246995
-0.00379417
-0.00396292
0.00254892
9.4532e-07
6.93044e-06
4.45366e-06
1.23735e-05
1.13349e-05
9.18139e-06
2.24707e-05
-3.55426e-06
3.88202e-05
-2.68514e-05
6.1417e-05
-6.18127e-05
9.13583e-05
-0.000109619
0.000129783
-0.000171503
0.00017783
-0.000248701
0.000236585
-0.000342379
0.000306995
-0.000453528
0.000389771
-0.00058284
0.000485272
-0.000730558
0.000593379
-0.000896335
0.000713391
-0.0010791
0.000843946
-0.00127698
0.000983009
-0.00148729
0.00112794
-0.00170664
0.00127565
-0.00193115
0.00142286
-0.00215678
0.00156637
-0.00237963
0.00170339
-0.00259643
0.00183177
-0.00280474
0.00195023
-0.00300321
0.00205831
-0.00319161
0.0021564
-0.00337073
0.00224554