/*--------------------------------*- C++ -*----------------------------------*\
  =========                 |
  \\      /  F ield         | OpenFOAM: The Open Source CFD Toolbox
   \\    /   O peration     | Website:  https://openfoam.org
    \\  /    A nd           | Version:  7
     \\/     M anipulation  |
\*---------------------------------------------------------------------------*/
FoamFile
{
    version     2.0;
    format      ascii;
    class       volVectorField;
    location    "8";
    object      U;
}
// * * * * * * * * * * * * * * * * * * * * * * * * * * * * * * * * * * * * * //

dimensions      [0 1 -1 0 0 0 0];

internalField   nonuniform List<vector> 
40000
(
(-0.000337375 0.00054372 -2.44995e-21)
(-0.00207126 0.00145367 7.60269e-21)
(-0.00573456 0.00221936 -4.85586e-21)
(-0.0108602 0.00286216 -6.97413e-24)
(-0.0171978 0.00339803 -1.6304e-24)
(-0.0245906 0.00384055 5.43828e-24)
(-0.0328859 0.00420221 -8.09826e-21)
(-0.0419434 0.00449442 1.92639e-21)
(-0.0516412 0.00472751 -5.50778e-21)
(-0.0618744 0.00491095 -1.74416e-21)
(-0.0725531 0.00505338 0)
(-0.0836022 0.00516263 -6.30935e-21)
(-0.0949606 0.00524582 0)
(-0.106579 0.00530925 0)
(-0.118422 0.00535848 -5.39212e-21)
(-0.130462 0.00539835 5.11297e-21)
(-0.142682 0.00543296 -2.42941e-21)
(-0.155074 0.00546582 -1.31132e-23)
(-0.167635 0.00549988 2.16903e-21)
(-0.18037 0.00553772 0)
(-0.193288 0.00558167 -1.95958e-21)
(-0.206405 0.00563394 -5.55604e-21)
(-0.219742 0.00569675 7.00718e-21)
(-0.233326 0.00577236 -3.33337e-21)
(-0.247188 0.00586312 9.41535e-21)
(-0.261368 0.00597136 5.95684e-21)
(-0.275912 0.00609877 -1.12902e-20)
(-0.29086 0.00624493 1.07023e-20)
(-0.30625 0.0064111 -2.55366e-21)
(-0.322219 0.00661081 -4.82437e-21)
(-0.000388618 0.00162183 0)
(-0.00219156 0.00433778 5.07628e-21)
(-0.00588262 0.00662494 9.73485e-21)
(-0.0110052 0.0085465 -9.29042e-21)
(-0.0173152 0.0101496 -4.46059e-21)
(-0.0246597 0.0114745 1.69818e-20)
(-0.0328891 0.0125581 -4.06144e-21)
(-0.0418657 0.0134343 -7.74181e-21)
(-0.0514697 0.0141337 -1.80283e-23)
(-0.0615971 0.0146845 -2.09839e-20)
(-0.072159 0.0151124 6.63378e-21)
(-0.0830804 0.0154407 2.52574e-20)
(-0.0942999 0.0156906 -1.19835e-20)
(-0.105768 0.0158809 -2.24122e-23)
(-0.117448 0.0160283 -5.42206e-21)
(-0.12931 0.0161471 -1.08739e-23)
(-0.141338 0.0162496 0)
(-0.153519 0.0163464 0)
(-0.16585 0.0164463 1.74179e-20)
(-0.178332 0.0165569 0)
(-0.190972 0.0166852 7.84101e-21)
(-0.203784 0.0168378 -7.40162e-21)
(-0.216783 0.0170213 -2.79227e-23)
(-0.229993 0.0172426 0)
(-0.243442 0.0175086 1.26122e-20)
(-0.257165 0.0178266 -1.18838e-20)
(-0.271206 0.0182018 1.12901e-20)
(-0.285598 0.0186332 -1.07022e-20)
(-0.30036 0.0191248 1.02172e-20)
(-0.315644 0.0197162 -2.89599e-20)
(-0.000489413 0.00267114 -9.8335e-21)
(-0.0024284 0.00714966 -1.01421e-20)
(-0.0061744 0.0109269 0)
(-0.0112914 0.0141049 0)
(-0.0175471 0.0167602 0)
(-0.0247963 0.0189578 8.52095e-21)
(-0.0328957 0.020758 0)
(-0.0417127 0.0222156 7.72278e-21)
(-0.051131 0.0233807 1.47029e-20)
(-0.0610492 0.0242993 1.39849e-20)
(-0.0713797 0.0250135 0)
(-0.082048 0.0255617 1.33947e-23)
(-0.0929922 0.0259786 -2.40006e-20)
(-0.104162 0.0262953 2.27747e-20)
(-0.115518 0.0265393 1.07907e-20)
(-0.127029 0.0267342 1.02608e-20)
(-0.138674 0.0269005 -9.67811e-21)
(-0.150439 0.0270554 1.83999e-20)
(-0.162314 0.0272136 -3.48509e-20)
(-0.174296 0.0273878 4.80876e-23)
(-0.186388 0.0275895 -3.12214e-20)
(-0.198595 0.0278295 2.96304e-20)
(-0.210928 0.0281188 0)
(-0.223402 0.0284688 0)
(-0.236036 0.0288915 1.25974e-20)
(-0.24886 0.0293989 0)
(-0.26191 0.0300006 0)
(-0.275211 0.0306963 0)
(-0.288743 0.0314933 -2.03143e-20)
(-0.302681 0.032454 1.93031e-20)
(-0.00063645 0.0036735 9.8335e-21)
(-0.00277447 0.00984364 9.0252e-24)
(-0.00660138 0.0150593 6.31973e-23)
(-0.0117109 0.0194573 -1.86335e-20)
(-0.0178877 0.0231396 -1.78167e-20)
(-0.0249976 0.0261939 3.28061e-23)
(-0.0329065 0.0287011 -3.24828e-20)
(-0.0414891 0.0307355 1.54893e-20)
(-0.0506341 0.0323649 -2.94862e-20)
(-0.060244 0.0336518 2.80437e-20)
(-0.0702329 0.0346536 -1.33354e-20)
(-0.0805273 0.0354228 2.53049e-20)
(-0.0910647 0.0360071 2.40004e-20)
(-0.101793 0.0364494 3.08387e-23)
(-0.11267 0.0367873 -2.16308e-20)
(-0.123662 0.0370537 0)
(-0.134743 0.0372769 -3.80407e-23)
(-0.145892 0.0374806 1.84216e-20)
(-0.157096 0.0376853 4.34999e-23)
(-0.168343 0.0379083 -6.44018e-23)
(-0.179628 0.0381655 3.12363e-20)
(-0.190947 0.038472 -2.963e-20)
(-0.202302 0.0388428 0)
(-0.213697 0.0392941 2.6604e-20)
(-0.225141 0.0398428 1.34023e-22)
(-0.23665 0.0405067 -7.15986e-20)
(-0.248256 0.0413003 2.24867e-20)
(-0.259969 0.0422264 4.28813e-20)
(-0.271716 0.0432969 2.03138e-20)
(-0.283695 0.0445926 1.9476e-20)
(-0.000824967 0.00461235 3.95708e-20)
(-0.0032192 0.0123777 -2.04047e-20)
(-0.00715126 0.0189614 1.95138e-20)
(-0.0122523 0.0245286 1.86853e-20)
(-0.0183287 0.029203 0)
(-0.0252596 0.0330911 -3.41752e-20)
(-0.0329227 0.0362917 -1.63275e-20)
(-0.0412016 0.0388957 -3.10091e-20)
(-0.049992 0.0409866 1.47476e-20)
(-0.0592007 0.0426416 5.27303e-23)
(-0.0687447 0.0439321 2.67016e-20)
(-0.0785512 0.0449236 2.54221e-20)
(-0.0885574 0.0456756 -4.81072e-20)
(-0.0987093 0.046242 2.28174e-20)
(-0.108961 0.0466703 -3.45218e-23)
(-0.119275 0.0470021 0)
(-0.12962 0.047273 -1.94398e-20)
(-0.139967 0.0475131 -3.68959e-20)
(-0.150296 0.0477483 5.24723e-20)
(-0.160588 0.0480005 1.66194e-20)
(-0.170825 0.0482896 0)
(-0.180995 0.0486345 -2.96951e-20)
(-0.191086 0.0490543 0)
(-0.20109 0.0495698 -7.99723e-20)
(-0.211001 0.0502031 5.0424e-20)
(-0.220822 0.0509786 1.10902e-22)
(-0.230574 0.0519174 4.52753e-20)
(-0.240257 0.0530282 -6.44556e-20)
(-0.24973 0.0543304 4.04125e-20)
(-0.259206 0.055919 1.91936e-20)
(-0.00104898 0.00547321 -1.98211e-20)
(-0.00374928 0.0147149 2.04122e-20)
(-0.00780853 0.0225787 -7.76923e-24)
(-0.0129015 0.0292515 -5.63033e-20)
(-0.0188594 0.0348734 0)
(-0.0255771 0.0395654 3.4175e-20)
(-0.0329456 0.0434407 -3.27386e-20)
(-0.0408592 0.0466039 6.20816e-20)
(-0.0492214 0.0491515 0)
(-0.0579444 0.0511734 -2.8096e-20)
(-0.0669484 0.052753 -2.67014e-20)
(-0.0761621 0.0539674 -2.53606e-20)
(-0.0855219 0.054887 -7.23815e-20)
(-0.0949718 0.0555756 -2.16203e-23)
(-0.104463 0.0560898 -6.5277e-23)
(-0.113952 0.0564794 -9.48585e-23)
(-0.1234 0.0567868 5.84376e-20)
(-0.132775 0.0570485 -5.87007e-23)
(-0.142044 0.057295 5.28874e-23)
(-0.151179 0.0575527 -3.31939e-20)
(-0.160152 0.0578451 -1.30532e-22)
(-0.168938 0.0581945 5.95228e-20)
(-0.177512 0.058624 -8.43284e-20)
(-0.185849 0.0591583 2.66304e-20)
(-0.193929 0.0598255 0)
(-0.201736 0.060657 0)
(-0.209283 0.0616831 -4.52738e-20)
(-0.216561 0.0629223 4.29355e-20)
(-0.223353 0.0644065 -4.0672e-20)
(-0.229858 0.0662422 0)
(-0.00130156 0.00624412 -1.99383e-20)
(-0.00434927 0.0168239 0)
(-0.00855515 0.0258649 1.96359e-20)
(-0.0136419 0.0335675 1.12934e-19)
(-0.0194676 0.0400827 -3.59118e-20)
(-0.0259442 0.0455416 0)
(-0.0329772 0.0500676 -9.03049e-23)
(-0.0404726 0.0537755 3.1186e-20)
(-0.0483425 0.0567721 -2.9613e-20)
(-0.0565051 0.0591576 0)
(-0.0648844 0.0610253 0)
(-0.0734107 0.0624622 -5.0937e-20)
(-0.0820201 0.0635483 7.24294e-20)
(-0.0906545 0.0643563 -2.28667e-20)
(-0.0992613 0.0649511 0)
(-0.107792 0.0653896 4.12848e-20)
(-0.116202 0.0657212 -3.88066e-20)
(-0.124449 0.0659875 3.71548e-20)
(-0.132492 0.0662238 -6.9936e-20)
(-0.140294 0.0664604 -9.95596e-20)
(-0.147814 0.066724 3.13973e-20)
(-0.155012 0.0670398 2.98636e-20)
(-0.16185 0.0674341 2.82481e-20)
(-0.168288 0.0679356 0)
(-0.174287 0.0685782 -5.05293e-20)
(-0.179813 0.0694012 0)
(-0.184868 0.0704463 0)
(-0.189442 0.0717481 -8.58826e-20)
(-0.193239 0.0733578 2.66591e-22)
(-0.196385 0.0753935 -1.15709e-19)
(-0.0015752 0.006916 1.99383e-20)
(-0.0050023 0.0186804 4.1308e-20)
(-0.00937139 0.0287827 3.95577e-20)
(-0.0144552 0.0374287 -3.76934e-20)
(-0.0201399 0.0447739 0)
(-0.0263546 0.0509552 0)
(-0.0330199 0.0561019 3.27565e-20)
(-0.0400539 0.0603352 -3.12702e-20)
(-0.0473781 0.0637694 -7.27944e-23)
(-0.0549169 0.0665121 5.65974e-20)
(-0.0625985 0.0686646 0)
(-0.070355 0.070322 5.09363e-20)
(-0.0781227 0.0715722 0)
(-0.0858415 0.0724955 0)
(-0.0934551 0.0731643 -4.52901e-23)
(-0.10091 0.0736421 4.11778e-20)
(-0.108155 0.0739841 -3.92017e-20)
(-0.11514 0.0742369 7.40237e-20)
(-0.121815 0.0744402 -3.51909e-20)
(-0.128131 0.0746273 9.95263e-20)
(-0.134037 0.0748279 0)
(-0.139479 0.0750694 0)
(-0.144404 0.0753804 5.64161e-20)
(-0.148755 0.0757932 0)
(-0.152478 0.076347 5.07533e-20)
(-0.155518 0.0770896 -4.76283e-20)
(-0.157862 0.0780768 4.55802e-20)
(-0.159512 0.079366 -4.29524e-20)
(-0.1601 0.0810364 8.114e-20)
(-0.159577 0.0832197 1.16372e-19)
(-0.00186211 0.00748282 0)
(-0.00569085 0.0202676 -4.1308e-20)
(-0.0102367 0.0313051 1.59235e-22)
(-0.0153226 0.0407984 0)
(-0.0208622 0.0489022 -7.24809e-20)
(-0.0268017 0.0557538 -5.92832e-23)
(-0.0330764 0.0614844 3.28767e-20)
(-0.0396168 0.0662183 0)
(-0.0463532 0.0700737 2.97654e-20)
(-0.0532169 0.0731633 -5.65967e-20)
(-0.0601405 0.0755942 0)
(-0.0670584 0.0774673 0)
(-0.0739069 0.0788771 -4.85862e-20)
(-0.0806248 0.0799103 4.59333e-20)
(-0.0871523 0.0806454 -4.35785e-20)
(-0.0934312 0.0811517 0)
(-0.0994042 0.0814895 -3.91425e-20)
(-0.105014 0.0817102 -1.11288e-19)
(-0.110201 0.0818569 -1.99339e-22)
(-0.114907 0.0819658 -2.05221e-22)
(-0.119068 0.0820685 3.13919e-20)
(-0.12262 0.0821943 5.98444e-20)
(-0.125495 0.0823731 -1.12636e-19)
(-0.127621 0.0826395 5.34265e-20)
(-0.128925 0.0830371 -2.41344e-22)
(-0.129336 0.0836226 -4.64042e-22)
(-0.128823 0.0844679 -4.76892e-22)
(-0.127407 0.08566 4.26984e-20)
(-0.124688 0.0873149 0)
(-0.120241 0.0895816 0)
(-0.00215462 0.00794172 4.03975e-20)
(-0.00639756 0.021576 1.45735e-22)
(-0.0111306 0.0334153 1.66376e-22)
(-0.0162251 0.0436524 -7.61902e-20)
(-0.0216206 0.0524354 7.2553e-20)
(-0.0272793 0.0598978 0)
(-0.0331501 0.0661686 0)
(-0.0391752 0.0713717 6.29082e-20)
(-0.045294 0.0756265 -5.97349e-20)
(-0.0514444 0.0790478 1.9331e-23)
(-0.0575632 0.0817462 1.07971e-19)
(-0.0635875 0.0838269 5.13127e-20)
(-0.0694544 0.085389 -9.72448e-20)
(-0.0751014 0.0865244 4.6035e-20)
(-0.0804664 0.0873165 4.37928e-20)
(-0.0854871 0.0878395 -4.13363e-20)
(-0.0901004 0.0881583 7.84082e-20)
(-0.0942422 0.0883279 1.1162e-19)
(-0.0978463 0.0883947 7.05967e-20)
(-0.100844 0.0883971 3.36063e-20)
(-0.103162 0.0883683 -6.28466e-20)
(-0.104725 0.088338 0)
(-0.105452 0.0883369 -2.13244e-22)
(-0.105258 0.0884003 5.32217e-20)
(-0.104056 0.0885747 5.07879e-20)
(-0.101755 0.0889247 -9.52219e-20)
(-0.0983036 0.0895396 -4.50746e-20)
(-0.0937537 0.0905396 8.57443e-20)
(-0.0877551 0.0920916 0)
(-0.0791953 0.0944294 -7.68626e-20)
(-0.00244552 0.00829295 4.05548e-20)
(-0.00710594 0.0226039 -8.34778e-20)
(-0.0120336 0.0351073 5.33974e-23)
(-0.0171446 0.0459788 -1.53181e-22)
(-0.022402 0.0553549 0)
(-0.0277814 0.0633614 0)
(-0.0332445 0.0701214 0)
(-0.0387439 0.0757553 -6.31005e-20)
(-0.0442273 0.0803808 5.99174e-20)
(-0.0496387 0.0841127 -5.69075e-20)
(-0.0549198 0.0870627 -1.0823e-19)
(-0.0600101 0.0893386 -1.24612e-22)
(-0.0648479 0.0910423 9.74455e-20)
(-0.0693704 0.0922695 4.62482e-20)
(-0.0735135 0.0931074 0)
(-0.0772116 0.0936342 -8.30382e-20)
(-0.0803973 0.0939184 1.1802e-19)
(-0.0830009 0.0940183 -1.11482e-19)
(-0.0849495 0.0939827 -7.02382e-20)
(-0.0861669 0.093852 -2.00021e-19)
(-0.0865722 0.09366 -3.93947e-22)
(-0.0860797 0.0934365 -4.0313e-22)
(-0.0845985 0.0932113 -1.98911e-22)
(-0.0820328 0.093019 -1.0706e-19)
(-0.0782825 0.0929069 1.5136e-19)
(-0.073241 0.0929452 9.98236e-23)
(-0.0668296 0.0932388 0)
(-0.0591269 0.0939359 -8.57402e-20)
(-0.0499393 0.0952806 8.10149e-20)
(-0.0373295 0.0979776 7.81234e-20)
(-0.00272837 0.00853973 0)
(-0.00780115 0.023357 -4.19896e-20)
(-0.0129282 0.0363856 4.01155e-20)
(-0.018065 0.0477781 7.66407e-20)
(-0.0231943 0.0576557 3.66574e-20)
(-0.0283032 0.0661326 -6.97463e-20)
(-0.0333635 0.0733235 -7.23236e-23)
(-0.038337 0.0793425 -6.32126e-20)
(-0.0431787 0.084303 0)
(-0.0478385 0.0883176 5.72218e-20)
(-0.0522622 0.0914974 0)
(-0.0563924 0.0939506 0)
(-0.0601688 0.0957809 -9.76623e-20)
(-0.0635287 0.0970861 -9.26095e-20)
(-0.0664071 0.0979562 1.31591e-19)
(-0.0687361 0.0984724 8.30363e-20)
(-0.0704451 0.0987059 2.16282e-22)
(-0.0714601 0.0987177 -7.4319e-20)
(-0.0717033 0.0985587 1.41136e-19)
(-0.0710925 0.0982705 -2.13068e-23)
(-0.0695405 0.0978871 1.26002e-19)
(-0.0669547 0.0974377 0)
(-0.0632363 0.0969501 0)
(-0.0582807 0.0964565 1.06707e-19)
(-0.0519782 0.0960019 -1.51721e-19)
(-0.0442102 0.0956593 1.43111e-19)
(-0.0348744 0.0955461 -9.02308e-20)
(-0.024044 0.0958227 8.53745e-20)
(-0.0115605 0.0968707 -1.61784e-19)
(0.00460619 0.0999598 7.79036e-20)
(-0.00299777 0.008688 -4.10693e-20)
(-0.00847058 0.0238478 0)
(-0.0137992 0.0372643 0)
(-0.0189721 0.0490628 -7.71641e-20)
(-0.0239875 0.0593457 1.47122e-19)
(-0.0288403 0.0682136 -7.00044e-20)
(-0.0335108 0.07577 -1.44589e-22)
(-0.0379677 0.0821205 6.34183e-20)
(-0.0421723 0.0873726 0)
(-0.0460794 0.0916348 1.21083e-22)
(-0.0496389 0.0950158 9.2021e-23)
(-0.0527962 0.0976228 -1.03212e-19)
(-0.0554929 0.0995597 -1.91468e-22)
(-0.0576672 0.100925 -4.64369e-20)
(-0.0592537 0.101811 -1.31842e-19)
(-0.0601836 0.1023 8.33466e-20)
(-0.0603841 0.102466 -7.86121e-20)
(-0.0597784 0.102372 1.49243e-19)
(-0.0582852 0.10207 -1.40871e-19)
(-0.0558184 0.101603 -1.33389e-19)
(-0.0522865 0.101004 1.76134e-22)
(-0.0475919 0.100302 -5.94697e-20)
(-0.0416305 0.0995212 5.6589e-20)
(-0.0342917 0.0986899 2.27619e-22)
(-0.025458 0.0978484 -1.50929e-19)
(-0.0150013 0.0970672 -9.51942e-20)
(-0.00280884 0.0964683 1.80216e-19)
(0.0110675 0.0962293 -1.70474e-19)
(0.0268446 0.096873 8.0769e-20)
(0.0465206 0.100033 2.98606e-22)
(-0.0032496 0.00874602 1.23424e-19)
(-0.00910436 0.0240947 -4.23383e-20)
(-0.0146349 0.0377663 -8.09946e-20)
(-0.0198549 0.0498559 2.31932e-19)
(-0.0247732 0.0604453 2.76461e-22)
(-0.0293897 0.0696195 0)
(-0.0336897 0.0774695 0)
(-0.0376473 0.0840908 6.36748e-20)
(-0.0412285 0.0895835 -6.04111e-20)
(-0.0443922 0.0940506 5.74157e-20)
(-0.0470917 0.0975971 -5.45623e-20)
(-0.0492753 0.100328 -1.03609e-19)
(-0.0508867 0.102346 1.9599e-19)
(-0.0518655 0.10375 -4.63909e-20)
(-0.0521468 0.104631 8.79952e-20)
(-0.0516616 0.105075 -1.66562e-19)
(-0.0503363 0.105156 -2.78717e-22)
(-0.0480927 0.104939 -1.30775e-22)
(-0.0448473 0.104476 1.41189e-19)
(-0.0405118 0.103811 1.6861e-22)
(-0.034992 0.102978 0)
(-0.0281873 0.102003 0)
(-0.0199905 0.100907 -5.60341e-20)
(-0.0102867 0.0997134 -2.13003e-19)
(0.00104663 0.0984547 1.50827e-19)
(0.0141457 0.0971931 2.65885e-22)
(0.0291364 0.0960466 -1.7968e-19)
(0.0459824 0.0952162 1.70444e-19)
(0.0649288 0.0953281 -7.99248e-20)
(0.0881712 0.0983546 7.60514e-20)
(-0.00348118 0.00872404 0)
(-0.00969571 0.0241213 0)
(-0.0154268 0.0379223 8.14776e-20)
(-0.0207053 0.0501906 -1.5511e-19)
(-0.0255456 0.0609863 1.23679e-22)
(-0.0299487 0.0703783 -7.0544e-20)
(-0.0339026 0.0784441 2.01499e-19)
(-0.0373844 0.0852687 -1.9161e-19)
(-0.0403631 0.0909435 7.16784e-24)
(-0.0428008 0.0955653 -5.7566e-20)
(-0.0446535 0.0992346 -1.64068e-19)
(-0.0458722 0.102053 1.55294e-19)
(-0.0464028 0.104121 0)
(-0.0461867 0.105536 0)
(-0.0451603 0.10639 8.80081e-20)
(-0.0432549 0.106768 1.6679e-19)
(-0.0403972 0.106745 -7.87083e-20)
(-0.0365085 0.106387 0)
(-0.0315045 0.105747 -7.06321e-20)
(-0.0252955 0.104871 -2.9966e-22)
(-0.0177859 0.103789 -6.30187e-20)
(-0.00887345 0.102528 0)
(0.00155142 0.101106 -5.61442e-20)
(0.0136063 0.0995392 5.29375e-20)
(0.0274178 0.097851 -1.00682e-19)
(0.0431291 0.0960907 2.84482e-19)
(0.0608829 0.0943633 5.11952e-22)
(0.0806608 0.0928726 8.44145e-20)
(0.102684 0.0923108 0)
(0.129562 0.0951156 -7.6677e-20)
(-0.00369131 0.00863361 -8.31209e-20)
(-0.0102412 0.023955 8.54507e-20)
(-0.0161704 0.037769 1.7108e-22)
(-0.0215186 0.0501076 -7.79202e-20)
(-0.0263006 0.06101 0)
(-0.0305153 0.0705289 -1.41663e-19)
(-0.0341502 0.0787283 9.94521e-23)
(-0.0371833 0.0856826 6.38524e-20)
(-0.0395851 0.0914744 -7.17526e-24)
(-0.0413194 0.096194 -3.62081e-23)
(-0.0423445 0.0999363 1.64124e-19)
(-0.0426137 0.102799 5.19296e-20)
(-0.0420751 0.10488 4.92545e-20)
(-0.0406716 0.106275 -9.31868e-20)
(-0.0383414 0.107075 8.80268e-20)
(-0.0350169 0.107364 -8.33395e-20)
(-0.0306253 0.107218 7.89406e-20)
(-0.025088 0.106703 -7.44021e-20)
(-0.0183204 0.105873 0)
(-0.0102319 0.104773 -6.62987e-20)
(-0.000725733 0.103437 1.26116e-19)
(0.0103022 0.101886 5.93825e-20)
(0.0229638 0.100137 -5.59473e-20)
(0.0373798 0.0982014 2.11662e-19)
(0.0536815 0.0960918 -4.98452e-20)
(0.072019 0.0938417 9.42399e-20)
(0.0925546 0.0915348 -8.95166e-20)
(0.115296 0.089353 -5.39017e-22)
(0.140392 0.0880001 0)
(0.171088 0.0904943 -1.49503e-19)
(-0.00388013 0.00848737 -1.85554e-22)
(-0.0107403 0.0236262 -8.58183e-20)
(-0.0168645 0.0373474 0)
(-0.022293 0.0496541 -7.83618e-20)
(-0.027036 0.0605656 7.45598e-20)
(-0.031087 0.0701195 -1.20112e-22)
(-0.0344303 0.0783674 0)
(-0.0370428 0.0853732 -9.3274e-23)
(-0.0388946 0.0912116 -6.09033e-20)
(-0.0399503 0.0959658 5.78466e-20)
(-0.0401696 0.0997255 0)
(-0.0395072 0.102584 -1.04001e-19)
(-0.0379131 0.104637 9.85106e-20)
(-0.035332 0.105976 0)
(-0.0317032 0.106692 0)
(-0.0269605 0.106867 0)
(-0.0210315 0.106579 0)
(-0.0138374 0.105892 7.45695e-20)
(-0.00529296 0.104862 -7.02331e-20)
(0.00469374 0.103533 1.99548e-19)
(0.016222 0.101941 -1.25486e-19)
(0.0293991 0.100106 -1.18886e-19)
(0.0443409 0.0980438 1.67778e-19)
(0.061174 0.0957604 -3.57254e-22)
(0.0800366 0.0932606 -9.94469e-20)
(0.101088 0.0905607 -9.42365e-20)
(0.124512 0.0877179 -8.85453e-20)
(0.150352 0.0848718 1.67132e-19)
(0.178628 0.0826618 -1.57736e-19)
(0.213522 0.0847553 2.9792e-19)
(-0.00404938 0.00829829 1.67672e-19)
(-0.0111958 0.0231661 -1.79719e-22)
(-0.0175115 0.0367015 -1.64733e-19)
(-0.0230292 0.0488815 1.57007e-19)
(-0.0277504 0.0597082 -7.4947e-20)
(-0.0316601 0.0692061 -7.1224e-20)
(-0.034737 0.0774158 6.77616e-20)
(-0.0369547 0.0843922 6.43717e-20)
(-0.0382814 0.0902025 -1.22313e-19)
(-0.0386813 0.0949239 -1.74041e-19)
(-0.0381143 0.0986409 -5.49664e-20)
(-0.036536 0.101443 2.08213e-19)
(-0.0338973 0.103421 -2.95594e-19)
(-0.0301441 0.104666 9.3196e-20)
(-0.0252166 0.105266 0)
(-0.0190488 0.105303 0)
(-0.0115678 0.104853 0)
(-0.00269385 0.103982 1.48801e-19)
(0.00766054 0.102745 -7.01417e-20)
(0.0195908 0.101189 -6.605e-20)
(0.0332011 0.0993493 -1.2519e-19)
(0.0486047 0.0972486 1.1815e-19)
(0.0659258 0.0949008 -5.56149e-20)
(0.0853003 0.0923106 -1.04899e-19)
(0.106878 0.0894766 4.72313e-22)
(0.13083 0.0864005 -1.87333e-19)
(0.157364 0.0831123 2.65213e-19)
(0.186576 0.0796977 -2.50166e-19)
(0.218262 0.0766365 7.89489e-20)
(0.257962 0.0782829 -7.46276e-20)
(-0.00420195 0.00807916 -8.40083e-20)
(-0.011613 0.0226065 8.63203e-20)
(-0.0181161 0.035876 8.24369e-20)
(-0.0237298 0.0478432 -2.36337e-19)
(-0.0284426 0.0584966 7.49835e-20)
(-0.0322285 0.06785 7.14781e-20)
(-0.0350589 0.0759354 0)
(-0.0369018 0.0828003 0)
(-0.0377223 0.088506 6.11886e-20)
(-0.0374827 0.0931243 1.16064e-19)
(-0.0361418 0.0967355 -2.20241e-19)
(-0.0336552 0.0994251 -5.24157e-23)
(-0.0299736 0.101281 0)
(-0.025043 0.102392 0)
(-0.0188028 0.102845 -8.82045e-20)
(-0.0111859 0.102719 -9.6766e-23)
(-0.00211726 0.102091 7.86165e-20)
(0.00848637 0.101028 -7.43269e-20)
(0.0207175 0.0995853 -1.40085e-19)
(0.0346782 0.0978121 1.3247e-19)
(0.0504815 0.0957448 6.25342e-20)
(0.0682517 0.0934096 -1.76375e-19)
(0.0881257 0.0908219 -1.11345e-19)
(0.110255 0.0879873 1.04486e-19)
(0.134806 0.0849018 9.85695e-20)
(0.161964 0.081558 9.34096e-20)
(0.191959 0.0779621 0)
(0.22496 0.0741498 0)
(0.260391 0.0703284 1.55853e-19)
(0.305733 0.0715744 0)
(-0.00434169 0.0078421 8.46575e-20)
(-0.0119991 0.0219777 -8.67893e-20)
(-0.0186849 0.0349145 1.65956e-19)
(-0.0243978 0.0465926 -2.75041e-22)
(-0.0291099 0.0569907 0)
(-0.0327827 0.0661155 0)
(-0.0353777 0.0739928 0)
(-0.0368563 0.0806654 -6.46882e-20)
(-0.037179 0.08619 6.14242e-20)
(-0.0363045 0.0906348 0)
(-0.0341897 0.0940767 1.10166e-19)
(-0.0307881 0.096598 1.04363e-19)
(-0.026049 0.0982847 -9.87076e-20)
(-0.0199163 0.0992229 9.33016e-20)
(-0.0123268 0.0994973 3.34597e-23)
(-0.00320978 0.0991887 -8.32232e-20)
(0.00751497 0.0983719 -7.85412e-20)
(0.0199376 0.0971147 2.22437e-19)
(0.0341596 0.0954765 7.01715e-20)
(0.0502946 0.0935073 -1.31844e-19)
(0.0684693 0.0912474 -6.2345e-20)
(0.0888244 0.0887271 5.89874e-20)
(0.111516 0.085966 0)
(0.136715 0.0829735 -1.04151e-19)
(0.164609 0.0797481 -9.81672e-20)
(0.1954 0.0762788 0)
(0.229325 0.0725557 8.76617e-20)
(0.266662 0.0685889 -1.63744e-19)
(0.306234 0.0641831 -2.33256e-19)
(0.358203 0.0652084 0)
(-0.00447311 0.00759808 -1.69472e-19)
(-0.0123624 0.0213076 8.72903e-20)
(-0.0192252 0.033858 -1.66379e-19)
(-0.0250357 0.0451807 -2.74358e-22)
(-0.0297474 0.0552495 0)
(-0.0333074 0.0640674 0)
(-0.0356666 0.0716576 6.84344e-20)
(-0.0367782 0.0780602 1.29925e-19)
(-0.0365963 0.08333 0)
(-0.0350752 0.087533 0)
(-0.0321675 0.090744 -2.20861e-19)
(-0.0278232 0.0930435 1.04529e-19)
(-0.0219879 0.0945157 -7.10984e-23)
(-0.0146008 0.0952456 0)
(-0.00559325 0.0953169 7.6345e-24)
(0.00511279 0.0948103 8.31833e-20)
(0.0176065 0.0938015 1.70548e-22)
(0.0319895 0.0923602 -2.96096e-19)
(0.0483772 0.0905482 -6.97817e-20)
(0.0669001 0.0884197 1.31841e-19)
(0.0877042 0.0860198 1.24302e-19)
(0.110952 0.0833845 3.58469e-22)
(0.136823 0.0805403 1.10082e-19)
(0.16551 0.0775033 2.07874e-19)
(0.197222 0.0742784 9.81637e-20)
(0.232171 0.0708571 9.20695e-20)
(0.270579 0.0672208 8.71684e-20)
(0.312867 0.063404 1.64755e-19)
(0.35696 0.0586569 1.20233e-22)
(0.416538 0.0597911 7.12088e-20)
(-0.004601 0.00735651 1.70372e-19)
(-0.0127115 0.0206204 -2.62379e-19)
(-0.0197437 0.0327432 1.66976e-19)
(-0.0256439 0.0436547 1.59223e-19)
(-0.0303456 0.0533288 7.57791e-20)
(-0.033781 0.0617691 -8.68658e-23)
(-0.0358888 0.0689993 -6.83797e-20)
(-0.0366132 0.0750601 -1.29924e-19)
(-0.0359006 0.0800064 2.30398e-22)
(-0.0336989 0.0839041 2.33683e-19)
(-0.0299548 0.0868276 -1.10828e-19)
(-0.0246124 0.0888569 2.09141e-19)
(-0.0176105 0.0900755 -1.08269e-22)
(-0.00888051 0.0905681 -1.8668e-19)
(0.00165552 0.0904189 4.1588e-23)
(0.0140872 0.0897092 0)
(0.0285175 0.0885166 3.92025e-19)
(0.0450647 0.0869135 7.40581e-20)
(0.0638636 0.084966 0)
(0.0850666 0.0827332 6.57331e-20)
(0.108844 0.0802669 -6.1828e-20)
(0.135383 0.0776108 2.33227e-19)
(0.164885 0.0747997 -3.29853e-19)
(0.197566 0.071859 1.02924e-19)
(0.233643 0.0688026 0)
(0.273327 0.0656302 9.11918e-20)
(0.316781 0.0623141 -1.72534e-19)
(0.364607 0.0589906 1.62303e-19)
(0.41349 0.0541803 -1.53052e-19)
(0.481435 0.0558837 -1.43383e-19)
(-0.00473001 0.00712486 -1.70868e-19)
(-0.0130544 0.0199361 -3.23851e-22)
(-0.0202452 0.0316013 -8.3638e-20)
(-0.0262193 0.0420559 -7.97502e-20)
(-0.0308897 0.0512794 -1.52232e-19)
(-0.0341732 0.05928 7.24026e-20)
(-0.0359961 0.0660856 4.30876e-23)
(-0.036292 0.0717405 -1.30429e-19)
(-0.0349986 0.0763022 -1.85131e-19)
(-0.0320555 0.0798388 2.16012e-22)
(-0.0274012 0.0824259 1.10677e-19)
(-0.0209708 0.0841446 -2.09235e-19)
(-0.0126931 0.0850793 9.89726e-20)
(-0.00248789 0.0853158 9.33707e-20)
(0.00973672 0.0849396 4.55221e-23)
(0.0240866 0.0840343 8.31044e-20)
(0.0406838 0.0826807 -1.56712e-19)
(0.0596683 0.080955 0)
(0.0811989 0.078929 -1.38962e-19)
(0.105454 0.0766684 1.30887e-19)
(0.132628 0.0742329 -1.23267e-19)
(0.162933 0.0716751 -1.16436e-19)
(0.196589 0.0690397 0)
(0.233817 0.066362 -3.09509e-19)
(0.274826 0.063666 2.58661e-23)
(0.319796 0.0609617 -4.57246e-19)
(0.368777 0.058203 2.58384e-19)
(0.422564 0.0557228 -3.23621e-19)
(0.476308 0.0511244 1.53043e-19)
(0.552884 0.0539274 -1.40697e-19)
(-0.00486422 0.0069084 8.55899e-20)
(-0.0133972 0.0192694 8.79325e-20)
(-0.020731 0.0304566 8.42612e-20)
(-0.0267536 0.0404184 -2.00605e-22)
(-0.0313575 0.049145 -1.81225e-22)
(-0.0344443 0.0566537 0)
(-0.0359275 0.0629799 0)
(-0.0357294 0.0681745 0)
(-0.0337774 0.0723005 0)
(-0.0300006 0.0754301 0)
(-0.0243267 0.0776424 1.10838e-19)
(-0.0166787 0.0790212 -1.0471e-19)
(-0.00697149 0.0796536 9.9072e-20)
(0.00489128 0.079628 -5.67156e-23)
(0.01902 0.0790327 -8.80851e-20)
(0.0355418 0.0779552 6.77369e-23)
(0.0546023 0.0764806 -1.56413e-19)
(0.0763671 0.074691 1.4732e-19)
(0.101022 0.0726648 1.38959e-19)
(0.128769 0.0704757 -1.31078e-19)
(0.159829 0.0681923 2.463e-19)
(0.194424 0.0658766 0)
(0.23278 0.0635829 -2.18214e-19)
(0.275099 0.0613556 7.31259e-23)
(0.32155 0.0592272 7.30443e-23)
(0.372239 0.0572169 4.93528e-22)
(0.427035 0.0552401 -8.53407e-20)
(0.486893 0.0539182 1.61317e-19)
(0.545315 0.0497745 1.51224e-19)
(0.630029 0.054184 7.33219e-20)
(-0.00500667 0.00671003 0)
(-0.0137432 0.0186295 8.84042e-20)
(-0.0211982 0.0293262 -8.41241e-20)
(-0.0272323 0.0387683 -9.45074e-23)
(-0.0317187 0.0469616 1.53217e-19)
(-0.0345442 0.0539363 -7.29e-20)
(-0.0356095 0.0597392 0)
(-0.0348246 0.0644307 0)
(-0.032105 0.0680816 -1.24079e-19)
(-0.0273672 0.0707708 1.17708e-19)
(-0.0205251 0.0725827 1.11237e-19)
(-0.011486 0.0736061 0)
(-0.000146863 0.0739323 9.9122e-20)
(0.0136091 0.073654 0)
(0.0299153 0.0728645 -1.76084e-19)
(0.0489241 0.0716563 2.4902e-19)
(0.0708078 0.0701207 2.345e-19)
(0.0957591 0.068347 -7.37143e-20)
(0.123989 0.0664212 -8.20723e-24)
(0.15572 0.0644258 -1.95847e-19)
(0.191183 0.0624381 0)
(0.230599 0.0605289 0)
(0.274167 0.0587602 1.08948e-19)
(0.322039 0.0571822 2.05038e-19)
(0.374292 0.0558309 3.17383e-22)
(0.430908 0.0547302 1.8157e-19)
(0.49152 0.053734 1.70774e-19)
(0.557106 0.0537997 0)
(0.619764 0.05031 -1.51214e-19)
(0.711155 0.0567045 2.1091e-19)
(-0.00515902 0.00653029 8.66146e-20)
(-0.014092 0.0180199 0)
(-0.0216381 0.0282196 1.21986e-22)
(-0.0276334 0.0371228 -8.08487e-20)
(-0.0319337 0.0447558 7.7062e-20)
(-0.0344118 0.0511653 7.30165e-20)
(-0.0349553 0.0564128 -1.6719e-22)
(-0.0334615 0.0605708 6.59113e-20)
(-0.029832 0.0637207 0)
(-0.0239686 0.0659502 -2.35651e-19)
(-0.0157681 0.0673512 2.82045e-22)
(-0.00511857 0.0680193 0)
(0.00810484 0.0680521 9.9184e-20)
(0.0240431 0.0675486 -2.80596e-19)
(0.042856 0.0666084 8.82237e-20)
(0.0647232 0.0653311 -8.2922e-20)
(0.0898442 0.0638154 -1.56289e-19)
(0.118436 0.0621586 -2.20674e-19)
(0.150727 0.0604553 0)
(0.186948 0.0587961 0)
(0.227321 0.057266 1.22474e-19)
(0.272035 0.0559418 1.15393e-19)
(0.321226 0.0548891 -1.08403e-19)
(0.374946 0.0541576 0)
(0.433128 0.0537788 0)
(0.495557 0.0537707 0)
(0.561618 0.0539193 1.69093e-19)
(0.632045 0.0554616 -7.97129e-20)
(0.69829 0.0527947 1.49706e-19)
(0.793812 0.0613344 1.35798e-19)
(-0.00532117 0.00636743 -1.73398e-19)
(-0.0144388 0.0174386 8.92156e-20)
(-0.0220355 0.0271384 -8.53373e-20)
(-0.0279269 0.0354905 8.13273e-20)
(-0.0319535 0.042545 -7.7062e-20)
(-0.0339751 0.048369 7.32894e-20)
(-0.0338665 0.053041 -6.97262e-20)
(-0.0315109 0.0566487 -1.31777e-19)
(-0.026795 0.0592862 1.25153e-19)
(-0.0196028 0.061052 2.36307e-19)
(-0.00981158 0.0620479 1.11418e-19)
(0.00271321 0.0623782 -1.05508e-19)
(0.0181213 0.0621486 1.66582e-22)
(0.0365805 0.0614664 7.82167e-23)
(0.0582781 0.060439 8.83027e-20)
(0.0834206 0.0591746 0)
(0.11223 0.0577803 1.56272e-19)
(0.14494 0.0563619 3.6758e-19)
(0.181782 0.0550217 -6.92022e-20)
(0.222974 0.0538573 0)
(0.268697 0.052958 -2.44767e-19)
(0.31907 0.0524018 -1.14988e-19)
(0.37412 0.0522508 -1.08283e-19)
(0.433741 0.0525455 1.01664e-19)
(0.497662 0.0533024 -9.56919e-20)
(0.565408 0.0545152 8.97449e-20)
(0.636134 0.0559318 -8.41151e-22)
(0.709965 0.0588509 1.57554e-19)
(0.779006 0.0572002 -1.49252e-19)
(0.874976 0.0677722 -2.73402e-19)
(-0.00549104 0.00621763 8.74457e-20)
(-0.014774 0.0168785 8.95779e-20)
(-0.0223684 0.0260774 -2.42231e-22)
(-0.0280744 0.0338714 3.88249e-22)
(-0.0317195 0.0403376 0)
(-0.0331519 0.0455658 -2.67392e-22)
(-0.0322334 0.0496547 -2.10123e-19)
(-0.0288326 0.052709 0)
(-0.0228192 0.0548376 -1.25601e-19)
(-0.0140577 0.0561521 -4.73998e-19)
(-0.00240307 0.0567659 1.12103e-19)
(0.0123041 0.0567939 -1.05699e-19)
(0.0302403 0.056352 -1.98762e-19)
(0.0516006 0.055557 1.87751e-19)
(0.0765981 0.0545261 0)
(0.105461 0.0533765 8.29735e-20)
(0.138425 0.0522243 -2.34635e-19)
(0.175724 0.051183 -7.35697e-20)
(0.217571 0.0503612 -2.07451e-19)
(0.264138 0.0498595 0)
(0.315529 0.0497666 2.44464e-19)
(0.371745 0.0501542 1.14982e-19)
(0.432646 0.0510712 0)
(0.497915 0.0525372 1.01329e-19)
(0.567026 0.0545419 0)
(0.639189 0.0570299 -8.94789e-20)
(0.713374 0.0597818 -2.51726e-19)
(0.788744 0.0637711 -3.14193e-19)
(0.85966 0.0634884 -1.46883e-19)
(0.951192 0.0756429 -3.23006e-21)
(-0.00566446 0.00607534 -8.74457e-20)
(-0.0150829 0.0163284 3.03459e-22)
(-0.0226077 0.0250253 8.60217e-20)
(-0.0280291 0.032258 -8.17156e-20)
(-0.0311644 0.0381332 -7.78289e-20)
(-0.031851 0.0427655 1.47679e-19)
(-0.0299378 0.0462754 7.03607e-20)
(-0.0252783 0.0487868 1.33231e-19)
(-0.0177236 0.0504252 1.25587e-19)
(-0.00711718 0.051317 1.19145e-19)
(0.00671015 0.0515892 2.24867e-19)
(0.0239435 0.051369 -2.98835e-22)
(0.0447858 0.0507838 0)
(0.0694569 0.0499615 -9.38344e-20)
(0.09819 0.0490297 -2.28083e-22)
(0.131225 0.0481152 1.1257e-22)
(0.168795 0.0473422 2.34705e-19)
(0.211111 0.0468301 0)
(0.258337 0.04669 1.3826e-19)
(0.310561 0.0470205 0)
(0.367761 0.0479017 -7.59801e-23)
(0.429768 0.0493888 -1.14728e-19)
(0.496223 0.0515058 2.15554e-19)
(0.566546 0.0542374 -1.01439e-19)
(0.639921 0.0575333 -1.89636e-19)
(0.71523 0.0612662 8.87192e-20)
(0.791296 0.0653234 3.34255e-19)
(0.866197 0.0699228 7.84896e-20)
(0.937854 0.0716864 3.64964e-19)
(1.01891 0.0842454 7.02385e-20)
(-0.00583516 0.00593372 8.81569e-20)
(-0.0153455 0.0157736 -1.80972e-19)
(-0.0227175 0.0239655 0)
(-0.0277366 0.0306369 0)
(-0.0302127 0.0359243 7.82239e-20)
(-0.0299733 0.0399693 -2.92442e-22)
(-0.0268549 0.0429158 -1.4074e-19)
(-0.0206947 0.0449081 -1.33315e-19)
(-0.011325 0.0460899 5.24693e-22)
(0.00143302 0.0466041 4.82487e-22)
(0.0177729 0.0465924 -1.1241e-19)
(0.0379046 0.0461959 2.11925e-19)
(0.0620542 0.0455548 -2.00022e-19)
(0.0904603 0.044809 9.43435e-20)
(0.123366 0.0440966 8.84874e-20)
(0.161005 0.0435532 -1.66467e-19)
(0.203587 0.0433093 -7.82087e-20)
(0.251268 0.0434865 7.37091e-20)
(0.304125 0.0441931 0)
(0.362117 0.0455175 -1.29861e-19)
(0.425046 0.0475214 6.00374e-23)
(0.492518 0.0502314 0)
(0.563911 0.0536324 0)