/*--------------------------------*- C++ -*----------------------------------*\
  =========                 |
  \\      /  F ield         | OpenFOAM: The Open Source CFD Toolbox
   \\    /   O peration     | Website:  https://openfoam.org
    \\  /    A nd           | Version:  7
     \\/     M anipulation  |
\*---------------------------------------------------------------------------*/
FoamFile
{
    version     2.0;
    format      ascii;
    class       volVectorField;
    location    "45";
    object      U;
}
// * * * * * * * * * * * * * * * * * * * * * * * * * * * * * * * * * * * * * //

dimensions      [0 1 -1 0 0 0 0];

internalField   nonuniform List<vector> 
2304
(
(-0.0042812 0.00310103 -2.87796e-20)
(-0.0139261 0.00470418 -4.60456e-20)
(-0.0250699 0.00406016 1.59537e-20)
(-0.0322774 0.00231365 2.45514e-20)
(-0.0340664 -1.19252e-05 -7.3893e-20)
(-0.0300923 -0.00263365 -3.02455e-20)
(-0.0203179 -0.00536565 -8.75046e-20)
(-0.00502495 -0.00798629 3.14996e-20)
(0.0153461 -0.0100537 3.0661e-20)
(0.0389559 -0.0105485 1.02209e-20)
(-0.00505731 0.00885718 -4.19622e-20)
(-0.0138809 0.0132803 -3.96264e-20)
(-0.0222287 0.0112828 3.08939e-20)
(-0.0256159 0.0061377 8.88383e-20)
(-0.0229004 -0.0006405 7.4508e-20)
(-0.0139104 -0.00824263 1.06926e-19)
(0.00125397 -0.0161267 3.21597e-20)
(0.0221986 -0.0236842 -1.98453e-20)
(0.0485734 -0.0296701 9.11472e-21)
(0.0791152 -0.0310043 -1.57129e-20)
(-0.00633962 0.0133437 6.23059e-21)
(-0.0132848 0.0194743 4.3315e-20)
(-0.0160045 0.0159368 1.20488e-19)
(-0.0117966 0.00766705 -5.47432e-20)
(-0.000176994 -0.00299611 1.17477e-19)
(0.018692 -0.0147823 9.89297e-20)
(0.0444456 -0.0268812 9.12507e-20)
(0.0763961 -0.0384407 -5.74557e-20)
(0.114248 -0.0476053 -1.40839e-19)
(0.158147 -0.0492003 -4.14875e-20)
(-0.00762838 0.0159248 2.08705e-19)
(-0.0111733 0.022067 2.87656e-19)
(-0.00534445 0.0167263 -5.76413e-20)
(0.0101474 0.00577878 -2.38962e-19)
(0.0348788 -0.00784717 -4.33269e-19)
(0.0681791 -0.0225236 -1.30867e-19)
(0.109258 -0.0372889 -1.87249e-20)
(0.156939 -0.0512336 -3.31212e-19)
(0.210637 -0.0621948 -1.75361e-19)
(0.273044 -0.0627188 6.78456e-20)
(-0.00825482 0.0162246 -1.94898e-20)
(-0.00621443 0.0203665 -1.85726e-19)
(0.0112631 0.0129511 -2.74201e-20)
(0.0416319 -2.86715e-05 -7.64572e-20)
(0.0833713 -0.0153462 -2.08552e-20)
(0.135109 -0.0311754 1.45227e-19)
(0.195419 -0.0464944 -6.03984e-20)
(0.262398 -0.0605351 -1.57276e-19)
(0.334564 -0.0712806 1.19657e-19)
(0.418093 -0.0683902 3.57818e-20)
(-0.00743991 0.0141872 2.39478e-19)
(0.00318333 0.0142966 9.44685e-20)
(0.0356425 0.00467459 2.90511e-19)
(0.0843798 -0.00940942 -1.48788e-19)
(0.146573 -0.024793 -3.47964e-20)
(0.219893 -0.0396263 4.56846e-20)
(0.301964 -0.0529429 -2.94216e-19)
(0.389856 -0.0642773 -1.89427e-19)
(0.480613 -0.0722261 1.52141e-19)
(0.58335 -0.062802 1.16757e-19)
(-0.00439567 0.0100437 -6.95859e-19)
(0.018712 0.00441534 -4.4717e-20)
(0.0697485 -0.00715254 -3.95143e-19)
(0.14014 -0.0210124 -1.71566e-19)
(0.225535 -0.0344515 -3.71849e-19)
(0.322303 -0.0458211 3.9548e-19)
(0.426675 -0.054391 -2.20476e-19)
(0.534315 -0.0600926 7.7714e-21)
(0.640649 -0.0620959 -8.76867e-20)
(0.753808 -0.0437454 4.13124e-19)
(0.00164315 0.00426716 -3.69377e-19)
(0.041978 -0.00806062 -2.72307e-19)
(0.115345 -0.020698 -8.3335e-19)
(0.210221 -0.032497 -4.11734e-20)
(0.320449 -0.0416239 7.44263e-20)
(0.440682 -0.0469675 -2.48716e-19)
(0.565366 -0.04834 -5.64245e-19)
(0.68861 -0.0461145 -1.19982e-19)
(0.804811 -0.0392383 -1.10764e-19)
(0.913214 -0.015487 1.28333e-19)
(0.0113698 -0.00245239 2.43514e-19)
(0.074293 -0.0213541 1.4393e-19)
(0.173591 -0.0333869 1.12676e-19)
(0.29488 -0.040747 -2.74713e-20)
(0.429844 -0.0430064 -5.52024e-19)
(0.571014 -0.0400731 -9.3197e-19)
(0.710913 -0.0327445 2.30327e-20)
(0.842632 -0.0219853 -1.79885e-19)
(0.961341 -0.00667345 -2.68507e-19)
(1.05376 0.00663913 2.79149e-20)
(0.0253359 -0.00924499 -1.91815e-19)
(0.116445 -0.0332601 -2.13196e-19)
(0.244634 -0.0421473 -6.3463e-20)
(0.392774 -0.0422908 -1.21368e-19)
(0.550057 -0.0352886 -2.02294e-19)
(0.706673 -0.022633 -2.50545e-19)
(0.853434 -0.00660009 2.50753e-19)
(0.982875 0.0105607 -1.86305e-19)
(1.09055 0.0275629 -2.6855e-19)
(1.17006 0.0334206 1.96516e-19)
(0.0438685 -0.0150939 1.22556e-19)
(0.168453 -0.0413107 1.04725e-19)
(0.327263 -0.0437812 -1.04708e-19)
(0.500677 -0.033896 -1.34356e-19)
(0.675315 -0.0159247 -4.22324e-20)
(0.839388 0.00660602 -2.87272e-19)
(0.98305 0.0298278 -6.05101e-20)
(1.09983 0.0505166 4.08049e-19)
(1.18731 0.0664726 1.82717e-19)
(1.24495 0.0716705 1.88569e-19)
(0.0669785 -0.0188799 9.83192e-20)
(0.229371 -0.0429994 -5.85506e-20)
(0.418758 -0.0354108 -2.49552e-19)
(0.613583 -0.0132089 1.27007e-19)
(0.798404 0.0161469 4.30309e-19)
(0.960678 0.0469867 2.3064e-19)
(1.09181 0.0742741 -2.46302e-19)
(1.1884 0.0946973 9.40133e-20)
(1.2519 0.106709 -2.9166e-19)
(1.28641 0.108492 -1.74852e-19)
(0.0942642 -0.0194507 -2.19201e-19)
(0.297188 -0.036054 9.1126e-20)
(0.51498 -0.0149204 2.63562e-19)
(0.725249 0.0207709 -2.4536e-19)
(0.911826 0.060247 2.69472e-19)
(1.06346 0.096181 1.79577e-19)
(1.17508 0.123395 2.3522e-19)
(1.24802 0.139687 2.4796e-19)
(1.28829 0.145308 -1.20655e-19)
(1.30354 0.141825 1.781e-20)
(0.124846 -0.0157313 1.8887e-19)
(0.368863 -0.0187368 -3.19299e-19)
(0.610747 0.0186834 4.26712e-20)
(0.829066 0.0674956 -2.18751e-19)
(1.00906 0.114172 2.70407e-19)
(1.1432 0.150909 2.4942e-19)
(1.2318 0.173803 1.92141e-20)
(1.28155 0.182856 -7.33141e-20)
(1.30232 0.180627 -9.21039e-20)
(1.3036 0.170976 -5.8017e-20)
(0.157362 -0.00686534 -3.07007e-20)
(0.440528 0.00986664 1.81455e-19)
(0.700419 0.0650641 -4.63726e-20)
(0.918991 0.124979 1.19528e-19)
(1.08547 0.174725 -8.07004e-21)
(1.19818 0.207722 1.36227e-19)
(1.26369 0.22274 -3.84755e-20)
(1.29346 0.222624 -4.96478e-20)
(1.29972 0.212143 1.31453e-19)
(1.29214 0.196393 -4.22489e-20)
(0.19003 0.00763564 -4.99742e-20)
(0.507841 0.0496295 1.02038e-19)
(0.778565 0.122542 -2.08392e-20)
(0.990285 0.190139 4.70641e-20)
(1.13863 0.23831 -3.29484e-20)
(1.22901 0.263529 7.63867e-20)
(1.27396 0.268232 -5.3146e-20)
(1.28832 0.258159 -2.71035e-20)
(1.2851 0.239759 2.67804e-20)
(1.27293 0.218391 -1.67496e-20)
(0.220789 0.0277626 4.71958e-20)
(0.566435 0.0992853 -9.5792e-20)
(0.840573 0.188268 -2.23935e-20)
(1.0399 0.259247 -4.00445e-20)
(1.1681 0.301404 3.08777e-20)
(1.23778 0.315803 -5.89945e-20)
(1.26624 0.308936 3.80163e-20)
(1.27006 0.289004 1.66111e-20)
(1.26168 0.263407 -1.94319e-20)
(1.24814 0.237109 1.1833e-20)
(0.247493 0.0529293 1.00068e-19)
(0.61238 0.156476 6.15651e-20)
(0.883084 0.258537 1.63905e-20)
(1.06654 0.328343 -3.5139e-20)
(1.17498 0.360816 5.60173e-21)
(1.22733 0.362557 -8.58684e-20)
(1.24397 0.343926 2.43842e-20)
(1.24175 0.314853 2.56299e-20)
(1.23162 0.282965 1.18492e-20)
(1.21885 0.252477 -1.20185e-20)
(0.268134 0.081961 -1.8541e-20)
(0.642591 0.217935 3.08389e-20)
(0.904214 0.329152 -7.12421e-20)
(1.07043 0.393563 1.32939e-19)
(1.16141 0.413784 -3.10736e-20)
(1.20073 0.402236 -4.21955e-21)
(1.21019 0.372494 3.35879e-23)
(1.20578 0.335439 1.11751e-20)
(1.19647 0.298387 -7.59059e-21)
(1.1859 0.264373 5.279e-21)
(0.281058 0.11316 -4.09633e-20)
(0.655119 0.279771 -3.99486e-20)
(0.903606 0.395788 2.03251e-19)
(1.05309 0.45137 2.70387e-19)
(1.1301 0.457994 -1.39948e-19)
(1.16098 0.433572 -3.09892e-20)
(1.16754 0.394 -2.62291e-20)
(1.16402 0.350362 -2.11434e-21)
(1.15746 0.309405 -6.56059e-21)
(1.15052 0.272492 7.46599e-21)
(0.285167 0.144438 -2.41085e-20)
(0.649347 0.337812 3.48703e-20)
(0.882283 0.454302 9.21665e-20)
(1.017 0.498742 -4.71523e-20)
(1.08407 0.49158 -9.14355e-20)
(1.111 0.455517 3.6357e-21)
(1.11827 0.407813 -5.60505e-20)
(1.118 0.359188 2.27727e-20)
(1.11559 0.315352 -8.60219e-20)
(1.11357 0.276401 -1.06798e-19)
(0.280046 0.173489 -2.44139e-19)
(0.626016 0.387997 -9.04759e-21)
(0.842292 0.500908 9.3418e-20)
(0.965115 0.53314 2.60858e-20)
(1.02661 0.513139 1.36614e-20)
(1.05364 0.467265 -3.8187e-20)
(1.06442 0.413466 8.04466e-21)
(1.06911 0.361473 1.18564e-19)
(1.0719 0.315787 9.69884e-20)
(1.07557 0.275663 1.0316e-19)
(0.265954 0.197902 1.0399e-19)
(0.586853 0.426677 -3.15376e-20)
(0.786682 0.532705 -1.53945e-20)
(0.901061 0.552473 -1.86104e-20)
(0.961112 0.521508 -6.30892e-20)
(0.991462 0.468284 -8.74672e-20)
(1.00796 0.410584 1.24684e-19)
(1.01887 0.356892 -4.4451e-20)
(1.02769 0.310484 -1.72552e-19)
(1.03746 0.270531 -6.01784e-20)
(0.24385 0.215493 -9.02558e-20)
(0.534601 0.45058 -5.84543e-20)
(0.719359 0.547328 -9.03795e-20)
(0.82874 0.555551 -2.51516e-20)
(0.890711 0.516057 -2.48762e-19)
(0.926931 0.458171 -4.95776e-19)
(0.950696 0.398781 1.4825e-20)
(0.968763 0.344951 -1.41962e-19)
(0.98436 0.298848 -2.34557e-19)
(1.00003 0.261483 2.32421e-19)
(0.215386 0.224546 4.61803e-20)
(0.472961 0.457504 -1.37183e-19)
(0.644525 0.54329 -3.4326e-19)
(0.751993 0.541726 -1.84181e-20)
(0.818539 0.49661 2.96802e-20)
(0.862357 0.436856 -2.44884e-19)
(0.894308 0.377914 -1.8061e-19)
(0.92011 0.325298 -1.72483e-19)
(0.942961 0.279303 -8.04388e-20)
(0.961473 0.24124 2.81412e-19)
(0.182656 0.223804 1.09363e-19)
(0.406086 0.446188 -4.67738e-20)
(0.566593 0.520049 4.3856e-19)
(0.67467 0.511035 -1.96067e-19)
(0.74761 0.463472 -4.18246e-20)
(0.799962 0.404716 7.55152e-20)
(0.840438 0.34846 -5.97638e-19)
(0.873983 0.299084 9.34556e-20)
(0.903201 0.25653 -6.65408e-20)
(0.925434 0.221493 -5.87638e-21)
(0.14809 0.212641 7.016e-19)
(0.338331 0.416374 1.36539e-19)
(0.489966 0.477966 3.27973e-19)
(0.600481 0.464153 -2.01283e-19)
(0.680808 0.41734 -5.69684e-20)
(0.741939 0.362317 4.63787e-19)
(0.790722 0.310786 -4.70854e-20)
(0.831374 0.266089 -2.54718e-19)
(0.866026 0.227888 2.46652e-19)
(0.892644 0.196379 -1.49976e-19)
(0.114247 0.191124 -5.59539e-19)
(0.273998 0.368822 -8.41124e-20)
(0.418827 0.418258 2.13961e-19)
(0.53286 0.402363 1.25805e-19)
(0.620767 0.359334 -1.98072e-20)
(0.690303 0.310553 -1.75042e-19)
(0.746773 0.265633 2.50655e-19)
(0.793839 0.227048 -4.0481e-19)
(0.83349 0.194309 1.45735e-19)
(0.864718 0.167276 7.37294e-20)
(0.0836222 0.160003 8.69825e-20)
(0.217097 0.305261 1.28103e-19)
(0.356951 0.342932 1.38578e-19)
(0.474842 0.327515 -7.40062e-19)
(0.569782 0.290977 -2.72363e-19)
(0.646768 0.250619 -6.12968e-20)
(0.709881 0.213915 -4.30638e-20)
(0.762407 0.182615 -1.64808e-19)
(0.806397 0.156192 4.77906e-19)
(0.841851 0.134301 1.95463e-19)
(0.0584601 0.120664 2.47792e-19)
(0.171115 0.228277 1.71102e-19)
(0.307553 0.254689 -1.25481e-19)
(0.428981 0.241958 2.23547e-19)
(0.529779 0.214159 -3.42543e-19)
(0.612784 0.184005 8.64138e-21)
(0.681175 0.156821 -2.63845e-20)
(0.738 0.133761 -6.60374e-20)
(0.785452 0.114357 -7.25232e-20)
(0.824378 0.0982102 3.20715e-21)
(0.040596 0.075035 -4.6782e-20)
(0.138836 0.14117 6.93172e-20)
(0.273164 0.156795 6.25937e-20)
(0.397267 0.148444 8.39426e-20)
(0.502255 0.13107 6.72903e-20)
(0.58948 0.112437 -1.76442e-19)
(0.661532 0.0957343 -4.86759e-21)
(0.721324 0.081613 -2.81621e-20)
(0.771182 0.0697525 -1.23896e-19)
(0.812572 0.0598462 -1.03108e-19)
(0.031328 0.02546 -1.556e-20)
(0.122201 0.0477682 1.07146e-19)
(0.255526 0.0529372 1.35484e-19)
(0.381064 0.0500328 1.38006e-19)
(0.488233 0.0441238 7.98018e-20)
(0.577632 0.0378217 -5.8112e-20)
(0.651558 0.0321882 -1.67687e-19)
(0.712862 0.0274331 2.9182e-20)
(0.763953 0.0234427 -1.40418e-20)
(0.806621 0.0201026 3.38157e-20)
(0.031328 -0.02546 7.51017e-20)
(0.122201 -0.0477682 1.1247e-19)
(0.255526 -0.0529372 -3.728e-20)
(0.381064 -0.0500328 -5.43003e-20)
(0.488233 -0.0441238 6.62908e-20)
(0.577632 -0.0378217 6.07491e-20)
(0.651558 -0.0321882 1.67687e-19)
(0.712862 -0.0274331 -5.95022e-20)
(0.763953 -0.0234427 -5.60461e-20)
(0.806621 -0.0201026 7.35959e-21)
(0.040596 -0.075035 1.05071e-19)
(0.138836 -0.14117 8.07531e-20)
(0.273164 -0.156795 -6.92084e-20)
(0.397267 -0.148444 -1.55564e-19)
(0.502255 -0.13107 -1.52757e-19)
(0.58948 -0.112437 -2.03857e-19)
(0.661532 -0.0957343 1.37211e-19)
(0.721324 -0.081613 -5.99514e-20)
(0.771182 -0.0697525 -1.44457e-20)
(0.812572 -0.0598462 -1.76726e-20)
(0.0584601 -0.120664 -2.54473e-20)
(0.171115 -0.228277 -1.18609e-19)
(0.307553 -0.254689 -2.37519e-19)
(0.428981 -0.241958 9.82715e-20)
(0.529779 -0.214159 -2.13468e-19)
(0.612784 -0.184005 1.96126e-19)
(0.681175 -0.156821 -1.62966e-19)
(0.738 -0.133761 -1.0345e-20)
(0.785452 -0.114357 2.47746e-19)
(0.824378 -0.0982102 1.75104e-19)
(0.0836222 -0.160003 -4.27155e-19)
(0.217097 -0.305261 -5.50261e-19)
(0.356951 -0.342932 1.32824e-19)
(0.474842 -0.327515 4.06181e-19)
(0.569782 -0.290977 7.57602e-19)
(0.646768 -0.250619 2.34165e-19)
(0.709881 -0.213915 1.00073e-19)
(0.762407 -0.182615 5.40821e-19)
(0.806397 -0.156192 -9.97575e-20)
(0.841851 -0.134301 -2.81983e-19)
(0.114247 -0.191124 6.489e-20)
(0.273998 -0.368822 1.2094e-19)
(0.418827 -0.418258 -4.42763e-19)
(0.53286 -0.402363 1.376e-19)
(0.620767 -0.359334 2.9926e-20)
(0.690303 -0.310553 -5.11796e-19)
(0.746773 -0.265633 -3.81381e-19)
(0.793839 -0.227048 2.23611e-19)
(0.83349 -0.194309 -5.51282e-19)
(0.864718 -0.167276 -5.75043e-20)
(0.14809 -0.212641 -2.06958e-19)
(0.338331 -0.416374 -1.73365e-19)
(0.489966 -0.477966 -9.91883e-20)
(0.600481 -0.464153 -6.20978e-20)
(0.680808 -0.41734 5.69684e-20)
(0.741939 -0.362317 5.83881e-19)
(0.790722 -0.310786 1.77798e-19)
(0.831374 -0.266089 2.54718e-19)
(0.866026 -0.227888 -2.19229e-19)
(0.892644 -0.196379 -4.45789e-20)
(0.182656 -0.223804 8.242e-20)
(0.406086 -0.446188 2.23342e-19)
(0.566593 -0.520049 -5.32022e-20)
(0.67467 -0.511035 1.1117e-19)
(0.74761 -0.463472 1.6749e-19)
(0.799962 -0.404716 -7.55152e-20)
(0.840438 -0.34846 -2.29235e-19)
(0.873983 -0.299084 -1.42731e-20)
(0.903201 -0.25653 1.30015e-19)
(0.925434 -0.221493 3.67486e-20)
(0.215386 -0.224546 -3.46963e-20)
(0.472961 -0.457504 -3.93746e-20)
(0.644525 -0.54329 9.06176e-20)
(0.751993 -0.541726 -2.03969e-19)
(0.818539 -0.49661 -1.55329e-19)
(0.862357 -0.436856 2.19047e-19)
(0.894308 -0.377914 5.13609e-19)
(0.92011 -0.325298 -1.06785e-19)
(0.942961 -0.279303 8.04388e-20)
(0.961473 -0.24124 -1.1791e-19)
(0.24385 -0.215493 -1.13004e-19)
(0.534601 -0.45058 3.62983e-20)
(0.719359 -0.547328 -4.22851e-20)
(0.82874 -0.555551 9.31391e-20)
(0.890711 -0.516057 2.48762e-19)
(0.926931 -0.458171 5.21608e-19)
(0.950696 -0.398781 -1.4825e-20)
(0.968763 -0.344951 1.0866e-20)
(0.98436 -0.298848 8.13596e-20)
(1.00003 -0.261483 -4.53649e-20)
(0.265954 -0.197902 4.09727e-20)
(0.586853 -0.426677 5.36922e-20)
(0.786682 -0.532705 -1.60823e-20)
(0.901061 -0.552473 1.86104e-20)
(0.961112 -0.521508 6.30892e-20)
(0.991462 -0.468284 4.98807e-20)
(1.00796 -0.410584 -1.24684e-19)
(1.01887 -0.356892 4.4451e-20)
(1.02769 -0.310484 1.30416e-19)
(1.03746 -0.270531 -1.26845e-19)
(0.280046 -0.173489 9.91779e-20)
(0.626016 -0.387997 -6.04058e-21)
(0.842292 -0.500908 -6.19448e-20)
(0.965115 -0.53314 -2.60858e-20)
(1.02661 -0.513139 -1.36614e-20)
(1.05364 -0.467265 3.8187e-20)
(1.06442 -0.413466 -8.04466e-21)
(1.06911 -0.361473 -1.18564e-19)
(1.0719 -0.315787 -9.69884e-20)
(1.07557 -0.275663 -1.0316e-19)
(0.285167 -0.144438 2.41085e-20)
(0.649347 -0.337812 -6.00248e-20)
(0.882283 -0.454302 -2.34786e-19)
(1.017 -0.498742 3.52425e-20)
(1.08407 -0.49158 9.14355e-20)
(1.111 -0.455517 -3.6357e-21)
(1.11827 -0.407813 5.60505e-20)
(1.118 -0.359188 -2.27727e-20)
(1.11559 -0.315352 8.60219e-20)
(1.11357 -0.276401 1.06798e-19)
(0.281058 -0.11316 -1.50016e-19)
(0.655119 -0.279771 -4.7896e-20)
(0.903606 -0.395788 -2.03251e-19)
(1.05309 -0.45137 -1.24195e-19)
(1.1301 -0.457994 -6.92153e-20)
(1.16098 -0.433572 3.09892e-20)
(1.16754 -0.394 2.62291e-20)
(1.16402 -0.350362 2.11433e-21)
(1.15746 -0.309405 6.5606e-21)
(1.15052 -0.272492 -7.46599e-21)
(0.268134 -0.081961 1.39234e-19)
(0.642591 -0.217935 -2.47404e-19)
(0.904214 -0.329152 2.18602e-20)
(1.07043 -0.393563 -1.38643e-19)
(1.16141 -0.413784 3.10736e-20)
(1.20073 -0.402236 4.21955e-21)
(1.21019 -0.372494 -3.35884e-23)
(1.20578 -0.335439 -1.11751e-20)
(1.19647 -0.298387 7.5906e-21)
(1.1859 -0.264373 -5.279e-21)
(0.247493 -0.0529293 -2.97847e-20)
(0.61238 -0.156476 1.54992e-19)
(0.883084 -0.258537 -4.15526e-20)
(1.06654 -0.328343 1.0413e-19)
(1.17498 -0.360816 -5.60173e-21)
(1.22733 -0.362557 8.58684e-20)
(1.24397 -0.343926 -2.43842e-20)
(1.24175 -0.314853 -2.56299e-20)
(1.23162 -0.282965 6.99968e-21)
(1.21885 -0.252477 -3.99263e-21)
(0.220789 -0.0277626 -4.71958e-20)
(0.566435 -0.0992853 9.5792e-20)
(0.840573 -0.188268 2.23935e-20)
(1.0399 -0.259247 4.00445e-20)
(1.1681 -0.301404 -3.08777e-20)
(1.23778 -0.315803 5.89945e-20)
(1.26624 -0.308936 -3.80163e-20)
(1.27006 -0.289004 -1.66111e-20)
(1.26168 -0.263407 1.94319e-20)
(1.24814 -0.237109 -1.1833e-20)
(0.19003 -0.00763564 4.99742e-20)
(0.507841 -0.0496295 -1.02038e-19)
(0.778565 -0.122542 2.08392e-20)
(0.990285 -0.190139 -4.70641e-20)
(1.13863 -0.23831 3.29484e-20)
(1.22901 -0.263529 -7.63867e-20)
(1.27396 -0.268232 5.3146e-20)
(1.28832 -0.258159 2.71035e-20)
(1.2851 -0.239759 -2.67804e-20)
(1.27293 -0.218391 5.70847e-22)
(0.157362 0.00686534 1.14898e-19)
(0.440528 -0.00986664 7.96019e-20)
(0.700419 -0.0650641 1.83834e-20)
(0.918991 -0.124979 -4.27813e-20)
(1.08547 -0.174725 8.07004e-21)
(1.19818 -0.207722 -1.36227e-19)
(1.26369 -0.22274 3.84755e-20)
(1.29346 -0.222624 4.96478e-20)
(1.29972 -0.212143 -8.2611e-20)
(1.29214 -0.196393 7.95996e-22)
(0.124846 0.0157313 -1.18605e-20)
(0.368863 0.0187368 5.82406e-20)
(0.610747 -0.0186834 -1.05085e-19)
(0.829066 -0.0674956 2.18751e-19)
(1.00906 -0.114172 -2.70407e-19)
(1.1432 -0.150909 -2.64633e-20)
(1.2318 -0.173803 -1.9214e-20)
(1.28155 -0.182856 7.33141e-20)
(1.30232 -0.180627 9.21039e-20)
(1.3036 -0.170976 5.8017e-20)
(0.0942642 0.0194507 -4.20074e-20)
(0.297188 0.036054 -9.1126e-20)
(0.51498 0.0149204 5.93102e-20)
(0.725249 -0.0207709 2.74163e-19)
(0.911826 -0.060247 -2.69472e-19)
(1.06346 -0.096181 -4.02519e-19)
(1.17508 -0.123395 -2.3522e-19)
(1.24802 -0.139687 -2.4796e-19)
(1.28829 -0.145308 1.20655e-19)
(1.30354 -0.141825 -1.781e-20)
(0.0669785 0.0188799 -9.83192e-20)
(0.229371 0.0429994 9.4567e-20)
(0.418758 0.0354108 -7.33318e-20)
(0.613583 0.0132089 -1.55811e-19)
(0.798404 -0.0161469 -4.30309e-19)
(0.960678 -0.0469867 -2.3064e-19)
(1.09181 -0.0742741 2.46302e-19)
(1.1884 -0.0946973 -9.40133e-20)
(1.2519 -0.106709 2.9166e-19)
(1.28641 -0.108492 1.74852e-19)
(0.0438685 0.0150939 -7.66447e-19)
(0.168453 0.0413107 -1.40742e-19)
(0.327263 0.0437812 3.62332e-19)
(0.500677 0.033896 1.34356e-19)
(0.675315 0.0159247 4.22324e-20)
(0.839388 -0.00660602 2.87272e-19)
(0.98305 -0.0298278 6.05101e-20)
(1.09983 -0.0505166 -4.08049e-19)
(1.18731 -0.0664726 -1.82717e-19)
(1.24495 -0.0716705 -1.88569e-19)
(0.0253359 0.00924499 8.35712e-19)
(0.116445 0.0332601 -3.31095e-19)
(0.244634 0.0421473 1.88823e-19)
(0.392774 0.0422908 5.0013e-20)
(0.550057 0.0352886 2.02294e-19)
(0.706673 0.022633 2.50545e-19)
(0.853434 0.00660009 -2.50753e-19)
(0.982875 -0.0105607 1.86305e-19)
(1.09055 -0.0275629 2.6855e-19)
(1.17006 -0.0334206 4.68651e-20)
(0.0113698 0.00245239 3.74247e-19)
(0.074293 0.0213541 7.79835e-20)
(0.173591 0.0333869 1.16037e-19)
(0.29488 0.040747 2.74713e-20)
(0.429844 0.0430064 5.52024e-19)
(0.571014 0.0400731 9.3197e-19)
(0.710913 0.0327445 -2.30327e-20)
(0.842632 0.0219853 1.79885e-19)
(0.961341 0.00667345 2.68507e-19)
(1.05376 -0.00663913 -2.71381e-19)
(0.00164315 -0.00426716 -2.48389e-19)
(0.041978 0.00806062 1.01047e-20)
(0.115345 0.020698 5.10171e-19)
(0.210221 0.032497 4.11734e-20)
(0.320449 0.0416239 -7.44263e-20)
(0.440682 0.0469675 2.48716e-19)
(0.565366 0.04834 2.25516e-19)
(0.68861 0.0461145 1.96739e-19)
(0.804811 0.0392383 1.10764e-19)
(0.913214 0.015487 -2.61037e-19)
(-0.00439567 -0.0100437 1.863e-19)
(0.018712 -0.00441534 2.76421e-19)
(0.0697485 0.00715254 1.73934e-20)
(0.14014 0.0210124 1.10534e-19)
(0.225535 0.0344515 1.90413e-19)
(0.322303 0.0458211 -8.5633e-20)
(0.426675 0.054391 5.59265e-19)
(0.534315 0.0600926 -8.45424e-20)
(0.640649 0.0620959 9.97114e-20)
(0.753808 0.0437454 -2.80402e-19)
(-0.00743991 -0.0141872 -7.41901e-20)
(0.00318333 -0.0142966 -3.26179e-19)
(0.0356425 -0.00467459 8.72604e-20)
(0.0843798 0.00940942 2.09825e-19)
(0.146573 0.024793 2.16256e-19)
(0.219893 0.0396263 -3.5558e-19)
(0.301964 0.0529429 4.71416e-20)
(0.389856 0.0642773 1.89427e-19)
(0.480613 0.0722261 -3.12946e-19)
(0.58335 0.062802 -4.13101e-19)
(-0.00825482 -0.0162246 3.63767e-19)
(-0.00621443 -0.0203665 7.98208e-20)
(0.0112631 -0.0129511 -2.88965e-19)
(0.0416319 2.86721e-05 9.92983e-20)
(0.0833713 0.0153462 1.4561e-20)
(0.135109 0.0311754 -3.53119e-19)
(0.195419 0.0464944 -4.13102e-21)
(0.262398 0.0605351 1.0633e-19)
(0.334564 0.0712806 -1.00454e-19)
(0.418093 0.0683902 2.50907e-19)
(-0.00762838 -0.0159248 -5.28089e-20)
(-0.0111733 -0.022067 3.26048e-20)
(-0.00534445 -0.0167263 2.31189e-19)
(0.0101474 -0.00577878 3.96288e-19)
(0.0348788 0.00784717 1.64874e-19)
(0.0681791 0.0225236 2.40375e-19)
(0.109258 0.0372889 3.3042e-19)
(0.156939 0.0512336 9.96856e-20)
(0.210637 0.0621948 1.44485e-19)
(0.273044 0.0627188 -1.73243e-20)
(-0.00633962 -0.0133437 -1.14486e-19)
(-0.0132848 -0.0194743 -9.01662e-20)
(-0.0160045 -0.0159368 6.58984e-20)
(-0.0117966 -0.00766705 -1.19482e-19)
(-0.000176994 0.00299611 1.88241e-19)
(0.018692 0.0147823 -5.0783e-22)
(0.0444456 0.0268812 -1.90993e-20)
(0.0763961 0.0384407 1.06601e-19)
(0.114248 0.0476053 7.2784e-20)
(0.158147 0.0492003 7.80099e-22)
(-0.00505731 -0.00885718 1.66596e-20)
(-0.0138809 -0.0132803 -3.48586e-20)
(-0.0222287 -0.0112828 -3.04871e-20)
(-0.0256159 -0.0061377 -3.43939e-20)
(-0.0229004 0.000640501 1.71441e-20)
(-0.0139104 0.00824263 -1.0559e-19)
(0.00125397 0.0161267 3.29884e-22)
(0.0221986 0.0236842 6.95687e-20)
(0.0485734 0.0296701 6.9592e-20)
(0.0791152 0.0310043 2.27644e-20)
(-0.0042812 -0.00310103 6.44129e-21)
(-0.0139261 -0.00470418 -4.69775e-20)
(-0.0250699 -0.00406016 -5.98914e-20)
(-0.0322774 -0.00231365 -6.3641e-20)
(-0.0340664 1.19257e-05 2.69069e-21)
(-0.0300923 0.00263365 2.89088e-20)
(-0.0203179 0.00536565 -1.71476e-20)
(-0.00502495 0.00798629 -1.51709e-20)
(0.0153461 0.0100537 7.77255e-21)
(0.0389559 0.0105485 -3.27496e-20)
(0.0635457 -0.00657511 -2.00051e-21)
(0.0823187 -0.00756908 -6.23956e-21)
(0.112091 -0.00812918 -1.74101e-21)
(0.141607 -0.00837203 -3.41572e-21)
(0.171957 -0.00854322 -3.86501e-21)
(0.203058 -0.00857027 -4.63223e-21)
(0.234168 -0.00844576 1.64986e-21)
(0.264767 -0.00820561 2.82831e-21)
(0.294495 -0.00788453 6.31195e-22)
(0.323096 -0.00751196 -3.44217e-22)
(0.35041 -0.00711197 -1.86782e-21)
(0.376352 -0.00670266 2.9028e-22)
(0.400896 -0.00629685 5.98345e-22)
(0.424056 -0.00590307 -3.0441e-22)
(0.445872 -0.00552697 -5.95151e-22)
(0.466406 -0.00517139 -4.28736e-22)
(0.48571 -0.00483886 -9.1629e-23)
(0.503907 -0.00452772 -9.70662e-23)
(0.520939 -0.00424282 -7.50659e-23)
(0.537232 -0.00397022 -1.75235e-23)
(0.551941 -0.00373997 3.37448e-24)
(0.567478 -0.00346996 -2.10151e-23)
(0.577962 -0.00334416 -1.43425e-24)
(0.598343 -0.00292662 8.39128e-24)
(0.106036 -0.0194249 -1.71041e-20)
(0.121251 -0.022235 2.00767e-20)
(0.149669 -0.023952 3.02227e-20)
(0.177922 -0.0247104 5.51533e-21)
(0.206799 -0.025216 5.47645e-21)
(0.236352 -0.0252857 4.92536e-21)
(0.265845 -0.0249066 4.90632e-21)
(0.294782 -0.0241882 8.60937e-21)
(0.322845 -0.0232344 4.63082e-21)
(0.349811 -0.0221321 -2.9586e-21)
(0.375545 -0.0209516 1.25658e-21)
(0.399978 -0.0197456 2.70471e-21)
(0.423094 -0.0185512 -7.79808e-22)
(0.44491 -0.017393 -2.03641e-21)
(0.465467 -0.0162873 -2.1157e-21)
(0.484825 -0.0152421 -4.72656e-22)
(0.503032 -0.0142651 1.08734e-21)
(0.520208 -0.0133507 3.21065e-22)
(0.53629 -0.0125142 2.16669e-22)
(0.551698 -0.0117127 1.55152e-22)
(0.565593 -0.0110384 1.91169e-23)
(0.580342 -0.0102441 -1.76881e-23)
(0.590219 -0.00987733 -6.68507e-24)
(0.609657 -0.00866297 -1.12541e-23)
(0.18825 -0.0311888 -5.52666e-20)
(0.196976 -0.0354891 2.56779e-20)
(0.222394 -0.0384504 5.86285e-20)
(0.248082 -0.0398149 4.01898e-20)
(0.274005 -0.0406427 9.91798e-22)
(0.300452 -0.0407283 -7.37319e-21)
(0.326734 -0.0400861 3.65687e-21)
(0.352406 -0.0389034 1.35612e-21)
(0.377226 -0.0373514 -5.8614e-21)
(0.401032 -0.0355696 -2.084e-21)
(0.423729 -0.0336695 -7.605e-22)
(0.445276 -0.0317332 -1.74972e-21)
(0.465668 -0.0298186 3.72505e-21)
(0.484929 -0.027964 1.43356e-21)
(0.503096 -0.0261947 1.17461e-21)
(0.520225 -0.0245228 1.03393e-21)
(0.536356 -0.0229607 3.44037e-22)
(0.551599 -0.0214982 2.95962e-22)
(0.565885 -0.0201628 3.27224e-22)
(0.579618 -0.0188797 5.12531e-22)
(0.591977 -0.0178083 2.28391e-22)
(0.605231 -0.0165354 2.62995e-23)
(0.613967 -0.0159577 -2.23575e-23)
(0.631607 -0.0140552 1.85679e-23)
(0.304797 -0.0406086 9.07507e-20)
(0.305225 -0.0464065 1.66705e-20)
(0.325671 -0.0507164 -5.38148e-20)
(0.347371 -0.0528239 -4.17885e-20)
(0.36884 -0.0539859 -6.84902e-21)
(0.390617 -0.0540681 -3.74242e-20)
(0.412151 -0.0531737 -3.2691e-20)
(0.43308 -0.0515732 -3.33363e-20)
(0.453257 -0.0494975 -1.86689e-20)
(0.472594 -0.0471308 -1.4058e-20)
(0.491039 -0.0446171 -1.2796e-20)
(0.508572 -0.0420619 -3.26541e-21)
(0.525199 -0.039539 4.44763e-22)
(0.54094 -0.037097 1.63655e-22)
(0.555826 -0.0347686 -9.54115e-22)
(0.569901 -0.0325685 -2.51491e-21)
(0.583194 -0.0305142 -2.36289e-21)
(0.595796 -0.0285893 -1.06654e-21)
(0.607632 -0.0268362 -2.39231e-22)
(0.619077 -0.0251449 3.55467e-22)
(0.629347 -0.0237481 5.12654e-23)
(0.640548 -0.022069 -1.87494e-23)
(0.64775 -0.0213245 -6.58961e-23)
(0.662903 -0.0188958 2.86597e-23)
(0.447838 -0.0459449 4.81729e-21)
(0.439658 -0.0541034 1.25116e-19)
(0.453135 -0.059857 2.9838e-20)
(0.469216 -0.0628308 3.59085e-21)
(0.484685 -0.0643859 -8.03738e-21)
(0.500256 -0.0644921 -1.38119e-20)
(0.515623 -0.0634132 -9.32047e-22)
(0.530543 -0.0615044 1.6828e-20)
(0.544962 -0.0590421 -2.41081e-21)
(0.558844 -0.0562429 -2.09721e-20)
(0.572163 -0.0532742 -1.70293e-20)
(0.584906 -0.0502578 2.32032e-22)
(0.597071 -0.0472796 9.02413e-21)
(0.608665 -0.0443956 3.25937e-21)
(0.619701 -0.0416448 7.36893e-22)
(0.630203 -0.0390436 7.79724e-22)
(0.64018 -0.0366156 -9.22928e-22)
(0.649703 -0.034337 5.93192e-22)
(0.658687 -0.0322685 1.96224e-21)
(0.667463 -0.0302618 2.78987e-22)
(0.675312 -0.0286274 1.53749e-22)
(0.684103 -0.026635 -1.18723e-22)
(0.689554 -0.0257753 2.30393e-23)
(0.70176 -0.0230114 -5.47631e-23)
(0.607405 -0.0453632 -3.01518e-20)
(0.59218 -0.057605 -8.70147e-20)
(0.597082 -0.0649045 -9.75921e-20)
(0.605614 -0.0688696 -4.48161e-20)
(0.613461 -0.0709657 8.38631e-21)
(0.621416 -0.0712435 -1.67e-20)
(0.629453 -0.0701661 3.40008e-21)
(0.63745 -0.0681641 1.84439e-20)
(0.645396 -0.0655411 -2.30843e-21)
(0.653265 -0.0625336 -6.37167e-21)
(0.661017 -0.0593245 5.40508e-21)
(0.668613 -0.0560484 1.21886e-21)
(0.676023 -0.0528013 -9.26281e-21)
(0.683225 -0.0496465 -4.22451e-21)
(0.690202 -0.0466301 2.78821e-21)
(0.696949 -0.0437709 2.53882e-21)
(0.703452 -0.0411 -6.14361e-22)
(0.709751 -0.0385868 -9.43732e-22)
(0.715758 -0.036313 1.02082e-22)
(0.72174 -0.0340926 1.26473e-21)
(0.727081 -0.0323117 1.95179e-22)
(0.733323 -0.0301092 -1.42864e-22)
(0.736999 -0.0291858 -8.58726e-23)
(0.746056 -0.0262764 -5.84963e-24)
(0.772864 -0.0384824 -2.4895e-20)
(0.753799 -0.0567964 -1.19505e-19)
(0.74871 -0.0656365 -1.09444e-19)
(0.747422 -0.0706878 -1.76798e-20)
(0.746067 -0.0735079 1.26327e-19)
(0.745356 -0.0742178 5.2812e-20)
(0.74539 -0.0734351 1.4088e-20)
(0.746085 -0.0716283 9.42249e-21)
(0.747384 -0.0691133 -2.64636e-20)
(0.749197 -0.0661398 1.38629e-20)
(0.751423 -0.0629058 -2.65076e-21)
(0.753966 -0.0595606 -1.57265e-20)
(0.756745 -0.0562138 1.93052e-21)
(0.759693 -0.0529397 7.41062e-21)
(0.762758 -0.0497939 4.24351e-22)
(0.765895 -0.0468003 9.37843e-22)
(0.769071 -0.0439995 -4.9527e-22)
(0.772284 -0.0413559 1.46799e-21)
(0.775454 -0.0389722 1.9733e-21)
(0.77876 -0.03663 8.64336e-22)
(0.781734 -0.0347804 3.10262e-23)
(0.785506 -0.0324672 1.37384e-23)
(0.78756 -0.0315198 6.25638e-23)
(0.793524 -0.0286269 4.20143e-24)
(0.93749 -0.0282345 3.10723e-20)
(0.915653 -0.0508651 7.21905e-20)
(0.898192 -0.0607371 -4.06578e-20)
(0.884691 -0.0672121 -8.04427e-20)
(0.873041 -0.0712977 2.86656e-20)
(0.863374 -0.0730443 -1.7488e-21)
(0.855526 -0.073077 -1.35671e-20)
(0.849261 -0.0718813 2.47006e-20)
(0.844369 -0.0698059 -6.30126e-21)
(0.840633 -0.0671341 -9.52668e-21)
(0.837852 -0.0640955 -6.21853e-21)
(0.83585 -0.060867 -1.2383e-20)
(0.83449 -0.0575813 -3.37442e-21)
(0.833652 -0.05433 4.64106e-21)
(0.833247 -0.0511831 -3.3755e-21)
(0.833194 -0.0481723 -6.20816e-21)
(0.833437 -0.0453492 1.71997e-22)
(0.833933 -0.0426767 4.77259e-22)
(0.834622 -0.0402741 -8.04647e-23)
(0.835572 -0.0379053 -2.4611e-22)
(0.836507 -0.0360546 1.95456e-22)
(0.838072 -0.0337424 3.16831e-22)
(0.838795 -0.032788 -4.29776e-25)
(0.841943 -0.03006 -1.48444e-23)
(1.15725 0.00424453 0)
(1.11336 -0.0207545 0)
(1.07651 -0.0359064 0)
(1.04756 -0.0473914 0)
(1.02462 -0.0553062 0)
(1.00586 -0.0601207 -2.9346e-28)
(0.990221 -0.062643 -2.93461e-28)
(0.977118 -0.0634934 0)
(0.96612 -0.0631062 0)
(0.956853 -0.0618168 0)
(0.94901 -0.0599005 0)
(0.94234 -0.0575779 0)
(0.936648 -0.0550217 0)
(0.931772 -0.0523569 0)
(0.927592 -0.0496842 0)
(0.923991 -0.047058 0)
(0.920905 -0.0445531 0)
(0.918238 -0.0421443 0)
(0.915983 -0.0399684 0)
(0.914041 -0.0378035 0)
(0.912461 -0.0361134 0)
(0.911147 -0.0340374 0)
(0.910171 -0.0331132 0)
(0.9095 -0.0308579 0)
(1.25642 0.0361828 0)
(1.23274 0.00994291 0)
(1.20514 -0.0101389 0)
(1.17974 -0.0253442 0)
(1.15749 -0.03631 0)
(1.1376 -0.0437436 0)
(1.11964 -0.0484536 0)
(1.10355 -0.0511285 0)
(1.08926 -0.0522839 0)
(1.07657 -0.0523129 0)
(1.06529 -0.0515299 0)
(1.05524 -0.0501841 0)
(1.04626 -0.0484725 0)
(1.0382 -0.0465393 0)
(1.03095 -0.0445035 0)
(1.02439 -0.0424346 0)
(1.01847 -0.0404203 0)
(1.01305 -0.0384527 0)
(1.0082 -0.0366609 0)
(1.00362 -0.0348841 0)
(0.999779 -0.0334709 0)
(0.995703 -0.0318508 0)
(0.993185 -0.0310113 0)
(0.988667 -0.0294844 0)
(1.28324 0.0488974 0)
(1.2736 0.0246828 0)
(1.25733 0.0055262 0)
(1.24063 -0.00926796 0)
(1.22465 -0.020495 0)
(1.20916 -0.028744 8.09029e-28)
(1.19415 -0.0345327 8.09029e-28)
(1.1799 -0.0383524 0)
(1.1666 -0.0406301 0)
(1.1543 -0.0417187 0)
(1.14295 -0.0419106 0)
(1.13251 -0.0414462 0)
(1.12289 -0.0405228 0)
(1.11403 -0.0392917 0)