/*--------------------------------*- C++ -*----------------------------------*\
  =========                 |
  \\      /  F ield         | OpenFOAM: The Open Source CFD Toolbox
   \\    /   O peration     | Website:  https://openfoam.org
    \\  /    A nd           | Version:  7
     \\/     M anipulation  |
\*---------------------------------------------------------------------------*/
FoamFile
{
    version     2.0;
    format      ascii;
    class       surfaceScalarField;
    location    "20";
    object      phi;
}
// * * * * * * * * * * * * * * * * * * * * * * * * * * * * * * * * * * * * * //

dimensions      [0 3 -1 0 0 0 0];

internalField   nonuniform List<scalar> 
618
(
-0.00428868
-2.37283e-05
-2.80182e-06
-0.00364114
-3.7225e-05
-0.00384345
-7.59027e-05
-0.00404532
-0.00424618
-0.000118409
-1.07541e-05
-0.00320941
-4.21574e-05
-0.00340714
-7.84871e-05
-0.00360481
-0.000119371
-0.00380257
-0.000164364
-1.37858e-05
-0.00279141
-4.07858e-05
-0.00298442
-7.32179e-05
-0.00317698
-0.000110969
-0.00336939
-0.000153729
2.18892e-06
-0.00219793
-1.46418e-05
-0.00238715
-3.65009e-05
-0.00257601
-6.37406e-05
-0.00276417
-9.65825e-05
-0.00295158
-0.000135081
-2.22005e-06
-0.00181225
-1.47605e-05
-0.00199641
-3.16553e-05
-0.00218104
-5.34019e-05
-0.0023654
-8.04337e-05
-0.00254898
-0.000113094
-5.21383e-06
-0.00144279
-1.43394e-05
-0.00162031
-2.70268e-05
-0.00179956
-4.38142e-05
-0.00197962
-6.52169e-05
-0.00215964
-9.17121e-05
-6.42749e-06
-0.00109254
-1.30209e-05
-0.00126139
-2.24159e-05
-0.0014334
-3.51327e-05
-0.00160759
-5.16925e-05
-0.001783
-7.26054e-05
-0.00195871
-5.7736e-06
-0.000764777
-1.05211e-05
-0.000922988
-1.74194e-05
-0.00108564
-2.694e-05
-0.00125187
-3.95708e-05
-0.00142077
-5.58065e-05
-0.00159136
-7.61376e-05
-6.99663e-06
-0.00060846
-1.19406e-05
-0.000759833
-1.89332e-05
-0.000915995
-2.84087e-05
-0.00107616
-4.08203e-05
-0.00123946
-5.66317e-05
-0.00140496
-3.19018e-06
-0.000320748
-6.42559e-06
-0.000459325
-1.1278e-05
-0.000603608
-1.81171e-05
-0.000752994
-2.73406e-05
-0.000906772
-3.93673e-05
-0.00106414
-5.46292e-05
-4.31551e-07
-6.21258e-05
-1.91769e-06
-0.000186884
-4.7274e-06
-0.000317938
-9.16405e-06
-0.000454888
-1.5563e-05
-0.000597209
-2.42875e-05
-0.000744269
-3.57234e-05
-0.000895336
-6.04996e-07
-6.15208e-05
-2.60271e-06
-0.000184886
-6.26707e-06
-0.000314274
-1.19025e-05
-0.000449253
-1.98409e-05
-0.000589271
-3.04372e-05
-0.000733673
-7.78827e-07
-6.0742e-05
-3.28802e-06
-0.000182377
-7.80503e-06
-0.000309757
-1.46338e-05
-0.000442424
-2.41011e-05
-9.5252e-07
-5.97895e-05
-3.97159e-06
-0.000179358
-9.33687e-06
-0.000304392
-1.12553e-06
-5.86639e-05
-4.65131e-06
-0.000175832
-1.29722e-06
-5.73667e-05
5.73667e-05
-1.29722e-06
5.86639e-05
0.000175832
-1.12553e-06
5.97895e-05
-4.65131e-06
0.000179358
0.000304392
-9.52519e-07
6.0742e-05
-3.97159e-06
0.000182377
-9.33687e-06
0.000309757
0.000442424
-7.78827e-07
6.15208e-05
-3.28802e-06
0.000184886
-7.80503e-06
0.000314274
-1.46338e-05
0.000449253
-2.41011e-05
0.000589271
0.000733673
-6.04996e-07
6.21258e-05
-2.60271e-06
0.000186884
-6.26707e-06
0.000317938
-1.19025e-05
0.000454888
-1.98409e-05
0.000597209
-3.04372e-05
0.000744269
0.000895336
-4.31551e-07
-1.91769e-06
-4.7274e-06
0.000320748
-9.16405e-06
0.000459325
-1.5563e-05
0.000603608
-2.42875e-05
0.000752994
-3.57234e-05
0.000906772
0.00106414
-3.19018e-06
-6.42559e-06
-1.1278e-05
0.00060846
-1.81171e-05
0.000759833
-2.73406e-05
0.000915996
-3.93673e-05
0.00107616
-5.46292e-05
0.00123946
0.00140496
-6.99663e-06
-1.19406e-05
-1.89332e-05
0.000922988
-2.84087e-05
0.00108564
-4.08203e-05
0.00125187
-5.66317e-05
0.00142077
0.00159136
-1.05211e-05
-1.74194e-05
-2.694e-05
0.00126139
-3.95708e-05
0.0014334
-5.58065e-05
0.00160759
-7.61376e-05
0.001783
0.00195871
-1.30209e-05
-2.24159e-05
0.00144279
-3.51327e-05
0.00162031
-5.16925e-05
0.00179956
-7.26054e-05
0.00197962
-9.83593e-05
0.00215964
0.00233891
-5.21382e-06
-1.43394e-05
-2.70268e-05
0.00181225
-4.38142e-05
0.00199641
-6.52169e-05
0.00218104
-9.17121e-05
0.0023654
0.00254898
-2.22005e-06
-1.47605e-05
-3.16553e-05
-5.34019e-05
0.00238715
-8.04337e-05
0.00257601
-0.000113094
0.00276417
0.00295158
-1.46418e-05
-3.65009e-05
-6.37406e-05
0.00279141
-9.65825e-05
0.00298442
-0.000135081
0.00317698
0.00336939
-1.37858e-05
-4.07858e-05
-7.3218e-05
0.00320941
-0.000110969
0.00340714
-0.000153729
0.00360481
0.00380257
-1.07541e-05
-4.21574e-05
-7.84871e-05
0.00364114
-0.000119371
0.00384345
-0.000164364
0.00404532
0.00424618
-0.000213062
-2.80185e-06
-3.7225e-05
-7.59028e-05
0.00428868
-0.000118409
-2.37283e-05
-9.70972e-05
-0.00904482
-0.000162926
-0.00905742
-0.00021804
-0.00904678
-0.000262861
-0.00903446
-0.000298261
-0.00902418
-0.000325705
-0.00901562
-0.000346469
-0.00900685
-0.000361744
-0.0089967
-0.000372498
-0.00898455
-0.000379472
-0.0089703
-0.000383253
-0.00895419
-0.000384306
-0.00893661
-0.000383004
-0.00891798
-0.000379653
-0.00889865
-0.000374511
-0.00887896
-0.000367788
-0.00885915
-0.000359671
-0.00883942
-0.000350318
-0.00881995
-0.00033987
-0.00880085
-0.000328447
-0.00878223
-0.00876418
-0.000195138
-0.000261964
-0.000316795
-0.000360472
-0.00899079
-0.000394214
-0.00899043
-0.000419638
-0.00899019
-0.000438158
-0.00898833
-0.000451023
-0.00898383
-0.000459238
-0.00897634
-0.000463575
-0.00896596
-0.000464643
-0.00895312
-0.000462925
-0.00893833
-0.000458811
-0.00892209
-0.000452616
-0.00890485
-0.000444607
-0.00888697
-0.000435004
-0.00886875
-0.000423999
-0.00885043
-0.000411755
-0.00883219
-0.000398416
-0.00881419
-0.000384106
-0.00879654
-0.000368935
-0.00877935
-0.000352999
-0.0087627
-0.000336383
-0.00874667
-0.000319163
-0.0087313
-0.000301406
-0.00871667
-0.000283173
-0.00870281
-0.000264515
-0.00868976
-0.000245481
-0.00867757
-0.000226113
-0.00866625
-0.000206451
-0.00865585
-0.000186529
-0.00864637
-0.00016638
-0.00863786
-0.000146031
-0.00863031
-0.00012551
-0.00862375
-0.000104841
-0.00861818
-8.40466e-05
-0.00861363
-6.31464e-05
-0.00861008
-4.21596e-05
-0.00860754
-2.11041e-05
-0.00860599
-0.0086054
-0.000456659
-0.000488756
-0.000512203
-0.00052853
-0.000539037
-0.000544762
-0.000546509
-0.00054491
-0.000540465
-0.000533579
-0.00052458
-0.000513744
-0.0005013
-0.000487445
-0.000472347
-0.000456153
-0.000438993
-0.000420976
-0.000402201
-0.000382757
-0.000362718
-0.000342153
-0.000321122
-0.000299679
-0.000277871
-0.000255743
-0.000233332
-0.000210674
-0.000187799
-0.000164737
-0.000141514
-0.000118153
-9.46776e-05
-7.11068e-05
-4.74586e-05
-2.37503e-05
-7.8929e-05
0.00863365
-5.26647e-05
0.00863119
-2.63499e-05
0.0086297
0.00862915
-0.000292231
0.00896809
-0.000359791
0.0089906
-0.000414169
0.00899195
-0.000456659
0.00899079
-0.000488756
0.00899043
-0.000512203
0.00899019
-0.00052853
0.00898833
-0.000539037
0.00898383
-0.000544762
0.00897634
-0.000546509
0.00896596
-0.00054491
0.00895312
-0.000540465
0.00893833
-0.000533579
0.00892209
-0.00052458
0.00890485
-0.000513744
0.00888697
-0.0005013
0.00886875
-0.000487445
0.00885043
-0.000472347
0.00883219
-0.000456154
0.00881419
-0.000438993
0.00879654
-0.000420976
0.00877935
-0.000402201
0.0087627
-0.000382757
0.00874667
-0.000362718
0.0087313
-0.000342153
0.00871667
-0.000321122
0.00870281
-0.000299679
0.00868976
-0.000277872
0.00867757
-0.000255743
0.00866625
-0.000233332
0.00865585
-0.000210674
0.00864637
-0.000187799
0.00863786
-0.000164737
0.00863031
-0.000141514
0.00862375
-0.000118153
0.00861818
-9.46777e-05
0.00861363
-7.11068e-05
0.00861008
-4.74586e-05
0.00860754
-2.37503e-05
0.00860599
0.0086054
-0.000195138
0.00904482
-0.000261964
0.00905742
-0.000316795
0.00904678
-0.000360472
0.00903446
-0.000394215
0.00902418
-0.000419638
0.00901562
-0.000438158
0.00900685
-0.000451024
0.0089967
-0.000459238
0.00898455
-0.000463575
0.0089703
-0.000464643
0.00895419
-0.000462925
0.00893662
-0.000458811
0.00891798
-0.000452616
0.00889865
-0.000444607
-0.000435004
-0.000423999
-0.000411755
-0.000398416
-0.000384106
-0.000368935
-0.000352999
-0.000336383
-0.000319163
-0.000301406
-0.000283173
-0.000264515
-0.000245481
-0.000226113
-0.000206451
-0.000186529
-0.00016638
-0.000146031
-0.00012551
-0.000104841
-8.40466e-05
-6.31464e-05
-4.21596e-05
-2.11041e-05
-9.70972e-05
-0.000162926
-0.00021804
-0.000262861
-0.000298261
-0.000325705
-0.000346469
-0.000361744
-0.000372498
-0.000379472
-0.000383253
-0.000384306
-0.000383004
)
;

boundaryField
{
    inlet
    {
        type            calculated;
        value           nonuniform 0();
    }
    outlet
    {
        type            calculated;
        value           nonuniform 0();
    }
    cylinder
    {
        type            calculated;
        value           uniform 0;
    }
    top
    {
        type            symmetryPlane;
        value           uniform 0;
    }
    bottom
    {
        type            symmetryPlane;
        value           uniform 0;
    }
    defaultFaces
    {
        type            empty;
        value           nonuniform 0();
    }
    procBoundary9to8
    {
        type            processor;
        value           nonuniform List<scalar> 
161
(
-0.00400033
-0.00419748
-0.000213061
-0.00356205
-0.000201025
-0.00375527
-0.00313848
-0.000179088
-0.00332538
-0.00273151
-0.000151604
-0.00291307
-0.00233891
-0.000123721
-0.00251697
-9.83593e-05
-0.00213388
-0.00176267
-0.000101042
-0.00193381
-7.63073e-05
-0.00157168
-0.0012242
-7.35621e-05
-0.00138602
-5.02716e-05
-0.00104959
-4.40633e-05
-0.00088171
-0.000579803
-3.65519e-05
-0.000721222
-1.73503e-05
-0.000434411
-1.08579e-05
-0.000298185
-5.32473e-06
-0.000171805
-1.46689e-06
-5.58998e-05
-5.58998e-05
-1.46689e-06
-0.000171805
-5.32473e-06
-0.000298185
-1.08579e-05
-0.000434411
-1.73503e-05
-0.000579803
-0.000721222
-3.65519e-05
-0.00088171
-4.40633e-05
-0.00104959
-5.02716e-05
-0.0012242
-0.00138602
-7.35621e-05
-0.00157168
-7.63073e-05
-0.00176267
-0.00193381
-0.000101042
-0.00213388
-0.00230786
-0.000129409
-0.00251697
-0.000123721
-0.00273151
-0.00291307
-0.000151604
-0.00313848
-0.00332538
-0.000179088
-0.00356205
-0.00375527
-0.000201025
-0.00400033
-0.00419748
-0.00896809
-0.0089906
-0.00899195
0.000414169
-0.00894829
-0.00895834
-0.00896675
-0.008972
-0.00897332
-0.00897061
-0.00896421
-0.00895472
-0.00894278
-0.00892898
-0.00891384
-0.0088978
-0.00888119
-0.00886428
-0.00884729
-0.00883038
-0.0088137
-0.00879737
-0.00878148
-0.00876611
-0.00875134
-0.00873723
-0.00872384
-0.0087112
-0.00869937
-0.00868838
-0.00867826
-0.00866903
-0.00866073
-0.00865337
-0.00864697
-0.00864154
-0.0086371
-0.00863365
-0.00863119
-0.0086297
-0.00862915
-0.00865985
-0.00865746
-0.00865602
-0.0086555
-0.00888892
-0.00892304
-0.00893758
-0.0089483
-0.00895834
-0.00896675
-0.008972
-0.00897332
-0.00897061
-0.00896421
-0.00895472
-0.00894278
-0.00892898
-0.00891385
-0.0088978
-0.00888119
-0.00886428
-0.00884729
-0.00883038
-0.0088137
-0.00879737
-0.00878148
-0.00876611
-0.00875134
-0.00873723
-0.00872384
-0.00871121
-0.00869937
-0.00868838
-0.00867826
-0.00866903
-0.00866073
-0.00865337
-0.00864697
-0.00864154
0.000105126
-0.0086371
)
;
    }
    procBoundary9to10
    {
        type            processor;
        value           nonuniform List<scalar> 
152
(
0.00432532
0.00367097
0.00387787
-1.29114e-05
0.004084
0.00323566
-2.70338e-05
0.00343855
0.00281305
-1.54872e-05
0.00301142
0.00221018
0.00240398
-7.85732e-06
0.00259787
0.00182098
-1.44404e-05
0.00200895
0.0014489
-6.50516e-06
0.00162943
0.00109684
-8.96621e-07
0.00126799
0.00076782
2.12717e-06
0.000927736
2.73038e-06
0.000611763
0.000322703
3.69428e-06
0.00046256
6.25574e-05
1.23483e-06
0.00018837
6.25574e-05
0.00018837
1.23483e-06
0.000322703
0.00046256
3.69428e-06
0.000611763
0.000764777
5.77359e-06
0.000927736
0.00109254
6.42749e-06
0.00126799
-8.96622e-07
0.0014489
0.00162943
-6.50516e-06
0.00182098
0.00200895
0.00219793
-2.18892e-06
0.00240398
0.00259787
-7.85731e-06
0.00281305
0.00301142
-1.54872e-05
0.00323566
0.00343855
-2.70337e-05
0.00367097
0.00387787
0.004084
-1.29114e-05
0.00432532
0.00911819
0.00912325
0.0091019
0.00907928
0.00905958
0.00904306
0.00902761
0.00901197
0.00899531
0.00897727
0.00895797
0.00893767
0.00891668
0.0088953
0.00887382
0.00885242
0.0088313
0.00881059
0.0087904
0.00877081
0.00875189
-0.000316157
0.00874677
0.00873005
0.00871408
0.00869891
0.00868457
0.0086711
0.00865853
0.00864688
0.00863618
0.00862645
0.00861771
0.00860996
0.00860323
0.00859751
0.00859283
0.00858918
0.00858656
0.00858494
0.0085843
0.00887896
0.00885915
0.00883942
0.00881995
0.00880085
0.00878223
0.00876418
0.00874677
0.00873005
0.00871408
0.00869891
0.00868457
0.0086711
0.00865853
0.00864688
0.00863618
0.00862645
0.00861771
0.00860996
0.00860323
0.00859751
0.00859283
0.00858918
0.00858656
0.00858494
0.0085843
0.00911819
0.00912325
0.0091019
0.00907928
0.00905958
0.00904306
0.00902761
0.00901197
0.00899531
0.00897727
0.00895797
0.00893767
0.00891668
-0.000379653
0.0088953
)
;
    }
}


// ************************************************************************* //
