/*--------------------------------*- C++ -*----------------------------------*\
  =========                 |
  \\      /  F ield         | OpenFOAM: The Open Source CFD Toolbox
   \\    /   O peration     | Website:  https://openfoam.org
    \\  /    A nd           | Version:  7
     \\/     M anipulation  |
\*---------------------------------------------------------------------------*/
FoamFile
{
    version     2.0;
    format      ascii;
    class       volScalarField;
    location    "80";
    object      p;
}
// * * * * * * * * * * * * * * * * * * * * * * * * * * * * * * * * * * * * * //

dimensions      [0 2 -2 0 0 0 0];

internalField   nonuniform List<scalar> 
183
(
0.109649
0.103444
0.0970973
0.091008
0.0852559
0.0799762
0.0754825
0.0715283
0.0678133
0.0646214
0.0620071
0.0597095
0.0575723
0.0556288
0.0539571
0.0526761
0.0515447
0.0505481
0.0498251
0.0493793
0.0491145
0.0989073
0.0956344
0.0924364
0.0892039
0.0859198
0.0826173
0.0793653
0.0762357
0.0733129
0.0705444
0.0679049
0.0654756
0.0633228
0.0614416
0.0598017
0.0583389
0.057158
0.0562685
0.0555921
0.0550932
0.0549035
0.113641
0.100225
0.114584
0.100597
0.11545
0.100943
0.116298
0.10128
0.117095
0.101602
0.117915
0.10191
0.122643
0.118705
0.102204
0.123426
0.119468
0.102504
0.124165
0.120202
0.102758
0.124861
0.1209
0.102995
0.125514
0.121561
0.103219
0.126124
0.122181
0.103431
0.126691
0.12276
0.103632
0.127215
0.123295
0.127695
0.123783
0.12815
0.124223
0.128533
0.124611
0.12881
0.12495
0.129129
0.125243
0.129401
0.125486
0.129631
0.125677
0.129805
0.125811
0.129923
0.12589
0.129998
0.125914
0.13003
0.125885
0.130016
0.125804
0.129955
0.125672
0.12985
0.12549
0.129699
0.125259
0.105282
0.129503
0.124981
0.105289
0.129262
0.124659
0.105283
0.128977
0.124292
0.105263
0.128649
0.123884
0.105228
0.128277
0.123438
0.105176
0.127863
0.122954
0.105108
0.127406
0.122436
0.105023
0.121887
0.10492
0.121309
0.104798
0.120701
0.104656
0.12008
0.104498
0.119474
0.104333
0.118732
0.104134
0.115354
0.103261
0.109996
0.100776
0.104315
0.0982493
0.0985724
0.0956359
0.0931679
0.0928198
0.0884622
0.0898
0.0841376
0.0868426
0.0801372
0.0840336
0.0766342
0.0813202
0.0735277
0.0787601
0.0708148
0.0763765
0.0684668
0.0742026
0.0664512
0.0722502
0.064799
0.0704971
0.0635026
0.0689295
0.0623773
0.0676216
0.0613751
0.0665935
0.0606151
0.0657668
0.0601378
0.0651083
0.0597746
0.0646957
0.0595029
0.0645317
)
;

boundaryField
{
    inlet
    {
        type            zeroGradient;
    }
    outlet
    {
        type            fixedValue;
        value           nonuniform 0();
    }
    cylinder
    {
        type            zeroGradient;
    }
    top
    {
        type            symmetryPlane;
    }
    bottom
    {
        type            symmetryPlane;
    }
    defaultFaces
    {
        type            empty;
    }
    procBoundary1to0
    {
        type            processor;
        value           nonuniform List<scalar> 
86
(
0.0988197
0.0963945
0.093177
0.0898817
0.0864609
0.0830633
0.0798709
0.076899
0.0741068
0.0715769
0.0693722
0.0673814
0.0655957
0.0640092
0.0626196
0.0614786
0.0605096
0.0597093
0.0591017
0.0587123
0.0585035
0.100559
0.100982
0.101378
0.101772
0.102161
0.10254
0.102908
0.103263
0.103605
0.103933
0.104248
0.104547
0.10483
0.103819
0.103819
0.103994
0.104157
0.104309
0.10445
0.10458
0.1047
0.10481
0.104907
0.104992
0.105067
0.105131
0.105186
0.105229
0.105262
0.105262
0.106348
0.106249
0.10613
0.105993
0.105837
0.105664
0.105476
0.105272
0.105054
0.10482
0.104568
0.104438
0.104176
0.103875
0.102751
0.100923
0.0983736
0.0956348
0.0926772
0.0898205
0.0870028
0.0842627
0.0818187
0.0794811
0.0774065
0.075544
0.0738944
0.0724715
0.0712903
0.0702915
0.0694534
0.0687962
0.0683325
0.0680166
0.0678494
)
;
    }
    procBoundary1to2
    {
        type            processor;
        value           nonuniform List<scalar> 
86
(
0.112709
0.103966
0.0955633
0.0878748
0.0811637
0.0754412
0.0702125
0.0654791
0.0615716
0.0582752
0.0552698
0.0525731
0.0501817
0.0481162
0.0466744
0.0453543
0.044186
0.0430672
0.0424436
0.0422535
0.0417109
0.116994
0.118091
0.119063
0.120024
0.120945
0.121817
0.121817
0.160528
0.163167
0.165651
0.167978
0.170142
0.172143
0.173978
0.175646
0.177141
0.178474
0.179679
0.180471
0.18133
0.181957
0.182418
0.182693
0.18278
0.182704
0.182459
0.182045
0.181463
0.180713
0.179798
0.178721
0.177482
0.176084
0.17453
0.172823
0.170966
0.168961
0.126908
0.126908
0.126368
0.125785
0.125167
0.124546
0.123802
0.120505
0.112747
0.105105
0.0982972
0.0920996
0.0862813
0.0810377
0.0764206
0.0721861
0.0684973
0.0652265
0.0624336
0.060177
0.0584792
0.0570037
0.0557408
0.0546151
0.0539686
0.0536604
0.0533244
0.0528587
)
;
    }
}


// ************************************************************************* //
