/*--------------------------------*- C++ -*----------------------------------*\
  =========                 |
  \\      /  F ield         | OpenFOAM: The Open Source CFD Toolbox
   \\    /   O peration     | Website:  https://openfoam.org
    \\  /    A nd           | Version:  7
     \\/     M anipulation  |
\*---------------------------------------------------------------------------*/
FoamFile
{
    version     2.0;
    format      ascii;
    class       surfaceScalarField;
    location    "50";
    object      phi;
}
// * * * * * * * * * * * * * * * * * * * * * * * * * * * * * * * * * * * * * //

dimensions      [0 3 -1 0 0 0 0];

internalField   nonuniform List<scalar> 
648
(
0.00170862
-1.04988e-05
-2.14017e-11
0.00171889
-1.02702e-05
-1.50791e-11
-1.00471e-05
-8.48375e-12
0.00170993
-2.09791e-05
0.00172018
-2.05228e-05
-2.00775e-05
0.00171254
-3.14227e-05
0.00172276
-3.07406e-05
-3.00749e-05
0.00171642
-4.18123e-05
0.00172659
-4.09072e-05
-4.00237e-05
0.00172154
-5.21317e-05
0.00173164
-5.1007e-05
-4.99093e-05
0.00172785
-6.23661e-05
0.00173787
-6.10263e-05
-5.97185e-05
0.00173529
-7.25024e-05
0.00174521
-7.09527e-05
-6.94401e-05
0.00174378
-8.25299e-05
0.00175361
-8.07762e-05
-7.90645e-05
0.00175326
-9.24402e-05
0.00176297
-9.04891e-05
-8.85846e-05
0.00176362
-0.000102227
0.00177322
-0.000100086
0.00178263
-9.79957e-05
-9.59554e-05
0.00177478
0.00178426
-0.000109564
0.00179356
-0.000107296
-0.000105082
0.00179599
-0.000118925
0.00180518
-0.000116486
-0.000114106
0.0018083
-0.000128171
0.00181738
-0.000125571
-0.000123032
0.00182108
-0.00013731
0.00183007
-0.000134557
-0.000131868
0.00183421
-0.000146352
0.00184311
-0.000143454
-0.000140624
0.00184758
-0.000155309
0.0018564
-0.000152276
-0.000149314
0.00186106
-0.000164199
0.00186982
-0.000161039
-0.000157954
0.00187453
-0.00017304
0.00188325
-0.000169763
-0.000166564
0.00188787
-0.000181857
0.00189658
-0.000178471
-0.000175166
0.00190096
-0.000190673
0.00190968
-0.000187189
-0.000183787
0.00191368
-0.000199519
0.00192243
-0.000195944
-0.000192453
0.00192591
-0.000208425
0.00193474
-0.000204768
-0.000201197
0.00193755
-0.000217425
0.00194648
-0.000213693
-0.00021005
0.0019485
0.00195756
-0.000222756
-0.000219048
0.00607117
-0.0002346
0.00608288
-0.000230763
-0.000227016
0.0063318
-0.000243423
0.00634055
-0.00023951
-0.000235688
0.00659883
-0.000249283
0.00660466
-0.000245343
-0.000241495
0.00686801
-0.0002523
0.00687105
-0.000248382
-0.000244553
0.00713537
-0.000252654
0.00713579
-0.000248799
-0.000245031
0.00739721
-0.000250572
0.00739523
-0.000246816
-0.000243144
0.00765026
-0.000246319
0.00764613
-0.000242692
-0.000239146
0.00789167
-0.000240186
0.00788568
-0.000236712
-0.000233315
0.00811911
-0.00023248
0.00811157
-0.000229176
-0.000225944
0.00833077
-0.000223511
0.00832199
-0.000220387
-0.00021733
0.00852538
-0.000213582
0.00851563
-0.000210643
-0.000207766
0.00870214
-0.000202982
0.00869172
-0.000200226
-0.000197528
0.00886075
-0.000191971
0.00884992
-0.000189394
-0.000186871
0.00900135
-0.000180783
0.00899033
-0.000178377
-0.00017602
0.00912443
-0.000169617
0.00911343
-0.000167371
-0.000165171
0.00923081
-0.000158635
0.00921998
-0.000156538
-0.000154484
0.00932153
-0.000147966
0.009311
-0.000146006
-0.000144085
0.00939782
-0.000137703
0.00938768
-0.000135867
-0.000134069
0.00946102
-0.000127907
0.00945133
-0.000126185
-0.000124499
0.00951251
-0.000118613
0.00950332
-0.000116996
-0.000115412
0.0095537
-0.000109833
0.00954501
-0.000108312
-0.000106821
0.00958594
-0.000101558
0.00957776
-0.000100126
-9.87236e-05
0.00961055
-9.37664e-05
0.00960284
-9.24192e-05
-9.1099e-05
0.00962871
-8.64261e-05
0.00962145
-8.51595e-05
-8.39181e-05
0.00964154
-7.94976e-05
0.00963469
-7.83093e-05
-7.7144e-05
0.00965002
-7.29385e-05
0.00964354
-7.18265e-05
-7.07361e-05
0.00965504
-6.67045e-05
0.00964888
-6.56684e-05
-6.46522e-05
0.00965734
-6.07529e-05
0.00965147
-5.97926e-05
-5.88504e-05
0.0096576
-5.50428e-05
0.00965196
-5.41587e-05
-5.3291e-05
0.00965635
-4.95366e-05
0.00965093
-4.87294e-05
-4.79369e-05
0.00965409
-4.42005e-05
0.00964883
-4.34709e-05
-4.27545e-05
0.00965118
-3.90044e-05
0.00964606
-3.83534e-05
-3.77139e-05
0.00964795
-3.39222e-05
0.00964294
-3.33506e-05
-3.2789e-05
0.00964465
-2.89313e-05
0.00963974
-2.84399e-05
-2.7957e-05
0.0096415
-2.40125e-05
0.00963667
-2.3602e-05
-2.31985e-05
0.00963866
-1.91494e-05
0.00963388
-1.88204e-05
-1.84968e-05
0.00963625
-1.43279e-05
0.00963151
-1.40809e-05
-1.38378e-05
0.00963436
-9.53632e-06
0.00962965
-9.37137e-06
-9.20911e-06
0.00963307
-4.76348e-06
0.00962838
-4.68112e-06
-4.5997e-06
0.00963241
0.00962773
-0.000250027
0.00765451
-0.000243736
0.0078978
-0.000235855
0.00812681
-0.000226701
0.00833974
-0.000216584
0.0085353
-0.000205794
0.00871274
-0.000194601
0.00887176
-0.000183238
0.00901254
-0.000171908
0.0091356
-0.000160775
0.00924179
-0.000149966
0.0093322
-0.000139575
0.00940808
-0.000129662
0.00947081
-0.000120262
0.0095218
-0.000111383
0.00956248
-0.000103017
0.00959422
-9.51394e-05
0.00961834
-8.77167e-05
0.00963605
-8.07086e-05
0.00964847
-7.4071e-05
0.00965658
-6.77594e-05
0.00966127
-6.17303e-05
0.00966329
-5.59423e-05
0.00966331
-5.03576e-05
0.00966186
-4.49423e-05
0.00965942
-3.9666e-05
0.00965637
-3.45029e-05
0.00965303
-2.94304e-05
0.00964964
-2.44294e-05
0.00964642
-1.94835e-05
0.00964352
-1.4579e-05
0.00964107
-9.70374e-06
0.00963915
-4.8473e-06
0.00963784
0.00963717
-0.0002346
0.00607117
0.000222756
-0.000243423
0.0063318
-0.000249283
0.00659883
-0.0002523
0.00686801
-0.000252654
0.00713537
-0.000250572
0.00739721
-0.000246319
0.00765026
-0.000240186
0.00789166
-0.00023248
0.00811911
-0.000223511
0.00833077
-0.000213582
0.00852538
-0.000202982
0.00870214
-0.000191971
0.00886075
-0.000180783
0.00900135
-0.000169617
0.00912443
-0.000158635
0.00923081
-0.000147966
0.00932153
-0.000137703
0.00939782
-0.000127907
0.00946102
-0.000118613
0.00951251
-0.000109833
0.0095537
-0.000101558
0.00958594
-9.37663e-05
0.00961055
-8.6426e-05
0.00962871
-7.94977e-05
0.00964154
-7.29384e-05
0.00965002
-6.67045e-05
0.00965504
-6.07529e-05
0.00965734
-5.50428e-05
0.0096576
-4.95366e-05
0.00965635
-4.42004e-05
0.00965409
-3.90044e-05
0.00965118
-3.39221e-05
0.00964795
-2.89313e-05
0.00964465
-2.40124e-05
0.0096415
-1.91494e-05
0.00963866
-1.43279e-05
0.00963625
-9.53632e-06
0.00963436
-4.76348e-06
0.00963307
0.00963241
-0.000230763
0.00608288
0.000219048
-0.00023951
0.00634055
-0.000245343
0.00660466
-0.000248382
0.00687105
-0.000248799
0.00713579
-0.000246816
0.00739523
-0.000242692
0.00764613
-0.000236712
0.00788568
-0.000229176
0.00811157
-0.000220387
0.00832199
-0.000210643
-0.000200226
-0.000189394
-0.000178377
-0.000167371
-0.000156538
-0.000146006
-0.000135867
-0.000126185
-0.000116996
-0.000108312
-0.000100126
-9.24192e-05
-8.51595e-05
-7.83091e-05
-7.18264e-05
-6.56684e-05
-5.97926e-05
-5.41587e-05
-4.87294e-05
-4.3471e-05
-3.83534e-05
-3.33506e-05
-2.84399e-05
-2.36021e-05
-1.88204e-05
-1.40809e-05
-9.37136e-06
-4.68101e-06
-0.000227016
-0.000235688
-0.000241495
-0.000244553
-0.000245031
-0.000243144
-0.000239146
-0.000233315
-0.000225944
0.0019485
0.000217425
0.00195756
0.000213693
0.00021005
0.00193755
0.000208425
0.00194648
0.000204768
0.000201197
0.00192591
0.000199519
0.00193474
0.000195944
0.000192453
0.00191368
0.000190673
0.00192243
0.000187189
0.000183787
0.00190096
0.000181857
0.00190968
0.000178471
0.000175166
0.00188787
0.00017304
0.00189658
0.000169763
0.000166564
0.00187453
0.000164199
0.00188325
0.000161039
0.000157954
0.00186106
0.000155309
0.00186982
0.000152276
0.000149314
0.00184758
0.000146352
0.0018564
0.000143454
0.000140624
0.00183421
0.00013731
0.00184311
0.000134557
0.000131868
0.00182108
0.000128172
0.00183007
0.000125571
0.000123032
0.0018083
0.000118925
0.00181738
0.000116486
0.000114106
0.00179599
0.000109564
0.00180518
0.000107296
0.000105082
0.00177478
0.000102227
0.00178426
0.000100086
0.00179356
9.79957e-05
9.59554e-05
0.00176362
9.24402e-05
0.00177322
9.04891e-05
0.00178263
8.85846e-05
0.00175326
8.253e-05
0.00176297
8.07763e-05
7.90645e-05
0.00174378
7.25025e-05
0.00175361
7.09527e-05
6.94401e-05
0.00173529
6.23661e-05
0.00174521
6.10263e-05
5.97185e-05
0.00172785
5.21318e-05
0.00173787
5.1007e-05
4.99093e-05
0.00172154
4.18124e-05
0.00173164
4.09072e-05
4.00237e-05
0.00171642
3.14227e-05
0.00172659
3.07407e-05
3.00749e-05
0.00171254
2.09791e-05
0.00172276
2.05228e-05
2.00775e-05
0.00170993
1.04988e-05
0.00172018
1.02702e-05
1.00471e-05
0.00170862
0.00171889
)
;

boundaryField
{
    inlet
    {
        type            calculated;
        value           nonuniform 0();
    }
    outlet
    {
        type            calculated;
        value           nonuniform 0();
    }
    cylinder
    {
        type            calculated;
        value           nonuniform 0();
    }
    top
    {
        type            symmetryPlane;
        value           uniform 0;
    }
    bottom
    {
        type            symmetryPlane;
        value           uniform 0;
    }
    defaultFaces
    {
        type            empty;
        value           nonuniform 0();
    }
    procBoundary51to50
    {
        type            processor;
        value           nonuniform List<scalar> 
133
(
-0.00169812
-0.00169945
-0.00170209
-0.00170603
-0.00171122
-0.00171761
-0.00172515
-0.00173376
-0.00174335
-0.00175384
-0.00176512
-0.000111888
-0.00178663
-0.00179905
-0.00181194
-0.00182517
-0.00183862
-0.00185217
-0.00186569
-0.00187905
-0.00189214
-0.00190483
-0.00191701
-0.00192855
-0.00193937
-0.000226554
-0.00605932
-0.00632298
-0.00659297
-0.006865
-0.00713502
-0.00739929
-0.00765451
-0.0078978
-0.00812681
-0.00833974
-0.0085353
-0.00871274
-0.00887176
-0.00901254
-0.0091356
-0.00924179
-0.0093322
-0.00940808
-0.00947081
-0.0095218
-0.00956248
-0.00959422
-0.00961834
-0.00963605
-0.00964847
-0.00965658
-0.00966127
-0.00966329
-0.00966331
-0.00966186
-0.00965942
-0.00965637
-0.00965303
-0.00964964
-0.00964642
-0.00964352
-0.00964107
-0.00963915
-0.00963784
-0.00963717
-0.0076589
-0.00790409
-0.0081347
-0.0083489
-0.00854542
-0.00872353
-0.00888295
-0.0090239
-0.00914693
-0.00925292
-0.00934301
-0.00941848
-0.00948072
-0.0095312
-0.00957136
-0.00960259
-0.00962621
-0.00964347
-0.00965548
-0.00966322
-0.00966758
-0.00966932
-0.00966909
-0.00966745
-0.00966484
-0.00966165
-0.00965819
-0.00965472
-0.00965142
-0.00964847
-0.00964597
-0.00964403
-0.0096427
-0.00964202
-0.00605932
-0.000226554
-0.00632298
-0.00659297
-0.006865
-0.00713502
0.000254414
-0.00739929
-0.00193937
-0.00192855
-0.00191701
-0.00190483
-0.00189214
-0.00187905
-0.00186569
-0.00185217
-0.00183862
-0.00182517
-0.00181194
-0.00179905
-0.00178663
-0.000111888
-0.00176512
-0.00175384
-0.00174335
-0.00173376
-0.00172515
-0.00171761
-0.00171122
-0.00170603
-0.00170209
-0.00169945
-0.00169812
)
;
    }
    procBoundary51to52
    {
        type            processor;
        value           nonuniform List<scalar> 
133
(
0.00172894
0.00173021
0.00173275
0.00173654
0.00174153
0.00174768
0.00175493
0.00176323
0.00177249
8.67255e-05
0.00179186
0.00180269
0.0018142
0.00182631
0.0018389
0.00185187
0.00186509
0.00187846
0.00189186
0.00190518
0.0019183
0.0019311
0.00194348
0.00195533
0.00196656
0.000215428
0.00609447
0.00634922
0.00661047
0.00687411
0.00713627
0.00739334
0.00764213
0.00787985
0.0081042
0.00831337
0.00850607
0.00868148
0.00883926
0.00897948
0.00910258
0.00920929
0.0093006
0.00937767
0.00944176
0.00949423
0.00953642
0.00956966
0.00959521
0.00961427
0.00962791
0.00963713
0.00964279
0.00964566
0.0096464
0.00964557
0.00964365
0.00964102
0.00963802
0.00963491
0.00963191
0.00962918
0.00962685
0.00962502
0.00962377
0.00962313
0.00851563
0.00869172
0.00884992
0.00899033
0.00911343
0.00921998
0.009311
0.00938768
0.00945133
0.00950332
0.00954501
0.00957776
0.00960284
0.00962145
0.00963469
0.00964354
0.00964888
0.00965147
0.00965196
0.00965093
0.00964883
0.00964606
0.00964294
0.00963974
0.00963667
0.00963388
0.00963151
0.00962965
0.00962838
0.00962773
0.00609447
0.000215428
0.00634922
0.00661047
0.00687411
0.00713627
0.00739334
0.00764213
0.00787985
0.0081042
-0.00021733
0.00831337
0.00196656
0.00195533
0.00194348
0.0019311
0.0019183
0.00190518
0.00189186
0.00187846
0.00186509
0.00185187
0.0018389
0.00182631
0.0018142
0.00180269
0.00179186
8.67255e-05
0.00177249
0.00176323
0.00175493
0.00174768
0.00174153
0.00173654
0.00173275
0.00173021
0.00172894
)
;
    }
}


// ************************************************************************* //
