/*--------------------------------*- C++ -*----------------------------------*\
  =========                 |
  \\      /  F ield         | OpenFOAM: The Open Source CFD Toolbox
   \\    /   O peration     | Website:  https://openfoam.org
    \\  /    A nd           | Version:  7
     \\/     M anipulation  |
\*---------------------------------------------------------------------------*/
FoamFile
{
    version     2.0;
    format      ascii;
    class       surfaceScalarField;
    location    "30";
    object      phi;
}
// * * * * * * * * * * * * * * * * * * * * * * * * * * * * * * * * * * * * * //

dimensions      [0 3 -1 0 0 0 0];

internalField   nonuniform List<scalar> 
609
(
3.38042e-06
3.32701e-06
1.11255e-07
3.21575e-06
8.72627e-06
1.72688e-07
3.04307e-06
7.81423e-07
8.11754e-06
1.2333e-05
2.37751e-07
2.80532e-06
1.04744e-06
7.30785e-06
2.56212e-06
1.08183e-05
1.31629e-05
3.06421e-07
2.49889e-06
1.32783e-06
6.28644e-06
3.21058e-06
8.93556e-06
6.11681e-06
1.02567e-05
1.00403e-05
3.78577e-07
2.12032e-06
1.622e-06
5.04302e-06
3.89028e-06
6.66729e-06
7.36031e-06
6.78663e-06
1.22277e-05
5.17289e-06
1.58256e-06
4.53975e-07
1.92892e-06
3.56807e-06
4.59871e-06
3.99749e-06
8.65541e-06
2.72993e-06
1.43112e-05
-4.82861e-07
2.18e-05
-5.90624e-06
-1.38221e-05
2.24703e-06
5.33226e-06
9.99537e-06
-1.93317e-06
1.64653e-05
-6.95284e-06
2.49947e-05
-1.44356e-05
3.58613e-05
-2.46887e-05
-3.8039e-05
1.13716e-05
1.86762e-05
-1.42575e-05
2.82713e-05
-2.40306e-05
4.04551e-05
-3.68726e-05
5.55558e-05
-5.31397e-05
-7.32101e-05
2.09273e-05
3.16046e-05
-3.47079e-05
4.51245e-05
-5.03925e-05
6.18372e-05
-6.98523e-05
8.2127e-05
-9.34999e-05
-0.000121772
3.49676e-05
4.98297e-05
-6.52547e-05
6.81584e-05
-8.8181e-05
9.03609e-05
-0.000115702
0.000116884
-0.000148295
-0.000186462
5.45306e-05
7.44626e-05
9.85559e-05
-0.000139796
0.000127278
-0.000177017
0.000161142
-0.000220325
-0.000270298
0.000106638
0.000137499
-0.000207878
0.000173806
-0.000256632
0.000216134
-0.000312625
0.000265109
-0.00037652
-0.000449012
0.000147461
0.000186096
0.00023103
-0.000357559
0.000282886
-0.000428376
0.000342339
-0.000508465
-0.000598615
0.000245287
0.000299787
0.000362072
-0.00057075
0.00043282
-0.000669364
-0.00077959
0.00038053
0.000453854
-0.000742688
0.00053632
-0.000862055
0.000628527
-0.000994565
-0.00114118
0.000473192
0.000557751
0.000651818
-0.00108863
0.000755781
-0.00124514
-0.00141702
0.000672529
0.000777454
0.000891917
-0.00153149
0.00101576
-0.001729
-0.00194315
0.000910514
0.00103353
0.00116459
-0.0020742
-0.00231243
0.00117649
0.00131174
0.00145186
-0.00270659
-0.00297855
0.00159509
0.0014521
0.00159063
0.00131601
0.00244769
0.0014521
0.00270659
0.00297855
0.00159063
0.00104746
0.00185202
0.00117649
0.0020742
0.00131174
0.00231243
0.00145186
0.00159509
0.000910514
0.00153149
0.00103353
0.001729
0.00116459
0.00194315
0.000672529
0.00108863
0.000777454
0.00124514
0.000891917
0.00141702
0.00101576
0.000473192
0.000742688
0.000557751
0.000862055
0.000651818
0.000994565
0.000755781
0.00114118
0.000315727
0.000482876
0.00038053
0.000570749
0.000453854
0.000669364
0.00053632
0.00077959
0.000628527
0.000245287
0.000357559
0.000299787
0.000428376
0.000362072
0.000508465
0.00043282
0.000598615
0.000147461
0.000207878
0.000186096
0.000256632
0.00023103
0.000312625
0.000282886
0.00037652
0.000342339
0.000106638
0.000139796
0.000137499
0.000177017
0.000173806
0.000220325
0.000216134
0.000270298
5.45306e-05
6.52547e-05
7.44626e-05
8.8181e-05
9.85559e-05
0.000115702
0.000127278
0.000148295
0.000161142
0.000186462
3.49676e-05
3.47079e-05
4.98297e-05
5.03925e-05
6.81584e-05
6.98523e-05
9.03609e-05
9.34999e-05
0.000116884
0.000121772
2.09273e-05
1.42575e-05
3.16046e-05
2.40306e-05
4.51245e-05
3.68726e-05
6.18372e-05
5.31396e-05
8.2127e-05
7.32101e-05
6.08627e-06
-9.12264e-07
1.13716e-05
1.93316e-06
1.86762e-05
6.95283e-06
2.82713e-05
1.44356e-05
4.04551e-05
2.46887e-05
5.55558e-05
3.8039e-05
2.24703e-06
-3.56807e-06
5.33226e-06
-3.9975e-06
9.99537e-06
-2.72994e-06
1.64653e-05
4.82857e-07
2.49947e-05
5.90624e-06
3.58613e-05
1.38221e-05
4.53975e-07
-2.12032e-06
1.92892e-06
-5.04302e-06
4.59871e-06
-6.66729e-06
8.65541e-06
-6.78663e-06
1.43112e-05
-5.17289e-06
2.18e-05
-1.58256e-06
3.78577e-07
-2.49889e-06
1.622e-06
-6.28644e-06
3.89028e-06
-8.93556e-06
7.36031e-06
-1.02567e-05
1.22277e-05
-1.00403e-05
3.06421e-07
-2.80532e-06
1.32783e-06
-7.30785e-06
3.21058e-06
-1.08183e-05
6.11681e-06
-1.31629e-05
2.37751e-07
-3.04307e-06
1.04744e-06
-8.11754e-06
2.56212e-06
-1.2333e-05
1.72688e-07
-3.21575e-06
7.81423e-07
-8.72627e-06
1.11255e-07
-3.32701e-06
-3.38042e-06
0.000457113
-0.00911734
0.000399198
-0.00910171
0.000341605
-0.00908802
0.000284285
-0.00907626
0.000227186
-0.0090664
0.000170258
-0.00905843
0.000113451
-0.00905235
5.67138e-05
-0.00904817
-0.00904592
0.00180642
-0.00828968
0.00195719
-0.00899114
0.00205292
-0.00947612
0.00209974
-0.00979875
0.00210676
-0.00998977
0.00208357
-0.0100825
0.002039
-0.0101073
0.00198039
-0.0100885
0.00191332
-0.0100437
0.00184174
-0.00998499
0.00176822
-0.00992019
0.00169436
-0.00985382
0.00162108
-0.00978843
0.00154885
-0.00972532
0.0014779
-0.0096651
0.00140829
-0.00960798
0.00134004
-0.00955402
0.00127309
-0.00950315
0.00120739
-0.00945528
0.00114286
-0.00941031
0.00107944
-0.00936813
0.00101705
-0.00932862
0.000955628
-0.00929169
0.000895097
-0.00925723
0.000835394
-0.00922517
0.000776454
-0.00919541
0.000718216
-0.00916789
0.000660619
-0.00914254
0.000603606
-0.0091193
0.000547122
-0.00909812
0.000491111
-0.00907895
0.000435522
-0.00906175
0.000380304
-0.00904649
0.000325406
-0.00903312
0.000270779
-0.00902164
0.000216375
-0.009012
0.000162143
-0.0090042
0.000108036
-0.00899824
5.40037e-05
-0.00899413
-0.00899192
0.00178651
-0.00848556
0.00192157
-0.00912619
0.00200289
-0.00955744
0.00203764
-0.00983351
0.00203542
-0.00998756
0.00200587
-0.0100529
0.00195753
0.00189726
0.00183013
0.00175962
0.00168792
0.00161636
0.00154566
0.00147617
0.00140804
0.0013413
0.00127593
0.00121187
0.00114905
0.00108739
0.00102683
0.000967293
0.000908702
0.000850993
0.000794097
0.000737953
0.000682499
0.000627676
0.000573428
0.000519699
0.000466438
0.000413593
0.000361115
0.000308954
0.000257064
0.000205396
0.000153903
0.000102538
5.12523e-05
0.0017599
0.0018792
0.00194653
0.00196994
0.00195935
0.0017599
0.00848556
0.0018792
0.00912619
0.00194653
0.00955744
0.00196994
0.00983351
0.00195935
0.00998756
0.00192429
0.0100529
0.00187294
0.010059
0.00181163
0.0100282
0.00174493
0.00997653
0.00991448
0.00178651
0.00828968
0.00192157
0.00899114
0.00200289
0.00947612
0.00203764
0.00979875
0.00203542
0.00998977
0.00200587
0.0100825
0.00195753
0.0101073
0.00189726
0.0100885
0.00183013
0.0100437
0.00175962
0.00998499
0.00168792
0.00992019
0.00161636
0.00985382
0.00154566
0.00978843
0.00147617
0.00972532
0.00140804
0.0096651
0.0013413
0.00960798
0.00127593
0.00955402
0.00121187
0.00950315
0.00114905
0.00945528
0.00108739
0.00941031
0.00102683
0.00936813
0.000967293
0.00932862
0.000908702
0.00929169
0.000850993
0.00925723
0.000794097
0.00922517
0.000737953
0.00919541
0.000682499
0.00916789
0.000627676
0.00914254
0.000573428
0.0091193
0.000519699
0.00909812
0.000466438
0.00907895
0.000413593
0.00906175
0.000361115
0.00904649
0.000308954
0.00903312
0.000257064
0.00902164
0.000205396
0.009012
0.000153903
0.0090042
0.000102538
0.00899824
5.12523e-05
0.00899413
0.00899192
0.00180642
0.00195719
0.00205292
0.00209974
0.00210676
0.00208357
0.002039
0.00198039
0.00191332
0.00184174
0.00176822
0.00169436
0.00162108
0.00154885
0.0014779
0.00140829
0.00134004
0.00127309
0.00120739
0.00114286
0.00107944
0.00101705
0.000955628
0.000895097
0.000835394
0.000776454
0.000718216
0.000660619
0.000603606
0.000547122
0.000491111
0.000435522
0.000380304
0.000325406
0.000270779
0.000216375
0.000162143
0.000108036
5.40037e-05
)
;

boundaryField
{
    inlet
    {
        type            calculated;
        value           nonuniform 0();
    }
    outlet
    {
        type            calculated;
        value           nonuniform 0();
    }
    cylinder
    {
        type            calculated;
        value           uniform 0;
    }
    top
    {
        type            symmetryPlane;
        value           uniform 0;
    }
    bottom
    {
        type            symmetryPlane;
        value           uniform 0;
    }
    defaultFaces
    {
        type            empty;
        value           nonuniform 0();
    }
    procBoundary19to18
    {
        type            processor;
        value           nonuniform List<scalar> 
160
(
1.66634e-06
-5.32236e-07
1.85327e-06
9.12261e-07
-6.08627e-06
-7.21848e-06
-1.2774e-05
-2.24108e-05
-2.32008e-05
-4.64746e-05
-3.83326e-05
-8.14526e-05
-0.000108113
-8.06965e-05
-0.000165738
-0.000114545
-0.000240794
-0.000295267
-0.000197926
-0.00040492
-0.000482876
-0.000315727
-0.000635552
-0.000397668
-0.000818213
-0.000946614
-0.000577066
-0.00118409
-0.00135007
-0.000796136
-0.00164586
-0.00185202
-0.00104746
-0.00220323
-0.00244769
-0.00131601
-0.00284268
-0.00311708
-0.00158021
-0.00257969
-0.00284268
-0.00311708
-0.00158021
-0.0019738
-0.00118401
-0.00220323
-0.00092568
-0.00164586
-0.00118409
-0.000796136
-0.00135007
-0.000818213
-0.000577066
-0.000946614
-0.000539775
-0.000397668
-0.000635552
-0.000258829
-0.00040492
-0.000240794
-0.000197926
-0.000295267
-0.000114545
-0.000165738
-8.14526e-05
-8.06965e-05
-0.000108113
-3.83326e-05
-4.64746e-05
-2.32008e-05
-2.24108e-05
-2.59968e-06
-1.2774e-05
-7.21848e-06
-2.57433e-06
1.85327e-06
-5.32236e-07
1.66634e-06
-0.010059
-0.0100282
-0.00997653
-0.00991448
-0.0098485
-0.00978226
-0.00971773
-0.00965583
-0.00959697
-0.00954125
-0.00948865
-0.00943909
-0.00939246
-0.00934866
-0.00930757
-0.00926908
-0.0092331
-0.00919952
-0.00916827
-0.00913927
-0.00911243
-0.00908771
-0.00906505
-0.00904439
-0.00902569
-0.00900891
-0.00899401
-0.00898096
-0.00896974
-0.00896033
-0.00895271
-0.00894687
-0.00894285
-0.00894067
-0.00866526
-0.00924549
-0.00962477
-0.00985692
-0.00997696
0.00192429
-0.0100179
-0.00866526
-0.00924549
-0.00962477
-0.00985692
-0.00997696
-0.0100179
-0.0100076
-0.0099669
-0.00990982
-0.00984538
0.00167583
-0.0098485
-0.00978226
-0.00971773
-0.00965583
-0.00959697
-0.00954125
-0.00948865
-0.00943909
-0.00939246
-0.00934866
-0.00930757
-0.00926908
-0.0092331
-0.00919952
-0.00916827
-0.00913927
-0.00911243
-0.00908771
-0.00906505
-0.00904439
-0.00902569
-0.00900891
-0.00899401
-0.00898096
-0.00896974
-0.00896033
-0.00895271
-0.00894687
-0.00894285
-0.00894067
)
;
    }
    procBoundary19to20
    {
        type            processor;
        value           nonuniform List<scalar> 
169
(
-3.37943e-06
-9.87443e-10
5.34084e-08
-9.14499e-06
5.29969e-07
-1.3498e-05
1.94639e-06
-1.55304e-05
4.92966e-06
-1.41497e-05
1.02262e-05
-8.06338e-06
1.87086e-05
4.24265e-06
3.13794e-05
2.45298e-05
4.93705e-05
5.48328e-05
7.39331e-05
9.74836e-05
0.000106415
0.000155129
0.000148216
0.000230733
0.000200706
0.000327544
0.000392705
0.000321416
0.00053084
0.000410114
0.000699669
0.000512742
0.000902358
0.00103868
0.000731027
0.00130292
0.000869881
0.00160516
0.00181043
0.00114848
0.00217431
0.00130271
0.00256647
0.00283533
0.00256647
0.00283533
0.00130271
0.00217431
0.00160516
0.00114848
0.00181043
0.000869881
0.00130292
0.000902358
0.000731027
0.00103868
0.000512742
0.000699669
0.000449012
0.000410114
0.00053084
0.000265109
0.000327544
0.000200706
0.000230733
0.000148216
0.000155129
0.000106415
9.74836e-05
7.39331e-05
5.48327e-05
4.93705e-05
2.45298e-05
3.13794e-05
4.24265e-06
1.87086e-05
-8.06338e-06
1.02262e-05
-1.41497e-05
4.92966e-06
-1.55304e-05
1.94639e-06
-1.3498e-05
5.29969e-07
-9.14499e-06
5.34083e-08
-9.87446e-10
-3.37943e-06
0.00917563
0.00915962
0.00914561
0.00913358
0.0091235
0.00911536
0.00910915
0.0091049
0.00910264
0.00807835
0.00884037
0.00938039
0.00975193
0.00998275
0.0101057
0.0101519
0.0101471
0.0101107
0.0100566
0.00999371
0.00992768
0.00986172
0.00979755
0.00973605
0.00967759
0.00962227
0.0095701
0.00952099
0.00947484
0.00943155
0.00939101
0.00935311
0.00931776
0.00928487
0.00925435
0.00922613
0.00920013
0.00917631
0.0091546
-0.000515403
0.00913496
0.00807835
0.00884037
0.00938039
0.00975193
0.00998275
0.0101057
0.0101519
0.0101471
0.0101107
0.0100566
0.00999371
0.00992768
0.00986172
0.00979755
0.00973605
0.00967759
0.00962227
0.0095701
0.00952099
0.00947484
0.00943155
0.00939101
0.00935311
0.00931776
0.00928487
0.00925435
0.00922613
0.00920013
0.00917631
0.0091546
0.00913496
0.00911734
0.00910171
0.00908802
0.00907626
0.0090664
0.00905843
0.00905235
0.00904817
0.00904592
)
;
    }
}


// ************************************************************************* //
