/*--------------------------------*- C++ -*----------------------------------*\
  =========                 |
  \\      /  F ield         | OpenFOAM: The Open Source CFD Toolbox
   \\    /   O peration     | Website:  https://openfoam.org
    \\  /    A nd           | Version:  7
     \\/     M anipulation  |
\*---------------------------------------------------------------------------*/
FoamFile
{
    version     2.0;
    format      ascii;
    class       surfaceScalarField;
    location    "70";
    object      phi;
}
// * * * * * * * * * * * * * * * * * * * * * * * * * * * * * * * * * * * * * //

dimensions      [0 3 -1 0 0 0 0];

internalField   nonuniform List<scalar> 
277
(
0.00442023
-0.00989635
0.00981369
-0.000549038
0.000531107
0.00438487
-0.00999029
-0.000581371
0.00434294
-0.0100951
-0.000628773
0.00429447
-0.01021
-0.000691817
0.00423956
-0.010334
-0.000770974
0.00417843
-0.0104659
-0.000866582
0.00411135
-0.0106042
-0.000978824
0.00403869
-0.0107473
-0.00110771
0.00396089
-0.0108934
-0.00125305
0.0038785
-0.0110404
-0.00141443
0.00379209
-0.0111864
-0.00159125
0.00370232
-0.0113295
-0.00178266
0.00360988
-0.0114677
-0.00198759
0.00351551
-0.0115994
-0.00220476
0.00341993
-0.0117231
-0.00243272
0.00332387
-0.0118377
-0.00266984
0.00322802
-0.0119427
-0.00291449
0.003133
-0.0120376
-0.00316503
0.00303957
-0.0121218
-0.00341967
0.0029487
-0.0121957
-0.00367655
0.00286997
-0.00392993
0.0154708
-0.00322943
0.00836602
0.0145356
-0.00240675
0.00803796
0.0138634
-0.00154655
0.00773982
0.013233
-0.00053549
0.00735797
0.0131308
0.000561379
0.00686577
0.0138309
0.00159887
0.00617072
0.0153665
0.00233261
0.00530879
0.0172533
0.00261386
0.0043792
0.018903
0.00247252
0.00350329
0.0199794
0.00208824
0.00275935
0.0205151
0.00164418
0.00216332
0.0207166
0.00124458
0.00169359
0.020766
0.000923059
0.00132184
0.020762
0.00067756
0.00102558
0.0207441
0.000494382
0.000787882
0.0207247
0.000358176
0.000595649
0.0207074
0.000255432
0.00043825
0.0206934
0.000175382
0.000307038
0.020683
0.000109876
0.000194641
0.0206763
5.28867e-05
9.43972e-05
0.0206727
-0.00103528
0.0220266
-0.000934161
0.0221235
-0.000746519
0.0220121
-0.000580435
0.021805
-0.000456239
0.0215834
-0.000363012
0.0213822
-0.000289565
0.0212135
-0.000229837
0.0210772
-0.000180982
0.0209695
-0.00014074
0.0208854
-0.000106859
0.020821
-7.72667e-05
0.0207733
-5.03327e-05
0.0207395
-2.49336e-05
0.0207174
0.0207061
0.000728564
0.0211153
-0.0018365
-0.00060569
0.0212016
-0.00191278
0.0212512
-0.0029439
0.0213737
-0.00353201
0.0215652
-0.00358227
0.0216666
-0.00322792
0.0216722
-0.00267479
0.0215704
-0.00210283
0.0214401
-0.00160449
0.0213067
-0.0012052
0.0211841
-0.000896638
0.0210737
-0.000661222
0.0209781
-0.000482731
0.0208988
-0.000348004
0.0208348
-0.000246841
0.0207842
-0.000170951
0.0207451
-0.000113478
0.0207158
-6.87806e-05
0.0206948
-3.21847e-05
0.0206808
0.0206739
-0.00774125
-0.00765624
-0.00753591
-0.00724864
-0.00677919
-0.00614789
-0.00540617
-0.0046182
-0.00383055
-0.0030919
-0.0024399
-0.00189281
-0.00144944
-0.00109655
-0.000818034
-0.000598944
-0.000426675
-0.000290207
-0.000179641
-8.59074e-05
0.00396147
-0.00957249
-0.00177369
0.00401611
-0.00958784
-0.00170552
0.00407097
-0.00959607
-0.00163204
0.00412417
-0.00959834
-0.00155381
0.00417514
-0.00959577
-0.00147172
0.00422342
-0.00958938
-0.0013868
0.00426869
-0.00958023
-0.00130014
0.00431067
-0.00956943
-0.00121287
0.00434913
-0.00955812
-0.00112614
0.00438381
-0.0095475
-0.00104111
0.00441448
-0.0095388
-0.000958933
0.00444093
-0.00953326
-0.000880749
0.0044629
-0.00953215
-0.00080768
0.00448018
-0.0095367
-0.000740819
0.0044925
-0.00954809
-0.000681225
0.00449964
-0.00956744
-0.000629923
0.00450134
-0.00959577
-0.000587902
0.00449735
-0.00963395
-0.000556103
0.00448744
-0.00968268
-0.000535456
0.0044714
-0.00974249
-0.000526844
0.00444904
)
;

boundaryField
{
    inlet
    {
        type            calculated;
        value           nonuniform 0();
    }
    outlet
    {
        type            calculated;
        value           nonuniform 0();
    }
    cylinder
    {
        type            calculated;
        value           nonuniform 0();
    }
    top
    {
        type            symmetryPlane;
        value           uniform 0;
    }
    bottom
    {
        type            symmetryPlane;
        value           uniform 0;
    }
    defaultFaces
    {
        type            empty;
        value           nonuniform 0();
    }
    procBoundary41to40
    {
        type            processor;
        value           nonuniform List<scalar> 
87
(
-0.00433757
-0.00429093
-0.00423817
-0.00417957
-0.00411554
-0.00404651
-0.00397301
-0.00389559
-0.00381486
-0.00373147
-0.00364605
-0.00355925
-0.00347167
-0.00338384
-0.00329624
-0.00320921
-0.00312302
-0.00303813
-0.00295535
-0.00287477
-0.00280715
-0.0122586
-0.0161713
-0.0153583
-0.0147236
-0.0142441
-0.0142277
-0.0148684
-0.0161002
-0.0175346
-0.0187617
-0.0195951
-0.0200711
-0.020317
-0.0204444
-0.0205165
-0.0205609
-0.0205885
-0.0206047
-0.0206133
-0.0206175
-0.0206193
-0.0206198
-0.021796
-0.0222247
-0.0221997
-0.0219711
-0.0217076
-0.0214755
-0.021287
-0.021137
-0.0210183
-0.0209256
-0.0208549
-0.0208029
-0.0207664
-0.0207428
-0.0207311
-0.0200074
0.00954765
-0.0198673
-0.0199441
-0.0203426
-0.0209771
0.000804719
-0.0216164
-0.00393663
-0.00400075
-0.00406275
-0.00412189
-0.00417772
-0.00422981
-0.00427784
-0.00432148
-0.00436043
-0.00439443
-0.00442319
-0.00444646
-0.00446402
-0.00447563
-0.00448111
-0.00448029
-0.00447301
-0.00445917
-0.00443871
-0.00441159
-0.00437784
)
;
    }
    procBoundary41to42
    {
        type            processor;
        value           nonuniform List<scalar> 
86
(
0.00443816
0.00441721
0.00439034
0.00435751
0.00431872
0.00427404
0.00422359
0.00416757
0.00410623
0.00403989
0.00396891
0.00389372
0.00381481
0.00373268
0.00364788
0.003561
0.00347267
0.00338354
0.00329421
0.00320558
0.00312335
-0.00862026
0.0157251
0.0148637
0.0141615
0.0136149
0.013623
0.0145259
0.0162284
0.0181829
0.019779
0.0207233
0.0211112
0.0211864
0.0211377
0.0210583
0.0209818
0.0209169
0.0208648
0.0208246
0.0207954
0.0207765
0.0207671
0.0211975
0.00765906
0.0211166
0.0211308
0.0210864
0.0210958
0.0210353
0.0209305
0.0207824
0.0206524
0.020568
0.0205321
0.0205266
0.0205347
0.0205459
0.0205562
0.0205651
0.0205728
0.0205793
0.0205842
0.0205871
0.020588
0.00389866
0.00394793
0.0039975
0.00404594
0.00409305
0.0041385
0.00418203
0.0042234
0.0042624
0.00429878
0.00433231
0.00436274
0.00438983
0.00441332
0.00443291
0.00444834
0.00445931
0.00446555
0.00446679
0.00446279
0.00445331
)
;
    }
}


// ************************************************************************* //
