/*--------------------------------*- C++ -*----------------------------------*\
  =========                 |
  \\      /  F ield         | OpenFOAM: The Open Source CFD Toolbox
   \\    /   O peration     | Website:  https://openfoam.org
    \\  /    A nd           | Version:  7
     \\/     M anipulation  |
\*---------------------------------------------------------------------------*/
FoamFile
{
    version     2.0;
    format      ascii;
    class       surfaceScalarField;
    location    "20";
    object      phi;
}
// * * * * * * * * * * * * * * * * * * * * * * * * * * * * * * * * * * * * * //

dimensions      [0 3 -1 0 0 0 0];

internalField   nonuniform List<scalar> 
258
(
-0.0054443
0.000293921
0.000301396
-0.0046721
0.000268998
-0.00480286
0.000234724
-0.00494208
0.000198458
-0.00508933
0.000159462
0.000119562
0.000306603
-0.00419566
0.000275788
-0.00429571
0.000242545
-0.00440143
0.00020708
-0.0045141
0.000169468
-0.00463448
0.000129759
8.80397e-05
0.000295822
-0.0038719
0.000270065
-0.00397417
0.000238977
-0.00406768
0.000204223
-0.0041609
0.000166656
-0.00425814
0.000126638
8.42725e-05
0.000258623
-0.00334785
0.000258313
-0.0035744
0.000242866
-0.0037307
0.000216673
-0.00384571
0.000183325
-0.00394082
0.000145231
0.00010376
0.00017406
-0.00260655
0.000201517
-0.00304632
0.000208688
-0.00335502
0.000197836
-0.00356355
0.000173162
-0.00370603
0.000138893
2.21213e-05
-0.000490176
6.59441e-05
-0.00134023
0.000112214
-0.00206636
0.000146851
-0.00264119
0.000162708
-0.00306217
0.000158798
-0.00335111
0.000138002
2.00963e-05
-0.000510273
5.80213e-05
-0.00137816
9.52505e-05
-0.00210359
0.000119058
-0.002665
0.000123716
1.78782e-05
-0.000528151
4.96452e-05
-0.00140993
7.77591e-05
1.54982e-05
-0.000543649
0.000544129
1.54747e-05
0.000528654
0.00141096
1.78615e-05
0.000510793
4.95582e-05
0.00137927
7.75451e-05
0.00210489
0.00266618
2.00865e-05
0.000490706
5.79555e-05
0.0013414
9.50732e-05
0.00206777
0.000118725
0.00264253
0.000123205
0.00306326
0.00335191
2.21183e-05
6.59001e-05
0.000112075
0.000146571
0.00260804
0.000162259
0.00304758
0.000158175
0.00335599
0.000137215
0.00356427
0.00370659
0.000173835
0.000201135
0.000208139
0.00334899
0.000197128
0.00357528
0.000172311
0.00373141
0.000137916
0.00384633
0.00394146
0.000258152
0.000257689
0.000242105
0.000215794
0.00387265
0.000182342
0.00397492
0.000144157
0.0040685
0.000102602
0.00416184
0.00425923
0.000295044
0.000269193
0.000238026
0.000203204
0.00419666
0.000165575
0.00429686
0.000125501
0.00440277
8.3086e-05
0.00451564
0.00463626
0.000305721
0.000274862
0.000241584
0.000206093
0.000168465
0.00467388
0.000128753
0.00480489
8.70489e-05
0.00494437
0.00509191
0.000300605
0.00026823
0.000234
0.000197807
0.000158947
0.0054473
0.000119144
0.000293816
0.000167257
-0.0207698
8.10851e-05
-0.0205241
8.89223e-06
-0.0205071
-3.11263e-05
-0.0204506
-6.72998e-05
-0.0203744
-8.90561e-05
-0.0203498
-0.000103934
-0.020288
-0.000114973
-0.0202132
-0.0201628
-9.543e-06
-8.01726e-05
-0.000139724
-0.000176066
-0.000203092
-0.000217173
-0.000223208
-0.000225803
-0.000223304
-0.000212534
-0.000197812
-0.000182729
-0.000167328
-0.000150865
-0.0001316
-0.000109028
-8.79333e-05
-6.76519e-05
-4.63937e-05
-2.12576e-05
-0.0197744
-0.0197183
-2.9237e-05
-0.000217962
0.0199136
-0.000187944
0.0198868
-0.000158152
0.0198436
-0.000129963
0.0197971
-9.96222e-05
0.019791
-6.51475e-05
0.0198067
-3.10711e-05
0.0197866
0.0197541
-9.13019e-06
0.0207828
-7.79734e-05
0.020539
-0.000136102
0.0205277
-0.000171262
0.0204488
-0.000194561
-0.000207672
-0.000216508
-0.000219248
-0.000215367
-0.000211069
-0.000201675
-0.000191534
-0.000177662
-0.000159207
-0.000138024
-0.000116778
-9.66336e-05
-7.44373e-05
-4.86227e-05
-2.30963e-05
0.000168097
8.3512e-05
1.32063e-05
)
;

boundaryField
{
    inlet
    {
        type            calculated;
        value           nonuniform 0();
    }
    outlet
    {
        type            calculated;
        value           nonuniform 0();
    }
    cylinder
    {
        type            calculated;
        value           uniform 0;
    }
    top
    {
        type            symmetryPlane;
        value           uniform 0;
    }
    bottom
    {
        type            symmetryPlane;
        value           uniform 0;
    }
    defaultFaces
    {
        type            empty;
        value           nonuniform 0();
    }
    procBoundary14to13
    {
        type            processor;
        value           nonuniform List<scalar> 
104
(
-0.00524311
-0.0054044
-0.00476315
-0.00490036
4.46603e-05
-0.00504595
-0.00436142
-0.00447173
3.95791e-05
-0.00458979
-0.00402959
-0.00411943
5.95323e-05
-0.00421391
-0.00381144
9.82828e-05
-0.00390021
-0.00354275
0.000104629
-0.00367266
-0.00306683
0.00010927
-0.00333666
-0.00213171
9.09406e-05
-0.00267818
4.09152e-05
-0.00143534
1.29944e-05
-0.000556643
-0.000557093
1.29646e-05
-0.0014363
4.08079e-05
-0.00213288
-0.0026792
9.05585e-05
-0.00306774
-0.00333728
0.000108579
-0.00354331
-0.00367307
0.000103694
-0.00381194
-0.00390074
9.7192e-05
-0.00403031
-0.00412028
-0.00421492
5.82911e-05
-0.0043627
-0.00447322
-0.00459152
3.83525e-05
-0.00476518
-0.00490267
-0.00504856
4.36937e-05
-0.005246
-0.0054075
-0.0206407
-0.0204535
-0.0204476
-0.0204142
-0.0203474
-0.0203358
-0.020282
-0.0202106
-0.0201653
-0.0201522
-0.0200936
-0.0200185
-0.0199548
-0.0199076
-0.0198762
-0.0198628
-0.0197948
-0.0197705
-0.019741
6.28637e-05
-0.019808
-0.0197475
-0.0199407
-0.0199168
-0.0198734
-0.0198253
-0.0198213
-0.0198412
-0.0198207
-0.0197852
-0.0206546
-0.0204701
-0.0204696
-0.0204137
-0.0203747
-0.0203247
-0.0202439
-0.0201861
-0.0201602
-0.0200464
-0.0200374
-0.0199523
0.000244984
-0.0199375
)
;
    }
    procBoundary14to15
    {
        type            processor;
        value           nonuniform List<scalar> 
98
(
0.00547561
0.00470258
0.00483526
0.00497635
0.00512559
-0.000325227
0.0052821
0.00422353
0.00432652
0.00443468
-0.000331885
0.00454956
0.00388955
0.00399993
-0.000334473
0.00409877
0.00332904
0.00357471
-0.000313472
0.00374615
0.00256095
-0.000239817
0.00301886
0.000468055
0.00129641
-0.000128457
0.00202009
0.000468588
0.00129762
0.0020216
-0.000128358
0.00256256
0.00302028
-0.000239505
0.00333034
0.00357575
0.00374699
-0.000312805
0.00389041
0.00400077
0.00409966
-0.000333645
0.00422459
0.00432772
0.00443605
0.00455113
-0.000331087
0.00470437
0.00483727
0.0049786
0.0051281
0.00528486
-0.000324969
0.00547845
0.0208965
0.0206103
0.0205793
0.0204906
0.0204106
0.0203716
0.0203029
0.0202242
0.0201686
-0.000120795
0.0201415
0.0200789
0.0200034
0.0199394
0.0198911
0.019857
0.0198402
0.0197737
0.0197502
0.0197198
0.0197492
0.019697
0.020398
0.0203379
0.0202527
0.0201888
0.0201563
0.0200421
0.020028
0.0199422
0.0199236
0.0198952
0.0198656
0.0198224
0.0197769
0.0197688
0.0197809
0.0197611
0.019731
0.0209085
0.0206236
0.020598
-2.63984e-05
0.0204884
)
;
    }
}


// ************************************************************************* //
