/*--------------------------------*- C++ -*----------------------------------*\
  =========                 |
  \\      /  F ield         | OpenFOAM: The Open Source CFD Toolbox
   \\    /   O peration     | Website:  https://openfoam.org
    \\  /    A nd           | Version:  7
     \\/     M anipulation  |
\*---------------------------------------------------------------------------*/
FoamFile
{
    version     2.0;
    format      ascii;
    class       volVectorField;
    location    "20";
    object      U;
}
// * * * * * * * * * * * * * * * * * * * * * * * * * * * * * * * * * * * * * //

dimensions      [0 1 -1 0 0 0 0];

internalField   nonuniform List<vector> 
183
(
(1.15558 0.268771 -3.9061e-20)
(1.16564 0.332651 6.49351e-20)
(1.15985 0.319385 4.10314e-20)
(1.15517 0.306667 -2.14023e-21)
(1.1514 0.294384 -6.66287e-20)
(1.14811 0.282755 2.76815e-20)
(1.14476 0.272587 -1.1267e-20)
(1.18552 0.40158 -2.37891e-20)
(1.17568 0.385284 -2.14053e-19)
(1.16676 0.369384 -1.18226e-20)
(1.15899 0.354054 2.08077e-20)
(1.15243 0.339361 -3.86191e-20)
(1.14707 0.325339 -7.20955e-20)
(1.14284 0.311938 6.59061e-20)
(1.13954 0.29906 8.84176e-21)
(1.19491 0.462022 -1.13423e-20)
(1.189 0.447063 1.84197e-19)
(1.1797 0.429829 4.93945e-20)
(1.16969 0.412013 7.45788e-20)
(1.16022 0.394438 1.0646e-19)
(1.15176 0.377451 -3.13567e-20)
(1.14448 0.361169 -1.54689e-20)
(1.13842 0.345634 9.75148e-20)
(1.12398 0.482756 1.05389e-19)
(1.16389 0.494347 1.67939e-19)
(1.17849 0.490569 3.61007e-20)
(1.17861 0.477678 -1.88036e-19)
(1.17174 0.46025 -5.34147e-20)
(1.16232 0.441124 -1.50238e-19)
(1.15264 0.421817 -6.09265e-20)
(1.14369 0.403011 9.11564e-20)
(0.922797 0.419255 -1.40048e-19)
(1.04481 0.478677 5.50536e-21)
(1.11603 0.508535 -1.58581e-19)
(1.15049 0.515791 1.34447e-19)
(1.16168 0.508194 -1.0132e-19)
(1.16011 0.492264 1.77299e-19)
(1.15274 0.472519 2.57156e-20)
(0.190747 0.0830654 1.05444e-19)
(0.502966 0.230578 -2.60853e-19)
(0.74788 0.357459 2.3272e-19)
(0.924713 0.450365 2.29307e-19)
(1.03926 0.507067 -6.31972e-20)
(1.10393 0.532731 1.14439e-19)
(1.13373 0.535709 -2.04738e-19)
(1.14223 0.524456 8.40486e-20)
(0.195996 0.0936344 1.67943e-19)
(0.510427 0.254521 -2.11618e-19)
(0.751703 0.387087 -1.13339e-19)
(0.921832 0.480117 7.99581e-21)
(1.0292 0.533751 7.03565e-20)
(1.08798 0.555142 -9.11715e-20)
(0.199903 0.104254 2.50311e-20)
(0.514592 0.278047 -6.18817e-20)
(0.751165 0.415598 1.70822e-19)
(0.914356 0.508185 4.65168e-20)
(0.202422 0.114777 1.78492e-20)
(0.515459 0.300842 2.54655e-19)
(0.203528 0.125058 3.64004e-20)
(0.203704 -0.125158 -6.71026e-20)
(0.202611 -0.114877 3.99689e-20)
(0.515837 -0.301023 -3.29087e-19)
(0.200103 -0.104352 -8.92878e-20)
(0.515002 -0.278234 1.14526e-19)
(0.751642 -0.415766 -9.72966e-20)
(0.914801 -0.50826 -2.18747e-19)
(0.196204 -0.0937287 3.36745e-19)
(0.510865 -0.25471 5.72611e-21)
(0.752224 -0.38727 -2.45233e-19)
(0.922329 -0.480221 1.09975e-19)
(1.02963 -0.53374 -2.49789e-19)
(1.08832 -0.555018 1.7883e-19)
(0.190961 -0.0831541 -3.66766e-19)
(0.503428 -0.230764 2.82614e-19)
(0.74844 -0.357652 -1.13293e-19)
(0.925259 -0.450492 1.8221e-19)
(1.03973 -0.50709 1.31283e-19)
(1.10432 -0.532644 -1.22763e-19)
(1.13405 -0.53553 -7.77768e-20)
(1.14251 -0.52421 1.19435e-19)
(0.92339 -0.419401 1.24733e-19)
(1.04533 -0.47873 1.0586e-19)
(1.11646 -0.508484 -2.78158e-20)
(1.15085 -0.515649 1.34603e-20)
(1.16198 -0.507984 -7.48685e-20)
(1.1604 -0.49201 -1.42457e-19)
(1.15305 -0.472238 1.64532e-19)
(1.12445 -0.482737 1.64461e-21)
(1.16428 -0.494241 -3.34335e-20)
(1.17883 -0.490395 -6.34274e-20)
(1.17892 -0.477458 6.41509e-20)
(1.17205 -0.460004 -3.45274e-19)
(1.16265 -0.440864 4.21723e-20)
(1.15301 -0.421554 3.33858e-21)
(1.1441 -0.402749 -8.22972e-20)
(1.19524 -0.461835 1.00416e-19)
(1.18933 -0.44685 2.40597e-20)
(1.18004 -0.429603 5.87986e-20)
(1.17006 -0.411783 4.16431e-20)
(1.16062 -0.394211 1.30803e-19)
(1.1522 -0.37723 2.93653e-20)
(1.14497 -0.360959 4.20798e-20)
(1.13895 -0.345437 -7.14816e-20)
(1.18588 -0.401382 1.84996e-20)
(1.17608 -0.38509 8.33596e-22)
(1.16719 -0.369199 -6.36934e-20)
(1.15946 -0.353881 -4.74228e-20)
(1.15294 -0.339204 1.65152e-20)
(1.14763 -0.3252 1.7508e-20)
(1.14344 -0.311822 -5.16821e-20)
(1.14019 -0.298973 4.71787e-20)
(1.16614 -0.332529 -6.94018e-20)
(1.16039 -0.319284 1.37154e-20)
(1.15575 -0.30659 -1.25002e-20)
(1.15201 -0.294338 1.09619e-20)
(1.14876 -0.282751 -2.79017e-20)
(1.14544 -0.272602 1.2987e-20)
(1.15621 -0.268822 3.76991e-20)
(1.14882 0.229943 4.19781e-21)
(1.13377 0.212203 3.89375e-21)
(1.13185 0.175227 -5.60253e-21)
(1.12757 0.160898 3.37839e-21)
(1.12303 0.139044 -4.16276e-21)
(1.12106 0.124742 -7.33097e-22)
(1.11738 0.111422 1.16671e-21)
(1.11304 0.0993372 4.06917e-22)
(1.10999 0.0877076 -1.00864e-22)
(1.13962 0.231779 1.67246e-21)
(1.12734 0.214484 9.21513e-22)
(1.12615 0.176602 2.75129e-21)
(1.12318 0.162047 -2.3488e-21)
(1.11907 0.140031 1.09372e-21)
(1.11777 0.125437 2.85035e-21)
(1.11452 0.112195 6.61791e-22)
(1.11037 0.100001 -1.30724e-21)
(1.10758 0.0881194 8.31838e-22)
(1.10652 0.0784864 -3.99032e-21)
(1.10317 0.0710121 1.19483e-21)
(1.09899 0.062879 -2.21012e-21)
(1.09541 0.054778 -2.74687e-21)
(1.09272 0.0476357 1.99227e-21)
(1.09084 0.0395354 -3.82492e-21)
(1.08998 0.0342554 -2.09114e-21)
(1.08625 0.0278172 9.3921e-22)
(1.0849 0.0215761 -1.55764e-21)
(1.08319 0.0145197 6.76479e-22)
(1.08487 0.00857888 1.50395e-21)
(1.08189 0.0046498 -2.56494e-21)
(1.08366 0.00864928 -1.79194e-21)
(1.08046 0.00485484 3.01365e-21)
(1.09137 -0.0455371 1.55017e-21)
(1.08994 -0.0383003 1.27784e-21)
(1.08755 -0.0328641 -1.76583e-21)
(1.0849 -0.0259994 -1.44744e-21)
(1.08455 -0.0189956 1.08652e-21)
(1.08548 -0.0136403 -1.19359e-21)
(1.08435 -0.00915902 -8.79356e-22)
(1.08246 -0.00318554 4.94159e-22)
(1.14033 -0.232035 7.45664e-21)
(1.1282 -0.214755 -6.28871e-21)
(1.12734 -0.177871 -5.75893e-21)
(1.12312 -0.162714 -1.72552e-21)
(1.12049 -0.141706 2.89052e-21)
(1.11725 -0.127927 2.73354e-22)
(1.11258 -0.114358 7.51965e-23)
(1.10903 -0.10001 1.28649e-21)
(1.10734 -0.0907849 1.84775e-21)
(1.10098 -0.0795533 3.70898e-21)
(1.10022 -0.0693363 -1.10656e-21)
(1.09546 -0.0617713 2.07967e-21)
(1.09443 -0.0513938 6.8379e-22)
(1.09293 -0.0454305 1.95453e-21)
(1.09135 -0.0381309 6.85279e-23)
(1.08895 -0.0326127 3.53274e-22)
(1.08638 -0.0258395 9.11491e-22)
(1.08593 -0.0190393 -2.039e-21)
(1.08665 -0.0136455 -4.87977e-22)
(1.08554 -0.00900768 1.80365e-21)
(1.08379 -0.00308943 -9.81787e-22)
(1.14949 -0.230227 -6.43855e-21)
(1.13455 -0.212493 -5.545e-21)
(1.13295 -0.176449 8.62135e-21)
(1.12747 -0.16158 -4.75607e-21)
)
;

boundaryField
{
    inlet
    {
        type            uniformFixedValue;
        uniformValue    constant (1 0 0);
        value           nonuniform 0();
    }
    outlet
    {
        type            pressureInletOutletVelocity;
        value           nonuniform 0();
    }
    cylinder
    {
        type            fixedValue;
        value           uniform (0 0 0);
    }
    top
    {
        type            symmetryPlane;
    }
    bottom
    {
        type            symmetryPlane;
    }
    defaultFaces
    {
        type            empty;
    }
    procBoundary14to13
    {
        type            processor;
        value           nonuniform List<vector> 
104
(
(1.13664 0.286928 2.69354e-20)
(1.1331 0.276128 3.61192e-20)
(1.13356 0.330857 1.53743e-20)
(1.12985 0.316754 4.14292e-20)
(1.13664 0.286928 2.69354e-20)
(1.12709 0.303272 -1.65126e-20)
(1.13583 0.384967 8.78061e-20)
(1.12914 0.36776 -9.43019e-21)
(1.13356 0.330857 1.53743e-20)
(1.12365 0.351402 -1.40109e-20)
(1.14354 0.451615 -7.21154e-20)
(1.13442 0.430894 -1.3403e-20)
(1.13583 0.384967 8.78061e-20)
(1.12616 0.410913 -9.0597e-20)
(1.13957 0.505672 3.09245e-20)
(1.14354 0.451615 -7.21154e-20)
(1.13215 0.483766 1.73788e-20)
(1.11388 0.553951 7.8049e-20)
(1.13957 0.505672 3.09245e-20)
(1.12039 0.539233 -6.58294e-20)
(1.01492 0.558471 5.80663e-20)
(1.11388 0.553951 7.8049e-20)
(1.06849 0.575579 -2.82282e-19)
(0.746391 0.442644 -2.22851e-20)
(1.01492 0.558471 5.80663e-20)
(0.902531 0.534262 2.33741e-19)
(0.746391 0.442644 -2.22851e-20)
(0.513073 0.322602 5.5866e-19)
(0.513073 0.322602 5.5866e-19)
(0.203221 0.134962 -4.32763e-19)
(0.203381 -0.13506 2.98205e-22)
(0.513414 -0.322773 -2.85876e-19)
(0.513414 -0.322773 -2.85876e-19)
(0.74682 -0.442791 -1.99111e-19)
(0.74682 -0.442791 -1.99111e-19)
(0.902923 -0.534304 -1.36707e-19)
(1.0153 -0.558424 1.23758e-20)
(1.0153 -0.558424 1.23758e-20)
(1.06879 -0.575414 -7.78597e-20)
(1.11416 -0.553734 -1.05617e-19)
(1.11416 -0.553734 -1.05617e-19)
(1.12065 -0.53895 3.12551e-19)
(1.13984 -0.505382 -2.40571e-19)
(1.13984 -0.505382 -2.40571e-19)
(1.13244 -0.48345 -1.4188e-19)
(1.14387 -0.451321 -2.14309e-20)
(1.14387 -0.451321 -2.14309e-20)
(1.13478 -0.430595 1.80345e-20)
(1.12656 -0.410614 6.15062e-20)
(1.13628 -0.384709 -3.68213e-21)
(1.13628 -0.384709 -3.68213e-21)
(1.12964 -0.36751 3.32528e-20)
(1.12419 -0.351163 4.70816e-20)
(1.13414 -0.330677 -5.31494e-21)
(1.13414 -0.330677 -5.31494e-21)
(1.13048 -0.316596 -9.15318e-20)
(1.12776 -0.303142 1.66379e-20)
(1.13732 -0.28688 2.21942e-20)
(1.13732 -0.28688 2.21942e-20)
(1.13384 -0.276099 -6.87017e-21)
(1.13025 0.233226 -9.98198e-21)
(1.12071 0.216571 -1.23106e-21)
(1.12046 0.177985 4.87358e-21)
(1.11861 0.163134 -5.16237e-22)
(1.11508 0.14101 -5.47205e-22)
(1.11444 0.126101 -5.31189e-21)
(1.11166 0.112972 8.55606e-21)
(1.1077 0.100689 4.20087e-22)
(1.10514 0.0885197 -1.27982e-21)
(1.10454 0.0787872 -2.41503e-21)
(1.10144 0.0715033 -1.60884e-21)
(1.09728 0.063406 5.86325e-22)
(1.0937 0.0552158 -4.39942e-21)
(1.09106 0.0479661 5.22922e-23)
(1.08932 0.0396931 -1.28316e-21)
(1.08865 0.0345097 1.77208e-21)
(1.08485 0.0281371 1.44144e-21)
(1.08343 0.0218007 -1.05396e-21)
(1.08177 0.0145084 1.12404e-21)
(1.08177 0.0145084 1.12404e-21)
(1.08246 0.00872419 -1.53725e-21)
(1.07902 0.00508302 4.41975e-21)
(1.08981 -0.0456152 1.02203e-21)
(1.08856 -0.0384665 -5.46007e-22)
(1.08616 -0.0331368 1.48757e-21)
(1.08341 -0.0261708 1.94102e-21)
(1.08316 -0.0189293 -1.00743e-21)
(1.08433 -0.0136195 -1.47008e-21)
(1.08318 -0.00933102 1.60492e-21)
(1.08111 -0.00330013 -4.66487e-21)
(1.13101 -0.233448 1.04721e-20)
(1.12165 -0.216814 -3.49511e-21)
(1.12173 -0.179299 -8.71144e-21)
(1.1186 -0.163768 -3.56243e-21)
(1.11672 -0.142732 8.46788e-22)
(1.11402 -0.12888 1.88699e-21)
(1.10959 -0.115327 -4.741e-21)
(1.10634 -0.100623 8.27622e-22)
(1.10503 -0.0914888 -4.74841e-22)
(1.09868 -0.0801494 5.00582e-21)
(1.09818 -0.0697412 -7.75233e-22)
(1.09346 -0.0621728 2.02962e-21)
(1.09261 -0.0515052 2.10302e-21)
(1.09261 -0.0515052 2.10302e-21)
)
;
    }
    procBoundary14to15
    {
        type            processor;
        value           nonuniform List<vector> 
98
(
(1.16559 0.264606 2.85516e-20)
(1.17806 0.325573 1.46804e-20)
(1.17191 0.313071 2.94165e-20)
(1.16685 0.301045 -1.04601e-19)
(1.1627 0.289417 -2.9229e-22)
(1.15909 0.278449 -2.29505e-20)
(1.15909 0.278449 -2.29505e-20)
(1.20006 0.390607 5.6254e-20)
(1.19006 0.375637 -5.10561e-20)
(1.1808 0.360851 -6.99462e-21)
(1.17262 0.346489 3.93939e-20)
(1.17262 0.346489 3.93939e-20)
(1.2088 0.445398 -1.25588e-20)
(1.20441 0.433057 -8.4151e-20)
(1.19561 0.417828 -8.9699e-20)
(1.19561 0.417828 -8.9699e-20)
(1.12747 0.455605 5.66293e-20)
(1.17363 0.471533 -6.68388e-20)
(1.19245 0.471705 1.9069e-19)
(1.19245 0.471705 1.9069e-19)
(0.915929 0.387133 1.72873e-19)
(1.04558 0.448854 -1.68393e-19)
(1.04558 0.448854 -1.68393e-19)
(0.184231 0.0726902 -1.83854e-19)
(0.492262 0.206535 2.32174e-20)
(0.739628 0.327078 2.23614e-20)
(0.739628 0.327078 2.23614e-20)
(0.184447 -0.0727719 3.21033e-19)
(0.492741 -0.206714 -1.01717e-20)
(0.740223 -0.327276 -1.16399e-19)
(0.740223 -0.327276 -1.16399e-19)
(0.916563 -0.387293 6.07542e-20)
(1.04614 -0.448932 6.55895e-20)
(1.04614 -0.448932 6.55895e-20)
(1.12799 -0.455616 1.42795e-19)
(1.17406 -0.47146 -1.61944e-19)
(1.19281 -0.471564 -4.04425e-21)
(1.19281 -0.471564 -4.04425e-21)
(1.20915 -0.445244 -1.69356e-19)
(1.20475 -0.432876 9.18606e-21)
(1.19595 -0.417633 -4.03415e-20)
(1.19595 -0.417633 -4.03415e-20)
(1.20043 -0.39044 5.67582e-21)
(1.19045 -0.375474 7.53365e-20)
(1.18123 -0.360698 2.5555e-21)
(1.17308 -0.34635 8.07245e-20)
(1.17308 -0.34635 8.07245e-20)
(1.17854 -0.325483 -8.04178e-20)
(1.17242 -0.313004 -4.55006e-20)
(1.1674 -0.301004 6.5611e-21)
(1.16328 -0.289406 -1.97622e-20)
(1.15971 -0.278479 2.80012e-20)
(1.15971 -0.278479 2.80012e-20)
(1.16618 -0.264688 -2.87224e-20)
(1.15757 0.227825 -7.19992e-21)
(1.14024 0.209793 3.34455e-21)
(1.13754 0.173832 1.69452e-21)
(1.13186 0.159673 -1.70241e-21)
(1.12699 0.138073 2.31857e-21)
(1.1243 0.124015 -1.16275e-21)
(1.12025 0.110659 -2.39294e-21)
(1.1157 0.098693 1.37243e-21)
(1.11237 0.0872838 -6.80896e-22)
(1.10851 0.0781534 -3.24798e-22)
(1.10851 0.0781534 -3.24798e-22)
(1.10494 0.0705218 2.05167e-22)
(1.10073 0.062378 -3.41786e-21)
(1.09712 0.054361 -1.94637e-22)
(1.09437 0.0473097 -7.81514e-22)
(1.09236 0.0393629 -1.79006e-21)
(1.09132 0.0340009 -1.30083e-21)
(1.08767 0.0275215 1.34008e-21)
(1.08635 0.0213635 1.80319e-21)
(1.0846 0.014514 -1.94181e-21)
(1.08608 0.00851275 1.83448e-21)
(1.0833 0.00446573 6.68052e-22)
(1.12427 -0.140657 1.64097e-21)
(1.12046 -0.12697 6.91274e-22)
(1.11557 -0.113414 -1.16186e-21)
(1.1117 -0.0993982 -3.99988e-22)
(1.10966 -0.0900918 1.09296e-22)
(1.10327 -0.078982 4.11281e-22)
(1.10225 -0.0689412 -3.71195e-22)
(1.09745 -0.0613813 2.05714e-21)
(1.09623 -0.0512685 -7.02728e-22)
(1.0945 -0.0453 3.54721e-23)
(1.09277 -0.0379601 -6.10769e-22)
(1.09036 -0.0323793 8.36928e-22)
(1.08784 -0.0256886 1.0357e-21)
(1.08729 -0.0190634 1.75158e-21)
(1.08783 -0.013638 -1.87493e-21)
(1.08673 -0.00887405 1.74487e-21)
(1.08511 -0.00300889 2.09903e-21)
(1.1582 -0.228132 7.24947e-21)
(1.14094 -0.210094 -3.37962e-21)
(1.13855 -0.175009 -1.713e-21)
(1.12427 -0.140657 1.64097e-21)
(1.13171 -0.160358 1.71708e-21)
)
;
    }
}


// ************************************************************************* //
