/*--------------------------------*- C++ -*----------------------------------*\
  =========                 |
  \\      /  F ield         | OpenFOAM: The Open Source CFD Toolbox
   \\    /   O peration     | Website:  https://openfoam.org
    \\  /    A nd           | Version:  7
     \\/     M anipulation  |
\*---------------------------------------------------------------------------*/
FoamFile
{
    version     2.0;
    format      ascii;
    class       surfaceScalarField;
    location    "25";
    object      phi;
}
// * * * * * * * * * * * * * * * * * * * * * * * * * * * * * * * * * * * * * //

dimensions      [0 3 -1 0 0 0 0];

internalField   nonuniform List<scalar> 
254
(
-0.00418374
-0.00183701
-0.00181139
-0.0039227
-0.00403786
-0.00195726
-0.00177662
-0.00368479
-0.00191845
-0.00378086
-0.00173863
-0.003459
-0.0018755
-0.00354791
-0.00169243
-0.00323888
-0.00183202
-0.00331941
-0.00177673
-0.00309815
-0.00171224
-0.00288395
-0.00163864
-0.00267684
-0.00273788
-0.00170326
-0.00253013
-0.00161365
-0.00232942
-0.00237958
-0.00166724
-0.00217861
-0.00156309
-0.00198447
-0.00202445
-0.00160634
-0.00183039
-0.0014892
-0.00164283
-0.00167345
-0.0015229
-0.00148627
-0.0015139
-0.00155333
-0.00132736
-0.00141944
-0.00114688
-0.00116635
-0.00144139
-0.000986778
-0.00100349
-0.00146024
-0.000825099
-0.000839051
-0.00147598
-0.000662099
-0.000673278
-0.00132454
-0.000490572
-0.0014886
-0.000498039
-0.000506439
-0.00133323
-0.00032819
-0.00149809
-0.000333182
-0.000338798
-0.00133904
-0.000165277
-0.00150443
-0.000167791
-0.00134197
-2.09568e-06
-2.13187e-06
-0.00134201
0.000161089
0.000163531
-0.00133917
0.000324014
-0.00150457
0.000328931
0.000334467
-0.00133345
-0.00149832
0.000493806
0.000502124
-0.00148893
0.00065789
0.000668986
-0.00147641
0.000820922
0.000834788
-0.00146077
0.000982642
0.000999269
-0.00144201
0.00114279
0.00116217
-0.00142017
0.00132324
-0.00155423
0.00148221
0.00150973
-0.00152392
0.00163885
0.00166936
-0.00149034
0.00182639
-0.0016077
0.00198058
0.00202042
-0.00156459
0.0021747
-0.00166902
0.00232565
0.00237566
-0.00161559
0.00252637
-0.00170554
0.00267327
0.00273413
-0.0016411
-0.00178741
0.00288044
0.00294914
-0.00171514
0.00309473
-0.00178016
0.00331614
-0.00183608
0.00345617
0.00354489
-0.0017429
-0.00188037
0.00368236
0.0037783
-0.0017816
-0.00192419
0.00392089
0.00403616
-0.00181705
0.0041829
-0.00196379
-0.00184323
-0.00191577
-0.0193571
-0.00192466
-0.0199539
-0.0019001
-0.0202973
-0.00184978
-0.0205636
-0.00179185
-0.020647
-0.00171763
-0.020831
-0.00161311
-0.0209942
-0.00150926
-0.0209335
-0.00142235
-0.0208454
-0.00132014
-0.0209919
-0.00118879
-0.0211166
-0.00105443
-0.0210526
-0.000938377
-0.0209055
-0.000835628
-0.0207974
-0.000723803
-0.0208386
-0.000587567
-0.0209639
-0.000461037
-0.0208444
-0.000355039
-0.0207067
-0.000242388
-0.0207218
-0.000108113
-0.0208844
-0.0206753
-0.00201548
-0.00202143
-0.00199678
-0.00194465
-0.00188702
-0.00180739
-0.001696
-0.00158825
-0.00150358
-0.00138985
-0.00124897
-0.00110659
-0.000990175
-0.000882581
-0.000767028
-0.000614491
-0.00048553
-0.000373753
-0.000259714
-0.000109986
-0.00202193
0.0193776
-0.00202486
0.0199937
-0.00199688
0.0203426
-0.00195301
0.0205417
-0.00188442
0.0207642
-0.0017837
0.0209425
-0.00168227
0.0209045
-0.00158998
0.0208641
-0.00146956
0.0209732
-0.00135904
0.0208566
-0.00124079
0.0208901
-0.00113423
0.0207754
-0.00103211
0.0207728
-0.00090495
0.0208885
-0.000758035
0.0209825
-0.000619963
-0.000514266
-0.000403284
-0.000252772
-0.000105985
-0.00192238
-0.00192849
-0.00190091
-0.00185741
-0.00179219
-0.00169627
-0.00159771
-0.00150404
-0.0013952
-0.0012858
-0.00117573
-0.00107332
-0.000975565
-0.00085893
)
;

boundaryField
{
    inlet
    {
        type            calculated;
        value           nonuniform 0();
    }
    outlet
    {
        type            calculated;
        value           nonuniform 0();
    }
    cylinder
    {
        type            calculated;
        value           nonuniform 0();
    }
    top
    {
        type            symmetryPlane;
        value           uniform 0;
    }
    bottom
    {
        type            symmetryPlane;
        value           uniform 0;
    }
    defaultFaces
    {
        type            empty;
        value           nonuniform 0();
    }
    procBoundary5to4
    {
        type            processor;
        value           nonuniform List<scalar> 
106
(
-0.00388967
-0.00206665
-0.00201361
-0.00364276
-0.00197493
-0.003405
-0.00192092
-0.00317522
-0.00185754
-0.00295285
-0.00178471
-0.00185343
-0.0025877
-0.0017642
-0.00182141
-0.00222542
-0.00171725
-0.00176362
-0.00186717
-0.00164614
-0.00168246
-0.00171525
-0.00135198
-0.00158045
-0.00160424
-0.00162468
-0.00164176
-0.00165544
-0.00166573
-0.00167261
-0.00017062
-0.00150763
-0.00150767
-0.000166279
-0.00167276
-0.00166598
-0.00165579
-0.00164221
-0.00162525
-0.00160492
-0.00158124
-0.00134775
-0.00171621
-0.00168355
-0.00164737
-0.00186304
-0.00176509
-0.00171887
-0.00222135
-0.00182333
-0.00176631
-0.00258376
-0.00185592
-0.00279925
-0.00193731
-0.00186073
-0.00317158
-0.00192472
-0.00340149
-0.00197948
-0.00363947
-0.0020192
-0.00388694
-0.00207341
-0.0192988
-0.019948
-0.020322
-0.0206157
-0.0207047
-0.0209106
-0.0211056
-0.0210412
-0.02093
-0.0211056
-0.0212575
-0.021195
-0.0210219
-0.020905
-0.0209541
-0.0211164
-0.0209734
-0.0208185
-0.0208358
-0.0210342
-0.0207853
-0.0193195
-0.0199908
-0.0203705
-0.0205855
-0.0208328
-0.0210432
-0.021006
-0.0209564
-0.0210936
-0.0209672
-0.0210084
-0.0208819
-0.0208749
-0.0210157
-0.0211294
-0.021047
-0.0208428
-0.0208728
-0.0210952
-0.0210626
-0.0208237
)
;
    }
    procBoundary5to6
    {
        type            processor;
        value           nonuniform List<scalar> 
115
(
0.00432012
0.00170064
0.00405971
0.00167438
0.00381904
0.00164236
0.00359347
0.00160415
0.00337505
0.00155626
0.00163601
0.00302576
0.00157044
0.00281952
0.00149596
0.00155654
0.00247665
0.00146642
0.00151643
0.00213547
0.0014121
0.00145225
0.0017968
0.00133523
0.00136634
0.00139442
0.00130515
0.00126117
0.00128129
0.00129856
0.00131298
0.00065216
0.00116295
0.00117085
0.00117613
0.00117879
0.00117883
0.00117625
0.00117105
0.000486414
0.00132485
0.00131338
0.00129905
0.00128186
0.00126184
0.00130112
0.00139525
0.00136728
0.00133628
0.00179292
0.00145352
0.00141348
0.00213169
0.00151808
0.0014682
0.00247304
0.00155864
0.0014982
0.00281617
0.00157307
0.00302252
0.00163909
0.0032358
0.00169605
0.00160793
0.00359114
0.00164674
0.00381722
0.00167932
0.00405861
0.0017061
0.00432003
0.0194358
0.0199628
0.0202728
0.0205132
0.0205891
0.0207568
0.0208897
0.0208296
0.0207585
0.0208897
0.0209852
0.0209183
0.0207895
0.0206947
0.0207268
0.0208276
0.0207179
0.0206007
0.0206091
0.0207502
0.0205672
0.0209089
0.0207371
0.0207618
0.0209447
0.0209158
0.0207177
0.0194568
0.0199998
0.020315
0.0204982
0.020699
0.0208466
0.020806
0.0207705
0.0208643
0.0207472
0.0207801
0.020673
0.020675
0.0207719
-0.000722299
0.0208459
)
;
    }
}


// ************************************************************************* //
