/*--------------------------------*- C++ -*----------------------------------*\
  =========                 |
  \\      /  F ield         | OpenFOAM: The Open Source CFD Toolbox
   \\    /   O peration     | Website:  https://openfoam.org
    \\  /    A nd           | Version:  7
     \\/     M anipulation  |
\*---------------------------------------------------------------------------*/
FoamFile
{
    version     2.0;
    format      ascii;
    class       volScalarField;
    location    "12";
    object      p;
}
// * * * * * * * * * * * * * * * * * * * * * * * * * * * * * * * * * * * * * //

dimensions      [0 2 -2 0 0 0 0];

internalField   nonuniform List<scalar> 
40000
(
-0.284974
-0.285998
-0.286765
-0.287392
-0.287958
-0.28847
-0.288936
-0.28937
-0.289783
-0.290186
-0.290586
-0.290993
-0.29141
-0.291842
-0.292293
-0.292765
-0.293258
-0.293776
-0.294318
-0.294887
-0.295485
-0.296116
-0.296783
-0.297496
-0.298263
-0.299097
-0.300016
-0.301039
-0.302187
-0.303513
-0.285103
-0.286117
-0.286877
-0.287499
-0.28806
-0.288568
-0.28903
-0.289461
-0.289871
-0.290271
-0.290669
-0.291073
-0.291488
-0.291918
-0.292366
-0.292835
-0.293326
-0.293841
-0.29438
-0.294946
-0.295539
-0.296165
-0.296827
-0.297533
-0.298293
-0.299119
-0.300029
-0.301043
-0.302175
-0.303492
-0.285359
-0.286354
-0.2871
-0.28771
-0.288263
-0.288762
-0.289217
-0.289641
-0.290045
-0.29044
-0.290833
-0.291232
-0.291642
-0.292067
-0.29251
-0.292974
-0.29346
-0.293969
-0.294502
-0.29506
-0.295645
-0.296261
-0.296912
-0.297606
-0.29835
-0.29916
-0.300053
-0.301047
-0.30215
-0.303448
-0.285738
-0.286704
-0.28743
-0.288025
-0.288563
-0.28905
-0.289495
-0.289909
-0.290304
-0.29069
-0.291075
-0.291466
-0.291869
-0.292287
-0.292722
-0.293179
-0.293656
-0.294156
-0.294679
-0.295226
-0.295799
-0.296401
-0.297035
-0.297709
-0.298431
-0.299215
-0.300082
-0.301047
-0.302107
-0.303375
-0.286235
-0.287164
-0.287862
-0.288437
-0.288957
-0.289428
-0.289858
-0.290259
-0.290642
-0.291017
-0.291392
-0.291772
-0.292165
-0.292572
-0.292998
-0.293443
-0.293909
-0.294397
-0.294907
-0.295439
-0.295995
-0.296577
-0.297189
-0.297836
-0.298528
-0.299279
-0.300109
-0.301036
-0.30204
-0.303265
-0.286842
-0.287725
-0.288392
-0.288941
-0.289439
-0.28989
-0.290303
-0.290688
-0.291056
-0.291416
-0.291777
-0.292144
-0.292524
-0.292918
-0.29333
-0.293762
-0.294213
-0.294685
-0.295178
-0.295691
-0.296225
-0.296783
-0.297366
-0.29798
-0.298635
-0.299342
-0.300127
-0.301006
-0.301941
-0.303108
-0.28755
-0.288382
-0.289012
-0.289532
-0.290003
-0.290431
-0.290823
-0.291188
-0.291538
-0.291881
-0.292225
-0.292576
-0.292939
-0.293317
-0.293712
-0.294127
-0.29456
-0.295013
-0.295484
-0.295974
-0.296482
-0.297009
-0.297558
-0.298133
-0.298741
-0.299397
-0.300126
-0.300948
-0.301803
-0.302894
-0.28835
-0.289126
-0.289714
-0.290201
-0.290643
-0.291045
-0.291411
-0.291754
-0.292083
-0.292405
-0.292729
-0.29306
-0.293403
-0.293761
-0.294136
-0.29453
-0.294941
-0.295371
-0.295817
-0.296279
-0.296756
-0.297248
-0.297756
-0.298284
-0.298839
-0.299434
-0.300098
-0.300853
-0.301619
-0.302608
-0.289232
-0.289946
-0.29049
-0.290941
-0.291351
-0.291723
-0.292062
-0.292379
-0.292683
-0.292981
-0.293281
-0.293589
-0.293909
-0.294243
-0.294594
-0.294962
-0.295348
-0.29575
-0.296166
-0.296596
-0.297037
-0.297488
-0.297951
-0.298426
-0.298921
-0.299446
-0.300033
-0.300713
-0.301384
-0.302235
-0.290184
-0.290835
-0.291332
-0.291745
-0.292119
-0.292459
-0.292768
-0.293055
-0.293331
-0.293602
-0.293875
-0.294155
-0.294447
-0.294754
-0.295076
-0.295416
-0.295771
-0.296141
-0.296524
-0.296917
-0.297317
-0.297723
-0.298134
-0.29855
-0.298977
-0.299425
-0.299924
-0.300519
-0.301097
-0.301744
-0.291197
-0.291782
-0.292231
-0.292603
-0.292941
-0.293245
-0.293521
-0.293776
-0.29402
-0.29426
-0.294501
-0.29475
-0.295011
-0.295285
-0.295575
-0.295881
-0.296202
-0.296536
-0.29688
-0.297232
-0.297587
-0.297943
-0.298298
-0.29865
-0.299004
-0.299366
-0.299767
-0.300271
-0.300769
-0.301065
-0.292259
-0.29278
-0.293179
-0.29351
-0.293808
-0.294075
-0.294314
-0.294535
-0.294744
-0.294948
-0.295154
-0.295367
-0.295592
-0.295829
-0.296082
-0.29635
-0.296632
-0.296925
-0.297227
-0.297533
-0.29784
-0.298142
-0.298437
-0.298721
-0.298996
-0.299267
-0.299561
-0.299965
-0.300411
-0.300181
-0.293362
-0.293818
-0.294168
-0.294457
-0.294715
-0.294942
-0.295143
-0.295325
-0.295495
-0.29566
-0.295827
-0.296
-0.296183
-0.296379
-0.29659
-0.296815
-0.297053
-0.297302
-0.297557
-0.297814
-0.298069
-0.298314
-0.298545
-0.298758
-0.298951
-0.299127
-0.299309
-0.299585
-0.299862
-0.299664
-0.294497
-0.294891
-0.295193
-0.295439
-0.295655
-0.295841
-0.296001
-0.296141
-0.296268
-0.29639
-0.296513
-0.296641
-0.296779
-0.296929
-0.297093
-0.29727
-0.29746
-0.297659
-0.297864
-0.298069
-0.298268
-0.298454
-0.29862
-0.29876
-0.29887
-0.298947
-0.299016
-0.299156
-0.299237
-0.298991
-0.295656
-0.295992
-0.296247
-0.29645
-0.296624
-0.296767
-0.296883
-0.296978
-0.297059
-0.297134
-0.297208
-0.297286
-0.297373
-0.297472
-0.297584
-0.297709
-0.297846
-0.297992
-0.298142
-0.298292
-0.298433
-0.298559
-0.298659
-0.298726
-0.298752
-0.298731
-0.298683
-0.298685
-0.298581
-0.298129
-0.296834
-0.297116
-0.297326
-0.297488
-0.297618
-0.297716
-0.297786
-0.297833
-0.297865
-0.297887
-0.297908
-0.297931
-0.297963
-0.298005
-0.29806
-0.298128
-0.298208
-0.298297
-0.298389
-0.298481
-0.298562
-0.298626
-0.298661
-0.298656
-0.298599
-0.298482
-0.298315
-0.298175
-0.297891
-0.297116
-0.298028
-0.29826
-0.298428
-0.298548
-0.298635
-0.298687
-0.298708
-0.298704
-0.298681
-0.298648
-0.29861
-0.298574
-0.298544
-0.298525
-0.298518
-0.298525
-0.298543
-0.29857
-0.298602
-0.298633
-0.298653
-0.298655
-0.298624
-0.298549
-0.298414
-0.298203
-0.297918
-0.297635
-0.297174
-0.295962
-0.299235
-0.299424
-0.299552
-0.299631
-0.299674
-0.299678
-0.299648
-0.299589
-0.299508
-0.299414
-0.299313
-0.299212
-0.299116
-0.299031
-0.298957
-0.298897
-0.298849
-0.298812
-0.29878
-0.298747
-0.298706
-0.298644
-0.29855
-0.298407
-0.298197
-0.297897
-0.297498
-0.29707
-0.296443
-0.294664
-0.300458
-0.300608
-0.300698
-0.300738
-0.300735
-0.30069
-0.300606
-0.300489
-0.300346
-0.300187
-0.300018
-0.299847
-0.29968
-0.299522
-0.299377
-0.299246
-0.299128
-0.299022
-0.298924
-0.298826
-0.29872
-0.298596
-0.298438
-0.298229
-0.297947
-0.297564
-0.297055
-0.296482
-0.295715
-0.293225
-0.301698
-0.301814
-0.30187
-0.30187
-0.301822
-0.301726
-0.301584
-0.301405
-0.301197
-0.300967
-0.300725
-0.300479
-0.300236
-0.300002
-0.29978
-0.299574
-0.299382
-0.299204
-0.299036
-0.29887
-0.2987
-0.298511
-0.29829
-0.298016
-0.297664
-0.297202
-0.296589
-0.295867
-0.295002
-0.291655
-0.302961
-0.303049
-0.303071
-0.303033
-0.302938
-0.302788
-0.302586
-0.302342
-0.302063
-0.301758
-0.301439
-0.301113
-0.300789
-0.300473
-0.30017
-0.299884
-0.299615
-0.299361
-0.29912
-0.298885
-0.298647
-0.298394
-0.298108
-0.297768
-0.297348
-0.296808
-0.296096
-0.295216
-0.294311
-0.289978
-0.304255
-0.304318
-0.304309
-0.304231
-0.304088
-0.303881
-0.303617
-0.303303
-0.302949
-0.302565
-0.302163
-0.301753
-0.301343
-0.300941
-0.300553
-0.300183
-0.299833
-0.299501
-0.299184
-0.298877
-0.298569
-0.298248
-0.297896
-0.297489
-0.296997
-0.296378
-0.295569
-0.294517
-0.293639
-0.288234
-0.30559
-0.305631
-0.305591
-0.305472
-0.305279
-0.305014
-0.304682
-0.304295
-0.303861
-0.303394
-0.302905
-0.302405
-0.301905
-0.301413
-0.300936
-0.300478
-0.300043
-0.29963
-0.299235
-0.298852
-0.298473
-0.298082
-0.29766
-0.297182
-0.296614
-0.295911
-0.295005
-0.293761
-0.292968
-0.286477
-0.306978
-0.306999
-0.306928
-0.306766
-0.30652
-0.306192
-0.30579
-0.305325
-0.304807
-0.304252
-0.303671
-0.303077
-0.302483
-0.301896
-0.301327
-0.300779
-0.300256
-0.299758
-0.299282
-0.298822
-0.298367
-0.297903
-0.297408
-0.296853
-0.296202
-0.295406
-0.294401
-0.292947
-0.292268
-0.284775
-0.308433
-0.308434
-0.30833
-0.308123
-0.307821
-0.307427
-0.30695
-0.306402
-0.305796
-0.305147
-0.304471
-0.303779
-0.303086
-0.302403
-0.301737
-0.301096
-0.300482
-0.299897
-0.299338
-0.298797
-0.298263
-0.297721
-0.297146
-0.296509
-0.295766
-0.294867
-0.293754
-0.292084
-0.2915
-0.28321
-0.309971
-0.309949
-0.30981
-0.309555
-0.309192
-0.308728
-0.308171
-0.307535
-0.306837
-0.306091
-0.305314
-0.304521
-0.303727
-0.302942
-0.302178
-0.30144
-0.300734
-0.300059
-0.299413
-0.298788
-0.298171
-0.297545
-0.296884
-0.296155
-0.29531
-0.294296
-0.29306
-0.29119
-0.290617
-0.281864
-0.311608
-0.311561
-0.311382
-0.311075
-0.310647
-0.310106
-0.309464
-0.308737
-0.307941
-0.307093
-0.306212
-0.305315
-0.304415
-0.303527
-0.302661
-0.301825
-0.301024
-0.300256
-0.29952
-0.298806
-0.298102
-0.297385
-0.296629
-0.295796
-0.294838
-0.293697
-0.292311
-0.290282
-0.289543
-0.280752
-0.313363
-0.313285
-0.313061
-0.312696
-0.312197
-0.311574
-0.310843
-0.310018
-0.30912
-0.308166
-0.307178
-0.306172
-0.305164
-0.304171
-0.303201
-0.302264
-0.301364
-0.300502
-0.299671
-0.298864
-0.298063
-0.297247
-0.296384
-0.295436
-0.29435
-0.293072
-0.29151
-0.289385
-0.288162
-0.279742
-0.315255
-0.315138
-0.314863
-0.314433
-0.313856
-0.313146
-0.312318
-0.311391
-0.310385
-0.309322
-0.308222
-0.307105
-0.305987
-0.304885
-0.30381
-0.30277
-0.301769
-0.300807
-0.299878
-0.298969
-0.298063
-0.297134
-0.29615
-0.29507
-0.293843
-0.292424
-0.290685
-0.288576
-0.286489
-0.279011
-0.317302
-0.317136
-0.316802
-0.3163
-0.315639
-0.314834
-0.313904
-0.312868
-0.311751
-0.310574
-0.309359
-0.308127
-0.306897
-0.305685
-0.304501
-0.303355
-0.30225
-0.301183
-0.300147
-0.299128
-0.298103
-0.297046
-0.295921
-0.294689
-0.293301
-0.29173
-0.289844
-0.287887
-0.284992
-0.280504
-0.319524
-0.319299
-0.318896
-0.318312
-0.317559
-0.316652
-0.315613
-0.314464
-0.313229
-0.311934
-0.310601
-0.309253
-0.307907
-0.306582
-0.305287
-0.304032
-0.302817
-0.301639
-0.300487
-0.299343
-0.298183
-0.296977
-0.295686
-0.294272
-0.292693
-0.29094
-0.288907
-0.287044
-0.284139
-0.286361
-0.321939
-0.321641
-0.321159
-0.320485
-0.31963
-0.318614
-0.317459
-0.31619
-0.314834
-0.313416
-0.311962
-0.310493
-0.30903
-0.307589
-0.30618
-0.30481
-0.303479
-0.30218
-0.300899
-0.299614
-0.298297
-0.296914
-0.295426
-0.293795
-0.291987
-0.290002
-0.287778
-0.285739
-0.28295
-0.284212
-0.324565
-0.32418
-0.323607
-0.322834
-0.321868
-0.320733
-0.319455
-0.318061
-0.316578
-0.315033
-0.313454
-0.311862
-0.310278
-0.308718
-0.30719
-0.3057
-0.304243
-0.302811
-0.301383
-0.299935
-0.298434
-0.296842
-0.29512
-0.293232
-0.291148
-0.288875
-0.286377
-0.283984
-0.280973
-0.280623
-0.327419
-0.326931
-0.326255
-0.325371
-0.324286
-0.323024
-0.321615
-0.320089
-0.318473
-0.316798
-0.31509
-0.313372
-0.311664
-0.309979
-0.308327
-0.306707
-0.305113
-0.30353
-0.301936
-0.300298
-0.29858
-0.296743
-0.294747
-0.292558
-0.290152
-0.28754
-0.284698
-0.281864
-0.278484
-0.276812
-0.330517
-0.329911
-0.329118
-0.328113
-0.326897
-0.325499
-0.323953
-0.322288
-0.320535
-0.318725
-0.316884
-0.315035
-0.313198
-0.311384
-0.309597
-0.307836
-0.306089
-0.304336
-0.302547
-0.300688
-0.298717
-0.296595
-0.294283
-0.291752
-0.288985
-0.285992
-0.282763
-0.279465
-0.275684
-0.272941
-0.333874
-0.333132
-0.332209
-0.331071
-0.329714
-0.328173
-0.32648
-0.32467
-0.322775
-0.320825
-0.318847
-0.316863
-0.314891
-0.312938
-0.311008
-0.30909
-0.307169
-0.305219
-0.303205
-0.301088
-0.298825
-0.296377
-0.293709
-0.290799
-0.287638
-0.284242
-0.280607
-0.27686
-0.272688
-0.269173
-0.337504
-0.336608
-0.335542
-0.334259
-0.332752
-0.331057
-0.329211
-0.32725
-0.325206
-0.323111
-0.320991
-0.318867
-0.316751
-0.31465
-0.31256
-0.310467
-0.308347
-0.306169
-0.303893
-0.301478
-0.298881
-0.296066
-0.293006
-0.289688
-0.286113
-0.282303
-0.278264
-0.274101
-0.269573
-0.265495
-0.34142
-0.340351
-0.339128
-0.337689
-0.336021
-0.334164
-0.332158
-0.330039
-0.327842
-0.325597
-0.323329
-0.321055
-0.318787
-0.316523
-0.314254
-0.31196
-0.309611
-0.307169
-0.304591
-0.301836
-0.298864
-0.295645
-0.292163
-0.288415
-0.284415
-0.280193
-0.275764
-0.271222
-0.266378
-0.261892
-0.345631
-0.344373
-0.342978
-0.341373
-0.339533
-0.337506
-0.335333
-0.333051
-0.330694
-0.328293
-0.325869
-0.323437
-0.321002
-0.318557
-0.316086
-0.31356
-0.310945
-0.308199
-0.305276
-0.302138
-0.298751
-0.295096
-0.291168
-0.286978
-0.282552
-0.277928
-0.273129
-0.268246
-0.263123
-0.258328
-0.350148
-0.348682
-0.347103
-0.345319
-0.3433
-0.341095
-0.338747
-0.336296
-0.333774
-0.331209
-0.32862
-0.326017
-0.323397
-0.320748
-0.318045
-0.315253
-0.312332
-0.309236
-0.305923
-0.302359
-0.298522
-0.294404
-0.290015
-0.285379
-0.280533
-0.275522
-0.270377
-0.265184
-0.259812
-0.254771
-0.354978
-0.353286
-0.35151
-0.349539
-0.347331
-0.34494
-0.342412
-0.339785
-0.337091
-0.334354
-0.331588
-0.328797
-0.325972
-0.32309
-0.320119
-0.317019
-0.313745
-0.310253
-0.306505
-0.302478
-0.298159
-0.293559
-0.2887
-0.28362
-0.278365
-0.272986
-0.267519
-0.262041
-0.256443
-0.251193
-0.360126
-0.358192
-0.356206
-0.354038
-0.351634
-0.349051
-0.346337
-0.343528
-0.340653
-0.337733
-0.334776
-0.331776
-0.328716
-0.325567
-0.322287
-0.318833
-0.315158
-0.311222
-0.306997
-0.30247
-0.297647
-0.292551
-0.287221
-0.281706
-0.276057
-0.270328
-0.264559
-0.258819
-0.253012
-0.247573
-0.365595
-0.363402
-0.361195
-0.358822
-0.356215
-0.353434
-0.350527
-0.34753
-0.344465
-0.341349
-0.33818
-0.334946
-0.331619
-0.328161
-0.324526
-0.320667
-0.31654
-0.312114
-0.307372
-0.302317
-0.296972
-0.291375
-0.285579
-0.279639
-0.273613
-0.267553
-0.2615
-0.255514
-0.249511
-0.243893
-0.371384
-0.368917
-0.36648
-0.363894
-0.361079
-0.358094
-0.354989
-0.351794
-0.348528
-0.345197
-0.341793
-0.338293
-0.334659
-0.330846
-0.326804
-0.322487
-0.317858
-0.312898
-0.307605
-0.302
-0.296122
-0.290025
-0.283771
-0.277421
-0.271035
-0.264662
-0.25834
-0.252121
-0.245933
-0.240141
-0.377489
-0.374733
-0.372057
-0.369253
-0.366224
-0.363031
-0.359722
-0.35632
-0.352837
-0.349271
-0.345602
-0.341797
-0.33781
-0.33359
-0.329087
-0.324258
-0.319079
-0.313545
-0.307672
-0.301502
-0.295088
-0.288497
-0.281797
-0.275053
-0.268323
-0.261653
-0.255076
-0.248635
-0.242268
-0.236305
-0.383901
-0.380845
-0.377922
-0.374896
-0.371649
-0.368243
-0.364721
-0.3611
-0.357383
-0.353555
-0.349586
-0.345433
-0.341041
-0.336358
-0.331336
-0.325943
-0.320168
-0.314026
-0.307553
-0.300808
-0.293861
-0.286785
-0.279654
-0.272533
-0.265474
-0.258521
-0.251702
-0.245048
-0.238508
-0.232375
-0.390608
-0.38724
-0.384065
-0.380813
-0.377346
-0.373722
-0.369978
-0.366124
-0.362148
-0.358027
-0.353717
-0.349165
-0.344312
-0.339107
-0.333509
-0.327501
-0.32109
-0.314313
-0.307227
-0.299906
-0.292432
-0.284884
-0.277338
-0.269855
-0.262484
-0.255261
-0.248209
-0.241351
-0.234645
-0.228344
-0.397589
-0.393901
-0.39047
-0.386992
-0.383301
-0.379453
-0.375477
-0.37137
-0.36711
-0.362657
-0.357958
-0.352952
-0.347578
-0.34179
-0.335562
-0.328893
-0.321814
-0.314382
-0.306676
-0.298782
-0.290792
-0.282788
-0.274844
-0.267015
-0.259345
-0.251864
-0.244589
-0.237535
-0.230669
-0.224203
-0.404821
-0.400807
-0.397118
-0.393412
-0.389496
-0.385417
-0.381195
-0.376814
-0.372236
-0.367408
-0.362266
-0.356746
-0.350789
-0.34436
-0.337449
-0.330079
-0.322306
-0.314208
-0.30588
-0.297423
-0.288931
-0.280488
-0.272162
-0.264003
-0.256049
-0.248321
-0.240833
-0.23359
-0.22657
-0.219943
-0.412271
-0.407927
-0.403981
-0.400047
-0.395903
-0.391586
-0.387102
-0.382419
-0.377485
-0.372233
-0.366591
-0.360494
-0.353892
-0.346764
-0.339124
-0.331022
-0.322536
-0.313767
-0.304824
-0.295816
-0.28684
-0.277975
-0.269284
-0.260811
-0.252584
-0.244621
-0.236929
-0.229507
-0.22234
-0.215558
-0.419901
-0.415227
-0.411026
-0.406867
-0.402491
-0.397925
-0.393159
-0.388144
-0.382809
-0.377078
-0.370875
-0.364137
-0.356829
-0.348951
-0.340543
-0.331683
-0.322474
-0.313036
-0.30349
-0.293948
-0.284505
-0.275237
-0.266199
-0.257426
-0.248941
-0.240753
-0.232866
-0.225274
-0.217968
-0.211037
-0.427665
-0.422664
-0.418211
-0.413829
-0.409219
-0.404391
-0.39932
-0.393934
-0.388151
-0.381883
-0.375055
-0.367613
-0.359541
-0.350867
-0.341661
-0.332027
-0.322094
-0.311996
-0.301861
-0.291804
-0.281915
-0.272263
-0.262893
-0.253836
-0.245105
-0.236705
-0.228634
-0.220882
-0.213446
-0.206374
-0.43551
-0.430187
-0.42549
-0.420887
-0.416038
-0.410934
-0.405528
-0.399732
-0.393447
-0.386581
-0.379063
-0.370856
-0.361969
-0.352462
-0.342434
-0.33202
-0.321368
-0.310623
-0.29992
-0.289369
-0.279055
-0.269037
-0.259355
-0.250028
-0.241066
-0.232466
-0.224222
-0.216321
-0.208763
-0.20156
-0.443375
-0.43774
-0.432806
-0.427985
-0.422891
-0.417492
-0.411721
-0.405468
-0.398625
-0.391098
-0.382828
-0.373799
-0.364054
-0.353684
-0.342822
-0.331629
-0.320269
-0.308898
-0.297648
-0.286627
-0.275909
-0.265547
-0.255569
-0.245989
-0.236809
-0.228022
-0.219617
-0.211579
-0.20391
-0.196587
-0.451191
-0.445257
-0.440096
-0.43506
-0.429713
-0.423998
-0.417826
-0.411068
-0.403608
-0.395358
-0.386276
-0.376377
-0.365737
-0.354484
-0.342785
-0.330822
-0.318773
-0.306798
-0.295028
-0.28356
-0.272462
-0.261776
-0.251521
-0.241704
-0.232321
-0.223361
-0.214809
-0.206648
-0.198878
-0.191447
-0.458884
-0.452667
-0.44729
-0.442041
-0.436432
-0.430377
-0.423764
-0.41645
-0.408315
-0.399282
-0.389334
-0.378523
-0.366961
-0.354817
-0.342285
-0.329569
-0.316855
-0.304304
-0.29204
-0.280152
-0.268698
-0.257708
-0.247196
-0.237159
-0.22759
-0.218472
-0.209787
-0.201517
-0.193659
-0.186134
-0.466371
-0.459891
-0.45431
-0.448851
-0.442967
-0.436546
-0.429451
-0.421528
-0.412659
-0.402787
-0.391928
-0.380171
-0.367673
-0.354637
-0.341287
-0.327841
-0.31449
-0.301393
-0.288665
-0.276385
-0.264599
-0.253328
-0.242578
-0.232341
-0.222602
-0.213343
-0.204541
-0.196178
-0.188244
-0.180641
-0.473565
-0.466844
-0.461073
-0.455404
-0.449233
-0.442416
-0.434796
-0.426211
-0.416554
-0.405794
-0.393984
-0.381259
-0.367819
-0.353903
-0.339757
-0.32561
-0.311656
-0.298046
-0.284885
-0.272241
-0.260148
-0.24862
-0.237653
-0.227235
-0.217345
-0.207962
-0.199061
-0.190621
-0.182625
-0.174961
-0.480373
-0.473436
-0.467489
-0.461611
-0.455138
-0.447894
-0.439705
-0.430408
-0.419913
-0.408221
-0.395432
-0.381728
-0.367352
-0.352575
-0.337662
-0.32285
-0.308329
-0.294241
-0.28068
-0.267701
-0.255329
-0.243568
-0.232407
-0.221828
-0.211807
-0.20232
-0.193336
-0.184837
-0.176796
-0.169091
-0.486698
-0.479573
-0.473464
-0.467376
-0.460585
-0.452882
-0.444082
-0.434025
-0.422647
-0.409991
-0.396205
-0.381522
-0.366226
-0.350616
-0.334973
-0.319535
-0.304487
-0.289959
-0.276032
-0.262749
-0.250126
-0.238157
-0.226825
-0.216108
-0.205977
-0.196405
-0.187359
-0.17882
-0.17075
-0.163025
-0.492439
-0.485155
-0.478901
-0.472602
-0.465474
-0.457281
-0.447828
-0.436969
-0.424671
-0.411028
-0.39624
-0.380589
-0.364399
-0.347993
-0.331661
-0.315641
-0.300108
-0.285179
-0.270922
-0.257368
-0.244523
-0.232372
-0.220895
-0.210063
-0.199844
-0.190207
-0.18112
-0.172561
-0.16448
-0.156757
-0.497494
-0.490084
-0.483698
-0.477186
-0.469704
-0.46099
-0.450847
-0.439148
-0.425905
-0.411262
-0.395476
-0.37888
-0.361831
-0.344673
-0.327701
-0.311146
-0.295172
-0.279883
-0.265333
-0.251542
-0.238505
-0.226201
-0.214604
-0.203681
-0.193398
-0.183719
-0.174612
-0.166053
-0.15798
-0.150283
-0.50176
-0.494257
-0.487755
-0.481027
-0.473173
-0.46391
-0.453043
-0.440477
-0.42627
-0.410626
-0.393861
-0.376352
-0.358488
-0.340628
-0.323067
-0.306028
-0.289661
-0.274054
-0.25925
-0.245256
-0.232058
-0.219631
-0.207942
-0.196954
-0.18663
-0.176932
-0.167827
-0.15929
-0.151245
-0.143596
-0.505135
-0.497572
-0.490969
-0.484023
-0.475781
-0.465942
-0.454324
-0.440871
-0.425695
-0.409062
-0.391345
-0.372965
-0.354338
-0.335832
-0.317738
-0.300268
-0.283556
-0.267676
-0.252657
-0.238496
-0.225172
-0.212651
-0.200898
-0.189871
-0.179532
-0.169839
-0.160758
-0.152264
-0.144269
-0.136694
-0.507518
-0.49993
-0.493241
-0.486074
-0.477428
-0.466992
-0.454604
-0.440253
-0.424112
-0.406513
-0.387883
-0.368685
-0.349354
-0.330262
-0.311695
-0.293848
-0.276842
-0.260735
-0.245542
-0.231252
-0.217834
-0.205252
-0.193464
-0.182426
-0.172097
-0.162433
-0.1534
-0.144971
-0.13705
-0.129576
-0.508812
-0.501233
-0.494473
-0.487083
-0.478021
-0.466971
-0.453801
-0.438552
-0.421463
-0.402932
-0.383439
-0.363482
-0.343511
-0.323899
-0.304919
-0.286754
-0.269505
-0.253217
-0.237893
-0.223512
-0.210037
-0.197426
-0.185633
-0.174613
-0.164319
-0.154709
-0.145744
-0.137403
-0.129581
-0.122231
-0.508924
-0.501389
-0.494572
-0.486958
-0.477471
-0.465797
-0.451841
-0.435704
-0.417696
-0.398277
-0.37798
-0.35733
-0.33679
-0.316725
-0.297398
-0.278972
-0.261534
-0.245113
-0.229701
-0.215269
-0.201773
-0.189167
-0.177401
-0.166427
-0.156196
-0.146661
-0.137785
-0.129549
-0.121844
-0.114615
-0.507767
-0.50031
-0.493451
-0.485613
-0.475695
-0.463393
-0.448656
-0.431653
-0.412764
-0.392514
-0.37148
-0.35021
-0.329174
-0.308729
-0.28912
-0.270493
-0.25292
-0.236415
-0.22096
-0.206517
-0.193038
-0.180472
-0.168765
-0.157866
-0.147725
-0.138291
-0.129524
-0.12141
-0.113814
-0.106633
-0.505261
-0.497915
-0.491028
-0.482969
-0.472618
-0.459691
-0.44419
-0.426352
-0.406632
-0.385615
-0.363917
-0.342107
-0.320652
-0.299899
-0.280075
-0.26131
-0.243656
-0.227117
-0.211664
-0.197252
-0.183829
-0.171338
-0.159723
-0.148931
-0.138907
-0.1296
-0.120969
-0.112999
-0.105503
-0.0982494
-0.501333
-0.494131
-0.487231
-0.478954
-0.468174
-0.454633
-0.438391
-0.419761
-0.39927
-0.377558
-0.355278
-0.333009
-0.311215
-0.290229
-0.27026
-0.251417
-0.233739
-0.217216
-0.201812
-0.187474
-0.174145
-0.161765
-0.150277
-0.139623
-0.129747
-0.120594
-0.112127
-0.104325
-0.0969571
-0.0897903
-0.49592
-0.488892
-0.481995
-0.473507
-0.462306
-0.44817
-0.431222
-0.411852
-0.390657
-0.36833
-0.345552
-0.322911
-0.300861
-0.279718
-0.259672
-0.240814
-0.223168
-0.206713
-0.191403
-0.177182
-0.163988
-0.151757
-0.140429
-0.129945
-0.120247
-0.111278
-0.103004
-0.0953907
-0.0881432
-0.0812832
-0.488968
-0.482144
-0.475264
-0.466575
-0.454968
-0.440262
-0.422651
-0.402602
-0.38078
-0.357924
-0.334739
-0.311813
-0.28959
-0.268367
-0.248313
-0.229503
-0.211945
-0.195609
-0.180442
-0.166382
-0.153362
-0.141318
-0.130185
-0.119905
-0.110414
-0.101658
-0.093604
-0.086199
-0.0791253
-0.0725924
-0.480433
-0.473841
-0.466994
-0.458116
-0.446123
-0.430881
-0.412659
-0.391999
-0.369633
-0.346339
-0.322839
-0.299719
-0.277408
-0.256181
-0.236189
-0.217489
-0.200076
-0.183911
-0.168934
-0.155078
-0.142274
-0.130454
-0.119552
-0.109507
-0.100255
-0.0917396
-0.0839318
-0.0767623
-0.0698996
-0.0636861
-0.470281
-0.463948
-0.45715
-0.448099
-0.435745
-0.420009
-0.401234
-0.380042
-0.357219
-0.333582
-0.309862
-0.286639
-0.264323
-0.243169
-0.223308
-0.20478
-0.187569
-0.171626
-0.156887
-0.14328
-0.130732
-0.119174
-0.108538
-0.0987601
-0.0897772
-0.0815318
-0.0739959
-0.0670886
-0.0604609
-0.0545673
-0.458491
-0.452442
-0.44571
-0.436505
-0.42382
-0.407638
-0.388378
-0.366734
-0.343549
-0.319666
-0.295823
-0.272587
-0.250349
-0.229344
-0.209682
-0.191388
-0.174435
-0.158768
-0.144313
-0.130998
-0.118747
-0.107488
-0.0971529
-0.0876757
-0.0789916
-0.0710438
-0.0638058
-0.0571847
-0.0508109
-0.045247
-0.445052
-0.43931
-0.432662
-0.423324
-0.410345
-0.393771
-0.374098
-0.35209
-0.328639
-0.30461
-0.280739
-0.257582
-0.235506
-0.214724
-0.195329
-0.17733
-0.160691
-0.145348
-0.131226
-0.118246
-0.106332
-0.0954105
-0.0854106
-0.0762658
-0.0679101
-0.0602871
-0.0533724
-0.0470597
-0.0409573
-0.0357369
-0.429964
-0.424551
-0.418004
-0.40856
-0.395327
-0.378421
-0.358413
-0.336133
-0.312514
-0.288439
-0.264638
-0.241648
-0.219815
-0.19933
-0.180267
-0.162624
-0.146353
-0.131385
-0.117641
-0.10504
-0.0935036
-0.0829557
-0.0733252
-0.0645445
-0.0565462
-0.049275
-0.042708
-0.0367248
-0.0309113
-0.0260497
-0.413239
-0.408174
-0.401748
-0.392225
-0.378784
-0.36161
-0.34135
-0.318892
-0.295207
-0.271185
-0.24755
-0.224814
-0.203304
-0.183187
-0.164521
-0.147292
-0.131442
-0.116899
-0.103579
-0.0913991
-0.0802785
-0.0701407
-0.0609135
-0.0525278
-0.0449156
-0.0380225
-0.0318273
-0.0261938
-0.0206867
-0.0161993
-0.3949
-0.390201
-0.383916
-0.374344
-0.360744
-0.343372
-0.322944
-0.300406
-0.276755
-0.252887
-0.229507
-0.207113
-0.186002
-0.166323
-0.148118
-0.131358
-0.115983
-0.101913
-0.0890609
-0.0773429
-0.0666768
-0.0569847
-0.0481936
-0.0402336
-0.0330356
-0.0265466
-0.0207464
-0.015483
-0.0103001
-0.00620164
-0.37498
-0.370664
-0.36454
-0.354952
-0.341246
-0.323748
-0.303241
-0.28072
-0.257205
-0.233592
-0.210545
-0.18858
-0.167945
-0.148772
-0.131087
-0.114853
-0.100003
-0.0864513
-0.0741109
-0.062895
-0.0527204
-0.0435087
-0.0351859
-0.0276813
-0.0209252
-0.0148658
-0.00948392
-0.0046106
0.000229627
0.00392561
-0.353524
-0.349605
-0.343663
-0.334096
-0.320338
-0.302789
-0.282293
-0.259888
-0.236604
-0.213324
-0.190728
-0.169261
-0.149172
-0.130568
-0.113462
-0.0978077
-0.0835304
-0.070543
-0.0587556
-0.0480803
-0.0384332
-0.0297352
-0.0219119
-0.0148919
-0.00860484
-0.00300052
0.00194011
0.00640288
0.0108807
0.0141604
-0.330588
-0.327077
-0.321338
-0.311828
-0.298078
-0.280554
-0.26016
-0.237962
-0.214999
-0.192162
-0.170089
-0.149201
-0.129726
-0.111753
-0.0952812
-0.0802564
-0.0665988
-0.0542183
-0.0430236
-0.0329259
-0.0238407
-0.0156886
-0.00839484
-0.00188753
0.00390375
0.0090278
0.0135041
0.017535
0.0216276
0.024473
-0.306235
-0.303141
-0.297628
-0.288215
-0.274532
-0.257112
-0.236902
-0.215
-0.192468
-0.170155
-0.148683
-0.128447
-0.109652
-0.0923685
-0.0765839
-0.0622367
-0.0492429
-0.0375102
-0.0269459
-0.0174607
-0.00897005
-0.0013943
0.00534118
0.0113086
0.0165781
0.0211968
0.0251853
0.0287612
0.0324399
0.0348273
-0.28054
-0.27787
-0.272604
-0.263329
-0.249774
-0.232524
-0.212585
-0.191089
-0.169068
-0.147364
-0.126571
-0.107055
-0.089
-0.0724608
-0.057413
-0.0437888
-0.0315004
-0.0204536
-0.0105552
-0.00171551
0.00615007
0.0131208
0.019271
0.0246728
0.0293955
0.0334841
0.0369608
0.0400559
0.0432857
0.045193
-0.253582
-0.251341
-0.246346
-0.237251
-0.22387
-0.206873
-0.187305
-0.166294
-0.144871
-0.123854
-0.103811
-0.08508
-0.0678227
-0.0520789
-0.0378142
-0.0249551
-0.0134109
-0.00308587
0.00611373
0.0142775
0.0214896
0.0278288
0.0333688
0.0381811
0.0423333
0.0458675
0.0488085
0.0513966
0.0541405
0.0555463
-0.225435
-0.223647
-0.218942
-0.210055
-0.19692
-0.180259
-0.161137
-0.140694
-0.119949
-0.0996954
-0.0804689
-0.062582
-0.0461753
-0.0312743
-0.0178356
-0.00578079
0.00498357
0.014554
0.0230245
0.0304843
0.0370172
0.0427008
0.0476081
0.0518092
0.0553687
0.058325
0.0607088
0.0627697
0.0649863
0.0658236
-0.196172
-0.19489
-0.190491
-0.181847
-0.169021
-0.152763
-0.134166
-0.114372
-0.0943823
-0.07496
-0.0566119
-0.0396237
-0.0241161
-0.0101013
0.00247217
0.0136871
0.023639
0.0324249
0.0401389
0.0468697
0.0527001
0.057707
0.0619619
0.065533
0.0684795
0.0708362
0.0726471
0.0741643
0.0757745
0.0758654
-0.165889
-0.165221
-0.161072
-0.152726
-0.140267
-0.124482
-0.106485
-0.0874146
-0.0682503
-0.0497234
-0.03231
-0.0162702
-0.00170569
0.0113837
0.0230565
0.0333995
0.0425095
0.0504841
0.0574171
0.0633967
0.0685046
0.0728166
0.076403
0.0793288
0.0816457
0.0833881
0.0846205
0.085564
0.0863914
0.0855029
-0.134836
-0.134617
-0.130812
-0.122802
-0.110761
-0.0955141
-0.0781881
-0.0599117
-0.0416372
-0.0240635
-0.00763575
0.00741117
0.0209932
0.0331222
0.0438629
0.0533052
0.0615474
0.0686872
0.0748179
0.0800269
0.0843952
0.0879975
0.0909031
0.0931726
0.0948517
0.095981
0.0966488
0.0969757
0.0967774
0.0947799
-0.103034
-0.10325
-0.0998193
-0.0921805
-0.0806086
-0.065963
-0.0493741
-0.0319553
-0.0146291
0.00193942
0.0173363
0.0313509
0.043916
0.0550538
0.0648349
0.0733519
0.0807038
0.0869883
0.0922984
0.0967206
0.100335
0.103216
0.105431
0.107038
0.10808
0.108616
0.108756
0.10845
0.107143
0.104232
-0.0705825
-0.0712529
-0.0682088
-0.0609751
-0.0499216
-0.0359348
-0.0201434
-0.00363986
0.0126856
0.0282032
0.0425297
0.0554778
0.0669963
0.0771167
0.0859148
0.0934853
0.099928
0.10534
0.109814
0.113436
0.116285
0.118435
0.119952
0.120891
0.121301
0.121264
0.120893
0.11993
0.117566
0.115937
-0.0376095
-0.0387423
-0.0360979
-0.0293016
-0.0188125
-0.00553771
0.00940169
0.0249384
0.0402173
0.0546443
0.0678667
0.0797195
0.0901665
0.0992477
0.107044
0.11365
0.119168
0.123695
0.127321
0.130132
0.132206
0.133616
0.134429
0.134698
0.134477
0.13386
0.132927
0.131349
0.128629
0.127671
-0.00424263
-0.0058399
-0.00360785
0.00272113
0.0126037
0.0251182
0.039157
0.0536818
0.0678747
0.0811779
0.0932682
0.104002
0.113358
0.121383
0.128161
0.133791
0.138373
0.142002
0.144771
0.146763
0.148056
0.148722
0.148826
0.148423
0.14757
0.146361
0.144846
0.142702
0.139691
0.138672
0.0293907
0.0273295
0.0291378
0.0349721
0.0442101
0.0559218
0.0690176
0.0824921
0.0955661
0.107718
0.118654
0.128252
0.136501
0.143457
0.149207
0.153851
0.157488
0.160214
0.16212
0.163288
0.163795
0.163713
0.163106
0.162029
0.160542
0.158734
0.156639
0.153972
0.150644
0.149288
0.0631618
0.0606395
0.062014
0.0673294
0.0758893
0.0867609
0.0988777
0.11127
0.123199
0.13418
0.143945
0.152394
0.159526
0.165405
0.170121
0.173772
0.17646
0.178279
0.179319
0.179661
0.179381
0.17855
0.177231
0.17548
0.173356
0.170945
0.168271
0.165085
0.161377
0.159583
0.0969414
0.0939623
0.0948948
0.0996701
0.107523
0.117523
0.128632
0.139917
0.150682
0.160476
0.169061
0.176352
0.182364
0.187162
0.19084
0.193498
0.195236
0.196148
0.196321
0.195838
0.194772
0.193194
0.191164
0.18874
0.18598
0.182965
0.179714
0.176003
0.171878
0.169598
0.1306
0.12717
0.127654
0.131872
0.138994
0.148097
0.158174
0.168335
0.177921
0.18652
0.19392
0.200053
0.204943
0.208662
0.211304
0.212971
0.213762
0.21377
0.213081
0.211776
0.209928
0.207606
0.204869
0.201775
0.19838
0.194762
0.190936
0.186698
0.182133
0.179343
0.164009
0.160135
0.160167
0.163812
0.170184
0.178371
0.187401
0.196424
0.204827
0.212229
0.218445
0.223422
0.227195
0.229839
0.231453
0.232135
0.231986
0.231096
0.229551
0.227431
0.224808
0.221747
0.218311
0.214551
0.210527
0.206311
0.201912
0.197146
0.192132
0.188819
0.197039
0.19273
0.192307
0.19537
0.200978
0.208236
0.216208
0.22409
0.231308
0.237517
0.242555
0.246386
0.249051
0.250631
0.251225
0.250934
0.249853
0.248076
0.245686
0.24276
0.239371
0.235582
0.231453