# Probe 0 (5 -0.5 0)
# Probe 1 (5 0.5 0)
#       Probe             0             1
#        Time
        0.005      -0.94999     -0.949988
         0.01      0.159833       0.15983
        0.015    -0.0304154    -0.0304141
         0.02    -0.0123946    -0.0123947
        0.025    -0.0129189    -0.0129188
         0.03    -0.0103111     -0.010311
        0.035   -0.00892817   -0.00892811
         0.04   -0.00790249   -0.00790243
        0.045   -0.00716982   -0.00716977
         0.05   -0.00660293    -0.0066029
        0.055   -0.00614402   -0.00614396
         0.06   -0.00575863   -0.00575859
        0.065   -0.00542712   -0.00542709
         0.07   -0.00513628   -0.00513625
        0.075   -0.00487709   -0.00487709
         0.08   -0.00464416   -0.00464412
        0.085   -0.00443399   -0.00443395
         0.09   -0.00424149   -0.00424146
        0.095   -0.00406474   -0.00406475
          0.1   -0.00390151   -0.00390148
        0.105    -0.0037514   -0.00375138
         0.11   -0.00361104   -0.00361102
        0.115   -0.00347992   -0.00347988
         0.12   -0.00335693    -0.0033569
        0.125   -0.00324242   -0.00324239
         0.13   -0.00313403   -0.00313401
        0.135   -0.00303142   -0.00303139
         0.14   -0.00293446   -0.00293443
        0.145    -0.0028428   -0.00284277
         0.15   -0.00275585   -0.00275582
        0.155   -0.00267292   -0.00267289
         0.16   -0.00259373    -0.0025937
        0.165   -0.00251804     -0.002518
         0.17   -0.00244598   -0.00244594
        0.175   -0.00237709   -0.00237706
         0.18   -0.00231086   -0.00231083
        0.185   -0.00224699   -0.00224695
         0.19   -0.00218586   -0.00218582
        0.195   -0.00212703     -0.002127
          0.2    -0.0020705   -0.00207047
        0.205   -0.00201591   -0.00201588
         0.21   -0.00196327   -0.00196324
        0.215   -0.00191225   -0.00191222
         0.22   -0.00186288   -0.00186285
        0.225   -0.00181514    -0.0018151
         0.23   -0.00176936   -0.00176932
        0.235    -0.0017246   -0.00172456
         0.24   -0.00168107   -0.00168104
        0.245   -0.00163881   -0.00163877
         0.25    -0.0015978   -0.00159776
        0.255   -0.00155804   -0.00155801
         0.26   -0.00151951   -0.00151948
        0.265   -0.00148186   -0.00148182
         0.27   -0.00144511   -0.00144508
        0.275   -0.00140935   -0.00140932
         0.28   -0.00137436   -0.00137434
        0.285    -0.0013404   -0.00134037
         0.29   -0.00130725   -0.00130722
        0.295   -0.00127477   -0.00127474
          0.3   -0.00124308   -0.00124306
        0.305   -0.00121203   -0.00121201
         0.31   -0.00118145   -0.00118142
        0.315     -0.001152   -0.00115196
         0.32   -0.00112293   -0.00112289
        0.325   -0.00109434    -0.0010943
         0.33   -0.00106638   -0.00106633
        0.335   -0.00103897   -0.00103892
         0.34    -0.0010121   -0.00101206
        0.345  -0.000985689  -0.000985644
         0.35  -0.000959877  -0.000959835
        0.355  -0.000934469  -0.000934427
         0.36  -0.000909528   -0.00090949
        0.365  -0.000885016  -0.000884978
         0.37  -0.000860869  -0.000860833
        0.375  -0.000837102  -0.000837069
         0.38  -0.000813761  -0.000813726
        0.385  -0.000790803   -0.00079077
         0.39  -0.000768141  -0.000768108
        0.395  -0.000745853  -0.000745823
          0.4  -0.000723887  -0.000723859
        0.405  -0.000702298  -0.000702271
         0.41  -0.000680957   -0.00068093
        0.415  -0.000659917   -0.00065989
         0.42  -0.000639064  -0.000639025
        0.425  -0.000618593  -0.000618555
         0.43  -0.000598416   -0.00059838
        0.435  -0.000578226  -0.000578187
         0.44  -0.000558546  -0.000558487
        0.445  -0.000539067  -0.000539026
         0.45  -0.000519804  -0.000519761
        0.455  -0.000500866  -0.000500809
         0.46  -0.000482044  -0.000481989
        0.465  -0.000463454    -0.0004634
         0.47  -0.000445054  -0.000445033
        0.475  -0.000426877  -0.000426842
         0.48   -0.00040886  -0.000408795
        0.485  -0.000391027  -0.000390979
         0.49  -0.000373405  -0.000373357
        0.495  -0.000355897  -0.000355851
          0.5  -0.000338651  -0.000338606
        0.505  -0.000321512  -0.000321466
         0.51  -0.000304504  -0.000304462
        0.515  -0.000287681  -0.000287643
         0.52  -0.000270957  -0.000270905
        0.525  -0.000254396  -0.000254351
         0.53  -0.000238017  -0.000237974
        0.535  -0.000221792  -0.000221752
         0.54  -0.000205641  -0.000205602
        0.545  -0.000189608  -0.000189571
         0.55    -0.0001737  -0.000173664
        0.555  -0.000157835   -0.00015779
         0.56  -0.000142204  -0.000142121
        0.565  -0.000126615  -0.000126561
         0.57  -0.000110914  -0.000110844
        0.575  -9.55749e-05  -9.55148e-05
         0.58  -8.02839e-05  -8.02273e-05
        0.585  -6.52605e-05  -6.52053e-05
         0.59  -5.02428e-05  -5.01916e-05
        0.595  -3.52672e-05  -3.52155e-05
          0.6   -2.0393e-05  -2.03343e-05
        0.605  -5.59791e-06  -5.54059e-06
         0.61   9.10896e-06   9.16122e-06
        0.615   2.37304e-05   2.37788e-05
         0.62   3.83003e-05   3.83484e-05
        0.625   5.27639e-05   5.28127e-05
         0.63   6.71541e-05   6.72046e-05
        0.635    8.1486e-05   8.15246e-05
         0.64   9.57623e-05    9.5798e-05
        0.645   0.000109916   0.000109951
         0.65   0.000124029   0.000124085
        0.655   0.000138104   0.000138161
         0.66     0.0001521   0.000152156
        0.665   0.000166085   0.000166141
         0.67   0.000179927   0.000179981
        0.675   0.000193772   0.000193826
         0.68   0.000207527   0.000207581
        0.685   0.000221223   0.000221273
         0.69    0.00023484   0.000234889
        0.695   0.000248459   0.000248509
          0.7   0.000262091   0.000262135
        0.705    0.00027574   0.000275793
         0.71   0.000289126   0.000289169
        0.715   0.000302572   0.000302612
         0.72   0.000316055   0.000316111
        0.725   0.000329411   0.000329463
         0.73   0.000342733   0.000342784
        0.735   0.000356025   0.000356073
         0.74   0.000369549    0.00036961
        0.745   0.000382755   0.000382807
         0.75   0.000395913   0.000395965
        0.755   0.000409092   0.000409142
         0.76   0.000422152   0.000422204
        0.765   0.000435138   0.000435181
         0.77   0.000448247   0.000448287
        0.775   0.000461293   0.000461335
         0.78    0.00047433    0.00047437
        0.785   0.000487271   0.000487312
         0.79   0.000500203    0.00050024
        0.795   0.000513138    0.00051317
          0.8   0.000526109   0.000526147
        0.805   0.000538978   0.000539012
         0.81   0.000551789   0.000551823
        0.815   0.000564653   0.000564685
         0.82   0.000577475   0.000577507
        0.825   0.000590328   0.000590355
         0.83   0.000603085   0.000603113
        0.835   0.000615853   0.000615883
         0.84   0.000628617   0.000628646
        0.845   0.000641303    0.00064133
         0.85   0.000653991   0.000654017
        0.855   0.000666723   0.000666751
         0.86   0.000679236   0.000679273
        0.865   0.000692815   0.000692845
         0.87    0.00070509   0.000705117
        0.875   0.000717177    0.00071719
         0.88   0.000730112   0.000730134
        0.885   0.000742792    0.00074281
         0.89   0.000755441   0.000755457
        0.895   0.000768032   0.000768051
          0.9   0.000780658   0.000780676
        0.905   0.000793272   0.000793295
         0.91   0.000805906   0.000805919
        0.915   0.000818593   0.000818622
         0.92    0.00083116   0.000831187
        0.925   0.000843848   0.000843874
         0.93   0.000856334   0.000856358
        0.935   0.000868932   0.000868956
         0.94   0.000881508   0.000881534
        0.945   0.000894021   0.000894042
         0.95   0.000906621   0.000906637
        0.955   0.000919481   0.000919517
         0.96   0.000932033   0.000932056
        0.965   0.000944648   0.000944674
         0.97   0.000957148   0.000957174
        0.975   0.000969741   0.000969759
         0.98   0.000982248   0.000982271
        0.985   0.000994796   0.000994821
         0.99    0.00100736    0.00100738
        0.995    0.00101997       0.00102
            1    0.00103247    0.00103249
        1.005    0.00104506    0.00104508
         1.01    0.00105766    0.00105768
        1.015    0.00107028     0.0010703
         1.02    0.00108281    0.00108282
        1.025    0.00109538     0.0010954
         1.03    0.00110801    0.00110802
        1.035    0.00112052    0.00112054
         1.04    0.00113319    0.00113319
        1.045    0.00114569     0.0011457
         1.05    0.00115833    0.00115835
        1.055    0.00117105    0.00117108
         1.06    0.00118364    0.00118365
        1.065    0.00119615    0.00119616
         1.07    0.00120887    0.00120888
        1.075     0.0012215    0.00122151
         1.08    0.00123413    0.00123414
        1.085    0.00124676    0.00124677
         1.09    0.00125947    0.00125947
        1.095    0.00127211    0.00127212
          1.1     0.0012848    0.00128481
        1.105    0.00129748    0.00129749
         1.11    0.00131013    0.00131014
        1.115    0.00132288    0.00132289
         1.12     0.0013356     0.0013356
        1.125    0.00134839     0.0013484
         1.13    0.00136105    0.00136106
        1.135    0.00137379    0.00137379
         1.14    0.00138659     0.0013866
        1.145    0.00139936    0.00139936
         1.15    0.00141223    0.00141225
        1.155    0.00142496    0.00142498
         1.16    0.00143774    0.00143777
        1.165    0.00145052    0.00145052
         1.17    0.00146343    0.00146344
        1.175    0.00147615    0.00147616
         1.18    0.00148901    0.00148902
        1.185    0.00150189     0.0015019
         1.19     0.0015148    0.00151481
        1.195    0.00152768    0.00152769
          1.2    0.00154056    0.00154057
        1.205    0.00155354    0.00155356
         1.21    0.00156642    0.00156642
        1.215    0.00157939     0.0015794
         1.22    0.00159218    0.00159219
        1.225    0.00160551    0.00160554
         1.23    0.00161842    0.00161843
        1.235    0.00163142    0.00163144
         1.24    0.00164444    0.00164444
        1.245    0.00165742    0.00165744
         1.25    0.00167049    0.00167051
        1.255    0.00168352    0.00168352
         1.26    0.00169665    0.00169665
        1.265    0.00170961    0.00170963
         1.27    0.00172271    0.00172271
        1.275    0.00173584    0.00173584
         1.28    0.00174897    0.00174898
        1.285    0.00176211    0.00176212
         1.29    0.00177519    0.00177519
        1.295     0.0017884     0.0017884
          1.3    0.00180156    0.00180156
        1.305    0.00181481    0.00181482
         1.31      0.001828      0.001828
        1.315     0.0018412     0.0018412
         1.32    0.00185447    0.00185447
        1.325    0.00186771    0.00186772
         1.33    0.00188109     0.0018811
        1.335    0.00189428    0.00189429
         1.34    0.00190759     0.0019076
        1.345    0.00192095    0.00192096
         1.35     0.0019343    0.00193432
        1.355    0.00194769    0.00194769
         1.36    0.00196107    0.00196107
        1.365    0.00197441    0.00197442
         1.37    0.00198783    0.00198784
        1.375    0.00200131    0.00200133
         1.38    0.00201475    0.00201475
        1.385    0.00202825    0.00202825
         1.39    0.00204176    0.00204178
        1.395    0.00205527    0.00205527
          1.4    0.00206885    0.00206885
        1.405    0.00208232    0.00208234
         1.41    0.00209586    0.00209586
        1.415    0.00210947    0.00210948
         1.42    0.00212311    0.00212311
        1.425    0.00213682    0.00213683
         1.43    0.00215047    0.00215048
        1.435    0.00216417    0.00216418
         1.44     0.0021778    0.00217781
        1.445    0.00219151    0.00219152
         1.45    0.00220521    0.00220522
        1.455    0.00221896    0.00221897
         1.46    0.00223271    0.00223272
        1.465    0.00224648    0.00224649
         1.47     0.0022603    0.00226031
        1.475    0.00227404    0.00227405
         1.48    0.00228791    0.00228793
        1.485    0.00230182    0.00230182
         1.49    0.00231566    0.00231567
        1.495    0.00232955    0.00232956
          1.5    0.00234348    0.00234348
        1.505    0.00235743    0.00235744
         1.51    0.00237141    0.00237142
        1.515    0.00238543    0.00238545
         1.52    0.00239944    0.00239945
        1.525    0.00241341    0.00241342
         1.53    0.00242745    0.00242747
        1.535    0.00244153    0.00244154
         1.54    0.00245562    0.00245564
        1.545    0.00246968     0.0024697
         1.55    0.00248379     0.0024838
        1.555    0.00249797    0.00249798
         1.56    0.00251219     0.0025122
        1.565    0.00252635    0.00252634
         1.57    0.00254054    0.00254056
        1.575    0.00255518     0.0025552
         1.58    0.00256938    0.00256938
        1.585    0.00258365    0.00258366
         1.59    0.00259794    0.00259796
        1.595    0.00261223    0.00261224
          1.6    0.00262655    0.00262657
        1.605    0.00264092    0.00264094
         1.61    0.00265533    0.00265535
        1.615    0.00266972    0.00266973
         1.62    0.00268416    0.00268417
        1.625    0.00269862    0.00269864
         1.63    0.00271308    0.00271309
        1.635     0.0027276    0.00272761
         1.64    0.00274211    0.00274212
        1.645    0.00275662    0.00275664
         1.65    0.00277119    0.00277121
        1.655     0.0027858    0.00278581
         1.66    0.00280041    0.00280041
        1.665    0.00281505    0.00281507
         1.67    0.00282968     0.0028297
        1.675    0.00284436    0.00284437
         1.68    0.00285908    0.00285909
        1.685    0.00287381    0.00287383
         1.69    0.00288857    0.00288858
        1.695     0.0029033    0.00290332
          1.7    0.00291807    0.00291809
        1.705     0.0029329    0.00293292
         1.71    0.00294772    0.00294773
        1.715    0.00296259     0.0029626
         1.72    0.00297749     0.0029775
        1.725    0.00299239     0.0029924
         1.73    0.00300734    0.00300736
        1.735     0.0030223    0.00302231
         1.74    0.00303728     0.0030373
        1.745    0.00305225    0.00305226
         1.75    0.00306728    0.00306729
        1.755    0.00308234    0.00308235
         1.76    0.00309738     0.0030974
        1.765    0.00311257     0.0031126
         1.77     0.0031277    0.00312771
        1.775    0.00314282    0.00314285
         1.78    0.00315797    0.00315799
        1.785    0.00317316    0.00317318
         1.79    0.00318839    0.00318841
        1.795    0.00320365    0.00320366
          1.8    0.00321892    0.00321895
        1.805    0.00323421    0.00323422
         1.81    0.00324952    0.00324953
        1.815    0.00326487     0.0032649
         1.82    0.00328026    0.00328027
        1.825    0.00329561    0.00329564
         1.83      0.003311    0.00331101
        1.835    0.00332644    0.00332646
         1.84    0.00334191    0.00334193
        1.845    0.00335741    0.00335742
         1.85    0.00337294    0.00337295
        1.855    0.00338843    0.00338845
         1.86    0.00340399    0.00340401
        1.865    0.00341958     0.0034196
         1.87    0.00343518    0.00343519
        1.875    0.00345085    0.00345087
         1.88    0.00346652    0.00346654
        1.885    0.00348216    0.00348218
         1.89    0.00349784    0.00349785
        1.895    0.00351358     0.0035136
          1.9    0.00352935    0.00352936
        1.905    0.00354513    0.00354515
         1.91    0.00356094    0.00356095
        1.915    0.00357678    0.00357679
         1.92    0.00359263    0.00359264
        1.925    0.00360851    0.00360852
         1.93    0.00362441    0.00362442
        1.935    0.00364031    0.00364032
         1.94    0.00365635    0.00365636
        1.945    0.00367231    0.00367234
         1.95    0.00368832    0.00368834
        1.955    0.00370435    0.00370436
         1.96    0.00372043    0.00372045
        1.965    0.00373645    0.00373646
         1.97    0.00375257    0.00375258
        1.975    0.00376871    0.00376873
         1.98    0.00378487    0.00378489
        1.985    0.00380105    0.00380106
         1.99    0.00381726    0.00381727
        1.995    0.00383351    0.00383353
            2    0.00384975    0.00384976
        2.005    0.00386604    0.00386605
         2.01    0.00388234    0.00388235
        2.015    0.00389868    0.00389869
         2.02    0.00391506    0.00391507
        2.025    0.00393149    0.00393151
         2.03    0.00394785    0.00394787
        2.035    0.00396426    0.00396427
         2.04    0.00398068    0.00398069
        2.045    0.00399727    0.00399728
         2.05    0.00401415    0.00401418
        2.055    0.00403066    0.00403068
         2.06    0.00404724    0.00404726
        2.065    0.00406383    0.00406385
         2.07    0.00408046    0.00408048
        2.075    0.00409712    0.00409714
         2.08    0.00411375    0.00411377
        2.085    0.00413041    0.00413043
         2.09    0.00414715    0.00414717
        2.095    0.00416391    0.00416393
          2.1    0.00418061    0.00418064
        2.105    0.00419741    0.00419743
         2.11    0.00421426    0.00421428
        2.115    0.00423112    0.00423114
         2.12    0.00424802    0.00424803
        2.125    0.00426493    0.00426494
         2.13     0.0042819    0.00428192
        2.135    0.00429879    0.00429881
         2.14    0.00431574    0.00431576
        2.145    0.00433277    0.00433279
         2.15    0.00434982    0.00434984
        2.155    0.00436687    0.00436689
         2.16    0.00438397    0.00438399
        2.165    0.00440109     0.0044011
         2.17    0.00441823    0.00441824
        2.175    0.00443539    0.00443541
         2.18    0.00445259     0.0044526
        2.185     0.0044698    0.00446982
         2.19    0.00448704    0.00448706
        2.195    0.00450428     0.0045043
          2.2    0.00452163    0.00452164
        2.205    0.00453901    0.00453902
         2.21    0.00455641    0.00455644
        2.215    0.00457377    0.00457379
         2.22    0.00459117    0.00459118
        2.225     0.0046086    0.00460862
         2.23    0.00462608     0.0046261
        2.235    0.00464353    0.00464355
         2.24    0.00466103    0.00466106
        2.245    0.00467859    0.00467861
         2.25    0.00469613    0.00469615
        2.255    0.00471371    0.00471374
         2.26    0.00473134    0.00473136
        2.265    0.00474898      0.004749
         2.27    0.00476665    0.00476667
        2.275    0.00478436    0.00478438
         2.28    0.00480207    0.00480209
        2.285    0.00481981    0.00481983
         2.29    0.00483763    0.00483765
        2.295    0.00485545    0.00485546
          2.3    0.00487322    0.00487324
        2.305    0.00489102    0.00489104
         2.31    0.00490891    0.00490893
        2.315    0.00492681    0.00492683
         2.32    0.00494476    0.00494479
        2.325    0.00496274    0.00496275
         2.33    0.00498075    0.00498077
        2.335    0.00499871    0.00499873
         2.34    0.00501677    0.00501679
        2.345    0.00503484    0.00503486
         2.35    0.00505296    0.00505298
        2.355    0.00507107    0.00507109
         2.36    0.00508923    0.00508925
        2.365    0.00510741    0.00510744
         2.37    0.00512559    0.00512561
        2.375    0.00514381    0.00514383
         2.38    0.00516209    0.00516211
        2.385    0.00518035    0.00518037
         2.39    0.00519867    0.00519868
        2.395    0.00521703    0.00521705
          2.4    0.00523535    0.00523537
        2.405    0.00525375    0.00525376
         2.41    0.00527216    0.00527218
        2.415     0.0052906    0.00529063
         2.42    0.00530907    0.00530909
        2.425    0.00532757    0.00532758
         2.43     0.0053461    0.00534612
        2.435    0.00536464    0.00536466
         2.44    0.00538322    0.00538324
        2.445    0.00540183    0.00540185
         2.45    0.00542043    0.00542045
        2.455    0.00543906    0.00543907
         2.46    0.00545772    0.00545773
        2.465    0.00547643    0.00547645
         2.47    0.00549517    0.00549519
        2.475    0.00551392    0.00551394
         2.48    0.00553271    0.00553273
        2.485    0.00555152    0.00555154
         2.49    0.00557038    0.00557039
        2.495    0.00558924    0.00558926
          2.5     0.0056081    0.00560812
        2.505    0.00562702    0.00562704
         2.51    0.00564595    0.00564597
        2.515    0.00566492    0.00566494
         2.52    0.00568392    0.00568393
        2.525    0.00570294    0.00570296
         2.53    0.00572271    0.00572275
        2.535    0.00574076    0.00574078
         2.54    0.00576068    0.00576071
        2.545    0.00577896    0.00577899
         2.55    0.00579893    0.00579895
        2.555    0.00581726    0.00581728
         2.56    0.00583727    0.00583729
        2.565    0.00585558     0.0058556
         2.57    0.00587594    0.00587596
        2.575    0.00589391    0.00589394
         2.58    0.00591452    0.00591454
        2.585    0.00593236    0.00593238
         2.59    0.00595306    0.00595309
        2.595    0.00597107    0.00597109
          2.6    0.00599187    0.00599189
        2.605    0.00600995    0.00600997
         2.61    0.00603073    0.00603075
        2.615    0.00604885    0.00604888
         2.62    0.00606969    0.00606972
        2.625     0.0060879    0.00608792
         2.63    0.00610863    0.00610866
        2.635    0.00612787    0.00612788
         2.64    0.00614671    0.00614674
        2.645    0.00616728    0.00616731
         2.65    0.00618692    0.00618692
        2.655    0.00620644    0.00620645
         2.66    0.00622616    0.00622617
        2.665    0.00624589     0.0062459
         2.67    0.00626563    0.00626564
        2.675    0.00628541    0.00628542
         2.68    0.00630524    0.00630526
        2.685    0.00632502    0.00632504
         2.69    0.00634489    0.00634491
        2.695    0.00636479     0.0063648
          2.7    0.00638469    0.00638471
        2.705    0.00640463    0.00640464
         2.71    0.00642459    0.00642461
        2.715    0.00644456    0.00644457
         2.72    0.00646456    0.00646458
        2.725    0.00648459    0.00648461
         2.73    0.00650465    0.00650467
        2.735    0.00652473    0.00652475
         2.74    0.00654484    0.00654486
        2.745    0.00656497    0.00656499
         2.75    0.00658509    0.00658511
        2.755    0.00660525    0.00660526
         2.76    0.00662545    0.00662547
        2.765     0.0066461    0.00664613
         2.77    0.00666631    0.00666633
        2.775    0.00668657     0.0066866
         2.78    0.00670686    0.00670688
        2.785    0.00672717     0.0067272
         2.79     0.0067475    0.00674752
        2.795    0.00676787    0.00676789
          2.8    0.00678824    0.00678826
        2.805    0.00680861    0.00680863
         2.81    0.00682903    0.00682906
        2.815    0.00684949    0.00684951
         2.82    0.00686992    0.00686994
        2.825    0.00689042    0.00689045
         2.83    0.00691094    0.00691097
        2.835    0.00693149    0.00693152
         2.84    0.00695205    0.00695208
        2.845    0.00697263    0.00697265
         2.85    0.00699323    0.00699325
        2.855    0.00701385    0.00701388
         2.86    0.00703449    0.00703451
        2.865    0.00705512    0.00705515
         2.87    0.00707579    0.00707581
        2.875     0.0070965    0.00709653
         2.88    0.00711723    0.00711726
        2.885    0.00713798      0.007138
         2.89    0.00715876    0.00715878
        2.895    0.00717953    0.00717956
          2.9    0.00720035    0.00720037
        2.905    0.00722119    0.00722121
         2.91    0.00724204    0.00724207
        2.915    0.00726292    0.00726295
         2.92    0.00728382    0.00728385
        2.925    0.00730473    0.00730476
         2.93    0.00732567     0.0073257
        2.935    0.00734665    0.00734668
         2.94    0.00736757    0.00736759
        2.945    0.00738857     0.0073886
         2.95    0.00740958     0.0074096
        2.955    0.00743062    0.00743064
         2.96    0.00745167     0.0074517
        2.965    0.00747276    0.00747279
         2.97    0.00749383    0.00749385
        2.975    0.00751494    0.00751497
         2.98    0.00753608    0.00753611
        2.985    0.00755722    0.00755725
         2.99    0.00757835    0.00757837
        2.995    0.00759954    0.00759956
            3    0.00762073    0.00762076
        3.005    0.00764196    0.00764198
         3.01    0.00766318    0.00766321
        3.015    0.00768441    0.00768443
         3.02    0.00770567     0.0077057
        3.025    0.00772696    0.00772699
         3.03    0.00774827    0.00774829
        3.035    0.00776964    0.00776968
         3.04    0.00779097    0.00779101
        3.045    0.00781233    0.00781237
         3.05     0.0078337    0.00783374
        3.055    0.00785508    0.00785511
         3.06    0.00787645    0.00787649
        3.065    0.00789787    0.00789791
         3.07    0.00791931    0.00791935
        3.075    0.00794074    0.00794078
         3.08     0.0079622    0.00796224
        3.085    0.00798367    0.00798371
         3.09    0.00800518    0.00800522
        3.095    0.00802666     0.0080267
          3.1    0.00804817    0.00804821
        3.105    0.00806971    0.00806975
         3.11    0.00809123    0.00809127
        3.115    0.00811277    0.00811281
         3.12    0.00813434    0.00813438
        3.125    0.00815592    0.00815596
         3.13    0.00817751    0.00817755
        3.135    0.00819911    0.00819915
         3.14    0.00822072    0.00822076
        3.145    0.00824235    0.00824239
         3.15    0.00826399    0.00826403
        3.155    0.00828564    0.00828568
         3.16     0.0083073    0.00830734
        3.165    0.00832897    0.00832901
         3.17    0.00835067     0.0083507
        3.175    0.00837231    0.00837235
         3.18      0.008394    0.00839404
        3.185     0.0084157    0.00841574
         3.19    0.00843741    0.00843745
        3.195    0.00845914    0.00845918
          3.2    0.00848087    0.00848091
        3.205    0.00850261    0.00850266
         3.21    0.00852436     0.0085244
        3.215     0.0085461    0.00854614
         3.22    0.00856787    0.00856791
        3.225    0.00858967    0.00858971
         3.23    0.00861143    0.00861146
        3.235    0.00863322    0.00863326
         3.24      0.008655    0.00865504
        3.245     0.0086768    0.00867685
         3.25    0.00869862    0.00869866
        3.255    0.00872045    0.00872049
         3.26    0.00874224    0.00874229
        3.265    0.00876406     0.0087641
         3.27    0.00878589    0.00878592
        3.275    0.00880767    0.00880772
         3.28    0.00882953    0.00882957
        3.285    0.00885137    0.00885141
         3.29    0.00887321    0.00887325
        3.295    0.00889505    0.00889509
          3.3    0.00891688    0.00891691
        3.305    0.00893873    0.00893878
         3.31    0.00896058    0.00896062
        3.315    0.00898243    0.00898247
         3.32    0.00900426     0.0090043
        3.325    0.00902608    0.00902613
         3.33    0.00904793    0.00904797
        3.335    0.00906978    0.00906982
         3.34    0.00909162    0.00909167
        3.345    0.00911347    0.00911351
         3.35    0.00913532    0.00913536
        3.355    0.00915716     0.0091572
         3.36      0.009179    0.00917904
        3.365    0.00920085    0.00920089
         3.37    0.00922267    0.00922272
        3.375    0.00924449    0.00924453
         3.38    0.00926631    0.00926636
        3.385    0.00928813    0.00928817
         3.39    0.00930992    0.00930997
        3.395    0.00933177    0.00933181
          3.4    0.00935357    0.00935361
        3.405    0.00937537    0.00937541
         3.41    0.00939716     0.0093972
        3.415    0.00941894    0.00941898
         3.42    0.00944071    0.00944075
        3.425    0.00946248    0.00946253
         3.43    0.00948424    0.00948428
        3.435      0.009506    0.00950604
         3.44    0.00952771    0.00952775
        3.445    0.00954945    0.00954949
         3.45    0.00957118    0.00957122
        3.455    0.00959288    0.00959293
         3.46    0.00961458    0.00961463
        3.465    0.00963626    0.00963631
         3.47    0.00965794    0.00965798
        3.475     0.0096796    0.00967965
         3.48    0.00970127    0.00970131
        3.485     0.0097229    0.00972295
         3.49    0.00974448    0.00974452
        3.495     0.0097661    0.00976614
          3.5    0.00978769    0.00978773
        3.505    0.00980925     0.0098093
         3.51    0.00983078    0.00983083
        3.515    0.00985234    0.00985238
         3.52    0.00987388    0.00987392
        3.525    0.00989537    0.00989541
         3.53    0.00991684    0.00991688
        3.535    0.00993831    0.00993835
         3.54    0.00995976     0.0099598
        3.545    0.00998117    0.00998121
         3.55     0.0100026     0.0100026
        3.555     0.0100239      0.010024