# Probe 0 (5 -0.5 0)
# Probe 1 (5 0.5 0)
#       Probe             0             1
#        Time
        0.005             (0.996701 0.00209624 4.9122e-20)             (0.996701 -0.00209624 -4.93891e-20)
         0.01             (0.996783 0.00143981 -8.25026e-21)             (0.996783 -0.0014398 8.28687e-21)
        0.015             (0.996709 0.00146621 1.57358e-21)             (0.996709 -0.00146621 -1.5767e-21)
         0.02             (0.996632 0.00147929 6.39849e-22)             (0.996632 -0.00147929 -6.42789e-22)
        0.025             (0.996565 0.00150124 6.68446e-22)             (0.996565 -0.00150124 -6.71774e-22)
         0.03             (0.996508 0.00152115 5.33546e-22)             (0.996508 -0.00152115 -5.36349e-22)
        0.035             (0.996456 0.00154022 4.61942e-22)             (0.996456 -0.00154022 -4.64388e-22)
         0.04             (0.996409 0.00155849 4.08821e-22)             (0.996409 -0.00155849 -4.10997e-22)
        0.045             (0.996365 0.00157615 3.7089e-22)             (0.996365 -0.00157616 -3.7287e-22)
         0.05             (0.996323 0.00159327 3.41534e-22)             (0.996323 -0.00159327 -3.43362e-22)
        0.055             (0.996283 0.0016099 3.17792e-22)             (0.996283 -0.0016099 -3.19494e-22)
         0.06             (0.996244 0.00162607 2.97844e-22)             (0.996244 -0.00162608 -2.9944e-22)
        0.065             (0.996207 0.00164184 2.80686e-22)             (0.996207 -0.00164185 -2.82191e-22)
         0.07             (0.99617 0.00165724 2.65649e-22)             (0.99617 -0.00165725 -2.67073e-22)
        0.075             (0.996134 0.0016723 2.52237e-22)             (0.996134 -0.00167231 -2.53589e-22)
         0.08             (0.9961 0.00168707 2.40174e-22)             (0.9961 -0.00168708 -2.4146e-22)
        0.085             (0.996066 0.00170156 2.29313e-22)             (0.996066 -0.00170157 -2.30539e-22)
         0.09             (0.996032 0.0017158 2.19356e-22)             (0.996032 -0.00171581 -2.20529e-22)
        0.095             (0.995999 0.00172983 2.1021e-22)             (0.995999 -0.00172984 -2.11335e-22)
          0.1             (0.995967 0.00174367 2.01766e-22)             (0.995967 -0.00174368 -2.02844e-22)
        0.105             (0.995935 0.00175728 1.93999e-22)             (0.995935 -0.00175729 -1.95033e-22)
         0.11             (0.995904 0.00177073 1.86741e-22)             (0.995904 -0.00177074 -1.87736e-22)
        0.115             (0.995873 0.00178403 1.79957e-22)             (0.995873 -0.00178404 -1.80914e-22)
         0.12             (0.995843 0.00179719 1.73599e-22)             (0.995843 -0.0017972 -1.74523e-22)
        0.125             (0.995813 0.0018102 1.67667e-22)             (0.995813 -0.00181021 -1.68558e-22)
         0.13             (0.995783 0.00182309 1.62063e-22)             (0.995783 -0.00182311 -1.62923e-22)
        0.135             (0.995753 0.00183587 1.56756e-22)             (0.995753 -0.00183589 -1.57587e-22)
         0.14             (0.995724 0.00184854 1.51741e-22)             (0.995724 -0.00184856 -1.52544e-22)
        0.145             (0.995695 0.00186112 1.47e-22)             (0.995695 -0.00186114 -1.47778e-22)
         0.15             (0.995666 0.0018736 1.42499e-22)             (0.995666 -0.00187362 -1.43253e-22)
        0.155             (0.995638 0.001886 1.38211e-22)             (0.995638 -0.00188602 -1.38941e-22)
         0.16             (0.99561 0.00189832 1.34114e-22)             (0.99561 -0.00189834 -1.34822e-22)
        0.165             (0.995582 0.00191056 1.30199e-22)             (0.995582 -0.00191058 -1.30884e-22)
         0.17             (0.995554 0.00192274 1.2647e-22)             (0.995554 -0.00192276 -1.27135e-22)
        0.175             (0.995526 0.00193485 1.22909e-22)             (0.995526 -0.00193488 -1.23555e-22)
         0.18             (0.995499 0.00194691 1.19483e-22)             (0.995499 -0.00194693 -1.2011e-22)
        0.185             (0.995471 0.00195891 1.16179e-22)             (0.995471 -0.00195893 -1.16787e-22)
         0.19             (0.995444 0.00197085 1.13016e-22)             (0.995444 -0.00197088 -1.13607e-22)
        0.195             (0.995417 0.00198275 1.09972e-22)             (0.995417 -0.00198278 -1.10546e-22)
          0.2             (0.99539 0.00199461 1.07047e-22)             (0.99539 -0.00199463 -1.07605e-22)
        0.205             (0.995364 0.00200642 1.04224e-22)             (0.995364 -0.00200644 -1.04767e-22)
         0.21             (0.995337 0.00201819 1.01503e-22)             (0.995337 -0.00201822 -1.0203e-22)
        0.215             (0.99531 0.00202993 9.88633e-23)             (0.99531 -0.00202995 -9.93768e-23)
         0.22             (0.995284 0.00204163 9.63094e-23)             (0.995284 -0.00204166 -9.68088e-23)
        0.225             (0.995257 0.00205333 9.38411e-23)             (0.995257 -0.00205335 -9.4327e-23)
         0.23             (0.995231 0.00206496 9.14686e-23)             (0.995231 -0.00206499 -9.19404e-23)
        0.235             (0.995205 0.00207657 8.91551e-23)             (0.995205 -0.0020766 -8.96145e-23)
         0.24             (0.995179 0.00208817 8.69039e-23)             (0.995179 -0.00208819 -8.73511e-23)
        0.245             (0.995153 0.00209974 8.47183e-23)             (0.995153 -0.00209977 -8.5153e-23)
         0.25             (0.995127 0.00211128 8.25977e-23)             (0.995127 -0.00211131 -8.30208e-23)
        0.255             (0.995101 0.00212283 8.05451e-23)             (0.995101 -0.00212286 -8.09573e-23)
         0.26             (0.995075 0.00213434 7.85441e-23)             (0.995075 -0.00213437 -7.89451e-23)
        0.265             (0.995049 0.00214584 7.65989e-23)             (0.995049 -0.00214587 -7.69892e-23)
         0.27             (0.995023 0.00215733 7.46986e-23)             (0.995023 -0.00215736 -7.50785e-23)
        0.275             (0.994997 0.0021688 7.2849e-23)             (0.994997 -0.00216884 -7.32188e-23)
         0.28             (0.994972 0.00218027 7.10396e-23)             (0.994972 -0.0021803 -7.13994e-23)
        0.285             (0.994946 0.00219173 6.92859e-23)             (0.994946 -0.00219176 -6.96361e-23)
         0.29             (0.99492 0.00220318 6.75657e-23)             (0.99492 -0.00220321 -6.79066e-23)
        0.295             (0.994895 0.00221462 6.58873e-23)             (0.994895 -0.00221465 -6.62188e-23)
          0.3             (0.994869 0.00222606 6.42491e-23)             (0.994869 -0.00222609 -6.45716e-23)
        0.305             (0.994844 0.00223749 6.26429e-23)             (0.994844 -0.00223753 -6.29566e-23)
         0.31             (0.994818 0.00224892 6.10604e-23)             (0.994818 -0.00224896 -6.13645e-23)
        0.315             (0.994793 0.00226035 5.95385e-23)             (0.994793 -0.00226039 -5.98337e-23)
         0.32             (0.994767 0.00227178 5.8033e-23)             (0.994767 -0.00227182 -5.83198e-23)
        0.325             (0.994742 0.00228321 5.65511e-23)             (0.994742 -0.00228325 -5.68302e-23)
         0.33             (0.994716 0.00229464 5.51095e-23)             (0.994716 -0.00229468 -5.53795e-23)
        0.335             (0.994691 0.00230606 5.36914e-23)             (0.994691 -0.0023061 -5.39538e-23)
         0.34             (0.994665 0.0023175 5.23012e-23)             (0.994665 -0.00231754 -5.2556e-23)
        0.345             (0.99464 0.00232893 5.09345e-23)             (0.99464 -0.00232897 -5.11817e-23)
         0.35             (0.994615 0.00234037 4.96e-23)             (0.994615 -0.00234042 -4.98401e-23)
        0.355             (0.994589 0.00235182 4.82853e-23)             (0.994589 -0.00235187 -4.85183e-23)
         0.36             (0.994564 0.00236328 4.69948e-23)             (0.994564 -0.00236332 -4.72206e-23)
        0.365             (0.994538 0.00237473 4.57267e-23)             (0.994538 -0.00237478 -4.59453e-23)
         0.37             (0.994513 0.0023862 4.44778e-23)             (0.994513 -0.00238624 -4.46895e-23)
        0.375             (0.994488 0.00239767 4.32484e-23)             (0.994488 -0.00239772 -4.34534e-23)
         0.38             (0.994462 0.00240915 4.20413e-23)             (0.994462 -0.0024092 -4.22394e-23)
        0.385             (0.994437 0.00242065 4.08541e-23)             (0.994437 -0.00242069 -4.10458e-23)
         0.39             (0.994411 0.00243215 3.96825e-23)             (0.994411 -0.0024322 -3.98677e-23)
        0.395             (0.994386 0.00244366 3.85281e-23)             (0.994386 -0.00244371 -3.87068e-23)
          0.4             (0.99436 0.00245519 3.73921e-23)             (0.99436 -0.00245524 -3.75645e-23)
        0.405             (0.994335 0.00246672 3.62755e-23)             (0.994335 -0.00246677 -3.64418e-23)
         0.41             (0.994309 0.00247827 3.51713e-23)             (0.994309 -0.00247832 -3.53314e-23)
        0.415             (0.994284 0.00248984 3.40836e-23)             (0.994284 -0.00248989 -3.42376e-23)
         0.42             (0.994258 0.00250141 3.30051e-23)             (0.994258 -0.00250146 -3.31525e-23)
        0.425             (0.994233 0.002513 3.19465e-23)             (0.994233 -0.00251306 -3.20879e-23)
         0.43             (0.994207 0.00252461 3.09021e-23)             (0.994207 -0.00252466 -3.10378e-23)
        0.435             (0.994182 0.00253623 2.98577e-23)             (0.994182 -0.00253628 -2.99874e-23)
         0.44             (0.994156 0.00254786 2.88397e-23)             (0.994156 -0.00254792 -2.89627e-23)
        0.445             (0.99413 0.00255952 2.78313e-23)             (0.99413 -0.00255957 -2.79495e-23)
         0.45             (0.994105 0.00257118 2.68353e-23)             (0.994105 -0.00257124 -2.69478e-23)
        0.455             (0.994079 0.00258287 2.58565e-23)             (0.994079 -0.00258293 -2.59628e-23)
         0.46             (0.994053 0.00259457 2.48829e-23)             (0.994053 -0.00259463 -2.49838e-23)
        0.465             (0.994028 0.00260629 2.39213e-23)             (0.994028 -0.00260635 -2.40168e-23)
         0.47             (0.994002 0.00261803 2.29695e-23)             (0.994002 -0.00261809 -2.30614e-23)
        0.475             (0.993976 0.00262979 2.20293e-23)             (0.993976 -0.00262985 -2.21152e-23)
         0.48             (0.99395 0.00264157 2.10975e-23)             (0.99395 -0.00264163 -2.11766e-23)
        0.485             (0.993924 0.00265337 2.01751e-23)             (0.993924 -0.00265343 -2.02499e-23)
         0.49             (0.993898 0.00266518 1.92633e-23)             (0.993898 -0.00266524 -1.93329e-23)
        0.495             (0.993872 0.00267702 1.83577e-23)             (0.993872 -0.00267708 -1.84223e-23)
          0.5             (0.993846 0.00268887 1.74656e-23)             (0.993846 -0.00268894 -1.75252e-23)
        0.505             (0.99382 0.00270075 1.65791e-23)             (0.993821 -0.00270082 -1.66336e-23)
         0.51             (0.993794 0.00271265 1.56993e-23)             (0.993794 -0.00271272 -1.5749e-23)
        0.515             (0.993768 0.00272457 1.48292e-23)             (0.993768 -0.00272464 -1.48742e-23)
         0.52             (0.993742 0.00273652 1.39657e-23)             (0.993742 -0.00273658 -1.40053e-23)
        0.525             (0.993716 0.00274848 1.31069e-23)             (0.993716 -0.00274855 -1.31417e-23)
         0.53             (0.99369 0.00276047 1.226e-23)             (0.99369 -0.00276054 -1.22902e-23)
        0.535             (0.993664 0.00277249 1.14208e-23)             (0.993664 -0.00277255 -1.14464e-23)
         0.54             (0.993638 0.00278452 1.05855e-23)             (0.993638 -0.00278459 -1.06063e-23)
        0.545             (0.993611 0.00279658 9.7561e-24)             (0.993611 -0.00279665 -9.7724e-24)
         0.55             (0.993585 0.00280866 8.93323e-24)             (0.993585 -0.00280873 -8.94494e-24)
        0.555             (0.993558 0.00282077 8.11259e-24)             (0.993559 -0.00282084 -8.11914e-24)
         0.56             (0.993532 0.0028329 7.30379e-24)             (0.993532 -0.00283297 -7.30384e-24)
        0.565             (0.993506 0.00284506 6.49769e-24)             (0.993506 -0.00284513 -6.49455e-24)
         0.57             (0.993479 0.00285724 5.68553e-24)             (0.993479 -0.00285731 -5.67702e-24)
        0.575             (0.993453 0.00286945 4.8921e-24)             (0.993453 -0.00286952 -4.87959e-24)
         0.58             (0.993426 0.00288168 4.10115e-24)             (0.993426 -0.00288175 -4.08431e-24)
        0.585             (0.993399 0.00289394 3.32401e-24)             (0.993399 -0.00289401 -3.30284e-24)
         0.59             (0.993373 0.00290622 2.54721e-24)             (0.993373 -0.0029063 -2.52179e-24)
        0.595             (0.993346 0.00291853 1.77254e-24)             (0.993346 -0.00291861 -1.7427e-24)
          0.6             (0.993319 0.00293087 1.00311e-24)             (0.993319 -0.00293095 -9.68526e-25)
        0.605             (0.993292 0.00294324 2.37821e-25)             (0.993292 -0.00294332 -1.98951e-25)
         0.61             (0.993265 0.00295563 -5.22915e-25)             (0.993265 -0.00295571 5.65879e-25)
        0.615             (0.993238 0.00296805 -1.27923e-24)             (0.993238 -0.00296813 1.32632e-24)
         0.62             (0.993211 0.0029805 -2.03289e-24)             (0.993211 -0.00298058 2.08428e-24)
        0.625             (0.993184 0.00299298 -2.78108e-24)             (0.993184 -0.00299306 2.83679e-24)
         0.63             (0.993157 0.00300548 -3.52542e-24)             (0.993157 -0.00300557 3.58547e-24)
        0.635             (0.99313 0.00301802 -4.26683e-24)             (0.99313 -0.0030181 4.33051e-24)
         0.64             (0.993103 0.00303058 -5.0054e-24)             (0.993103 -0.00303066 5.07319e-24)
        0.645             (0.993076 0.00304317 -5.73738e-24)             (0.993076 -0.00304326 5.80933e-24)
         0.65             (0.993048 0.00305579 -6.46745e-24)             (0.993048 -0.00305588 6.54461e-24)
        0.655             (0.993021 0.00306844 -7.19556e-24)             (0.993021 -0.00306853 7.27692e-24)
         0.66             (0.992994 0.00308112 -7.91964e-24)             (0.992994 -0.00308121 8.00514e-24)
        0.665             (0.992966 0.00309384 -8.6459e-24)             (0.992966 -0.00309392 8.73576e-24)
         0.67             (0.992939 0.00310658 -9.35904e-24)             (0.992939 -0.00310666 9.45272e-24)
        0.675             (0.992911 0.00311935 -1.00753e-23)             (0.992911 -0.00311944 1.0173e-23)
         0.68             (0.992884 0.00313215 -1.07867e-23)             (0.992884 -0.00313224 1.08885e-23)
        0.685             (0.992856 0.00314498 -1.14949e-23)             (0.992856 -0.00314507 1.16007e-23)
         0.69             (0.992828 0.00315785 -1.21994e-23)             (0.992828 -0.00315794 1.23091e-23)
        0.695             (0.9928 0.00317074 -1.29038e-23)             (0.9928 -0.00317083 1.30176e-23)
          0.7             (0.992773 0.00318367 -1.36089e-23)             (0.992773 -0.00318376 1.37264e-23)
        0.705             (0.992745 0.00319664 -1.43129e-23)             (0.992745 -0.00319673 1.44342e-23)
         0.71             (0.992717 0.00320963 -1.50072e-23)             (0.992717 -0.00320972 1.51327e-23)
        0.715             (0.992689 0.00322265 -1.57029e-23)             (0.992689 -0.00322274 1.58324e-23)
         0.72             (0.992661 0.0032357 -1.6401e-23)             (0.992661 -0.0032358 1.65351e-23)
        0.725             (0.992632 0.00324879 -1.70906e-23)             (0.992632 -0.00324889 1.72287e-23)
         0.73             (0.992604 0.00326191 -1.778e-23)             (0.992604 -0.00326201 1.79221e-23)
        0.735             (0.992576 0.00327507 -1.84677e-23)             (0.992576 -0.00327516 1.86135e-23)
         0.74             (0.992548 0.00328825 -1.91673e-23)             (0.992548 -0.00328835 1.93177e-23)
        0.745             (0.992519 0.00330148 -1.9849e-23)             (0.992519 -0.00330157 2.00028e-23)
         0.75             (0.992491 0.00331473 -2.05308e-23)             (0.992491 -0.00331483 2.06887e-23)
        0.755             (0.992462 0.00332802 -2.12131e-23)             (0.992462 -0.00332812 2.13748e-23)
         0.76             (0.992434 0.00334134 -2.18926e-23)             (0.992434 -0.00334144 2.20587e-23)
        0.765             (0.992405 0.00335469 -2.256e-23)             (0.992405 -0.0033548 2.27291e-23)
         0.77             (0.992376 0.00336809 -2.32381e-23)             (0.992376 -0.00336819 2.3411e-23)
        0.775             (0.992348 0.00338151 -2.39131e-23)             (0.992348 -0.00338162 2.409e-23)
         0.78             (0.992319 0.00339497 -2.45876e-23)             (0.992319 -0.00339508 2.47683e-23)
        0.785             (0.99229 0.00340847 -2.52567e-23)             (0.99229 -0.00340858 2.54414e-23)
         0.79             (0.992261 0.003422 -2.59257e-23)             (0.992261 -0.00342211 2.61141e-23)
        0.795             (0.992232 0.00343557 -2.65949e-23)             (0.992232 -0.00343568 2.6787e-23)
          0.8             (0.992203 0.00344917 -2.72654e-23)             (0.992203 -0.00344928 2.74619e-23)
        0.805             (0.992174 0.00346281 -2.79333e-23)             (0.992174 -0.00346292 2.81333e-23)
         0.81             (0.992145 0.00347648 -2.85925e-23)             (0.992145 -0.00347659 2.87963e-23)
        0.815             (0.992115 0.00349019 -2.92593e-23)             (0.992115 -0.00349031 2.94667e-23)
         0.82             (0.992086 0.00350394 -2.99226e-23)             (0.992086 -0.00350405 3.01339e-23)
        0.825             (0.992056 0.00351773 -3.0588e-23)             (0.992057 -0.00351784 3.08028e-23)
         0.83             (0.992027 0.00353155 -3.12473e-23)             (0.992027 -0.00353166 3.14662e-23)
        0.835             (0.991997 0.00354541 -3.19081e-23)             (0.991997 -0.00354552 3.21309e-23)
         0.84             (0.991968 0.0035593 -3.25692e-23)             (0.991968 -0.00355942 3.27957e-23)
        0.845             (0.991938 0.00357323 -3.32234e-23)             (0.991938 -0.00357335 3.34539e-23)
         0.85             (0.991908 0.0035872 -3.38809e-23)             (0.991908 -0.00358732 3.41149e-23)
        0.855             (0.991879 0.00360121 -3.45396e-23)             (0.991879 -0.00360133 3.47776e-23)
         0.86             (0.991849 0.00361526 -3.51872e-23)             (0.991849 -0.00361538 3.54294e-23)
        0.865             (0.991819 0.00362934 -3.58885e-23)             (0.991819 -0.00362946 3.61344e-23)
         0.87             (0.991789 0.00364347 -3.65239e-23)             (0.991789 -0.00364359 3.67733e-23)
        0.875             (0.991759 0.00365763 -3.715e-23)             (0.991759 -0.00365775 3.74024e-23)
         0.88             (0.991728 0.00367183 -3.78187e-23)             (0.991728 -0.00367195 3.80755e-23)
        0.885             (0.991698 0.00368607 -3.84739e-23)             (0.991698 -0.00368619 3.87343e-23)
         0.89             (0.991668 0.00370034 -3.91283e-23)             (0.991668 -0.00370046 3.93928e-23)
        0.895             (0.991637 0.00371466 -3.97806e-23)             (0.991637 -0.00371478 4.00487e-23)
          0.9             (0.991607 0.00372902 -4.04338e-23)             (0.991607 -0.00372914 4.07056e-23)
        0.905             (0.991576 0.00374342 -4.10861e-23)             (0.991576 -0.00374354 4.1362e-23)
         0.91             (0.991546 0.00375785 -4.17399e-23)             (0.991546 -0.00375798 4.2019e-23)
        0.915             (0.991515 0.00377233 -4.23953e-23)             (0.991515 -0.00377246 4.26792e-23)
         0.92             (0.991484 0.00378685 -4.30457e-23)             (0.991484 -0.00378698 4.33332e-23)
        0.925             (0.991454 0.0038014 -4.37042e-23)             (0.991454 -0.00380153 4.39956e-23)
         0.93             (0.991423 0.003816 -4.43464e-23)             (0.991423 -0.00381613 4.46414e-23)
        0.935             (0.991392 0.00383064 -4.49993e-23)             (0.991392 -0.00383077 4.52982e-23)
         0.94             (0.991361 0.00384532 -4.56504e-23)             (0.991361 -0.00384545 4.59531e-23)
        0.945             (0.991329 0.00386004 -4.62976e-23)             (0.991329 -0.00386018 4.66039e-23)
         0.95             (0.991298 0.00387481 -4.69498e-23)             (0.991298 -0.00387494 4.72596e-23)
        0.955             (0.991267 0.00388961 -4.76142e-23)             (0.991267 -0.00388974 4.7929e-23)
         0.96             (0.991236 0.00390445 -4.82635e-23)             (0.991236 -0.00390459 4.85814e-23)
        0.965             (0.991204 0.00391934 -4.8916e-23)             (0.991204 -0.00391948 4.92379e-23)
         0.97             (0.991173 0.00393427 -4.95625e-23)             (0.991173 -0.00393441 4.98882e-23)
        0.975             (0.991141 0.00394924 -5.02127e-23)             (0.991141 -0.00394938 5.05419e-23)
         0.98             (0.991109 0.00396426 -5.08626e-23)             (0.991109 -0.0039644 5.11957e-23)
        0.985             (0.991078 0.00397931 -5.15115e-23)             (0.991078 -0.00397946 5.18485e-23)
         0.99             (0.991046 0.00399441 -5.21605e-23)             (0.991046 -0.00399456 5.25011e-23)
        0.995             (0.991014 0.00400956 -5.28136e-23)             (0.991014 -0.0040097 5.31584e-23)
            1             (0.990982 0.00402475 -5.34589e-23)             (0.990982 -0.00402489 5.3807e-23)
        1.005             (0.99095 0.00403998 -5.41104e-23)             (0.99095 -0.00404012 5.44624e-23)
         1.01             (0.990918 0.00405525 -5.47617e-23)             (0.990918 -0.0040554 5.51176e-23)
        1.015             (0.990885 0.00407057 -5.5415e-23)             (0.990885 -0.00407072 5.57749e-23)
         1.02             (0.990853 0.00408593 -5.60633e-23)             (0.990853 -0.00408608 5.64264e-23)
        1.025             (0.990821 0.00410134 -5.67138e-23)             (0.990821 -0.00410149 5.7081e-23)
         1.03             (0.990788 0.00411679 -5.73673e-23)             (0.990788 -0.00411694 5.77381e-23)
        1.035             (0.990756 0.00413228 -5.80141e-23)             (0.990756 -0.00413243 5.83892e-23)
         1.04             (0.990723 0.00414782 -5.86677e-23)             (0.990723 -0.00414797 5.9046e-23)
        1.045             (0.99069 0.0041634 -5.93158e-23)             (0.99069 -0.00416356 5.96982e-23)
         1.05             (0.990657 0.00417904 -5.99694e-23)             (0.990658 -0.00417919 6.0356e-23)
        1.055             (0.990625 0.00419471 -6.06265e-23)             (0.990625 -0.00419487 6.10172e-23)
         1.06             (0.990592 0.00421043 -6.128e-23)             (0.990592 -0.00421059 6.16739e-23)
        1.065             (0.990559 0.0042262 -6.19262e-23)             (0.990559 -0.00422636 6.23239e-23)
         1.07             (0.990525 0.00424201 -6.25844e-23)             (0.990525 -0.00424217 6.29861e-23)
        1.075             (0.990492 0.00425787 -6.32372e-23)             (0.990492 -0.00425803 6.3643e-23)
         1.08             (0.990459 0.00427378 -6.3891e-23)             (0.990459 -0.00427394 6.43001e-23)
        1.085             (0.990426 0.00428973 -6.45432e-23)             (0.990426 -0.00428989 6.49564e-23)
         1.09             (0.990392 0.00430573 -6.5201e-23)             (0.990392 -0.0043059 6.5618e-23)
        1.095             (0.990359 0.00432178 -6.58552e-23)             (0.990359 -0.00432194 6.62761e-23)
          1.1             (0.990325 0.00433788 -6.65106e-23)             (0.990325 -0.00433804 6.69355e-23)
        1.105             (0.990291 0.00435401 -6.71673e-23)             (0.990291 -0.00435418 6.75959e-23)
         1.11             (0.990257 0.0043702 -6.78224e-23)             (0.990257 -0.00437037 6.8255e-23)
        1.115             (0.990223 0.00438644 -6.84816e-23)             (0.990223 -0.00438661 6.89183e-23)
         1.12             (0.990189 0.00440272 -6.91394e-23)             (0.990189 -0.00440289 6.95796e-23)
        1.125             (0.990155 0.00441906 -6.98012e-23)             (0.990155 -0.00441923 7.02454e-23)
         1.13             (0.990121 0.00443544 -7.04553e-23)             (0.990121 -0.00443561 7.09035e-23)
        1.135             (0.990087 0.00445187 -7.11145e-23)             (0.990087 -0.00445204 7.15663e-23)
         1.14             (0.990053 0.00446835 -7.17768e-23)             (0.990053 -0.00446852 7.22327e-23)
        1.145             (0.990018 0.00448488 -7.24365e-23)             (0.990018 -0.00448505 7.28962e-23)
         1.15             (0.989984 0.00450145 -7.31028e-23)             (0.989984 -0.00450163 7.35673e-23)
        1.155             (0.989949 0.00451808 -7.37619e-23)             (0.989949 -0.00451826 7.42302e-23)
         1.16             (0.989914 0.00453476 -7.4423e-23)             (0.989914 -0.00453493 7.48956e-23)
        1.165             (0.989879 0.00455148 -7.50834e-23)             (0.98988 -0.00455166 7.5559e-23)
         1.17             (0.989845 0.00456826 -7.57514e-23)             (0.989845 -0.00456843 7.62313e-23)
        1.175             (0.98981 0.00458508 -7.64091e-23)             (0.98981 -0.00458526 7.68931e-23)
         1.18             (0.989775 0.00460196 -7.70745e-23)             (0.989775 -0.00460214 7.7562e-23)
        1.185             (0.989739 0.00461889 -7.77405e-23)             (0.989739 -0.00461907 7.82322e-23)
         1.19             (0.989704 0.00463587 -7.84081e-23)             (0.989704 -0.00463605 7.89035e-23)
        1.195             (0.989669 0.0046529 -7.90746e-23)             (0.989669 -0.00465308 7.95741e-23)
          1.2             (0.989633 0.00466998 -7.97412e-23)             (0.989633 -0.00467016 8.02449e-23)
        1.205             (0.989598 0.00468711 -8.04123e-23)             (0.989598 -0.0046873 8.09203e-23)
         1.21             (0.989562 0.0047043 -8.10786e-23)             (0.989562 -0.00470448 8.15895e-23)
        1.215             (0.989527 0.00472153 -8.17489e-23)             (0.989527 -0.00472172 8.22644e-23)
         1.22             (0.989491 0.00473882 -8.24111e-23)             (0.989491 -0.00473901 8.29306e-23)
        1.225             (0.989455 0.00475616 -8.31008e-23)             (0.989455 -0.00475635 8.36249e-23)
         1.23             (0.989419 0.00477356 -8.37681e-23)             (0.989419 -0.00477375 8.42957e-23)
        1.235             (0.989383 0.004791 -8.44405e-23)             (0.989383 -0.0047912 8.49723e-23)
         1.24             (0.989347 0.0048085 -8.51138e-23)             (0.989347 -0.0048087 8.56494e-23)
        1.245             (0.98931 0.00482606 -8.57856e-23)             (0.98931 -0.00482625 8.63256e-23)
         1.25             (0.989274 0.00484366 -8.64615e-23)             (0.989274 -0.00484386 8.70057e-23)
        1.255             (0.989237 0.00486132 -8.71352e-23)             (0.989237 -0.00486152 8.76828e-23)
         1.26             (0.989201 0.00487904 -8.78135e-23)             (0.989201 -0.00487923 8.83652e-23)
        1.265             (0.989164 0.00489681 -8.84856e-23)             (0.989164 -0.004897 8.90417e-23)
         1.27             (0.989127 0.00491463 -8.91628e-23)             (0.989127 -0.00491483 8.97223e-23)
        1.275             (0.98909 0.00493251 -8.98418e-23)             (0.989091 -0.00493271 9.04054e-23)
         1.28             (0.989054 0.00495044 -9.05206e-23)             (0.989054 -0.00495064 9.10885e-23)
        1.285             (0.989016 0.00496843 -9.12001e-23)             (0.989017 -0.00496863 9.1772e-23)
         1.29             (0.988979 0.00498647 -9.18774e-23)             (0.988979 -0.00498668 9.2453e-23)
        1.295             (0.988942 0.00500457 -9.25604e-23)             (0.988942 -0.00500478 9.31402e-23)
          1.3             (0.988905 0.00502273 -9.32407e-23)             (0.988905 -0.00502293 9.38244e-23)
        1.305             (0.988867 0.00504094 -9.39256e-23)             (0.988867 -0.00504114 9.4514e-23)
         1.31             (0.98883 0.00505921 -9.46085e-23)             (0.98883 -0.00505941 9.52005e-23)
        1.315             (0.988792 0.00507753 -9.52916e-23)             (0.988792 -0.00507774 9.58878e-23)
         1.32             (0.988754 0.00509591 -9.59777e-23)             (0.988754 -0.00509612 9.65781e-23)
        1.325             (0.988716 0.00511435 -9.66623e-23)             (0.988716 -0.00511456 9.72671e-23)
         1.33             (0.988678 0.00513285 -9.73537e-23)             (0.988678 -0.00513306 9.79628e-23)
        1.335             (0.98864 0.0051514 -9.80368e-23)             (0.98864 -0.00515161 9.86498e-23)
         1.34             (0.988602 0.00517001 -9.87253e-23)             (0.988602 -0.00517022 9.93424e-23)
        1.345             (0.988564 0.00518868 -9.94153e-23)             (0.988564 -0.0051889 1.00037e-22)
         1.35             (0.988525 0.0052074 -1.00106e-22)             (0.988526 -0.00520762 1.00732e-22)
        1.355             (0.988487 0.00522619 -1.00799e-22)             (0.988487 -0.00522641 1.01428e-22)
         1.36             (0.988448 0.00524504 -1.01491e-22)             (0.988448 -0.00524526 1.02125e-22)
        1.365             (0.98841 0.00526394 -1.02181e-22)             (0.98841 -0.00526416 1.0282e-22)
         1.37             (0.988371 0.0052829 -1.02875e-22)             (0.988371 -0.00528313 1.03517e-22)
        1.375             (0.988332 0.00530193 -1.03572e-22)             (0.988332 -0.00530215 1.04219e-22)
         1.38             (0.988293 0.00532101 -1.04268e-22)             (0.988293 -0.00532123 1.04918e-22)
        1.385             (0.988254 0.00534015 -1.04966e-22)             (0.988254 -0.00534038 1.0562e-22)
         1.39             (0.988215 0.00535935 -1.05664e-22)             (0.988215 -0.00535958 1.06324e-22)