/*--------------------------------*- C++ -*----------------------------------*\
  =========                 |
  \\      /  F ield         | OpenFOAM: The Open Source CFD Toolbox
   \\    /   O peration     | Website:  https://openfoam.org
    \\  /    A nd           | Version:  7
     \\/     M anipulation  |
\*---------------------------------------------------------------------------*/
FoamFile
{
    version     2.0;
    format      ascii;
    class       volVectorField;
    location    "50";
    object      U;
}
// * * * * * * * * * * * * * * * * * * * * * * * * * * * * * * * * * * * * * //

dimensions      [0 1 -1 0 0 0 0];

internalField   nonuniform List<vector> 
392
(
(0.66678 -0.000433572 -4.17906e-25)
(0.669079 -0.000425522 4.49957e-25)
(0.670842 -0.000418003 -3.91025e-25)
(0.674091 -0.000407876 5.31934e-25)
(0.667184 -0.0012998 3.19285e-25)
(0.669478 -0.00127569 -1.99596e-25)
(0.671237 -0.00125318 -2.86734e-25)
(0.674479 -0.00122284 1.4305e-25)
(0.667991 -0.00216335 1.25101e-25)
(0.670275 -0.0021233 1.03055e-24)
(0.672026 -0.00208591 -2.46496e-25)
(0.675255 -0.0020355 1.65683e-24)
(0.671467 -0.00296665 -5.39634e-24)
(0.673206 -0.0029146 -2.29681e-25)
(0.676415 -0.00284434 -1.75061e-23)
(0.673052 -0.00380407 6.2372e-24)
(0.674775 -0.00373764 2.01615e-25)
(0.677957 -0.00364783 2.06974e-23)
(0.675025 -0.0046339 -1.87748e-24)
(0.676728 -0.00455344 2.05385e-24)
(0.679878 -0.00444446 -1.49686e-24)
(0.677381 -0.00545449 -1.06483e-24)
(0.679061 -0.00536045 -1.20246e-24)
(0.682171 -0.00523276 -6.20619e-24)
(0.680113 -0.00626426 2.28139e-26)
(0.681766 -0.00615714 2.31201e-24)
(0.684831 -0.00601123 3.43968e-24)
(0.683214 -0.00706162 -1.82182e-24)
(0.684837 -0.00694202 -7.939e-25)
(0.687851 -0.00677844 5.85525e-24)
(0.686675 -0.00784506 -1.148e-24)
(0.688265 -0.00771363 8.45767e-25)
(0.691223 -0.00753296 -1.36371e-23)
(0.690488 -0.0086131 -1.28736e-24)
(0.692042 -0.00847058 1.57167e-24)
(0.694939 -0.00827339 -7.03149e-24)
(0.694642 -0.00936433 4.84301e-24)
(0.696158 -0.00921151 4.57383e-25)
(0.698989 -0.00899835 -2.82001e-25)
(0.699126 -0.0100974 -4.87147e-24)
(0.700601 -0.00993516 3.43691e-24)
(0.703362 -0.00970651 -1.0371e-23)
(0.703929 -0.0108109 3.32728e-24)
(0.705362 -0.0106403 -2.08301e-24)
(0.708048 -0.0103965 1.23566e-23)
(0.709039 -0.0115038 2.32379e-24)
(0.710427 -0.0113258 2.27561e-24)
(0.713034 -0.0110672 7.34928e-24)
(0.714441 -0.0121747 -1.41409e-24)
(0.715784 -0.0119908 -3.23849e-24)
(0.71831 -0.0117171 -4.41641e-24)
(0.720122 -0.0128227 -3.44997e-25)
(0.721419 -0.0126342 3.01822e-24)
(0.723861 -0.0123452 1.91033e-24)
(0.726069 -0.0134468 1.1518e-24)
(0.72732 -0.0132553 -3.75182e-24)
(0.729674 -0.01295 -1.31161e-24)
(0.732266 -0.0140459 3.99815e-24)
(0.733471 -0.0138536 -1.18456e-24)
(0.735736 -0.0135305 1.55652e-23)
(0.738697 -0.0146193 -1.27579e-24)
(0.739859 -0.0144285 -1.15315e-24)
(0.742033 -0.0140853 -8.92237e-24)
(0.745348 -0.0151661 7.94827e-25)
(0.746469 -0.0149802 4.84959e-25)
(0.748549 -0.0146131 5.75174e-24)
(0.752203 -0.0156857 -9.31594e-25)
(0.753285 -0.0155098 -1.10239e-25)
(0.75527 -0.0151114 -5.95584e-24)
(0.759243 -0.0161779 2.05027e-24)
(0.760295 -0.0160179 -2.40627e-25)
(0.762182 -0.0155787 4.78699e-24)
(0.766452 -0.0166436 -2.06343e-24)
(0.767482 -0.0164948 -5.79217e-25)
(0.769269 -0.0160242 -3.4425e-24)
(0.780465 -0.0174789 0)
(0.781451 -0.0173077 0)
(0.783024 -0.0168616 0)
(0.802373 -0.0184913 1.00889e-30)
(0.803203 -0.0182531 0)
(0.80447 -0.0179393 0)
(0.825177 -0.0192879 2.47286e-30)
(0.825821 -0.0190353 0)
(0.826797 -0.0187741 0)
(0.848551 -0.0198738 0)
(0.849004 -0.019626 0)
(0.849698 -0.0193854 0)
(0.872182 -0.0202541 0)
(0.872449 -0.020017 -8.39287e-32)
(0.872871 -0.0197909 -5.03125e-32)
(0.895777 -0.0204375 -7.56976e-30)
(0.895868 -0.0202146 8.39287e-32)
(0.896032 -0.0200031 5.02796e-32)
(0.919061 -0.020436 9.12553e-30)
(0.918988 -0.0202297 0)
(0.918911 -0.0200341 0)
(0.941784 -0.020264 0)
(0.941562 -0.0200762 0)
(0.941264 -0.019898 0)
(0.963724 -0.0199385 -1.20684e-29)
(0.963371 -0.0197702 3.11208e-31)
(0.962874 -0.0196107 0)
(0.984693 -0.0194776 1.03544e-29)
(0.984225 -0.0193293 -3.11208e-31)
(0.983553 -0.0191895 0)
(1.00453 -0.0189005 0)
(1.00397 -0.0187724 0)
(1.00315 -0.0186524 0)
(1.02312 -0.0182268 0)
(1.02247 -0.0181182 0)
(1.02153 -0.0180181 0)
(1.04036 -0.0174756 -4.22794e-30)
(1.03966 -0.0173859 0)
(1.03861 -0.0173048 0)
(1.0562 -0.0166656 0)
(1.05545 -0.0165935 0)
(1.05434 -0.0165305 0)
(1.07062 -0.0158142 1.87597e-29)
(1.06984 -0.0157582 5.07849e-31)
(1.06867 -0.0157119 -4.45366e-31)
(1.08361 -0.0149372 0)
(1.08281 -0.0148957 -5.07849e-31)
(1.08161 -0.0148646 4.45204e-31)
(1.0952 -0.0140489 0)
(1.0944 -0.0140203 0)
(1.09318 -0.0140025 0)
(1.10543 -0.0131617 0)
(1.10464 -0.013144 0)
(1.10343 -0.0131377 0)
(1.11437 -0.0122858 -2.74861e-29)
(1.1136 -0.0122774 1.44586e-29)
(1.1124 -0.0122806 0)
(1.12211 -0.0114296 1.73061e-29)
(1.12135 -0.0114287 -1.44586e-29)
(1.12019 -0.0114398 0)
(1.12872 -0.0105996 -3.04099e-29)
(1.12799 -0.0106048 0)
(1.12686 -0.0106218 0)
(1.1343 -0.00980055 0)
(1.1336 -0.00981022 0)
(1.13251 -0.00983164 0)
(1.13896 -0.00903548 0)
(1.13829 -0.00904838 1.57782e-29)
(1.13724 -0.00907277 -1.1918e-29)
(1.14278 -0.00830606 0)
(1.14215 -0.00832107 -1.57782e-29)
(1.14115 -0.00834717 1.19166e-29)
(1.14588 -0.00761273 -1.87144e-29)
(1.14527 -0.0076289 1.56976e-29)
(1.14432 -0.00765565 0)
(1.14834 -0.00695493 1.87144e-29)
(1.14776 -0.00697148 -1.56976e-29)
(1.14686 -0.00699802 0)
(1.15025 -0.0063313 6.34954e-30)
(1.14971 -0.00634761 0)
(1.14885 -0.00637324 0)
(1.1517 -0.00573988 -3.23515e-29)
(1.15119 -0.00575549 0)
(1.15037 -0.00577969 0)
(1.15277 -0.00517828 -2.45812e-29)
(1.15228 -0.00519285 0)
(1.1515 -0.00521526 0)
(1.15352 -0.00464385 2.45812e-29)
(1.15306 -0.00465715 0)
(1.15232 -0.00467753 0)
(1.15403 -0.0041338 3.5631e-13)
(1.15358 -0.00414569 -1.53364e-29)
(1.15287 -0.00416391 0)
(1.15434 -0.00364527 -3.5631e-13)
(1.15391 -0.00365571 1.53364e-29)
(1.15323 -0.00367171 0)
(1.1545 -0.00317548 0)
(1.15408 -0.00318446 0)
(1.15343 -0.00319827 0)
(1.15455 -0.00272172 6.50863e-30)
(1.15415 -0.00272928 0)
(1.15352 -0.00274098 0)
(1.15454 -0.00228143 1.85026e-29)
(1.15415 -0.00228764 0)
(1.15353 -0.00229732 0)
(1.15448 -0.0018522 0)
(1.1541 -0.00185713 0)
(1.1535 -0.00186491 0)
(1.15441 -0.00143175 1.91391e-29)
(1.15404 -0.00143546 0)
(1.15345 -0.00144155 -8.88757e-30)
(1.15435 -0.00101792 -3.77141e-29)
(1.15398 -0.00102037 0)
(1.15339 -0.00102522 8.88758e-30)
(1.15429 -0.000608722 1.15333e-29)
(1.15393 -0.000609575 0)
(1.15335 -0.000613981 0)
(1.15427 -0.00020252 0)
(1.1539 -0.000202485 0)
(1.15333 -0.00020469 0)
(0.780465 0.0174789 0)
(0.802373 0.0184912 -1.00892e-30)
(0.825177 0.0192879 -2.4729e-30)
(0.848551 0.0198738 0)
(0.872182 0.0202541 0)
(0.895777 0.0204375 7.56981e-30)
(0.919061 0.0204359 -9.12558e-30)
(0.941784 0.020264 0)
(0.963724 0.0199385 1.61178e-29)
(0.984693 0.0194776 -1.44038e-29)
(1.00453 0.0189005 0)
(1.02312 0.0182268 0)
(1.04036 0.0174756 4.22796e-30)
(1.0562 0.0166656 0)
(1.07062 0.0158142 -1.87597e-29)
(1.08361 0.0149372 0)
(1.0952 0.0140489 0)
(1.10543 0.0131617 0)
(1.11437 0.0122857 -3.30333e-13)
(1.12211 0.0114296 3.30333e-13)
(1.12872 0.0105996 3.04099e-29)
(1.1343 0.00980054 0)
(1.13896 0.00903547 0)
(1.14278 0.00830605 0)
(1.14588 0.00761272 3.50603e-13)
(1.14834 0.00695492 -3.50603e-13)
(1.15025 0.00633129 0)
(1.1517 0.00573987 3.23515e-29)
(1.15277 0.00517828 0)
(1.15352 0.00464385 0)
(1.15403 0.0041338 3.56311e-13)
(1.15434 0.00364527 -3.56311e-13)
(1.1545 0.00317548 1.90717e-29)
(1.15455 0.00272172 -7.61376e-30)
(1.15454 0.00228143 -1.85026e-29)
(1.15448 0.0018522 0)
(1.15441 0.00143175 0)
(1.15435 0.00101792 1.85751e-29)
(1.15429 0.000608722 -7.17794e-13)
(1.15427 0.00020252 7.25504e-13)
(0.781451 0.0173077 0)
(0.803203 0.0182531 0)
(0.825821 0.0190353 0)
(0.849004 0.0196259 0)
(0.872449 0.020017 0)
(0.895868 0.0202146 0)
(0.918988 0.0202297 0)
(0.941562 0.0200762 0)
(0.963371 0.0197702 0)
(0.984225 0.0193293 0)
(1.00397 0.0187723 0)
(1.02247 0.0181182 0)
(1.03966 0.0173859 0)
(1.05545 0.0165935 0)
(1.06984 0.0157582 0)
(1.08281 0.0148957 0)
(1.0944 0.0140203 0)
(1.10464 0.013144 0)
(1.1136 0.0122774 -2.44888e-13)
(1.12135 0.0114287 2.44888e-13)
(1.12799 0.0106047 0)
(1.1336 0.00981021 0)
(1.13829 0.00904838 -1.57783e-29)
(1.14215 0.00832107 1.57783e-29)
(1.14527 0.0076289 2.46956e-13)
(1.14776 0.00697148 -2.46956e-13)
(1.14971 0.00634761 0)
(1.15119 0.00575549 0)
(1.15228 0.00519285 0)
(1.15306 0.00465715 0)
(1.15358 0.00414569 2.41272e-13)
(1.15391 0.00365571 -2.41272e-13)
(1.15408 0.00318446 0)
(1.15415 0.00272928 0)
(1.15415 0.00228764 0)
(1.1541 0.00185713 0)
(1.15404 0.00143546 0)
(1.15398 0.00102037 0)
(1.15393 0.000609575 -2.38537e-13)
(1.1539 0.000202484 2.41099e-13)
(0.783024 0.0168616 0)
(0.80447 0.0179393 0)
(0.826797 0.0187741 0)
(0.849698 0.0193853 0)
(0.872871 0.0197909 0)
(0.896032 0.0200031 0)
(0.918911 0.0200341 0)
(0.941264 0.019898 0)
(0.962874 0.0196107 0)
(0.983553 0.0191895 0)
(1.00315 0.0186524 0)
(1.02153 0.018018 0)
(1.03861 0.0173048 0)
(1.05434 0.0165305 0)
(1.06867 0.0157119 0)
(1.08161 0.0148646 0)
(1.09318 0.0140025 0)
(1.10343 0.0131377 0)
(1.1124 0.0122806 -2.02794e-13)
(1.12019 0.0114398 2.0275e-13)
(1.12686 0.0106218 0)
(1.13251 0.00983164 0)
(1.13724 0.00907277 1.1918e-29)
(1.14115 0.00834717 -1.19167e-29)
(1.14432 0.00765565 1.77383e-13)
(1.14686 0.00699801 -1.77371e-13)
(1.14885 0.00637324 0)
(1.15037 0.00577969 0)
(1.1515 0.00521526 0)
(1.15232 0.00467753 0)
(1.15287 0.00416391 0)
(1.15323 0.00367171 0)
(1.15343 0.00319827 0)
(1.15352 0.00274098 0)
(1.15353 0.00229732 0)
(1.1535 0.00186491 0)
(1.15345 0.00144155 -8.88758e-30)
(1.15339 0.00102522 8.88759e-30)
(1.15335 0.000613981 0)
(1.15333 0.00020469 0)
(0.766452 0.0166436 5.03185e-25)
(0.767482 0.0164948 5.16989e-25)
(0.769269 0.0160242 -4.96932e-24)
(0.759243 0.0161779 -4.33015e-26)
(0.760295 0.0160178 -2.03673e-25)
(0.762182 0.0155787 4.76936e-24)
(0.752203 0.0156857 -1.79203e-24)
(0.753285 0.0155097 3.55523e-25)
(0.75527 0.0151114 -5.91831e-24)
(0.745348 0.0151661 1.64833e-24)
(0.746469 0.0149802 8.26076e-25)
(0.748549 0.0146131 5.60383e-24)
(0.738697 0.0146192 -7.56031e-25)
(0.739859 0.0144285 3.72398e-25)
(0.742033 0.0140853 -9.24112e-24)
(0.732266 0.0140459 3.86005e-25)
(0.733471 0.0138535 2.93364e-24)
(0.735736 0.0135305 1.22883e-23)
(0.726069 0.0134468 1.8978e-24)
(0.72732 0.0132553 -1.47739e-24)
(0.729674 0.01295 -1.91195e-24)
(0.720122 0.0128227 -1.82447e-24)
(0.721419 0.0126341 3.66249e-24)
(0.723861 0.0123451 4.28858e-24)
(0.714441 0.0121747 -1.45956e-24)
(0.715784 0.0119907 -2.31642e-24)
(0.71831 0.0117171 -6.9901e-24)
(0.709039 0.0115038 1.63205e-24)
(0.710427 0.0113258 1.74569e-24)
(0.713034 0.0110672 7.70713e-24)
(0.703929 0.0108109 3.34949e-24)
(0.705362 0.0106403 -2.27261e-24)
(0.708048 0.0103965 1.25413e-23)
(0.699126 0.0100973 -6.85243e-24)
(0.700601 0.00993513 -7.44852e-25)
(0.703362 0.00970649 -8.23665e-24)
(0.694642 0.00936431 2.80814e-24)
(0.696158 0.00921149 -3.45835e-24)
(0.698989 0.00899833 2.93253e-24)
(0.690488 0.00861308 -2.26615e-24)
(0.692042 0.00847055 4.29102e-25)
(0.694939 0.00827337 -6.18438e-24)
(0.686675 0.00784504 -8.05705e-25)
(0.688265 0.00771361 1.1837e-24)
(0.691223 0.00753294 -1.42901e-23)
(0.683214 0.0070616 -8.38081e-25)
(0.684837 0.006942 1.48126e-25)
(0.687851 0.00677842 5.2724e-24)
(0.680113 0.00626423 6.31777e-26)
(0.681766 0.00615712 -1.93931e-24)
(0.684831 0.00601121 5.19846e-24)
(0.677381 0.00545447 -5.2704e-25)
(0.679061 0.00536043 -3.10322e-25)
(0.682171 0.00523274 -7.78882e-24)
(0.675025 0.00463387 9.55188e-25)
(0.676728 0.00455342 1.05787e-24)
(0.679878 0.00444444 -1.75724e-24)
(0.670803 0.00387538 3.26353e-24)
(0.673052 0.00380405 6.27003e-24)
(0.674775 0.00373762 -1.07705e-24)
(0.677957 0.00364781 2.196e-23)
(0.669198 0.00302245 -2.25398e-24)
(0.671467 0.00296663 -5.9702e-24)
(0.673206 0.00291458 3.53264e-25)
(0.676415 0.00284432 -1.75151e-23)
(0.667991 0.00216333 2.13246e-25)
(0.670275 0.00212327 8.71031e-25)
(0.672026 0.00208589 2.42469e-26)
(0.675255 0.00203548 1.2115e-24)
(0.667184 0.00129977 5.46792e-25)
(0.669478 0.00127566 -2.37553e-25)
(0.671237 0.00125315 -6.78935e-25)
(0.674479 0.00122282 1.54568e-25)
(0.66678 0.000433545 -2.83244e-25)
(0.669079 0.000425498 3.78025e-25)
(0.670842 0.000417981 -3.04728e-25)
(0.674091 0.000407856 5.53632e-25)
)
;

boundaryField
{
    inlet
    {
        type            uniformFixedValue;
        uniformValue    constant (1 0 0);
        value           nonuniform 0();
    }
    outlet
    {
        type            pressureInletOutletVelocity;
        value           nonuniform List<vector> 
128
(
(0.783024 -0.0168616 0)
(0.80447 -0.0179393 0)
(0.826797 -0.0187741 0)
(0.849698 -0.0193854 0)
(0.872871 -0.0197909 -5.03125e-32)
(0.896032 -0.0200031 5.02796e-32)
(0.918911 -0.0200341 0)
(0.941264 -0.019898 0)
(0.962874 -0.0196107 0)
(0.983553 -0.0191895 0)
(1.00315 -0.0186524 0)
(1.02153 -0.0180181 0)
(1.03861 -0.0173048 0)
(1.05434 -0.0165305 0)
(1.06867 -0.0157119 -4.45366e-31)
(1.08161 -0.0148646 4.45204e-31)
(1.09318 -0.0140025 0)
(1.10343 -0.0131377 0)
(1.1124 -0.0122806 0)
(1.12019 -0.0114398 0)
(1.12686 -0.0106218 0)
(1.13251 -0.00983164 0)
(1.13724 -0.00907277 -1.1918e-29)
(1.14115 -0.00834717 1.19166e-29)
(1.14432 -0.00765565 0)
(1.14686 -0.00699802 0)
(1.14885 -0.00637324 0)
(1.15037 -0.00577969 0)
(1.1515 -0.00521526 0)
(1.15232 -0.00467753 0)
(1.15287 -0.00416391 0)
(1.15323 -0.00367171 0)
(1.15343 -0.00319827 0)
(1.15352 -0.00274098 0)
(1.15353 -0.00229732 0)
(1.1535 -0.00186491 0)
(1.15345 -0.00144155 -8.88757e-30)
(1.15339 -0.00102522 8.88758e-30)
(1.15335 -0.000613981 0)
(1.15333 -0.00020469 0)
(0.674091 -0.000407876 5.31934e-25)
(0.674479 -0.00122284 1.4305e-25)
(0.675255 -0.0020355 1.65683e-24)
(0.676415 -0.00284434 -1.75061e-23)
(0.677957 -0.00364783 2.06974e-23)
(0.679878 -0.00444446 -1.49686e-24)
(0.682171 -0.00523276 -6.20619e-24)
(0.684831 -0.00601123 3.43968e-24)
(0.687851 -0.00677844 5.85525e-24)
(0.691223 -0.00753296 -1.36371e-23)
(0.694939 -0.00827339 -7.03149e-24)
(0.698989 -0.00899835 -2.82001e-25)
(0.703362 -0.00970651 -1.0371e-23)
(0.708048 -0.0103965 1.23566e-23)
(0.713034 -0.0110672 7.34928e-24)
(0.71831 -0.0117171 -4.41641e-24)
(0.723861 -0.0123452 1.91033e-24)
(0.729674 -0.01295 -1.31161e-24)
(0.735736 -0.0135305 1.55652e-23)
(0.742033 -0.0140853 -8.92237e-24)
(0.748549 -0.0146131 5.75174e-24)
(0.75527 -0.0151114 -5.95584e-24)
(0.762182 -0.0155787 4.78699e-24)
(0.769269 -0.0160242 -3.4425e-24)
(0.769269 0.0160242 -4.96932e-24)
(0.762182 0.0155787 4.76936e-24)
(0.75527 0.0151114 -5.91831e-24)
(0.748549 0.0146131 5.60383e-24)
(0.742033 0.0140853 -9.24112e-24)
(0.735736 0.0135305 1.22883e-23)
(0.729674 0.01295 -1.91195e-24)
(0.723861 0.0123451 4.28858e-24)
(0.71831 0.0117171 -6.9901e-24)
(0.713034 0.0110672 7.70713e-24)
(0.708048 0.0103965 1.25413e-23)
(0.703362 0.00970649 -8.23665e-24)
(0.698989 0.00899833 2.93253e-24)
(0.694939 0.00827337 -6.18438e-24)
(0.691223 0.00753294 -1.42901e-23)
(0.687851 0.00677842 5.2724e-24)
(0.684831 0.00601121 5.19846e-24)
(0.682171 0.00523274 -7.78882e-24)
(0.679878 0.00444444 -1.75724e-24)
(0.677957 0.00364781 2.196e-23)
(0.676415 0.00284432 -1.75151e-23)
(0.675255 0.00203548 1.2115e-24)
(0.674479 0.00122282 1.54568e-25)
(0.674091 0.000407856 5.53632e-25)
(0.783024 0.0168616 0)
(0.80447 0.0179393 0)
(0.826797 0.0187741 0)
(0.849698 0.0193853 0)
(0.872871 0.0197909 0)
(0.896032 0.0200031 0)
(0.918911 0.0200341 0)
(0.941264 0.019898 0)
(0.962874 0.0196107 0)
(0.983553 0.0191895 0)
(1.00315 0.0186524 0)
(1.02153 0.018018 0)
(1.03861 0.0173048 0)
(1.05434 0.0165305 0)
(1.06867 0.0157119 0)
(1.08161 0.0148646 0)
(1.09318 0.0140025 0)
(1.10343 0.0131377 0)
(1.1124 0.0122806 -2.02794e-13)
(1.12019 0.0114398 2.0275e-13)
(1.12686 0.0106218 0)
(1.13251 0.00983164 0)
(1.13724 0.00907277 1.1918e-29)
(1.14115 0.00834717 -1.19167e-29)
(1.14432 0.00765565 1.77383e-13)
(1.14686 0.00699801 -1.77371e-13)
(1.14885 0.00637324 0)
(1.15037 0.00577969 0)
(1.1515 0.00521526 0)
(1.15232 0.00467753 0)
(1.15287 0.00416391 0)
(1.15323 0.00367171 0)
(1.15343 0.00319827 0)
(1.15352 0.00274098 0)
(1.15353 0.00229732 0)
(1.1535 0.00186491 0)
(1.15345 0.00144155 -8.88758e-30)
(1.15339 0.00102522 8.88759e-30)
(1.15335 0.000613981 0)
(1.15333 0.00020469 0)
)
;
    }
    cylinder
    {
        type            fixedValue;
        value           nonuniform 0();
    }
    top
    {
        type            symmetryPlane;
    }
    bottom
    {
        type            symmetryPlane;
    }
    defaultFaces
    {
        type            empty;
    }
    procBoundary63to62
    {
        type            processor;
        value           nonuniform List<vector> 
130
(
(0.6646 -0.000441201 -5.42095e-26)
(0.665009 -0.00132265 -3.25904e-25)
(0.665826 -0.00220132 3.56302e-25)
(0.669198 -0.00302247 -1.87111e-24)
(0.669198 -0.00302247 -1.87111e-24)
(0.670803 -0.0038754 4.1765e-25)
(0.6728 -0.00472041 1.77557e-24)
(0.675185 -0.00555581 -1.84343e-24)
(0.67795 -0.00637992 2.23854e-24)
(0.681089 -0.00719114 -1.13762e-24)
(0.684592 -0.00798789 1.82345e-25)
(0.68845 -0.00876866 -8.14578e-25)
(0.692652 -0.009532 3.51461e-24)
(0.697188 -0.0102765 2.38562e-25)
(0.702046 -0.0110009 6.08046e-25)
(0.707212 -0.0117039 1.82007e-24)
(0.712674 -0.0123844 -1.70763e-24)
(0.718417 -0.0130413 4.31582e-25)
(0.724427 -0.0136737 -5.61818e-25)
(0.730689 -0.0142806 9.8401e-25)
(0.737188 -0.0148613 -1.02213e-24)
(0.743907 -0.0154149 -5.09212e-26)
(0.750831 -0.0159409 4.29001e-25)
(0.757944 -0.0164386 9.51096e-25)
(0.76523 -0.0169066 3.74896e-25)
(0.77941 -0.017739 0)
(0.801531 -0.0187464 1.00889e-30)
(0.824537 -0.0195399 2.47286e-30)
(0.848105 -0.0201196 0)
(0.871925 -0.0204904 -1.58273e-30)
(0.895699 -0.0206614 -5.98703e-30)
(0.91915 -0.020645 9.12553e-30)
(0.942025 -0.0204563 0)
(0.964101 -0.0201128 -1.2636e-29)
(0.985187 -0.0196332 1.0922e-29)
(1.00513 -0.0190371 0)
(1.02379 -0.0183447 0)
(1.0411 -0.0175754 -4.22794e-30)
(1.05699 -0.0167483 0)
(1.07144 -0.015881 1.87597e-29)
(1.08444 -0.0149897 0)
(1.09603 -0.0140886 0)
(1.10626 -0.0131902 0)
(1.11519 -0.0123048 -1.01801e-29)
(1.12291 -0.0114407 0)
(1.12949 -0.0106044 -3.04099e-29)
(1.13504 -0.00980035 0)
(1.13966 -0.00903154 0)
(1.14346 -0.00829948 0)
(1.14652 -0.00760443 0)
(1.14894 -0.00694568 0)
(1.15082 -0.00632172 6.34954e-30)
(1.15225 -0.00573043 -3.23515e-29)
(1.15329 -0.00516932 0)
(1.15402 -0.00463561 0)
(1.1545 -0.00412641 4.70342e-13)
(1.15479 -0.00363881 -4.70342e-13)
(1.15493 -0.00316997 0)
(1.15497 -0.00271713 6.50863e-30)
(1.15495 -0.0022777 1.85026e-29)
(1.15488 -0.00184927 0)
(1.15481 -0.00142956 0)
(1.15473 -0.00101644 -1.8575e-29)
(1.15468 -0.000607966 1.15333e-29)
(1.15465 -0.000202329 0)
(0.77941 0.0177389 0)
(0.801531 0.0187464 -1.00892e-30)
(0.824537 0.0195398 -2.4729e-30)
(0.848105 0.0201196 0)
(0.871925 0.0204904 1.58274e-30)
(0.895699 0.0206613 5.98707e-30)
(0.91915 0.0206449 -9.12558e-30)
(0.942025 0.0204563 0)
(0.964101 0.0201128 1.20685e-29)
(0.985187 0.0196332 -1.03544e-29)
(1.00513 0.0190371 2.96965e-13)
(1.02379 0.0183446 -2.96965e-13)
(1.0411 0.0175754 4.22796e-30)
(1.05699 0.0167483 0)
(1.07144 0.015881 -1.87597e-29)
(1.08444 0.0149897 0)
(1.09603 0.0140886 0)
(1.10626 0.0131902 0)
(1.11519 0.0123048 -8.32608e-13)
(1.12291 0.0114407 8.32608e-13)
(1.12949 0.0106044 4.32125e-13)
(1.13504 0.00980034 -4.32125e-13)
(1.13966 0.00903154 0)
(1.14346 0.00829947 0)
(1.14652 0.00760443 4.53371e-13)
(1.14894 0.00694568 -4.53371e-13)
(1.15082 0.00632171 0)
(1.15225 0.00573043 3.23515e-29)
(1.15329 0.00516932 0)
(1.15402 0.00463561 0)
(1.1545 0.00412641 -3.27333e-29)
(1.15479 0.00363881 6.47686e-30)
(1.15493 0.00316996 -9.65106e-30)
(1.15497 0.00271712 2.1109e-29)
(1.15495 0.0022777 -1.85026e-29)
(1.15488 0.00184927 0)
(1.15481 0.00142956 0)
(1.15473 0.00101644 1.85751e-29)
(1.15468 0.000607966 -9.57516e-13)
(1.15465 0.000202329 9.678e-13)
(0.76523 0.0169066 -3.57117e-25)
(0.757944 0.0164386 -9.16832e-25)
(0.750831 0.0159409 -4.9836e-25)
(0.743907 0.0154149 2.71026e-25)
(0.737188 0.0148612 2.60996e-25)
(0.730689 0.0142806 -1.7964e-24)
(0.724427 0.0136737 1.74967e-24)
(0.718417 0.0130413 2.11357e-24)
(0.712674 0.0123844 -3.09925e-24)
(0.707212 0.0117039 1.22329e-26)
(0.702046 0.0110009 5.59639e-25)
(0.697188 0.0102765 -2.81398e-24)
(0.692652 0.00953197 1.07921e-24)
(0.68845 0.00876864 -3.94479e-25)
(0.684592 0.00798787 -3.12897e-25)
(0.681089 0.00719112 6.46603e-25)
(0.67795 0.0063799 4.02147e-25)
(0.675185 0.00555578 -2.78751e-24)
(0.6728 0.00472039 2.53056e-24)
(0.6728 0.00472039 2.53056e-24)
(0.668672 0.00394296 9.14543e-25)
(0.667048 0.00307535 -5.03756e-25)
(0.665826 0.00220129 2.14574e-25)
(0.665009 0.00132262 -5.70854e-25)
(0.6646 0.000441173 1.19419e-25)
)
;
    }
}


// ************************************************************************* //
