/*--------------------------------*- C++ -*----------------------------------*\
  =========                 |
  \\      /  F ield         | OpenFOAM: The Open Source CFD Toolbox
   \\    /   O peration     | Website:  https://openfoam.org
    \\  /    A nd           | Version:  7
     \\/     M anipulation  |
\*---------------------------------------------------------------------------*/
FoamFile
{
    version     2.0;
    format      ascii;
    class       volVectorField;
    location    "35";
    object      U;
}
// * * * * * * * * * * * * * * * * * * * * * * * * * * * * * * * * * * * * * //

dimensions      [0 1 -1 0 0 0 0];

internalField   nonuniform List<vector> 
183
(
(0.0772845 0.00260927 -8.63323e-22)
(0.251673 0.0211262 -1.79367e-20)
(0.440917 0.0611873 5.84884e-21)
(0.631382 0.112399 -3.59239e-21)
(0.808023 0.166816 8.51174e-21)
(0.958259 0.217599 3.84472e-21)
(1.07499 0.259606 9.18913e-21)
(1.15735 0.290336 -6.66837e-21)
(1.20936 0.309768 -1.23889e-20)
(1.23768 0.319533 9.96349e-21)
(1.24944 0.321976 4.27228e-21)
(1.25083 0.319424 1.33228e-20)
(1.24652 0.313785 1.64062e-21)
(1.23959 0.306415 -5.05813e-21)
(1.23187 0.298182 -2.86175e-21)
(1.22435 0.289594 -3.97666e-21)
(1.21751 0.280936 2.73108e-22)
(1.2115 0.272357 -7.83364e-21)
(1.2063 0.263875 -2.0777e-21)
(1.20169 0.255613 -1.68794e-20)
(1.19727 0.24839 1.9319e-23)
(0.0886711 0.00595378 8.62052e-22)
(0.280847 0.0320404 1.84056e-20)
(0.48227 0.0797799 -5.80628e-21)
(0.678491 0.137172 3.6326e-21)
(0.854359 0.195211 -8.6214e-21)
(0.998486 0.246805 -3.90489e-21)
(1.10593 0.287296 -9.19144e-21)
(1.17811 0.315071 6.52354e-21)
(1.22084 0.331014 1.21614e-20)
(1.24175 0.337427 -9.51531e-21)
(1.24821 0.337012 -4.12781e-21)
(1.24619 0.3322 4.74539e-21)
(1.23986 0.324834 -1.68842e-21)
(1.23186 0.316146 4.87196e-21)
(1.22365 0.306879 2.60195e-21)
(1.21596 0.297446 3.40664e-21)
(1.20913 0.288069 -2.21453e-22)
(1.20322 0.27886 7.17007e-21)
(1.19816 0.26981 1.78903e-21)
(1.19368 0.261098 1.52866e-20)
(1.18933 0.253443 -2.38029e-22)
(0.100328 0.0101348 -2.60005e-20)
(0.3099 0.0449202 -3.0224e-20)
(0.522297 0.100749 -5.3989e-20)
(0.722597 0.164091 -2.79153e-20)
(0.89607 0.225095 4.38003e-21)
(1.03301 0.276712 3.13466e-20)
(1.13084 0.315027 2.03844e-20)
(1.19324 0.339441 -4.72534e-20)
(1.22754 0.351743 -2.63956e-20)
(1.24205 0.354829 1.68703e-20)
(1.24417 0.351671 1.88428e-20)
(1.23949 0.344724 1.30241e-20)
(1.23171 0.335729 1.11315e-20)
(1.223 0.32578 2.38539e-21)
(1.21452 0.315501 -9.63097e-21)
(1.20681 0.305219 1.09844e-20)
(0.112091 0.0151752 -1.58942e-20)
(0.338398 0.0597323 7.53182e-20)
(0.560403 0.123935 1.44969e-19)
(0.112491 -0.0152226 8.46575e-20)
(0.33946 -0.0598806 -1.04666e-20)
(0.561972 -0.124176 -5.28951e-20)
(0.764996 -0.193158 1.0613e-19)
(0.100704 -0.0101665 -4.06074e-20)
(0.310926 -0.0450311 -5.63717e-20)
(0.523842 -0.100945 -5.5813e-20)
(0.724481 -0.164333 -3.77045e-20)
(0.898093 -0.225322 4.97315e-21)
(1.035 -0.276868 -9.35837e-21)
(1.13268 -0.315076 5.08504e-21)
(1.19489 -0.339372 1.72547e-20)
(1.229 -0.351566 1.14253e-20)
(1.24336 -0.354566 6.43912e-20)
(1.24536 -0.351348 -1.02744e-20)
(1.24061 -0.344362 5.35518e-21)
(1.23278 -0.335346 -1.66209e-20)
(1.22404 -0.325389 -2.62926e-21)
(1.21553 -0.315109 2.81877e-21)
(1.2078 -0.304833 -2.98498e-20)
(0.0890227 -0.00597135 -2.81528e-21)
(0.281826 -0.0321159 3.02483e-21)
(0.483777 -0.0799309 2.31137e-20)
(0.680367 -0.137373 -6.58277e-21)
(0.856416 -0.195412 -7.09922e-22)
(1.00054 -0.24695 -1.82286e-20)
(1.10786 -0.287346 -1.6341e-20)
(1.17985 -0.315008 2.37012e-20)
(1.22238 -0.330843 2.89151e-21)
(1.24311 -0.337166 -2.63464e-20)
(1.24944 -0.336686 -4.5369e-21)
(1.24733 -0.33183 1.08237e-20)
(1.24094 -0.324439 7.10538e-21)
(1.2329 -0.31574 -4.68831e-21)
(1.22466 -0.306472 4.26639e-21)
(1.21695 -0.297043 1.53286e-20)
(1.2101 -0.287677 2.24222e-22)
(1.20417 -0.278483 -7.23837e-21)
(1.19907 -0.269454 -1.80742e-21)
(1.19457 -0.260766 -1.54487e-20)
(1.19017 -0.253129 2.38728e-22)
(0.0776094 -0.00261444 8.67773e-22)
(0.2526 -0.0211689 1.80326e-20)
(0.442373 -0.061295 -5.87969e-21)
(0.633236 -0.112558 3.61155e-21)
(0.810099 -0.166986 -8.55872e-21)
(0.960377 -0.217729 -3.86665e-21)
(1.07701 -0.259654 -9.24094e-21)
(1.15919 -0.290278 6.70731e-21)
(1.21099 -0.309604 1.24622e-20)
(1.23912 -0.319276 -1.00236e-20)
(1.25072 -0.321647 -4.29702e-21)
(1.25201 -0.319047 5.15134e-21)
(1.24762 -0.313377 -1.6512e-21)
(1.24064 -0.305993 5.09673e-21)
(1.23288 -0.297756 2.88556e-21)
(1.22533 -0.289172 4.00847e-21)
(1.21846 -0.280522 -2.75903e-22)
(1.21243 -0.271958 7.90237e-21)
(1.18629 0.221089 -1.93269e-21)
(1.16362 0.203417 -6.41224e-23)
(1.15675 0.172023 6.23895e-22)
(1.14802 0.158611 -1.21847e-21)
(1.14151 0.138768 -7.62608e-22)
(1.13668 0.125529 2.95263e-22)
(1.13158 0.112412 -5.63129e-22)
(1.12644 0.100882 1.6692e-22)
(1.12239 0.0899897 -7.17084e-22)
(1.11968 0.0804951 -2.78538e-22)
(1.11569 0.0722168 -5.60876e-22)
(1.11153 0.063913 -6.91554e-22)
(1.10783 0.0559283 -4.19139e-22)
(1.10496 0.0488372 7.29654e-23)
(1.10259 0.0410954 -2.33466e-22)
(1.1011 0.0351161 6.95679e-23)
(1.09779 0.0282723 2.68075e-23)
(1.09653 0.0219871 -4.05291e-22)
(1.09481 0.0153948 -4.14624e-22)
(1.09551 0.008902 -7.26524e-23)
(1.0935 0.00404544 -1.79434e-22)
(1.17893 0.223728 1.80488e-21)
(1.15742 0.205895 4.8293e-23)
(1.15181 0.173391 -6.20744e-22)
(1.14374 0.159848 1.11232e-21)
(1.13778 0.139587 7.03624e-22)
(1.13345 0.126195 -2.92157e-22)
(1.12868 0.112997 5.33354e-22)
(1.1238 0.101359 -1.68876e-22)
(1.12001 0.0903386 6.75906e-22)
(1.11758 0.0808053 2.45699e-22)
(1.11373 0.0725707 5.29375e-22)
(1.10967 0.0642337 6.47751e-22)
(1.10605 0.0562004 3.9233e-22)
(1.10328 0.0490696 -7.37005e-23)
(1.101 0.0412435 2.20314e-22)
(1.09962 0.0353013 -7.01563e-23)
(1.09629 0.0284416 -2.07949e-23)
(1.09506 0.0221194 3.78138e-22)
(1.09335 0.0154328 3.90949e-22)
(1.09418 0.00893881 6.78523e-23)
(1.09207 0.00413979 1.68616e-22)
(1.17967 -0.223606 -1.82608e-21)
(1.15802 -0.205723 -4.89731e-23)
(1.15262 -0.173992 6.27696e-22)
(1.14343 -0.160123 -1.12307e-21)
(1.13837 -0.140569 -7.07286e-22)
(1.13266 -0.127426 2.91598e-22)
(1.12715 -0.114388 -5.26472e-22)
(1.12229 -0.101421 1.65766e-22)
(1.11938 -0.0918728 -6.58632e-22)
(1.11338 -0.0811988 -2.32742e-22)
(1.11164 -0.0714687 -5.07292e-22)
(1.10705 -0.0636812 -6.24739e-22)
(1.10546 -0.0540846 -3.82813e-22)
(1.10324 -0.0477133 7.17494e-23)
(1.10129 -0.0400244 -2.1926e-22)
(1.09893 -0.0339264 7.05026e-23)
(1.09661 -0.0271179 2.12393e-23)
(1.09584 -0.0205381 -3.86339e-22)
(1.09594 -0.0146336 -4.03965e-22)
(1.09493 -0.00914835 -6.95806e-23)
(1.09362 -0.00302943 -1.74306e-22)
)
;

boundaryField
{
    inlet
    {
        type            uniformFixedValue;
        uniformValue    constant (1 0 0);
        value           nonuniform 0();
    }
    outlet
    {
        type            pressureInletOutletVelocity;
        value           nonuniform 0();
    }
    cylinder
    {
        type            fixedValue;
        value           uniform (0 0 0);
    }
    top
    {
        type            symmetryPlane;
    }
    bottom
    {
        type            symmetryPlane;
    }
    defaultFaces
    {
        type            empty;
    }
    procBoundary17to16
    {
        type            processor;
        value           nonuniform List<vector> 
88
(
(1.20007 0.295109 -3.02625e-21)
(1.19433 0.28525 -2.78067e-21)
(1.18946 0.275614 1.87182e-20)
(1.18516 0.266428 8.81634e-21)
(1.18094 0.258304 8.92928e-21)
(0.763121 0.192878 -7.09701e-20)
(0.932776 0.256135 1.21233e-20)
(1.06174 0.307019 3.55179e-20)
(1.14995 0.342584 7.22909e-21)
(1.20315 0.363328 -6.10964e-20)
(1.22994 0.371911 2.06425e-21)
(1.23903 0.371738 -3.475e-20)
(1.23767 0.36596 5.31189e-20)
(1.23099 0.356994 -5.62906e-20)
(1.2222 0.346451 3.60935e-21)
(1.21307 0.335282 -1.65118e-20)
(1.2045 0.324001 2.33725e-20)
(1.20007 0.295109 -3.02625e-21)
(1.19687 0.312864 4.39814e-20)
(0.123789 0.021078 -3.93528e-20)
(0.365904 0.0763953 -8.06139e-20)
(0.763121 0.192878 -7.09701e-20)
(0.596033 0.149127 2.61007e-20)
(0.124208 -0.0211422 -5.25775e-20)
(0.366995 -0.0765822 -7.0874e-20)
(0.597613 -0.149411 -1.91549e-19)
(0.801428 -0.223531 3.21219e-20)
(0.934752 -0.256386 8.03117e-20)
(0.934752 -0.256386 8.03117e-20)
(1.06365 -0.307184 -9.44432e-20)
(1.1517 -0.342631 4.85997e-20)
(1.20471 -0.363253 3.46099e-20)
(1.23132 -0.371729 3.62133e-21)
(1.24028 -0.371474 -2.73475e-20)
(1.23883 -0.36564 -1.92303e-20)
(1.23208 -0.35664 -5.8338e-20)
(1.22325 -0.346078 2.9883e-20)
(1.21411 -0.334902 -1.87989e-20)
(1.20552 -0.323621 3.57989e-20)
(1.19787 -0.312491 -4.43794e-20)
(1.20105 -0.294734 3.57756e-21)
(1.20105 -0.294734 3.57756e-21)
(1.19529 -0.284891 -2.8625e-20)
(1.1904 -0.275276 2.66464e-20)
(1.18607 -0.266115 -4.01948e-21)
(1.18182 -0.25801 -1.01958e-20)
(1.17132 0.226226 -5.39354e-22)
(1.1511 0.208334 3.15126e-21)
(1.14673 0.174732 -2.04596e-21)
(1.13941 0.161064 1.35731e-21)
(1.13399 0.140406 1.73528e-21)
(1.13021 0.126851 -4.67998e-22)
(1.12578 0.11359 -1.56217e-21)
(1.12114 0.101845 5.90898e-22)
(1.11762 0.0906845 6.37849e-22)
(1.11549 0.0811112 -1.14701e-21)
(1.1118 0.0729346 -4.84834e-22)
(1.10781 0.0645701 7.80422e-22)
(1.10427 0.0564845 -1.95965e-22)
(1.10158 0.0493083 -1.29487e-21)
(1.09941 0.0413902 -1.34186e-22)
(1.09814 0.0354923 -7.50468e-22)
(1.09479 0.0286239 -1.79775e-22)
(1.09359 0.0222593 -4.3077e-22)
(1.09189 0.0154655 -4.35468e-22)
(1.09286 0.00897835 2.10403e-22)
(1.09062 0.0042457 -7.39042e-22)
(1.17211 -0.226133 8.80977e-22)
(1.15177 -0.208201 7.23159e-22)
(1.14762 -0.175404 -9.32806e-22)
(1.13917 -0.161375 -1.40015e-21)
(1.13471 -0.14148 -1.58301e-21)
(1.12944 -0.128242 4.50641e-22)
(1.12419 -0.115088 -7.07966e-22)
(1.11963 -0.101909 -3.80331e-22)
(1.11699 -0.0923856 -6.385e-22)
(1.11105 -0.08158 -8.59733e-22)
(1.10957 -0.0717425 -1.44111e-21)
(1.10503 -0.0639356 -5.92289e-22)
(1.10363 -0.0541699 -1.634e-21)
(1.10158 -0.0478254 -5.33679e-22)
(1.09974 -0.0401229 -4.18256e-22)
(1.09743 -0.0340545 -1.29227e-21)
(1.09511 -0.0271976 4.26774e-22)
(1.09442 -0.0205323 -1.31895e-21)
(1.09463 -0.0146455 -1.15246e-21)
(1.09363 -0.00921536 -2.34559e-22)
(1.09226 -0.00306312 -1.00058e-21)
)
;
    }
    procBoundary17to18
    {
        type            processor;
        value           nonuniform List<vector> 
85
(
(0.066317 6.04362e-05 -3.7884e-20)
(0.222806 0.0121631 -5.30759e-20)
(0.398863 0.0450718 -5.25141e-20)
(0.581938 0.0900091 -3.56642e-20)
(0.757573 0.140226 -1.58376e-20)
(0.912533 0.189403 4.03056e-20)
(1.03792 0.232191 -1.22342e-20)
(1.13059 0.265367 2.13048e-20)
(1.1926 0.288048 -5.83413e-20)
(1.22934 0.30114 3.82078e-20)
(1.24742 0.306534 1.1356e-20)
(1.25313 0.306376 2.01428e-20)
(1.2515 0.302579 -1.69781e-20)
(1.24608 0.296603 2.02525e-20)
(1.23914 0.289442 1.09818e-20)
(1.23197 0.281708 5.47111e-21)
(1.22522 0.273756 -5.05706e-21)
(1.21919 0.265788 -3.35291e-20)
(1.21389 0.257854 3.2499e-20)
(1.20921 0.250025 -9.8145e-21)
(1.20476 0.24319 -1.03092e-20)
(1.20719 -0.263494 2.83529e-21)
(1.20255 -0.255256 1.70401e-20)
(1.19808 -0.24805 -2.04121e-23)
(0.066614 -5.50704e-05 -2.62173e-20)
(0.223674 -0.0121763 -7.79923e-21)
(0.400257 -0.0451383 -3.45845e-20)
(0.583753 -0.090126 -2.94166e-20)
(0.75965 -0.140362 -4.68334e-21)
(0.914698 -0.189515 9.24608e-21)
(1.04001 -0.232235 -4.84743e-21)
(1.13252 -0.265316 -1.75725e-20)
(1.19433 -0.287893 -1.24509e-20)
(1.23086 -0.300889 -1.94654e-20)
(1.24877 -0.306206 1.12578e-20)
(1.25435 -0.305992 1.29337e-20)
(1.25262 -0.302159 1.81627e-20)
(1.24714 -0.296164 3.3939e-21)
(1.24015 -0.288996 -3.198e-21)
(1.23294 -0.281262 3.41649e-20)
(1.22617 -0.273318 5.72864e-21)
(1.20719 -0.263494 2.83529e-21)
(1.2201 -0.265362 -4.46219e-21)
(1.19342 0.21832 6.4846e-22)
(1.16971 0.200906 -3.85527e-21)
(1.16158 0.170633 2.55601e-21)
(1.15225 0.157358 -1.54241e-21)
(1.1452 0.137949 -1.99266e-21)
(1.1399 0.124858 5.58811e-22)
(1.13446 0.111835 1.84912e-21)
(1.12908 0.100413 -6.66827e-22)
(1.12476 0.0896396 -7.0245e-22)
(1.12179 0.0801836 1.35094e-21)
(1.11765 0.0718732 5.90157e-22)
(1.1134 0.0636069 -8.48214e-22)
(1.1096 0.0556673 2.67476e-22)
(1.10665 0.0486112 -6.22363e-22)
(1.10417 0.0409476 -4.68528e-22)
(1.10258 0.0349369 -1.44784e-21)
(1.09928 0.0281145 4.60447e-22)
(1.09798 0.0218615 -1.43727e-21)
(1.09624 0.0153532 -1.23878e-21)
(1.09684 0.00886777 -2.47289e-22)
(1.09491 0.00396042 -1.08659e-21)
(1.187 -0.220932 1.95323e-21)
(1.16415 -0.2032 6.43983e-23)
(1.15749 -0.17255 -6.30843e-22)
(1.14766 -0.158844 1.22737e-21)
(1.14199 -0.13966 7.64887e-22)
(1.13588 -0.126615 -2.94684e-22)
(1.13008 -0.113706 5.56391e-22)
(1.12495 -0.10094 -1.63875e-22)
(1.12177 -0.0913757 7.00556e-22)
(1.1157 -0.0808339 2.6802e-22)
(1.11371 -0.0712026 5.41324e-22)
(1.10906 -0.063435 6.71379e-22)
(1.10727 -0.0539939 4.10501e-22)
(1.10491 -0.0475959 -7.11568e-23)
(1.10285 -0.0399291 2.32241e-22)
(1.10044 -0.0338071 -6.99004e-23)
(1.0981 -0.0270428 -2.72579e-23)
(1.09726 -0.0205367 4.12237e-22)
(1.09725 -0.0146184 4.25843e-22)
(1.09624 -0.00908947 7.42115e-23)
(1.09497 -0.00300218 1.84548e-22)
)
;
    }
}


// ************************************************************************* //
