/*--------------------------------*- C++ -*----------------------------------*\
  =========                 |
  \\      /  F ield         | OpenFOAM: The Open Source CFD Toolbox
   \\    /   O peration     | Website:  https://openfoam.org
    \\  /    A nd           | Version:  7
     \\/     M anipulation  |
\*---------------------------------------------------------------------------*/
FoamFile
{
    version     2.0;
    format      ascii;
    class       volVectorField;
    location    "25";
    object      U;
}
// * * * * * * * * * * * * * * * * * * * * * * * * * * * * * * * * * * * * * //

dimensions      [0 1 -1 0 0 0 0];

internalField   nonuniform List<vector> 
928
(
(0.630858 -0.000443651 -5.97712e-25)
(0.632238 -0.000440264 -1.20701e-24)
(0.633609 -0.000436914 -2.95041e-24)
(0.634969 -0.000433598 -3.38346e-27)
(0.63632 -0.000430318 -5.89477e-25)
(0.631174 -0.00132875 -6.98607e-24)
(0.632552 -0.00131856 8.65893e-25)
(0.63392 -0.00130848 -8.05887e-25)
(0.635278 -0.0012985 2.60748e-24)
(0.636626 -0.00128863 -3.48968e-24)
(0.631803 -0.0022118 -1.35218e-24)
(0.633177 -0.00219483 -8.05853e-24)
(0.634541 -0.00217804 4.64383e-24)
(0.635895 -0.00216143 -6.63573e-25)
(0.637239 -0.002145 6.9448e-24)
(0.632747 -0.00309145 -4.05335e-24)
(0.634114 -0.00306774 2.01165e-23)
(0.635471 -0.00304428 1.53198e-23)
(0.636818 -0.00302108 -1.54677e-23)
(0.638156 -0.00299811 -1.95471e-24)
(0.634001 -0.00396636 9.25342e-24)
(0.635359 -0.00393596 4.37361e-23)
(0.636708 -0.00390589 -1.69871e-23)
(0.638047 -0.00387614 -1.53555e-23)
(0.639376 -0.0038467 2.07042e-23)
(0.635563 -0.00483518 -1.78864e-23)
(0.636911 -0.00479817 9.63332e-24)
(0.638249 -0.00476155 8.61789e-24)
(0.639577 -0.00472533 -3.4172e-24)
(0.640896 -0.00468949 -7.52109e-24)
(0.637431 -0.00569662 6.98629e-23)
(0.638765 -0.00565307 -6.56192e-23)
(0.64009 -0.00561 5.29133e-23)
(0.641406 -0.00556739 -1.46277e-23)
(0.642712 -0.00552522 -4.0363e-23)
(0.639599 -0.00654938 3.22076e-23)
(0.640918 -0.0064994 -4.07041e-23)
(0.642229 -0.00644996 6.51537e-23)
(0.64353 -0.00640107 -6.61994e-24)
(0.644822 -0.00635268 -1.0973e-24)
(0.646104 -0.00630478 -1.1209e-23)
(0.642062 -0.00739219 -5.57631e-23)
(0.643365 -0.00733589 3.44064e-23)
(0.644659 -0.00728021 -2.19851e-23)
(0.645943 -0.00722513 4.1148e-23)
(0.647219 -0.00717063 -3.80642e-24)
(0.648485 -0.00711669 -1.41189e-23)
(0.644816 -0.00822384 -5.63656e-23)
(0.646101 -0.00816135 3.701e-23)
(0.647376 -0.00809954 -2.48511e-23)
(0.648642 -0.00803841 1.81283e-23)
(0.649899 -0.00797791 4.57871e-23)
(0.651148 -0.00791804 -4.81214e-23)
(0.647855 -0.00904313 -7.97762e-23)
(0.649118 -0.00897458 1.6173e-23)
(0.650373 -0.00890679 5.89128e-23)
(0.651619 -0.00883972 -3.78466e-23)
(0.652857 -0.00877337 -6.81119e-24)
(0.654085 -0.00870771 2.00863e-23)
(0.651171 -0.00984889 7.87654e-23)
(0.652412 -0.00977444 -4.21208e-23)
(0.653645 -0.00970081 6.8698e-23)
(0.654869 -0.00962797 6.90395e-24)
(0.656085 -0.00955591 -3.40863e-23)
(0.657293 -0.00948461 6.52987e-24)
(0.654757 -0.01064 -8.03772e-23)
(0.655975 -0.0105598 1.18089e-23)
(0.657184 -0.0104805 -4.10549e-24)
(0.658385 -0.0104021 -2.82721e-23)
(0.659578 -0.0103245 5.17137e-23)
(0.660762 -0.0102477 -6.51058e-23)
(0.659799 -0.0113297 3.47835e-23)
(0.660983 -0.0112449 -8.19848e-23)
(0.662159 -0.011161 5.29507e-23)
(0.663327 -0.011078 -4.60786e-23)
(0.664487 -0.0109959 4.53721e-24)
(0.663875 -0.012083 1.42368e-22)
(0.665033 -0.0119929 -2.00682e-22)
(0.666183 -0.0119037 1.37257e-22)
(0.667325 -0.0118155 -1.23029e-23)
(0.66846 -0.0117283 4.3446e-23)
(0.668197 -0.0128189 8.18707e-24)
(0.669327 -0.0127236 -6.46736e-23)
(0.670449 -0.0126294 1.0977e-22)
(0.671564 -0.0125362 -9.95648e-23)
(0.672671 -0.012444 1.24066e-22)
(0.672753 -0.0135364 1.07342e-22)
(0.673854 -0.0134361 -9.14682e-23)
(0.674948 -0.013337 4.70015e-23)
(0.676035 -0.013239 1.03914e-22)
(0.677114 -0.013142 -4.1886e-23)
(0.677536 -0.0142346 -1.28625e-23)
(0.678607 -0.0141296 -8.61876e-23)
(0.679671 -0.0140258 1.74505e-22)
(0.680728 -0.0139232 -2.04575e-23)
(0.681779 -0.0138216 -2.02701e-24)
(0.682535 -0.0149127 -6.63203e-23)
(0.683575 -0.0148033 -5.37331e-23)
(0.684609 -0.014695 -3.23878e-23)
(0.685636 -0.014588 -3.0817e-23)
(0.686656 -0.0144821 -4.63869e-24)
(0.68774 -0.0155702 -5.78195e-23)
(0.688748 -0.0154564 -5.75964e-24)
(0.689751 -0.0153439 8.62453e-23)
(0.690746 -0.0152327 -1.02621e-22)
(0.691736 -0.0151226 1.27738e-22)
(0.693141 -0.0162061 1.94348e-22)
(0.694117 -0.0160883 -2.77685e-22)
(0.695087 -0.0159718 9.56967e-23)
(0.696051 -0.0158566 8.16086e-23)
(0.697009 -0.0157426 2.71566e-23)
(0.698727 -0.0168201 4.24443e-23)
(0.69967 -0.0166984 -1.09111e-22)
(0.700607 -0.0165781 4.16106e-23)
(0.701539 -0.0164592 -4.62004e-23)
(0.702465 -0.0163415 6.55937e-23)
(0.704487 -0.0174114 -5.9912e-23)
(0.705396 -0.0172862 1.82347e-22)
(0.706301 -0.0171623 4.20791e-23)
(0.7072 -0.0170398 -2.25678e-22)
(0.708094 -0.0169187 4.52863e-23)
(0.71041 -0.0179797 -4.98152e-23)
(0.711286 -0.0178511 -9.6987e-23)
(0.712157 -0.0177239 2.1093e-23)
(0.713023 -0.0175981 4.51804e-23)
(0.713884 -0.0174738 -3.16011e-23)
(0.716485 -0.0185245 -3.16129e-23)
(0.717327 -0.0183928 -1.86833e-23)
(0.718164 -0.0182625 -3.34213e-23)
(0.718997 -0.0181337 1.65953e-23)
(0.719826 -0.0180063 -1.77761e-23)
(0.7227 -0.0190455 -1.0054e-22)
(0.723509 -0.0189109 8.07272e-23)
(0.724313 -0.0187778 1.245e-22)
(0.725112 -0.0186461 -6.92583e-23)
(0.725908 -0.018516 -1.50211e-22)
(0.729045 -0.0195424 1.23825e-22)
(0.72982 -0.0194051 -4.35275e-23)
(0.73059 -0.0192694 4.79805e-23)
(0.731357 -0.0191352 -1.3061e-22)
(0.73212 -0.0190024 8.31358e-23)
(0.735509 -0.0200151 4.43739e-23)
(0.736249 -0.0198753 8.03228e-23)
(0.736987 -0.0197372 -2.83289e-22)
(0.73772 -0.0196006 9.98375e-23)
(0.73845 -0.0194656 7.65222e-23)
(0.742078 -0.0204639 -2.31796e-22)
(0.742786 -0.0203219 -9.76459e-24)
(0.74349 -0.0201816 9.0166e-23)
(0.744191 -0.0200429 -1.83355e-22)
(0.744889 -0.0199057 6.4649e-23)
(0.748743 -0.0208883 2.27613e-23)
(0.749418 -0.0207443 1.55939e-22)
(0.75009 -0.020602 -2.7957e-22)
(0.750758 -0.0204614 2.0087e-22)
(0.751424 -0.0203223 -8.28565e-24)
(0.760163 -0.021557 0)
(0.760779 -0.0214101 0)
(0.761393 -0.021265 0)
(0.762005 -0.0211215 0)
(0.762614 -0.0209796 0)
(0.776862 -0.0223675 0)
(0.777392 -0.0222176 0)
(0.77792 -0.0220695 0)
(0.778446 -0.0219231 0)
(0.778971 -0.0217784 0)
(0.794029 -0.0230583 0)
(0.794473 -0.0229063 0)
(0.794915 -0.0227561 0)
(0.795356 -0.0226076 0)
(0.795796 -0.0224609 0)
(0.811549 -0.0236262 0)
(0.811907 -0.023473 0)
(0.812264 -0.0233217 0)
(0.81262 -0.0231721 0)
(0.812976 -0.0230242 0)
(0.829307 -0.0240725 0)
(0.82958 -0.023919 0)
(0.829854 -0.0237674 0)
(0.830127 -0.0236175 0)
(0.8304 -0.0234695 0)
(0.847192 -0.0244 0)
(0.847383 -0.0242471 0)
(0.847575 -0.024096 0)
(0.847767 -0.0239468 0)
(0.84796 -0.0237994 0)
(0.865096 -0.0246123 0)
(0.865208 -0.0244608 0)
(0.86532 -0.0243112 0)
(0.865434 -0.0241634 0)
(0.865549 -0.0240174 0)
(0.882916 -0.0247139 0)
(0.882951 -0.0245646 0)
(0.882988 -0.0244171 0)
(0.883027 -0.0242715 0)
(0.883068 -0.0241277 0)
(0.900553 -0.0247103 0)
(0.900516 -0.0245638 0)
(0.900482 -0.0244191 0)
(0.90045 -0.0242763 0)
(0.90042 -0.0241353 0)
(0.917916 -0.0246073 0)
(0.917812 -0.0244642 0)
(0.917711 -0.024323 0)
(0.917612 -0.0241836 0)
(0.917516 -0.024046 0)
(0.934922 -0.0244117 0)
(0.934755 -0.0242725 0)
(0.934591 -0.0241352 0)
(0.93443 -0.0239998 0)
(0.934272 -0.0238661 0)
(0.951492 -0.0241304 0)
(0.951267 -0.0239957 0)
(0.951046 -0.0238628 0)
(0.950828 -0.0237317 0)
(0.950614 -0.0236025 0)
(0.967558 -0.0237711 0)
(0.967281 -0.0236411 0)
(0.967008 -0.023513 0)
(0.966738 -0.0233866 0)
(0.966472 -0.0232621 0)
(0.98306 -0.0233413 0)
(0.982736 -0.0232164 0)
(0.982417 -0.0230933 0)
(0.9821 -0.022972 0)
(0.981788 -0.0228525 0)
(0.997945 -0.022849 0)
(0.997581 -0.0227294 0)
(0.99722 -0.0226116 0)
(0.996862 -0.0224955 0)
(0.996509 -0.0223813 0)
(1.01217 -0.022302 0)
(1.01177 -0.0221878 0)
(1.01137 -0.0220754 0)
(1.01098 -0.0219648 0)
(1.01059 -0.0218559 0)
(1.0257 -0.0217082 0)
(1.02527 -0.0215995 0)
(1.02484 -0.0214925 0)
(1.02442 -0.0213874 0)
(1.024 -0.0212839 0)
(1.03851 -0.0210751 0)
(1.03806 -0.0209719 0)
(1.0376 -0.0208704 0)
(1.03716 -0.0207707 0)
(1.03671 -0.0206727 0)
(1.05058 -0.0204101 0)
(1.05011 -0.0203124 0)
(1.04963 -0.0202164 0)
(1.04917 -0.0201221 0)
(1.0487 -0.0200294 0)
(1.0619 -0.0197203 0)
(1.06141 -0.0196279 0)
(1.06092 -0.0195373 0)
(1.06044 -0.0194483 0)
(1.05996 -0.0193609 0)
(1.07247 -0.0190123 0)
(1.07197 -0.0189251 0)
(1.07147 -0.0188396 0)
(1.07097 -0.0187558 0)
(1.07048 -0.0186736 0)
(1.08228 -0.0182922 0)
(1.08178 -0.0182101 0)
(1.08127 -0.0181296 0)
(1.08077 -0.0180507 0)
(1.08027 -0.0179735 0)
(1.09136 -0.0175657 0)
(1.09085 -0.0174884 0)
(1.09034 -0.0174127 0)
(1.08984 -0.0173386 0)
(1.08933 -0.0172661 0)
(1.09971 -0.0168379 0)
(1.0992 -0.0167652 0)
(1.09869 -0.0166941 0)
(1.09819 -0.0166245 0)
(1.09768 -0.0165566 0)
(1.10735 -0.0161135 0)
(1.10685 -0.0160451 0)
(1.10634 -0.0159782 0)
(1.10584 -0.015913 0)
(1.10534 -0.0158493 0)
(1.11431 -0.0153964 0)
(1.11381 -0.015332 0)
(1.11332 -0.0152692 0)
(1.11282 -0.015208 0)
(1.11233 -0.0151483 0)
(1.12062 -0.01469 0)
(1.12013 -0.0146295 0)
(1.11964 -0.0145705 0)
(1.11915 -0.014513 0)
(1.11867 -0.0144571 0)
(1.12631 -0.0139974 0)
(1.12583 -0.0139404 0)
(1.12535 -0.0138849 0)
(1.12487 -0.0138309 0)
(1.12439 -0.0137785 0)
(1.1314 -0.0133208 0)
(1.13093 -0.0132671 0)
(1.13046 -0.0132149 0)
(1.13 -0.0131641 0)
(1.12954 -0.0131149 0)
(1.13594 -0.0126622 0)
(1.13548 -0.0126115 0)
(1.13503 -0.0125623 0)
(1.13458 -0.0125146 0)
(1.13413 -0.0124683 0)
(1.13996 -0.012023 0)
(1.13952 -0.0119752 0)
(1.13907 -0.0119287 0)
(1.13864 -0.0118837 0)
(1.1382 -0.0118402 0)
(1.14349 -0.0114042 0)
(1.14306 -0.0113589 0)
(1.14264 -0.0113151 0)
(1.14221 -0.0112726 0)
(1.14179 -0.0112316 0)
(1.14658 -0.0108064 0)
(1.14617 -0.0107635 0)
(1.14575 -0.010722 0)
(1.14534 -0.0106818 0)
(1.14494 -0.0106431 0)
(1.14925 -0.0102297 0)
(1.14886 -0.0101891 0)
(1.14846 -0.0101497 0)
(1.14806 -0.0101118 0)
(1.14767 -0.0100752 0)
(1.15155 -0.00967429 0)
(1.15117 -0.00963567 0)
(1.15079 -0.00959837 0)
(1.15041 -0.00956238 0)
(1.15003 -0.00952774 0)
(1.15351 -0.00913969 0)
(1.15314 -0.00910298 0)
(1.15278 -0.00906755 0)
(1.15241 -0.0090334 0)
(1.15204 -0.00900057 0)
(1.15516 -0.00862538 0)
(1.15481 -0.00859046 0)
(1.15445 -0.00855678 0)
(1.1541 -0.00852436 0)
(1.15375 -0.0084932 0)
(1.15654 -0.00813065 0)
(1.15619 -0.00809741 0)
(1.15585 -0.00806538 0)
(1.15551 -0.00803456 0)
(1.15518 -0.00800498 0)
(1.15766 -0.00765461 0)
(1.15733 -0.00762297 0)
(1.15701 -0.0075925 0)
(1.15668 -0.00756321 0)
(1.15635 -0.00753511 0)
(1.15857 -0.00719628 0)
(1.15826 -0.00716618 0)
(1.15794 -0.0071372 0)
(1.15762 -0.00710936 0)
(1.15731 -0.00708267 0)
(1.15929 -0.0067546 0)
(1.15899 -0.00672598 0)
(1.15868 -0.00669844 0)
(1.15838 -0.00667199 0)
(1.15807 -0.00664664 0)
(1.15984 -0.00632845 0)
(1.15955 -0.00630127 0)
(1.15925 -0.00627513 0)
(1.15896 -0.00625003 0)
(1.15867 -0.00622599 0)
(1.15838 -0.00620302 0)
(1.16025 -0.0059167 0)
(1.15997 -0.00589094 0)
(1.15968 -0.00586616 0)
(1.1594 -0.00584238 0)
(1.15912 -0.00581961 0)
(1.15883 -0.00579786 0)
(1.16054 -0.00551819 0)
(1.16026 -0.00549383 0)
(1.15999 -0.0054704 0)
(1.15971 -0.00544792 0)
(1.15944 -0.0054264 0)
(1.15917 -0.00540585 1.05725e-28)
(1.16072 -0.0051318 0)
(1.16045 -0.00510883 0)
(1.16019 -0.00508674 0)
(1.15992 -0.00506555 0)
(1.15966 -0.00504527 0)
(1.15939 -0.0050259 7.7757e-29)
(1.16082 -0.00475642 0)
(1.16056 -0.00473483 0)
(1.1603 -0.00471408 0)
(1.16004 -0.00469418 0)
(1.15978 -0.00467513 0)
(1.15953 -0.00465694 0)
(1.16085 -0.00439097 0)
(1.1606 -0.00437078 0)
(1.16035 -0.00435137 0)
(1.16009 -0.00433276 0)
(1.15984 -0.00431494 0)
(1.15959 -0.00429793 0)
(1.16083 -0.00403444 0)
(1.16058 -0.00401565 0)
(1.16033 -0.0039976 0)
(1.16009 -0.00398028 0)
(1.15984 -0.0039637 0)
(1.1596 -0.00394787 0)
(1.16076 -0.00368585 0)
(1.16052 -0.00366849 0)
(1.16028 -0.0036518 0)
(1.16004 -0.00363578 0)
(1.1598 -0.00362045 0)
(1.15956 -0.00360582 0)
(1.16067 -0.00334431 0)
(1.16043 -0.00332838 0)
(1.16019 -0.00331306 0)
(1.15995 -0.00329837 0)
(1.15972 -0.0032843 0)
(1.15948 -0.00327088 0)
(1.16055 -0.00300895 0)
(1.16031 -0.00299447 0)
(1.16008 -0.00298054 0)
(1.15985 -0.00296718 0)
(1.15962 -0.0029544 0)
(1.15939 -0.00294219 -8.01447e-29)
(1.16042 -0.00267898 0)
(1.16019 -0.00266596 0)
(1.15996 -0.00265345 0)
(1.15973 -0.00264144 0)
(1.1595 -0.00262995 0)
(1.15928 -0.00261897 0)
(1.16029 -0.00235366 0)
(1.16006 -0.00234213 0)
(1.15983 -0.00233104 0)
(1.15961 -0.0023204 0)
(1.15938 -0.00231022 0)
(1.15916 -0.00230049 -1.1043e-28)
(1.16016 -0.0020323 0)
(1.15993 -0.00202228 0)
(1.15971 -0.00201263 0)
(1.15949 -0.00200338 0)
(1.15927 -0.00199451 0)
(1.15904 -0.00198605 0)
(1.16004 -0.00171428 0)
(1.15982 -0.00170577 0)
(1.15959 -0.00169758 0)
(1.15937 -0.00168972 0)
(1.15915 -0.0016822 0)
(1.15893 -0.00167501 0)
(1.15993 -0.001399 0)
(1.15971 -0.00139202 0)
(1.15949 -0.0013853 0)
(1.15927 -0.00137885 0)
(1.15905 -0.00137268 0)
(1.15884 -0.00136678 0)
(1.15984 -0.00108591 0)
(1.15962 -0.00108047 0)
(1.1594 -0.00107523 0)
(1.15918 -0.0010702 0)
(1.15897 -0.00106539 0)
(1.15875 -0.00106079 0)
(1.15955 -0.000770588 0)
(1.15933 -0.000766844 0)
(1.15912 -0.000763246 0)
(1.1589 -0.000759797 0)
(1.15869 -0.000756504 0)
(1.1595 -0.000461888 0)
(1.15929 -0.00045964 0)
(1.15907 -0.000457479 0)
(1.15886 -0.000455407 0)
(1.15864 -0.000453429 1.11592e-28)
(1.15948 -0.000153886 0)
(1.15926 -0.000153137 0)
(1.15905 -0.000152416 0)
(1.15883 -0.000151725 0)
(1.15862 -0.000151065 8.30947e-29)
(0.760162 0.0215556 0)
(0.776861 0.0223661 0)
(0.794028 0.023057 0)
(0.811548 0.0236249 0)
(0.829306 0.0240712 0)
(0.847191 0.0243987 0)
(0.865095 0.0246111 0)
(0.882915 0.0247128 0)
(0.900552 0.0247091 0)
(0.917915 0.0246062 0)
(0.934921 0.0244105 0)
(0.951491 0.0241293 0)
(0.967557 0.02377 0)
(0.983059 0.0233403 0)
(0.997945 0.022848 0)
(1.01217 0.022301 0)
(1.0257 0.0217072 0)
(1.03851 0.0210742 0)
(1.05058 0.0204092 0)
(1.0619 0.0197194 0)
(1.07247 0.0190114 0)
(1.08228 0.0182914 0)
(1.09136 0.0175649 0)
(1.09971 0.0168372 0)
(1.10735 0.0161128 0)
(1.11431 0.0153956 0)
(1.12062 0.0146893 0)
(1.12631 0.0139967 0)
(1.1314 0.0133202 0)
(1.13594 0.0126616 0)
(1.13996 0.0120224 0)
(1.14349 0.0114036 0)
(1.14658 0.0108058 0)
(1.14926 0.0102292 0)
(1.15155 0.00967381 0)
(1.15351 0.00913923 0)
(1.15516 0.00862495 0)
(1.15654 0.00813024 0)
(1.15766 0.00765422 0)
(1.15857 0.00719591 0)
(1.15929 0.00675425 0)
(1.15984 0.00632813 0)
(1.16025 0.0059164 0)
(1.16054 0.00551791 0)
(1.16072 0.00513154 0)
(1.16082 0.00475617 0)
(1.16085 0.00439074 0)
(1.16083 0.00403423 0)
(1.16076 0.00368566 0)
(1.16067 0.00334413 0)
(1.16055 0.00300879 0)
(1.16042 0.00267883 0)
(1.16029 0.00235353 0)
(1.16016 0.00203219 0)
(1.16004 0.00171419 0)
(1.15993 0.00139892 0)
(1.15984 0.00108585 0)
(1.15977 0.000774434 0)
(1.15972 0.000464199 0)
(1.1597 0.000154657 0)
(0.760778 0.0214087 0)
(0.777391 0.0222163 0)
(0.794472 0.022905 0)
(0.811906 0.0234717 0)
(0.829579 0.0239177 0)
(0.847382 0.0242458 0)
(0.865207 0.0244596 0)
(0.88295 0.0245634 0)
(0.900515 0.0245626 0)
(0.917811 0.0244631 0)
(0.934754 0.0242714 0)
(0.951267 0.0239946 0)
(0.967281 0.02364 0)
(0.982736 0.0232154 0)
(0.99758 0.0227284 0)
(1.01177 0.0221868 0)
(1.02527 0.0215985 0)
(1.03806 0.020971 0)
(1.05011 0.0203115 0)
(1.06141 0.0196271 0)
(1.07197 0.0189243 0)
(1.08178 0.0182092 0)
(1.09085 0.0174876 0)
(1.0992 0.0167644 0)
(1.10685 0.0160443 0)
(1.11381 0.0153313 0)
(1.12013 0.0146288 0)
(1.12583 0.0139397 0)
(1.13093 0.0132665 0)
(1.13548 0.0126109 0)
(1.13952 0.0119746 0)
(1.14306 0.0113584 0)
(1.14617 0.0107629 0)
(1.14886 0.0101886 0)
(1.15117 0.00963519 0)
(1.15314 0.00910252 0)
(1.15481 0.00859003 0)
(1.15619 0.008097 0)
(1.15733 0.00762259 0)
(1.15826 0.00716581 0)
(1.15899 0.00672564 0)
(1.15955 0.00630095 0)
(1.15997 0.00589064 0)
(1.16026 0.00549355 0)
(1.16046 0.00510857 0)
(1.16056 0.00473459 0)
(1.1606 0.00437055 0)
(1.16058 0.00401545 0)
(1.16052 0.0036683 0)
(1.16043 0.0033282 0)
(1.16031 0.00299431 0)
(1.16019 0.00266582 0)
(1.16006 0.002342 0)
(1.15993 0.00202216 0)
(1.15982 0.00170567 0)
(1.15971 0.00139194 0)
(1.15962 0.0010804 0)
(1.15955 0.000770539 0)
(1.1595 0.000461859 0)
(1.15948 0.000153877 0)
(0.761392 0.0212635 0)
(0.777919 0.0220681 0)
(0.794914 0.0227547 0)
(0.812262 0.0233203 0)
(0.829852 0.0237661 0)
(0.847574 0.0240948 0)
(0.865319 0.0243099 0)
(0.882987 0.0244159 0)
(0.900481 0.0244179 0)
(0.91771 0.0243218 0)
(0.93459 0.0241341 0)
(0.951046 0.0238617 0)
(0.967008 0.0235119 0)
(0.982416 0.0230923 0)
(0.997219 0.0226105 0)
(1.01137 0.0220744 0)
(1.02484 0.0214916 0)
(1.0376 0.0208695 0)
(1.04963 0.0202155 0)
(1.06092 0.0195364 0)
(1.07147 0.0188388 0)
(1.08127 0.0181287 0)
(1.09034 0.0174119 0)
(1.09869 0.0166933 0)
(1.10634 0.0159775 0)
(1.11332 0.0152685 0)
(1.11964 0.0145698 0)
(1.12535 0.0138842 0)
(1.13046 0.0132142 0)
(1.13503 0.0125617 0)
(1.13907 0.0119281 0)
(1.14264 0.0113145 0)
(1.14575 0.0107214 0)
(1.14846 0.0101492 0)
(1.15079 0.00959789 0)
(1.15278 0.00906709 0)
(1.15445 0.00855635 0)
(1.15585 0.00806497 0)
(1.15701 0.00759212 0)
(1.15794 0.00713684 0)
(1.15868 0.0066981 0)
(1.15925 0.00627481 0)
(1.15968 0.00586586 0)
(1.15999 0.00547012 0)
(1.16019 0.00508648 0)
(1.1603 0.00471384 0)
(1.16035 0.00435115 0)
(1.16033 0.00399739 0)
(1.16028 0.0036516 0)
(1.16019 0.00331289 0)
(1.16008 0.00298039 0)
(1.15996 0.00265331 0)
(1.15983 0.00233091 0)
(1.15971 0.00201252 0)
(1.15959 0.00169749 0)
(1.15949 0.00138522 0)
(1.1594 0.00107516 0)
(1.15933 0.000766791 0)
(1.15929 0.000459608 0)
(1.15926 0.000153126 0)
(0.762004 0.02112 0)
(0.778445 0.0219217 0)
(0.795355 0.0226063 0)
(0.812619 0.0231707 0)
(0.830126 0.0236162 0)
(0.847766 0.0239455 0)
(0.865433 0.0241621 0)
(0.883026 0.0242702 0)
(0.900449 0.0242751 0)
(0.917611 0.0241824 0)
(0.934429 0.0239986 0)
(0.950828 0.0237306 0)
(0.966738 0.0233856 0)
(0.9821 0.022971 0)
(0.996862 0.0224945 0)
(1.01098 0.0219638 0)
(1.02442 0.0213864 0)
(1.03715 0.0207698 0)
(1.04916 0.0201211 0)
(1.06044 0.0194474 0)
(1.07097 0.0187549 0)
(1.08077 0.0180499 0)
(1.08984 0.0173378 0)
(1.09819 0.0166238 0)
(1.10584 0.0159123 0)
(1.11282 0.0152073 0)
(1.11915 0.0145123 0)
(1.12487 0.0138303 0)
(1.13 0.0131635 0)
(1.13458 0.012514 0)
(1.13864 0.0118832 0)
(1.14221 0.0112721 0)
(1.14534 0.0106813 0)
(1.14806 0.0101113 0)
(1.15041 0.0095619 0)
(1.15241 0.00903295 0)
(1.1541 0.00852392 0)
(1.15551 0.00803415 0)
(1.15668 0.00756282 0)
(1.15762 0.00710899 0)
(1.15838 0.00667165 0)
(1.15896 0.00624971 0)
(1.1594 0.00584208 0)
(1.15971 0.00544765 0)
(1.15992 0.00506529 0)
(1.16004 0.00469394 0)
(1.16009 0.00433253 0)
(1.16009 0.00398007 0)
(1.16004 0.00363559 0)
(1.15995 0.00329819 0)
(1.15985 0.00296703 0)
(1.15973 0.0026413 0)
(1.15961 0.00232028 0)
(1.15949 0.00200327 0)
(1.15937 0.00168963 0)
(1.15927 0.00137877 0)
(1.15918 0.00107014 0)
(1.15912 0.000763195 0)
(1.15907 0.000457447 0)
(1.15905 0.000152405 0)
(0.762613 0.0209781 0)
(0.77897 0.021777 0)
(0.795795 0.0224595 0)
(0.812975 0.0230228 0)
(0.830399 0.0234681 0)
(0.847959 0.0237981 0)
(0.865548 0.0240161 0)
(0.883067 0.0241264 0)
(0.900419 0.0241341 0)
(0.917515 0.0240448 0)
(0.934271 0.023865 0)
(0.950613 0.0236013 0)
(0.966472 0.023261 0)
(0.981787 0.0228515 0)
(0.996508 0.0223802 0)
(1.01059 0.0218549 0)
(1.024 0.0212829 0)
(1.03671 0.0206718 0)
(1.0487 0.0200285 0)
(1.05996 0.01936 0)
(1.07048 0.0186728 0)
(1.08027 0.0179727 0)
(1.08933 0.0172654 0)
(1.09768 0.0165558 0)
(1.10534 0.0158486 0)
(1.11233 0.0151476 0)
(1.11867 0.0144564 0)
(1.12439 0.0137778 0)
(1.12954 0.0131143 0)
(1.13413 0.0124677 0)
(1.1382 0.0118396 0)
(1.14179 0.011231 0)
(1.14494 0.0106426 0)
(1.14767 0.0100747 0)
(1.15003 0.00952726 0)
(1.15204 0.00900011 0)
(1.15375 0.00849277 0)
(1.15518 0.00800457 0)
(1.15635 0.00753472 0)
(1.15731 0.0070823 0)
(1.15807 0.0066463 0)
(1.15867 0.00622567 0)
(1.15912 0.00581932 0)
(1.15944 0.00542613 0)
(1.15966 0.00504501 0)
(1.15979 0.00467489 0)
(1.15984 0.00431472 0)
(1.15984 0.00396349 0)
(1.1598 0.00362027 0)
(1.15972 0.00328413 0)
(1.15962 0.00295424 0)
(1.1595 0.00262981 0)
(1.15938 0.00231009 0)
(1.15927 0.00199441 0)
(1.15915 0.00168211 0)
(1.15905 0.0013726 0)
(1.15897 0.00106532 0)
(1.1589 0.00075975 0)
(1.15886 0.000455378 0)
(1.15883 0.000151715 0)
(0.748742 0.0208869 -1.74974e-23)
(0.749417 0.0207429 -1.57926e-22)
(0.750088 0.0206006 2.84393e-22)
(0.750757 0.0204599 -2.02688e-22)
(0.751423 0.0203208 8.32004e-24)
(0.742077 0.0204625 2.21206e-22)
(0.742785 0.0203205 1.27743e-23)
(0.743489 0.0201802 -9.51853e-23)
(0.74419 0.0200414 1.90165e-22)
(0.744887 0.0199042 -6.364e-23)
(0.735507 0.0200137 -5.4658e-23)
(0.736248 0.0198739 -9.05493e-23)
(0.736986 0.0197358 2.69128e-22)
(0.737719 0.0195992 -1.16838e-22)
(0.738449 0.0194641 -8.76123e-23)
(0.729044 0.019541 -1.03041e-22)
(0.729819 0.0194037 3.57583e-23)
(0.730589 0.0192679 -3.77613e-23)
(0.731356 0.0191337 1.59563e-22)
(0.732119 0.0190009 -7.01157e-23)
(0.722699 0.0190441 1.04101e-22)
(0.723508 0.0189095 -6.94151e-23)
(0.724312 0.0187763 -1.12882e-22)
(0.725111 0.0186446 5.49559e-23)
(0.725907 0.0185144 1.46103e-22)
(0.716484 0.0185231 3.58277e-23)
(0.717326 0.0183913 3.36254e-23)
(0.718163 0.018261 2.96528e-23)
(0.718996 0.0181322 -2.73967e-23)
(0.719825 0.0180048 2.92413e-23)
(0.710409 0.0179783 2.77834e-23)
(0.711285 0.0178496 1.02141e-22)
(0.712156 0.0177224 -2.77679e-24)
(0.713022 0.0175966 -1.34137e-23)
(0.713883 0.0174722 -8.75905e-24)
(0.704486 0.01741 9.07499e-23)
(0.705395 0.0172847 -2.04588e-22)
(0.7063 0.0171608 -4.41742e-23)
(0.707199 0.0170383 1.95802e-22)
(0.708093 0.0169171 1.68639e-24)
(0.698726 0.0168186 -2.7605e-23)
(0.699669 0.0166969 1.03155e-22)
(0.700606 0.0165766 -8.57305e-23)
(0.701538 0.0164576 6.00413e-23)
(0.702464 0.0163399 -1.04898e-22)
(0.69314 0.0162047 -2.62352e-22)
(0.694116 0.0160868 2.7446e-22)
(0.695086 0.0159703 -1.00271e-22)
(0.69605 0.015855 -9.18317e-23)
(0.697008 0.015741 -2.29533e-23)
(0.687739 0.0155687 1.15171e-22)
(0.688748 0.0154549 5.53948e-23)
(0.68975 0.0153424 -7.38615e-23)
(0.690746 0.0152311 1.07797e-22)
(0.691735 0.015121 -1.08159e-22)
(0.682534 0.0149113 3.37574e-23)
(0.683574 0.0148018 -7.87366e-24)
(0.684608 0.0146935 1.89951e-23)
(0.685635 0.0145864 1.81687e-24)
(0.686655 0.0144805 -2.60147e-24)
(0.677535 0.0142331 3.07535e-23)
(0.678606 0.0141281 1.46726e-22)
(0.67967 0.0140243 -1.66914e-22)
(0.680728 0.0139216 7.25775e-23)
(0.681778 0.01382 4.1803e-24)
(0.672753 0.0135349 -1.36293e-22)
(0.673854 0.0134346 7.90767e-23)
(0.674947 0.0133355 -2.27114e-23)
(0.676034 0.0132374 -1.59315e-22)
(0.677114 0.0131404 7.55349e-23)
(0.668196 0.0128174 6.95372e-24)
(0.669326 0.0127221 4.35758e-23)
(0.670448 0.0126278 -1.08876e-22)
(0.671563 0.0125346 1.21815e-22)
(0.672671 0.0124423 -1.55514e-22)
(0.663875 0.0120815 -1.20631e-22)
(0.665032 0.0119914 2.01478e-22)
(0.666182 0.0119022 -1.46086e-22)
(0.667324 0.0118139 1.87865e-23)
(0.668459 0.0117266 -6.08857e-23)
(0.658606 0.011414 4.9459e-23)
(0.659798 0.0113282 -8.21502e-23)
(0.660982 0.0112433 8.27148e-23)
(0.662158 0.0111594 -4.53066e-23)
(0.663326 0.0110764 4.77354e-23)
(0.664487 0.0109942 -2.04533e-24)
(0.654757 0.0106386 4.87442e-23)
(0.655974 0.0105583 -1.3986e-23)
(0.657183 0.010479 -2.3281e-23)
(0.658384 0.0104005 3.54095e-23)
(0.659577 0.0103228 -6.37671e-23)
(0.660762 0.010246 5.76424e-23)
(0.65117 0.00984741 -5.90838e-23)
(0.652412 0.00977292 6.23546e-23)
(0.653644 0.00969925 -5.06506e-23)
(0.654869 0.00962638 -1.67944e-23)
(0.656085 0.00955428 4.66361e-23)
(0.657292 0.00948294 1.97623e-23)
(0.647854 0.00904163 1.02554e-22)
(0.649118 0.00897305 -3.20319e-23)
(0.650373 0.00890522 -3.66995e-23)
(0.651619 0.00883812 5.32814e-23)
(0.652856 0.00877173 1.70412e-23)
(0.654085 0.00870604 -2.71867e-23)
(0.644816 0.00822234 3.32263e-23)
(0.6461 0.00815981 -3.1709e-23)
(0.647375 0.00809797 1.37702e-23)
(0.648641 0.00803679 -2.21499e-23)
(0.649899 0.00797626 -5.66059e-23)
(0.651147 0.00791635 5.7957e-23)
(0.642062 0.00739069 7.28754e-23)
(0.643365 0.00733435 -4.35858e-23)
(0.644658 0.00727863 2.62074e-23)
(0.645943 0.00722351 -5.46264e-23)
(0.647219 0.00716897 8.37022e-24)
(0.648485 0.00711499 9.24649e-25)
(0.639598 0.00654786 -4.22039e-23)
(0.640918 0.00649784 6.79968e-23)
(0.642228 0.00644837 -7.43121e-23)
(0.643529 0.00639943 8.78837e-24)
(0.644821 0.00635101 -5.85812e-24)
(0.63743 0.0056951 -5.34277e-23)
(0.638765 0.00565151 4.6597e-23)
(0.64009 0.0056084 -3.95785e-23)
(0.641406 0.00556575 1.46835e-23)
(0.642712 0.00552355 4.07179e-23)
(0.635563 0.00483366 4.87263e-24)
(0.636911 0.00479661 -7.94916e-24)
(0.638249 0.00475995 -1.9072e-23)
(0.639577 0.00472369 4.37455e-24)
(0.640896 0.00468782 -4.32953e-24)
(0.634001 0.00396484 -1.65851e-23)
(0.635359 0.00393439 -4.65826e-23)
(0.636708 0.00390428 1.05261e-23)
(0.638047 0.0038745 7.42593e-24)
(0.639376 0.00384503 -7.36066e-24)
(0.632746 0.00308993 8.36389e-24)
(0.634114 0.00306618 -1.62627e-23)
(0.635471 0.00304268 -1.35362e-23)
(0.636818 0.00301944 2.571e-23)
(0.638156 0.00299645 -6.0853e-24)
(0.631803 0.00221028 5.6875e-24)
(0.633177 0.00219327 7.94378e-24)
(0.634541 0.00217644 1.76072e-24)
(0.635895 0.0021598 -2.97447e-24)
(0.637239 0.00214333 1.84657e-24)
(0.631173 0.00132723 4.95041e-24)
(0.632552 0.001317 -1.47557e-24)
(0.63392 0.00130688 -5.56477e-25)
(0.635278 0.00129687 -5.77762e-25)
(0.636626 0.00128697 1.76934e-24)
(0.630858 0.000442129 1.55402e-24)
(0.632238 0.000438703 7.55178e-25)
(0.633609 0.000435315 3.05509e-24)
(0.634969 0.000431964 -4.25938e-25)
(0.63632 0.00042865 1.38626e-24)
)
;

boundaryField
{
    inlet
    {
        type            uniformFixedValue;
        uniformValue    constant (1 0 0);
        value           nonuniform 0();
    }
    outlet
    {
        type            pressureInletOutletVelocity;
        value           nonuniform 0();
    }
    cylinder
    {
        type            fixedValue;
        value           nonuniform 0();
    }
    top
    {
        type            symmetryPlane;
    }
    bottom
    {
        type            symmetryPlane;
    }
    defaultFaces
    {
        type            empty;
    }
    procBoundary57to56
    {
        type            processor;
        value           nonuniform List<vector> 
183
(
(0.629468 -0.000447072 -8.86834e-24)
(0.629785 -0.00133905 -1.96511e-23)
(0.63042 -0.00222896 -1.46849e-23)
(0.63137 -0.00311543 1.97169e-23)
(0.632633 -0.00399709 2.64292e-23)
(0.634206 -0.00487261 3.53289e-23)
(0.636086 -0.00574066 3.33996e-24)
(0.638269 -0.00659992 -5.41053e-23)
(0.64075 -0.00744913 -6.99971e-23)
(0.643523 -0.00828705 3.70156e-23)
(0.646582 -0.00911246 -1.27106e-22)
(0.649921 -0.00992421 -2.7282e-24)
(0.653531 -0.0107212 6.78451e-23)
(0.658606 -0.0114155 1.32798e-23)
(0.658606 -0.0114155 1.32798e-23)
(0.66271 -0.0121742 1.11253e-22)
(0.667059 -0.0129153 -2.2091e-23)
(0.671645 -0.0136377 7.93211e-23)
(0.676458 -0.0143407 -1.0343e-22)
(0.681488 -0.0150234 -1.71956e-22)
(0.686725 -0.0156852 -9.49266e-23)
(0.692159 -0.0163253 2.28297e-22)
(0.697778 -0.0169431 8.46536e-24)
(0.703571 -0.0175381 4.2419e-23)
(0.709528 -0.0181098 -1.14245e-22)
(0.715638 -0.0186578 9.77499e-23)
(0.721888 -0.0191817 -1.63242e-24)
(0.728267 -0.0196813 2.1727e-23)
(0.734764 -0.0201564 -2.9416e-22)
(0.741367 -0.0206074 -3.24474e-22)
(0.748066 -0.0210339 9.69544e-23)
(0.759544 -0.0217056 0)
(0.77633 -0.0225191 0)
(0.793585 -0.0232121 0)
(0.811191 -0.0237813 0)
(0.829034 -0.0242278 0)
(0.847002 -0.0245547 0)
(0.864986 -0.0247657 0)
(0.882882 -0.0248652 0)
(0.900592 -0.0248587 0)
(0.918023 -0.0247523 0)
(0.935091 -0.0245527 0)
(0.951719 -0.024267 0)
(0.967838 -0.0239029 0)
(0.983387 -0.023468 0)
(0.998314 -0.0229704 0)
(1.01258 -0.022418 0)
(1.02614 -0.0218186 0)
(1.03897 -0.02118 0)
(1.05106 -0.0205096 0)
(1.0624 -0.0198144 0)
(1.07297 -0.0191011 0)
(1.0828 -0.018376 0)
(1.09187 -0.0176446 0)
(1.10022 -0.0169123 0)
(1.10786 -0.0161834 0)
(1.11482 -0.0154622 0)
(1.12112 -0.0147521 0)
(1.12679 -0.0140558 0)
(1.13187 -0.013376 0)
(1.1364 -0.0127143 0)
(1.1404 -0.0120723 0)
(1.14392 -0.0114509 0)
(1.14699 -0.0108506 0)
(1.14966 -0.0102717 0)
(1.15194 -0.00971421 0)
(1.15388 -0.00917767 0)
(1.15552 -0.00866153 0)
(1.15688 -0.00816507 0)
(1.15799 -0.00768739 0)
(1.15889 -0.00722749 0)
(1.1596 -0.00678428 0)
(1.16014 -0.00635665 0)
(1.16054 -0.00594343 0)
(1.16082 -0.00554348 0)
(1.16099 -0.00515565 0)
(1.16108 -0.00477882 0)
(1.16111 -0.00441193 0)
(1.16108 -0.00405394 0)
(1.16101 -0.00370388 0)
(1.1609 -0.00336085 0)
(1.16078 -0.00302398 0)
(1.16065 -0.00269249 0)
(1.16052 -0.00236562 0)
(1.16039 -0.00204271 0)
(1.16026 -0.00172312 0)
(1.16015 -0.00140625 0)
(1.16006 -0.00109155 0)
(1.15977 -0.000774478 0)
(1.15977 -0.000774478 0)
(1.15972 -0.000464224 0)
(1.1597 -0.000154665 0)
(0.759543 0.0217043 0)
(0.776329 0.0225178 0)
(0.793584 0.0232108 0)
(0.81119 0.02378 0)
(0.829033 0.0242266 0)
(0.847001 0.0245535 0)
(0.864985 0.0247645 0)
(0.882881 0.024864 0)
(0.900591 0.0248576 0)
(0.918022 0.0247512 0)
(0.93509 0.0245516 0)
(0.951719 0.0242659 0)
(0.967837 0.0239018 0)
(0.983386 0.023467 0)
(0.998313 0.0229694 0)
(1.01257 0.022417 0)
(1.02614 0.0218177 0)
(1.03897 0.0211791 0)
(1.05106 0.0205087 0)
(1.0624 0.0198135 0)
(1.07297 0.0191003 0)
(1.0828 0.0183751 0)
(1.09187 0.0176438 0)
(1.10022 0.0169115 0)
(1.10786 0.0161827 0)
(1.11482 0.0154615 0)
(1.12112 0.0147514 0)
(1.12679 0.0140552 0)
(1.13187 0.0133753 0)
(1.1364 0.0127137 0)
(1.1404 0.0120717 0)
(1.14392 0.0114503 0)
(1.14699 0.0108501 0)
(1.14966 0.0102712 0)
(1.15194 0.00971373 0)
(1.15388 0.00917721 0)
(1.15552 0.0086611 0)
(1.15688 0.00816466 0)
(1.15799 0.00768701 0)
(1.15889 0.00722712 0)
(1.1596 0.00678394 0)
(1.16014 0.00635633 0)
(1.16054 0.00594313 0)
(1.16082 0.0055432 0)
(1.16099 0.00515539 0)
(1.16108 0.00477858 0)
(1.16111 0.0044117 0)
(1.16108 0.00405373 0)
(1.16101 0.00370369 0)
(1.16091 0.00336067 0)
(1.16078 0.00302382 0)
(1.16065 0.00269234 0)
(1.16052 0.0023655 0)
(1.16039 0.0020426 0)
(1.16026 0.00172303 0)