/*--------------------------------*- C++ -*----------------------------------*\
  =========                 |
  \\      /  F ield         | OpenFOAM: The Open Source CFD Toolbox
   \\    /   O peration     | Website:  https://openfoam.org
    \\  /    A nd           | Version:  7
     \\/     M anipulation  |
\*---------------------------------------------------------------------------*/
FoamFile
{
    version     2.0;
    format      ascii;
    class       volScalarField;
    location    "5";
    object      p;
}
// * * * * * * * * * * * * * * * * * * * * * * * * * * * * * * * * * * * * * //

dimensions      [0 2 -2 0 0 0 0];

internalField   nonuniform List<scalar> 
183
(
0.000348546
0.000270678
0.000209262
0.000348402
0.000270561
0.000209166
0.000348119
0.000270329
0.000208979
0.000347697
0.000269983
0.000208699
0.000347136
0.000269523
0.000208327
0.000346436
0.00026895
0.000207863
0.000268263
0.000207307
0.000267463
0.000206659
0.000266551
0.00020592
0.000265526
0.00020509
0.000264389
0.00020417
0.00026314
0.000203158
0.000261781
0.000202057
0.000260311
0.000200866
0.000258732
0.000199586
0.000257044
0.000198217
0.000255243
0.000196757
0.000253331
0.000195206
0.000251342
0.000193598
0.000249323
0.000191969
0.000246982
0.000190049
0.000237045
0.000182334
0.000213933
0.000164638
0.000188329
0.000145004
0.000159721
0.000123037
0.000128579
9.90993e-05
9.54852e-05
7.36448e-05
6.09637e-05
4.70712e-05
2.55575e-05
1.97937e-05
-1.01813e-05
-7.76254e-06
-4.57009e-05
-3.51713e-05
-8.04585e-05
-6.20125e-05
-0.00011393
-8.78795e-05
-0.000145616
-0.000112384
-0.000175049
-0.000135161
-0.000201799
-0.000155874
-0.000225479
-0.000174219
-0.000245749
-0.000189929
-0.000262319
-0.000202778
-0.000274956
-0.000212579
-0.000163345
-0.00028348
-0.000219192
-0.000168439
-0.00028777
-0.00022252
-0.000171002
0.000237217
0.000214139
0.000188569
0.000159993
0.000128882
9.58182e-05
6.13254e-05
2.59466e-05
-9.76621e-06
-4.52615e-05
-7.99965e-05
-0.000113447
-0.000145114
-0.00017453
-0.000201265
-0.000224932
-0.000245191
-0.000261753
-0.000274383
-0.000282903
-0.00028719
0.00018248
0.000164812
0.000145206
0.000123267
9.9356e-05
7.39269e-05
4.73777e-05
2.01235e-05
-7.41075e-06
-3.47988e-05
-6.16208e-05
-8.74702e-05
-0.000111958
-0.000134721
-0.000155421
-0.000173755
-0.000189456
-0.000202297
-0.000212092
-0.000218702
-0.000222029
0.000247132
0.000190177
0.000249466
0.000192091
0.000251478
0.000193714
0.00025346
0.000195316
0.000255365
0.00019686
0.000257159
0.000198315
0.00025884
0.000199677
0.000260412
0.000200951
0.000261874
0.000202136
0.000263226
0.000203231
0.000264467
0.000204236
0.000265596
0.00020515
0.000266614
0.000205974
0.000267519
0.000206706
0.000268311
0.000207348
0.000346483
0.000268991
0.000207897
0.000347175
0.000269557
0.000208355
0.000347727
0.000270009
0.000208721
0.000348141
0.000270347
0.000208994
0.000348415
0.000270572
0.000209176
0.00034855
0.000270682
0.000209265
)
;

boundaryField
{
    inlet
    {
        type            zeroGradient;
    }
    outlet
    {
        type            fixedValue;
        value           nonuniform 0();
    }
    cylinder
    {
        type            zeroGradient;
    }
    top
    {
        type            symmetryPlane;
    }
    bottom
    {
        type            symmetryPlane;
    }
    defaultFaces
    {
        type            empty;
    }
    procBoundary44to43
    {
        type            processor;
        value           nonuniform List<scalar> 
86
(
0.000448123
0.000447948
0.000447601
0.000447085
0.000446398
0.000445541
0.000345597
0.000345597
0.000344621
0.000343507
0.000342256
0.000340869
0.000339346
0.000337688
0.000335896
0.00033397
0.000331912
0.000329721
0.000327396
0.000324941
0.000322394
0.000319675
0.000306793
0.000276806
0.000243558
0.0002064
0.000166018
0.000123143
7.84548e-05
3.26673e-05
-1.35027e-05
-5.93446e-05
-0.00010416
-0.000147277
-0.000188059
-0.000225911
-0.000260287
-0.000290697
-0.000316713
-0.000337971
-0.000354177
-0.000365105
-0.000370604
0.000306994
0.000277047
0.000243838
0.000206718
0.000166373
0.000123532
7.88777e-05
3.31222e-05
-1.30176e-05
-5.88311e-05
-0.00010362
-0.000146713
-0.000187473
-0.000225304
-0.000259663
-0.000290058
-0.000316061
-0.000337309
-0.000353507
-0.00036443
-0.000369927
0.000319852
0.000322562
0.000325101
0.000327547
0.000329864
0.000332046
0.000334096
0.000336013
0.000337796
0.000339446
0.00034096
0.000342339
0.000343581
0.000344686
0.000345654
0.000345654
0.000445597
0.000446443
0.00044712
0.000447627
0.000447963
0.000448129
)
;
    }
    procBoundary44to45
    {
        type            processor;
        value           nonuniform List<scalar> 
85
(
0.000161026
0.000160949
0.000160797
0.000160572
0.000160272
0.000159898
0.000159449
0.000158927
0.000158331
0.000157662
0.000156919
0.000156104
0.000155215
0.000154254
0.000153222
0.000152117
0.000150938
0.000149686
0.000148389
0.000147071
0.000145519
0.000139498
0.000126016
0.000111006
9.42053e-05
7.58945e-05
5.64157e-05
3.60699e-05
1.51731e-05
-5.94988e-06
-2.69723e-05
-4.75716e-05
-6.74347e-05
-8.62617e-05
-0.00010377
-0.0001197
-0.000133814
-0.000145906
-0.000155798
-0.000155798
-0.000124082
-0.000127957
-0.000129909
0.000139619
0.000126162
0.000111176
9.43977e-05
7.6109e-05
5.66515e-05
3.63262e-05
1.54489e-05
-5.65572e-06
-2.66608e-05
-4.7244e-05
-6.70923e-05
-8.59059e-05
-0.000103402
-0.000119321
-0.000133427
-0.000145511
-0.000155396
-0.000162939
-0.000168029
-0.000170591
0.000145626
0.000147173
0.000148486
0.000149778
0.000151024
0.000152198
0.000153298
0.000154325
0.000155281
0.000156164
0.000156975
0.000157712
0.000158376
0.000158967
0.000159484
0.000159927
0.000160295
0.00016059
0.000160811
0.000160957
0.000161029
)
;
    }
}


// ************************************************************************* //
