/*--------------------------------*- C++ -*----------------------------------*\
  =========                 |
  \\      /  F ield         | OpenFOAM: The Open Source CFD Toolbox
   \\    /   O peration     | Website:  https://openfoam.org
    \\  /    A nd           | Version:  7
     \\/     M anipulation  |
\*---------------------------------------------------------------------------*/
FoamFile
{
    version     2.0;
    format      ascii;
    class       surfaceScalarField;
    location    "25";
    object      phi;
}
// * * * * * * * * * * * * * * * * * * * * * * * * * * * * * * * * * * * * * //

dimensions      [0 3 -1 0 0 0 0];

internalField   nonuniform List<scalar> 
17388
(
-3.45946e-06
3.4584e-06
1.05773e-09
-1.25345e-05
9.07158e-06
3.4744e-09
-2.63379e-05
1.37971e-05
6.20608e-09
-4.40764e-05
1.77294e-05
9.15329e-09
-6.50353e-05
2.09467e-05
1.22332e-08
-8.85702e-05
2.35195e-05
1.5394e-08
-0.000114098
2.55087e-05
1.86178e-08
-0.000141084
2.69644e-05
2.19199e-08
-0.000169036
2.79267e-05
2.53436e-08
-0.000197493
2.8428e-05
2.89519e-08
-0.000226023
2.84974e-05
3.28157e-08
-0.000254228
2.8168e-05
3.70041e-08
-0.000281758
2.74879e-05
4.15746e-08
-0.00030834
2.65359e-05
4.65666e-08
-0.00033383
2.54383e-05
5.19995e-08
-0.000358276
2.4388e-05
5.78741e-08
-0.000381999
2.36588e-05
6.41779e-08
-0.000405678
2.36074e-05
7.08977e-08
-0.000430401
2.46449e-05
7.80289e-08
-0.000457674
2.71879e-05
8.55808e-08
3.16676e-05
9.36053e-08
-0.000489435
-3.41532e-06
6.87372e-06
-1.23798e-05
1.8036e-05
-2.602e-05
2.74374e-05
-4.35538e-05
3.52632e-05
-6.42748e-05
4.16676e-05
-8.75452e-05
4.679e-05
-0.000112787
5.07503e-05
-0.00013947
5.36473e-05
-0.000167103
5.55601e-05
-0.000195226
5.65512e-05
-0.000223404
5.66747e-05
-0.000251227
5.5991e-05
-0.000278327
5.45879e-05
-0.000304401
5.26102e-05
-0.000329258
5.02955e-05
-0.000352883
4.80134e-05
-0.000375524
4.62995e-05
-0.000397783
4.58666e-05
-0.000420696
4.75573e-05
-0.000445756
5.22483e-05
6.08703e-05
-0.000474959
-3.32796e-06
1.02017e-05
-1.20732e-05
2.67813e-05
-2.53894e-05
4.07536e-05
-4.25154e-05
5.23892e-05
-6.27611e-05
6.19133e-05
-8.55015e-05
6.95304e-05
-0.000110168
7.54169e-05
-0.000136239
7.97181e-05
-0.000163228
8.25486e-05
-0.000190673
8.3997e-05
-0.000218135
8.41359e-05
-0.000245185
8.30417e-05
-0.000271422
8.08249e-05
-0.000296485
7.76727e-05
-0.000320093
7.3904e-05
-0.000342112
7.0032e-05
-0.000362639
6.68262e-05
-0.000382121
6.53493e-05
-0.000401474
6.69095e-05
-0.000422152
7.29271e-05
8.49731e-05
-0.000446255
-3.19936e-06
1.3401e-05
-1.16209e-05
3.52028e-05
-2.44571e-05
5.35898e-05
-4.09763e-05
6.89084e-05
-6.05112e-05
8.14483e-05
-8.24547e-05
9.14739e-05
-0.000106252
9.92143e-05
-0.000131391
0.000104858
-0.000157394
0.000108551
-0.0001838
0.000110403
-0.00021016
0.000110497
-0.000236029
0.00010891
-0.000260956
0.000105753
-0.000284507
0.000101223
-0.000306278
9.56757e-05
-0.000325963
8.97171e-05
-0.000343439
8.43017e-05
-0.000358908
8.08186e-05
-0.000373076
8.10777e-05
-0.000387303
8.71542e-05
0.000101475
-0.000403806
-3.03255e-06
1.64336e-05
-1.10325e-05
4.32027e-05
-2.32402e-05
6.57975e-05
-3.89599e-05
8.46281e-05
-5.7552e-05
0.00010004
-7.84301e-05
0.000112352
-0.000101056
0.00012184
-0.00012493
0.000128732
-0.000149581
0.000133202
-0.000174554
0.000135376
-0.000199394
0.000135336
-0.000223632
0.000133147
-0.000246773
0.000128894
-0.000268295
0.000122745
-0.000287658
0.000115039
-0.000304345
0.000106403
-0.000317947
9.79041e-05
-0.000328331
9.12029e-05
-0.000335881
8.86278e-05
-0.000341751
9.30239e-05
0.000107955
-0.000348231
-2.8317e-06
1.92653e-05
-1.03211e-05
5.06922e-05
-2.17624e-05
7.72387e-05
-3.64994e-05
9.93652e-05
-5.3922e-05
0.000117463
-7.34656e-05
0.000131896
-9.46084e-05
0.000142983
-0.000116864
0.000150987
-0.000139769
0.000156108
-0.000162873
0.00015848
-0.000185717
0.00015818
-0.000207813
0.000155244
-0.000228627
0.000149708
-0.000247554
0.000141672
-0.000263913
0.000131398
-0.000276963
0.000119453
-0.000285969
0.00010691
-0.000290374
9.56081e-05
-0.000290112
8.83658e-05
-0.000285971
8.88825e-05
0.000102149
-0.000280164
-2.6022e-06
2.18675e-05
-9.50362e-06
5.75936e-05
-2.00544e-05
8.77895e-05
-3.36381e-05
0.000112949
-4.96728e-05
0.000133497
-6.7614e-05
0.000149837
-8.69537e-05
0.000162323
-0.000107215
0.000171248
-0.000127942
0.000176835
-0.000148685
0.000179224
-0.000168983
0.000178478
-0.000188335
0.000174596
-0.000206174
0.000167546
-0.000221827
0.000157325
-0.00023449
0.000144061
-0.00024321
0.000128173
-0.000246919
0.000110619
-0.00024458
9.32694e-05
-0.000235564
7.93495e-05
-0.00022014
7.34584e-05
8.20692e-05
-0.00020006
-2.35061e-06
2.42181e-05
-8.60073e-06
6.38437e-05
-1.81541e-05
9.73429e-05
-3.04301e-05
0.000125225
-4.48705e-05
0.000147938
-6.09453e-05
0.000165912
-7.81547e-05
0.000179532
-9.60246e-05
0.000189118
-0.000114099
0.000194909
-0.000131925
0.00019705
-0.000149035
0.000195588
-0.000164915
0.000190477
-0.000178973
0.000181604
-0.000190488
0.00016884
-0.000198562
0.000152135
-0.000202068
0.000131679
-0.000199638
0.000108189
-0.00018976
8.33915e-05
-0.000171173
6.07624e-05
-0.000143686
4.59715e-05
4.63117e-05
-0.000107929
-2.08464e-06
2.63027e-05
-7.63662e-06
6.93957e-05
-1.61061e-05
0.000105812
-2.694e-05
0.000136059
-3.95954e-05
0.000160593
-5.35481e-05
0.000179864
-6.82959e-05
0.00019428
-8.33574e-05
0.000204179
-9.82639e-05
0.000209816
-0.000112548
0.000211334
-0.000125722
0.000208762
-0.000137253
0.000202008
-0.000146522
0.000190873
-0.000152773
0.000175091
-0.000155042
0.000154403
-0.000152076
0.000128713
-0.00014227
9.83834e-05
-0.000123666
6.47869e-05
-9.41807e-05
3.12775e-05
-5.30518e-05
4.84255e-06
-1.45093e-06
-5.28915e-06
-1.81288e-06
2.81156e-05
-6.63822e-06
7.4221e-05
-1.39601e-05
0.000113134
-2.32408e-05
0.00014534
-3.39403e-05
0.000171293
-4.55271e-05
0.000191451
-5.74834e-05
0.000206236
-6.9304e-05
0.000216
-8.04902e-05
0.000221002
-9.05383e-05
0.000221382
-9.89218e-05
0.000217145
-0.000105066
0.000208152
-0.000108311
0.000194119
-0.000107858
0.000174638
-0.000102692
0.000149237
-9.14726e-05
0.000117494
-7.24035e-05
7.93143e-05
-4.31028e-05
3.54861e-05
-6.28982e-07
-1.11963e-05
5.79142e-05
-5.37006e-05
-7.45608e-05
0.000131024
-1.54443e-06
2.966e-05
-5.63391e-06
7.83105e-05
-1.17686e-05
0.000119269
-1.94099e-05
0.000152981
-2.80046e-05
0.000179887
-3.6998e-05
0.000200445
-4.58383e-05
0.000215076
-5.39764e-05
0.000224138
-6.08594e-05
0.000227885
-6.59198e-05
0.000226442
-6.85593e-05
0.000219785
-6.81266e-05
0.000207719
-6.38849e-05
0.000189877
-5.49647e-05
0.000165718
-4.02922e-05
0.000134564
-1.84742e-05
9.56764e-05
1.2377e-05
4.84631e-05
5.48785e-05
-7.01536e-06
0.000112511
-6.88291e-05
0.000189277
-0.000130467
-0.000173142
0.000287859
-1.28834e-06
3.09484e-05
-4.65151e-06
8.16737e-05
-9.58314e-06
0.000124201
-1.55233e-05
0.000158921
-2.18867e-05
0.000186251
-2.80756e-05
0.000206633
-3.34834e-05
0.000220484
-3.74921e-05
0.000228147
-3.94656e-05
0.000229858
-3.8737e-05
0.000225714
-3.45944e-05
0.000215642
-2.62612e-05
0.000199386
-1.28701e-05
0.000176486
6.57284e-06
0.000146275
3.32451e-05
0.000107892
6.85945e-05
6.03271e-05
0.000114521
2.53656e-06
0.000173636
-6.61301e-05
0.00024966
-0.000144854
0.00034762
-0.000228427
-0.000298762
0.00047324
-1.05277e-06
3.20011e-05
-3.7157e-06
8.43366e-05
-7.44858e-06
0.000127933
-1.16467e-05
0.000163119
-1.56707e-05
0.000190275
-1.88575e-05
0.00020982
-2.05209e-05
0.000222147
-1.99465e-05
0.000227573
-1.63809e-05
0.000226293
-9.01762e-06
0.00021835
3.01777e-06
0.000203607
2.06864e-05
0.000181717
4.50536e-05
0.000152119
7.73125e-05
0.000114016
0.000118815
6.63898e-05
0.000171125
8.01655e-06
0.000236115
-6.24537e-05
0.000316265
-0.000146279
0.00041509
-0.000243679
0.000537727
-0.000351064
-0.000454554
0.00069352
-8.44134e-07
3.28453e-05
-2.84489e-06
8.63374e-05
-5.39716e-06
0.000130486
-7.82509e-06
0.000165547
-9.41075e-06
0.000191861
-9.40094e-06
0.00020981
-7.00237e-06
0.000219749
-1.37287e-06
0.000221943
8.39549e-06
0.000216524
2.32928e-05
0.000203453
4.44091e-05
0.00018249
7.29502e-05
0.000153176
0.000110252
0.000114817
0.000157787
6.64809e-05
0.000217172
7.00486e-06
0.000290166
-6.4977e-05
0.000378692
-0.00015098
0.000484983
-0.000252571
0.000612041
-0.000370737
0.000764069
-0.000503091
-0.000644421
0.000953935
-6.66027e-07
3.35113e-05
-2.04792e-06
8.77192e-05
-3.44154e-06
0.000131879
-4.07152e-06
0.000166177
-3.11371e-06
0.000190903
3.02837e-07
0.000206394
7.10673e-06
0.000212945
1.83052e-05
0.000210745
3.50002e-05
0.000199829
5.84122e-05
0.000180041
8.98993e-05
0.000151003
0.000130972
0.000112103
0.000183301
6.24886e-05
0.000248706
1.07542e-06
0.000329137
-7.34264e-05
0.000426624
-0.000162463
0.000543201
-0.000267558
0.000680871
-0.00039024
0.000841924
-0.00053179
0.00102881
-0.000689976
-0.000872305
0.00125669
-5.18308e-07
3.40296e-05
-1.32091e-06
8.85218e-05
-1.56833e-06
0.000132127
-3.54119e-07
0.000164963
3.27725e-06
0.000187271
1.03484e-05
0.000199323
2.19606e-05
0.000201333
3.93204e-05
0.000193385
6.37681e-05
0.000175381
9.68026e-05
0.000147006
0.000140101
0.000107705
0.00019553
5.66747e-05
0.000265138
-7.11893e-06
0.000351128
-8.4915e-05
0.0004558
-0.000178098
0.000581449
-0.000288112
0.000730217
-0.000416326
0.000903872
-0.000563896
0.00110384
-0.000731755
0.00133064
-0.000916777
-0.00114076
0.0015991
-3.96241e-07
3.44259e-05
-6.45221e-07
8.87708e-05
2.68518e-07
0.000131213
3.40512e-06
0.000161826
9.89649e-06
0.00018078
2.0945e-05
0.000188274
3.78612e-05
0.000184417
6.20964e-05
0.00016915
9.52749e-05
0.000142203
0.000139221
0.00010306
0.000195975
5.09507e-05
0.000267791
-1.51406e-05
0.000357108
-9.6436e-05
0.00046649
-0.000194297
0.000598517
-0.000310126
0.000755625
-0.00044522
0.000939886
-0.000600587
0.00115271
-0.000776723
0.00139432
-0.000973366
0.00166408
-0.00118653
-0.00144881
0.00197212
-2.89981e-07
3.47158e-05
2.31617e-08
8.84577e-05
2.14173e-06
0.000129094
7.34675e-06
0.000156621
1.69632e-05
0.000171164
3.24157e-05
0.000172822
5.5267e-05
0.000161565
8.72582e-05
0.000137158
0.000130344
9.9117e-05
0.000186715
4.66894e-05
0.0002588
-2.11343e-05
0.000349241
-0.000105581
0.000460825
-0.000208021
0.000596374
-0.000329846
0.000758561
-0.000472313
0.000949678
-0.000636337
0.00117134
-0.000822254
0.00142426
-0.00102963
0.0017069
-0.00125601
0.00201888
-0.00149851
-0.00178971
0.00235978
-1.8747e-07
3.49033e-05
7.11379e-07
8.75588e-05
4.16372e-06
0.000125642
1.16618e-05
0.000149123
2.47761e-05
0.000158049
4.51958e-05
0.000152402
7.47811e-05
0.00013198
0.000115608
9.63313e-05
0.000170001
4.47243e-05
0.000240539
-2.38486e-05
0.000330033
-0.000110629
0.000441457
-0.000217005
0.00057782
-0.000344384
0.00074198
-0.000494005
0.000936381
-0.000666714
0.00116274
-0.000862694
0.00142167
-0.00108118
0.0017125
-0.00132046
0.00203157
-0.00157509
0.00237955
-0.00184649
-0.00214996
0.0027398
-6.96405e-08
3.4973e-05
1.50918e-06
8.598e-05
6.47388e-06
0.000120677
1.65877e-05
0.000139009
3.37003e-05
0.000140937
5.98082e-05
0.000126294
9.71127e-05
9.46755e-05
0.000148063
4.53814e-05
0.000215371
-2.25845e-05
0.000301996
-0.000110473
0.000411064
-0.000219697
0.000545737
-0.000351679
0.000709005
-0.000507651
0.000903402
-0.000688402
0.00113067
-0.000893986
0.00139141
-0.00112343
0.0016847
-0.00137447
0.00200782
-0.00164358
0.00235528
-0.00192254
0.00272622
-0.00221744
-0.00250895
0.00308521
8.95599e-08
3.48834e-05
2.48229e-06
8.35873e-05
9.22812e-06
0.000113932
2.23915e-05
0.000125846
4.41414e-05
0.000119187
7.68226e-05
9.36131e-05
0.000123013
4.84854e-05
0.000185552
-1.71582e-05
0.00026753
-0.000104563
0.000372211
-0.000215154
0.000502887
-0.000350373
0.000662652
-0.000511444
0.000854092
-0.000699091
0.00107892
-0.000913227
0.00133758
-0.00115265
0.00162894
-0.00141479
0.00195013
-0.00169565
0.00229627
-0.00198973
0.00266197
-0.00228824
0.00303862
-0.00259409
-0.00283343
0.0033631
3.05648e-07
3.45777e-05
3.70878e-06
8.01842e-05
1.25903e-05
0.00010505
2.93496e-05
0.000109087
5.65116e-05
9.20248e-05
9.68014e-05
5.33233e-05
0.000153191
-7.90411e-06
0.000228898
-9.28654e-05
0.000327318
-0.000202983
0.000451871
-0.000339707
0.000605757
-0.000504258
0.000791613
-0.000697299
0.00101111
-0.000918589
0.00126453
-0.00116665
0.00155042
-0.00143854
0.00186539
-0.00172976
0.00220422
-0.00203448
0.00255996
-0.00234547
0.0029278
-0.00265608
0.00329489
-0.00296119
-0.00323506
0.00369652
6.04634e-07
3.39731e-05
5.26617e-06
7.55226e-05
1.67192e-05
9.35971e-05
3.77249e-05
8.80808e-05
7.11912e-05
5.85585e-05
0.00012024
4.27489e-06
0.000188224
-7.58886e-05
0.000278676
-0.000183317
0.000395152
-0.000319459
0.00054098
-0.000485535
0.000718888
-0.000682166
0.000930558
-0.000908969
0.00117616
-0.00116419
0.00145397
-0.00144446
0.00176014
-0.00174471
0.00208883
-0.00205844
0.0024326
-0.00237825
0.00278331
-0.00269619
0.00313364
-0.0030064
0.00347427
-0.00330181
-0.00358021
0.00381942
1.00601e-06
3.29671e-05
7.22374e-06
6.93049e-05
2.17554e-05
7.90654e-05
4.77433e-05
6.2093e-05
8.84908e-05
1.7811e-05
0.000147506
-5.47403e-05
0.000228468
-0.000156851
0.000335092
-0.000289941
0.000470866
-0.000455233
0.000638665
-0.000653334
0.000840268
-0.000883768
0.00107584
-0.00114454
0.00134351
-0.00143186
0.00163911
-0.00174006
0.00195631
-0.00206191
0.00228708
-0.00238922
0.00262253
-0.0027137
0.00295402
-0.00302768
0.00327397
-0.00332635
0.00357653
-0.00360438
-0.00386595
0.00386227
1.52649e-06
3.14406e-05
9.63847e-06
6.11929e-05
2.78114e-05
6.08925e-05
5.95747e-05
3.03296e-05
0.000108619
-3.12332e-05
0.000178791
-0.000124913
0.000273985
-0.000252045
0.000397889
-0.000413845
0.000553594
-0.000610938
0.000743075
-0.000842815
0.000966628
-0.00110732
0.00122238
-0.00140029
0.00150602
-0.0017155
0.0018109
-0.00204494
0.00212856
-0.00237958
0.00244964
-0.00271029
0.00276499
-0.00302904
0.00306684
-0.00332953
0.00334946
-0.00360897
0.00360952
-0.00386444
-0.00410442
0.00384799
2.17881e-06
2.92618e-05
1.25521e-05
5.08196e-05
3.49633e-05
3.84812e-05
7.33187e-05
-8.02578e-06
0.000131657
-8.95715e-05
0.000214072
-0.000207328
0.00032449
-0.000362463
0.000466282
-0.000555637
0.000641728
-0.000786384
0.0008514
-0.00105249
0.00109361
-0.00134953
0.00136407
-0.00167076
0.00165599
-0.00200742
0.00196062
-0.00234957
0.00226822
-0.00268718
0.00256933
-0.0030114
0.00285593
-0.00331564
0.00312241
-0.00359601
0.00336575
-0.00385231
0.00358593
-0.00408462
-0.00430306
0.00378456
2.97151e-06
2.62903e-05
1.59897e-05
3.78015e-05
4.32478e-05
1.12231e-05
8.89953e-05
-5.37733e-05
0.000157544
-0.00015812
0.000253085
-0.000302868
0.000379324
-0.000488702
0.000538945
-0.000715258
0.000732947
-0.000980385
0.000960012
-0.00127955
0.00121609
-0.00160561
0.00149443
-0.00194909
0.0017861
-0.00229909
0.00208107
-0.00264454
0.00236953
-0.00297564
0.0026432
-0.00328508
0.00289632
-0.00356876
0.00312611
-0.0038258
0.00333247
-0.00405867
0.00351792
-0.00427006
-0.00447058
0.00368544
3.90929e-06
2.2381e-05
1.99598e-05
2.17509e-05
5.26598e-05
-2.14769e-05
0.000106541
-0.000107654
0.000186067
-0.000237647
0.000295318
-0.000412118
0.000437455
-0.00063084
0.000614044
-0.000891847
0.000824335
-0.00119068
0.00106474
-0.00151996
0.00132874
-0.00186961
0.00160738
-0.00222774
0.00189039
-0.0025821
0.00216757
-0.00292172
0.00243027
-0.00323833
0.00267243
-0.00352723
0.00289108
-0.00378742
0.00308628
-0.004021
0.00326032
-0.00423271
0.00341728
-0.00442703
-0.00461415
0.00356085
4.99335e-06
1.73876e-05
2.44549e-05
2.28936e-06
6.31527e-05
-6.01747e-05
0.000125805
-0.000170307
0.000216862
-0.000328703
0.000340013
-0.000535269
0.000497498
-0.000788325
0.000689318
-0.00108367
0.000912578
-0.00141394
0.00116124
-0.00176862
0.00142653
-0.00213489
0.00169798
-0.00249919
0.00196499
-0.00284911
0.00221838
-0.00317511
0.00245161
-0.00347156
0.00266136
-0.00373699
0.00284745
-0.0039735
0.00301219
-0.00418574
0.0031594
-0.00437992
0.00329382
-0.00456145
-0.00473948
0.00341915
6.22175e-06
1.11659e-05
2.94516e-05
-2.09405e-05
7.46379e-05
-0.000105361
0.000146553
-0.000242222
0.000249409
-0.000431559
0.00038618
-0.000672041
0.000557771
-0.000959915
0.000762213
-0.00128811
0.000994226
-0.00164595
0.00124543
-0.00201983
0.00150534
-0.0023948
0.00176294
-0.00275679
0.00200839
-0.00309456
0.00223447
-0.00340119
0.00243728
-0.00367437
0.00261622
-0.00391592
0.00277336
-0.00413064
0.00291251
-0.00432489
0.00303815
-0.00450556
0.00315492
-0.00467822
-0.00485066
0.0032661
7.58935e-06
3.57654e-06
3.49105e-05
-4.82616e-05
8.69838e-05
-0.000157434
0.000168462
-0.0003237
0.000283045
-0.000546142
0.000432629
-0.000821625
0.000616378
-0.00114366
0.00083006
-0.00150179
0.001066
-0.00188189
0.0013139
-0.00226772
0.00156238
-0.00264329
0.0018009
-0.0029953
0.00202134
-0.003315
0.00221897
-0.00359882
0.00239256
-0.00384796
0.00254378
-0.00406715
0.00267626
-0.00426311
0.0027945
-0.00444313
0.00290297
-0.00461404
0.00300579
-0.00478104
-0.00495043
0.00310556
9.08742e-06
-5.51088e-06
4.07747e-05
-7.99489e-05
0.000100015
-0.000216674
0.000191123
-0.000414808
0.000316978
-0.000671998
0.000478015
-0.000982662
0.000671324
-0.00133697
0.000890288
-0.00172076
0.0011251
-0.0021167
0.00136422
-0.00250684
0.00159634
-0.00287541
0.00181231
-0.00321127
0.00200632
-0.00350901
0.00217625
-0.00376875
0.00232319
-0.0039949
0.00245045
-0.00419441
0.00256246
-0.00437511
0.00266379
-0.00454446
0.00275848
-0.00470873
0.00284991
-0.00487247
-0.00504049
0.00293998
1.07031e-05
-1.62139e-05
4.6969e-05
-0.000116215
0.000113511
-0.000283216
0.000214051
-0.000515349
0.000350311
-0.000808257
0.000520911
-0.00115326
0.000720654
-0.00153672
0.000940637
-0.00194074
0.00116944
-0.00234551
0.00139512
-0.00273252
0.00160736
-0.00308765
0.00179904
-0.00340295
0.00196689
-0.00367686
0.00211115
-0.00391302
0.00223467
-0.00411842
0.00234172
-0.00430145
0.00243691
-0.0044703
0.00252447
-0.00463202
0.0026078
-0.00479207
0.00268952
-0.00495419
-0.00512185
0.00277088
1.24186e-05
-2.86325e-05
5.33985e-05
-0.000157195
0.000127208
-0.000357026
0.000236694
-0.000624835
0.000382079
-0.000953642
0.000559893
-0.00133108
0.000762598
-0.00173942
0.000979341
-0.00215748
0.00119779
-0.00256396
0.00140648
-0.00294121
0.00159677
-0.00327794
0.00176393
-0.00357011
0.00190708
-0.00382001
0.00202838
-0.00403432
0.00213181
-0.00422185
0.00222199
-0.00439163
0.0023033
-0.00455162
0.00237941
-0.00470813
0.00245301
-0.00486567
0.00252604
-0.00502721
-0.00519504
0.00259923
1.42108e-05
-4.28434e-05
5.99491e-05
-0.000202933
0.000140806
-0.000437883
0.000258452
-0.000742481
0.000411305
-0.00110649
0.000593634
-0.0015134
0.000795706
-0.00194149
0.00100525
-0.00236703
0.00120981
-0.00276852
0.00139914
-0.00313054
0.00156674
-0.00344555
0.00171027
-0.00371364
0.00183091
-0.00394065
0.00193215
-0.00413556
0.00201854
-0.00430824
0.00209462
-0.00446771
0.00216429
-0.00462129
0.00223054
-0.00477438
0.00229544
-0.00493058
0.00236036
-0.00509212
-0.00526031
0.00242563
1.60512e-05
-5.88946e-05
6.64888e-05
-0.00025337
0.000153975
-0.000525369
0.000278708
-0.000867213
0.000437054
-0.00126484
0.000620997
-0.00169735
0.000818946
-0.00213944
0.00101787
-0.00256595
0.00120594
-0.00295659
0.00137469
-0.00329928
0.00151991
-0.00359077
0.00164144
-0.00383518
0.00174203
-0.00404124
0.00182598
-0.00421951
0.00189794
-0.0043802
0.00196209
-0.00453185
0.00202171
-0.00468091
0.00207916
-0.00483184
0.00213598
-0.0049874
0.00219308
-0.00514922
-0.00531777
0.00225053
1.7906e-05
-7.68005e-05
7.2872e-05
-0.000308337
0.000166371
-0.000618868
0.000296855
-0.000997697
0.00045849
-0.00142648
0.000641109
-0.00187997
0.00083175
-0.00233009
0.00101732
-0.00275152
0.00118725
-0.00312653
0.00133515
-0.00344718
0.00145907
-0.00371468
0.00156061
-0.00393672
0.00164361
-0.00412424
0.00171271
-0.00428861
0.00177235
-0.00443983
0.00182616
-0.00458566
0.00187682
-0.00473158
0.00192615
-0.00488116
0.00197523
-0.00503647
0.00202463
-0.00519862
-0.00536741
0.00207427
1.97372e-05
-9.65378e-05
7.8944e-05
-0.000367543
0.000177647
-0.000717571
0.000312334
-0.00113238
0.000474932
-0.00158908
0.000653409
-0.00205844
0.000834012
-0.00251069
0.00100424
-0.00292175
0.00115524
-0.00327752
0.00128279
-0.00357473
0.0013869
-0.0038188
0.00147058
-0.00402039
0.00153824
-0.00419191
0.00159454
-0.00434491
0.00164346
-0.00448876
0.00168808
-0.00463028
0.00173051
-0.00477401
0.00177209
-0.00492274
0.00181359
-0.00507797
0.00185533
-0.00524036
-0.00540922
0.00189715
2.1504e-05
-0.000118042
8.45478e-05
-0.000430587
0.000187478
-0.000820501
0.000324665
-0.00126957
0.000485887
-0.0017503
0.000657654
-0.00223021
0.000826036
-0.00267907
0.000979668
-0.00307538
0.00111165
-0.0034095
0.00121984
-0.00368292
0.00130589
-0.00390485
0.00137372
-0.00408822
0.00142801
-0.0042462
0.00147312
-0.00439001
0.00151253
-0.00452817
0.00154874
-0.00466649
0.00158338
-0.00480865
0.00161742
-0.00495678
0.0016514
-0.00511195
0.00168548
-0.00527444
-0.00544317
0.00171942
2.3164e-05
-0.000141206
8.95312e-05
-0.000496954
0.00019557
-0.00092654
0.00033347
-0.00140747
0.00049107
-0.0019079
0.000653912
-0.00239305
0.000808458
-0.00283362
0.000944875
-0.0032118
0.00105829
-0.00352292
0.00114841
-0.00377304
0.00121816
-0.0039746
0.001272
-0.00414206
0.00131453
-0.00428873
0.0013497
-0.00442519
0.00138046
-0.00455892
0.00140877
-0.0046948
0.00143587
-0.00483575
0.00146248
-0.00498339
0.00148894
-0.00513841
0.00151531
-0.00530081
-0.00546921
0.00154136
2.4675e-05
-0.000165881
9.37536e-05
-0.000566033
0.000201681
-0.00103447
0.000338495
-0.00154428
0.000490407
-0.00205981
0.000642512
-0.00254516
0.000782153
-0.00297326
0.000901267
-0.00333091
0.000996933
-0.00361859
0.00107043
-0.00384654
0.00112555
-0.00402972
0.00116697
-0.00418347
0.00119904
-0.0043208
0.00122521
-0.00445136
0.00124789
-0.0045816
0.00126862
-0.00471553
0.00128833
-0.00485546
0.00130752
-0.00500258
0.00132643
-0.00515733
0.00134506
-0.00531944
-0.00548734
0.00136318
2.59971e-05
-0.000191878
9.70925e-05
-0.000637128
0.000205625
-0.001143
0.000339608
-0.00167827
0.000484013
-0.00220421
0.00062399
-0.00268513
0.000748143
-0.00309741
0.00085027
-0.00343304
0.000929233
-0.00369755
0.000987541
-0.00390484
0.00102954
-0.00407172
0.00105986
-0.0042138
0.00108248
-0.00434342
0.00110032
-0.0044692
0.00111532
-0.00459661
0.00112867
-0.00472887
0.00114103
-0.00486782
0.00115279
-0.00501434
0.00116411
-0.00516865
0.00117494
-0.00533027
-0.00549752
0.00118512
2.7094e-05
-0.000218972
9.94484e-05
-0.000709483
0.000207284
-0.00125083
0.000336804
-0.00180779
0.000472166
-0.00233958
0.000599031
-0.002812
0.000707515
-0.00320589
0.000793259
-0.00351878
0.000856664
-0.00376095
0.000901155
-0.00394933
0.00093134
-0.0041019
0.000951639
-0.0042341
0.000965565
-0.00435734
0.000975554
-0.00447919
0.000983131
-0.00460418
0.000989185
-0.00473493
0.00099422
-0.00487285
0.000998512
-0.00501863
0.00100218
-0.00517232
0.00100516
-0.00533326
-0.00549973
0.00100737
2.79344e-05
-0.000246906
0.000100749
-0.000782297
0.000206608
-0.00135669
0.000330188
-0.00193137
0.000455271
-0.00246466
0.000568405
-0.00292513
0.000661362
-0.00329885
0.000731506
-0.00358893
0.000780517
-0.00380996
0.000812439
-0.00398126
0.000831919
-0.00412138
0.000843041
-0.00424522
0.000848844
-0.00436315
0.000851311
-0.00448166
0.000851621
-0.00460449
0.000850434
-0.00473374
0.000848124
-0.00487054
0.000844899
-0.00501541
0.000840846
-0.00516826
0.000835921
-0.00532833
-0.00549391
0.000830106
2.84932e-05
-0.000275399
0.000100949
-0.000854753
0.000203611
-0.00145936
0.00031996
-0.00204771
0.000433824
-0.00257852
0.000532923
-0.00302423
0.000610727
-0.00337666
0.000666155
-0.00364435
0.000701892
-0.0038457
0.000722348
-0.00400171
0.000732038
-0.00413107
0.000734646
-0.00424783
0.000732742
-0.00436124
0.000727914
-0.00447683
0.000721052
-0.00459763
0.000712642
-0.00472533
0.000702956
-0.00486086
0.000692154
-0.0050046
0.000680313
-0.00515642
0.000667404
-0.00531542
-0.00547995
0.000653444
2.87523e-05
-0.000304152
0.000100034
-0.000926035
0.000198364
-0.00155769
0.000306395
-0.00215575
0.000408373
-0.0026805
0.000493392
-0.00310925
0.000556581
-0.00343984
0.000598209
-0.00368598
0.00062171
-0.0038692
0.000631653
-0.00401166
0.000632299
-0.00413172
0.000626901
-0.00424243
0.000617598
-0.00435194
0.000605633
-0.00446486
0.000591666
-0.00458367
0.000576039
-0.0047097
0.000558943
-0.00484376
0.000540497
-0.00498616
0.00052078
-0.0051367
0.000499802
-0.00529444
-0.00545766
0.00047751
2.87007e-05
-0.000332853
9.80149e-05
-0.000995349
0.000190989
-0.00165066
0.000289818
-0.00225457
0.000379488
-0.00277017
0.000450584
-0.00318035
0.000499798
-0.00348906
0.000528531
-0.00371472
0.000540736
-0.00388141
0.000540973
-0.00401189
0.000533176
-0.00412392
0.000520165
-0.00422942
0.000503689
-0.00433546
0.000484705
-0.00444588
0.000463687
-0.00456265
0.000440866
-0.00468688
0.000416358
-0.00481925
0.000390229
-0.00496003
0.000362517
-0.00510899
0.00033327
-0.0052652
-0.00542697
0.000302579
2.83346e-05
-0.000361187
9.49276e-05
-0.00106194
0.000181645
-0.00173738
0.000270588
-0.00234352
0.000347739
-0.00284732
0.000405221
-0.00323783
0.000441152
-0.00352499
0.000457851
-0.00373142
0.000459593
-0.00388315
0.000450803
-0.0040031
0.000435042
-0.00410816
0.000414721
-0.0042091
0.000391245
-0.00431199
0.000365336
-0.00441997
0.000337322
-0.00453463
0.000307349
-0.00465691
0.000275484
-0.00478739
0.000241766
-0.00492631
0.000206124
-0.00507335
0.00016806
-0.00522713
-0.00538763
0.000128721
2.7657e-05
-0.000388844
9.0829e-05
-0.00112511
0.000170521
-0.00181707
0.000249077
-0.00242207
0.000313673
-0.00291192
0.000357956
-0.00328211
0.000381315
-0.00354835
0.000386782
-0.00373688
0.000378789
-0.00387516
0.000361536
-0.00398585
0.000338198
-0.00408482
0.000310804
-0.0041817
0.000280466
-0.00428165
0.000247712
-0.00438722
0.000212755
-0.00449968
0.000175674
-0.00461983
0.000136534
-0.00474825
9.53424e-05
-0.00488512
5.23894e-05
-0.0050304
7.81551e-06
-0.00518256
-0.00533615
-4.36643e-05
2.66768e-05
-0.000415521
8.57923e-05
-0.00118423
0.000157822
-0.0018891
0.000225659
-0.00248991
0.000277803
-0.00296407
0.000309373
-0.00331368
0.000320861
-0.00355983
0.000315829
-0.00373185
0.000298732
-0.00385806
0.000273486
-0.0039606
0.000242884
-0.00405422
0.000208608
-0.00414743
0.000171526
-0.00424457
0.000132008
-0.0043477
9.01645e-05
-0.00445783
4.60029e-05
-0.00457567
-4.98879e-07
-0.00470175
-4.90382e-05
-0.00483658
-9.9776e-05
-0.00497966
-0.000153292
-0.00512904
-0.00528182
-0.000207625
2.54087e-05
-0.00044093
7.99034e-05
-0.00123872
0.000143764
-0.00195296
0.000200693
-0.00254684
0.000240599
-0.00300397
0.000259985
-0.00333307
0.000260277
-0.00356013
0.000245408
-0.00371698
0.000219751
-0.0038324
0.000186904
-0.00392776
0.000149294
-0.00401661
0.000108301
-0.00410643
6.45727e-05
-0.00420084
1.83615e-05
-0.00430149
-3.02763e-05
-0.0044092
-8.13797e-05
-0.00452456
-0.000134931
-0.0046482
-0.000190981
-0.00478053
-0.000249434
-0.00492121
-0.000310163
-0.00506832
-0.00521975
-0.000372228
2.38712e-05
-0.000464801
7.32564e-05
-0.00128811
0.000128563
-0.00200827
0.00017452
-0.0025928
0.000202483
-0.00303193
0.000210233
-0.00334082
0.00019997
-0.00354986
0.000175857
-0.00369287
0.00014211
-0.00379866
0.000101994
-0.00388764
5.75847e-05
-0.0039722
9.99471e-06
-0.00405884
-4.02503e-05
-0.00415059
-9.30366e-05
-0.0042487
-0.000148393
-0.00435384
-0.000206384
-0.00446657
-0.000267062
-0.00458752
-0.000330422
-0.00471717
-0.000396325
-0.0048553
-0.000464472
-0.00500017
-0.0051496
-0.000534624
2.20868e-05
-0.000486888
6.59503e-05
-0.00133197
0.000112429
-0.00205475
0.000147457
-0.00262782
0.000163832
-0.00304831
0.000160498
-0.00333748
0.000140277
-0.00352964
0.000107449
-0.00366004
6.60205e-05
-0.00375723
1.89077e-05
-0.00384053
-3.20975e-05
-0.0039212
-8.61077e-05
-0.00400483
-0.000142797
-0.0040939
-0.000202087
-0.00418941
-0.000264056
-0.00429187
-0.00032883
-0.0044018
-0.000396514
-0.00451983
-0.000467106
-0.00464658
-0.000540441
-0.00478197
-0.00061621
-0.0049244
-0.00507155
-0.000694262
2.00805e-05
-0.000506968
5.80858e-05
-0.00136998
9.55657e-05
-0.00209223
0.000119791
-0.00265205
0.000124976
-0.00305349
0.000111098
-0.00332361
8.1474e-05
-0.00350002
4.04038e-05
-0.00361897
-8.36222e-06
-0.00370846
-6.21941e-05
-0.0037867
-0.00011963
-0.00386376
-0.000179969
-0.00394449
-0.000242977
-0.0040309
-0.000308653
-0.00412373
-0.000377116
-0.00422341
-0.000448543
-0.00433037
-0.000523093
-0.00444528
-0.000600808
-0.00456886
-0.000681522
-0.00470125
-0.000764894
-0.00484103
-0.00498573
-0.000850708
1.78802e-05
-0.000524848
4.97633e-05
-0.00140186
7.81626e-05
-0.00212063
9.17821e-05
-0.00266567
8.61972e-05
-0.00304791
6.2302e-05
-0.00329971
2.37931e-05
-0.00346151
-2.5093e-05
-0.00357008
-8.08582e-05
-0.0036527
-0.000141221
-0.00372633
-0.000204936
-0.00380005
-0.00027147
-0.00387796
-0.000340679
-0.00396169
-0.000412615
-0.0040518
-0.000487435
-0.00414859
-0.00056536
-0.00425245
-0.000646615
-0.00436403
-0.000731313
-0.00448417
-0.000819323
-0.00461324
-0.00091024
-0.00475011
-0.00489229
-0.00100368
1.55165e-05
-0.000540365
4.10814e-05
-0.00142743
6.03997e-05
-0.00213994
6.36631e-05
-0.00266893
4.77387e-05
-0.00303198
1.43698e-05
-0.00326634
-3.25808e-05
-0.00341456
-8.89074e-05
-0.00351376
-0.000151408
-0.00359019
-0.000218088
-0.00365965
-0.000287925
-0.00373021
-0.000360521
-0.00380536
-0.000435804
-0.0038864
-0.000513864
-0.00397374
-0.000594886
-0.00406757
-0.000679129
-0.0041682
-0.00076689
-0.00427627
-0.00085838
-0.00439268
-0.000953545
-0.00451808
-0.00105191
-0.00465175
-0.00479137
-0.00115283
1.30267e-05
-0.000553391
3.21396e-05
-0.00144654
4.24435e-05
-0.00215025
3.56389e-05
-0.00266213
9.92951e-06
-0.00300628
-3.25795e-05
-0.00322383
-8.75183e-05
-0.00335962
-0.000150934
-0.00345034
-0.000219911
-0.00352122
-0.000292717
-0.00358685
-0.000368524
-0.0036544
-0.000447047
-0.00372684
-0.000528269
-0.00380518
-0.000612306
-0.0038897
-0.000699361
-0.00398051
-0.000789721
-0.00407784
-0.000883749
-0.00418224
-0.000981779
-0.00429465
-0.00108388
-0.00441598
-0.00118953
-0.0045461
-0.00468311
-0.00129779
1.04459e-05
-0.000563837
2.30322e-05
-0.00145913
2.44457e-05
-0.00215166
8.06443e-06
-0.00264575
-2.73555e-05
-0.00297086
-7.83945e-05
-0.00317279
-0.000140902
-0.00329711
-0.000211085
-0.00338016
-0.000286296
-0.00344601
-0.000365046
-0.0035081
-0.000446673
-0.00357277
-0.000530981
-0.00364253
-0.000617999
-0.00371816