/*--------------------------------*- C++ -*----------------------------------*\
  =========                 |
  \\      /  F ield         | OpenFOAM: The Open Source CFD Toolbox
   \\    /   O peration     | Website:  https://openfoam.org
    \\  /    A nd           | Version:  7
     \\/     M anipulation  |
\*---------------------------------------------------------------------------*/
FoamFile
{
    version     2.0;
    format      ascii;
    class       volScalarField;
    location    "15";
    object      p;
}
// * * * * * * * * * * * * * * * * * * * * * * * * * * * * * * * * * * * * * //

dimensions      [0 2 -2 0 0 0 0];

internalField   nonuniform List<scalar> 
928
(
-0.591043
-0.582
-0.573647
-0.59455
-0.585336
-0.576839
-0.569077
-0.561371
-0.553648
-0.545941
-0.538236
-0.597407
-0.588039
-0.579418
-0.571556
-0.563758
-0.555948
-0.548153
-0.540357
-0.53253
-0.524646
-0.516682
-0.508612
-0.500412
-0.599557
-0.590057
-0.58133
-0.573386
-0.565513
-0.557631
-0.549765
-0.541891
-0.533978
-0.525995
-0.517916
-0.509712
-0.501356
-0.492822
-0.484083
-0.475115
-0.465896
-0.456406
-0.446625
-0.600944
-0.591335
-0.582523
-0.574515
-0.566586
-0.558649
-0.550725
-0.542788
-0.5348
-0.526729
-0.518543
-0.51021
-0.501702
-0.492988
-0.484041
-0.474836
-0.46535
-0.455563
-0.445458
-0.435022
-0.424247
-0.413129
-0.40167
-0.389879
-0.601512
-0.591818
-0.582943
-0.574891
-0.566925
-0.55895
-0.550985
-0.542998
-0.534948
-0.526798
-0.518513
-0.510058
-0.5014
-0.492509
-0.483356
-0.473915
-0.464162
-0.454078
-0.443648
-0.432863
-0.421718
-0.410213
-0.398356
-0.386161
-0.37365
-0.360847
-0.347765
-0.33449
-0.321359
-0.307669
-0.601204
-0.591451
-0.582537
-0.574462
-0.566477
-0.558484
-0.550493
-0.542471
-0.534372
-0.526153
-0.517777
-0.509205
-0.500404
-0.491339
-0.481982
-0.472305
-0.462286
-0.451907
-0.441156
-0.430026
-0.418516
-0.406633
-0.39439
-0.381807
-0.368912
-0.355738
-0.34231
-0.328713
-0.315226
-0.301277
-0.599967
-0.590181
-0.581253
-0.573177
-0.565193
-0.557199
-0.5492
-0.541158
-0.533021
-0.524745
-0.516286
-0.507606
-0.498665
-0.489431
-0.479872
-0.469962
-0.459679
-0.449009
-0.43794
-0.426471
-0.414606
-0.402356
-0.389741
-0.376787
-0.363531
-0.35001
-0.336263
-0.322373
-0.308564
-0.2944
-0.555046
-0.547057
-0.539009
-0.530848
-0.522525
-0.513994
-0.505211
-0.496138
-0.486738
-0.476982
-0.466843
-0.456301
-0.445343
-0.433964
-0.422165
-0.409954
-0.397351
-0.384381
-0.371077
-0.357482
-0.343642
-0.329605
-0.315453
-0.301356
-0.287021
-0.307936
-0.293588
-0.279122
-0.322318
-0.307936
-0.293588
-0.279122
-0.563022
-0.555046
-0.547057
-0.539009
-0.530848
-0.522525
-0.513993
-0.505211
-0.496138
-0.486738
-0.476982
-0.466842
-0.456301
-0.445343
-0.433964
-0.422164
-0.409954
-0.397351
-0.384381
-0.371077
-0.357482
-0.343642
-0.329605
-0.315453
-0.301356
-0.287021
-0.599967
-0.590181
-0.581253
-0.573177
-0.565193
-0.557199
-0.5492
-0.541158
-0.533021
-0.524744
-0.516286
-0.507605
-0.498665
-0.489431
-0.479872
-0.469962
-0.459679
-0.449009
-0.43794
-0.426471
-0.414606
-0.402356
-0.389741
-0.376787
-0.363531
-0.35001
-0.336263
-0.322373
-0.308564
-0.2944
-0.601204
-0.591451
-0.582537
-0.574462
-0.566477
-0.558483
-0.550493
-0.542471
-0.534371
-0.526153
-0.517777
-0.509205
-0.500404
-0.491339
-0.481982
-0.472305
-0.462286
-0.451907
-0.441156
-0.430025
-0.418516
-0.406633
-0.39439
-0.381807
-0.368912
-0.355738
-0.34231
-0.328713
-0.315226
-0.301277
-0.601511
-0.591818
-0.582943
-0.574891
-0.566925
-0.55895
-0.550985
-0.542998
-0.534948
-0.526798
-0.518513
-0.510058
-0.5014
-0.492509
-0.483356
-0.473915
-0.464162
-0.454078
-0.443648
-0.432863
-0.421718
-0.410213
-0.398356
-0.386161
-0.37365
-0.360846
-0.347765
-0.33449
-0.321359
-0.307669
-0.600944
-0.591335
-0.582523
-0.574515
-0.566586
-0.558649
-0.550725
-0.542788
-0.5348
-0.526729
-0.518543
-0.51021
-0.501702
-0.492988
-0.484041
-0.474836
-0.46535
-0.455563
-0.445458
-0.435022
-0.424246
-0.413128
-0.40167
-0.389878
-0.599557
-0.590057
-0.58133
-0.573386
-0.565513
-0.557631
-0.549764
-0.541891
-0.533978
-0.525995
-0.517916
-0.509712
-0.501356
-0.492822
-0.484083
-0.475115
-0.465896
-0.456406
-0.597407
-0.588039
-0.579417
-0.571555
-0.563757
-0.555947
-0.548153
-0.540357
-0.53253
-0.524646
-0.516682
-0.508612
-0.500412
-0.59455
-0.585335
-0.576839
-0.569077
-0.56137
-0.553648
-0.545941
-0.538235
-0.591043
-0.582
-0.573647
-0.282085
-0.261569
-0.241059
-0.222287
-0.205445
-0.190192
-0.176368
-0.163815
-0.15238
-0.14193
-0.13235
-0.123542
-0.115422
-0.10792
-0.100974
-0.0945326
-0.0885497
-0.0829854
-0.0778046
-0.0729759
-0.0684709
-0.0642646
-0.0603341
-0.0566586
-0.0532195
-0.0499997
-0.0469838
-0.0441577
-0.0415083
-0.0390241
-0.0366942
-0.0345088
-0.0324589
-0.0305364
-0.0287335
-0.0270435
-0.02546
-0.0239772
-0.0225897
-0.0212926
-0.0200814
-0.0189521
-0.0179008
-0.016924
-0.0160186
-0.0151818
-0.0144108
-0.0137033
-0.0130571
-0.0124702
-0.0119409
-0.0114676
-0.0110489
-0.0106835
-0.0103705
-0.0101089
-0.00989791
-0.00973715
-0.00962579
-0.0095623
-0.27679
-0.255532
-0.234942
-0.216225
-0.19948
-0.184384
-0.17075
-0.158404
-0.147185
-0.136952
-0.127586
-0.118987
-0.111068
-0.103759
-0.096997
-0.0907296
-0.0849115
-0.0795027
-0.0744682
-0.0697769
-0.0654011
-0.0613158
-0.0574987
-0.0539294
-0.0505899
-0.0474633
-0.0445347
-0.0417902
-0.0392174
-0.0368049
-0.0345422
-0.0324197
-0.0304288
-0.0285615
-0.0268104
-0.0251689
-0.0236308
-0.0221904
-0.0208426
-0.0195827
-0.0184062
-0.0173092
-0.0162881
-0.0153394
-0.0144601
-0.0136474
-0.0128988
-0.0122119
-0.0115846
-0.011015
-0.0105015
-0.0100424
-0.0096365
-0.00928253
-0.00897948
-0.0087265
-0.00852285
-0.0083681
-0.00826145
-0.00820182
-0.270995
-0.249139
-0.228545
-0.209941
-0.193344
-0.178441
-0.165025
-0.152908
-0.141921
-0.131917
-0.122776
-0.114393
-0.106681
-0.0995689
-0.092994
-0.0869035
-0.0812523
-0.0760006
-0.0711138
-0.0665611
-0.0623152
-0.0583517
-0.0546487
-0.0511863
-0.0479468
-0.0449138
-0.0420728
-0.0394104
-0.0369145
-0.034574
-0.0323787
-0.0303194
-0.0283876
-0.0265757
-0.0248766
-0.0232837
-0.0217911
-0.0203934
-0.0190855
-0.0178628
-0.0167212
-0.0156567
-0.0146658
-0.0137453
-0.0128923
-0.0121039
-0.0113777
-0.0107115
-0.0101032
-0.0095511
-0.0090534
-0.00860869
-0.00821565
-0.00787314
-0.00758018
-0.00733594
-0.0071397
-0.00699104
-0.00688922
-0.00683356
-0.264689
-0.242377
-0.221859
-0.203431
-0.187031
-0.17236
-0.15919
-0.147324
-0.136585
-0.126825
-0.117917
-0.109758
-0.102259
-0.0953489
-0.0889646
-0.083054
-0.0775719
-0.0724791
-0.0677414
-0.0633286
-0.0592137
-0.0553728
-0.0517846
-0.0484296
-0.0452906
-0.0423516
-0.0395988
-0.0370188
-0.0346001
-0.0323318
-0.0302042
-0.0282083
-0.026336
-0.0245797
-0.0229327
-0.0213886
-0.0199417
-0.0185867
-0.0173188
-0.0161336
-0.0150269
-0.013995
-0.0130346
-0.0121424
-0.0113156
-0.0105516
-0.00984797
-0.00920258
-0.00861345
-0.00807881
-0.00759706
-0.00716678
-0.00678671
-0.00645576
-0.00617297
-0.00593754
-0.00574881
-0.00560633
-0.00550941
-0.00545781
-0.257862
-0.235235
-0.214879
-0.196687
-0.180536
-0.166135
-0.153241
-0.141649
-0.131177
-0.121672
-0.113009
-0.105081
-0.0978019
-0.0910982
-0.0849085
-0.0791806
-0.0738703
-0.0689383
-0.0643514
-0.0600796
-0.0560967
-0.0523794
-0.257862
-0.235235
-0.214879
-0.196687
-0.180536
-0.166135
-0.153241
-0.141649
-0.131177
-0.121672
-0.113009
-0.105081
-0.0978019
-0.0910981
-0.0849085
-0.0791806
-0.0738702
-0.0689382
-0.0643513
-0.0600796
-0.0560967
-0.0523794
-0.0489067
-0.0456597
-0.0426219
-0.0397774
-0.0371131
-0.0346159
-0.0322747
-0.030079
-0.0280193
-0.0260871
-0.0242743
-0.0225739
-0.0209792
-0.0194841
-0.0180831
-0.016771
-0.0155432
-0.0143955
-0.0133239
-0.0123248
-0.0113948
-0.010531
-0.00973063
-0.00899109
-0.00831012
-0.00768562
-0.00711569
-0.00659863
-0.00613289
-0.00571713
-0.00535011
-0.00503078
-0.00475823
-0.00453169
-0.00435052
-0.00421428
-0.00412234
-0.00407489
-0.264689
-0.242377
-0.221859
-0.203431
-0.187031
-0.172359
-0.15919
-0.147324
-0.136585
-0.126825
-0.117917
-0.109758
-0.102259
-0.0953489
-0.0889646
-0.0830539
-0.0775719
-0.0724791
-0.0677414
-0.0633285
-0.0592137
-0.0553728
-0.0517846
-0.0484296
-0.0452906
-0.0423516
-0.0395988
-0.0370188
-0.0346001
-0.0323318
-0.0302042
-0.0282083
-0.0263359
-0.0245797
-0.0229327
-0.0213886
-0.0199417
-0.0185867
-0.0173188
-0.0161336
-0.0150269
-0.013995
-0.0130346
-0.0121424
-0.0113156
-0.0105516
-0.00984796
-0.00920257
-0.00861345
-0.0080788
-0.00759705
-0.00716677
-0.00678671
-0.00645576
-0.00617297
-0.00593754
-0.0057488
-0.00560632
-0.0055094
-0.00545781
-0.270995
-0.249139
-0.228545
-0.209941
-0.193344
-0.178441
-0.165025
-0.152908
-0.14192
-0.131917
-0.122776
-0.114393
-0.106681
-0.0995689
-0.0929939
-0.0869035
-0.0812523
-0.0760005
-0.0711137
-0.066561
-0.0623152
-0.0583517
-0.0546487
-0.0511863
-0.0479467
-0.0449137
-0.0420728
-0.0394104
-0.0369145
-0.0345739
-0.0323786
-0.0303194
-0.0283876
-0.0265757
-0.0248766
-0.0232837
-0.0217911
-0.0203934
-0.0190855
-0.0178628
-0.0167212
-0.0156567
-0.0146658
-0.0137453
-0.0128922
-0.0121039
-0.0113777
-0.0107115
-0.0101032
-0.00955109
-0.0090534
-0.00860868
-0.00821565
-0.00787314
-0.00758018
-0.00733593
-0.0071397
-0.00699104
-0.00688921
-0.00683355
-0.27679
-0.255532
-0.234942
-0.216225
-0.19948
-0.184384
-0.17075
-0.158404
-0.147185
-0.136952
-0.127586
-0.118987
-0.111068
-0.103759
-0.0969969
-0.0907296
-0.0849115
-0.0795027
-0.0744682
-0.0697769
-0.065401
-0.0613157
-0.0574986
-0.0539294
-0.0505899
-0.0474633
-0.0445347
-0.0417902
-0.0392174
-0.0368049
-0.0345422
-0.0324197
-0.0304288
-0.0285615
-0.0268104
-0.0251689
-0.0236308
-0.0221904
-0.0208426
-0.0195827
-0.0184062
-0.0173092
-0.0162881
-0.0153394
-0.0144601
-0.0136474
-0.0128988
-0.0122119
-0.0115846
-0.011015
-0.0105015
-0.0100424
-0.0096365
-0.00928252
-0.00897948
-0.0087265
-0.00852285
-0.00836809
-0.00826145
-0.00820182
-0.190192
-0.176368
-0.163815
-0.15238
-0.14193
-0.13235
-0.123542
-0.115422
-0.10792
-0.100974
-0.0945326
-0.0885496
-0.0829854
-0.0778046
-0.0729758
-0.0684709
-0.0642646
-0.0603341
-0.0566586
-0.0532195
-0.0499997
-0.0469838
-0.0441576
-0.0415083
-0.0390241
-0.0366942
-0.0345088
-0.0324589
-0.0305363
-0.0287335
-0.0270435
-0.02546
-0.0239772
-0.0225897
-0.0212926
-0.0200814
-0.0189521
-0.0179008
-0.016924
-0.0160186
-0.0151818
-0.0144108
-0.0137033
-0.0130571
-0.0124702
-0.0119409
-0.0114676
-0.0110489
-0.0106835
-0.0103705
-0.0101089
-0.0098979
-0.00973715
-0.00962579
-0.00956229
)
;

boundaryField
{
    inlet
    {
        type            zeroGradient;
    }
    outlet
    {
        type            fixedValue;
        value           nonuniform 0();
    }
    cylinder
    {
        type            zeroGradient;
    }
    top
    {
        type            symmetryPlane;
    }
    bottom
    {
        type            symmetryPlane;
    }
    defaultFaces
    {
        type            empty;
    }
    procBoundary10to9
    {
        type            processor;
        value           nonuniform List<scalar> 
185
(
-0.597746
-0.587956
-0.579039
-0.570983
-0.563022
-0.563022
-0.551978
-0.544015
-0.535978
-0.527806
-0.519447
-0.510852
-0.501976
-0.492776
-0.483217
-0.473269
-0.462906
-0.45211
-0.440873
-0.429192
-0.417072
-0.404531
-0.391591
-0.378285
-0.364654
-0.350745
-0.336614
-0.322318
-0.322318
-0.29981
-0.285247
-0.270692
-0.314388
-0.29981
-0.285247
-0.270692
-0.559916
-0.551978
-0.544015
-0.535978
-0.527806
-0.519447
-0.510852
-0.501975
-0.492776
-0.483217
-0.473269
-0.462905
-0.45211
-0.440873
-0.429191
-0.417072
-0.404531
-0.391591
-0.378285
-0.364653
-0.350745
-0.336614
-0.336614
-0.597746
-0.587956
-0.579039
-0.570983
-0.570983
-0.0489068
-0.0456598
-0.0426219
-0.0397775
-0.0371131
-0.0346159
-0.0322747
-0.030079
-0.0280193
-0.0260871
-0.0242743
-0.0225739
-0.0209792
-0.0194841
-0.0180831
-0.016771
-0.0155432
-0.0143956
-0.0133239
-0.0123248
-0.0113948
-0.010531
-0.00973063
-0.0089911
-0.00831012
-0.00768562
-0.00711569
-0.00659863
-0.0061329
-0.00571713
-0.00535011
-0.00503078
-0.00475824
-0.00453169
-0.00435052
-0.00421429
-0.00412234
-0.00407489
-0.250506
-0.227705
-0.207598
-0.189707
-0.173856
-0.159764
-0.147176
-0.135881
-0.125692
-0.116458
-0.108049
-0.100362
-0.093308
-0.0868161
-0.0808252
-0.0752833
-0.0701472
-0.0653781
-0.0609437
-0.0568144
-0.0529648
-0.0489068
-0.0493719
-0.250506
-0.227705
-0.207598
-0.189706
-0.173856
-0.159764
-0.147176
-0.135881
-0.125692
-0.116458
-0.108049
-0.100361
-0.093308
-0.0868161
-0.0808251
-0.0752833
-0.0701472
-0.0653781
-0.0609436
-0.0568144
-0.0529647
-0.0493719
-0.0460156
-0.0428773
-0.0399411
-0.0371917
-0.0346163
-0.0322023
-0.0299389
-0.0278161
-0.0258246
-0.0239563
-0.0222034
-0.020559
-0.0190167
-0.0175708
-0.0162158
-0.0149468
-0.0137593
-0.0126493
-0.0116127
-0.0106465
-0.00974712
-0.00891182
-0.00813789
-0.00742291
-0.00676465
-0.0061611
-0.00561045
-0.00511103
-0.00466138
-0.00426018
-0.00390626
-0.00359862
-0.00333636
-0.00311876
-0.00294521
-0.00281528
-0.00272836
-0.00268511
)
;
    }
    procBoundary10to11
    {
        type            processor;
        value           nonuniform List<scalar> 
192
(
-0.586939
-0.578086
-0.569894
-0.566002
-0.566002
-0.558403
-0.550784
-0.543179
-0.535576
-0.530506
-0.530506
-0.52273
-0.514888
-0.506958
-0.498918
-0.492059
-0.492059
-0.483529
-0.474798
-0.465845
-0.456649
-0.447192
-0.43654
-0.43654
-0.426139
-0.415414
-0.404363
-0.392988
-0.377769
-0.377769
-0.365359
-0.35265
-0.339725
-0.326984
-0.313597
-0.377769
-0.365359
-0.35265
-0.339724
-0.326984
-0.313597
-0.282085
-0.446625
-0.43654
-0.426139
-0.415414
-0.404363
-0.377769
-0.392988
-0.492059
-0.483528
-0.474797
-0.465844
-0.446625
-0.456649
-0.530506
-0.52273
-0.514888
-0.506958
-0.492059
-0.498918
-0.566002
-0.558403
-0.550784
-0.543178
-0.530506
-0.535576
-0.586939
-0.578086
-0.566002
-0.569893
-0.286897
-0.267265
-0.246906
-0.228137
-0.211244
-0.195871
-0.181885
-0.169146
-0.157511
-0.146855
-0.13707
-0.128059
-0.119744
-0.112053
-0.104926
-0.0983128
-0.0921671
-0.0864489
-0.0811231
-0.0761578
-0.0715246
-0.067198
-0.0631546
-0.0593734
-0.0558352
-0.0525226
-0.0494198
-0.0465122
-0.0437866
-0.0412309
-0.0388341
-0.036586
-0.0344774
-0.0324998
-0.0306454
-0.0289071
-0.0272784
-0.0257533
-0.0243262
-0.0229921
-0.0217464
-0.0205848
-0.0195034
-0.0184987
-0.0175674
-0.0167065
-0.0159133
-0.0151853
-0.0145202
-0.0139161
-0.0133712
-0.0128837
-0.0124523
-0.0120757
-0.0117528
-0.0114827
-0.0112645
-0.0110979
-0.0109819
-0.0109147
-0.282085
-0.261569
-0.241059
-0.222287
-0.205445
-0.205445
-0.195871
-0.181885
-0.169146
-0.157511
-0.146855
-0.137069
-0.128059
-0.119744
-0.112052
-0.104926
-0.0983128
-0.092167
-0.0864489
-0.081123
-0.0761577
-0.0715246
-0.0671979
-0.0631546
-0.0593733
-0.0558352
-0.0525226
-0.0494198
-0.0465122
-0.0437866
-0.0412309
-0.0388341
-0.036586
-0.0344774
-0.0324998
-0.0306454
-0.0289071
-0.0272784
-0.0257533
-0.0243262
-0.0229921
-0.0217464
-0.0205848
-0.0195034
-0.0184987
-0.0175674
-0.0167065
-0.0159133
-0.0151853
-0.0145202
-0.0139161
-0.0133712
-0.0128837
-0.0124523
-0.0120757
-0.0117528
-0.0114827
-0.0112645
-0.0110979
-0.0109819
-0.0109147
)
;
    }
}


// ************************************************************************* //
