/*--------------------------------*- C++ -*----------------------------------*\
  =========                 |
  \\      /  F ield         | OpenFOAM: The Open Source CFD Toolbox
   \\    /   O peration     | Website:  https://openfoam.org
    \\  /    A nd           | Version:  7
     \\/     M anipulation  |
\*---------------------------------------------------------------------------*/
FoamFile
{
    version     2.0;
    format      ascii;
    class       volVectorField;
    location    "50";
    object      U;
}
// * * * * * * * * * * * * * * * * * * * * * * * * * * * * * * * * * * * * * //

dimensions      [0 1 -1 0 0 0 0];

internalField   nonuniform List<vector> 
392
(
(0.504757 -0.00100755 -7.6049e-23)
(0.509598 -0.000987952 2.46385e-23)
(0.514349 -0.000968835 3.31723e-23)
(0.505593 -0.00301965 -1.41226e-22)
(0.510419 -0.00296094 1.35034e-22)
(0.515156 -0.00290366 -3.69179e-23)
(0.507259 -0.00502275 2.02629e-22)
(0.512058 -0.00492514 8.0445e-23)
(0.516768 -0.00482991 -7.9891e-23)
(0.509749 -0.00701088 4.45711e-22)
(0.514506 -0.00687475 -2.1817e-22)
(0.519175 -0.00674195 -1.26789e-22)
(0.51305 -0.00897823 -3.20051e-22)
(0.517751 -0.00880409 -8.25403e-22)
(0.522366 -0.0086342 1.78462e-22)
(0.517146 -0.0109191 -1.15401e-21)
(0.521779 -0.0107076 -1.14189e-22)
(0.526327 -0.0105013 -2.58881e-23)
(0.522017 -0.0128279 -5.07505e-22)
(0.526569 -0.0125799 9.81543e-22)
(0.531037 -0.0123379 1.27576e-22)
(0.52764 -0.0146994 -7.08211e-23)
(0.532098 -0.0144157 -6.35322e-22)
(0.536475 -0.0141389 -3.02151e-23)
(0.533988 -0.0165285 -6.10107e-22)
(0.538341 -0.0162102 1.09339e-21)
(0.542616 -0.0158997 2.356e-22)
(0.54103 -0.0183105 1.84008e-21)
(0.545268 -0.0179587 -1.60224e-21)
(0.54943 -0.0176155 -1.27283e-22)
(0.548735 -0.0200407 2.76414e-22)
(0.552847 -0.0196568 1.78086e-22)
(0.556887 -0.0192821 6.76929e-22)
(0.557066 -0.0217152 -2.41502e-22)
(0.561044 -0.0213004 -4.1203e-22)
(0.564952 -0.0208955 -1.36952e-21)
(0.565986 -0.02333 -1.08887e-21)
(0.569821 -0.0228858 -6.33171e-22)
(0.573589 -0.0224522 1.22433e-22)
(0.575455 -0.0248818 -5.15334e-22)
(0.579139 -0.0244096 -1.36045e-21)
(0.582761 -0.0239487 1.14174e-21)
(0.585431 -0.0263675 1.83454e-22)
(0.588959 -0.0258689 1.10072e-21)
(0.592427 -0.0253822 -9.60595e-22)
(0.595836 -0.0249071 -1.69481e-23)
(0.599237 -0.0272611 2.25092e-21)
(0.602546 -0.0267501 -9.58988e-22)
(0.605801 -0.0262513 -3.45705e-22)
(0.609931 -0.0285839 -4.11026e-22)
(0.613077 -0.0280502 2.17824e-21)
(0.616172 -0.0275293 -1.38612e-21)
(0.620997 -0.0298356 8.78457e-22)
(0.623976 -0.0292809 4.33591e-22)
(0.626908 -0.0287393 -5.93474e-22)
(0.63239 -0.0310148 4.3431e-22)
(0.6352 -0.0304406 1.20889e-21)
(0.637966 -0.02988 -1.6128e-21)
(0.644066 -0.0321203 -1.39193e-21)
(0.646705 -0.0315283 -1.67535e-23)
(0.649304 -0.0309502 2.23329e-21)
(0.65598 -0.033151 -3.17454e-21)
(0.658448 -0.0325428 6.09667e-22)
(0.660879 -0.0319488 7.59592e-22)
(0.668089 -0.0341075 5.19803e-23)
(0.670385 -0.0334847 -1.49289e-21)
(0.672649 -0.0328764 -7.8454e-23)
(0.68035 -0.0349965 -8.2941e-22)
(0.682475 -0.0343603 -1.28941e-21)
(0.684572 -0.0337388 2.98267e-21)
(0.692721 -0.0358179 -4.56337e-21)
(0.694677 -0.0351694 6.01128e-21)
(0.696608 -0.0345359 -2.63925e-21)
(0.71664 -0.0371882 -2.73983e-28)
(0.718296 -0.0365233 2.73985e-28)
(0.719932 -0.0358736 0)
(0.753863 -0.0386759 -2.63175e-28)
(0.755057 -0.0379972 2.63175e-28)
(0.756241 -0.0373337 0)
(0.791744 -0.0397023 0)
(0.792486 -0.039018 0)
(0.793227 -0.0383486 0)
(0.829648 -0.0402562 0)
(0.82996 -0.0395751 0)
(0.830278 -0.0389085 0)
(0.866981 -0.0403602 0)
(0.866893 -0.0396906 0)
(0.866819 -0.0390347 0)
(0.903204 -0.0400539 0)
(0.902755 -0.0394029 0)
(0.902325 -0.0387647 0)
(0.937848 -0.0393825 0)
(0.937081 -0.038756 0)
(0.936339 -0.0381412 0)
(0.970521 -0.0383961 0)
(0.969485 -0.0377987 0)
(0.968477 -0.037212 0)
(1.00091 -0.037148 1.64981e-28)
(0.999659 -0.0365831 0)
(0.998434 -0.0360276 -2.31961e-28)
(1.02881 -0.0356926 -1.64981e-28)
(1.02738 -0.035162 0)
(1.02599 -0.0346396 2.31961e-28)
(1.05406 -0.0340826 0)
(1.05251 -0.0335871 0)
(1.051 -0.0330987 0)
(1.07661 -0.0323679 -3.79283e-28)
(1.07499 -0.0319073 3.79283e-28)
(1.07339 -0.0314527 0)
(1.09648 -0.0305938 9.63524e-29)
(1.09482 -0.0301668 -9.63524e-29)
(1.09319 -0.0297449 0)
(1.09158 -0.0293283 0)
(1.11375 -0.0287995 0)
(1.11208 -0.0284045 0)
(1.11044 -0.0280136 0)
(1.10883 -0.0276272 0)
(1.12853 -0.0270181 1.82601e-28)
(1.12689 -0.0266529 0)
(1.12527 -0.0262909 -2.57889e-28)
(1.12368 -0.0259327 0)
(1.14101 -0.0252761 -1.82601e-28)
(1.13941 -0.0249381 0)
(1.13784 -0.0246027 2.57889e-28)
(1.13629 -0.0242705 0)
(1.15138 -0.023593 -1.96645e-28)
(1.14984 -0.0232799 1.96645e-28)
(1.14832 -0.0229688 0)
(1.14683 -0.0226602 0)
(1.15984 -0.0219826 3.21374e-28)
(1.15837 -0.0216919 -3.21374e-28)
(1.15693 -0.0214028 0)
(1.1555 -0.0211157 0)
(1.16523 -0.0201826 4.28676e-28)
(1.16386 -0.0199134 0)
(1.16251 -0.0196457 0)
(1.17063 -0.0187558 -4.28676e-28)
(1.16934 -0.0185046 0)
(1.16806 -0.0182545 0)
(1.17478 -0.0174115 0)
(1.17356 -0.0171767 0)
(1.17235 -0.0169428 0)
(1.17786 -0.0161469 0)
(1.17671 -0.0159272 0)
(1.17558 -0.0157082 0)
(1.18007 -0.0149572 0)
(1.17899 -0.0147515 1.23104e-28)
(1.17792 -0.0145464 -4.52619e-28)
(1.18155 -0.0138359 0)
(1.18053 -0.0136436 -1.23104e-28)
(1.17953 -0.0134516 4.52619e-28)
(1.18246 -0.0127762 -4.90692e-28)
(1.1815 -0.0125967 1.25341e-28)
(1.18054 -0.0124172 0)
(1.18292 -0.0117707 4.90692e-28)
(1.182 -0.0116036 -1.25341e-28)
(1.18109 -0.0114363 0)
(1.18302 -0.0108124 0)
(1.18215 -0.0106573 0)
(1.18128 -0.010502 0)
(1.18287 -0.00989444 0)
(1.18203 -0.00975124 0)
(1.1812 -0.00960774 0)
(1.18254 -0.0090106 -3.56353e-28)
(1.18172 -0.00887918 0)
(1.18092 -0.00874736 0)
(1.18208 -0.00815532 2.22294e-28)
(1.18129 -0.00803558 0)
(1.18051 -0.00791539 0)
(1.18155 -0.00732369 0)
(1.18078 -0.00721558 0)
(1.18003 -0.00710698 0)
(1.18099 -0.00651147 1.27421e-28)
(1.18024 -0.00641494 0)
(1.1795 -0.0063179 0)
(1.18043 -0.00571505 -6.48313e-28)
(1.17969 -0.00563004 0)
(1.17896 -0.00554453 0)
(1.17989 -0.00493133 0)
(1.17917 -0.0048578 0)
(1.17845 -0.00478379 0)
(1.1794 -0.00415773 0)
(1.17869 -0.00409563 0)
(1.17798 -0.00403309 0)
(1.17898 -0.00339206 0)
(1.17826 -0.00334133 0)
(1.17756 -0.00329022 0)
(1.17862 -0.00263245 -2.27415e-28)
(1.17792 -0.00259305 1.32491e-28)
(1.17722 -0.00255334 0)
(1.17835 -0.00187729 3.67012e-28)
(1.17765 -0.00184918 -1.32491e-28)
(1.17695 -0.00182084 0)
(1.17816 -0.0011252 0)
(1.17746 -0.00110835 0)
(1.17677 -0.00109135 0)
(1.17807 -0.000374879 0)
(1.17737 -0.000369263 0)
(1.17668 -0.0003636 0)
(0.71664 0.0371882 0)
(0.753863 0.0386759 0)
(0.791744 0.0397023 -5.98302e-12)
(0.829648 0.0402562 -1.21564e-11)
(0.866981 0.0403602 -6.18012e-12)
(0.903204 0.0400539 3.40495e-28)
(0.937848 0.0393825 -3.46593e-28)
(0.970521 0.0383961 8.81177e-29)
(1.00091 0.037148 -2.77157e-28)
(1.02881 0.0356926 3.65982e-28)
(1.05406 0.0340826 -9.30424e-29)
(1.07661 0.0323679 0)
(1.09648 0.0305938 9.63524e-29)
(1.11375 0.0287995 -3.92397e-28)
(1.12853 0.0270181 -1.82601e-28)
(1.14101 0.0252761 1.82601e-28)
(1.15138 0.023593 0)
(1.15984 0.0219826 3.21374e-28)
(1.16662 0.020453 -1.50012e-11)
(1.17194 0.0190079 1.50012e-11)
(1.17601 0.0176469 0)
(1.17902 0.0163669 1.18821e-28)
(1.18116 0.0151628 -6.08373e-28)
(1.18259 0.014028 -3.43696e-28)
(1.18344 0.0129554 1.59189e-11)
(1.18385 0.0119374 -1.59189e-11)
(1.18391 0.0109669 0)
(1.18373 0.010037 -6.32881e-28)
(1.18336 0.00914128 -3.10881e-28)
(1.18288 0.00827426 1.76823e-28)
(1.18233 0.00743099 8.24523e-12)
(1.18175 0.00660721 -1.69022e-11)
(1.18118 0.00579929 -8.68935e-12)
(1.18063 0.00500416 0)
(1.18013 0.00421921 -3.65042e-28)
(1.1797 0.00344225 8.76097e-12)
(1.17934 0.00267141 8.77667e-12)
(1.17906 0.00190508 -8.773e-28)
(1.17888 0.00114186 -8.39427e-12)
(1.17878 0.000380428 8.48443e-12)
(0.718296 0.0365233 0)
(0.755057 0.0379972 0)
(0.792486 0.039018 5.98302e-12)
(0.82996 0.0395751 1.21564e-11)
(0.866893 0.0396906 6.18012e-12)
(0.902755 0.0394029 -3.40495e-28)
(0.937081 0.038756 3.46593e-28)
(0.969485 0.0377987 -8.81177e-29)
(0.999659 0.0365831 2.77157e-28)
(1.02738 0.035162 -3.65982e-28)
(1.05251 0.0335871 9.30424e-29)
(1.07499 0.0319073 0)
(1.09482 0.0301668 -9.63524e-29)
(1.11208 0.0284045 3.92397e-28)
(1.12689 0.0266529 0)
(1.13941 0.0249381 0)
(1.14984 0.0232799 0)
(1.15837 0.0216919 -3.21374e-28)
(1.16523 0.0201826 -7.26055e-12)
(1.17063 0.0187558 7.26055e-12)
(1.17478 0.0174115 0)
(1.17786 0.0161469 -1.18821e-28)
(1.18007 0.0149572 6.08373e-28)
(1.18155 0.0138359 3.43696e-28)
(1.18246 0.0127762 7.71957e-12)
(1.18292 0.0117707 -7.71957e-12)
(1.18302 0.0108124 0)
(1.18287 0.00989444 6.32881e-28)
(1.18254 0.0090106 -1.11819e-28)
(1.18208 0.00815532 2.45877e-28)
(1.18155 0.00732369 8.00755e-12)
(1.18099 0.00651147 6.49463e-13)
(1.18043 0.00571505 8.68935e-12)
(1.17989 0.00493133 0)
(1.1794 0.00415773 3.65042e-28)
(1.17898 0.00339206 -8.76097e-12)
(1.17862 0.00263245 -8.77667e-12)
(1.17835 0.00187729 1.38046e-28)
(1.17816 0.0011252 -1.63171e-11)
(1.17807 0.000374879 1.64924e-11)
(0.719932 0.0358736 0)
(0.756241 0.0373337 0)
(0.793227 0.0383486 0)
(0.830278 0.0389085 0)
(0.866819 0.0390347 0)
(0.902325 0.0387647 0)
(0.936339 0.0381413 0)
(0.968477 0.037212 0)
(0.998434 0.0360276 0)
(1.02599 0.0346396 0)
(1.051 0.0330987 0)
(1.07339 0.0314527 0)
(1.09319 0.0297449 0)
(1.11044 0.0280136 0)
(1.12527 0.0262909 2.57889e-28)
(1.13784 0.0246027 -2.57889e-28)
(1.14832 0.0229688 0)
(1.15693 0.0214028 0)
(1.16386 0.0199134 -1.57498e-28)
(1.16934 0.0185046 1.57498e-28)
(1.17356 0.0171767 0)
(1.17671 0.0159272 0)
(1.17899 0.0147515 -1.23104e-28)
(1.18053 0.0136436 1.23104e-28)
(1.1815 0.0125967 1.25341e-28)
(1.182 0.0116036 -1.25341e-28)
(1.18215 0.0106573 0)
(1.18203 0.00975124 0)
(1.18172 0.00887917 0)
(1.18129 0.00803558 0)
(1.18078 0.00721558 0)
(1.18024 0.00641494 0)
(1.17969 0.00563004 -1.31222e-28)
(1.17917 0.0048578 1.31222e-28)
(1.17869 0.00409563 0)
(1.17826 0.00334133 0)
(1.17792 0.00259305 -1.32491e-28)
(1.17765 0.00184918 1.32491e-28)
(1.17746 0.00110835 -7.92637e-12)
(1.17737 0.000369263 8.0115e-12)
(0.692721 0.0358179 4.65667e-21)
(0.694677 0.0351694 -6.00747e-21)
(0.696608 0.0345359 2.64291e-21)
(0.68035 0.0349965 8.33097e-22)
(0.682475 0.0343603 1.3547e-21)
(0.684572 0.0337389 -3.02262e-21)
(0.668089 0.0341076 -7.56091e-23)
(0.670385 0.0334847 1.50134e-21)
(0.672649 0.0328764 1.74536e-22)
(0.65598 0.033151 3.20059e-21)
(0.658448 0.0325428 -6.9714e-22)
(0.660879 0.0319488 -8.33279e-22)
(0.644066 0.0321203 -3.69144e-22)
(0.646705 0.0315283 1.80114e-21)
(0.649304 0.0309502 -2.04474e-21)
(0.63239 0.0310148 1.39163e-21)
(0.6352 0.0304406 -1.11147e-21)
(0.637966 0.02988 1.73974e-21)
(0.620997 0.0298356 -9.76475e-22)
(0.623976 0.0292809 -5.91964e-22)
(0.626908 0.0287393 4.94795e-22)
(0.609931 0.0285839 8.81399e-23)
(0.613077 0.0280503 -2.18896e-21)
(0.616172 0.0275293 8.87154e-22)
(0.599237 0.0272611 -1.63761e-21)
(0.602546 0.0267501 9.98442e-22)
(0.605801 0.0262513 9.12773e-22)
(0.585431 0.0263675 1.28745e-22)
(0.588959 0.0258689 -1.45342e-21)
(0.592427 0.0253822 1.36503e-21)
(0.595836 0.0249071 -4.61932e-22)
(0.575455 0.0248818 2.78201e-22)
(0.579139 0.0244096 1.06793e-21)
(0.582761 0.0239487 -1.36114e-21)
(0.565986 0.02333 6.88611e-22)
(0.569821 0.0228858 9.92101e-22)
(0.573589 0.0224522 -3.7637e-22)
(0.557066 0.0217152 8.60254e-22)
(0.561044 0.0213004 5.90513e-22)
(0.564952 0.0208956 1.35535e-21)
(0.548735 0.0200407 -2.16265e-22)
(0.552847 0.0196568 -3.12066e-22)
(0.556887 0.0192821 1.15382e-21)
(0.54103 0.0183105 -2.2619e-21)
(0.545268 0.0179587 1.21841e-21)
(0.54943 0.0176155 -2.39385e-23)
(0.533988 0.0165285 8.33699e-22)
(0.538341 0.0162103 -7.15888e-22)
(0.542616 0.0158997 -9.47302e-23)
(0.52764 0.0146994 -7.89575e-23)
(0.532098 0.0144158 5.95746e-22)
(0.536475 0.014139 8.20199e-23)
(0.522017 0.0128279 5.81166e-22)
(0.526569 0.0125799 -9.86446e-22)
(0.531037 0.0123379 7.44745e-22)
(0.517146 0.0109191 9.90149e-22)
(0.521779 0.0107076 9.8755e-23)
(0.526327 0.0105013 8.38032e-23)
(0.51305 0.00897825 2.47566e-22)
(0.517751 0.00880411 9.9445e-22)
(0.522366 0.00863422 -4.90188e-22)
(0.509749 0.0070109 -2.68078e-22)
(0.514506 0.00687477 4.9865e-23)
(0.519175 0.00674196 2.97652e-22)
(0.507259 0.00502276 -2.28493e-22)
(0.512058 0.00492515 -5.61251e-23)
(0.516768 0.00482993 1.35687e-22)
(0.505593 0.00301967 1.53421e-22)
(0.510419 0.00296096 -1.68794e-22)
(0.515156 0.00290368 2.34771e-23)
(0.504757 0.00100757 7.0147e-23)
(0.509598 0.00098797 7.59202e-26)
(0.514349 0.000968852 1.16241e-24)
)
;

boundaryField
{
    inlet
    {
        type            uniformFixedValue;
        uniformValue    constant (1 0 0);
        value           nonuniform 0();
    }
    outlet
    {
        type            pressureInletOutletVelocity;
        value           nonuniform 0();
    }
    cylinder
    {
        type            fixedValue;
        value           nonuniform 0();
    }
    top
    {
        type            symmetryPlane;
    }
    bottom
    {
        type            symmetryPlane;
    }
    defaultFaces
    {
        type            empty;
    }
    procBoundary47to46
    {
        type            processor;
        value           nonuniform List<vector> 
131
(
(0.499825 -0.00102764 2.99496e-24)
(0.500675 -0.00307984 1.25713e-24)
(0.50237 -0.0051228 4.16072e-22)
(0.504903 -0.00715042 -3.88925e-22)
(0.508261 -0.00915671 -1.69328e-22)
(0.512427 -0.0111358 -1.41318e-21)
(0.517381 -0.0130821 9.35061e-23)
(0.523099 -0.0149902 -1.02585e-21)
(0.529554 -0.0168547 4.81092e-22)
(0.536715 -0.0186709 2.15639e-21)
(0.544548 -0.0204342 1.26722e-22)
(0.553017 -0.0221402 -5.11429e-22)
(0.562083 -0.0237852 -1.83639e-21)
(0.571706 -0.0253656 -4.78183e-22)
(0.581843 -0.0268783 -1.32255e-21)
(0.595872 -0.0277845 -3.14066e-22)
(0.595872 -0.0277845 -3.14066e-22)
(0.606733 -0.0291305 2.01577e-21)
(0.617969 -0.0304037 1.73894e-21)
(0.629535 -0.0316028 -1.39181e-21)
(0.641386 -0.0327265 3.16717e-23)
(0.653476 -0.0337737 -5.5133e-21)
(0.665761 -0.0347451 1.74222e-21)
(0.678197 -0.0356478 1.51319e-21)
(0.69074 -0.0364817 2.25945e-21)
(0.714966 -0.0378685 0)
(0.75266 -0.03937 0)
(0.791001 -0.0404017 0)
(0.829343 -0.0409518 0)
(0.867083 -0.0410437 0)
(0.903674 -0.0407178 0)
(0.938641 -0.0400208 0)
(0.971587 -0.039004 0)
(1.0022 -0.0377223 -1.50403e-29)
(1.03026 -0.0362312 1.50403e-29)
(1.05564 -0.0345849 0)
(1.07827 -0.0328342 0)
(1.09818 -0.0310253 0)
(1.11544 -0.0291981 0)
(1.1302 -0.0273863 0)
(1.14264 -0.0256161 0)
(1.15294 -0.0239076 0)
(1.16133 -0.0222743 0)
(1.16662 -0.020453 0)
(1.16662 -0.020453 0)
(1.17194 -0.0190079 0)
(1.17601 -0.0176469 0)
(1.17902 -0.0163669 0)
(1.18116 -0.0151628 0)
(1.18259 -0.014028 0)
(1.18344 -0.0129554 0)
(1.18385 -0.0119374 0)
(1.18391 -0.0109669 0)
(1.18373 -0.010037 0)
(1.18336 -0.00914128 -5.39443e-28)
(1.18288 -0.00827426 4.05385e-28)
(1.18233 -0.00743099 0)
(1.18175 -0.00660721 1.27421e-28)
(1.18118 -0.00579929 -6.48313e-28)
(1.18063 -0.00500416 0)
(1.18013 -0.00421921 0)
(1.1797 -0.00344225 0)
(1.17934 -0.00267141 -3.67749e-28)
(1.17906 -0.00190508 5.07345e-28)
(1.17888 -0.00114186 0)
(1.17878 -0.000380428 0)
(0.714966 0.0378685 0)
(0.75266 0.03937 0)
(0.791001 0.0404017 0)
(0.829343 0.0409519 0)
(0.867083 0.0410437 0)
(0.903674 0.0407178 0)
(0.938641 0.0400208 0)
(0.971587 0.039004 0)
(1.0022 0.0377223 0)
(1.03026 0.0362312 0)
(1.05564 0.0345849 0)
(1.07827 0.0328342 0)
(1.09818 0.0310253 0)
(1.11544 0.0291982 0)
(1.1302 0.0273863 0)
(1.14264 0.0256161 0)
(1.15294 0.0239076 0)
(1.16133 0.0222743 0)
(1.16803 0.020724 -1.54931e-11)
(1.17327 0.0192602 1.54931e-11)
(1.17726 0.0178821 0)
(1.1802 0.0165865 0)
(1.18227 0.0153679 0)
(1.18363 0.0142194 0)
(1.18443 0.0131337 1.64084e-11)
(1.18479 0.0121032 -1.64084e-11)
(1.18481 0.0111204 0)
(1.18459 0.0101784 0)
(1.1842 0.00927081 0)
(1.18369 0.00839206 0)
(1.18312 0.00753716 0)
(1.18252 0.00670186 0)
(1.18194 0.00588251 0)
(1.18138 0.00507604 0)
(1.18087 0.00427984 -5.46043e-28)
(1.18043 0.00349173 5.46043e-28)
(1.18007 0.00270981 0)
(1.17979 0.00193246 0)
(1.1796 0.00115827 0)
(1.1795 0.000385894 0)
(0.69074 0.0364817 -2.12097e-21)
(0.678197 0.0356478 -1.55765e-21)
(0.665761 0.0347452 -1.73194e-21)
(0.653476 0.0337737 5.5487e-21)
(0.641386 0.0327265 -1.62689e-23)
(0.629535 0.0316028 -7.85626e-22)
(0.617969 0.0304037 -1.69956e-21)
(0.606733 0.0291305 -2.07309e-21)
(0.595872 0.0277845 4.51197e-22)
(0.595872 0.0277845 4.51197e-22)
(0.581843 0.0268783 -1.15867e-21)
(0.571706 0.0253656 -1.72596e-21)
(0.562083 0.0237852 2.63516e-21)
(0.553017 0.0221402 -1.28595e-22)
(0.544548 0.0204342 4.63342e-22)
(0.536715 0.0186709 -2.4303e-21)
(0.529554 0.0168547 -7.6224e-22)
(0.523099 0.0149902 1.38521e-21)
(0.517381 0.0130822 -2.00327e-22)
(0.512427 0.0111359 1.36054e-21)
(0.508261 0.00915673 -6.28048e-23)
(0.504903 0.00715044 5.80559e-22)
(0.50237 0.00512281 -3.77106e-22)
(0.500675 0.00307986 7.27101e-24)
(0.499825 0.00102765 -2.12798e-23)
)
;
    }
    procBoundary47to48
    {
        type            processor;
        value           nonuniform List<vector> 
131
(
(0.519012 -0.000950185 -4.60395e-23)
(0.519806 -0.00284778 2.64775e-22)
(0.521391 -0.00473702 -2.89748e-22)
(0.523758 -0.00661238 -2.22656e-22)
(0.526896 -0.00846846 -5.20894e-22)
(0.530791 -0.0103 -6.58903e-22)
(0.535424 -0.0121017 5.20544e-22)
(0.540774 -0.0138689 1.87474e-22)
(0.546814 -0.0155966 -3.52756e-22)
(0.553518 -0.0172806 3.7555e-22)
(0.560855 -0.0189165 -1.87833e-22)
(0.568791 -0.0205005 -1.49671e-21)
(0.577292 -0.022029 3.05973e-22)
(0.58632 -0.0234988 1.36747e-21)
(0.58632 -0.0234988 1.36747e-21)
(0.599188 -0.0244434 1.2967e-21)
(0.609001 -0.0257644 7.31586e-22)
(0.619217 -0.0270207 -6.54242e-23)
(0.629793 -0.0282105 -9.08808e-22)
(0.64069 -0.0293326 -1.13362e-21)
(0.651864 -0.0303857 -5.1388e-22)
(0.663275 -0.0313687 2.33066e-21)
(0.674881 -0.0322823 8.54789e-23)
(0.686641 -0.0331319 1.53724e-21)
(0.698516 -0.0339171 -1.41915e-21)
(0.721551 -0.0352387 0)
(0.757415 -0.036685 0)
(0.793967 -0.0376939 0)
(0.830603 -0.0382561 0)
(0.866758 -0.0383925 0)
(0.901914 -0.0381393 0)
(0.935621 -0.0375384 0)
(0.967497 -0.036636 0)
(0.997239 -0.0354817 1.30024e-29)
(1.02463 -0.0341258 -1.30024e-29)
(1.04951 -0.0326177 0)
(1.07183 -0.0310044 0)
(1.07183 -0.0310044 0)
(1.09001 -0.0289174 0)
(1.10725 -0.0272456 0)
(1.12212 -0.0255785 2.40618e-28)
(1.13476 -0.0239417 -2.40618e-28)
(1.14535 -0.0223545 1.06977e-28)
(1.15409 -0.020831 -1.06977e-28)
(1.16117 -0.0193801 0)
(1.16679 -0.0180062 0)
(1.17116 -0.0167102 0)
(1.17446 -0.0154902 0)
(1.17686 -0.0143421 0)
(1.17853 -0.0132602 0)
(1.1796 -0.0122382 0)
(1.1802 -0.0112694 0)
(1.18043 -0.0103469 0)
(1.18038 -0.00946428 0)
(1.18013 -0.00861548 0)
(1.17975 -0.00779506 0)
(1.17928 -0.00699817 1.22561e-28)
(1.17877 -0.00622061 -1.22561e-28)
(1.17825 -0.00545875 0)
(1.17774 -0.0047095 0)
(1.17728 -0.00397028 0)
(1.17687 -0.00323887 0)
(1.17653 -0.00251342 0)
(1.17627 -0.00179235 0)
(1.17609 -0.00107427 0)
(1.176 -0.000357905 0)
(0.721551 0.0352387 0)
(0.757415 0.036685 0)
(0.793967 0.0376939 0)
(0.830603 0.0382561 0)
(0.866758 0.0383925 0)
(0.901914 0.0381393 0)
(0.935621 0.0375384 0)
(0.967497 0.036636 0)
(0.997239 0.0354817 5.74963e-12)
(1.02463 0.0341258 -5.74963e-12)
(1.04951 0.0326177 0)
(1.07183 0.0310044 0)
(1.09158 0.0293283 0)
(1.10883 0.0276272 0)
(1.12368 0.0259327 0)
(1.13629 0.0242705 0)
(1.14683 0.0226602 6.60935e-12)
(1.1555 0.0211157 -6.60935e-12)
(1.16251 0.0196457 0)
(1.16806 0.0182545 0)
(1.17235 0.0169428 0)
(1.17558 0.0157082 0)
(1.17792 0.0145464 4.52619e-28)
(1.17953 0.0134516 -4.52619e-28)
(1.18054 0.0124172 0)
(1.18109 0.0114363 0)
(1.18128 0.010502 4.6839e-28)
(1.1812 0.00960774 -4.6839e-28)
(1.18092 0.00874736 4.40759e-28)
(1.18051 0.00791539 -4.40759e-28)
(1.18003 0.00710698 7.54418e-12)
(1.1795 0.0063179 -7.54418e-12)
(1.17896 0.00554453 4.83493e-28)
(1.17845 0.00478379 -4.83493e-28)
(1.17798 0.00403309 0)
(1.17756 0.00329022 0)
(1.17722 0.00255334 0)
(1.17695 0.00182084 0)
(1.17677 0.00109135 0)
(1.17668 0.0003636 0)
(0.698516 0.0339171 1.42082e-21)
(0.686641 0.0331319 -1.448e-21)
(0.674881 0.0322823 9.73372e-24)
(0.663275 0.0313687 -2.52587e-21)
(0.651864 0.0303857 6.4438e-22)
(0.64069 0.0293326 1.12513e-21)
(0.629793 0.0282105 7.28421e-22)
(0.619217 0.0270207 1.64408e-23)
(0.609001 0.0257644 8.74269e-22)
(0.599188 0.0244434 -7.96265e-22)
(0.58632 0.0234989 -1.34475e-21)
(0.58632 0.0234989 -1.34475e-21)
(0.577292 0.022029 -2.51711e-22)
(0.568791 0.0205005 1.43696e-21)
(0.560855 0.0189165 -9.38691e-22)
(0.553518 0.0172806 -6.68055e-22)
(0.546814 0.0155966 3.15545e-22)
(0.540774 0.0138689 -1.04892e-22)
(0.535424 0.0121018 -1.36936e-21)
(0.530791 0.0103 5.07509e-22)
(0.526896 0.00846848 5.70052e-22)
(0.523758 0.0066124 -1.23772e-22)
(0.521391 0.00473703 2.66698e-22)
(0.519806 0.0028478 -1.83811e-23)
(0.519012 0.000950202 -5.04122e-23)
)
;
    }
}


// ************************************************************************* //
