/*--------------------------------*- C++ -*----------------------------------*\
  =========                 |
  \\      /  F ield         | OpenFOAM: The Open Source CFD Toolbox
   \\    /   O peration     | Website:  https://openfoam.org
    \\  /    A nd           | Version:  7
     \\/     M anipulation  |
\*---------------------------------------------------------------------------*/
FoamFile
{
    version     2.0;
    format      ascii;
    class       surfaceScalarField;
    location    "10";
    object      phi;
}
// * * * * * * * * * * * * * * * * * * * * * * * * * * * * * * * * * * * * * //

dimensions      [0 3 -1 0 0 0 0];

internalField   nonuniform List<scalar> 
650
(
0.00234773
-1.82371e-05
-1.21448e-08
0.00236573
-1.79929e-05
-1.15382e-08
-1.77429e-05
-1.08688e-08
0.00234815
-3.64653e-05
0.00236613
-3.59775e-05
-3.54781e-05
0.00234898
-5.46518e-05
0.00236693
-5.39228e-05
-5.31765e-05
0.00235022
-7.27767e-05
0.00236811
-7.18102e-05
-7.08206e-05
0.00235185
-9.0821e-05
0.00236966
-8.96219e-05
-8.83937e-05
0.00235383
-0.000108767
0.00237155
-0.000107342
-0.000105881
0.00235613
-0.0001266
0.00237374
-0.000124954
-0.000123268
0.00235872
-0.000144305
0.00237622
-0.000142448
-0.000140543
0.00236156
-0.000161871
0.00237893
-0.00015981
-0.000157697
0.0023646
-0.000179289
0.00238183
-0.000177035
-0.000174722
0.00236779
-0.000196553
0.00238488
-0.000194115
-0.000191614
0.00237108
-0.000213658
0.00238802
-0.000211048
-0.000208369
0.00237441
-0.000230605
0.0023912
-0.000227834
-0.000224988
0.00237773
-0.000247395
0.00239437
-0.000244475
-0.000241474
0.00238097
-0.000264034
0.00239747
-0.000260977
-0.000257833
0.00238408
-0.00028053
0.00240045
-0.000277348
-0.000274074
0.002387
-0.000296894
0.00240325
-0.000293601
-0.000290208
0.00238966
-0.000313141
0.00240581
-0.000309748
-0.00030625
0.00239203
-0.000329288
0.00240809
-0.000325808
-0.000322216
0.00239403
-0.000345355
0.00241002
-0.000341799
-0.000338126
0.00239562
-0.000361364
0.00241156
-0.000357743
-0.000354002
0.00239674
-0.000377339
0.00241266
-0.000373665
-0.000369867
0.00239736
0.00241328
-0.000389592
-0.000385748
0.00241338
-0.000405552
0.0024293
-0.000401672
-0.000397652
0.00721291
-0.000433117
0.00724034
-0.000429095
-0.000424923
0.00734583
-0.000456094
0.00736873
-0.000451992
-0.000447731
0.00747994
-0.000474498
0.00749833
-0.000470376
-0.000466087
0.00761315
-0.000488428
0.00762712
-0.000484341
-0.000480081
0.00774358
-0.00049806
0.0077533
-0.000494056
-0.000489876
0.00786959
-0.000503627
0.00787528
-0.000499751
-0.000495697
0.00798979
-0.000505416
0.00799174
-0.000501704
-0.000497813
0.00810308
-0.000503747
0.0081016
-0.000500229
-0.000496533
0.00820864
-0.000498965
0.00820407
-0.000495663
-0.000492186
0.0083059
-0.000491425
0.00829859
-0.000488356
-0.000485114
0.00839455
-0.000481486
0.00838485
-0.000478657
-0.000475662
0.0084745
-0.000469495
0.00846275
-0.00046691
-0.000464165
0.00854585
-0.000455785
0.00853239
-0.000453442
-0.000450947
0.00860888
-0.000440668
0.008594
-0.000438561
-0.000436309
0.00866399
-0.00042443
0.00864798
-0.000422549
-0.000420531
0.00871166
-0.000407328
0.00869477
-0.000405659
-0.000403864
0.00875247
-0.000389588
0.00873493
-0.000388118
-0.000386531
0.00878703
-0.000371409
0.00876903
-0.000370121
-0.000368726
0.00881596
-0.000352956
0.00879767
-0.000351836
-0.000350617
0.00883989
-0.000334372
0.00882145
-0.000333402
-0.000332342
0.00885943
-0.00031577
0.00884096
-0.000314933
-0.000314017
0.00887515
-0.000297241
0.00885674
-0.000296523
-0.000295734
0.00888761
-0.000278854
0.00886932
-0.000278241
-0.000277565
0.00889729
-0.000260663
0.00887919
-0.000260141
-0.000259564
0.00890465
-0.000242702
0.00888677
-0.00024226
-0.000241769
0.0089101
-0.000224996
0.00889246
-0.000224622
-0.000224207
0.00891398
-0.000207556
0.0088966
-0.000207241
-0.000206891
0.00891661
-0.000190386
0.00889949
-0.000190121
-0.000189827
0.00891826
-0.00017348
0.0089014
-0.000173259
-0.000173013
0.00891915
-0.00015683
0.00890254
-0.000156646
-0.000156441
0.00891948
-0.000140421
0.0089031
-0.000140268
-0.000140099
0.00891941
-0.000124234
0.00890325
-0.000124108
-0.000123969
0.00891906
-0.000108249
0.0089031
-0.000108147
-0.000108034
0.00891856
-9.24446e-05
0.00890277
-9.23622e-05
-9.22715e-05
0.00891799
-7.67958e-05
0.00890235
-7.67309e-05
-7.66596e-05
0.00891741
-6.12781e-05
0.00890191
-6.12285e-05
-6.11742e-05
0.00891689
-4.58658e-05
0.00890149
-4.583e-05
-4.57908e-05
0.00891647
-3.05329e-05
0.00890115
-3.05097e-05
-3.04843e-05
0.00891617
-1.52532e-05
0.0089009
-1.52417e-05
-1.52293e-05
0.00891602
0.00890078
-0.000408885
0.00872876
-0.000390956
0.0087702
-0.000372603
0.0088052
-0.000353994
0.0088344
-0.000335269
0.00885846
-0.000316542
0.00887802
-0.000297902
0.00889367
-0.00027942
0.00890598
-0.000261144
0.00891547
-0.000243111
0.0089226
-0.000225342
0.00892779
-0.000207849
0.00893141
-0.000190632
0.00893377
-0.000173688
0.00893516
-0.000157004
0.00893579
-0.000140565
0.00893588
-0.000124354
0.00893558
-0.000108348
0.00893504
-9.25244e-05
0.00893435
-7.68591e-05
0.00893363
-6.13267e-05
0.00893292
-4.59011e-05
0.0089323
-3.05559e-05
0.00893179
-1.52645e-05
0.00893144
0.00893126
-0.000433131
0.00721291
0.000405568
-0.000456106
0.00734584
-0.000474509
0.00747995
-0.000488439
0.00761316
-0.000498069
0.00774359
-0.000503636
0.00786959
-0.000505424
0.00798979
-0.000503755
0.00810308
-0.000498972
0.00820863
-0.000491432
0.00830589
-0.000481492
0.00839454
-0.0004695
0.00847449
-0.00045579
0.00854585
-0.000440673
0.00860888
-0.000424435
0.00866398
-0.000407332
0.00871165
-0.000389592
0.00875246
-0.000371412
0.00878702
-0.00035296
0.00881595
-0.000334376
0.00883988
-0.000315773
0.00885941
-0.000297244
0.00887514
-0.000278857
0.00888759
-0.000260666
0.00889728
-0.000242705
0.00890464
-0.000224999
0.00891009
-0.000207559
0.00891397
-0.000190388
0.0089166
-0.000173482
0.00891825
-0.000156832
0.00891914
-0.000140422
0.00891947
-0.000124235
0.0089194
-0.000108251
0.00891905
-9.24457e-05
0.00891855
-7.67967e-05
0.00891798
-6.12787e-05
0.0089174
-4.58664e-05
0.00891688
-3.05332e-05
0.00891646
-1.52534e-05
0.00891616
0.00891601
-0.000429108
0.00724033
0.000401687
-0.000452004
0.00736873
-0.000470386
0.00749833
-0.000484351
0.00762712
-0.000494065
0.0077533
-0.00049976
0.00787528
-0.000501712
0.00799174
-0.000500236
0.0081016
-0.00049567
0.00820407
-0.000488362
0.00829858
-0.000478663
0.00838484
-0.000466915
0.00846274
-0.000453447
0.00853238
-0.000438566
0.00859399
-0.000422553
0.00864797
-0.000405663
0.00869476
-0.000388122
0.00873492
-0.000370125
0.00876902
-0.000351839
0.00879766
-0.000333405
0.00882144
-0.000314936
0.00884095
-0.000296525
0.00885673
-0.000278243
0.00886931
-0.000260143
-0.000242262
-0.000224624
-0.000207243
-0.000190123
-0.000173261
-0.000156647
-0.000140269
-0.000124109
-0.000108148
-9.23632e-05
-7.67317e-05
-6.12291e-05
-4.58304e-05
-3.051e-05
-1.52419e-05
-0.000424935
-0.000447742
-0.000466097
-0.00048009
-0.000489884
-0.000495704
-0.00049782
-0.000496539
-0.000492192
-0.00048512
-0.000475666
-0.000464169
-0.000450951
-0.000436313
-0.000420535
-0.000403867
-0.000386534
-0.000368729
-0.00035062
-0.000332345
-0.00031402
-0.000295736
0.00239742
0.000393326
0.00241338
0.000389609
0.000385763
0.00239736
0.000377358
0.00241328
0.000373683
0.000369883
0.00239674
0.000361384
0.00241266
0.000357761
0.000354019
0.00239561
0.000345376
0.00241156
0.000341817
0.000338144
0.00239403
0.00032931
0.00241002
0.000325827
0.000322234
0.00239203
0.000313163
0.00240808
0.000309768
0.000306269
0.00238966
0.000296916
0.00240581
0.000293621
0.000290227
0.002387
0.000280552
0.00240325
0.000277369
0.000274093
0.00238408
0.000264057
0.00240045
0.000260998
0.000257853
0.00238097
0.000247418
0.00239747
0.000244497
0.000241494
0.00237773
0.000230628
0.00239437
0.000227856
0.000225008
0.00237441
0.000213682
0.0023912
0.00021107
0.000208389
0.00237108
0.000196576
0.00238802
0.000194138
0.000191635
0.0023678
0.000179313
0.00238488
0.000177057
0.000174743
0.00236461
0.000161895
0.00238183
0.000159833
0.000157718
0.00236157
0.000144329
0.00237893
0.00014247
0.000140565
0.00235873
0.000126624
0.00237622
0.000124977
0.000123289
0.00235613
0.000108791
0.00237374
0.000107364
0.000105902
0.00235383
9.08452e-05
0.00237155
8.96448e-05
8.84153e-05
0.00235185
7.28009e-05
0.00236966
7.18332e-05
7.08422e-05
0.00235022
5.4676e-05
0.00236811
5.39458e-05
5.31982e-05
0.00234899
3.64896e-05
0.00236693
3.60005e-05
3.54998e-05
0.00234815
1.82614e-05
0.00236613
1.80159e-05
1.77646e-05
0.00234773
0.00236573
)
;

boundaryField
{
    inlet
    {
        type            calculated;
        value           nonuniform 0();
    }
    outlet
    {
        type            calculated;
        value           nonuniform 0();
    }
    cylinder
    {
        type            calculated;
        value           nonuniform 0();
    }
    top
    {
        type            symmetryPlane;
        value           uniform 0;
    }
    bottom
    {
        type            symmetryPlane;
        value           uniform 0;
    }
    defaultFaces
    {
        type            empty;
        value           nonuniform 0();
    }
    procBoundary55to54
    {
        type            processor;
        value           nonuniform List<scalar> 
131
(
-0.00232948
-0.00232992
-0.0023308
-0.0023321
-0.0023338
-0.00233588
-0.0023383
-0.00234102
-0.002344
-0.00234719
-0.00235053
-0.00235398
-0.00235747
-0.00236094
-0.00236433
-0.00236758
-0.00237063
-0.00237342
-0.00237588
-0.00237796
-0.00237961
-0.00238077
-0.00238139
-0.000393308
-0.00239742
-0.00718535
-0.00732286
-0.00746154
-0.00759922
-0.00773395
-0.00786402
-0.007988
-0.00810475
-0.00821342
-0.00831343
-0.00840448
-0.00848649
-0.00855956
-0.008624
-0.00868023
-0.00872877
-0.00877021
-0.00880521
-0.00883441
-0.00885847
-0.00887803
-0.00889368
-0.00890599
-0.00891548
-0.00892261
-0.0089278
-0.00893142
-0.00893378
-0.00893517
-0.0089358
-0.00893589
-0.00893559
-0.00893505
-0.00893436
-0.00893363
-0.00893293
-0.0089323
-0.0089318
-0.00893145
-0.00893127
-0.00874606
-0.00878813
-0.00882355
-0.00885301
-0.00887719
-0.00889674
-0.00891231
-0.00892446
-0.00893375
-0.00894064
-0.00894556
-0.00894891
-0.00895099
-0.0089521
-0.00895248
-0.00895232
-0.00895179
-0.00895104
-0.00895018
-0.00894929
-0.00894845
-0.00894772
-0.00894714
-0.00894673
-0.00894653
-0.00718535
-0.000409316
-0.00732286
-0.00746154
-0.00759923
-0.00773396
-0.00786402
-0.007988
-0.00810475
-0.00821342
-0.00831343
-0.00840448
-0.00848648
-0.00855956
-0.00862399
0.000426192
-0.00868022
-0.00238143
-0.00238139
-0.00238077
-0.00237961
-0.00237796
-0.00237588
-0.00237342
-0.00237063
-0.00236758
-0.00236433
-0.00236094
-0.00235747
-0.00235398
-0.00235053
-0.00234719
-0.002344
-0.00234102
-0.0023383
-0.00233588
-0.0023338
-0.0023321
-0.0023308
-0.00232992
-0.00232948
)
;
    }
    procBoundary55to56
    {
        type            processor;
        value           nonuniform List<scalar> 
131
(
0.00238348
0.00238387
0.00238463
0.00238576
0.00238723
0.00238903
0.00239113
0.00239349
0.00239608
0.00239885
0.00240177
0.00240477
0.00240782
0.00241086
0.00241383
0.00241669
0.00241938
0.00242185
0.00242405
0.00242593
0.00242744
0.00242853
0.00242916
0.000381768
0.00244519
0.00726761
0.00739154
0.00751668
0.00764111
0.00776309
0.0078811
0.00799386
0.00810032
0.00819972
0.00829152
0.00837539
0.00845125
0.00851917
0.00857937
0.0086322
0.00867811
0.0087176
0.00875123
0.00877957
0.00880318
0.00882263
0.00883846
0.00885115
0.00886119
0.00886898
0.0088749
0.00887929
0.00888243
0.00888459
0.00888597
0.00888676
0.00888712
0.00888717
0.00888701
0.00888674
0.00888642
0.00888611
0.00888584
0.00888565
0.00888555
0.00887918
0.00888676
0.00889245
0.00889659
0.00889948
0.00890139
0.00890253
0.00890309
0.00890324
0.00890309
0.00890276
0.00890234
0.0089019
0.00890148
0.00890114
0.00890089
0.00890077
0.0072676
0.000397665
0.00739154
0.00751668
0.00764112
0.0077631
0.0078811
0.00799386
0.00810032
0.00819972
0.00829151
0.00837539
0.00845125
0.00851916
0.00857936
0.00863219
0.0086781
0.00871759
0.00875122
0.00877955
0.00880317
0.00882262
0.00883845
-0.000277567
0.00885114
0.0024293
0.00242916
0.00242853
0.00242743
0.00242593
0.00242405
0.00242185
0.00241938
0.00241669
0.00241383
0.00241086
0.00240782
0.00240477
0.00240177
0.00239885
0.00239608
0.00239349
0.00239113
0.00238903
0.00238723
0.00238576
0.00238463
0.00238387
0.00238348
)
;
    }
}


// ************************************************************************* //
