/*--------------------------------*- C++ -*----------------------------------*\
  =========                 |
  \\      /  F ield         | OpenFOAM: The Open Source CFD Toolbox
   \\    /   O peration     | Website:  https://openfoam.org
    \\  /    A nd           | Version:  7
     \\/     M anipulation  |
\*---------------------------------------------------------------------------*/
FoamFile
{
    version     2.0;
    format      ascii;
    class       surfaceScalarField;
    location    "30";
    object      phi;
}
// * * * * * * * * * * * * * * * * * * * * * * * * * * * * * * * * * * * * * //

dimensions      [0 3 -1 0 0 0 0];

internalField   nonuniform List<scalar> 
650
(
0.00180214
-8.45245e-06
1.51831e-09
0.00181041
-8.27281e-06
1.40649e-09
-8.09737e-06
1.28382e-09
0.00180331
-1.68931e-05
0.00181157
-1.65347e-05
-1.61846e-05
0.00180565
-2.53135e-05
0.00181389
-2.47777e-05
-2.42544e-05
0.00180913
-3.37043e-05
0.00181734
-3.29932e-05
-3.22987e-05
0.00181373
-4.20568e-05
0.00182191
-4.11733e-05
-4.03104e-05
0.00181941
-5.03639e-05
0.00182755
-4.93113e-05
-4.82834e-05
0.00182613
-5.86194e-05
0.00183422
-5.74018e-05
-5.62128e-05
0.00183384
-6.68191e-05
0.00184188
-6.54411e-05
-6.40955e-05
0.00184248
-7.49604e-05
0.00185047
-7.34272e-05
-7.193e-05
0.00185198
-8.3043e-05
0.00185992
-8.13602e-05
-7.97169e-05
0.00186227
-9.10686e-05
0.00187016
-8.92423e-05
-8.74589e-05
0.00187328
-9.90415e-05
0.00188111
-9.70781e-05
-9.51607e-05
0.00188491
-0.000106968
0.00189271
-0.000104874
-0.00010283
0.00189709
-0.000114858
0.00190485
-0.000112641
-0.000110476
0.00190972
-0.000122723
0.00191746
-0.00012039
-0.000118111
0.0019227
-0.000130578
0.00193045
-0.000128135
-0.00012575
0.00193596
-0.000138439
0.00194372
-0.000135895
-0.00013341
0.00194938
-0.000146327
0.00195717
-0.000143688
-0.000141111
0.00196287
-0.000154263
0.00197072
-0.000151538
-0.000148876
0.00197633
-0.000162273
0.00198426
-0.000159468
-0.000156728
0.00198968
-0.000170384
0.00199772
-0.000167505
-0.000164695
0.00200281
-0.000178624
0.00201099
-0.00017568
-0.000172806
0.00201564
-0.000187025
0.00202398
-0.000184022
-0.000181091
0.00202807
0.00203662
-0.000192565
0.00204511
-0.000189582
-0.000186671
0.0061729
-0.00020335
0.00618357
-0.00020026
-0.000197242
0.00640854
-0.000211545
0.00641667
-0.000208389
-0.000205308
0.006651
-0.000217188
0.00665661
-0.000214008
-0.000210903
0.00689655
-0.000220373
0.00689975
-0.000217206
-0.000214115
0.00714168
-0.000221239
0.00714259
-0.00021812
-0.000215076
0.00738309
-0.000219967
0.0073819
-0.000216927
-0.000213958
0.00761782
-0.000216772
0.00761473
-0.000213834
-0.000210965
0.00784325
-0.00021189
0.00783849
-0.000209074
-0.000206325
0.0080572
-0.000205574
0.00805102
-0.000202894
-0.000200278
0.00825788
-0.000198082
0.00825054
-0.000195548
-0.000193074
0.00844399
-0.00018967
0.00843573
-0.000187285
-0.000184959
0.00861461
-0.000180581
0.00860568
-0.000178347
-0.000176168
0.00876928
-0.000171045
0.00875989
-0.000168958
-0.000166923
0.00890789
-0.000161267
0.00889826
-0.000159321
-0.000157425
0.00903069
-0.000151426
0.00902098
-0.000149613
-0.000147848
0.00913819
-0.000141675
0.00912856
-0.000139986
-0.000138343
0.00923116
-0.000132137
0.00922174
-0.000130562
-0.000129031
0.00931055
-0.000122905
0.00930143
-0.000121435
-0.000120007
0.00937745
-0.00011405
0.00936869
-0.000112675
-0.00011134
0.00943301
-0.000105614
0.00942466
-0.000104326
-0.000103076
0.00947842
-9.76198e-05
0.00947051
-9.64109e-05
-9.52387e-05
0.0095149
-9.00729e-05
0.00950743
-8.89371e-05
-8.78364e-05
0.0095436
-8.29635e-05
0.00953656
-8.18959e-05
-8.08617e-05
0.00956563
-7.62711e-05
0.009559
-7.52678e-05
-7.42963e-05
0.00958203
-6.9967e-05
0.00957579
-6.90257e-05
-6.81141e-05
0.00959375
-6.4018e-05
0.00958786
-6.31365e-05
-6.22832e-05
0.00960165
-5.83873e-05
0.00959608
-5.75649e-05
-5.67692e-05
0.00960648
-5.30378e-05
0.00960119
-5.22745e-05
-5.15357e-05
0.00960892
-4.79332e-05
0.00960387
-4.7229e-05
-4.65474e-05
0.00960953
-4.30383e-05
0.0096047
-4.23941e-05
-4.17704e-05
0.00960882
-3.83212e-05
0.00960417
-3.77377e-05
-3.71728e-05
0.00960721
-3.37525e-05
0.00960271
-3.32307e-05
-3.27254e-05
0.00960504
-2.93062e-05
0.00960066
-2.8847e-05
-2.84023e-05
0.00960261
-2.49591e-05
0.00959832
-2.45636e-05
-2.41804e-05
0.00960014
-2.06912e-05
0.00959593
-2.03602e-05
-2.00395e-05
0.00959782
-1.64851e-05
0.00959368
-1.62193e-05
-1.59618e-05
0.0095958
-1.23254e-05
0.00959171
-1.21257e-05
-1.1932e-05
0.0095942
-8.19927e-06
0.00959014
-8.06576e-06
-7.93635e-06
0.00959309
-4.09452e-06
0.00958905
-4.02745e-06
-3.96278e-06
0.00959252
0.00958849
-0.000208319
0.00806352
-0.000200678
0.00826538
-0.000192113
0.0084524
-0.000182871
0.00862371
-0.000173185
0.00877882
-0.000163263
0.00891768
-0.000153287
0.00904053
-0.000143409
0.00914794
-0.000133755
0.0092407
-0.000124417
0.00931979
-0.000115465
0.00938631
-0.00010694
0.00944144
-9.88651e-05
0.00948642
-9.12434e-05
0.00952245
-8.40642e-05
0.00955071
-7.73057e-05
0.00957233
-7.09382e-05
0.00958834
-6.49273e-05
0.0095997
-5.92356e-05
0.00960728
-5.38253e-05
0.00961183
-4.86593e-05
0.00961402
-4.37027e-05
0.00961443
-3.89229e-05
0.00961354
-3.42905e-05
0.00961178
-2.97795e-05
0.00960949
-2.53667e-05
0.00960695
-2.10323e-05
0.0096044
-1.67589e-05
0.00960203
-1.25315e-05
0.00959996
-8.33681e-06
0.00959833
-4.16314e-06
0.00959719
0.00959661
-0.000203348
0.0061729
0.000192563
-0.000211543
0.00640855
-0.000217186
0.006651
-0.000220371
0.00689655
-0.000221238
0.00714168
-0.000219966
0.00738309
-0.000216771
0.00761782
-0.000211889
0.00784326
-0.000205574
0.0080572
-0.000198082
0.00825789
-0.000189669
0.00844399
-0.000180581
0.00861462
-0.000171045
0.00876929
-0.000161267
0.0089079
-0.000151426
0.00903069
-0.000141675
0.00913819
-0.000132137
0.00923116
-0.000122906
0.00931056
-0.00011405
0.00937745
-0.000105614
0.00943301
-9.762e-05
0.00947843
-9.00731e-05
0.0095149
-8.29637e-05
0.0095436
-7.62713e-05
0.00956563
-6.99674e-05
0.00958203
-6.40182e-05
0.00959376
-5.83874e-05
0.00960165
-5.3038e-05
0.00960648
-4.79334e-05
0.00960892
-4.30384e-05
0.00960953
-3.83213e-05
0.00960883
-3.37527e-05
0.00960721
-2.93064e-05
0.00960504
-2.49592e-05
0.00960261
-2.06913e-05
0.00960014
-1.64852e-05
0.00959782
-1.23256e-05
0.0095958
-8.19931e-06
0.0095942
-4.09448e-06
0.00959309
0.00959252
-0.000200258
0.00618358
0.000189581
-0.000208388
0.00641668
-0.000214007
0.00665662
-0.000217205
0.00689975
-0.00021812
0.00714259
-0.000216926
0.0073819
-0.000213833
0.00761473
-0.000209073
0.0078385
-0.000202894
0.00805102
-0.000195547
0.00825054
-0.000187285
0.00843573
-0.000178347
0.00860568
-0.000168958
0.0087599
-0.000159321
0.00889826
-0.000149613
0.00902098
-0.000139986
-0.000130562
-0.000121436
-0.000112675
-0.000104326
-9.64112e-05
-8.89374e-05
-8.18962e-05
-7.52681e-05
-6.90258e-05
-6.31368e-05
-5.75654e-05
-5.22747e-05
-4.72292e-05
-4.23943e-05
-3.77379e-05
-3.32309e-05
-2.88471e-05
-2.45637e-05
-2.03603e-05
-1.62194e-05
-1.21256e-05
-8.0658e-06
-4.02753e-06
-0.000197241
-0.000205307
-0.000210902
-0.000214114
-0.000215075
-0.000213957
-0.000210965
-0.000206324
-0.000200278
-0.000193074
-0.000184959
-0.000176168
-0.000166923
-0.000157425
0.00202807
0.000187023
0.00203662
0.00018402
0.000181089
0.00201564
0.000178621
0.00202398
0.000175678
0.000172804
0.00200281
0.000170381
0.00201099
0.000167503
0.000164693
0.00198968
0.000162271
0.00199772
0.000159465
0.000156726
0.00197633
0.000154261
0.00198426
0.000151535
0.000148874
0.00196287
0.000146324
0.00197072
0.000143686
0.000141109
0.00194938
0.000138437
0.00195717
0.000135892
0.000133408
0.00193596
0.000130575
0.00194372
0.000128133
0.000125748
0.0019227
0.000122721
0.00193045
0.000120387
0.000118109
0.00190972
0.000114856
0.00191747
0.000112638
0.000110473
0.00189709
0.000106966
0.00190485
0.000104872
0.000102827
0.00188491
9.90387e-05
0.00189271
9.70755e-05
9.51583e-05
0.00187328
9.10658e-05
0.00188111
8.92397e-05
8.74565e-05
0.00186227
8.30401e-05
0.00187016
8.13576e-05
7.97145e-05
0.00185198
7.49575e-05
0.00185992
7.34245e-05
7.19276e-05
0.00184248
6.68161e-05
0.00185047
6.54384e-05
6.4093e-05
0.00183384
5.86164e-05
0.00184188
5.73991e-05
5.62103e-05
0.00182613
5.03609e-05
0.00183422
4.93085e-05
4.82809e-05
0.00181941
4.20539e-05
0.00182755
4.11705e-05
4.03079e-05
0.00181373
3.37013e-05
0.00182191
3.29904e-05
3.22962e-05
0.00180913
2.53105e-05
0.00181734
2.47749e-05
2.42518e-05
0.00180565
1.68901e-05
0.00181389
1.65318e-05
1.6182e-05
0.00180331
8.44942e-06
0.00181157
8.27e-06
8.0948e-06
0.00180214
0.00181041
)
;

boundaryField
{
    inlet
    {
        type            calculated;
        value           nonuniform 0();
    }
    outlet
    {
        type            calculated;
        value           nonuniform 0();
    }
    cylinder
    {
        type            calculated;
        value           nonuniform 0();
    }
    top
    {
        type            symmetryPlane;
        value           uniform 0;
    }
    bottom
    {
        type            symmetryPlane;
        value           uniform 0;
    }
    defaultFaces
    {
        type            empty;
        value           nonuniform 0();
    }
    procBoundary54to53
    {
        type            processor;
        value           nonuniform List<scalar> 
131
(
-0.00179369
-0.00179487
-0.00179722
-0.00180074
-0.00180537
-0.0018111
-0.00181788
-0.00182564
-0.00183434
-0.0018439
-0.00185425
-0.0018653
-0.00187698
-0.0018892
-0.00190185
-0.00191485
-0.0019281
-0.00194149
-0.00195493
-0.00196832
-0.00198157
-0.00199457
-0.00200724
-0.00201948
-0.00019562
-0.00616211
-0.00640035
-0.00664535
-0.00689337
-0.00714081
-0.00738436
-0.00762101
-0.00784813
-0.00806351
-0.00826538
-0.0084524
-0.0086237
-0.00877882
-0.00891767
-0.00904053
-0.00914794
-0.0092407
-0.00931979
-0.00938631
-0.00944144
-0.00948642
-0.00952245
-0.00955071
-0.00957232
-0.00958834
-0.0095997
-0.00960728
-0.00961183
-0.00961402
-0.00961443
-0.00961354
-0.00961178
-0.00960949
-0.00960695
-0.0096044
-0.00960203
-0.00959996
-0.00959833
-0.00959719
-0.00959661
-0.00806997
-0.00827302
-0.00846097
-0.00863295
-0.00878851
-0.0089276
-0.00905051
-0.00915782
-0.00925035
-0.00932912
-0.00939526
-0.00944997
-0.00949449
-0.00953007
-0.00955789
-0.00957908
-0.00959471
-0.00960572
-0.00961297
-0.00961724
-0.00961919
-0.00961938
-0.00961832
-0.00961641
-0.009614
-0.00961137
-0.00960874
-0.0096063
-0.00960419
-0.00960252
-0.00960137
-0.00960078
-0.00616211
-0.000195618
-0.00640035
-0.00664535
-0.00689337
-0.00714081
-0.00738436
-0.00762102
0.000214774
-0.00784814
-0.00201948
-0.00200724
-0.00199457
-0.00198157
-0.00196832
-0.00195493
-0.00194149
-0.0019281
-0.00191485
-0.00190185
-0.0018892
-0.00187698
-0.0018653
-0.00185425
-0.0018439
-0.00183434
-0.00182564
-0.00181788
-0.0018111
-0.00180537
-0.00180074
-0.00179722
-0.00179487
-0.00179369
)
;
    }
    procBoundary54to55
    {
        type            processor;
        value           nonuniform List<scalar> 
131
(
0.0018185
0.00181966
0.00182196
0.00182539
0.00182992
0.00183552
0.00184215
0.00184976
0.0018583
0.0018677
0.0018779
0.00188881
0.00190038
0.0019125
0.0019251
0.00193809
0.00195138
0.00196487
0.00197848
0.00199212
0.00200568
0.0020191
0.00203226
0.000178228
0.00205355
0.00619415
0.00642474
0.00666221
0.00690296
0.00714355
0.00738078
0.00761173
0.00783385
0.00804497
0.00824333
0.00842761
0.00859689
0.00875065
0.00888876
0.0090114
0.00911905
0.00921242
0.0092924
0.00936002
0.00941639
0.00946267
0.00950002
0.00952958
0.00955244
0.00956961
0.00958203
0.00959056
0.00959596
0.00959888
0.00959992
0.00959957
0.00959826
0.00959634
0.0095941
0.00959179
0.0095896
0.00958768
0.00958614
0.00958508
0.00958453
0.00912856
0.00922174
0.00930143
0.00936869
0.00942466
0.00947051
0.00950743
0.00953656
0.009559
0.00957579
0.00958787
0.00959608
0.00960119
0.00960387
0.0096047
0.00960417
0.00960271
0.00960066
0.00959832
0.00959593
0.00959368
0.00959171
0.00959014
0.00958905
0.00958849
0.00619415
0.000186669
0.00642474
0.00666221
0.00690296
0.00714356
0.00738078
0.00761174
0.00783386
0.00804497
0.00824334
0.00842761
0.00859689
0.00875065
0.00888876
-0.000147848
0.0090114
0.00204511
0.00203227
0.0020191
0.00200569
0.00199212
0.00197848
0.00196487
0.00195138
0.00193809
0.0019251
0.0019125
0.00190038
0.00188882
0.0018779
0.0018677
0.0018583
0.00184977
0.00184215
0.00183552
0.00182992
0.00182539
0.00182196
0.00181966
0.0018185
)
;
    }
}


// ************************************************************************* //
