/*--------------------------------*- C++ -*----------------------------------*\
  =========                 |
  \\      /  F ield         | OpenFOAM: The Open Source CFD Toolbox
   \\    /   O peration     | Website:  https://openfoam.org
    \\  /    A nd           | Version:  7
     \\/     M anipulation  |
\*---------------------------------------------------------------------------*/
FoamFile
{
    version     2.0;
    format      ascii;
    class       volScalarField;
    location    "72";
    object      p;
}
// * * * * * * * * * * * * * * * * * * * * * * * * * * * * * * * * * * * * * //

dimensions      [0 2 -2 0 0 0 0];

internalField   nonuniform List<scalar> 
40000
(
-0.268772
-0.269675
-0.270353
-0.270905
-0.2714
-0.27184
-0.272233
-0.272587
-0.272913
-0.273218
-0.273506
-0.273782
-0.27405
-0.274309
-0.27456
-0.274802
-0.275031
-0.275246
-0.275443
-0.275619
-0.27577
-0.275894
-0.27599
-0.276056
-0.276094
-0.276108
-0.276101
-0.27608
-0.276049
-0.276031
-0.268551
-0.26948
-0.270175
-0.270741
-0.271247
-0.271698
-0.272098
-0.272459
-0.27279
-0.273097
-0.273385
-0.27366
-0.273922
-0.274173
-0.274412
-0.274637
-0.274845
-0.275032
-0.275194
-0.275326
-0.275425
-0.275485
-0.275504
-0.27548
-0.275411
-0.275298
-0.275144
-0.274951
-0.274717
-0.274473
-0.268444
-0.26939
-0.270098
-0.270674
-0.271189
-0.271646
-0.272052
-0.272417
-0.272749
-0.273057
-0.273344
-0.273614
-0.27387
-0.274111
-0.274337
-0.274543
-0.274728
-0.274886
-0.275011
-0.275099
-0.275143
-0.275137
-0.275077
-0.274959
-0.274778
-0.274535
-0.274229
-0.27386
-0.273417
-0.272943
-0.268453
-0.269411
-0.270127
-0.270708
-0.271227
-0.271688
-0.272096
-0.272463
-0.272795
-0.273101
-0.273385
-0.27365
-0.273897
-0.274127
-0.274338
-0.274525
-0.274685
-0.274813
-0.274901
-0.274942
-0.27493
-0.274857
-0.274716
-0.274501
-0.274206
-0.273828
-0.273367
-0.272819
-0.272163
-0.271459
-0.268582
-0.269544
-0.270262
-0.270845
-0.271365
-0.271826
-0.272234
-0.272599
-0.272929
-0.273231
-0.27351
-0.273768
-0.274006
-0.274223
-0.274418
-0.274585
-0.274721
-0.274817
-0.274867
-0.274862
-0.274793
-0.274652
-0.274429
-0.274115
-0.273704
-0.273189
-0.272571
-0.271841
-0.270969
-0.270035
-0.268831
-0.26979
-0.270505
-0.271086
-0.271603
-0.272062
-0.272466
-0.272827
-0.273153
-0.273449
-0.273721
-0.27397
-0.274197
-0.274401
-0.274579
-0.274726
-0.274836
-0.274901
-0.274913
-0.274861
-0.274736
-0.274526
-0.27422
-0.273807
-0.273278
-0.272625
-0.271847
-0.270935
-0.269845
-0.268682
-0.2692
-0.270149
-0.270857
-0.271431
-0.271942
-0.272394
-0.272793
-0.273147
-0.273466
-0.273755
-0.274018
-0.274257
-0.274472
-0.274662
-0.274822
-0.274948
-0.275032
-0.275066
-0.27504
-0.274942
-0.274761
-0.274482
-0.274093
-0.273581
-0.272934
-0.272142
-0.271204
-0.270109
-0.2688
-0.267408
-0.269688
-0.27062
-0.271315
-0.271879
-0.27238
-0.272823
-0.273212
-0.273558
-0.273868
-0.274147
-0.274399
-0.274627
-0.274829
-0.275003
-0.275146
-0.27525
-0.275309
-0.275312
-0.275249
-0.275106
-0.274869
-0.274523
-0.274053
-0.273442
-0.272677
-0.271744
-0.270645
-0.269369
-0.267838
-0.266215
-0.270292
-0.271201
-0.271878
-0.272427
-0.272915
-0.273346
-0.273723
-0.274058
-0.274356
-0.274623
-0.274864
-0.275078
-0.275265
-0.275424
-0.275548
-0.275631
-0.275664
-0.275638
-0.275538
-0.275351
-0.275061
-0.27465
-0.274099
-0.273392
-0.272508
-0.271436
-0.270174
-0.268716
-0.266963
-0.2651
-0.271009
-0.271888
-0.272543
-0.273074
-0.273545
-0.27396
-0.274323
-0.274643
-0.274927
-0.275181
-0.275407
-0.275607
-0.275779
-0.27592
-0.276025
-0.276087
-0.276096
-0.27604
-0.275905
-0.275676
-0.275335
-0.27486
-0.274233
-0.27343
-0.27243
-0.271218
-0.269793
-0.268152
-0.266175
-0.264055
-0.271833
-0.272677
-0.273306
-0.273815
-0.274265
-0.274661
-0.275006
-0.27531
-0.275578
-0.275816
-0.276026
-0.276209
-0.276364
-0.276487
-0.276573
-0.276613
-0.276598
-0.276514
-0.276346
-0.276077
-0.275686
-0.275152
-0.27445
-0.273555
-0.272442
-0.271091
-0.2695
-0.267675
-0.265476
-0.263059
-0.272759
-0.273562
-0.274161
-0.274645
-0.275072
-0.275446
-0.275771
-0.276054
-0.276303
-0.276523
-0.276714
-0.276879
-0.277016
-0.27712
-0.277186
-0.277204
-0.277165
-0.277053
-0.276854
-0.276547
-0.276111
-0.27552
-0.274747
-0.273764
-0.272541
-0.271051
-0.269292
-0.267283
-0.264867
-0.262073
-0.273781
-0.27454
-0.275105
-0.27556
-0.275961
-0.276309
-0.27661
-0.276871
-0.277098
-0.277296
-0.277467
-0.277612
-0.277728
-0.277811
-0.277856
-0.277852
-0.277788
-0.277651
-0.277421
-0.277079
-0.2766
-0.275956
-0.275117
-0.27405
-0.272721
-0.271096
-0.269167
-0.266972
-0.264355
-0.260985
-0.274893
-0.275603
-0.276131
-0.276554
-0.276925
-0.277245
-0.277519
-0.277754
-0.277957
-0.27813
-0.278278
-0.278399
-0.278493
-0.278554
-0.278575
-0.278548
-0.27846
-0.278296
-0.278037
-0.277662
-0.277143
-0.276451
-0.275551
-0.274405
-0.272975
-0.271219
-0.269117
-0.266727
-0.263956
-0.259692
-0.276087
-0.276746
-0.277234
-0.277623
-0.277961
-0.278249
-0.278493
-0.278699
-0.278873
-0.279019
-0.279139
-0.279235
-0.279302
-0.279338
-0.279335
-0.279283
-0.27917
-0.278979
-0.278692
-0.278284
-0.277728
-0.27699
-0.276034
-0.274815
-0.27329
-0.271408
-0.269134
-0.266506
-0.263595
-0.25887
-0.277358
-0.277962
-0.278408
-0.27876
-0.279062
-0.279316
-0.279525
-0.279698
-0.27984
-0.279954
-0.280044
-0.28011
-0.280148
-0.280156
-0.280126
-0.280047
-0.279906
-0.279688
-0.279372
-0.278932
-0.27834
-0.27756
-0.27655
-0.275265
-0.27365
-0.271649
-0.269219
-0.266414
-0.263069
-0.258146
-0.278698
-0.279247
-0.279648
-0.279961
-0.280223
-0.280439
-0.280611
-0.280746
-0.280851
-0.28093
-0.280985
-0.281017
-0.281023
-0.280998
-0.280937
-0.280827
-0.280657
-0.280409
-0.280062
-0.27959
-0.278962
-0.278141
-0.277082
-0.275733
-0.274036
-0.271922
-0.269339
-0.266337
-0.262652
-0.257283
-0.280103
-0.280595
-0.28095
-0.28122
-0.281441
-0.281614
-0.281745
-0.281839
-0.281903
-0.281941
-0.281956
-0.281948
-0.281916
-0.281855
-0.281758
-0.281614
-0.281411
-0.281129
-0.280749
-0.280242
-0.279577
-0.278714
-0.277606
-0.276196
-0.274421
-0.272202
-0.269472
-0.266272
-0.262313
-0.256292
-0.281567
-0.282002
-0.28231
-0.282535
-0.282711
-0.282838
-0.282922
-0.28297
-0.282988
-0.28298
-0.282949
-0.282897
-0.282822
-0.282718
-0.28258
-0.282397
-0.282155
-0.281836
-0.281418
-0.280873
-0.280167
-0.279259
-0.2781
-0.27663
-0.274779
-0.272461
-0.269591
-0.266198
-0.262019
-0.255187
-0.283088
-0.283466
-0.283724
-0.283902
-0.284029
-0.284107
-0.28414
-0.284136
-0.284102
-0.284042
-0.28396
-0.283857
-0.283732
-0.28358
-0.283395
-0.283166
-0.28288
-0.282517
-0.282055
-0.281466
-0.280714
-0.279757
-0.278542
-0.277008
-0.27508
-0.272666
-0.269664
-0.266081
-0.26175
-0.253978
-0.284663
-0.284983
-0.285191
-0.28532
-0.285395
-0.285418
-0.285396
-0.285335
-0.285242
-0.285124
-0.284984
-0.284823
-0.284641
-0.284434
-0.284195
-0.283913
-0.283575
-0.283162
-0.28265
-0.282009
-0.281204
-0.28019
-0.278913
-0.277308
-0.275298
-0.272786
-0.269657
-0.265883
-0.261483
-0.252689
-0.286291
-0.286554
-0.286711
-0.286788
-0.286807
-0.286771
-0.286687
-0.286563
-0.286406
-0.286223
-0.286017
-0.285791
-0.285545
-0.285275
-0.284974
-0.284632
-0.284235
-0.283763
-0.283192
-0.282492
-0.281625
-0.280546
-0.279197
-0.277512
-0.275411
-0.272795
-0.269542
-0.265568
-0.26118
-0.25136
-0.287973
-0.288181
-0.288284
-0.288307
-0.288266
-0.288167
-0.288016
-0.287822
-0.287593
-0.287337
-0.287058
-0.286759
-0.286441
-0.2861
-0.285729
-0.285319
-0.284854
-0.284315
-0.283677
-0.282908
-0.28197
-0.280814
-0.279383
-0.277607
-0.275403
-0.272675
-0.269296
-0.265108
-0.260799
-0.249967
-0.289714
-0.289866
-0.289915
-0.289879
-0.289775
-0.289606
-0.289382
-0.289112
-0.288804
-0.288468
-0.288108
-0.287728
-0.287329
-0.286909
-0.28646
-0.285972
-0.285431
-0.284817
-0.284102
-0.283255
-0.282235
-0.280992
-0.279467
-0.277587
-0.275268
-0.272413
-0.268907
-0.264496
-0.260307
-0.248646
-0.291519
-0.291614
-0.291607
-0.29151
-0.291337
-0.291094
-0.29079
-0.290436
-0.290042
-0.289617
-0.289168
-0.288699
-0.288212
-0.287703
-0.287168
-0.286595
-0.285969
-0.285269
-0.284469
-0.283533
-0.28242
-0.281078
-0.279446
-0.27745
-0.275002
-0.272009
-0.268367
-0.263735
-0.25965
-0.247375
-0.293394
-0.293433
-0.293367
-0.293204
-0.292957
-0.292634
-0.292244
-0.291799
-0.291311
-0.29079
-0.290243
-0.289677
-0.289093
-0.288488
-0.287858
-0.287191
-0.286471
-0.285678
-0.284782
-0.283747
-0.28253
-0.281078
-0.279326
-0.277199
-0.27461
-0.271465
-0.267673
-0.262843
-0.258784
-0.246224
-0.29535
-0.295331
-0.295202
-0.29497
-0.294644
-0.294234
-0.29375
-0.293207
-0.292618
-0.291992
-0.291341
-0.290669
-0.289979
-0.289271
-0.288537
-0.287768
-0.286947
-0.28605
-0.285049
-0.283905
-0.282573
-0.280997
-0.279111
-0.276839
-0.274094
-0.270787
-0.266823
-0.261838
-0.257644
-0.245196
-0.297399
-0.297319
-0.297124
-0.296817
-0.296406
-0.295902
-0.295318
-0.294669
-0.29397
-0.293233
-0.292468
-0.291683
-0.290881
-0.29006
-0.289216
-0.288337
-0.287405
-0.286397
-0.28528
-0.284016
-0.282556
-0.280842
-0.278808
-0.276377
-0.273464
-0.269987
-0.265828
-0.260748
-0.256112
-0.244119
-0.299554
-0.299408
-0.299143
-0.298756
-0.298253
-0.297648
-0.296956
-0.296194
-0.295378
-0.294521
-0.293636
-0.292731
-0.291808
-0.290869
-0.289907
-0.28891
-0.28786
-0.28673
-0.285487
-0.28409
-0.282488
-0.280621
-0.278422
-0.275817
-0.272726
-0.269079
-0.264736
-0.259665
-0.254201
-0.243114
-0.30183
-0.301614
-0.301273
-0.300798
-0.300197
-0.299484
-0.298677
-0.297795
-0.296854
-0.295871
-0.294858
-0.293825
-0.292776
-0.291712
-0.290624
-0.289502
-0.288324
-0.287062
-0.285682
-0.284138
-0.282378
-0.280339
-0.277956
-0.275159
-0.271876
-0.268063
-0.263582
-0.258665
-0.252436
-0.244157
-0.304244
-0.303951
-0.303526
-0.302958
-0.302251
-0.301422
-0.300493
-0.299483
-0.29841
-0.297294
-0.296147
-0.294981
-0.293799
-0.292602
-0.291383
-0.290126
-0.288811
-0.287408
-0.285876
-0.284168
-0.282229
-0.279997
-0.277407
-0.274395
-0.270902
-0.266906
-0.262307
-0.257534
-0.25142
-0.249878
-0.306815
-0.306436
-0.30592
-0.30525
-0.304429
-0.303478
-0.302418
-0.301273
-0.300062
-0.298806
-0.29752
-0.296214
-0.294893
-0.293558
-0.292199
-0.2908
-0.289337
-0.287777
-0.286077
-0.284186
-0.282046
-0.279594
-0.276769
-0.273514
-0.269782
-0.265572
-0.260833
-0.255988
-0.250157
-0.248099
-0.30956
-0.309085
-0.308469
-0.307689
-0.306746
-0.305664
-0.304467
-0.303179
-0.301825
-0.300424
-0.298992
-0.297541
-0.296075
-0.294594
-0.293088
-0.291537
-0.289913
-0.288181
-0.286292
-0.284194
-0.281825
-0.279124
-0.276033
-0.272502
-0.268498
-0.264034
-0.259092
-0.254022
-0.248146
-0.244801
-0.312498
-0.311916
-0.31119
-0.310292
-0.309218
-0.307996
-0.306655
-0.305219
-0.303714
-0.302162
-0.30058
-0.298978
-0.297362
-0.295729
-0.294065
-0.292349
-0.29055
-0.288625
-0.286525
-0.284191
-0.281562
-0.278579
-0.275187
-0.271348
-0.267039
-0.262284
-0.257084
-0.251708
-0.245635
-0.241211
-0.315649
-0.314946
-0.3141
-0.313073
-0.31186
-0.310491
-0.308998
-0.307408
-0.305747
-0.304039
-0.302301
-0.300543
-0.29877
-0.296975
-0.295143
-0.293248
-0.291254
-0.289113
-0.286773
-0.284172
-0.281249
-0.277948
-0.274223
-0.270044
-0.265403
-0.260329
-0.254837
-0.249133
-0.242822
-0.237539
-0.31903
-0.318192
-0.317214
-0.316049
-0.314687
-0.313164
-0.311512
-0.309762
-0.30794
-0.306071
-0.304172
-0.302252
-0.300313
-0.298347
-0.296333
-0.29424
-0.292028
-0.289644
-0.287031
-0.284128
-0.280875
-0.277222
-0.273131
-0.268586
-0.263592
-0.258185
-0.252389
-0.24637
-0.239825
-0.233955
-0.32266
-0.321671
-0.320548
-0.319235
-0.317716
-0.316031
-0.314213
-0.312297
-0.310309
-0.308274
-0.306208
-0.304119
-0.302005
-0.299854
-0.297641
-0.295329
-0.292871
-0.290211
-0.28729
-0.284047
-0.280427
-0.276388
-0.271905
-0.266975
-0.261616
-0.255873
-0.249778
-0.243473
-0.236721
-0.230453
-0.326553
-0.325397
-0.324117
-0.322645
-0.320961
-0.319105
-0.317117
-0.315028
-0.312869
-0.310663
-0.308423
-0.306156
-0.303856
-0.301504
-0.29907
-0.296511
-0.293776
-0.290804
-0.287536
-0.283914
-0.279891
-0.275437
-0.270541
-0.265214
-0.259487
-0.253414
-0.247035
-0.240476
-0.23355
-0.227019
-0.330725
-0.329384
-0.327934
-0.326294
-0.324435
-0.322402
-0.320236
-0.317971
-0.315635
-0.313251
-0.31083
-0.308374
-0.305872
-0.303299
-0.300619
-0.297782
-0.294732
-0.291408
-0.287752
-0.283713
-0.279255
-0.274362
-0.269037
-0.263309
-0.257219
-0.250829
-0.244184
-0.237401
-0.230328
-0.22362
-0.335188
-0.333644
-0.332012
-0.330194
-0.328152
-0.325935
-0.323586
-0.321138
-0.31862
-0.316051
-0.313438
-0.31078
-0.308056
-0.305238
-0.302279
-0.299127
-0.295722
-0.292004
-0.287919
-0.283427
-0.278506
-0.273154
-0.267394
-0.261265
-0.254822
-0.248131
-0.241242
-0.23426
-0.227061
-0.220227
-0.339951
-0.338186
-0.33636
-0.334354
-0.332122
-0.329714
-0.327176
-0.32454
-0.321833
-0.31907
-0.316253
-0.313374
-0.310406
-0.307311
-0.304039
-0.300531
-0.296727
-0.29257
-0.288017
-0.283039
-0.277631
-0.271809
-0.265611
-0.25909
-0.252307
-0.245332
-0.238217
-0.231057
-0.223745
-0.216812
-0.345022
-0.343019
-0.340986
-0.338784
-0.336353
-0.333749
-0.331017
-0.328187
-0.325282
-0.322313
-0.319277
-0.316155
-0.312914
-0.309507
-0.30588
-0.30197
-0.297721
-0.293082
-0.288023
-0.282532
-0.276621
-0.270323
-0.263692
-0.256788
-0.249682
-0.242439
-0.235113
-0.227789
-0.220374
-0.213353
-0.350403
-0.348146
-0.345894
-0.343488
-0.340854
-0.338048
-0.335115
-0.332084
-0.328972
-0.325783
-0.322506
-0.319114
-0.315565
-0.311807
-0.307778
-0.303418
-0.298676
-0.293515
-0.287917
-0.28189
-0.275465
-0.268693
-0.261635
-0.254364
-0.246948
-0.239454
-0.231931
-0.224453
-0.21694
-0.209833
-0.356095
-0.353567
-0.351088
-0.34847
-0.345626
-0.342613
-0.339473
-0.336232
-0.3329
-0.329473
-0.325931
-0.322237
-0.318341
-0.314183
-0.309703
-0.304844
-0.299564
-0.293841
-0.287677
-0.281099
-0.274157
-0.266913
-0.259442
-0.251818
-0.244109
-0.236376
-0.228667
-0.221042
-0.213433
-0.206239
-0.362092
-0.35928
-0.356564
-0.353729
-0.350671
-0.347444
-0.344092
-0.340631
-0.337063
-0.333376
-0.329538
-0.325503
-0.321214
-0.316607
-0.311622
-0.306214
-0.300352
-0.294034
-0.287283
-0.280145
-0.272686
-0.264982
-0.257111
-0.249148
-0.24116
-0.233202
-0.225315
-0.217547
-0.209843
-0.202559
-0.368387
-0.365277
-0.362316
-0.35926
-0.355983
-0.352539
-0.348966
-0.345271
-0.341449
-0.337474
-0.333304
-0.328885
-0.324151
-0.31904
-0.313498
-0.307492
-0.301009
-0.294069
-0.286716
-0.279015
-0.271046
-0.262893
-0.254637
-0.246352
-0.238098
-0.229924
-0.221865
-0.21396
-0.206161
-0.198782
-0.374964
-0.371545
-0.368335
-0.365054
-0.361555
-0.357887
-0.354083
-0.35014
-0.346039
-0.341744
-0.337201
-0.332346
-0.327113
-0.321442
-0.31529
-0.30864
-0.301503
-0.29392
-0.285957
-0.277696
-0.269227
-0.26064
-0.252015
-0.243421
-0.234914
-0.226534
-0.21831
-0.21027
-0.202377
-0.1949
-0.381803
-0.378067
-0.374603
-0.371096
-0.367371
-0.363474
-0.359427
-0.355216
-0.350808
-0.346154
-0.34119
-0.335846
-0.330056
-0.323768
-0.316955
-0.309622
-0.301803
-0.293564
-0.284988
-0.276174
-0.267219
-0.258214
-0.249237
-0.240349
-0.2316
-0.223022
-0.214638
-0.206466
-0.19848
-0.190904
-0.388879
-0.38482
-0.3811
-0.377366
-0.373412
-0.369278
-0.364974
-0.360472
-0.355723
-0.350667
-0.345229
-0.339337
-0.33293
-0.32597
-0.31845
-0.310399
-0.301879
-0.292976
-0.283793
-0.274438
-0.265013
-0.255607
-0.246292
-0.237125
-0.228143
-0.219375
-0.210837
-0.202538
-0.194461
-0.186784
-0.396158
-0.391772
-0.387798
-0.383836
-0.379651
-0.375271
-0.370693
-0.365871
-0.360743
-0.355235
-0.349266
-0.342765
-0.335682
-0.327998
-0.319731
-0.310936
-0.3017
-0.292134
-0.282353
-0.272473
-0.262596
-0.252806
-0.24317
-0.233735
-0.224533
-0.215583
-0.206896
-0.198474
-0.190308
-0.182533
-0.403601
-0.398889
-0.394661
-0.390473
-0.386054
-0.381417
-0.376543
-0.371369
-0.365818
-0.359804
-0.353244
-0.346073
-0.338258
-0.329802
-0.320753
-0.311195
-0.30124
-0.291016
-0.280652
-0.270265
-0.259954
-0.249799
-0.239858
-0.230168
-0.220755
-0.211631
-0.202801
-0.194263
-0.186012
-0.178142
-0.411161
-0.406125
-0.401649
-0.397237
-0.392578
-0.387671
-0.382477
-0.376915
-0.370891
-0.364313
-0.357101
-0.3492
-0.340599
-0.331331
-0.321474
-0.311142
-0.30047
-0.289601
-0.278671
-0.267797
-0.257073
-0.246571
-0.23634
-0.226409
-0.216796
-0.207507
-0.198542
-0.189894
-0.181562
-0.173602
-0.418783
-0.413431
-0.408712
-0.404078
-0.399175
-0.393982
-0.388439
-0.382446
-0.375898
-0.368697
-0.360769
-0.352081
-0.342648
-0.332534
-0.321852
-0.310743
-0.299364
-0.287867
-0.276393
-0.265053
-0.253938
-0.243107
-0.232602
-0.222443
-0.212641
-0.203197
-0.194105
-0.185355
-0.176949
-0.168905
-0.426408
-0.420748
-0.415794
-0.410941
-0.405787
-0.400288
-0.394364
-0.387897
-0.380768
-0.372882
-0.36418
-0.354652
-0.344346
-0.333363
-0.321848
-0.309968
-0.297896
-0.285793
-0.273797
-0.262017
-0.250531
-0.239391
-0.228627
-0.218255
-0.208276
-0.198687
-0.189478
-0.180635
-0.172163
-0.164043
-0.433965
-0.428011
-0.422831
-0.417761
-0.412349
-0.406523
-0.400182
-0.39319
-0.385424
-0.376794
-0.367261
-0.356847
-0.345638
-0.333771
-0.321422
-0.308783
-0.29604
-0.283356
-0.270866
-0.258669
-0.246835
-0.235405
-0.224401
-0.213829
-0.203687
-0.193965
-0.184649
-0.175725
-0.167194
-0.159008
-0.441379
-0.435147
-0.429753
-0.424469
-0.418787
-0.41261
-0.405813
-0.398246
-0.389785
-0.380353
-0.369939
-0.358602
-0.346467
-0.333711
-0.320538
-0.307161
-0.293772
-0.280536
-0.267579
-0.254992
-0.242832
-0.231133
-0.219906
-0.209151
-0.198859
-0.189018
-0.179608
-0.170614
-0.162034
-0.153793
-0.448568
-0.442079
-0.436483
-0.430985
-0.425022
-0.418467
-0.411173
-0.40298
-0.393767
-0.38348
-0.372143
-0.359854
-0.346781
-0.33314
-0.319161
-0.305071
-0.291067
-0.27731
-0.263916
-0.250966
-0.238505
-0.226557
-0.215126
-0.204204
-0.193779
-0.183832
-0.174342
-0.165291
-0.156673
-0.148391
-0.455446
-0.448721
-0.442936
-0.437226
-0.430968
-0.424006
-0.416172
-0.407301
-0.397284
-0.386097
-0.3738
-0.360541
-0.34653
-0.332018
-0.317258
-0.302486
-0.287902
-0.273656
-0.259857
-0.246572
-0.233835
-0.221661
-0.210045
-0.198976
-0.188434
-0.178397
-0.168842
-0.159749
-0.151104
-0.142797
-0.461919
-0.454983
-0.449024
-0.443101
-0.436534
-0.429133
-0.420717
-0.411119
-0.400251
-0.388123
-0.374843
-0.360606
-0.345666
-0.330305
-0.314796
-0.29938
-0.284252
-0.269555
-0.255383
-0.241792
-0.228805
-0.216428
-0.204649
-0.193451
-0.18281
-0.172701
-0.163097
-0.153979
-0.145321
-0.137005
-0.46789
-0.460772
-0.454652
-0.448516
-0.441623
-0.433753
-0.424713
-0.414343
-0.402582
-0.389483
-0.375205
-0.359994
-0.344145
-0.327967
-0.311746
-0.295727
-0.280096
-0.264984
-0.250474
-0.236607
-0.223398
-0.210842
-0.198923
-0.187616
-0.176896
-0.166733
-0.157098
-0.147972
-0.139316
-0.131012
-0.473261
-0.46599
-0.459725
-0.453374
-0.446137
-0.437767
-0.428063
-0.41688
-0.404192
-0.390103
-0.374826
-0.358655
-0.341925
-0.324968
-0.30808
-0.291502
-0.275411
-0.259924
-0.24511
-0.231
-0.217597
-0.204888
-0.192852
-0.18146
-0.170681
-0.160484
-0.150837
-0.14172
-0.133083
-0.12481
-0.47793
-0.470537
-0.464141
-0.457574
-0.449976
-0.441075
-0.430671
-0.418642
-0.405004
-0.389915
-0.373647
-0.356541
-0.338969
-0.321279
-0.303772
-0.286683
-0.270177
-0.254356
-0.239276
-0.224954
-0.211386
-0.198553
-0.186424
-0.17497
-0.164154
-0.153944
-0.144305
-0.135217
-0.126616
-0.118396
-0.481794
-0.474313
-0.467802
-0.461015
-0.453039
-0.443581
-0.432446
-0.419543
-0.404941
-0.388855
-0.371615
-0.353611
-0.335241
-0.31687
-0.298798
-0.281249
-0.264374
-0.248262
-0.232953
-0.218455
-0.204754
-0.191823
-0.179629
-0.168136
-0.157307
-0.147104
-0.137494
-0.128454
-0.119908
-0.111764
-0.484755
-0.477218
-0.470606
-0.463598
-0.455227
-0.445187
-0.433296
-0.419503
-0.403932
-0.386864
-0.368684
-0.349825
-0.330712
-0.311717
-0.293135
-0.275179
-0.257985
-0.241625
-0.226127
-0.211488
-0.197685
-0.184687
-0.172455
-0.160949
-0.15013
-0.139959
-0.130399
-0.121427
-0.112956
-0.104911
-0.486711
-0.479153
-0.472455
-0.465223
-0.456444
-0.445801
-0.433136
-0.418444
-0.401914
-0.383889
-0.364811
-0.345151
-0.325354
-0.305796
-0.286765
-0.268458
-0.250994
-0.234431
-0.218785
-0.204041
-0.190171
-0.177135
-0.164893
-0.153401
-0.142617
-0.1325
-0.123011
-0.11413
-0.105757
-0.0978371
-0.487567
-0.480023
-0.473254
-0.465795
-0.456596
-0.445336
-0.431887
-0.4163
-0.398829
-0.379883
-0.359958
-0.339559
-0.319144
-0.299089
-0.27967
-0.261069
-0.243387
-0.226667
-0.210914
-0.196104
-0.1822
-0.16916
-0.156938
-0.145487
-0.134763
-0.124721
-0.115325
-0.106554
-0.0983062
-0.0905322
-0.487233
-0.479737
-0.472911
-0.465226
-0.455598
-0.443711
-0.429477
-0.413007
-0.394625
-0.374807
-0.354095
-0.333024
-0.312062
-0.291579
-0.271837
-0.252999
-0.235152
-0.218324
-0.202506
-0.187669
-0.173768
-0.160756
-0.148583
-0.137201
-0.126562
-0.116619
-0.107333
-0.0986895
-0.0905814
-0.082946
-0.485624
-0.478208
-0.47134
-0.463429
-0.453367
-0.440852
-0.42584
-0.408511
-0.38926
-0.368626
-0.347196
-0.325527
-0.304093
-0.283253
-0.263253
-0.244239
-0.22628
-0.209392
-0.193554
-0.178729
-0.164868
-0.151918
-0.139827
-0.128543
-0.118015
-0.108193
-0.0990385
-0.0905371
-0.082555
-0.0749671
-0.48266
-0.475358
-0.468462
-0.460328
-0.449833
-0.436694
-0.420921
-0.402767
-0.382698
-0.361315
-0.339242
-0.317054
-0.295225
-0.274101
-0.25391
-0.234781
-0.216765
-0.199866
-0.184053
-0.169281
-0.155497
-0.142645
-0.130667
-0.119511
-0.109123
-0.0994476
-0.0904493
-0.0821136
-0.0742427
-0.0665643
-0.478271
-0.471115
-0.464206
-0.455854
-0.444929
-0.431179
-0.414673
-0.395737
-0.374912
-0.352852
-0.330217
-0.307595
-0.28545
-0.264117
-0.243804
-0.224621
-0.206604
-0.189743
-0.174
-0.159324
-0.145656
-0.132936
-0.121106
-0.110108
-0.0998869
-0.0903868
-0.0815725
-0.0734255
-0.0656849
-0.0581797
-0.472396
-0.465416
-0.45851
-0.449946
-0.438602
-0.42426
-0.407056
-0.387392
-0.365881
-0.343226
-0.320116
-0.297143
-0.274766
-0.2533
-0.232933
-0.213757
-0.195794
-0.179023
-0.163397
-0.148859
-0.135345
-0.122795
-0.111145
-0.100337
-0.0903123
-0.0810169
-0.0724147
-0.0644695
-0.0568803
-0.0497097
-0.464982
-0.458208
-0.451319
-0.442554
-0.430807
-0.415901
-0.398043
-0.377714
-0.355593
-0.33243
-0.308934
-0.285701
-0.263174
-0.24165
-0.221299
-0.202192
-0.18434
-0.167708
-0.152246
-0.137888
-0.12457
-0.112225
-0.10079
-0.0902041
-0.0804065
-0.0713415
-0.0629775
-0.0552584
-0.0478679
-0.04104
-0.455987
-0.449447
-0.442591
-0.433639
-0.421508
-0.406073
-0.387615
-0.366691
-0.344044
-0.320464
-0.296676
-0.273271
-0.250679
-0.229174
-0.208906
-0.189932
-0.172245
-0.155805
-0.140552
-0.126418
-0.113335
-0.101233
-0.0900476
-0.0797154
-0.0701745
-0.0613684
-0.0532675
-0.0458018
-0.0386416
-0.0321465
-0.445381
-0.4391
-0.432294
-0.42317
-0.410682
-0.394761
-0.375763
-0.354322
-0.331238
-0.307335
-0.28335
-0.259864
-0.23729
-0.21588
-0.195765
-0.176983
-0.159518
-0.143321
-0.128325
-0.114459
-0.101651
-0.0898287
-0.0789265
-0.0688798
-0.0596251
-0.0511055
-0.0432932
-0.0361064
-0.0291978
-0.0230361
-0.433141
-0.427145
-0.420406
-0.41113
-0.398316
-0.381958
-0.362488
-0.340612
-0.317185
-0.293058
-0.268971
-0.245495
-0.223022
-0.201783
-0.181887
-0.16336
-0.146172
-0.130269
-0.115576
-0.102021
-0.0895267
-0.0780217
-0.0674373
-0.0577078
-0.0487684
-0.0405625
-0.033064
-0.026179
-0.0195395
-0.0137212
-0.419259
-0.413571
-0.406916
-0.39751
-0.384409
-0.367669
-0.347799
-0.325577
-0.301903
-0.277651
-0.25356
-0.230184
-0.207893
-0.186897
-0.167287
-0.149078
-0.132222
-0.116661
-0.102319
-0.0891166
-0.0769768
-0.0658255
-0.0555928
-0.0462118
-0.0376165
-0.029751
-0.0225908
-0.016029
-0.00967522
-0.00421399
-0.403738
-0.398378
-0.391826
-0.382316
-0.368968
-0.351906
-0.331716
-0.30924
-0.285419
-0.261141
-0.23714
-0.213953
-0.191926
-0.171247
-0.15199
-0.134153
-0.117684
-0.102517
-0.0885699
-0.075763
-0.0640166
-0.0532552
-0.0434077
-0.0344062
-0.0261834
-0.0186843
-0.0118864
-0.00566793
0.000383352
0.00547245
-0.386588
-0.381577
-0.375147
-0.365562
-0.352013
-0.334695
-0.314268
-0.291632
-0.267764
-0.24356
-0.219745
-0.196832
-0.175148
-0.154857
-0.136016
-0.118609
-0.102581
-0.0878546
-0.0743483
-0.0619783
-0.0506638
-0.040328
-0.0308987
-0.0223069
-0.0144846
-0.00737777
-0.000965241
0.00489001
0.0106219
0.0153239
-0.367836
-0.363191
-0.356903
-0.347274
-0.333574
-0.316069
-0.29549
-0.272791
-0.248976
-0.224946
-0.201412
-0.178851
-0.157589
-0.137755
-0.119392
-0.102473
-0.0869353
-0.0726981
-0.0596759
-0.0477834
-0.0369384
-0.027063
-0.0180842
-0.00993208
-0.00253776
0.00415159
0.0101559
0.0156284
0.0210235
0.0253242
-0.347516
-0.343253
-0.337127
-0.327487
-0.313689
-0.29607
-0.275427
-0.252763
-0.229102
-0.20534
-0.182168
-0.160058
-0.139285
-0.119974
-0.102149
-0.0857724
-0.0707751
-0.0570727
-0.044577
-0.0332013
-0.0228623
-0.0134813
-0.0049845
0.00269879
0.0096381
0.0158849
0.0214585
0.0265288
0.0315692
0.0354554
-0.325672
-0.321805
-0.315864
-0.306248
-0.292407
-0.27475
-0.254133
-0.231601
-0.208188
-0.184787
-0.162073
-0.140485
-0.120276
-0.101551
-0.0843206
-0.0685388
-0.0541299
-0.0410064
-0.0290782
-0.0182572
-0.00845939
0.000394455
0.00837864
0.0155646
0.0220223
0.0278019
0.0329222
0.0375703
0.0422368
0.0456953
-0.302361
-0.298902
-0.293166
-0.283613
-0.269788
-0.252169
-0.231668
-0.209358
-0.18629
-0.163347
-0.141171
-0.120181
-0.100602
-0.0825244
-0.0659442
-0.0508069
-0.0370323
-0.02453
-0.0132083
-0.00297821
0.00624466
0.0145399
0.021982
0.028643
0.0345931
0.0398807
0.0445252
0.0487304
0.0530006
0.0560138
-0.277649
-0.274607
-0.269098
-0.259646
-0.245898
-0.228395
-0.208089
-0.186098
-0.163474
-0.141073
-0.119516
-0.0991943
-0.0803114
-0.0629381
-0.0470597
-0.0326144
-0.0195174
-0.00767626
0.00300197
0.0126067
0.0212226
0.0289293
0.0358013
0.0419108
0.0473278
0.0520989
0.0562448
0.0599843
0.0638299
0.066375
-0.251611
-0.248989
-0.243731
-0.234424
-0.220812
-0.203485
-0.183472
-0.161899
-0.139805
-0.118028
-0.0971655
-0.0775797
-0.0594524
-0.0428377
-0.0277101
-0.0140012
-0.00162276
0.00951963
0.0195196
0.0284667
0.0364458
0.0435359
0.0498114
0.0553442
0.0602035
0.0644339
0.0680576
0.0713061
0.0746927
0.0767476
-0.224323
-0.222131
-0.217145
-0.208024
-0.194589
-0.177535
-0.157905
-0.136832
-0.11535
-0.0942777
-0.0741798
-0.0553933
-0.0380779
-0.0222722
-0.00794097
0.00498997
0.0166119
0.0270205
0.0363098
0.0445696
0.0518839
0.0583316
0.0639862
0.068919
0.0731975
0.0768634
0.0799416
0.0826734
0.085564
0.0871075
-0.195859
-0.194121
-0.189431
-0.180516
-0.167343
-0.150636
-0.131464
-0.110974
-0.0901856
-0.0698905
-0.0506235
-0.0326948
-0.0162434
-0.00129332
0.0121995
0.0243142
0.0351444
0.044787
0.0533362
0.0608812
0.0675057
0.0732874
0.0782992
0.082611
0.0862871
0.0893655
0.091877
0.094072
0.0964256
0.0973917
-0.166293
-0.165055
-0.160696
-0.152022
-0.139164
-0.12287
-0.104236
-0.084408
-0.0643888
-0.0449392
-0.026564
-0.00954689
0.00599297
0.0200448
0.0326607
0.0439242
0.0539309
0.0627783
0.0705605
0.0773662
0.0832783
0.0883735
0.0927234
0.0963958
0.0994496
0.101919
0.103849
0.105491
0.107229
0.107442
-0.135734
-0.135118
-0.130987
-0.122627
-0.110145
-0.0943336
-0.0763119
-0.0572213
-0.0380404
-0.0194991
-0.00207112
0.0139855
0.0285706
0.0416857
0.0533901
0.0637709
0.0729255
0.0809515
0.0879429
0.0939877
0.0991679
0.103559
0.107231
0.11025
0.112665
0.114512
0.115855
0.116914
0.11786
0.117085
-0.104423
-0.104248
-0.100461
-0.0924448
-0.080389
-0.0651266
-0.0477877
-0.029503
-0.0112242
0.00635189
0.0227826
0.037835
0.0514269
0.063571
0.0743331
0.0838034
0.0920804
0.0992621
0.105442
0.110707
0.115139
0.118812
0.121795
0.124149
0.125918
0.127144
0.127914
0.128349
0.12826
0.126361
-0.0723717
-0.0726335
-0.0692218
-0.0615825
-0.0500037
-0.0353519
-0.018761
-0.00134532
0.0159737
0.0325335
0.0479225
0.0619322
0.0744971
0.0856403
0.0954333
0.103969
0.111347
0.117664
0.123015
0.127485
0.131154
0.134098
0.136382
0.138066
0.139191
0.139817
0.140052
0.139847
0.138639
0.135813
-0.0396883
-0.040405
-0.0373815
-0.0301522
-0.0190992
-0.0051154
0.0106678
0.0271575
0.0434653
0.0589639
0.0732725
0.0862062
0.0977151
0.107832
0.116633
0.124214
0.130674
0.136111
0.140617
0.144279
0.147175
0.14938
0.150959
0.151968
0.152454
0.1525
0.152218
0.15135
0.149081
0.147548
-0.00650051
-0.00767953
-0.00505739
0.00172996
0.0122115
0.0254747
0.0403963
0.0559094
0.0711609
0.0855595
0.0987548
0.110584
0.121013
0.130083
0.137873
0.144482
0.15001
0.154553
0.158204
0.161048
0.163162
0.164621
0.165488
0.16582
0.165669
0.165128
0.164279
0.162791
0.160164
0.159305
0.0270646
0.0254214
0.0276295
0.0339451
0.0438135
0.0563085
0.0703208
0.084813
0.0989696
0.112236
0.124291
0.134993
0.144323
0.152328
0.159094
0.164719
0.169303
0.172943
0.175729
0.177747
0.179074
0.179781
0.179934
0.179587
0.178798
0.17766
0.176222
0.174163
0.171243
0.17032
0.0608797
0.0587731
0.0605557
0.0663725
0.0755903
0.087275
0.100336
0.11377
0.1268
0.138907
0.1498
0.159359
0.167575
0.174504
0.180235
0.184867
0.188499
0.191229
0.193146
0.194334
0.194869
0.194822
0.194257
0.193231
0.191802
0.190059
0.188036
0.185449
0.182208
0.180943
0.0948164
0.0922492
0.0935965
0.0988904
0.107424
0.118262
0.130337
0.142682
0.154559
0.165487
0.175204
0.183607
0.1907
0.196546
0.201235
0.204869
0.207546
0.209363
0.210408
0.210763
0.210505
0.209704
0.208422
0.206715
0.204644
0.202293
0.199686
0.196575
0.19295
0.191241
0.128746
0.125722
0.126626
0.131376
0.139198
0.149159
0.160219
0.171449
0.182155
0.191891
0.200421
0.207661
0.213627
0.218387
0.222033
0.224668
0.22639
0.227294
0.227467
0.226992
0.225943
0.224388
0.22239
0.220005
0.217293
0.214332
0.211144
0.207503
0.203456
0.201256
0.162538
0.159064
0.159519
0.163708
0.170794
0.179852
0.189875
0.199975
0.209497
0.218033
0.225371
0.231448
0.236287
0.239962
0.242569
0.244207
0.244977
0.244972
0.244278
0.242976
0.241139
0.238836
0.236126
0.233066
0.229715
0.226147
0.222378
0.218205
0.213713
0.210998
0.196065
0.192148
0.192149
0.195763
0.202095
0.210232
0.219202
0.22816
0.236493
0.243827
0.249977
0.254893
0.258611
0.261207
0.26278
0.263429
0.263254
0.262347
0.260793
0.258671
0.256054
0.253009
0.249594
0.245865
0.241879
0.237708
0.233362
0.228657
0.223711
0.220468
0.229199
0.224847
0.224392
0.227421
0.232985
0.240188
0.248097
0.255908
0.263053
0.269189
0.274158
0.277923
0.28053
0.282058
0.282607
0.282279
0.281169
0.27937
0.276966
0.274035
0.270648
0.266869
0.262759
0.258369
0.253756
0.248988
0.244071