/*--------------------------------*- C++ -*----------------------------------*\
  =========                 |
  \\      /  F ield         | OpenFOAM: The Open Source CFD Toolbox
   \\    /   O peration     | Website:  https://openfoam.org
    \\  /    A nd           | Version:  7
     \\/     M anipulation  |
\*---------------------------------------------------------------------------*/
FoamFile
{
    version     2.0;
    format      ascii;
    class       surfaceScalarField;
    location    "72";
    object      phi;
}
// * * * * * * * * * * * * * * * * * * * * * * * * * * * * * * * * * * * * * //

dimensions      [0 3 -1 0 0 0 0];

internalField   nonuniform List<scalar> 
79480
(
-7.69405e-07
-3.05722e-06
3.82663e-06
-2.96134e-06
-9.02865e-06
1.12206e-05
-6.52191e-06
-1.50561e-05
1.86166e-05
-1.13957e-05
-2.10851e-05
2.59589e-05
-1.75252e-05
-2.70618e-05
3.31913e-05
-2.48509e-05
-3.29395e-05
4.02653e-05
-3.3312e-05
-3.86817e-05
4.71428e-05
-4.28464e-05
-4.42653e-05
5.37998e-05
-5.33913e-05
-4.96834e-05
6.02282e-05
-6.48834e-05
-5.49471e-05
6.64392e-05
-7.72594e-05
-6.00869e-05
7.2463e-05
-9.04565e-05
-6.51519e-05
7.8349e-05
-0.000104413
-7.02079e-05
8.41639e-05
-0.000119066
-7.53344e-05
8.99881e-05
-0.000134357
-8.06204e-05
9.59116e-05
-0.000150228
-8.61588e-05
0.000102029
-0.00016662
-9.20415e-05
0.000108434
-0.00018348
-9.83532e-05
0.000115214
-0.000200758
-0.000105167
0.000122445
-0.000218409
-0.000112539
0.00013019
-0.000236396
-0.000120506
0.000138493
-0.000254697
-0.00012908
0.000147381
-0.000273307
-0.00013825
0.000156859
-0.000292246
-0.000147975
0.000166914
-0.000311568
-0.000158191
0.000177513
-0.000331366
-0.000168804
0.000188603
-0.00035178
-0.000179697
0.00020011
-0.000372989
-0.000190731
0.00021194
-0.000395216
-0.000201734
0.00022396
-0.00021245
0.000235976
-0.000418743
-7.91988e-07
-2.26524e-06
-3.04535e-06
-6.77529e-06
-6.7018e-06
-1.13996e-05
-1.17017e-05
-1.60852e-05
-1.79834e-05
-2.07802e-05
-2.54837e-05
-2.54392e-05
-3.41384e-05
-3.00271e-05
-4.38824e-05
-3.45213e-05
-5.46506e-05
-3.89152e-05
-6.63777e-05
-4.322e-05
-7.89994e-05
-4.74653e-05
-9.2452e-05
-5.16993e-05
-0.000106673
-5.59866e-05
-0.000121602
-6.04054e-05
-0.00013718
-6.5043e-05
-0.000153348
-6.99908e-05
-0.00017005
-7.53387e-05
-0.000187234
-8.11693e-05
-0.000204849
-8.75521e-05
-0.00022285
-9.45383e-05
-0.0002412
-0.000102156
-0.000259873
-0.000110407
-0.000278863
-0.00011926
-0.000298187
-0.000128651
-0.000317897
-0.000138481
-0.000338084
-0.000148617
-0.000358885
-0.000158896
-0.000380481
-0.000169135
-0.000403088
-0.000179127
-0.000188559
-0.000426979
-8.08491e-07
-1.45675e-06
-3.10652e-06
-4.47726e-06
-6.83229e-06
-7.67385e-06
-1.19226e-05
-1.09949e-05
-1.83123e-05
-1.43904e-05
-2.5935e-05
-1.78165e-05
-3.47233e-05
-2.12388e-05
-4.46094e-05
-2.46351e-05
-5.55259e-05
-2.79988e-05
-6.74055e-05
-3.13403e-05
-8.01825e-05
-3.46883e-05
-9.37923e-05
-3.80895e-05
-0.000108172
-4.16071e-05
-0.00012326
-4.53173e-05
-0.000138997
-4.93059e-05
-0.000155325
-5.36628e-05
-0.000172188
-5.84763e-05
-0.00018953
-6.38272e-05
-0.000207299
-6.97829e-05
-0.000225446
-7.63908e-05
-0.00024393
-8.36728e-05
-0.000262718
-9.16192e-05
-0.000281794
-0.000100184
-0.000301167
-0.000109278
-0.000320877
-0.000118771
-0.000341007
-0.000128487
-0.000361688
-0.000138215
-0.000383095
-0.000147728
-0.000405442
-0.000156779
-0.000165005
-0.000428996
-8.18717e-07
-6.38029e-07
-3.14416e-06
-2.15182e-06
-6.91188e-06
-3.90612e-06
-1.20559e-05
-5.85088e-06
-1.85084e-05
-7.938e-06
-2.61999e-05
-1.0125e-05
-3.50605e-05
-1.23782e-05
-4.50198e-05
-1.46758e-05
-5.60081e-05
-1.70105e-05
-6.79563e-05
-1.93921e-05
-8.07967e-05
-2.18478e-05
-9.44636e-05
-2.44227e-05
-0.000108893
-2.71779e-05
-0.000124022
-3.01881e-05
-0.00013979
-3.35374e-05
-0.000156139
-3.73144e-05
-0.000173008
-4.16066e-05
-0.000190341
-4.64943e-05
-0.00020808
-5.20438e-05
-0.00022617
-5.83009e-05
-0.00024456
-6.52836e-05
-0.000263204
-7.29745e-05
-0.000282074
-8.13136e-05
-0.000301161
-9.01914e-05
-0.000320487
-9.94446e-05
-0.000340119
-0.000108855
-0.000360174
-0.00011816
-0.000380822
-0.000127079
-0.000402275
-0.000135326
-0.000142481
-0.000424799
-8.22568e-07
1.84539e-07
-3.1579e-06
1.83518e-07
-6.93987e-06
-1.24158e-07
-1.21005e-05
-6.90224e-07
-1.85698e-05
-1.46877e-06
-2.6276e-05
-2.41879e-06
-3.51467e-05
-3.5074e-06
-4.51095e-05
-4.71296e-06
-5.60922e-05
-6.02785e-06
-6.80237e-05
-7.46059e-06
-8.08346e-05
-9.03698e-06
-9.44571e-05
-1.08002e-05
-0.000108825
-1.28096e-05
-0.000123876
-1.51379e-05
-0.000139545
-1.7868e-05
-0.000155772
-2.10877e-05
-0.000172494
-2.48847e-05
-0.000189648
-2.93399e-05
-0.000207171
-3.45209e-05
-0.000224997
-4.04744e-05
-0.000243063
-4.72176e-05
-0.000261308
-5.47295e-05
-0.000279682
-6.29404e-05
-0.00029815
-7.17228e-05
-0.000316711
-8.08834e-05
-0.000335406
-9.01605e-05
-0.000354333
-9.92331e-05
-0.000373653
-0.000107759
-0.00039358
-0.0001154
-0.000121672
-0.000414389
-8.20052e-07
1.00459e-06
-3.14778e-06
2.51125e-06
-6.91627e-06
3.64433e-06
-1.20564e-05
4.44989e-06
-1.84965e-05
4.97131e-06
-2.61631e-05
5.24782e-06
-3.49818e-05
5.31133e-06
-4.48779e-05
5.18316e-06
-5.57771e-05
4.87136e-06
-6.76062e-05
4.36844e-06
-8.02933e-05
3.65013e-06
-9.37686e-05
2.67511e-06
-0.000107964
1.38595e-06
-0.000122813
-2.8864e-07
-0.000138251
-2.43049e-06
-0.000154211
-5.12752e-06
-0.000170627
-8.46848e-06
-0.000187431
-1.25368e-05
-0.000204548
-1.74036e-05
-0.000221903
-2.31195e-05
-0.000239415
-2.97055e-05
-0.000257003
-3.71415e-05
-0.000274589
-4.53537e-05
-0.000292111
-5.42015e-05
-0.000309529
-6.34652e-05
-0.000326851
-7.28386e-05
-0.000344147
-8.19364e-05
-0.000361567
-9.03396e-05
-0.000379328
-9.7639e-05
-0.000103268
-0.000397732
-8.1128e-07
1.81587e-06
-3.11418e-06
4.81414e-06
-6.84188e-06
7.37204e-06
-1.19248e-05
9.53279e-06
-1.82902e-05
1.13368e-05
-2.58634e-05
1.2821e-05
-3.45681e-05
1.40161e-05
-4.43277e-05
1.49427e-05
-5.50654e-05
1.56091e-05
-6.67057e-05
1.60087e-05
-7.91743e-05
1.61187e-05
-9.23984e-05
1.58993e-05
-0.000106307
1.52949e-05
-0.000120831
1.42353e-05
-0.000135901
1.26392e-05
-0.000151446
1.04178e-05
-0.000167395
7.47991e-06
-0.000183669
3.7378e-06
-0.000200187
-8.85827e-07
-0.000216857
-6.44939e-06
-0.000233581
-1.29821e-05
-0.000250251
-2.04708e-05
-0.00026676
-2.88449e-05
-0.000283004
-3.79573e-05
-0.000298902
-4.75674e-05
-0.000314415
-5.73262e-05
-0.000329575
-6.67764e-05
-0.000344512
-7.54024e-05
-0.000359451
-8.26996e-05
-8.798e-05
-0.000374739
-7.96465e-07
2.61234e-06
-3.05784e-06
7.07552e-06
-6.71821e-06
1.10324e-05
-1.17081e-05
1.45227e-05
-1.79544e-05
1.75831e-05
-2.53813e-05
2.02479e-05
-3.39109e-05
2.25457e-05
-4.34646e-05
2.44963e-05
-5.39632e-05
2.61078e-05
-6.53285e-05
2.7374e-05
-7.7483e-05
2.82732e-05
-9.03508e-05
2.87672e-05
-0.000103857
2.88015e-05
-0.000117929
2.83068e-05
-0.000132491
2.72015e-05
-0.000147468
2.53951e-05
-0.000162781
2.27925e-05
-0.000178343
1.92998e-05
-0.00019406
1.48307e-05
-0.000209824
9.31509e-06
-0.000225516
2.71017e-06
-0.000241002
-4.98505e-06
-0.000256136
-1.3711e-05
-0.000270769
-2.3324e-05
-0.000284766
-3.3571e-05
-0.000298028
-4.40642e-05
-0.000310536
-5.42684e-05
-0.00032239
-6.35476e-05
-0.000333824
-7.12664e-05
-7.65639e-05
-0.00034524
-7.75913e-07
3.38825e-06
-2.97986e-06
9.27947e-06
-6.54747e-06
1.46e-05
-1.141e-05
1.93852e-05
-1.74941e-05
2.36672e-05
-2.47232e-05
2.7477e-05
-3.30179e-05
3.08405e-05
-4.22974e-05
3.37758e-05
-5.248e-05
3.62903e-05
-6.34841e-05
3.8378e-05
-7.52287e-05
4.00178e-05
-8.76338e-05
4.11723e-05
-0.00010062
4.17878e-05
-0.000114109
4.17953e-05
-0.000128019
4.11121e-05
-0.000142269
3.9645e-05
-0.00015677
3.72937e-05
-0.000171427
3.3956e-05
-0.00018613
2.95336e-05
-0.000200755
2.39409e-05
-0.000215161
1.71157e-05
-0.000229181
9.03542e-06
-0.00024263
-2.6185e-07
-0.000255308
-1.06468e-05
-0.000267012
-2.18668e-05
-0.000277572
-3.35043e-05
-0.000286897
-4.49437e-05
-0.000295043
-5.54016e-05
-0.00030224
-6.40686e-05
-6.98475e-05
-0.000308957
-7.50024e-07
4.13827e-06
-2.88163e-06
1.14111e-05
-6.33251e-06
1.80509e-05
-1.10349e-05
2.40876e-05
-1.69157e-05
2.95481e-05
-2.38975e-05
3.44587e-05
-3.18993e-05
3.88423e-05
-4.08379e-05
4.27144e-05
-5.06285e-05
4.60809e-05
-6.11857e-05
4.89353e-05
-7.24242e-05
5.12562e-05
-8.42588e-05
5.30068e-05
-9.66044e-05
5.41334e-05
-0.000109376
5.45665e-05
-0.000122485
5.42214e-05
-0.000135841
5.30009e-05
-0.000149345
5.07983e-05
-0.00016289
4.75009e-05
-0.000176352
4.29959e-05
-0.000189589
3.71778e-05
-0.000202433
2.99596e-05
-0.000214687
2.1289e-05
-0.000226121
1.11723e-05
-0.000236476
-2.91739e-07
-0.000245478
-1.28649e-05
-0.000252865
-2.61169e-05
-0.000258452
-3.93567e-05
-0.000262227
-5.16267e-05
-0.000264404
-6.18914e-05
-6.87654e-05
-0.000265486
-7.1928e-07
4.85755e-06
-2.76486e-06
1.34567e-05
-6.0768e-06
2.13628e-05
-1.05886e-05
2.85994e-05
-1.62272e-05
3.51867e-05
-2.29145e-05
4.11459e-05
-3.05675e-05
4.64953e-05
-3.91002e-05
5.12471e-05
-4.84242e-05
5.54049e-05
-5.84495e-05
5.89606e-05
-6.90854e-05
6.18921e-05
-8.02404e-05
6.41618e-05
-9.18222e-05
6.57153e-05
-0.000103737
6.64815e-05
-0.000115889
6.63729e-05
-0.000128175
6.52871e-05
-0.000140486
6.3109e-05
-0.000152698
5.97138e-05
-0.000164674
5.49713e-05
-0.000176249
4.87525e-05
-0.000187229
4.09401e-05
-0.000197384
3.14441e-05
-0.000206439
2.02271e-05
-0.000214074
7.34285e-06
-0.000219931
-7.008e-06
-0.000223644
-2.24032e-05
-0.000224907
-3.80941e-05
-0.000223606
-5.2928e-05
-0.000219916
-6.55814e-05
-7.43809e-05
-0.0002143
-6.84241e-07
5.54179e-06
-2.63151e-06
1.54039e-05
-5.78433e-06
2.45157e-05
-1.00774e-05
3.28924e-05
-1.54377e-05
4.0547e-05
-2.17858e-05
4.7494e-05
-2.90366e-05
5.37461e-05
-3.71007e-05
5.93112e-05
-4.58851e-05
6.41894e-05
-5.52944e-05
6.83699e-05
-6.5231e-05
7.18288e-05
-7.55959e-05
7.45266e-05
-8.62878e-05
7.64072e-05
-9.72029e-05
7.73966e-05
-0.000108233
7.74029e-05
-0.000119263
7.63173e-05
-0.000130169
7.40146e-05
-0.000140811
7.03557e-05
-0.00015103
6.51905e-05
-0.00016064
5.83631e-05
-0.000169421
4.97207e-05
-0.000177105
3.91281e-05
-0.000183371
2.64933e-05
-0.000187837
1.18081e-05
-0.000190057
-4.78759e-06
-0.00018955
-2.29106e-05
-0.000185858
-4.17862e-05
-0.000178726
-6.00591e-05
-0.000168279
-7.60291e-05
-8.78931e-05
-0.000154767
-6.45526e-07
6.18732e-06
-2.48374e-06
1.72421e-05
-5.45951e-06
2.74914e-05
-9.50841e-06
3.69413e-05
-1.45571e-05
4.55958e-05
-2.05245e-05
5.34614e-05
-2.73226e-05
6.05442e-05
-3.48577e-05
6.68463e-05
-4.30314e-05
7.2363e-05
-5.17414e-05
7.70799e-05
-6.08821e-05
8.09695e-05
-7.03449e-05
8.39894e-05
-8.00174e-05
8.60798e-05
-8.97833e-05
8.71625e-05
-9.952e-05
8.71396e-05
-0.000109097
8.58938e-05
-0.00011837
8.32881e-05
-0.000127181
7.91667e-05
-0.000135348
7.3357e-05
-0.000142657
6.56729e-05
-0.000148859
5.59217e-05
-0.000153647
4.39169e-05
-0.000156655
2.95013e-05
-0.000157436
1.25888e-05
-0.000155458
-6.76586e-06
-0.000150114
-2.82544e-05
-0.000140773
-5.11268e-05
-0.000126974
-7.38583e-05
-0.000108882
-9.41207e-05
-0.000110477
-8.62983e-05
-6.03809e-07
6.79113e-06
-2.32392e-06
1.89623e-05
-5.10712e-06
3.02746e-05
-8.88939e-06
4.07236e-05
-1.35965e-05
5.03028e-05
-1.91447e-05
5.90097e-05
-2.54425e-05
6.6842e-05
-3.23908e-05
7.37946e-05
-3.98846e-05
7.98568e-05
-4.78133e-05
8.50086e-05
-5.60614e-05
8.92176e-05
-6.45085e-05
9.24365e-05
-7.30289e-05
9.46002e-05
-8.14906e-05
9.56241e-05
-8.97533e-05
9.54023e-05
-9.7666e-05
9.38065e-05
-0.000105063
9.06854e-05
-0.000111761
8.5864e-05
-0.000117548
7.91442e-05
-0.000122181
7.03066e-05
-0.000125374
5.91146e-05
-0.000126783
4.53251e-05
-0.000125989
2.87078e-05
-0.000122485
9.08458e-06
-0.000115653
-1.35979e-05
-0.000104764
-3.91435e-05
-8.90002e-05
-6.68901e-05
-6.7502e-05
-9.53565e-05
-4.0373e-05
-0.00012125
-0.000140738
-1.01122e-05
-5.59793e-07
7.35092e-06
-2.1545e-06
2.0557e-05
-4.73214e-06
3.28522e-05
-8.22833e-06
4.42197e-05
-1.25669e-05
5.46414e-05
-1.76611e-05
6.41038e-05
-2.34141e-05
7.2595e-05
-2.97206e-05
8.01011e-05
-3.64673e-05
8.66035e-05
-4.35337e-05
9.20749e-05
-5.07922e-05
9.64762e-05
-5.81086e-05
9.97528e-05
-6.53404e-05
0.000101832
-7.23368e-05
0.000102621
-7.89357e-05
0.000102001
-8.49612e-05
9.98321e-05
-9.02202e-05
9.59443e-05
-9.44966e-05
9.01404e-05
-9.7546e-05
8.21936e-05
-9.90866e-05
7.18472e-05
-9.87894e-05
5.88175e-05
-9.62646e-05
4.28002e-05
-9.10431e-05
2.34863e-05
-8.25538e-05
5.9525e-07
-7.00989e-05
-2.60527e-05
-5.28307e-05
-5.64117e-05
-2.98002e-05
-8.99206e-05
-1.28066e-07
-0.000125029
3.78567e-05
-0.000159234
-0.000184165
8.12835e-05
-5.14199e-07
7.86512e-06
-1.97799e-06
2.20208e-05
-4.33962e-06
3.52139e-05
-7.53331e-06
4.74134e-05
-1.148e-05
5.85881e-05
-1.60882e-05
6.8712e-05
-2.12551e-05
7.77619e-05
-2.68673e-05
8.57134e-05
-3.28017e-05
9.25379e-05
-3.89258e-05
9.8199e-05
-4.50977e-05
0.000102648
-5.11662e-05
0.000105821
-5.69692e-05
0.000107635
-6.23328e-05
0.000107984
-6.70684e-05
0.000106737
-7.09702e-05
0.000103734
-7.38103e-05
9.87845e-05
-7.53346e-05
9.16647e-05
-7.52554e-05
8.21144e-05
-7.32443e-05
6.98361e-05
-6.89213e-05
5.44945e-05
-6.18418e-05
3.57207e-05
-5.14783e-05
1.31228e-05
-3.71972e-05
-1.36859e-05
-1.8222e-05
-4.50279e-05
6.4022e-06
-8.1036e-05
3.78482e-05
-0.000121367
7.74917e-05
-0.000164672
0.000125939
-0.000207681
-0.000241844
0.000183618
-4.6774e-07
8.33286e-06
-1.79683e-06
2.33499e-05
-3.9345e-06
3.73515e-05
-6.81224e-06
5.02912e-05
-1.03467e-05
6.21225e-05
-1.44403e-05
7.28057e-05
-1.89826e-05
8.23042e-05
-2.38505e-05
9.05813e-05
-2.89091e-05
9.75964e-05
-3.40114e-05
0.000103301
-3.89989e-05
0.000107636
-4.37002e-05
0.000110523
-4.79297e-05
0.000111865
-5.14861e-05
0.000111541
-5.41493e-05
0.0001094
-5.56768e-05
0.000105261
-5.57994e-05
9.89071e-05
-5.42159e-05
9.00812e-05
-5.05866e-05
7.84851e-05
-4.45251e-05
6.37746e-05
-3.55894e-05
4.55587e-05
-2.32693e-05
2.34007e-05
-6.96939e-06
-3.17712e-06
1.40133e-05
-3.46686e-05
4.0526e-05
-7.15405e-05
7.36098e-05
-0.00011412
0.000114577
-0.000162334
0.000164969
-0.000215063
0.000226119
-0.000268832
-0.000314585
0.00029886
-4.21097e-07
8.75396e-06
-1.61338e-06
2.45421e-05
-3.52146e-06
3.92596e-05
-6.07254e-06
5.28423e-05
-9.17729e-06
6.52273e-05
-1.27306e-05
7.6359e-05
-1.66124e-05
8.61859e-05
-2.06879e-05
9.46568e-05
-2.4808e-05
0.000101717
-2.88094e-05
0.000107303
-3.25134e-05
0.00011134
-3.5725e-05
0.000113734
-3.82313e-05
0.000114371
-3.97987e-05
0.000113108
-4.01694e-05
0.000109771
-3.90581e-05
0.00010415
-3.6146e-05
9.5995e-05
-3.10759e-05
8.50112e-05
-2.34453e-05
7.08545e-05
-1.27988e-05
5.3128e-05
1.38075e-06
3.13792e-05
1.96836e-05
5.09787e-06
4.27835e-05
-2.6277e-05
7.14617e-05
-6.33468e-05
0.000106635
-0.000106714
0.00014941
-0.000156895
0.000201182
-0.000214106
0.000263696
-0.000277576
0.000338757
-0.000343893
-0.000403837
0.000428008
-3.74896e-07
9.12885e-06
-1.42974e-06
2.5597e-05
-3.10469e-06
4.09346e-05
-5.32079e-06
5.50584e-05
-7.98091e-06
6.78874e-05
-1.09704e-05
7.93485e-05
-1.41575e-05
8.9373e-05
-1.73937e-05
9.7893e-05
-2.05135e-05
0.000104836
-2.33337e-05
0.000110123
-2.56528e-05
0.000113659
-2.72483e-05
0.00011533
-2.78754e-05
0.000114998
-2.72629e-05
0.000112495
-2.51097e-05
0.000107618
-2.10798e-05
0.00010012
-1.47971e-05
8.97123e-05
-5.83884e-06
7.60529e-05
6.2712e-06
5.87444e-05
2.20698e-05
3.73294e-05
4.21622e-05
1.12868e-05
6.723e-05
-1.99699e-05
9.80417e-05
-5.70888e-05
0.000135465
-0.000100771
0.000180491
-0.000151739
0.000234272
-0.000210676
0.000298232
-0.000278067
0.000374229
-0.000353573
0.000464384
-0.000434049
-0.000510913
0.00057146
-3.29674e-07
9.45853e-06
-1.24771e-06
2.6515e-05
-2.68766e-06
4.23745e-05
-4.56235e-06
5.6933e-05
-6.76473e-06
7.00898e-05
-9.16843e-06
8.17522e-05
-1.16279e-05
9.18325e-05
-1.39782e-05
0.000100243
-1.60347e-05
0.000106893
-1.75917e-05
0.00011168
-1.84206e-05
0.000114488
-1.8268e-05
0.000115177
-1.6852e-05
0.000113582
-1.38584e-05
0.000109502
-8.93622e-06
0.000102695
-1.69177e-06
9.28756e-05
8.31721e-06
7.97034e-05
2.15883e-05
6.27818e-05
3.86815e-05
4.16512e-05
6.0226e-05
1.5785e-05
8.69266e-05
-1.54138e-05
0.00011957
-5.26128e-05
0.000159027
-9.65467e-05
0.000206264
-0.000148007
0.000262345
-0.00020782
0.000328458
-0.000276789
0.000406
-0.000355609
0.000496818
-0.000444391
0.000603151
-0.000540382
-0.0006368
0.000729038
-2.85859e-07
9.74439e-06
-1.06866e-06
2.72978e-05
-2.27298e-06
4.35788e-05
-3.80105e-06
5.84611e-05
-5.53362e-06
7.18224e-05
-7.3302e-06
8.35488e-05
-9.02888e-06
9.35312e-05
-1.04458e-05
0.00010166
-1.1374e-05
0.000107821
-1.15818e-05
0.000111888
-1.08102e-05
0.000113716
-8.76969e-06
0.000113137
-5.13659e-06
0.000109949
4.52061e-07
0.000103913
8.40406e-06
9.47433e-05
1.9178e-05
8.21017e-05
3.32903e-05
6.55911e-05
5.13221e-05
4.47499e-05
7.39265e-05
1.90469e-05
0.000101834
-1.21224e-05
0.000135857
-4.94374e-05
0.000176895
-9.36503e-05
0.000225928
-0.00014558
0.00028402
-0.000206099
0.000352305
-0.000276105
0.000431994
-0.000356478
0.000524406
-0.000448021
0.000631248
-0.000551233
0.000754646
-0.000663779
-0.000781957
0.000899802
-2.43734e-07
9.98812e-06
-8.93444e-07
2.79475e-05
-1.86208e-06
4.45475e-05
-3.03879e-06
5.96378e-05
-4.28955e-06
7.30731e-05
-5.45715e-06
8.47164e-05
-6.36059e-06
9.44346e-05
-6.79403e-06
0.000102094
-6.52504e-06
0.000107552
-5.29215e-06
0.000110655
-2.80162e-06
0.000111225
1.27652e-06
0.000109058
7.31338e-06
0.000103912
1.57268e-05
9.54996e-05
2.69878e-05
8.34824e-05
4.16272e-05
6.74622e-05
6.02433e-05
4.6975e-05
8.35084e-05
2.14848e-05
0.000112175
-9.61989e-06
0.000147081
-4.70287e-05
0.000189152
-9.1508e-05
0.000239397
-0.000143895
0.000298902
-0.000205085
0.000368816
-0.000276014
0.000450332
-0.000357621
0.000544652
-0.000450798
0.000652975
-0.000556344
0.00077672
-0.000674978
0.000917665
-0.000804725
-0.000946494
0.0010822
-2.03418e-07
1.01915e-05
-7.22288e-07
2.84664e-05
-1.45513e-06
4.52803e-05
-2.27525e-06
6.04579e-05
-3.03111e-06
7.3829e-05
-3.54597e-06
8.52312e-05
-3.61673e-06
9.45054e-05
-3.01234e-06
0.000101489
-1.47126e-06
0.000106011
1.30171e-06
0.000107882
5.63957e-06
0.000106888
1.1918e-05
0.00010278
2.05609e-05
9.52691e-05
3.20474e-05
8.40132e-05
4.69181e-05
6.86117e-05
6.57831e-05
4.85973e-05
8.93287e-05
2.34294e-05
0.000118324
-7.5104e-06
0.000153625
-4.49214e-05
0.000196179
-8.95827e-05
0.000247019
-0.000142347
0.000307256
-0.000204132
0.000378063
-0.000275893
0.000460652
-0.000358602
0.000556226
-0.000453196
0.000665941
-0.000560513
0.000790824
-0.000681227
0.00093186
-0.000816013
0.00109027
-0.000963135
-0.00112848
0.00127225
-1.64841e-07
1.03564e-05
-5.54737e-07
2.88563e-05
-1.0508e-06
4.57764e-05
-1.50758e-06
6.09147e-05
-1.75312e-06
7.40745e-05
-1.58807e-06
8.50662e-05
-7.84024e-07
9.37013e-05
9.18827e-07
9.97864e-05
3.81501e-06
0.000103115
8.23785e-06
0.000103459
1.45644e-05
0.000100561
2.32214e-05
9.41231e-05
3.46915e-05
8.3799e-05
4.95208e-05
6.91838e-05
6.83262e-05
4.98063e-05
9.18023e-05
2.51211e-05
0.000120729
-5.49686e-06
0.000155974
-4.27556e-05
0.000198498
-8.74457e-05
0.000249351
-0.000140435
0.000309661
-0.000202658
0.000380621
-0.000275092
0.000463459
-0.000358731
0.000559396
-0.000454539
0.000669591
-0.00056339
0.000795072
-0.000685994
0.000936639
-0.000822794
0.00109472
-0.000974099
0.00127008
-0.00113849
-0.00132688
0.00146848
-1.27723e-07
1.04841e-05
-3.89578e-07
2.91182e-05
-6.46155e-07
4.6033e-05
-7.30239e-07
6.09988e-05
-4.46278e-07
7.37906e-05
4.30848e-07
8.4189e-05
2.15834e-06
9.19738e-05
5.02864e-06
9.69161e-05
9.37346e-06
9.87701e-05
1.55689e-05
9.72637e-05
2.40411e-05
9.20887e-05
3.52734e-05
8.28909e-05
4.9813e-05
6.92594e-05
6.82789e-05
5.07179e-05
9.13692e-05
2.6716e-05
0.000119868
-3.37757e-06
0.00015465
-4.02785e-05
0.000196681
-8.47875e-05
0.000247021
-0.000137786
0.000306808
-0.000200222
0.000377244
-0.000273094
0.000459567
-0.000357415
0.000555006
-0.000454171
0.000664726
-0.000564258
0.000789749
-0.000688414
0.000930873
-0.000827117
0.00108858
-0.000980506
0.00126263
-0.00114814
0.0014534
-0.00132926
-0.00153787
0.00166439
-9.15705e-08
1.05757e-05
-2.24813e-07
2.92514e-05
-2.36586e-07
4.60447e-05
6.52764e-08
6.06969e-05
9.02886e-07
7.2953e-05
2.53088e-06
8.2561e-05
5.23897e-06
8.92657e-05
9.35618e-06
9.27989e-05
1.52559e-05
9.28703e-05
2.33619e-05
8.91577e-05
3.41548e-05
8.12958e-05
4.81799e-05
6.88658e-05
6.60545e-05
5.13849e-05
8.84754e-05
2.8297e-05
0.000116226
-1.03477e-06
0.000150182
-3.7333e-05
0.00019131
-8.14069e-05
0.000240671
-0.000134148
0.000299405
-0.00019652
0.000368718
-0.000269535
0.000449849
-0.000354225
0.000544028
-0.000451594
0.000652416
-0.000562559
0.00077603
-0.000687872
0.000915648
-0.000828031
0.00107171
-0.000983177
0.00124426
-0.00115306
0.00143229
-0.00133617
0.00163606
-0.00153303
-0.00175676
0.00185494
-5.56739e-08
1.06313e-05
-5.76352e-08
2.92534e-05
1.84082e-07
4.5803e-05
8.898e-07
5.99912e-05
2.31204e-06
7.15307e-05
4.73807e-06
8.0135e-05
8.49409e-06
8.55097e-05
1.39501e-05
8.73429e-05
2.15259e-05
8.52946e-05
3.16977e-05
7.89858e-05
4.50063e-05
6.79873e-05
6.20638e-05
5.18083e-05
8.35624e-05
2.98863e-05
0.000110281
1.57873e-06
0.000143089
-3.3843e-05
0.000182951
-7.71953e-05
0.000230923
-0.000129379
0.000288142
-0.000191367
0.000355808
-0.000264187
0.000435158
-0.000348884
0.000527414
-0.000446481
0.000633731
-0.00055791
0.000755112
-0.00068394
0.000892319
-0.000825079
0.00104576
-0.000981477
0.0012154
-0.00115281
0.00140069
-0.00133835
0.00159987
-0.00153535
0.00181327
-0.00174642
-0.00197765
0.00203417
-1.91244e-08
1.06505e-05
1.154e-07
2.91188e-05
6.23709e-07
4.52947e-05
1.75755e-06
5.88574e-05
3.80294e-06
6.94853e-05
7.08385e-06
7.68541e-05
1.1967e-05
8.06266e-05
1.88678e-05
8.04421e-05
2.82571e-05
7.59052e-05
4.06691e-05
6.65738e-05
5.67088e-05
5.19476e-05
7.70605e-05
3.14566e-05
0.000102494
4.45238e-06
0.000133872
-2.97991e-05
0.00017215
-7.21203e-05
0.000218373
-0.000123419
0.000273671
-0.000184677
0.000339237
-0.000256933
0.000416295
-0.000341245
0.000506059
-0.000438649
0.00060967
-0.000550092
0.000728118
-0.000676358
0.000862148
-0.000817969
0.00101215
-0.000975082
0.00117806
-0.00114738
0.00135923
-0.00133398
0.00155438
-0.00153351
0.00176121
-0.00174218
0.00197967
-0.00196488
-0.00219375
0.00219577
1.92419e-08
1.06312e-05
2.98663e-07
2.88394e-05
1.09167e-06
4.45017e-05
2.68468e-06
5.72644e-05
5.40081e-06
6.67692e-05
9.60448e-06
7.26504e-05
1.57071e-05
7.45239e-05
2.4174e-05
7.19752e-05
3.55319e-05
6.45473e-05
5.03773e-05
5.17285e-05
6.93843e-05
3.29405e-05
9.33123e-05
7.52868e-06
0.000123011
-2.52464e-05
0.000159424
-6.62119e-05
0.000203585
-0.000116281
0.00025661
-0.000176444
0.00031968
-0.000247747
0.000394006
-0.000331259
0.000480789
-0.000428028
0.000581156
-0.000539016
0.000696081
-0.000665017
0.00082629
-0.000806567
0.000972157
-0.000963836
0.0011336
-0.00113652
0.00130996
-0.00132375
0.00149998
-0.001524
0.00170161
-0.00173514
0.00191231
-0.00195287
0.00212994
-0.00218252
-0.00239759
0.00233378
6.06671e-08
1.05706e-05
4.96949e-07
2.84031e-05
1.59846e-06
4.34002e-05
3.68949e-06
5.51734e-05
7.13378e-06
6.33249e-05
1.234e-05
6.74442e-05
1.97685e-05
6.70955e-05
2.99387e-05
6.1805e-05
4.34378e-05
5.10482e-05
6.09287e-05
3.42376e-05
8.31575e-05
1.07117e-05
0.00011096
-2.0274e-05
0.000145265
-5.95509e-05
0.00018709
-0.000108037
0.000237536
-0.000166728
0.000297768
-0.000236676
0.000368983
-0.000318962
0.000452367
-0.000414643
0.000549033
-0.000524694
0.000659939
-0.000649922
0.000785798
-0.000790876
0.000926967
-0.000947736
0.00108334
-0.00112021
0.00125426
-0.00130744
0.00143845
-0.00150794
0.00163402
-0.00171957
0.00183839
-0.00193951
0.0020493
-0.00216379
0.00226066
-0.00239388
-0.00258156
0.00244464
1.06599e-07
1.0464e-05
7.15545e-07
2.77942e-05
2.15551e-06
4.19602e-05
4.79173e-06
5.25371e-05
9.032e-06
5.90846e-05
1.5333e-05
6.11432e-05
2.42079e-05
5.82206e-05
3.62346e-05
4.97783e-05
5.20641e-05
3.52187e-05
7.24289e-05
1.38729e-05
9.81487e-05
-1.50082e-05
0.000130135
-5.22599e-05
0.000169387
-9.88037e-05
0.00021699
-0.000155639
0.000274089
-0.000223827
0.000341866
-0.000304453
0.000421493
-0.000398588
0.000514069
-0.00050722
0.000620545
-0.000631169
0.00074162
-0.000770998
0.000877644
-0.0009269
0.0010285
-0.00109859
0.00119352
-0.00128523
0.0013714
-0.00148533
0.00156024
-0.00169677
0.00175755
-0.00191688
0.00196038
-0.00214234
0.00216673
-0.00237014
0.00237077
-0.00259792
-0.00280582
0.00259503
1.58543e-07
1.03054e-05
9.60043e-07
2.69927e-05
2.77482e-06
4.01454e-05
6.012e-06
4.93e-05
1.11267e-05
5.397e-05
1.8627e-05
5.36428e-05
2.90828e-05
4.77648e-05
4.31336e-05
3.57275e-05
6.14974e-05
1.68548e-05
8.49774e-05
-9.60714e-06
0.000114466
-4.44968e-05
0.000150945
-8.87385e-05
0.000195476
-0.000143335
0.000249189
-0.000209352
0.000313249
-0.000287886
0.000388812
-0.000380017
0.000476971
-0.000486747
0.000578667
-0.000608916
0.0006946
-0.000747103
0.000825121
-0.000901519
0.000970118
-0.0010719
0.00112892
-0.0012574
0.00130024
-0.00145654
0.00148213
-0.00166722
0.00167209
-0.00188673
0.00186717
-0.00211196
0.00206424
-0.0023394
0.00226064
-0.00256654
0.00245239
-0.00278966
-0.00300242
0.00264899
2.18044e-07
1.00874e-05
1.23613e-06
2.59746e-05
3.46855e-06
3.7913e-05
7.37097e-06
4.53975e-05
1.34487e-05
4.78922e-05
2.22648e-05
4.48267e-05
3.44485e-05
3.55812e-05
5.07037e-05
1.94723e-05
7.18168e-05
-4.25822e-06
9.86608e-05
-3.64512e-05
0.000132197
-7.80326e-05
0.000173467
-0.000130008
0.000223579
-0.000193448
0.000283683
-0.000269456
0.000354924
-0.000359126
0.000438383
-0.000463477
0.000535006
-0.000583369
0.000645498
-0.000719407
0.000770223
-0.000871828
0.00090909
-0.00104039
0.00106145
-0.00122426
0.00122604
-0.00142198
0.00140093
-0.00163144
0.00158361
-0.00184991
0.00177111
-0.00207423
0.00196019
-0.00230105
0.00214768
-0.0025269
0.00233072
-0.00274957
0.00250648
-0.00296543
-0.00317358
0.00267763
2.86637e-07
9.80074e-06
1.54941e-06
2.47118e-05
4.24854e-06
3.52139e-05
8.8886e-06
4.07575e-05
1.60278e-05
4.0753e-05
2.62865e-05
3.4568e-05
4.03557e-05
2.1512e-05
5.90051e-05
8.22881e-07
8.30886e-05
-2.83417e-05
0.000113546
-6.69084e-05
0.000151397
-0.000115884
0.000197732
-0.000176343
0.000253682
-0.000249398
0.00032038
-0.000336154
0.000398904
-0.000437651
0.000490204
-0.000554776
0.000595001
-0.000688166
0.000713685
-0.000838092
0.000846202
-0.00100434
0.000991946
-0.00118613
0.00114969
-0.00138201
0.00131757
-0.00158986
0.0014931
-0.00180696
0.00167331
-0.00203012
0.00185497
-0.00225588
0.00203481
-0.00248089
0.00220987
-0.00270196
0.00237761
-0.00291731
0.00253599
-0.00312381
-0.00332398
0.00268639
3.65789e-07
9.43495e-06
1.90517e-06
2.31724e-05
5.12591e-06
3.19932e-05
1.05834e-05
3.53e-05
1.88908e-05
3.24456e-05
3.07276e-05
2.27312e-05
4.68478e-05
5.39174e-06
6.80863e-05
-2.04156e-05
9.53615e-05
-5.56169e-05
0.000129672
-0.000101219
0.000172087
-0.000158299
0.00022372
-0.000227976
0.000285694
-0.000311372
0.000359086
-0.000409546
0.000444854
-0.000523418
0.000543741
-0.000653664
0.000656177
-0.000800602
0.000782155
-0.00096407
0.000921134
-0.00114332
0.00107196
-0.00133695
0.00123282
-0.00154287
0.0014013
-0.00175834
0.00157449
-0.00198015
0.00174917
-0.0022048
0.00192207
-0.00242879
0.00209018
-0.00264899
0.002251
-0.00286278
0.00240262
-0.00306893
0.00254397
-0.00326516
-0.00345599
0.00267599
4.56848e-07
8.9781e-06
2.30825e-06
2.1321e-05
6.11061e-06
2.81908e-05
1.24716e-05
2.8939e-05
2.20606e-05
2.28566e-05
3.56172e-05
9.1746e-06
5.39579e-05
-1.2949e-05
7.79804e-05
-4.44381e-05
0.000108662
-8.6298e-05
0.000147049
-0.000139606
0.000194239
-0.000205489
0.000251344
-0.000285082
0.000319443
-0.00037947
0.000399503
-0.000489607
0.000492301
-0.000616216
0.00059831
-0.000759673
0.000717587
-0.000919879
0.00084967
-0.00109615
0.000993491
-0.00128714
0.00114734
-0.0014908
0.00130887
-0.0017044
0.00147525
-0.00192472
0.0016433
-0.0021482
0.00180978
-0.00237127
0.00197165
-0.00259067
0.00212638
-0.00280372
0.00227213
-0.00300853
0.00240778
-0.00320459
0.00253319
-0.00339057
-0.00357216
0.00264936
5.61004e-07
8.4171e-06
2.7628e-06
1.91192e-05
7.21107e-06
2.37425e-05
1.45664e-05
2.15837e-05
2.55551e-05
1.18679e-05
4.09763e-05
-6.24657e-06
6.17069e-05
-3.36796e-05
8.8702e-05
-7.14331e-05
0.000122988
-0.000120584
0.000165643
-0.000182262
0.000217772
-0.000257618
0.00028045
-0.00034776
0.000354664
-0.000453684
0.000441221
-0.000576164
0.00054065
-0.000715645
0.000653083
-0.000872106
0.000778152
-0.00104495
0.000914893
-0.00123289
0.0010617
-0.00143395
0.00121635
-0.00164545
0.00137609
-0.00186414
0.00153779
-0.00208642
0.00169826
-0.00230866
0.00185443
-0.00252745
0.00200374
-0.00273998
0.00214429
-0.00294426
0.00227499
-0.00313924
0.00239555
-0.00332514
0.00250658
-0.0035016
-0.00367485
0.00260926
6.79251e-07
7.73785e-06
3.27221e-06
1.65263e-05
8.43382e-06
1.85809e-05
1.68777e-05
1.31398e-05
2.93862e-05
-6.40612e-07
4.68163e-05
-2.36766e-05
7.01008e-05
-5.69642e-05
0.000100244
-0.000101577
0.000138308
-0.000158648
0.000185384
-0.000229338
0.00024255
-0.000314784
0.000310809
-0.000416019
0.000391005
-0.000533879
0.000483725
-0.000668884
0.000589187
-0.000821107
0.000707127
-0.000990046
0.000836706
-0.00117453
0.000976449
-0.00137264
0.00112425
-0.00158176
0.00127746
-0.00179866
0.00143304
-0.00201972
0.00158781
-0.00224119
0.00173872
-0.00245957
0.00188314
-0.00267187
0.00201909
-0.00287593
0.0021454
-0.00307058
0.00226176
-0.00325559
0.00236855
-0.00343193
0.00246699
-0.00360004
-0.00376625
0.0025584
8.12362e-07
6.92549e-06
3.83893e-06
1.34997e-05
9.78327e-06
1.26366e-05
1.9411e-05
3.51203e-06
3.3559e-05
-1.47885e-05
5.31377e-05
-4.32554e-05
7.91296e-05
-8.2956e-05
0.000112577
-0.000135024
0.000154559
-0.00020063
0.000206155
-0.000280933
0.000268381
-0.00037701
0.000342122
-0.00048976
0.000428028
-0.000619785
0.000526406
-0.000767263
0.00063711
-0.000931811
0.000759436
-0.00111237
0.000892056
-0.00130715
0.00103301
-0.00151359
0.00117977
-0.00172851
0.00132938
-0.00194827
0.00147871
-0.00216905
0.0016247
-0.00238718
0.00176466
-0.00259953
0.00189652
-0.00280373
0.00201899
-0.0029984
0.00213163
-0.00318322
0.00223479
-0.00335875
0.00232941
-0.00352655
0.00241706
-0.00368769
-0.00384832
0.00249913
9.60872e-07
5.96462e-06
4.46447e-06
9.99612e-06
1.12615e-05
5.83952e-06
2.21678e-05
-7.39421e-06
3.80708e-05
-3.06916e-05
5.99295e-05
-6.51141e-05
8.87657e-05
-0.000111792
0.000125645
-0.000171903
0.000171642