/*--------------------------------*- C++ -*----------------------------------*\
  =========                 |
  \\      /  F ield         | OpenFOAM: The Open Source CFD Toolbox
   \\    /   O peration     | Website:  https://openfoam.org
    \\  /    A nd           | Version:  7
     \\/     M anipulation  |
\*---------------------------------------------------------------------------*/
FoamFile
{
    version     2.0;
    format      ascii;
    class       volVectorField;
    location    "72";
    object      U;
}
// * * * * * * * * * * * * * * * * * * * * * * * * * * * * * * * * * * * * * //

dimensions      [0 1 -1 0 0 0 0];

internalField   nonuniform List<vector> 
40000
(
(-0.000143597 -0.00270143 -2.18719e-21)
(-0.00103589 -0.00765872 6.76931e-21)
(-0.00303045 -0.0122791 -4.32096e-21)
(-0.00587625 -0.0165393 -3.9976e-24)
(-0.00943507 -0.0204224 8.32458e-25)
(-0.0136137 -0.0239215 2.88885e-24)
(-0.0183154 -0.0270391 -7.17345e-21)
(-0.0234459 -0.0297878 1.70587e-21)
(-0.028917 -0.0321902 -4.86615e-21)
(-0.0346469 -0.0342781 -1.54038e-21)
(-0.0405593 -0.0360912 0)
(-0.0465842 -0.0376749 -5.54373e-21)
(-0.0526574 -0.0390783 0)
(-0.0587209 -0.040351 0)
(-0.0647223 -0.0415408 -4.6975e-21)
(-0.0706153 -0.0426909 4.43777e-21)
(-0.0763587 -0.043838 -2.09603e-21)
(-0.0819172 -0.0450106 -1.47969e-24)
(-0.0872609 -0.0462283 1.86209e-21)
(-0.0923658 -0.0475012 0)
(-0.0972143 -0.0488303 -1.6515e-21)
(-0.101796 -0.0502084 -4.65422e-21)
(-0.106109 -0.0516209 5.83218e-21)
(-0.11016 -0.0530472 -2.74124e-21)
(-0.11397 -0.0544618 7.71116e-21)
(-0.117567 -0.0558357 4.8188e-21)
(-0.120998 -0.0571375 -9.03187e-21)
(-0.124316 -0.0583344 8.45924e-21)
(-0.127574 -0.0593892 -1.98434e-21)
(-0.130861 -0.0602515 -3.69945e-21)
(-0.000102366 -0.00209266 0)
(-0.000933937 -0.0060074 4.50572e-21)
(-0.00290053 -0.00973625 8.6463e-21)
(-0.00574313 -0.0132409 -8.25152e-21)
(-0.00931887 -0.0164937 -3.95011e-21)
(-0.0135313 -0.0194776 1.50453e-20)
(-0.0182806 -0.0221857 -3.58925e-21)
(-0.0234695 -0.0246211 -6.83294e-21)
(-0.0290072 -0.0267973 -1.58958e-24)
(-0.0348094 -0.0287374 -1.84892e-20)
(-0.0407979 -0.0304726 5.84375e-21)
(-0.0469008 -0.0320406 2.21729e-20)
(-0.0530524 -0.0334828 -1.04982e-20)
(-0.0591936 -0.0348419 -4.44131e-24)
(-0.065271 -0.0361592 -4.69765e-21)
(-0.0712375 -0.0374719 -3.18946e-24)
(-0.0770515 -0.038811 0)
(-0.0826772 -0.0401997 0)
(-0.0880844 -0.0416523 1.48838e-20)
(-0.0932487 -0.0431734 0)
(-0.0981521 -0.0447584 6.59702e-21)
(-0.102784 -0.0463934 -6.19701e-21)
(-0.107142 -0.0480565 -5.33865e-24)
(-0.111233 -0.0497185 0)
(-0.115077 -0.0513448 1.02457e-20)
(-0.118705 -0.0528968 -9.63156e-21)
(-0.122162 -0.0543339 9.0319e-21)
(-0.125503 -0.0556172 -8.45927e-21)
(-0.128778 -0.0567058 7.89591e-21)
(-0.132081 -0.0575425 -2.21363e-20)
(-9.26289e-05 -0.0014686 -8.73823e-21)
(-0.000912817 -0.00431654 -9.0162e-21)
(-0.00288524 -0.00713522 0)
(-0.0057457 -0.00987066 0)
(-0.00934839 -0.0124834 0)
(-0.0135949 -0.0149461 7.52523e-21)
(-0.0183832 -0.0172417 0)
(-0.0236142 -0.0193631 6.82428e-21)
(-0.0291953 -0.0213141 1.29759e-20)
(-0.0350405 -0.0231086 1.23237e-20)
(-0.0410702 -0.0247691 0)
(-0.0472112 -0.0263247 -2.066e-25)
(-0.053397 -0.0278091 -2.09939e-20)
(-0.0595672 -0.0292578 1.98647e-20)
(-0.0656681 -0.0307054 9.39121e-21)
(-0.0716517 -0.032183 8.87281e-21)
(-0.0774759 -0.0337162 -8.36885e-21)
(-0.0831044 -0.035323 1.5788e-20)
(-0.0885062 -0.0370124 -2.97597e-20)
(-0.093656 -0.0387841 5.07188e-24)
(-0.098535 -0.0406278 -2.63521e-20)
(-0.103131 -0.0425234 2.47645e-20)
(-0.10744 -0.0444415 0)
(-0.111469 -0.0463446 0)
(-0.115235 -0.0481884 1.02082e-20)
(-0.118769 -0.049924 0)
(-0.122119 -0.0515017 0)
(-0.125341 -0.0528755 0)
(-0.128475 -0.0540008 -1.56879e-20)
(-0.131627 -0.0548156 1.47572e-20)
(-0.000115055 -0.0008353 8.73823e-21)
(-0.000974105 -0.0026019 1.89466e-23)
(-0.00298658 -0.00449928 4.15601e-23)
(-0.00588601 -0.00645741 -1.64893e-20)
(-0.00952543 -0.0084247 -1.57627e-20)
(-0.0138056 -0.0103633 1.22161e-23)
(-0.0186238 -0.0122451 -2.86764e-20)
(-0.0238798 -0.0140528 1.36532e-20)
(-0.0294801 -0.0157801 -2.59606e-20)
(-0.0353381 -0.0174312 2.46555e-20)
(-0.0413732 -0.0190192 -1.16993e-20)
(-0.0475116 -0.0205648 2.21692e-20)
(-0.0536862 -0.0220935 2.0994e-20)
(-0.0598361 -0.0236336 4.05772e-24)
(-0.0659069 -0.0252128 -1.87827e-20)
(-0.0718503 -0.0268565 0)
(-0.0776235 -0.0285845 -2.71291e-24)
(-0.0831895 -0.0304101 1.57826e-20)
(-0.0885162 -0.0323375 5.42265e-24)
(-0.0935772 -0.0343617 4.27828e-24)
(-0.0983517 -0.0364673 2.63433e-20)
(-0.102825 -0.0386281 -2.47645e-20)
(-0.106992 -0.0408076 0)
(-0.110856 -0.0429597 2.17897e-20)
(-0.114432 -0.0450301 -3.50573e-23)
(-0.11775 -0.0469588 -5.74081e-20)
(-0.120859 -0.0486852 1.79315e-20)
(-0.123816 -0.0501555 3.34458e-20)
(-0.126654 -0.0513199 1.56878e-20)
(-0.129491 -0.0521125 1.46217e-20)
(-0.00016978 -0.00019896 3.5009e-20)
(-0.00111806 -0.000879547 -1.80347e-20)
(-0.00320472 -0.00185211 1.7257e-20)
(-0.00616402 -0.00303062 1.65229e-20)
(-0.00984959 -0.00435139 0)
(-0.0141627 -0.00576569 -3.01322e-20)
(-0.0190009 -0.00723454 -1.4365e-20)
(-0.024264 -0.00872988 -2.73132e-20)
(-0.0298589 -0.0102351 1.29851e-20)
(-0.0356985 -0.0117445 1.57354e-23)
(-0.0417023 -0.0132617 2.34074e-20)
(-0.0477965 -0.0147987 2.22012e-20)
(-0.0539135 -0.0163727 -4.20054e-20)
(-0.0599925 -0.0180044 1.98741e-20)
(-0.0659786 -0.0197152 -8.26941e-24)
(-0.0718232 -0.0215243 0)
(-0.077483 -0.0234465 -1.6742e-20)
(-0.0829199 -0.0254903 -3.15772e-20)
(-0.0881008 -0.0276558 4.46156e-20)
(-0.0929974 -0.0299338 1.39967e-20)
(-0.0975865 -0.0323042 0)
(-0.101851 -0.0347354 -2.47277e-20)
(-0.105781 -0.0371842 0)
(-0.109376 -0.0395957 -6.53102e-20)
(-0.112649 -0.0419049 4.08018e-20)
(-0.115627 -0.0440397 3.92386e-24)
(-0.11836 -0.0459266 3.56801e-20)
(-0.120909 -0.0475013 -5.01124e-20)
(-0.123292 -0.0487057 3.11534e-20)
(-0.125648 -0.0494707 1.45845e-20)
(-0.000256399 0.000434231 -1.75237e-20)
(-0.0013436 0.000834457 1.80233e-20)
(-0.00353804 0.0007826 6.88734e-24)
(-0.00657759 0.000380205 -4.96283e-20)
(-0.0103182 -0.000297158 0)
(-0.014663 -0.00119 3.01322e-20)
(-0.0195108 -0.00224848 -2.87708e-20)
(-0.0247628 -0.00343382 5.46423e-20)
(-0.0303266 -0.00471902 0)
(-0.036116 -0.00608824 -2.46713e-20)
(-0.0420511 -0.00753578 -2.34074e-20)
(-0.0480582 -0.00906439 -2.2187e-20)
(-0.0540703 -0.0106833 -6.30826e-20)
(-0.0600264 -0.0124057 -1.11778e-24)
(-0.0658719 -0.0142462 -1.0429e-23)
(-0.0715576 -0.0162185 -8.31985e-24)
(-0.0770397 -0.0183325 5.02586e-20)
(-0.0822794 -0.0205924 -1.43074e-23)
(-0.0872419 -0.0229948 9.35682e-24)
(-0.0918967 -0.0255267 -2.79832e-20)
(-0.0962178 -0.0281643 4.96356e-24)
(-0.100184 -0.0308712 4.94361e-20)
(-0.103781 -0.033598 -6.96012e-20)
(-0.107004 -0.0362812 2.1762e-20)
(-0.10986 -0.0388447 0)
(-0.112372 -0.0412022 0)
(-0.11459 -0.0432647 -3.56799e-20)
(-0.116582 -0.0449537 3.32236e-20)
(-0.118352 -0.0461983 -3.11013e-20)
(-0.120054 -0.0469233 0)
(-0.000373985 0.00105819 -1.75413e-20)
(-0.00164836 0.00252429 0)
(-0.00398312 0.00338147 1.73073e-20)
(-0.00712252 0.00374595 9.94137e-20)
(-0.0109266 0.00370463 -3.1609e-20)
(-0.0153011 0.0033274 0)
(-0.0201477 0.00267473 -3.93202e-23)
(-0.0253697 0.00179595 2.73838e-20)
(-0.0308763 0.000728385 -2.60025e-20)
(-0.0365829 -0.000502137 0)
(-0.0424108 -0.00188036 0)
(-0.0482871 -0.00340009 -4.44667e-20)
(-0.0541455 -0.00506231 6.3103e-20)
(-0.0599254 -0.00687284 -1.98969e-20)
(-0.0655723 -0.00883988 0)
(-0.0710371 -0.0109715 3.55371e-20)
(-0.0762752 -0.0132731 -3.35046e-20)
(-0.0812468 -0.0157452 3.15919e-20)
(-0.0859155 -0.0183813 -5.95161e-20)
(-0.0902484 -0.0211656 -8.40176e-20)
(-0.0942158 -0.0240714 2.63203e-20)
(-0.0977924 -0.0270586 2.47008e-20)
(-0.100958 -0.0300722 2.31826e-20)
(-0.103701 -0.0330407 0)
(-0.106022 -0.0358764 -4.06705e-20)
(-0.107939 -0.038477 0)
(-0.109502 -0.0407345 0)
(-0.110783 -0.0425507 -6.63505e-20)
(-0.111771 -0.0438346 -2.28149e-23)
(-0.112639 -0.0444992 -8.64446e-20)
(-0.000521107 0.00166704 1.75413e-20)
(-0.00202873 0.00417464 3.62623e-20)
(-0.00453484 0.00592185 3.47317e-20)
(-0.00779262 0.00703828 -3.3153e-20)
(-0.0116676 0.00762139 0)
(-0.0160696 0.0077509 0)
(-0.0209036 0.00749744 2.87792e-20)
(-0.0260761 0.00692056 -2.74245e-20)
(-0.0314988 0.00606767 -3.82921e-23)
(-0.0370894 0.00497443 4.9531e-20)
(-0.0427706 0.00366553 0)
(-0.0484711 0.00215603 4.44666e-20)
(-0.0541255 0.000453118 0)
(-0.0596741 -0.00144174 0)
(-0.0650624 -0.00353042 2.05437e-23)
(-0.0702414 -0.0058157 3.55638e-20)
(-0.075166 -0.00829883 -3.35577e-20)
(-0.0797953 -0.0109771 6.32764e-20)
(-0.084091 -0.0138416 -2.97757e-20)
(-0.0880176 -0.0168746 8.40455e-20)
(-0.0915415 -0.0200476 0)
(-0.0946322 -0.0233179 0)
(-0.097263 -0.0266262 4.63743e-20)
(-0.0994146 -0.0298939 0)
(-0.101079 -0.0330214 4.0615e-20)
(-0.102265 -0.0358891 -3.8063e-20)
(-0.103024 -0.0383656 3.53928e-20)
(-0.103432 -0.0403256 -3.30245e-20)
(-0.103461 -0.0416484 6.17561e-20)
(-0.103294 -0.0422233 8.61976e-20)
(-0.000695874 0.00225522 0)
(-0.00247995 0.00577098 -3.62623e-20)
(-0.00518647 0.00838208 7.85168e-23)
(-0.00857982 0.01023 0)
(-0.0125323 0.0114217 -6.35663e-20)
(-0.0169587 0.012046 -4.4828e-23)
(-0.0217682 0.012183 2.88348e-20)
(-0.0268712 0.011902 0)
(-0.0321828 0.01126 2.60793e-20)
(-0.0376231 0.0103024 -4.95309e-20)
(-0.0431172 0.00906309 0)
(-0.0485955 0.00756575 0)
(-0.0539939 0.00582566 -4.22112e-20)
(-0.0592535 0.00385144 3.99063e-20)
(-0.0643205 0.00164736 -3.76976e-20)
(-0.0691455 -0.000784302 0)
(-0.0736832 -0.00344091 -3.36548e-20)
(-0.0778913 -0.00631702 -9.49758e-20)
(-0.0817297 -0.00940196 1.5389e-23)
(-0.0851597 -0.0126772 2.4172e-23)
(-0.0881438 -0.0161133 2.63642e-20)
(-0.0906456 -0.0196666 4.94171e-20)
(-0.0926313 -0.0232752 -9.27995e-20)
(-0.0940722 -0.0268546 4.34358e-20)
(-0.0949497 -0.0302942 9.05281e-23)
(-0.0952637 -0.0334557 1.62838e-22)
(-0.0950584 -0.0361801 1.77973e-22)
(-0.0944198 -0.0383062 3.30925e-20)
(-0.093299 -0.0396695 0)
(-0.0918686 -0.0401173 0)
(-0.000895981 0.00281761 3.53422e-20)
(-0.00299622 0.00729976 1.12985e-22)
(-0.00592983 0.0107419 9.12644e-23)
(-0.00947432 0.0132955 -6.67256e-20)
(-0.0135099 0.0150758 6.3587e-20)
(-0.0179567 0.0161797 0)
(-0.0227293 0.0166961 0)
(-0.0277423 0.0167033 5.50636e-20)
(-0.0329146 0.0162676 -5.2286e-20)
(-0.0381695 0.0154435 3.73549e-23)
(-0.0434348 0.0142739 9.42749e-20)
(-0.0486428 0.0127909 4.46686e-20)
(-0.0537309 0.0110178 -8.45529e-20)
(-0.0586413 0.00897006 3.99793e-20)
(-0.0633206 0.00665807 3.77944e-20)
(-0.0677193 0.00408891 -3.56744e-20)
(-0.0717916 0.00126883 6.72535e-20)
(-0.0754937 -0.0017944 9.51834e-20)
(-0.0787833 -0.00508901 5.97359e-20)
(-0.0816188 -0.00859636 2.80301e-20)
(-0.0839581 -0.0122876 -5.27855e-20)
(-0.0857587 -0.0161197 0)
(-0.0869787 -0.02003 8.46957e-23)
(-0.0875793 -0.0239304 4.35167e-20)
(-0.0875296 -0.0277009 4.05254e-20)
(-0.0868162 -0.0311845 -7.601e-20)
(-0.0854746 -0.0341904 -3.54576e-20)
(-0.0836001 -0.0365117 6.58036e-20)
(-0.0811221 -0.0379227 0)
(-0.0781569 -0.0382016 -5.68243e-20)
(-0.00111877 0.00334955 3.53936e-20)
(-0.00357084 0.00874865 -7.29857e-20)
(-0.00675546 0.0129826 7.58573e-24)
(-0.0104648 0.016211 -9.58671e-23)
(-0.0145876 0.0185557 0)
(-0.0190502 0.0201208 0)
(-0.0237724 0.021003 0)
(-0.0286741 0.0212889 -5.51956e-20)
(-0.0336782 0.0210536 5.24113e-20)
(-0.0387115 0.0203602 -4.97315e-20)
(-0.0437047 0.01926 -9.44155e-20)
(-0.0485923 0.0177936 -2.74647e-23)
(-0.0533133 0.0159918 8.47727e-20)
(-0.0578108 0.0138771 4.01177e-20)
(-0.0620318 0.0114656 0)
(-0.0659268 0.00876918 -7.15689e-20)
(-0.0694489 0.00579746 1.01206e-19)
(-0.0725527 0.0025602 -9.52496e-20)
(-0.0751937 -0.000930171 -5.98383e-20)
(-0.0773265 -0.00465575 -1.68736e-19)
(-0.0789045 -0.00858947 8.82396e-23)
(-0.0798786 -0.0126905 1.10969e-22)
(-0.0801985 -0.0168978 7.92301e-23)
(-0.0798145 -0.0211226 -8.68193e-20)
(-0.0786818 -0.0252384 1.21944e-19)
(-0.0767703 -0.029071 2.33501e-23)
(-0.074102 -0.0323955 0)
(-0.070783 -0.0349489 -6.58025e-20)
(-0.066726 -0.0364263 6.09945e-20)
(-0.0618926 -0.0365013 5.69205e-20)
(-0.00136131 0.00384699 0)
(-0.00419637 0.0101067 -3.66564e-20)
(-0.00765281 0.0150875 3.50204e-20)
(-0.0115385 0.0189548 6.70105e-20)
(-0.0157513 0.0218357 3.20714e-20)
(-0.0202236 0.0238403 -6.09977e-20)
(-0.0248814 0.0250721 -5.92952e-23)
(-0.0296494 0.0256252 -5.52893e-20)
(-0.0344553 0.0255827 0)
(-0.0392294 0.0250158 4.99861e-20)
(-0.0439053 0.0239841 0)
(-0.0484199 0.0225361 0)
(-0.0527137 0.02071 -8.49389e-20)
(-0.0567307 0.0185351 -8.02853e-20)
(-0.060418 0.0160332 1.13933e-19)
(-0.0637256 0.0132207 7.15684e-20)
(-0.0666051 0.0101107 5.58349e-23)
(-0.0690095 0.00671478 -6.36692e-20)
(-0.070891 0.00304563 1.19737e-19)
(-0.0722005 -0.000880086 1.76325e-23)
(-0.0728862 -0.00503806 1.05889e-19)
(-0.0728925 -0.00939126 0)
(-0.0721598 -0.0138829 0)
(-0.0706269 -0.0184267 8.70262e-20)
(-0.0682346 -0.0228937 -1.21764e-19)
(-0.0649333 -0.0270966 1.13804e-19)
(-0.0607246 -0.0307766 -7.05738e-20)
(-0.0557288 -0.0336069 6.56083e-20)
(-0.0498673 -0.0351859 -1.21858e-19)
(-0.0427446 -0.0350399 5.67683e-20)
(-0.00162045 0.00430648 -3.57196e-20)
(-0.00486481 0.0113644 0)
(-0.00861049 0.0170419 0)
(-0.0126816 0.0215076 -6.73803e-20)
(-0.0169852 0.0248925 1.28579e-19)
(-0.0214601 0.0273115 -6.11917e-20)
(-0.0260379 0.0288738 -1.15349e-22)
(-0.0306489 0.0296803 5.54552e-20)
(-0.035225 0.0298212 0)
(-0.0397005 0.0293753 8.49052e-23)
(-0.0440117 0.02841 2.70526e-23)
(-0.0480978 0.0269814 -8.99557e-20)
(-0.0519006 0.0251349 -1.80927e-22)
(-0.0553647 0.0229063 -4.02663e-20)
(-0.0584369 0.0203232 -1.1413e-19)
(-0.0610661 0.0174066 7.18035e-20)
(-0.0632022 0.0141729 -6.7725e-20)
(-0.0647951 0.0106356 1.27634e-19)
(-0.0657936 0.0068075 -1.2016e-19)
(-0.0661442 0.00270387 -1.12877e-19)
(-0.0657891 -0.00165438 -1.33208e-23)
(-0.0646656 -0.00623533 -4.97578e-20)
(-0.062705 -0.0109886 4.64598e-20)
(-0.0598342 -0.0158339 -8.80085e-23)
(-0.0559787 -0.0206455 -1.22104e-19)
(-0.0510683 -0.0252286 -7.58231e-20)
(-0.0450765 -0.0292955 1.41122e-19)
(-0.038138 -0.0324541 -1.31146e-19)
(-0.030261 -0.0341782 6.08631e-20)
(-0.0203509 -0.0337475 2.56579e-22)
(-0.00189293 0.00472528 1.07349e-19)
(-0.00556775 0.0125141 -3.68417e-20)
(-0.00961644 0.0188333 -7.06758e-20)
(-0.0138794 0.0238527 2.02461e-19)
(-0.0182727 0.0277057 2.32704e-22)
(-0.0227411 0.0305105 0)
(-0.0272221 0.0323814 0)
(-0.0316509 0.0334247 5.56786e-20)
(-0.035964 0.0337373 -5.27988e-20)
(-0.0400991 0.0334051 5.019e-20)
(-0.0439955 0.0325027 -4.76214e-20)
(-0.0475941 0.0310933 -9.03659e-20)
(-0.0508377 0.0292294 1.70652e-19)
(-0.0536709 0.0269532 -4.03659e-20)
(-0.0560398 0.0242979 7.60705e-20)
(-0.0578914 0.0212893 -1.43974e-19)
(-0.0591727 0.0179471 3.05009e-23)
(-0.05983 0.014287 9.34831e-23)
(-0.0598075 0.0103223 1.20227e-19)
(-0.0590459 0.00606673 -9.85651e-23)
(-0.0574811 0.00153782 0)
(-0.0550421 -0.00323831 0)
(-0.051651 -0.00821926 -4.67966e-20)
(-0.0472225 -0.0133344 -1.74289e-19)
(-0.0416672 -0.0184663 1.22148e-19)
(-0.0348943 -0.0234216 -4.3616e-23)
(-0.0268435 -0.0278929 -1.41091e-19)
(-0.017638 -0.0314324 1.30712e-19)
(-0.00749203 -0.0333586 -6.10371e-20)
(0.00556247 -0.0323048 5.61121e-20)
(-0.00217541 0.00510134 0)
(-0.0062966 0.0135497 0)
(-0.0106582 0.0204517 7.10551e-20)
(-0.0151164 0.0259762 -1.35435e-19)
(-0.0195959 0.0302576 8.02473e-23)
(-0.0240468 0.0334163 -6.16873e-20)
(-0.028412 0.0355704 1.7625e-19)
(-0.0326316 0.0368314 -1.67639e-19)
(-0.036646 0.0373017 -8.22242e-24)
(-0.0403964 0.0370736 -5.03527e-20)
(-0.0438243 0.0362286 -1.43438e-19)
(-0.0468721 0.0348368 1.35582e-19)
(-0.049483 0.0329573 0)
(-0.0516011 0.0306386 0)
(-0.0531707 0.0279195 7.63799e-20)
(-0.0541357 0.0248306 1.44444e-19)
(-0.0544395 0.0213955 -6.80664e-20)
(-0.0540233 0.0176321 0)
(-0.0528252 0.0135547 -6.02644e-20)
(-0.050779 0.00917637 9.78177e-23)
(-0.0478122 0.00451142 -5.32696e-20)
(-0.0438454 -0.000419635 0)
(-0.0387901 -0.00558305 -4.67697e-20)
(-0.032549 -0.01092 4.3754e-20)
(-0.0250182 -0.016327 -8.12025e-20)
(-0.016089 -0.0216208 2.27602e-19)
(-0.00567287 -0.0264842 -3.07523e-22)
(0.00616403 -0.0304206 6.54397e-20)
(0.0191505 -0.0326766 0)
(0.0354076 -0.0308554 -5.61522e-20)
(-0.00246463 0.00543332 -7.23027e-20)
(-0.00704272 0.0144668 7.43295e-20)
(-0.011723 0.0218893 1.94108e-22)
(-0.0163766 0.027867 -6.79959e-20)
(-0.020936 0.0325334 0)
(-0.0253558 0.0360108 -1.23941e-19)
(-0.0295839 0.0384198 8.61969e-23)
(-0.0335645 0.0398762 5.58565e-20)
(-0.0372417 0.0404874 7.41786e-24)
(-0.0405594 0.0403517 -1.85158e-23)
(-0.043461 0.0395566 1.43576e-19)
(-0.0458897 0.0381789 4.53861e-20)
(-0.0477885 0.036284 4.30832e-20)
(-0.0490997 0.0339265 -8.11996e-20)
(-0.0497649 0.031151 7.67038e-20)
(-0.049724 0.0279931 -7.22778e-20)
(-0.0489149 0.0244801 6.82049e-20)
(-0.0472721 0.0206332 -6.4284e-20)
(-0.0447259 0.0164683 0)
(-0.0412011 0.0119985 -5.70035e-20)
(-0.0366157 0.00723605 1.06398e-19)
(-0.0308795 0.00219693 5.00172e-20)
(-0.0238927 -0.00309336 -4.68588e-20)
(-0.0155461 -0.00858863 1.74955e-19)
(-0.00572128 -0.0142029 -4.09141e-20)
(0.00571046 -0.0197707 7.59932e-20)
(0.0188603 -0.0249835 -7.02056e-20)
(0.0336367 -0.029348 3.41502e-22)
(0.0499902 -0.0319666 0)
(0.0701256 -0.0295924 -1.11071e-19)
(-0.00275741 0.00572059 -1.13087e-22)
(-0.00779757 0.0152627 -7.4681e-20)
(-0.012798 0.023141 0)
(-0.0176437 0.0295166 -6.84866e-20)
(-0.0222733 0.0345217 6.52296e-20)
(-0.0266456 0.0382791 -1.00039e-22)
(-0.030712 0.0409115 0)
(-0.0344206 0.042538 -1.1533e-22)
(-0.0377183 0.0432706 -5.33609e-20)
(-0.0405512 0.0432127 5.07034e-20)
(-0.0428636 0.0424579 0)
(-0.0445989 0.0410888 -9.10603e-20)
(-0.0456987 0.039177 8.64295e-20)
(-0.0461028 0.0367832 0)
(-0.0457486 0.0339576 0)
(-0.0445703 0.0307407 0)
(-0.0424988 0.0271646 0)
(-0.0394598 0.0232538 6.43841e-20)
(-0.0353738 0.019027 -6.06403e-20)
(-0.0301545 0.0144983 1.70634e-19)
(-0.0237078 0.00967971 -1.06867e-19)
(-0.0159312 0.0045843 -9.99026e-20)
(-0.00671225 -0.000768922 1.40631e-19)
(0.00407106 -0.00634542 1.47945e-22)
(0.0165496 -0.0120775 -8.17516e-20)
(0.0308685 -0.0178265 -7.59908e-20)
(0.04716 -0.0233167 -7.06108e-20)
(0.0653204 -0.0280783 1.30794e-19)
(0.0853861 -0.0310103 -1.20731e-19)
(0.110184 -0.0282836 2.21718e-19)
(-0.00305074 0.00596318 1.45889e-19)
(-0.00855288 0.0159366 -1.41932e-22)
(-0.0138707 0.0242036 -1.43838e-19)
(-0.0189009 0.0309195 1.37287e-19)
(-0.0235876 0.036214 -6.5636e-20)
(-0.027892 0.0402095 -6.24203e-20)
(-0.0317684 0.0430306 5.93862e-20)
(-0.0351678 0.044799 5.64827e-20)
(-0.0380391 0.0456306 -1.07376e-19)
(-0.0403295 0.0456337 -1.52867e-19)
(-0.0419838 0.044907 -4.82393e-20)
(-0.0429442 0.043539 1.82717e-19)
(-0.0431499 0.0416072 -2.59157e-19)
(-0.0425368 0.039178 8.17037e-20)
(-0.0410366 0.0363074 0)
(-0.0385762 0.033041 0)
(-0.0350772 0.0294158 0)
(-0.0304547 0.0254605 1.29213e-19)
(-0.024617 0.0211975 -6.07915e-20)
(-0.0174641 0.0166434 -5.72697e-20)
(-0.00888782 0.0118119 -1.071e-19)
(0.00122909 0.00671519 1.00362e-19)
(0.013013 0.00136901 -4.70596e-20)
(0.0265988 -0.00420062 -8.80119e-20)
(0.0421282 -0.00994282 -3.28436e-22)
(0.0597564 -0.0157482 -1.51873e-19)
(0.0796337 -0.0213865 2.11816e-19)
(0.101653 -0.0264389 -1.96578e-19)
(0.125799 -0.0297338 6.10775e-20)
(0.156013 -0.0266382 -5.47659e-20)
(-0.00334184 0.00616173 -7.31314e-20)
(-0.00930074 0.0164889 7.53055e-20)
(-0.0149284 0.0250765 7.20291e-20)
(-0.0201315 0.0320728 -2.06911e-19)
(-0.0248576 0.0376045 6.56006e-20)
(-0.0290693 0.0417938 6.26628e-20)
(-0.0327227 0.0447658 0)
(-0.0357705 0.046645 0)
(-0.0381627 0.0475506 5.37423e-20)
(-0.0398467 0.0475951 1.01973e-19)
(-0.0407664 0.0468824 -1.938e-19)
(-0.0408619 0.0455062 -1.4688e-22)
(-0.0400686 0.0435497 0)
(-0.0383169 0.041085 0)
(-0.035531 0.0381735 -7.73443e-20)
(-0.0316287 0.0348665 5.479e-23)
(-0.0265204 0.0312061 6.8806e-20)
(-0.0201081 0.027226 -6.46673e-20)
(-0.0122855 0.022953 -1.21924e-19)
(-0.00293679 0.0184081 1.14276e-19)
(0.00806269 0.013608 5.35846e-20)
(0.0208465 0.00856745 -1.51033e-19)
(0.0355562 0.00330217 -9.38488e-20)
(0.052339 -0.00216573 8.83334e-20)
(0.0713451 -0.00779743 8.21925e-20)
(0.0927318 -0.0135101 7.61378e-20)
(0.11666 -0.0191226 0)
(0.143024 -0.0242999 0)
(0.171603 -0.0279618 1.20445e-19)
(0.207993 -0.0244293 0)
(-0.00362818 0.00631744 7.39231e-20)
(-0.0100336 0.0169214 -7.59193e-20)
(-0.0159589 0.0257607 1.45283e-19)
(-0.0213182 0.0329761 -3.39858e-22)
(-0.0260611 0.0386909 0)
(-0.0301499 0.0430266 0)
(-0.0335416 0.0461094 0)
(-0.0361891 0.0480655 -5.6933e-20)
(-0.0380426 0.0490176 5.40606e-20)
(-0.0390483 0.049082 0)
(-0.0391482 0.0483672 9.69899e-20)
(-0.0382787 0.0469721 9.19981e-20)
(-0.0363699 0.0449851 -8.70845e-20)
(-0.033345 0.042484 8.22152e-20)
(-0.0291191 0.0395358 -1.40058e-22)
(-0.0235985 0.0361973 -7.32087e-20)
(-0.0166804 0.0325164 -6.90359e-20)
(-0.00825155 0.0285322 1.94807e-19)
(0.00181117 0.0242771 6.08403e-20)
(0.0136412 0.0197777 -1.14754e-19)
(0.0273812 0.0150559 -5.36833e-20)
(0.0431822 0.0101314 5.02954e-20)
(0.0612003 0.0050238 0)
(0.0815939 -0.000243862 -8.80408e-20)
(0.104517 -0.00563786 -8.20288e-20)
(0.130119 -0.0110946 0)
(0.158558 -0.0164772 7.02112e-20)
(0.189745 -0.0215487 -1.31587e-19)
(0.223041 -0.0255062 -1.81137e-19)
(0.266338 -0.0214308 0)
(-0.0039075 0.00643193 -1.48051e-19)
(-0.0107443 0.0172373 7.65021e-20)
(-0.0169499 0.0262593 -1.45886e-19)
(-0.0224434 0.0336311 -3.5214e-22)
(-0.0271745 0.039473 0)
(-0.0311042 0.0439059 0)
(-0.0341884 0.0470569 6.03057e-20)
(-0.0363795 0.0490541 1.14599e-19)
(-0.0376261 0.0500231 0)
(-0.0378724 0.0500841 0)
(-0.0370566 0.0493499 -1.95174e-19)
(-0.03511 0.0479243 9.24438e-20)
(-0.0319559 0.0459008 -1.67916e-22)
(-0.0275082 0.0433627 0)
(-0.021671 0.0403827 -7.18464e-23)
(-0.0143372 0.0370235 7.34075e-20)
(-0.00538852 0.0333387 -2.9471e-22)
(0.00530528 0.029374 -2.60297e-19)
(0.0178858 0.0251682 -6.12132e-20)
(0.0325054 0.0207544 1.14751e-19)
(0.0493253 0.016162 1.0754e-19)
(0.0685126 0.0114177 -2.64974e-22)
(0.0902361 0.00654819 9.4408e-20)
(0.11466 0.00158228 1.76154e-19)
(0.141936 -0.0034445 8.20251e-20)
(0.172193 -0.00847811 7.62592e-20)
(0.205564 -0.0134139 7.01814e-20)
(0.242001 -0.018095 1.29609e-19)
(0.280197 -0.0222106 -1.50454e-21)
(0.331022 -0.0174216 5.31677e-20)
(-0.0041778 0.00650716 1.49357e-19)
(-0.0114262 0.0174404 -2.30108e-19)
(-0.0178892 0.0265766 1.46664e-19)
(-0.0234888 0.0340417 1.40004e-19)
(-0.028173 0.0399535 6.67325e-20)
(-0.0318996 0.0444329 -1.3091e-23)
(-0.0346226 0.0476077 -6.01745e-20)
(-0.036292 0.0496085 -1.14598e-19)
(-0.0368537 0.0505635 2.59996e-22)
(-0.0362481 0.0505967 2.06655e-19)
(-0.0344084 0.0498253 -9.82559e-20)
(-0.0312589 0.0483575 1.85322e-19)
(-0.0267141 0.0462922 -7.90533e-23)
(-0.0206769 0.043718 -1.65361e-19)
(-0.0130382 0.0407133 -6.1235e-23)
(-0.00367576 0.0373471 0)
(0.00754614 0.0336794 3.46327e-19)
(0.0207761 0.0297628 6.49932e-20)
(0.0361751 0.0256434 0)
(0.0539142 0.0213623 5.74411e-20)
(0.0741714 0.0169574 -5.40289e-20)
(0.0971272 0.0124648 2.01864e-19)
(0.122957 0.00792035 -2.83264e-19)
(0.151823 0.00336231 8.84672e-20)
(0.183861 -0.00116646 0)
(0.219164 -0.00561261 7.6224e-20)
(0.257806 -0.00989009 -1.41195e-19)
(0.299816 -0.0138664 1.30286e-19)
(0.34294 -0.017953 -1.20012e-19)
(0.401702 -0.0122308 -1.08553e-19)
(-0.0044373 0.00654531 -1.49988e-19)
(-0.0120725 0.0175353 -4.43271e-22)
(-0.0187644 0.026718 -7.35297e-20)
(-0.0244353 0.0342133 -7.01842e-20)
(-0.0290296 0.0401372 -1.34316e-19)
(-0.0325008 0.0446111 6.38688e-20)
(-0.0347991 0.0477647 1.20066e-22)
(-0.0358709 0.0497304 -1.15346e-19)
(-0.0356579 0.05064 -1.63866e-19)
(-0.0340951 0.0506211 9.65207e-23)
(-0.0311088 0.0497949 9.79115e-20)
(-0.0266146 0.0482746 -1.85623e-19)
(-0.020516 0.0461641 8.78648e-20)
(-0.0127033 0.0435575 8.30366e-20)
(-0.00305206 0.0405394 -4.85496e-23)
(0.00857702 0.0371851 7.37849e-20)
(0.022338 0.0335617 -1.38705e-19)
(0.0383986 0.0297294 0)
(0.0569386 0.0257424 -1.22842e-19)
(0.0781457 0.0216511 1.15291e-19)
(0.102211 0.0175029 -1.08066e-19)
(0.129322 0.0133443 -1.01071e-19)
(0.15965 0.00922237 0)
(0.19334 0.00518629 -2.64155e-19)
(0.230497 0.00128932 3.56591e-22)
(0.271154 -0.00241006 -3.80592e-19)
(0.31528 -0.00583718 2.12201e-19)
(0.363015 -0.00879281 -2.60292e-19)
(0.410891 -0.0126402 1.20004e-19)
(0.477421 -0.00574858 -1.07376e-19)
(-0.00468436 0.00654864 7.52169e-20)
(-0.012677 0.0175269 7.73733e-20)
(-0.0195628 0.0266899 7.43643e-20)
(-0.0252624 0.0341526 -2.11449e-22)
(-0.0297151 0.0400308 -1.87965e-22)
(-0.0328684 0.0444473 0)
(-0.0346674 0.047534 0)
(-0.0350535 0.0494264 0)
(-0.0339625 0.0502595 0)
(-0.0313222 0.0501649 0)
(-0.02705 0.0492682 9.8399e-20)
(-0.0210511 0.0476875 -9.31646e-20)
(-0.0132161 0.0455319 8.81486e-20)
(-0.00342038 0.0429015 5.37241e-23)
(0.00847729 0.0398871 -7.83254e-20)
(0.0226344 0.036571 -1.59396e-23)
(0.0392238 0.033028 -1.39265e-19)
(0.0584319 0.0293266 1.30955e-19)
(0.0804546 0.0255302 1.22839e-19)
(0.105492 0.0216989 -1.15027e-19)
(0.133741 0.0178908 2.16375e-19)
(0.165384 0.0141635 0)
(0.200574 0.0105752 -1.88755e-19)
(0.23942 0.00718622 6.90098e-22)
(0.281966 0.0040601 8.28684e-22)
(0.32816 0.00126184 1.07271e-21)
(0.377819 -0.00114989 -6.98425e-20)
(0.431196 -0.00280342 1.30006e-19)
(0.48351 -0.00618282 1.19531e-19)
(0.557439 0.0023087 5.55984e-20)
(-0.0049174 0.00651938 0)
(-0.0132327 0.0174202 7.80659e-20)
(-0.0202705 0.0264988 -7.41402e-20)
(-0.0259478 0.0338674 -1.78352e-22)
(-0.0301971 0.0396426 1.35573e-19)
(-0.0329587 0.0439503 -6.45334e-20)
(-0.0341714 0.0469255 0)
(-0.0337697 0.0487071 0)
(-0.0316818 0.0494343 -1.10293e-19)
(-0.0278266 0.0492427 1.0463e-19)
(-0.022111 0.048263 9.91244e-20)
(-0.0144271 0.0466181 0)
(-0.00465123 0.0444229 8.84902e-20)
(0.00735804 0.0417838 0)
(0.0217598 0.0387984 -1.5706e-19)
(0.0387301 0.0355567 2.22087e-19)
(0.05846 0.0321417 2.09002e-19)
(0.0811518 0.0286312 -6.55131e-20)
(0.107013 0.0250983 -1.87457e-22)
(0.136248 0.0216136 -1.7324e-19)
(0.169047 0.0182459 0)
(0.205572 0.0150636 0)
(0.245935 0.0121353 9.45263e-20)
(0.290182 0.00953012 1.75867e-19)
(0.338265 0.00731883 -3.33933e-22)
(0.390011 0.00556945 1.52159e-19)
(0.445043 0.00430933 1.40758e-19)
(0.503657 0.0041587 0)
(0.559905 0.00142669 -1.19522e-19)
(0.639958 0.0117103 1.61626e-19)
(-0.00513482 0.00645957 7.66565e-20)
(-0.0137326 0.0172198 0)
(-0.0208727 0.0261515 2.04742e-22)
(-0.0264669 0.0333658 -7.1585e-20)
(-0.0304398 0.0389825 6.83634e-20)
(-0.0327233 0.0431315 6.48047e-20)
(-0.0332481 0.0459522 -8.78495e-23)
(-0.0319407 0.0475881 5.87068e-20)
(-0.0287199 0.0481826 0)
(-0.0234937 0.0478767 -2.10069e-19)
(-0.0161563 0.0468059 2.79671e-22)
(-0.00658548 0.045099 0)
(0.005359 0.042877 8.88044e-20)
(0.0198362 0.0402531 -2.50936e-19)
(0.0370235 0.0373325 7.88923e-20)
(0.0571148 0.0342135 -7.41184e-20)
(0.0803166 0.0309883 -1.39631e-19)
(0.106842 0.0277442 -1.97036e-19)
(0.136901 0.0245648 0)
(0.170692 0.021531 0)
(0.20838 0.0187217 1.08225e-19)
(0.250084 0.0162148 1.00892e-19)
(0.295847 0.0140861 -9.47803e-20)
(0.345618 0.0124096 0)
(0.399218 0.0112571 0)
(0.456309 0.0106915 0)
(0.516306 0.0106962 1.4002e-19)
(0.579373 0.0121346 -6.40269e-20)
(0.638944 0.0102248 1.20589e-19)
(0.723039 0.0224687 1.05664e-19)
(-0.00533479 0.00637099 -1.53565e-19)
(-0.0141687 0.0169301 7.90645e-20)
(-0.0213528 0.0256544 -7.57458e-20)
(-0.0267923 0.0326567 7.2221e-20)
(-0.0304033 0.0380613 -6.83633e-20)
(-0.0321079 0.0420043 6.5149e-20)
(-0.0318276 0.0446306 -6.19817e-20)
(-0.0294792 0.0460891 -1.17222e-19)
(-0.0249703 0.046529 1.11608e-19)
(-0.0181964 0.0460965 2.10821e-19)
(-0.00903708 0.0449333 9.95693e-20)
(0.00264596 0.0431743 -9.42882e-20)
(0.0170105 0.0409476 2.74063e-22)
(0.0342337 0.0383737 -9.64693e-24)
(0.0545104 0.0355664 7.90909e-20)
(0.0780495 0.0326329 0)
(0.105068 0.0296751 1.39745e-19)
(0.13578 0.0267904 3.28393e-19)
(0.170389 0.0240725 -6.17742e-20)
(0.209064 0.0216117 0)
(0.251927 0.0194953 -2.16444e-19)
(0.299021 0.0178071 -1.01137e-19)
(0.35029 0.0166255 -9.40238e-20)
(0.40554 0.0160223 8.82768e-20)
(0.464424 0.0160621 -8.11898e-20)
(0.526394 0.0167892 7.61443e-20)
(0.590664 0.0181539 -4.83433e-22)
(0.656992 0.0211141 1.28256e-19)
(0.719224 0.020241 -1.18694e-19)
(0.804279 0.0344313 -2.11207e-19)
(-0.00551516 0.00625504 7.77253e-20)
(-0.0145319 0.0165547 7.95685e-20)
(-0.0216917 0.0250138 -2.71191e-22)
(-0.0268933 0.0317486 4.61967e-22)
(-0.0300429 0.0368908 0)
(-0.0310522 0.040584 -2.56643e-22)
(-0.0298323 0.0429802 -1.87188e-19)
(-0.0262886 0.044235 0)
(-0.0203161 0.0445039 -1.12012e-19)
(-0.0117958 0.0439399 -4.23426e-19)
(-0.000591482 0.0426911 1.002e-19)
(0.0134526 0.0408999 -9.46737e-20)
(0.0305122 0.0387018 -1.78077e-19)
(0.0507814 0.0362259 1.68358e-19)
(0.0744699 0.0335951 0)
(0.101796 0.0309261 7.43836e-20)
(0.132979 0.0283308 -2.10346e-19)
(0.168222 0.0259164 -6.58249e-20)
(0.207701 0.0237854 -1.85301e-19)
(0.251537 0.0220357 0)
(0.299774 0.0207588 2.16421e-19)
(0.352349 0.0200388 1.01131e-19)
(0.409061 0.0199495 0)
(0.46954 0.0205508 8.76663e-20)
(0.533225 0.0218898 0)
(0.59932 0.0239751 -7.48752e-20)
(0.666872 0.026768 -2.08302e-19)
(0.73492 0.0310081 -2.5596e-19)
(0.799076 0.0315764 -1.17281e-19)
(0.88077 0.0474483 -2.56952e-21)
(-0.00567326 0.0061127 -7.77252e-20)
(-0.0148113 0.0160966 3.29943e-22)
(-0.0218679 0.0242349 7.65426e-20)
(-0.0267351 0.0306504 -7.26828e-20)
(-0.0293088 0.0354836 -6.93302e-20)
(-0.0294895 0.0388879 1.31512e-19)
(-0.0271769 0.0410239 6.27045e-20)
(-0.0222634 0.0420551 1.18856e-19)
(-0.0146302 0.0421445 1.12131e-19)
(-0.00414234 0.0414528 1.06485e-19)
(0.00935343 0.0401357 2.01293e-19)
(0.0260305 0.0383436 -3.47046e-22)
(0.0460813 0.036221 0)
(0.0697147 0.033906 -8.41747e-20)
(0.0971498 0.031531 -2.31359e-22)
(0.128606 0.0292228 1.53404e-22)
(0.164291 0.0271028 2.10464e-19)
(0.20438 0.0252867 0)
(0.248998 0.0238834 1.23461e-19)
(0.298186 0.0229938 0)
(0.351876 0.022708 -3.41284e-23)
(0.409859 0.0231022 -1.00632e-19)
(0.471748 0.0242345 1.88259e-19)
(0.536955 0.026141 -8.81885e-20)
(0.604684 0.0288384 -1.62251e-19)
(0.673875 0.0322827 7.54917e-20)
(0.74344 0.0365036 2.77572e-19)
(0.81153 0.0416383 6.3348e-20)
(0.876726 0.0444658 2.90876e-19)
(0.949312 0.0610662 5.36861e-20)