/*--------------------------------*- C++ -*----------------------------------*\
  =========                 |
  \\      /  F ield         | OpenFOAM: The Open Source CFD Toolbox
   \\    /   O peration     | Website:  https://openfoam.org
    \\  /    A nd           | Version:  7
     \\/     M anipulation  |
\*---------------------------------------------------------------------------*/
FoamFile
{
    version     2.0;
    format      ascii;
    class       volVectorField;
    location    "25";
    object      U;
}
// * * * * * * * * * * * * * * * * * * * * * * * * * * * * * * * * * * * * * //

dimensions      [0 1 -1 0 0 0 0];

internalField   nonuniform List<vector> 
183
(
(-0.00542217 0.00342753 -5.49312e-20)
(0.00607031 0.00442191 3.7001e-20)
(-0.00274649 0.00216089 2.88785e-19)
(0.0161025 0.00149736 6.75533e-21)
(0.0587724 0.00216818 -1.55062e-19)
(0.000600138 0.000885123 -3.10388e-19)
(0.0280444 -0.00123493 2.3975e-19)
(0.0811389 -0.000326616 -1.01053e-19)
(0.15725 0.00400066 -4.3121e-20)
(0.253787 0.0127611 -5.00711e-20)
(0.0046798 -0.00034889 1.19262e-19)
(0.0420056 -0.00362246 -3.52615e-20)
(0.106588 -0.00196899 1.95178e-20)
(0.195135 0.00454041 -3.69068e-20)
(0.304113 0.0166006 9.93048e-20)
(0.428692 0.0344388 5.3465e-20)
(0.562452 0.0573497 -3.17048e-19)
(0.697775 0.0837994 1.62512e-19)
(0.135111 -0.00250321 2.46649e-19)
(0.236614 0.00683329 -1.07488e-20)
(0.357888 0.0227632 -1.75725e-19)
(0.49266 0.0449664 8.70969e-20)
(0.633041 0.072062 -3.30729e-20)
(0.770338 0.101848 -8.11861e-20)
(0.896362 0.131722 1.34051e-19)
(1.00481 0.159207 -2.14951e-19)
(0.558 0.0582431 1.01458e-19)
(0.702823 0.0893416 -3.77279e-20)
(0.839487 0.121908 -2.25914e-20)
(0.960052 0.152987 2.89164e-19)
(1.05936 0.180126 4.1567e-20)
(1.13556 0.201778 -7.58386e-20)
(1.18976 0.217409 -3.02403e-20)
(1.2251 0.227334 2.29789e-19)
(1.10597 0.201086 -6.2245e-20)
(1.17078 0.220617 -7.91944e-20)
(1.21414 0.233674 -5.04362e-20)
(1.24023 0.241031 -4.55139e-21)
(1.25366 0.243849 2.38697e-20)
(1.25856 0.243347 -3.72931e-20)
(1.25828 0.240597 7.60136e-20)
(1.2552 0.236424 3.87695e-20)
(1.25764 0.254739 -5.18722e-20)
(1.25857 0.252608 6.49988e-20)
(1.25578 0.248649 -8.13613e-20)
(1.25123 0.243596 2.75129e-20)
(1.24612 0.237938 4.19537e-22)
(1.24109 0.231984 1.23571e-19)
(1.23638 0.22574 -5.59413e-20)
(1.2321 0.21993 2.39361e-20)
(1.24069 0.244514 -1.39015e-19)
(1.23543 0.238069 -3.59475e-20)
(1.23063 0.231422 2.70879e-20)
(1.22625 0.225414 1.2426e-20)
(1.2407 -0.244728 4.82788e-20)
(1.23544 -0.238317 3.0372e-20)
(1.23065 -0.231708 -4.65431e-20)
(1.22627 -0.225727 -1.53632e-20)
(1.25006 -0.254136 -8.11788e-20)
(1.25761 -0.254867 -4.57292e-21)
(1.25852 -0.252754 -7.27516e-21)
(1.25573 -0.248817 7.41944e-20)
(1.25119 -0.24379 7.01487e-20)
(1.24609 -0.238162 9.03569e-20)
(1.24107 -0.232241 -1.18004e-19)
(1.23637 -0.226034 7.53915e-20)
(1.01724 -0.175174 1.88022e-20)
(1.10612 -0.201199 -9.29498e-21)
(1.17087 -0.220734 4.99523e-20)
(1.21417 -0.233795 4.13996e-20)
(1.24022 -0.24116 -1.69872e-19)
(1.25361 -0.24399 2.75885e-20)
(1.25851 -0.243505 9.30826e-20)
(1.25822 -0.240775 -6.88312e-20)
(0.558294 -0.0582898 -1.62368e-20)
(0.703121 -0.0894118 4.43449e-20)
(0.83976 -0.121998 1.31001e-19)
(0.960278 -0.153093 -2.33543e-21)
(1.05953 -0.180242 1.57334e-19)
(1.13566 -0.201902 1.0504e-19)
(1.1898 -0.21754 1.18458e-19)
(1.22509 -0.227473 1.76003e-19)
(0.135246 0.00251697 -3.34222e-19)
(0.236803 -0.00682982 1.0571e-19)
(0.358123 -0.0227769 -2.15507e-19)
(0.492926 -0.045002 -6.17176e-20)
(0.633317 -0.0721212 4.93613e-20)
(0.770599 -0.10193 6.02951e-20)
(0.896586 -0.131822 -2.48785e-19)
(1.00498 -0.159322 -7.70921e-20)
(0.0047017 0.000355861 -2.66097e-19)
(0.042073 0.00363847 6.77519e-21)
(0.106704 0.00198504 1.58523e-20)
(0.195297 -0.00453188 8.99557e-20)
(0.304318 -0.0166062 2.48526e-19)
(0.428928 -0.0344638 -1.64013e-19)
(0.562703 -0.0573971 1.6478e-19)
(0.000618702 -0.000878394 2.35441e-19)
(0.0281014 0.0012508 -1.92549e-19)
(0.0812369 0.000343914 8.27779e-20)
(0.157389 -0.00398851 2.14992e-19)
(0.253964 -0.0127602 -5.92501e-20)
(-0.00273074 -0.00215451 1.44133e-19)
(0.0161507 -0.00148212 -1.84406e-19)
(0.0588554 -0.00215064 -1.05802e-19)
(-0.00540886 -0.00342165 2.23903e-20)
(1.18089 0.162868 -9.03404e-21)
(1.16916 0.150244 -2.91985e-21)
(1.15991 0.132657 4.91e-21)
(1.15261 0.120169 4.20504e-22)
(1.14572 0.107687 -3.4964e-23)
(1.13917 0.0967464 2.02842e-21)
(1.13368 0.0864498 2.88649e-21)
(1.12961 0.077228 5.94077e-21)
(1.12485 0.0689687 -1.78678e-21)
(1.12007 0.0609781 3.18563e-21)
(1.11573 0.0533095 1.16747e-21)
(1.1123 0.0464994 -4.64168e-23)
(1.10935 0.0392449 5.49678e-21)
(1.1073 0.033311 2.9505e-21)
(1.10393 0.0267708 -1.36433e-21)
(1.10237 0.0207827 2.30746e-21)
(1.10053 0.0147134 1.67702e-21)
(1.10072 0.00847586 -2.15615e-21)
(1.09903 0.00359986 3.69332e-21)
(1.2146 0.207542 -6.74193e-21)
(1.18824 0.191361 -5.84544e-21)
(1.17633 0.164399 1.39504e-20)
(1.16512 0.151587 -7.42249e-21)
(1.15634 0.133533 8.58609e-21)
(1.14947 0.120909 -3.82439e-21)
(1.14287 0.10829 -2.76085e-21)
(1.13657 0.0972459 -5.62876e-22)
(1.13134 0.0868541 -3.75157e-21)
(1.12751 0.0775882 -2.60418e-22)
(1.12288 0.0693246 -1.90624e-21)
(1.11822 0.0612869 -9.00757e-22)
(1.114 0.053579 -2.26004e-21)
(1.11067 0.0467408 -7.11598e-22)
(1.10782 0.0394217 -2.76572e-21)
(1.10585 0.0334973 -3.27279e-22)
(1.1025 0.0269186 8.31253e-22)
(1.101 0.0209061 2.16854e-21)
(1.09917 0.0147755 -2.41182e-21)
(1.09945 0.00851073 2.12252e-21)
(1.09771 0.00366047 8.25164e-22)
(1.21463 -0.208045 6.74861e-21)
(1.18824 -0.191766 5.85391e-21)
(1.17675 -0.1654 -8.89833e-21)
(1.16469 -0.152305 5.27024e-21)
(1.15665 -0.134668 -6.23891e-21)
(1.1489 -0.121993 -9.21592e-22)
(1.14179 -0.109621 1.69546e-21)
(1.13537 -0.0975528 5.39367e-22)
(1.13105 -0.0879734 -2.44917e-22)
(1.12449 -0.0779509 -6.37385e-22)
(1.12142 -0.0686683 4.89217e-22)
(1.11635 -0.0610429 -2.97595e-21)
(1.11368 -0.0522082 9.30627e-22)
(1.11067 -0.0458264 -7.72094e-23)
(1.10808 -0.038433 7.37023e-22)
(1.1053 -0.032407 -1.14299e-21)
(1.10274 -0.0259473 -1.34118e-21)
(1.1015 -0.0198349 -2.24274e-21)
(1.1011 -0.0140678 -1.76946e-22)
(1.10002 -0.00862667 -2.20434e-21)
(1.09883 -0.00284073 -2.72534e-21)
(1.15208 -0.12118 2.59125e-21)
(1.14469 -0.108964 1.07146e-21)
(1.138 -0.0970555 -1.98738e-21)
(1.13343 -0.087487 1.10185e-21)
(1.12677 -0.0775865 -4.93327e-21)
(1.12344 -0.068374 3.13078e-21)
(1.11828 -0.0607716 7.34708e-22)
(1.11543 -0.0520499 -2.68005e-21)
(1.1123 -0.0456537 3.68944e-21)
(1.1096 -0.0383078 -3.45539e-21)
(1.10676 -0.0322802 -1.48735e-21)
(1.10415 -0.0258571 1.87014e-21)
(1.10284 -0.0197897 -2.29122e-21)
(1.10237 -0.0140287 9.2336e-22)
(1.10128 -0.00858218 2.23327e-21)
(1.10009 -0.00282851 -1.88639e-21)
)
;

boundaryField
{
    inlet
    {
        type            uniformFixedValue;
        uniformValue    constant (1 0 0);
        value           nonuniform 0();
    }
    outlet
    {
        type            pressureInletOutletVelocity;
        value           nonuniform 0();
    }
    cylinder
    {
        type            fixedValue;
        value           uniform (0 0 0);
    }
    top
    {
        type            symmetryPlane;
    }
    bottom
    {
        type            symmetryPlane;
    }
    defaultFaces
    {
        type            empty;
    }
    procBoundary20to19
    {
        type            processor;
        value           nonuniform List<vector> 
94
(
(0.00954561 -0.00148026 3.05889e-20)
(0.0580587 -0.00549224 -3.13227e-20)
(0.0580587 -0.00549224 -3.13227e-20)
(0.16661 -0.0016653 1.65194e-19)
(0.281347 0.0111589 -5.59536e-20)
(0.414421 0.031466 -1.1906e-19)
(0.414421 0.031466 -1.1906e-19)
(0.623547 0.0742534 -2.28277e-19)
(0.770459 0.10898 -8.23708e-20)
(0.903992 0.143624 1.79447e-19)
(1.01702 0.175067 -1.97889e-19)
(1.01702 0.175067 -1.97889e-19)
(1.14477 0.221843 1.55625e-20)
(1.19847 0.238845 -1.18445e-19)
(1.23193 0.249179 5.82111e-21)
(1.25008 0.25402 1.08474e-19)
(1.25008 0.25402 1.08474e-19)
(1.25851 0.265241 -3.8097e-21)
(1.25643 0.261654 -8.04665e-20)
(1.25184 0.256621 -1.17951e-19)
(1.2463 0.250774 -7.07866e-20)
(1.2463 0.250774 -7.07866e-20)
(1.23467 0.251143 -6.4408e-20)
(1.22929 0.2442 -5.78408e-20)
(1.22445 0.237152 4.90735e-20)
(1.21999 0.230902 -3.9677e-20)
(1.2347 -0.251344 6.44396e-20)
(1.22933 -0.244437 2.27322e-20)
(1.22451 -0.237428 -5.71861e-20)
(1.22005 -0.231206 3.43588e-20)
(1.2556 -0.266547 2.83559e-20)
(1.25849 -0.265355 -3.75676e-20)
(1.25641 -0.261786 -8.13073e-20)
(1.25182 -0.256777 2.69785e-20)
(1.24629 -0.250957 4.8077e-20)
(1.24629 -0.250957 4.8077e-20)
(1.06705 -0.197716 2.53442e-20)
(1.14491 -0.221948 7.32104e-20)
(1.19854 -0.23895 1.63829e-19)
(1.23196 -0.249288 7.49566e-20)
(1.23196 -0.249288 7.49566e-20)
(0.623868 -0.0743109 1.44313e-20)
(0.770774 -0.10906 -4.94784e-20)
(0.904271 -0.14372 -1.65704e-19)
(0.904271 -0.14372 -1.65704e-19)
(0.166768 0.00167568 -8.28157e-20)
(0.281565 -0.0111619 -2.52096e-20)
(0.414687 -0.031489 -1.60593e-19)
(0.414687 -0.031489 -1.60593e-19)
(0.00957151 0.00148737 -3.61734e-20)
(0.0581383 0.00550787 -2.84856e-19)
(0.0581383 0.00550787 -2.84856e-19)
(1.20818 0.210723 1.05884e-20)
(1.18248 0.194009 -5.0418e-21)
(1.17172 0.16592 -2.53799e-21)
(1.16103 0.152933 2.27214e-21)
(1.15274 0.134414 -3.26513e-21)
(1.14631 0.121652 1.70031e-21)
(1.14002 0.108904 3.18169e-21)
(1.13396 0.0977535 -1.87513e-21)
(1.129 0.0872613 8.33112e-22)
(1.12542 0.0779519 -2.49945e-21)
(1.12092 0.0696903 -1.99246e-21)
(1.11636 0.0616056 -6.868e-22)
(1.11226 0.0538562 -3.01304e-21)
(1.10904 0.0469879 -1.30037e-21)
(1.10628 0.0396002 -9.34019e-22)
(1.10441 0.0336885 -1.12054e-21)
(1.10106 0.0270732 5.54797e-22)
(1.09961 0.0210338 1.31385e-21)
(1.0978 0.0148365 -1.04942e-21)
(1.09817 0.00854689 1.55799e-21)
(1.09637 0.00372661 5.12367e-22)
(1.20826 -0.211224 -1.22377e-20)
(1.18253 -0.194421 2.56958e-21)
(1.17217 -0.166956 2.94507e-21)
(1.16061 -0.153668 2.77025e-22)
(1.15311 -0.135602 3.59689e-21)
(1.14571 -0.122818 -2.79984e-21)
(1.13887 -0.110294 -2.85353e-21)
(1.13274 -0.098059 2.12912e-21)
(1.12866 -0.0884735 -5.45502e-22)
(1.12221 -0.0783255 1.68983e-21)
(1.11938 -0.0689677 -7.63024e-22)
(1.1144 -0.0613199 9.02285e-22)
(1.11192 -0.0523643 5.32213e-22)
(1.10903 -0.0459984 1.51734e-21)
(1.10655 -0.0385596 -6.90794e-22)
(1.10384 -0.0325374 -3.64736e-22)
(1.10132 -0.026039 -2.86353e-21)
(1.10016 -0.0198768 -2.79038e-21)
(1.09984 -0.0141057 1.18747e-21)
(1.09877 -0.00867429 -3.05729e-21)
(1.09756 -0.00285519 -2.78516e-21)
)
;
    }
    procBoundary20to21
    {
        type            processor;
        value           nonuniform List<vector> 
102
(
(-0.00749491 0.00464459 3.74047e-20)
(-0.00219062 0.00740975 1.87323e-19)
(0.0394216 0.00527746 2.0111e-19)
(0.0394216 0.00527746 2.0111e-19)
(0.123169 0.0049202 1.07764e-19)
(0.123169 0.0049202 1.07764e-19)
(0.207446 0.0109793 -2.70056e-19)
(0.367181 0.0265875 -6.8914e-20)
(0.367181 0.0265875 -6.8914e-20)
(0.492449 0.0453282 -1.49222e-19)
(0.623263 0.068072 -7.79417e-20)
(0.826769 0.111672 -5.73509e-20)
(0.826769 0.111672 -5.73509e-20)
(0.942502 0.138666 5.50216e-19)
(1.09214 0.182424 -1.77384e-19)
(1.09214 0.182424 -1.77384e-19)
(1.15778 0.200344 1.53621e-20)
(1.20354 0.212794 -1.40517e-19)
(1.24571 0.232413 -4.65369e-20)
(1.24571 0.232413 -4.65369e-20)
(1.25577 0.233735 1.36801e-19)
(1.25892 0.232365 -1.57228e-19)
(1.25795 0.229198 1.62891e-19)
(1.25088 0.23141 4.33256e-20)
(1.25088 0.23141 4.33256e-20)
(1.24624 0.225958 1.65506e-19)
(1.24172 0.220128 -3.05484e-21)
(1.23757 0.214476 -8.54212e-20)
(1.22075 0.204274 1.57072e-20)
(1.23209 -0.220249 2.48214e-20)
(1.25514 -0.236627 6.28302e-21)
(1.25083 -0.231642 1.07567e-19)
(1.24619 -0.226221 -9.1007e-20)
(1.23209 -0.220249 2.48214e-20)
(1.24167 -0.220427 1.20271e-19)
(1.24567 -0.232565 -1.69821e-19)
(1.25571 -0.233902 -8.01629e-20)
(1.25514 -0.236627 6.28302e-21)
(1.25884 -0.232551 1.46694e-19)
(1.09225 -0.18255 1.69142e-19)
(1.15783 -0.20048 -1.22686e-20)
(1.24567 -0.232565 -1.69821e-19)
(1.20354 -0.212939 1.53339e-19)
(0.69802 -0.0838695 -3.3925e-20)
(0.826987 -0.111762 2.18188e-19)
(1.09225 -0.18255 1.69142e-19)
(0.942674 -0.138774 -2.41485e-19)
(0.367388 -0.0266028 -3.03419e-20)
(0.69802 -0.0838695 -3.3925e-20)
(0.492674 -0.0453637 9.71485e-20)
(0.123288 -0.00490587 2.16974e-19)
(0.367388 -0.0266028 -3.03419e-20)
(0.207598 -0.0109734 2.63754e-19)
(0.00611086 -0.0044078 -2.51063e-20)
(0.123288 -0.00490587 2.16974e-19)
(0.0394918 -0.00526067 9.26857e-20)
(0.00611086 -0.0044078 -2.51063e-20)
(-0.00748384 -0.00463941 -7.58449e-21)
(1.18539 0.161328 -9.58606e-21)
(1.17317 0.148907 1.19704e-21)
(1.16346 0.131788 9.84604e-22)
(1.15574 0.119433 9.38357e-21)
(1.14856 0.107094 -1.48087e-20)
(1.14176 0.0962553 -6.8005e-22)
(1.13601 0.0860495 2.22227e-21)
(1.13171 0.0768725 3.72195e-21)
(1.12681 0.0686222 2.57602e-21)
(1.12192 0.0606785 3.37681e-21)
(1.11746 0.0530474 3.21435e-21)
(1.11392 0.0462637 -3.50668e-21)
(1.11087 0.0390701 5.80128e-21)
(1.10873 0.0331296 1.96336e-21)
(1.10535 0.0266291 -2.24194e-21)
(1.10373 0.0206633 6.00472e-21)
(1.10187 0.0146505 1.9909e-21)
(1.10198 0.00844201 -2.38529e-21)
(1.10034 0.00354409 4.33306e-21)
(1.22075 0.204274 1.57072e-20)
(1.19391 0.188706 -9.53052e-21)
(1.19391 0.188706 -9.53052e-21)
(1.22075 -0.204776 -8.99284e-22)
(1.19385 -0.189105 -1.06941e-21)
(1.18127 -0.163836 1.05474e-20)
(1.16872 -0.150945 -6.25073e-21)
(1.16018 -0.133745 4.29195e-21)
(1.16018 -0.133745 4.29195e-21)
(1.15524 -0.12038 -9.33343e-21)
(1.14759 -0.108323 1.46834e-20)
(1.14062 -0.0965678 6.67238e-22)
(1.13581 -0.0870144 -2.20721e-21)
(1.12903 -0.0772318 -3.65913e-21)
(1.12546 -0.0680851 -2.53137e-21)
(1.12021 -0.0605058 1.02594e-21)
(1.11717 -0.05189 -6.64657e-21)
(1.11392 -0.0454811 -2.54213e-23)
(1.11113 -0.0381839 -1.76364e-21)
(1.10821 -0.0321563 2.75398e-21)
(1.10555 -0.0257683 2.12972e-21)
(1.10416 -0.0197418 -1.45852e-21)
(1.10362 -0.0139887 1.81136e-21)
(1.10252 -0.00854024 1.18871e-21)
(1.10134 -0.00281804 -5.9631e-22)
)
;
    }
}


// ************************************************************************* //
