/*--------------------------------*- C++ -*----------------------------------*\
  =========                 |
  \\      /  F ield         | OpenFOAM: The Open Source CFD Toolbox
   \\    /   O peration     | Website:  https://openfoam.org
    \\  /    A nd           | Version:  7
     \\/     M anipulation  |
\*---------------------------------------------------------------------------*/
FoamFile
{
    version     2.0;
    format      ascii;
    class       surfaceScalarField;
    location    "50";
    object      phi;
}
// * * * * * * * * * * * * * * * * * * * * * * * * * * * * * * * * * * * * * //

dimensions      [0 3 -1 0 0 0 0];

internalField   nonuniform List<scalar> 
650
(
0.00180189
-8.44342e-06
4.9669e-11
0.00181016
-8.26369e-06
5.71024e-11
-8.08817e-06
6.443e-11
0.00180307
-1.68765e-05
0.00181132
-1.65178e-05
-1.61674e-05
0.0018054
-2.52894e-05
0.00181364
-2.4753e-05
-2.42292e-05
0.00180888
-3.36726e-05
0.00181709
-3.29607e-05
-3.22656e-05
0.00181348
-4.20176e-05
0.00182166
-4.11331e-05
-4.02693e-05
0.00181917
-5.03171e-05
0.0018273
-4.92634e-05
-4.82343e-05
0.00182589
-5.85651e-05
0.00183397
-5.73462e-05
-5.61558e-05
0.0018336
-6.67572e-05
0.00184163
-6.53777e-05
-6.40305e-05
0.00184224
-7.4891e-05
0.00185022
-7.33561e-05
-7.18571e-05
0.00185174
-8.29661e-05
0.00185967
-8.12814e-05
-7.96361e-05
0.00186203
-9.09843e-05
0.00186991
-8.91558e-05
-8.73701e-05
0.00187304
-9.89497e-05
0.00188087
-9.69839e-05
-9.50641e-05
0.00188467
-0.000106869
0.00189246
-0.000104773
-0.000102725
0.00189685
-0.000114752
0.00190461
-0.000112531
-0.000110363
0.00190948
-0.000122609
0.00191722
-0.000120273
-0.000117991
0.00192247
-0.000130456
0.00193021
-0.00012801
-0.000125622
0.00193572
-0.00013831
0.00194348
-0.000135762
-0.000133274
0.00194915
-0.000146191
0.00195693
-0.000143548
-0.000140968
0.00196264
-0.00015412
0.00197048
-0.00015139
-0.000148725
0.00197611
-0.000162122
0.00198403
-0.000159313
-0.000156569
0.00198946
-0.000170226
0.00199749
-0.000167343
-0.000164529
0.00200259
-0.000178459
0.00201076
-0.00017551
-0.000172632
0.00201542
-0.000186853
0.00202376
-0.000183845
-0.000180909
0.00202786
0.0020364
-0.000192381
0.00204488
-0.000189393
-0.000186476
0.00617223
-0.000203147
0.00618289
-0.000200051
-0.000197028
0.00640791
-0.000211323
0.00641602
-0.000208161
-0.000205074
0.00665039
-0.000216949
0.00665599
-0.000213762
-0.00021065
0.00689598
-0.000220117
0.00689916
-0.000216943
-0.000213844
0.00714115
-0.000220967
0.00714205
-0.000217841
-0.000214789
0.00738261
-0.000219682
0.0073814
-0.000216633
-0.000213656
0.00761739
-0.000216473
0.00761428
-0.000213527
-0.00021065
0.00784288
-0.00021158
0.00783811
-0.000208755
-0.000205997
0.00805689
-0.000205255
0.0080507
-0.000202566
-0.000199941
0.00825764
-0.000197755
0.00825028
-0.000195211
-0.000192729
0.00844381
-0.000189336
0.00843554
-0.000186942
-0.000184606
0.0086145
-0.000180243
0.00860555
-0.000177999
-0.000175811
0.00876923
-0.000170704
0.00875984
-0.000168608
-0.000166563
0.0089079
-0.000160925
0.00889827
-0.00015897
-0.000157064
0.00903075
-0.000151086
0.00902105
-0.000149263
-0.000147489
0.00913831
-0.000141337
0.00912869
-0.000139639
-0.000137986
0.00923134
-0.000131803
0.00922192
-0.000130219
-0.000128679
0.00931078
-0.000122578
0.00930166
-0.000121099
-0.000119661
0.00937772
-0.00011373
0.00936897
-0.000112346
-0.000111002
0.00943331
-0.000105303
0.00942497
-0.000104006
-0.000102747
0.00947877
-9.73186e-05
0.00947086
-9.61012e-05
-9.49202e-05
0.00951527
-8.97828e-05
0.00950781
-8.86388e-05
-8.75296e-05
0.009544
-8.26856e-05
0.00953697
-8.161e-05
-8.05677e-05
0.00956606
-7.60062e-05
0.00955944
-7.49953e-05
-7.4016e-05
0.00958248
-6.97159e-05
0.00957625
-6.87674e-05
-6.78484e-05
0.00959422
-6.37813e-05
0.00958835
-6.28931e-05
-6.20328e-05
0.00960213
-5.81657e-05
0.00959657
-5.73369e-05
-5.65347e-05
0.00960698
-5.28319e-05
0.0096017
-5.20626e-05
-5.13177e-05
0.00960942
-4.77432e-05
0.00960439
-4.70335e-05
-4.63464e-05
0.00961005
-4.28647e-05
0.00960523
-4.22154e-05
-4.15866e-05
0.00960935
-3.81642e-05
0.00960471
-3.75762e-05
-3.70066e-05
0.00960774
-3.36125e-05
0.00960325
-3.30866e-05
-3.25771e-05
0.00960558
-2.91833e-05
0.00960121
-2.87206e-05
-2.82722e-05
0.00960315
-2.48535e-05
0.00959888
-2.44549e-05
-2.40686e-05
0.00960068
-2.0603e-05
0.00959649
-2.02695e-05
-1.99461e-05
0.00959837
-1.64144e-05
0.00959424
-1.61466e-05
-1.5887e-05
0.00959635
-1.22724e-05
0.00959228
-1.20711e-05
-1.18758e-05
0.00959475
-8.16387e-06
0.00959071
-8.02933e-06
-7.89887e-06
0.00959364
-4.07681e-06
0.00958962
-4.00923e-06
-3.94403e-06
0.00959307
0.00958906
-0.000208008
0.00806321
-0.00020036
0.00826514
-0.000191788
0.00845222
-0.000182543
0.00862359
-0.000172854
0.00877877
-0.000162931
0.00891768
-0.000152956
0.00904059
-0.000143081
0.00914806
-0.00013343
0.00924087
-0.000124099
0.00932
-0.000115153
0.00938657
-0.000106637
0.00944174
-9.8572e-05
0.00948675
-9.09612e-05
0.00952281
-8.37938e-05
0.0095511
-7.7048e-05
0.00957274
-7.06939e-05
0.00958877
-6.46971e-05
0.00960015
-5.90201e-05
0.00960775
-5.36249e-05
0.00961231
-4.84745e-05
0.00961451
-4.35338e-05
0.00961493
-3.87703e-05
0.00961405
-3.41543e-05
0.00961229
-2.96599e-05
0.00961001
-2.5264e-05
0.00960748
-2.09466e-05
0.00960493
-1.66902e-05
0.00960255
-1.24798e-05
0.00960049
-8.30238e-06
0.00959886
-4.14591e-06
0.00959773
0.00959715
-0.000203147
0.00617223
0.000192381
-0.000211323
0.00640791
-0.000216948
0.00665039
-0.000220116
0.00689598
-0.000220967
0.00714115
-0.000219681
0.00738261
-0.000216473
0.00761739
-0.00021158
0.00784288
-0.000205255
0.00805689
-0.000197755
0.00825764
-0.000189336
0.00844381
-0.000180243
0.0086145
-0.000170704
0.00876923
-0.000160925
0.0089079
-0.000151086
0.00903075
-0.000141337
0.00913831
-0.000131803
0.00923134
-0.000122578
0.00931078
-0.00011373
0.00937772
-0.000105303
0.00943331
-9.73186e-05
0.00947877
-8.97828e-05
0.00951527
-8.26855e-05
0.009544
-7.60061e-05
0.00956606
-6.9716e-05
0.00958248
-6.37813e-05
0.00959422
-5.81656e-05
0.00960213
-5.28318e-05
0.00960698
-4.77432e-05
0.00960942
-4.28646e-05
0.00961005
-3.81642e-05
0.00960935
-3.36125e-05
0.00960774
-2.91834e-05
0.00960558
-2.48535e-05
0.00960315
-2.0603e-05
0.00960068
-1.64144e-05
0.00959837
-1.22725e-05
0.00959635
-8.16387e-06
0.00959475
-4.07675e-06
0.00959364
0.00959307
-0.000200051
0.00618289
0.000189393
-0.000208161
0.00641602
-0.000213762
0.00665599
-0.000216943
0.00689916
-0.000217841
0.00714205
-0.000216633
0.0073814
-0.000213527
0.00761428
-0.000208755
0.00783811
-0.000202566
0.0080507
-0.000195211
0.00825028
-0.000186942
0.00843554
-0.000177999
0.00860555
-0.000168608
0.00875984
-0.00015897
0.00889827
-0.000149263
0.00902105
-0.000139639
-0.000130219
-0.000121099
-0.000112346
-0.000104006
-9.61011e-05
-8.86388e-05
-8.161e-05
-7.49953e-05
-6.87672e-05
-6.2893e-05
-5.73371e-05
-5.20625e-05
-4.70335e-05
-4.22154e-05
-3.75762e-05
-3.30866e-05
-2.87204e-05
-2.44549e-05
-2.02694e-05
-1.61466e-05
-1.20709e-05
-8.02932e-06
-4.00928e-06
-0.000197027
-0.000205074
-0.00021065
-0.000213844
-0.000214789
-0.000213656
-0.00021065
-0.000205997
-0.000199941
-0.000192729
-0.000184606
-0.000175811
-0.000166563
-0.000157064
0.00202786
0.000186853
0.0020364
0.000183845
0.000180909
0.00201542
0.000178459
0.00202376
0.00017551
0.000172631
0.00200259
0.000170226
0.00201076
0.000167343
0.000164529
0.00198946
0.000162122
0.00199749
0.000159313
0.000156569
0.00197611
0.00015412
0.00198403
0.00015139
0.000148725
0.00196264
0.000146191
0.00197048
0.000143548
0.000140968
0.00194915
0.00013831
0.00195693
0.000135762
0.000133274
0.00193572
0.000130456
0.00194348
0.00012801
0.000125622
0.00192247
0.000122609
0.00193021
0.000120272
0.00011799
0.00190948
0.000114752
0.00191722
0.000112531
0.000110363
0.00189685
0.000106869
0.00190461
0.000104773
0.000102725
0.00188467
9.89496e-05
0.00189246
9.69838e-05
9.50639e-05
0.00187304
9.09842e-05
0.00188087
8.91557e-05
8.737e-05
0.00186203
8.2966e-05
0.00186991
8.12813e-05
7.9636e-05
0.00185174
7.48909e-05
0.00185967
7.3356e-05
7.1857e-05
0.00184224
6.67571e-05
0.00185022
6.53776e-05
6.40304e-05
0.0018336
5.8565e-05
0.00184163
5.7346e-05
5.61556e-05
0.00182589
5.0317e-05
0.00183397
4.92632e-05
4.82342e-05
0.00181917
4.20175e-05
0.0018273
4.1133e-05
4.02692e-05
0.00181348
3.36725e-05
0.00182166
3.29606e-05
3.22655e-05
0.00180888
2.52893e-05
0.00181709
2.47529e-05
2.42291e-05
0.0018054
1.68764e-05
0.00181364
1.65176e-05
1.61673e-05
0.00180307
8.44332e-06
0.00181132
8.26357e-06
8.08804e-06
0.00180189
0.00181016
)
;

boundaryField
{
    inlet
    {
        type            calculated;
        value           nonuniform 0();
    }
    outlet
    {
        type            calculated;
        value           nonuniform 0();
    }
    cylinder
    {
        type            calculated;
        value           nonuniform 0();
    }
    top
    {
        type            symmetryPlane;
        value           uniform 0;
    }
    bottom
    {
        type            symmetryPlane;
        value           uniform 0;
    }
    defaultFaces
    {
        type            empty;
        value           nonuniform 0();
    }
    procBoundary54to53
    {
        type            processor;
        value           nonuniform List<scalar> 
131
(
-0.00179345
-0.00179463
-0.00179699
-0.0018005
-0.00180514
-0.00181087
-0.00181764
-0.00182541
-0.00183411
-0.00184367
-0.00185401
-0.00186507
-0.00187675
-0.00188897
-0.00190162
-0.00191462
-0.00192787
-0.00194127
-0.00195471
-0.00196811
-0.00198135
-0.00199436
-0.00200703
-0.00201927
-0.000195441
-0.00616147
-0.00639973
-0.00664476
-0.00689281
-0.0071403
-0.00738389
-0.0076206
-0.00784777
-0.00806321
-0.00826514
-0.00845222
-0.00862359
-0.00877877
-0.00891768
-0.00904059
-0.00914806
-0.00924087
-0.00932
-0.00938657
-0.00944174
-0.00948675
-0.00952281
-0.0095511
-0.00957274
-0.00958877
-0.00960015
-0.00960775
-0.00961231
-0.00961451
-0.00961493
-0.00961405
-0.00961229
-0.00961001
-0.00960748
-0.00960493
-0.00960255
-0.00960049
-0.00959886
-0.00959773
-0.00959715
-0.00806968
-0.00827279
-0.0084608
-0.00863284
-0.00878846
-0.00892761
-0.00905057
-0.00915793
-0.00925052
-0.00932934
-0.00939551
-0.00945026
-0.00949482
-0.00953042
-0.00955827
-0.00957948
-0.00959513
-0.00960615
-0.00961342
-0.0096177
-0.00961966
-0.00961987
-0.00961881
-0.00961691
-0.0096145
-0.00961187
-0.00960925
-0.00960681
-0.00960471
-0.00960304
-0.00960188
-0.0096013
-0.00616147
-0.000195441
-0.00639973
-0.00664476
-0.00689281
-0.0071403
-0.00738389
-0.0076206
0.000214473
-0.00784777
-0.00201927
-0.00200703
-0.00199436
-0.00198135
-0.00196811
-0.00195471
-0.00194127
-0.00192787
-0.00191462
-0.00190162
-0.00188897
-0.00187675
-0.00186507
-0.00185401
-0.00184367
-0.00183411
-0.00182541
-0.00181764
-0.00181087
-0.00180514
-0.0018005
-0.00179699
-0.00179463
-0.00179345
)
;
    }
    procBoundary54to55
    {
        type            processor;
        value           nonuniform List<scalar> 
131
(
0.00181825
0.0018194
0.0018217
0.00182513
0.00182966
0.00183526
0.00184189
0.00184951
0.00185804
0.00186745
0.00187764
0.00188856
0.00190012
0.00191225
0.00192485
0.00193784
0.00195113
0.00196462
0.00197824
0.00199188
0.00200545
0.00201886
0.00203204
0.000178042
0.00205332
0.00619344
0.00642406
0.00666156
0.00690235
0.00714299
0.00738027
0.00761128
0.00783346
0.00804464
0.00824307
0.00842741
0.00859676
0.00875059
0.00888877
0.00901147
0.00911918
0.00921261
0.00929264
0.00936031
0.00941672
0.00946304
0.00950042
0.00953001
0.00955289
0.00957009
0.00958253
0.00959108
0.00959648
0.00959942
0.00960047
0.00960013
0.00959882
0.00959691
0.00959468
0.00959237
0.00959018
0.00958827
0.00958673
0.00958567
0.00958512
0.00912869
0.00922192
0.00930166
0.00936897
0.00942497
0.00947086
0.00950781
0.00953697
0.00955944
0.00957625
0.00958835
0.00959657
0.0096017
0.00960439
0.00960523
0.00960471
0.00960325
0.00960121
0.00959888
0.00959649
0.00959424
0.00959228
0.00959071
0.00958962
0.00958906
0.00619344
0.000186476
0.00642406
0.00666156
0.00690235
0.00714299
0.00738027
0.00761128
0.00783346
0.00804464
0.00824307
0.00842741
0.00859676
0.00875059
0.00888877
-0.000147488
0.00901147
0.00204488
0.00203204
0.00201886
0.00200545
0.00199188
0.00197824
0.00196462
0.00195113
0.00193784
0.00192485
0.00191225
0.00190012
0.00188856
0.00187764
0.00186745
0.00185804
0.00184951
0.00184189
0.00183526
0.00182966
0.00182513
0.0018217
0.0018194
0.00181825
)
;
    }
}


// ************************************************************************* //
