/*--------------------------------*- C++ -*----------------------------------*\
  =========                 |
  \\      /  F ield         | OpenFOAM: The Open Source CFD Toolbox
   \\    /   O peration     | Website:  https://openfoam.org
    \\  /    A nd           | Version:  7
     \\/     M anipulation  |
\*---------------------------------------------------------------------------*/
FoamFile
{
    version     2.0;
    format      ascii;
    class       volVectorField;
    location    "25";
    object      U;
}
// * * * * * * * * * * * * * * * * * * * * * * * * * * * * * * * * * * * * * //

dimensions      [0 1 -1 0 0 0 0];

internalField   nonuniform List<vector> 
392
(
(0.557729 -0.000803736 1.26546e-24)
(0.561637 -0.000789275 2.50091e-23)
(0.565478 -0.000775173 -2.49628e-23)
(0.558415 -0.00240968 -1.07052e-22)
(0.562312 -0.00236629 6.50499e-23)
(0.566143 -0.00232396 -1.49775e-22)
(0.559784 -0.00400891 -1.33192e-22)
(0.56366 -0.00393675 -2.64381e-24)
(0.567469 -0.00386636 2.06413e-22)
(0.56183 -0.00559701 5.1034e-22)
(0.565673 -0.00549634 -5.32432e-23)
(0.569452 -0.00539815 -1.02089e-22)
(0.564543 -0.00716961 -2.04387e-22)
(0.568344 -0.00704081 -1.19545e-22)
(0.572081 -0.00691516 2.15658e-22)
(0.567912 -0.00872246 8.5921e-23)
(0.571661 -0.00856598 -1.90679e-22)
(0.575346 -0.00841334 2.99494e-22)
(0.571921 -0.0102514 -5.15754e-23)
(0.575608 -0.0100678 -1.74065e-22)
(0.579233 -0.00988873 -2.21255e-22)
(0.576554 -0.0117525 -7.33992e-24)
(0.58017 -0.0115424 3.04559e-22)
(0.583725 -0.0113375 -4.06056e-22)
(0.58179 -0.0132218 -2.46752e-22)
(0.585326 -0.012986 3.4157e-22)
(0.588802 -0.012756 1.31251e-22)
(0.587607 -0.0146557 1.38795e-22)
(0.591054 -0.014395 8.20933e-23)
(0.594444 -0.0141408 -4.05252e-22)
(0.597779 -0.0138927 -1.36948e-22)
(0.59398 -0.0160508 -3.33648e-22)
(0.59733 -0.0157662 9.93921e-23)
(0.600626 -0.0154884 -3.04812e-22)
(0.603869 -0.0152175 1.35731e-22)
(0.604129 -0.0170962 -8.0097e-23)
(0.607324 -0.016796 4.3463e-22)
(0.610467 -0.0165031 2.69786e-22)
(0.611421 -0.0183823 -1.10417e-21)
(0.614509 -0.0180606 5.62352e-22)
(0.617548 -0.0177467 -2.27223e-22)
(0.619177 -0.0196218 1.11996e-21)
(0.622152 -0.0192796 -8.33021e-23)
(0.625081 -0.0189458 -2.91154e-22)
(0.627367 -0.0208123 7.0872e-22)
(0.630224 -0.0204507 -4.22167e-22)
(0.633038 -0.020098 1.41971e-22)
(0.635958 -0.0219516 1.96349e-22)
(0.638693 -0.0215718 -9.02884e-23)
(0.641387 -0.0212013 -6.95336e-22)
(0.644916 -0.023038 6.87608e-23)
(0.647527 -0.0226411 1.70848e-22)
(0.650098 -0.0222538 -1.02458e-22)
(0.654208 -0.0240698 1.59983e-21)
(0.656691 -0.023657 -1.34732e-21)
(0.659138 -0.0232542 8.6299e-22)
(0.6638 -0.0250459 1.85855e-22)
(0.666153 -0.0246183 -5.92213e-22)
(0.668472 -0.0242011 -3.85379e-22)
(0.673657 -0.0259651 2.43658e-22)
(0.675879 -0.0255239 1.72265e-22)
(0.67807 -0.0250934 -1.13114e-21)
(0.683744 -0.0268264 5.05944e-22)
(0.685834 -0.0263729 3.2937e-23)
(0.687896 -0.0259303 -6.62579e-23)
(0.694026 -0.0276301 -1.27729e-21)
(0.695985 -0.0271654 2.38543e-22)
(0.697918 -0.0267119 -6.84564e-22)
(0.70447 -0.0283793 5.18953e-22)
(0.706298 -0.0279043 4.43135e-22)
(0.708103 -0.0274408 -1.78933e-21)
(0.715041 -0.029073 -2.669e-12)
(0.71674 -0.0285887 2.66595e-12)
(0.718418 -0.0281161 -1.24256e-21)
(0.73716 -0.0297685 3.57739e-12)
(0.738603 -0.0292824 0)
(0.740031 -0.028808 0)
(0.768991 -0.0310956 -1.65173e-28)
(0.77007 -0.0305975 0)
(0.77114 -0.0301113 0)
(0.80159 -0.0320518 -1.80568e-28)
(0.802311 -0.0315476 0)
(0.80303 -0.0310552 0)
(0.83444 -0.0326328 3.83633e-12)
(0.834818 -0.0321287 0)
(0.835199 -0.0316363 0)
(0.867052 -0.0328547 3.91271e-12)
(0.867109 -0.0323564 0)
(0.867173 -0.0318697 0)
(0.898977 -0.0327451 3.99384e-12)
(0.898739 -0.0322577 0)
(0.898514 -0.0317816 0)
(0.929814 -0.032336 4.07912e-12)
(0.929313 -0.0318639 0)
(0.928829 -0.0314026 0)
(0.959217 -0.0316638 4.16801e-12)
(0.958489 -0.0312104 0)
(0.957779 -0.0307673 0)
(0.986904 -0.0307672 8.51977e-12)
(0.985984 -0.0303351 0)
(0.985085 -0.0299127 0)
(1.01265 -0.0296865 4.35409e-12)
(1.01158 -0.0292773 0)
(1.01053 -0.0288773 0)
(1.03631 -0.0284615 0)
(1.03512 -0.0280762 0)
(1.03395 -0.0276994 0)
(1.05779 -0.0271306 0)
(1.05651 -0.0267694 0)
(1.05526 -0.026416 0)
(1.07704 -0.0257295 5.1682e-29)
(1.07572 -0.0253918 2.64605e-28)
(1.07441 -0.0250615 0)
(1.09409 -0.0242903 4.74028e-12)
(1.09275 -0.0239753 -2.64605e-28)
(1.09142 -0.0236672 0)
(1.10901 -0.022841 4.83585e-12)
(1.10766 -0.0225475 9.80618e-30)
(1.10633 -0.0222603 -9.43123e-30)
(1.12189 -0.021405 0)
(1.12056 -0.0211315 -9.80618e-30)
(1.11925 -0.0208638 9.43123e-30)
(1.13286 -0.0200012 -4.67707e-12)
(1.13157 -0.019746 0)
(1.1303 -0.0194963 0)
(1.14208 -0.0186437 9.78818e-12)
(1.14083 -0.0184053 0)
(1.1396 -0.018172 0)
(1.1497 -0.0173426 1.03951e-11)
(1.14851 -0.0171194 0)
(1.14734 -0.0169011 -2.64986e-28)
(1.1559 -0.016104 1.05616e-11)
(1.15477 -0.0158948 0)
(1.15366 -0.0156901 2.64986e-28)
(1.16085 -0.0149307 5.36057e-12)
(1.15979 -0.0147343 0)
(1.15873 -0.0145421 0)
(1.16472 -0.0138231 8.00209e-29)
(1.16372 -0.0136384 0)
(1.16272 -0.0134577 0)
(1.16767 -0.0127791 0)
(1.16672 -0.0126053 0)
(1.16578 -0.0124353 0)
(1.16983 -0.0117951 2.32903e-28)
(1.16894 -0.0116317 0)
(1.16805 -0.0114718 0)
(1.17136 -0.0108664 5.64122e-12)
(1.17051 -0.010713 3.21413e-28)
(1.16967 -0.0105628 0)
(1.17235 -0.00998779 5.70128e-12)
(1.17155 -0.00984405 -3.21413e-28)
(1.17076 -0.00970334 0)
(1.17293 -0.00915363 5.75718e-12)
(1.17217 -0.00901943 0)
(1.17142 -0.00888802 0)
(1.17319 -0.00835831 5.80894e-12)
(1.17246 -0.00823359 0)
(1.17174 -0.00811143 0)
(1.1732 -0.00759643 2.44575e-28)
(1.1725 -0.00748121 0)
(1.17181 -0.00736832 0)
(1.17303 -0.00686297 5.90003e-12)
(1.17236 -0.00675731 0)
(1.17169 -0.00665376 0)
(1.17274 -0.00615332 5.9394e-12)
(1.17209 -0.00605732 -3.38111e-28)
(1.17144 -0.0059632 0)
(1.17238 -0.0054634 0)
(1.17174 -0.00537717 3.38111e-28)
(1.17111 -0.00529259 0)
(1.17197 -0.00478962 6.00598e-12)
(1.17135 -0.00471325 0)
(1.17074 -0.00463833 0)
(1.17157 -0.00412887 6.03325e-12)
(1.17095 -0.00406247 0)
(1.17035 -0.0039973 0)
(1.17118 -0.00347847 0)
(1.17057 -0.00342214 0)
(1.16998 -0.00336683 0)
(1.17083 -0.00283618 6.07592e-12)
(1.17023 -0.00278998 0)
(1.16964 -0.00274462 0)
(1.17053 -0.00220004 6.09137e-12)
(1.16994 -0.00216405 0)
(1.16936 -0.00212869 0)
(1.1703 -0.00156842 6.10294e-12)
(1.16971 -0.00154267 0)
(1.16913 -0.00151739 0)
(1.17014 -0.000939875 1.17638e-11)
(1.16955 -0.000924414 -3.22516e-28)
(1.16898 -0.000909227 3.11459e-28)
(1.17006 -0.000313103 -5.71384e-12)
(1.16947 -0.000307947 3.2598e-28)
(1.1689 -0.000302882 -3.14804e-28)
(0.93033 0.0328191 0)
(0.959964 0.0321276 0)
(0.987844 0.0312091 0)
(1.01375 0.0301048 0)
(1.03753 0.0288553 4.31445e-12)
(1.05908 0.0274997 -4.31445e-12)
(1.07839 0.0260744 4.64362e-12)
(1.09546 0.0246119 4.74022e-12)
(1.11038 0.0231407 -5.1062e-29)
(1.12323 0.0216843 5.1062e-29)
(1.13417 0.0202617 4.85486e-12)
(1.14333 0.018887 -4.85486e-12)
(1.1509 0.0175703 -5.019e-12)
(1.15704 0.0163174 5.019e-12)
(1.16193 0.0151312 0)
(1.16574 0.0140116 0)
(1.16863 0.0129563 0)
(1.17074 0.0119617 0)
(1.17221 0.0110229 5.42902e-12)
(1.17316 0.0101343 -5.42902e-12)
(1.17371 0.00929041 0)
(1.17393 0.00848538 0)
(1.17391 0.00771378 0)
(1.17372 0.00697053 0)
(1.1734 0.00625102 -1.16125e-28)
(1.17302 0.00555114 1.16125e-28)
(1.17261 0.00486729 0)
(1.17219 0.00419638 0)
(1.17179 0.00353574 -1.1823e-28)
(1.17143 0.00288312 1.1823e-28)
(1.17113 0.00223661 -8.96575e-29)
(1.17089 0.00159457 4.55338e-28)
(1.17073 0.000955579 -1.16941e-11)
(1.17065 0.00031834 1.18197e-11)
(0.73716 0.0297688 3.57733e-12)
(0.768991 0.0310959 0)
(0.801589 0.0320521 1.80565e-28)
(0.834439 0.0326331 -7.56365e-29)
(0.867051 0.0328549 0)
(0.898976 0.0327452 0)
(0.929813 0.0323361 0)
(0.959217 0.0316638 0)
(0.986903 0.0307672 0)
(1.01265 0.0296865 0)
(1.03631 0.0284615 4.14854e-12)
(1.05779 0.0271306 -4.14854e-12)
(1.07704 0.0257294 -4.64362e-12)
(1.09409 0.0242902 -4.74022e-12)
(1.10901 0.0228409 0)
(1.12189 0.0214049 0)
(1.13286 0.0200011 0)
(1.14208 0.0186436 -2.13442e-28)
(1.1497 0.0173424 -9.67587e-12)
(1.1559 0.0161038 9.67587e-12)
(1.16085 0.0149306 0)
(1.16472 0.013823 0)
(1.16767 0.012779 0)
(1.16983 0.011795 0)
(1.17136 0.0108663 1.04816e-11)
(1.17235 0.00998769 -1.04816e-11)
(1.17293 0.00915354 0)
(1.17319 0.00835822 0)
(1.1732 0.00759635 0)
(1.17303 0.00686289 0)
(1.17274 0.00615326 9.22368e-29)
(1.17238 0.00546334 -9.22368e-29)
(1.17197 0.00478957 0)
(1.17157 0.00412882 0)
(1.17118 0.00347843 9.39457e-29)
(1.17083 0.00283614 -9.39457e-29)
(1.17053 0.00220002 -5.94544e-29)
(1.1703 0.0015684 -3.06226e-28)
(1.17014 0.000939864 -5.65309e-12)
(1.17006 0.0003131 5.71381e-12)
(0.738603 0.0292827 0)
(0.770069 0.0305978 0)
(0.80231 0.0315478 0)
(0.834817 0.0321288 0)
(0.867108 0.0323565 0)
(0.898739 0.0322578 0)
(0.929313 0.031864 0)
(0.958488 0.0312104 0)
(0.985984 0.0303351 8.62417e-30)
(1.01158 0.0292773 -8.62417e-30)
(1.03512 0.0280761 0)
(1.05651 0.0267693 0)
(1.07572 0.0253917 0)
(1.09275 0.0239752 0)
(1.10766 0.0225473 -9.80606e-30)
(1.12056 0.0211313 9.80606e-30)
(1.13157 0.0197459 0)
(1.14083 0.0184051 0)
(1.14851 0.0171193 -9.32199e-12)
(1.15477 0.0158946 9.32199e-12)
(1.15979 0.0147341 0)
(1.16372 0.0136383 0)
(1.16672 0.0126052 0)
(1.16894 0.0116316 0)
(1.17051 0.0107129 1.01129e-11)
(1.17155 0.00984394 -1.01129e-11)
(1.17217 0.00901932 0)
(1.17246 0.00823349 0)
(1.1725 0.00748112 0)
(1.17236 0.00675723 0)
(1.17209 0.00605725 0)
(1.17174 0.0053771 0)
(1.17135 0.00471319 0)
(1.17095 0.00406242 0)
(1.17057 0.00342209 -3.44504e-28)
(1.17023 0.00278994 3.44504e-28)
(1.16994 0.00216402 0)
(1.16971 0.00154265 0)
(1.16955 0.000924402 0)
(1.16947 0.000307943 0)
(0.74003 0.0288082 0)
(0.771139 0.0301115 0)
(0.803029 0.0310554 0)
(0.835198 0.0316364 0)
(0.867173 0.0318698 0)
(0.898513 0.0317816 0)
(0.928828 0.0314026 0)
(0.957779 0.0307672 0)
(0.985085 0.0299126 0)
(1.01053 0.0288771 0)
(0.71504 0.0290734 -2.66896e-12)
(0.716739 0.0285891 2.66591e-12)
(0.718418 0.0281164 4.21621e-23)
(0.704469 0.0283797 -4.76908e-22)
(0.706297 0.0279047 -4.67586e-22)
(0.708102 0.0274411 1.76478e-21)
(0.694026 0.0276306 1.32269e-21)
(0.695984 0.0271658 -2.11796e-22)
(0.697918 0.0267122 7.89151e-22)
(0.683743 0.0268269 -6.54425e-22)
(0.685834 0.0263733 -1.29857e-22)
(0.687896 0.0259307 5.09295e-23)
(0.673657 0.0259656 -2.7314e-22)
(0.675878 0.0255244 3.23737e-23)
(0.678069 0.0250938 1.0145e-21)
(0.6638 0.0250464 1.03779e-21)
(0.666153 0.0246188 -7.31495e-22)
(0.668472 0.0242015 5.07182e-22)
(0.654208 0.0240704 -1.61622e-21)
(0.656691 0.0236575 1.32591e-21)
(0.659137 0.0232546 -1.18005e-21)
(0.644916 0.0230385 -1.3183e-21)
(0.647526 0.0226416 9.15431e-22)
(0.650098 0.0222542 2.11857e-22)
(0.635957 0.0219522 9.94504e-22)
(0.638693 0.0215723 -9.36525e-22)
(0.641387 0.0212017 7.61965e-22)
(0.627367 0.0208128 -4.56817e-22)
(0.630224 0.0204512 6.40055e-22)
(0.633037 0.0200984 1.51122e-22)
(0.619177 0.0196224 -1.50088e-21)
(0.622152 0.0192801 -5.32922e-23)
(0.62508 0.0189462 -1.35712e-22)
(0.611421 0.0183829 1.23612e-21)
(0.614508 0.0180611 -7.20558e-22)
(0.617547 0.0177472 4.17582e-22)
(0.604128 0.0170968 2.26769e-23)
(0.607323 0.0167965 -4.47957e-22)
(0.610467 0.0165036 -3.76307e-22)
(0.593979 0.0160515 3.6633e-22)
(0.59733 0.0157668 2.42882e-22)
(0.600626 0.015489 3.72325e-22)
(0.603869 0.015218 -2.95887e-22)
(0.587607 0.0146564 -3.17806e-22)
(0.591054 0.0143956 -2.98408e-22)
(0.594444 0.0141413 3.31765e-22)
(0.597778 0.0138931 -8.14493e-23)
(0.58179 0.0132224 2.78662e-22)
(0.585326 0.0129866 -2.39894e-22)
(0.588802 0.0127566 1.71718e-23)
(0.576554 0.0117531 1.24501e-22)
(0.58017 0.011543 -4.36252e-22)
(0.583725 0.0113381 3.91211e-22)
(0.571921 0.0102521 8.74331e-23)
(0.575608 0.0100684 2.29217e-22)
(0.579233 0.00988929 2.57634e-22)
(0.567912 0.00872316 -2.00429e-22)
(0.571661 0.00856662 1.75676e-22)
(0.575346 0.00841391 -2.86796e-22)
(0.564543 0.00717031 1.80431e-22)
(0.568344 0.00704145 1.80569e-22)
(0.572081 0.00691573 -3.55544e-22)
(0.561829 0.00559771 -4.49379e-22)
(0.565673 0.00549698 -3.12698e-23)
(0.569452 0.00539872 1.61148e-22)
(0.559784 0.00400962 1.88585e-22)
(0.56366 0.0039374 -4.1388e-24)
(0.567469 0.00386694 -1.55242e-22)
(0.558415 0.00241039 1.015e-22)
(0.562312 0.00236693 -3.76905e-23)
(0.566143 0.00232455 1.13137e-22)
(0.557729 0.000804446 -1.23731e-23)
(0.561637 0.000789924 -2.85804e-23)
(0.565478 0.000775754 1.13499e-23)
)
;

boundaryField
{
    inlet
    {
        type            uniformFixedValue;
        uniformValue    constant (1 0 0);
        value           nonuniform 0();
    }
    outlet
    {
        type            pressureInletOutletVelocity;
        value           nonuniform 0();
    }
    cylinder
    {
        type            fixedValue;
        value           nonuniform 0();
    }
    top
    {
        type            symmetryPlane;
    }
    bottom
    {
        type            symmetryPlane;
    }
    defaultFaces
    {
        type            empty;
    }
    procBoundary51to50
    {
        type            processor;
        value           nonuniform List<vector> 
133
(
(0.553753 -0.000818564 3.87541e-23)
(0.55445 -0.00245416 -1.38397e-22)
(0.555841 -0.00408289 -1.42496e-22)
(0.557919 -0.00570021 1.55647e-22)
(0.560675 -0.00730166 -8.5044e-23)
(0.564098 -0.00888288 8.44604e-23)
(0.568171 -0.0104396 1.70717e-22)
(0.572877 -0.0119678 -4.86732e-22)
(0.578195 -0.0134634 1.08708e-22)
(0.584102 -0.0149229 -2.0727e-22)
(0.590572 -0.0163426 -1.18327e-22)
(0.600881 -0.0174039 6.89975e-22)
(0.600881 -0.0174039 6.89975e-22)
(0.608283 -0.0187121 -1.86695e-21)
(0.616154 -0.0199725 8.32662e-22)
(0.624464 -0.0211828 -2.29937e-22)
(0.633179 -0.0223408 2.63384e-22)
(0.642265 -0.0234447 6.81384e-22)
(0.651688 -0.0244929 2.90663e-22)
(0.661413 -0.0254841 -1.79019e-23)
(0.671404 -0.0264171 1.92581e-22)
(0.681625 -0.0272911 5.64639e-23)
(0.692042 -0.0281063 -3.27704e-22)
(0.702619 -0.0288659 5.195e-23)
(0.713322 -0.0295692 -8.43659e-22)
(0.735702 -0.0302665 -3.57736e-12)
(0.735702 -0.0302665 -3.57736e-12)
(0.767903 -0.0316058 -1.65173e-28)
(0.800865 -0.0325682 -1.80568e-28)
(0.834064 -0.0331491 -3.83633e-12)
(0.867003 -0.0333648 -3.91271e-12)
(0.899227 -0.0332438 -3.99384e-12)
(0.930331 -0.032819 -4.07912e-12)
(0.959965 -0.0321275 -4.16801e-12)
(0.987844 -0.0312091 -8.51977e-12)
(1.01375 -0.0301048 -4.35409e-12)
(1.03753 -0.0288553 0)
(1.05908 -0.0274997 0)
(1.07839 -0.0260744 -6.27874e-29)
(1.09546 -0.024612 -4.74028e-12)
(1.11038 -0.0231408 -4.83585e-12)
(1.12323 -0.0216844 -5.10626e-29)
(1.13417 -0.0202618 -4.85491e-12)
(1.14333 -0.0188871 -2.56195e-13)
(1.1509 -0.0175704 -1.03951e-11)
(1.15704 -0.0163175 -1.05616e-11)
(1.16193 -0.0151313 -5.36057e-12)
(1.16574 -0.0140117 8.00209e-29)
(1.16863 -0.0129564 0)
(1.17074 -0.0119618 2.32903e-28)
(1.17221 -0.0110229 -5.64122e-12)
(1.17316 -0.0101344 -5.70128e-12)
(1.17371 -0.00929048 -5.75718e-12)
(1.17393 -0.00848545 -5.80894e-12)
(1.17391 -0.00771385 2.44575e-28)
(1.17372 -0.0069706 -5.90003e-12)
(1.1734 -0.00625108 -5.9394e-12)
(1.17302 -0.00555119 -1.16125e-28)
(1.17261 -0.00486734 -6.00598e-12)
(1.17219 -0.00419641 -6.03325e-12)
(1.17179 -0.00353577 0)
(1.17143 -0.00288315 -6.07592e-12)
(1.17113 -0.00223663 -6.09137e-12)
(1.17089 -0.00159459 -6.10294e-12)
(1.17073 -0.000955588 -2.63555e-13)
(1.17065 -0.000318343 -5.9099e-12)
(0.930864 0.0333133 0)
(0.960731 0.0326019 0)
(0.988806 0.0316609 0)
(1.01487 0.0305323 0)
(1.03876 0.0292576 0)
(1.0604 0.0278767 0)
(1.07976 0.0264266 0)
(1.09685 0.0249403 0)
(1.11176 0.0234466 0)
(1.1246 0.0219694 0)
(1.13549 0.0205275 5.03704e-12)
(1.14461 0.0191354 -5.03704e-12)
(1.15212 0.0178027 0)
(1.1582 0.0165353 0)
(1.16302 0.0153358 0)
(1.16677 0.0142039 0)
(1.1696 0.0131371 0)
(1.17165 0.0121317 0)
(1.17307 0.0111824 9.41363e-29)
(1.17398 0.0102837 -9.41363e-29)
(1.17449 0.00942977 0)
(1.17467 0.0086148 0)
(1.17463 0.00783326 0)
(1.17441 0.00708002 0)
(1.17408 0.00635042 0)
(1.17368 0.00564037 0)
(1.17325 0.00494626 0)
(1.17282 0.00426499 0)
(1.17241 0.00359392 1.00483e-28)
(1.17205 0.00293081 -1.00483e-28)
(1.17174 0.00227375 -1.00979e-28)
(1.1715 0.00162113 1.00979e-28)
(1.17134 0.000971523 -6.04446e-12)
(1.17126 0.000323656 6.10939e-12)
(0.735701 0.0302669 -3.5773e-12)
(0.735701 0.0302669 -3.5773e-12)
(0.767903 0.0316062 0)
(0.800865 0.0325685 1.80565e-28)
(0.834063 0.0331493 -7.56365e-29)
(0.867003 0.033365 0)
(0.899227 0.033244 0)
(0.899227 0.033244 0)
(0.713322 0.0295697 8.44861e-22)
(0.702619 0.0288664 3.9741e-24)
(0.692041 0.0281068 2.7074e-22)
(0.681625 0.0272917 -8.87513e-23)
(0.671403 0.0264177 -1.8303e-22)
(0.661413 0.0254846 4.95536e-23)
(0.651688 0.0244935 -5.31528e-22)
(0.642265 0.0234453 -1.78049e-21)
(0.633179 0.0223414 1.24856e-21)
(0.624464 0.0211834 2.35731e-22)
(0.616154 0.0199731 -9.98944e-22)
(0.608282 0.0187127 6.3116e-22)
(0.600881 0.0174046 -6.769e-22)
(0.600881 0.0174046 -6.769e-22)
(0.590572 0.0163433 2.15239e-22)
(0.584102 0.0149236 -1.57717e-22)
(0.578195 0.0134642 1.2629e-22)
(0.572877 0.0119685 3.88388e-22)
(0.568171 0.0104404 4.82786e-22)
(0.564098 0.00888363 -1.46706e-22)
(0.560675 0.00730242 -4.38859e-23)
(0.557919 0.00570097 3.2568e-24)
(0.55584 0.00408366 7.78832e-23)
(0.55445 0.00245493 1.87762e-22)
(0.553753 0.000819331 -4.2636e-23)
)
;
    }
    procBoundary51to52
    {
        type            processor;
        value           nonuniform List<vector> 
133
(
(0.569255 -0.00076142 1.24018e-23)
(0.569909 -0.00228269 -5.87245e-23)
(0.571215 -0.00379771 -4.35245e-23)
(0.573166 -0.00530237 9.18743e-23)
(0.575755 -0.00679261 2.96287e-22)
(0.57897 -0.00826445 -6.01883e-23)
(0.582797 -0.00971403 -7.12634e-22)
(0.587221 -0.0111376 8.83349e-23)
(0.592222 -0.0125316 1.24766e-22)
(0.592222 -0.0125316 1.24766e-22)
(0.601059 -0.0136506 -3.28997e-22)
(0.607059 -0.0149532 5.79745e-22)
(0.613561 -0.0162174 7.24372e-22)
(0.620538 -0.0174405 -3.00628e-22)
(0.627963 -0.0186201 9.29105e-22)
(0.635808 -0.0197538 1.87311e-22)
(0.644041 -0.0208397 9.55537e-22)
(0.652631 -0.021876 -1.24388e-21)
(0.661548 -0.0228611 1.54207e-22)
(0.670759 -0.0237939 -5.15739e-22)
(0.68023 -0.0246734 -1.45767e-21)
(0.689931 -0.0254985 3.43644e-22)
(0.699827 -0.0262693 -9.11709e-22)
(0.709886 -0.0269885 -6.68862e-22)
(0.720078 -0.0276549 -1.15488e-22)
(0.720078 -0.0276549 -1.15488e-22)
(0.741444 -0.0283449 0)
(0.772201 -0.0296367 0)
(0.803745 -0.0305746 0)
(0.835583 -0.0311555 0)
(0.867245 -0.0313944 0)
(0.8983 -0.0313166 0)
(0.928359 -0.030952 -3.35413e-12)
(0.957087 -0.0303343 3.35413e-12)
(0.984206 -0.0294998 0)
(1.0095 -0.0284862 0)
(1.03281 -0.027331 0)
(1.05403 -0.0260704 0)
(1.07313 -0.0247385 0)
(1.09011 -0.0233658 0)
(1.10503 -0.0219794 1.55897e-28)
(1.11796 -0.020602 -1.55897e-28)
(1.12904 -0.0192521 6.98053e-29)
(1.13839 -0.017944 -6.98053e-29)
(1.14618 -0.0166878 9.6815e-29)
(1.15255 -0.01549 -9.6815e-29)
(1.15769 -0.0143542 0)
(1.16174 -0.0132811 0)
(1.16485 -0.0122692 0)
(1.16718 -0.0113156 0)
(1.16885 -0.0104161 0)
(1.16998 -0.00956579 0)
(1.17068 -0.00875953 0)
(1.17103 -0.00799196 0)
(1.17113 -0.00725788 1.09441e-28)
(1.17104 -0.00655242 -1.09441e-28)
(1.17081 -0.00587106 0)
(1.17049 -0.00520976 0)
(1.17013 -0.00456494 0)
(1.16976 -0.00393346 0)
(1.16939 -0.00331263 0)
(1.16906 -0.00270015 0)
(1.16878 -0.00209404 0)
(1.16856 -0.00149259 0)
(1.16841 -0.000894333 0)
(1.16833 -0.000297915 0)
(1.03395 0.0276993 3.82951e-12)
(1.05526 0.0264158 -3.82951e-12)
(1.07441 0.0250613 0)
(1.09142 0.023667 0)
(1.10633 0.0222601 9.43109e-30)
(1.11925 0.0208636 -9.43109e-30)
(1.1303 0.0194961 0)
(1.1396 0.0181718 0)
(1.14734 0.016901 -4.48806e-12)
(1.15366 0.0156899 4.48806e-12)
(1.15873 0.0145419 0)
(1.16272 0.0134575 0)
(1.16578 0.0124352 -3.0259e-28)
(1.16805 0.0114717 3.0259e-28)
(1.16967 0.0105627 9.75163e-12)
(1.17076 0.00970322 -9.75163e-12)
(1.17142 0.0088879 0)
(1.17174 0.00811132 0)
(1.17181 0.00736822 0)
(1.17169 0.00665366 0)
(1.17144 0.00596312 5.13405e-12)
(1.17111 0.00529251 -5.13405e-12)
(1.17074 0.00463826 0)
(1.17035 0.00399725 0)
(1.16998 0.00336678 0)
(1.16964 0.00274458 0)
(1.16936 0.00212866 -3.34425e-28)
(1.16913 0.00151736 3.34425e-28)
(1.16898 0.000909213 3.11457e-28)
(1.1689 0.000302878 -3.14802e-28)
(0.741443 0.0283451 0)
(0.720077 0.0276551 1.29648e-21)
(0.7722 0.0296368 0)
(0.803745 0.0305746 0)
(0.835582 0.0311556 0)
(0.867245 0.0313944 0)
(0.898299 0.0313165 0)
(0.928358 0.0309519 0)
(0.957087 0.0303342 0)
(0.984206 0.0294997 0)
(1.03395 0.0276993 3.82951e-12)
(1.0095 0.028486 0)
(0.720077 0.0276551 1.29648e-21)
(0.709886 0.0269887 7.26057e-22)
(0.699826 0.0262696 8.76998e-22)
(0.68993 0.0254988 -2.96318e-22)
(0.68023 0.0246737 1.50903e-21)
(0.670758 0.0237943 4.0587e-22)
(0.661548 0.0228614 -3.12322e-22)
(0.652631 0.0218763 3.33852e-22)
(0.64404 0.02084 -7.0739e-22)
(0.635807 0.0197542 -1.8245e-22)
(0.627963 0.0186204 -1.05421e-21)
(0.620538 0.0174409 1.83869e-22)
(0.61356 0.0162177 -7.60602e-22)
(0.607059 0.0149536 3.65474e-23)
(0.601058 0.013651 2.00559e-22)
(0.592221 0.0125321 -1.53253e-22)
(0.592221 0.0125321 -1.53253e-22)
(0.587221 0.0111381 -5.73315e-23)
(0.582797 0.00971453 7.53469e-22)
(0.57897 0.00826495 -7.09719e-23)
(0.575755 0.00679311 -3.00221e-22)
(0.573166 0.00530288 3.30578e-23)
(0.571215 0.00379822 -2.8107e-23)
(0.569909 0.0022832 1.10321e-22)
(0.569255 0.00076193 6.04151e-24)
)
;
    }
}


// ************************************************************************* //
