/*--------------------------------*- C++ -*----------------------------------*\
  =========                 |
  \\      /  F ield         | OpenFOAM: The Open Source CFD Toolbox
   \\    /   O peration     | Website:  https://openfoam.org
    \\  /    A nd           | Version:  7
     \\/     M anipulation  |
\*---------------------------------------------------------------------------*/
FoamFile
{
    version     2.0;
    format      ascii;
    class       volVectorField;
    location    "15";
    object      U;
}
// * * * * * * * * * * * * * * * * * * * * * * * * * * * * * * * * * * * * * //

dimensions      [0 1 -1 0 0 0 0];

internalField   nonuniform List<vector> 
8820
(
(-0.000627531 0.000767531 0)
(-0.00356299 0.00190541 0)
(-0.00925341 0.00272462 0)
(-0.0164967 0.00329247 0)
(-0.0246933 0.00365691 -7.56894e-21)
(-0.0334446 0.00385694 -7.14579e-21)
(-0.0424108 0.00392566 -1.34544e-20)
(-0.0513247 0.00389047 0)
(-0.0599835 0.00377403 2.38444e-20)
(-0.0682346 0.00359524 -1.12059e-20)
(-0.0759662 0.00337054 1.13803e-23)
(-0.0831022 0.00311522 1.97855e-20)
(-0.0896003 0.00284502 -9.27159e-21)
(-0.0954536 0.00257777 0)
(-0.100695 0.00233486 8.15149e-21)
(-0.105406 0.00214233 7.63563e-21)
(-0.109733 0.00203083 0)
(-0.113916 0.00203367 2.67496e-20)
(-0.118179 0.0021838 0)
(-0.122494 0.00251219 0)
(-0.127828 0.00303077 0)
(-0.000733317 0.00228949 0)
(-0.00380125 0.00568594 -3.57794e-20)
(-0.00954513 0.00813336 -3.39005e-20)
(-0.0167881 0.00983137 0)
(-0.0249442 0.0109223 0)
(-0.0336238 0.0115222 1.42743e-20)
(-0.0424943 0.0117296 1.34544e-20)
(-0.0512937 0.0116261 -2.53637e-20)
(-0.0598225 0.0112791 2.38537e-20)
(-0.0679299 0.0107447 9.2029e-24)
(-0.0755043 0.0100716 0)
(-0.082468 0.00930471 -1.97761e-20)
(-0.0887749 0.00849034 0)
(-0.094412 0.00768075 0)
(-0.0994041 0.00693904 0)
(-0.103821 0.00634261 1.52738e-20)
(-0.107797 0.00598352 0)
(-0.111562 0.00596345 -2.67494e-20)
(-0.115337 0.00638502 2.50262e-20)
(-0.11908 0.00734698 -4.68179e-20)
(-0.123764 0.00889039 2.23461e-20)
(-0.000941651 0.00376987 3.56854e-20)
(-0.004271 0.00937008 3.57794e-20)
(-0.0101207 0.013413 1.0181e-19)
(-0.0173632 0.0162232 0)
(-0.0254389 0.018033 6.06552e-20)
(-0.0339761 0.0190325 0)
(-0.0426559 0.019383 2.69625e-20)
(-0.0512267 0.0192184 -2.53538e-20)
(-0.0594958 0.0186492 4.77779e-20)
(-0.0673161 0.017767 0)
(-0.0745769 0.0166505 0)
(-0.0811976 0.0153721 3.96044e-20)
(-0.0871254 0.0140055 2.40234e-23)
(-0.0923359 0.0126338 -1.39304e-19)
(-0.0968373 0.0113583 -8.90871e-24)
(-0.100678 0.0103054 6.11058e-20)
(-0.103969 0.00962841 0)
(-0.106919 0.00950191 -5.34931e-20)
(-0.109739 0.0101092 1.00037e-19)
(-0.112362 0.0116346 0)
(-0.115762 0.0141658 -4.48882e-20)
(-0.0012462 0.00518259 -7.14113e-20)
(-0.00495894 0.0128969 0)
(-0.0109647 0.0184812 -1.01945e-19)
(-0.0182067 0.0223734 -3.21022e-20)
(-0.0261634 0.0248889 1.19441e-22)
(-0.0344886 0.0262865 -1.14638e-19)
(-0.042884 0.0267867 1.61961e-19)
(-0.0511128 0.0265727 6.4876e-23)
(-0.0589928 0.0257953 -9.55583e-20)
(-0.0663831 0.0245788 -8.99692e-20)
(-0.0731746 0.0230291 8.4512e-20)
(-0.0792838 0.0212419 -7.93272e-20)
(-0.0846493 0.0193134 1.48777e-19)
(-0.0892316 0.0173519 1.39428e-19)
(-0.0930166 0.0154909 -6.52824e-20)
(-0.0960227 0.0139 7.77609e-24)
(-0.0983244 0.0127926 -5.71871e-20)
(-0.100099 0.0124213 0)
(-0.10154 0.0130671 -3.11057e-23)
(-0.102542 0.0150293 -9.34633e-20)
(-0.10406 0.0184771 4.50942e-20)
(-0.00163789 0.006504 -3.58316e-20)
(-0.00584591 0.0162105 0)
(-0.0120547 0.0232613 6.80268e-20)
(-0.0192962 0.0281927 -6.43601e-20)
(-0.0270967 0.0313938 1.12927e-22)
(-0.0351423 0.0331859 -5.74421e-20)
(-0.0431607 0.0338436 1.62415e-19)
(-0.0509348 0.0335955 5.10625e-20)
(-0.0582961 0.0326291 0)
(-0.0651124 0.0310985 8.99148e-20)
(-0.0712781 0.0291326 -1.69051e-19)
(-0.0767078 0.0268455 -7.95313e-20)
(-0.0813312 0.0243497 3.07577e-23)
(-0.0850923 0.0217707 -6.97377e-20)
(-0.0879511 0.0192648 -1.30766e-19)
(-0.0898898 0.0170363 0)
(-0.090937 0.0153526 5.71723e-20)
(-0.0912249 0.0145478 -1.60392e-19)
(-0.0909222 0.0150196 0)
(-0.089874 0.0172218 -9.33054e-20)
(-0.0889585 0.0214613 1.77863e-19)
(-0.00210539 0.0077137 0)
(-0.00690785 0.0192613 1.44632e-19)
(-0.0133623 0.027684 1.36663e-19)
(-0.0206032 0.0335987 6.48917e-20)
(-0.0282117 0.0374575 1.22201e-19)
(-0.0359116 0.0396366 5.7569e-20)
(-0.0434613 0.0404591 -5.39863e-20)
(-0.0506674 0.0401944 -2.03946e-19)
(-0.0573784 0.0390632 0)
(-0.0634735 0.0372455 1.80467e-19)
(-0.0688529 0.034889 8.48308e-20)
(-0.073431 0.0321212 3.18196e-19)
(-0.0771304 0.0290634 -7.45595e-20)
(-0.0798795 0.0258492 0)
(-0.0816121 0.0226453 -1.59174e-22)
(-0.0822718 0.0196775 -1.22453e-19)
(-0.0818343 0.0172552 1.14436e-19)
(-0.080374 0.0157907 3.31051e-23)
(-0.078031 0.0158143 -9.9753e-20)
(-0.0745982 0.0179759 9.30157e-20)
(-0.0707586 0.0227933 0)
(-0.00263573 0.0087952 7.23569e-20)
(-0.00811696 0.022008 -2.16937e-19)
(-0.0148544 0.0316894 0)
(-0.0220935 0.0385177 -1.94313e-19)
(-0.029475 0.0429966 -6.10504e-20)
(-0.0367641 0.0455494 0)
(-0.0437535 0.0465414 0)
(-0.0502762 0.0462781 0)
(-0.0562009 0.0450097 -9.63665e-20)
(-0.0614205 0.0429383 9.07738e-20)
(-0.0658436 0.040227 -8.48292e-20)
(-0.0693868 0.0370112 -1.59204e-19)
(-0.0719685 0.0334145 0)
(-0.0735042 0.029568 0)
(-0.0739047 0.0256355 2.61853e-19)
(-0.0730769 0.0218463 -2.88244e-22)
(-0.0709419 0.0185334 -2.28981e-19)
(-0.0675058 0.0161743 1.06869e-19)
(-0.0628829 0.0154384 9.9749e-20)
(-0.0568518 0.0172061 -2.12299e-22)
(-0.0496649 0.0222838 1.76973e-19)
(-0.00321504 0.0097365 0)
(-0.00944301 0.0244185 1.45846e-19)
(-0.0164944 0.0352282 0)
(-0.0237286 0.0428862 0)
(-0.0308481 0.0479364 1.22877e-19)
(-0.0376609 0.0508412 -2.3156e-19)
(-0.0439963 0.0520021 1.09146e-19)
(-0.049716 0.0517562 -2.00761e-22)
(-0.0547105 0.0503794 -1.58915e-22)
(-0.0588885 0.0480931 4.35907e-22)
(-0.0621688 0.0450723 8.51056e-20)
(-0.0644727 0.0414569 0)
(-0.0657173 0.0373664 0)
(-0.0658094 0.0329208 0)
(-0.0646414 0.0282672 2.06179e-22)
(-0.0620897 0.0236186 3.67801e-19)
(-0.0580232 0.0193066 -1.14637e-19)
(-0.0523716 0.0158502 0)
(-0.0452283 0.0140443 0)
(-0.0364879 0.0150387 -1.85616e-19)
(-0.025653 0.0201513 0)
(-0.0038293 0.0105304 -1.46223e-19)
(-0.0108548 0.0264705 -1.45846e-19)
(-0.0182434 0.0382626 0)
(-0.0254665 0.0466517 0)
(-0.0322868 0.0522115 -1.23532e-19)
(-0.0385556 0.055436 0)
(-0.044139 0.0567572 -1.09234e-19)
(-0.0489285 0.0565394 -1.03443e-19)
(-0.052837 0.0550814 -1.93853e-19)
(-0.0557898 0.0526213 -1.81816e-19)
(-0.0577166 0.0493441 -3.41345e-19)
(-0.0585447 0.0453915 1.60091e-19)
(-0.0581917 0.0408762 0)
(-0.0565592 0.0359003 1.40631e-19)
(-0.0535265 0.0305826 -2.6259e-19)
(-0.0489457 0.0251005 2.45775e-19)
(-0.0426404 0.0197536 0)
(-0.0344571 0.015058 0)
(-0.0244257 0.0118647 0)
(-0.0126453 0.0116009 0)
(0.00194543 0.0170076 1.7546e-19)
(-0.00446513 0.0111747 -5.81368e-22)
(-0.0123216 0.0281519 1.46699e-19)
(-0.0200618 0.0407671 -2.78297e-19)
(-0.027262 0.049774 1.31156e-19)
(-0.0337417 0.0557673 3.71387e-19)
(-0.0393934 0.0592662 -2.33263e-19)
(-0.0441193 0.0607281 4.39601e-19)
(-0.0478399 0.0605409 2.06251e-19)
(-0.05049 0.0590234 2.91238e-19)
(-0.0520104 0.0564291 1.82341e-19)
(-0.0523408 0.052952 1.71126e-19)
(-0.0514132 0.0487355 0)
(-0.0491457 0.0438845 -3.00854e-19)
(-0.0454362 0.0384818 1.40876e-19)
(-0.0401545 0.0326111 -1.3174e-19)
(-0.0331351 0.0263987 4.67832e-22)
(-0.0241699 0.0200804 2.29911e-19)
(-0.0130539 0.014106 1.07044e-19)
(0.000283426 0.00930802 0)
(0.0161245 0.00748661 0)
(0.0351788 0.0126718 0)
(-0.00511052 0.0116719 -4.32682e-22)
(-0.0138141 0.029461 1.48064e-19)
(-0.0219098 0.0427287 1.39593e-19)
(-0.0290674 0.0522257 1.31775e-19)
(-0.0351571 0.0585611 8.01763e-22)
(-0.0401095 0.0622742 -4.86049e-22)
(-0.0438604 0.0638438 -3.30198e-19)
(-0.0463572 0.0636783 2.07256e-19)
(-0.0475542 0.0621144 -3.89194e-19)
(-0.0474049 0.0594196 -1.82601e-19)
(-0.0458555 0.0557974 1.71553e-19)
(-0.0428392 0.0513945 -1.60903e-19)
(-0.038271 0.0463105 1.50539e-19)
(-0.0320433 0.0406118 1.40935e-19)
(-0.0240168 0.0343476 -1.3199e-19)
(-0.0140134 0.0275888 -2.46074e-19)
(-0.00180554 0.020485 -2.29458e-19)
(0.0128433 0.0133714 -2.12971e-19)
(0.0300679 0.00698642 5.9519e-19)
(0.0504603 0.00330441 -1.76112e-21)
(0.0750351 0.00706504 -1.73151e-19)
(-0.00575541 0.012029 4.45066e-19)
(-0.0153058 0.0304053 -2.96393e-19)
(-0.0237483 0.0441461 -1.39978e-19)
(-0.0308315 0.0539922 2.65555e-19)
(-0.0364694 0.0605629 -2.49164e-19)
(-0.0406258 0.0644146 -9.70746e-22)
(-0.0432666 0.0660443 -4.51289e-22)
(-0.0443622 0.0658782 -2.07607e-19)
(-0.0438824 0.064269 1.95384e-19)
(-0.0417884 0.0614982 0)
(-0.0380274 0.0577794 0)
(-0.0325276 0.0532651 0)
(-0.0251934 0.0480552 1.5118e-19)
(-0.0159058 0.0422049 0)
(-0.0045142 0.0357406 1.31911e-19)
(0.00917093 0.0286846 1.22617e-19)
(0.0253848 0.0210991 -2.30295e-19)
(0.0443768 0.0131737 -2.13752e-19)
(0.0662797 0.00544962 -1.98397e-19)
(0.0917773 -0.00020824 0)
(0.12303 0.00169639 -3.42701e-19)
(-0.00639212 0.0122565 -2.98429e-19)
(-0.0167727 0.0310004 1.49742e-19)
(-0.0255377 0.045029 -1.41078e-19)
(-0.0324984 0.0550716 1.34441e-19)
(-0.037604 0.0617568 1.25395e-19)
(-0.0408464 0.0656566 1.17542e-19)
(-0.0422166 0.0672839 2.21645e-19)
(-0.041703 0.0670811 -4.16923e-19)
(-0.0392848 0.0654158 1.9566e-19)
(-0.0349246 0.0625824 -1.24812e-22)
(-0.0285623 0.0588061 -5.17511e-19)
(-0.0201125 0.0542486 3.23427e-19)
(-0.00946144 0.0490153 3.84072e-23)
(0.00353232 0.0431608 -1.41677e-19)
(0.0190375 0.0367042 0)
(0.0372531 0.0296376 -2.46357e-19)
(0.0584119 0.0219578 2.30531e-19)
(0.0827582 0.0137228 8.71493e-22)
(0.110372 0.00521599 9.891e-22)
(0.141694 -0.00210247 -1.82741e-19)
(0.181198 -0.00200119 3.40941e-19)
(-0.00701535 0.0123678 2.99885e-19)
(-0.0181936 0.0312682 1.42872e-21)
(-0.0272375 0.0453967 0)
(-0.0340048 0.0554745 -2.66889e-19)
(-0.0384715 0.0621414 -3.78595e-19)
(-0.0406519 0.065986 1.18624e-19)
(-0.040556 0.0675364 0)
(-0.0381836 0.0672494 0)
(-0.0335163 0.0655064 3.92669e-19)
(-0.0265093 0.062615 -1.84453e-19)
(-0.0170865 0.0588127 1.7263e-19)
(-0.00513857 0.0542735 5.2245e-23)
(0.00947626 0.0491142 -2.34881e-22)
(0.026929 0.0434008 1.413e-19)
(0.0474137 0.0371579 -5.30193e-19)
(0.0711393 0.0303741 0)
(0.0983229 0.02302 0)
(0.12918 0.0150747 0)
(0.163734 0.00659787 1.98038e-19)
(0.201646 -0.00165482 2.34185e-21)
(0.251385 -0.00274925 3.36583e-19)
(-0.00762195 0.0123775 0)
(-0.0195485 0.031235 -3.01275e-19)
(-0.0288033 0.0452756 -2.86178e-19)
(-0.0352765 0.055222 1.34415e-19)
(-0.0389622 0.0617304 -5.96826e-22)
(-0.0398915 0.0654085 1.19167e-19)
(-0.0380867 0.0667992 -2.23592e-19)
(-0.033551 0.0663739 2.10244e-19)
(-0.0262597 0.0645272 0)
(-0.0161512 0.0615797 -1.84671e-19)
(-0.00312324 0.0577826 1.73016e-19)
(0.0129662 0.0533248 -1.62299e-19)
(0.0322951 0.0483399 0)
(0.055068 0.0429134 2.83426e-19)
(0.0815027 0.0370894 -4.69068e-22)
(0.111811 0.0308767 -2.47168e-19)
(0.146172 0.0242569 0)
(0.184726 0.0171946 0)
(0.227515 0.00967825 -1.13428e-21)
(0.27263 0.00144194 -1.83396e-19)
(0.334658 0.00040739 -3.31349e-19)
(-0.00821015 0.0123005 0)
(-0.0208168 0.0309279 3.05121e-19)
(-0.0301839 0.0446963 2.86177e-19)
(-0.036223 0.054344 2.7124e-19)
(-0.0389406 0.0605531 0)
(-0.0383755 0.063951 2.3976e-19)
(-0.0345569 0.0650984 2.24396e-19)
(-0.0274822 0.064482 -2.11562e-19)
(-0.0171102 0.06251 -1.97846e-19)
(-0.00335262 0.0595164 -1.85046e-19)
(0.0139277 0.0557677 5.20294e-19)
(0.0349123 0.0514705 -3.25301e-19)
(0.0598167 0.0467796 -1.52071e-19)
(0.0888739 0.041806 2.83528e-19)
(0.12231 0.0366234 -2.65521e-19)
(0.160313 0.031275 4.9356e-19)
(0.202983 0.0257763 -2.3058e-19)
(0.250297 0.0201168 2.13043e-19)
(0.302438 0.014458 3.92934e-19)
(0.355039 0.00713469 -1.82886e-19)
(0.430816 0.00791022 -1.34583e-21)
(-0.0087784 0.0121499 1.53188e-19)
(-0.0219752 0.0303728 -6.12335e-19)
(-0.0313184 0.0436919 1.44286e-19)
(-0.0367333 0.0528805 -5.43225e-19)
(-0.0382362 0.058653 1.28058e-19)
(-0.0358675 0.061662 2.41107e-19)
(-0.029652 0.0624912 -6.77016e-19)
(-0.0195732 0.0616433 4.22882e-19)
(-0.00556339 0.059541 0)
(0.0125016 0.0565337 0)
(0.0347998 0.0529053 0)
(0.0615521 0.0488832 3.24956e-19)
(0.0930028 0.0446471 3.04084e-19)
(0.129391 0.0403371 2.83509e-19)
(0.170914 0.0360608 -5.29905e-19)
(0.217677 0.0318995 2.47504e-19)
(0.269633 0.0279084 2.28548e-19)
(0.326465 0.0240866 -6.38205e-19)
(0.388554 0.0210319 1.97688e-19)
(0.448544 0.0152487 1.77251e-19)
(0.537992 0.0196567 -1.34078e-21)
(-0.00932372 0.0119357 0)
(-0.0229919 0.0295906 7.7071e-19)
(-0.0321303 0.042297 -2.7267e-22)
(-0.0366722 0.0508758 -2.73629e-19)
(-0.0366421 0.0560848 1.28794e-19)
(-0.0320768 0.0586133 -2.40875e-19)
(-0.0229877 0.0590691 2.25105e-19)
(-0.00933393 0.0579737 -2.12559e-19)
(0.00898749 0.0557672 0)
(0.0321421 0.0528171 -1.86218e-19)
(0.0603476 0.0494276 -1.73774e-19)
(0.0938523 0.0458498 3.2546e-19)
(0.132902 0.0422902 -1.06418e-18)
(0.177696 0.0389186 2.84463e-19)
(0.228329 0.0358737 0)
(0.284734 0.0332687 -2.45724e-19)
(0.346599 0.0311875 1.09881e-21)
(0.413191 0.029588 -2.11858e-19)
(0.484858 0.0296268 0)
(0.551846 0.0257552 -1.79792e-19)
(0.652321 0.0351569 0)
(-0.00984127 0.0116641 -3.12373e-19)
(-0.0238258 0.0285992 -1.54083e-19)
(-0.032521 0.0405412 1.47704e-19)
(-0.0358732 0.0483746 1.37916e-19)
(-0.0339088 0.0529171 2.59496e-19)
(-0.0266577 0.0548993 4.8551e-19)
(-0.0141099 0.0549576 -9.71608e-22)
(0.00380841 0.0536367 0)
(0.0272406 0.051398 -1.98921e-19)
(0.0563912 0.0486305 3.72989e-19)
(0.0915033 0.0456615 0)
(0.132821 0.0427668 0)
(0.180537 0.0401784 5.32757e-22)
(0.234729 0.0380894 5.68317e-19)
(0.295284 0.0366574 0)
(0.361825 0.0360076 0)
(0.433627 0.0362245 2.28786e-19)
(0.509471 0.0372104 1.92713e-21)
(0.589009 0.040429 1.97315e-19)
(0.66236 0.0388995 2.7687e-21)
(0.767707 0.0537981 3.17094e-19)
(-0.0103202 0.0113372 1.5555e-19)
(-0.0244245 0.0274074 1.56383e-19)
(-0.0323713 0.0384472 -1.45359e-19)
(-0.0341349 0.0454261 0)
(-0.0297419 0.0492289 -2.59493e-19)
(-0.0192098 0.0506347 -2.43324e-19)
(-0.0025013 0.0503149 0)
(0.0204941 0.0488421 -4.27524e-19)
(0.0499568 0.0467031 2.00399e-19)
(0.0861141 0.0443114 -3.74263e-19)
(0.129198 0.0420184 0)
(0.179388 0.0401215 -1.62705e-19)
(0.236733 0.038869 1.52508e-19)
(0.301068 0.0384602 -2.83815e-19)
(0.371926 0.0390442 0)
(0.448466 0.0407223 0)
(0.529392 0.043524 0)
(0.613017 0.047372 0)
(0.697479 0.0533029 1.91878e-19)
(0.776178 0.0550992 5.33665e-19)
(0.876233 0.0746449 3.45823e-22)
(-0.0107432 0.0109506 1.58358e-19)
(-0.0247158 0.0260144 0)
(-0.0315366 0.0360367 -2.96211e-19)
(-0.0312234 0.0420808 0)
(-0.0238058 0.0451082 2.6135e-19)
(-0.00928552 0.0459539 -1.3739e-21)
(0.0124032 0.0453301 -2.30306e-19)
(0.0414029 0.0438421 4.28353e-19)
(0.0779131 0.0420054 -4.0129e-19)
(0.122145 0.0402589 5.62124e-19)
(0.174254 0.038974 0)
(0.234254 0.0384589 0)
(0.301917 0.0389568 0)
(0.376678 0.0406402 0)
(0.457544 0.0436041 0)
(0.543062 0.04787 0)
(0.631273 0.0533381 0)
(0.720063 0.0600227 0)
(0.805992 0.0677529 -3.85547e-19)
(0.888218 0.0744691 -1.76568e-19)
(0.970363 0.0943955 -6.36793e-19)
(-0.0110845 0.0104968 -1.59993e-19)
(-0.0246089 0.0244152 0)
(-0.0298445 0.033326 -1.51905e-19)
(-0.0268715 0.0383902 -1.41224e-19)
(-0.0157285 0.0406523 -2.63176e-19)
(0.00359692 0.0410097 1.58996e-21)
(0.0311926 0.0402203 2.31716e-19)
(0.0672138 0.0389257 2.16344e-19)
(0.111839 0.037671 2.00841e-19)
(0.165192 0.0369158 1.88161e-19)
(0.227248 0.0370394 0)
(0.297713 0.0383369 0)
(0.375913 0.0410099 0)
(0.460697 0.0451537 0)
(0.550391 0.0507468 0)
(0.642826 0.0576625 0)
(0.735408 0.0656137 0)
(0.825575 0.0745817 0)
(0.909593 0.0833559 -1.13669e-21)
(0.99091 0.0951167 -5.33183e-19)
(1.04537 0.104935 1.38054e-21)
(-0.0113112 0.00996488 4.87497e-19)
(-0.0239934 0.0225997 -1.60838e-19)
(-0.027096 0.0303302 1.48758e-19)
(-0.0207835 0.03441 0)
(-0.00511226 0.0359694 -5.32571e-19)
(0.0199351 0.0359734 -9.28334e-23)
(0.054448 0.0352283 0)
(0.0985542 0.0344126 -1.42772e-22)
(0.152339 0.0340959 -2.03119e-19)
(0.215735 0.0347458 -3.76703e-19)
(0.288384 0.0367239 0)
(0.369509 0.0402728 1.63335e-19)
(0.457796 0.0454982 -1.5309e-19)
(0.551347 0.0523537 -2.83735e-19)
(0.647707 0.0606353 0)
(0.744011 0.0700083 0)
(0.837194 0.0799847 0)
(0.924392 0.0902823 0)
(1.00298 0.0997455 -1.89501e-19)
(1.0725 0.110512 8.84552e-19)
(1.12595 0.114729 3.26156e-19)
(-0.0113806 0.00934209 -3.25997e-19)
(-0.02274 0.0205577 -4.91705e-19)
(-0.023069 0.0270676 4.57414e-19)
(-0.0126413 0.0302037 -1.44052e-19)
(0.00845408 0.0311818 2.67351e-19)
(0.0402189 0.031036 -1.00264e-23)
(0.082705 0.0306206 4.70168e-19)
(0.135943 0.0306454 0)
(0.199818 0.0316911 2.02734e-19)
(0.273918 0.0342065 -2.26549e-22)
(0.357372 0.0384935 0)
(0.448717 0.0446848 0)
(0.545833 0.0527224 6.10055e-19)
(0.645978 0.0623502 -1.31949e-21)
(0.74595 0.0731286 0)
(0.842372 0.0844918 0)
(0.932024 0.0957641 2.24144e-19)
(1.01228 0.106471 4.11954e-19)
(1.08122 0.115579 1.88296e-19)
(1.13855 0.124196 -3.54652e-19)
(1.18244 0.127268 3.2228e-19)
(-0.011242 0.00861655 1.6574e-19)
(-0.0207019 0.0182831 3.30707e-19)
(-0.0175222 0.0235647 1.08066e-21)
(-0.00211385 0.0258487 1.45709e-19)
(0.0253785 0.0264305 0)
(0.0649042 0.026411 -2.54439e-19)
(0.116412 0.0266861 -2.32923e-19)
(0.179731 0.0279824 2.20932e-19)
(0.254397 0.0308641 0)
(0.339467 0.0357178 -1.90099e-19)
(0.43335 0.0427253 0)
(0.533722 0.0518367 -1.64064e-19)
(0.637556 0.0627585 -1.53845e-19)
(0.741306 0.074971 -5.67355e-19)
(0.841229 0.0877824 2.64159e-19)
(0.933799 0.100427 0)
(1.01611 0.112123 -2.24121e-19)
(1.08624 0.122358 -2.06359e-19)
(1.1433 0.130263 0)
(1.18781 0.136851 -1.7428e-19)
(1.21992 0.138137 0)
(-0.0108371 0.00777934 -1.68691e-19)
(-0.0177175 0.0157789 -6.70393e-19)
(-0.0102015 0.019863 -1.564e-19)
(0.0111319 0.0214423 -1.99047e-21)
(0.0460475 0.0218807 -1.37814e-19)
(0.0943831 0.0223374 -2.57221e-19)
(0.155887 0.0237341 2.39383e-19)
(0.230043 0.0267863 -8.72128e-23)
(0.315852 0.0319977 0)
(0.411628 0.0396289 0)
(0.514871 0.0496645 0)
(0.622286 0.0617944 3.31426e-19)
(0.729972 0.0754311 3.06295e-19)
(0.833792 0.0897743 -2.81733e-19)
(0.929849 0.103918 5.23751e-19)
(1.01496 0.116988 -2.4331e-19)
(1.08701 0.12823 -2.19896e-19)
(1.14516 0.137239 2.04802e-19)
(1.18972 0.143449 -1.88639e-19)
(1.22209 0.147876 -1.69176e-19)
(1.24419 0.147584 1.56449e-19)
(-0.0101014 0.00682664 0)
(-0.013615 0.0130619 3.37663e-19)
(-0.000847356 0.016025 3.21133e-19)
(0.0274183 0.0171086 2.95753e-19)
(0.0708048 0.017727 0)
(0.128952 0.0190808 -7.46556e-23)
(0.201275 0.022089 2.63782e-21)
(0.28673 0.0274111 -2.20329e-19)
(0.383568 0.0354246 2.09161e-19)
(0.489158 0.046183 1.92094e-19)
(0.599962 0.0593885 -1.78643e-19)
(0.711729 0.0744048 -3.2928e-19)
(0.819891 0.0903284 1.54594e-19)
(0.920113 0.106117 -2.81196e-19)
(1.00885 0.120747 2.63321e-19)
(1.08374 0.133373 1.50088e-21)
(1.14385 0.143407 2.22386e-19)
(1.18959 0.150674 2.02614e-19)
(1.22237 0.154943 7.92343e-22)
(1.24442 0.157362 1.70338e-19)
(1.25794 0.155569 3.00844e-19)
(-0.0089662 0.00576158 0)
(-0.00821697 0.0101677 -3.49133e-19)
(0.010796 0.0121401 -3.21129e-19)
(0.0470417 0.0130038 -1.50182e-19)
(0.0999288 0.0141971 5.64955e-19)
(0.168782 0.0169327 1.28607e-19)
(0.252509 0.0220819 -2.91526e-21)
(0.349328 0.030182 -2.27548e-19)
(0.456525 0.0413991 0)
(0.570368 0.0554867 1.93409e-19)
(0.686268 0.0717877 -5.40186e-19)
(0.7992 0.0893081 1.67863e-19)
(0.904317 0.106862 0)
(0.997596 0.123264 -2.80447e-19)
(1.07634 0.137515 5.21998e-19)
(1.13942 0.148944 -2.39151e-19)
(1.18721 0.157241 0)
(1.22127 0.162508 0)
(1.24387 0.164853 -3.62439e-19)
(1.25764 0.165462 1.67759e-19)
(1.26498 0.162439 -2.98811e-19)
(-0.00735978 0.00459577 2.77739e-21)
(-0.00134602 0.00715381 3.48349e-19)
(0.0249702 0.00832906 0)
(0.0702561 0.00931999 -3.09499e-19)
(0.133608 0.0115513 -1.41597e-19)
(0.213881 0.0162036 -1.33623e-19)
(0.309275 0.0240345 0)
(0.417043 0.0353715 0)
(0.533323 0.0500686 2.60494e-21)
(0.653229 0.0674893 1.97693e-19)
(0.771267 0.0865714 1.81911e-19)
(0.882 0.105986 -3.33253e-19)
(0.980809 0.124361 2.99256e-21)
(1.06451 0.140514 -1.3671e-19)
(1.13166 0.153624 2.32915e-21)
(1.1825 0.163308 0)
(1.21864 0.169588 0)
(1.24252 0.172835 0)
(1.2569 0.173428 1.7746e-19)
(1.26447 0.172509 3.21795e-19)
(1.2674 0.168552 -6.28332e-22)
(-0.00520956 0.00335036 -3.63903e-19)
(0.00716898 0.00410221 1.77858e-19)
(0.0418913 0.00474583 1.66527e-19)
(0.0972543 0.00628465 -1.62628e-19)
(0.171916 0.0100783 -1.44119e-19)
(0.264074 0.0172112 4.07381e-19)
(0.370995 0.0282395 2.51844e-19)
(0.488762 0.0431736 -3.25143e-21)
(0.612261 0.0614518 -6.41763e-19)
(0.735544 0.0819823 3.36837e-21)
(0.85253 0.103303 1.82959e-19)
(0.957872 0.123836 -1.97649e-21)
(1.04772 0.142174 -3.05955e-19)
(1.12016 0.157298 1.42532e-19)
(1.17517 0.168691 0)
(1.21433 0.176319 0)
(1.24019 0.180526 0)
(1.25573 0.181896 3.83354e-19)
(1.26382 0.180992 -3.5615e-19)
(1.26696 0.178824 -1.61227e-19)
(1.26703 0.174211 7.71445e-22)
(-0.00244422 0.00205662 5.56815e-19)
(0.0174855 0.00112038 -3.69925e-19)
(0.0617363 0.00157785 -3.42319e-19)
(0.128149 0.0041573 4.75099e-19)
(0.214786 0.0100848 -2.97998e-19)
(0.318976 0.0202629 4.58095e-21)
(0.436828 0.034936 -5.03545e-19)
(0.563101 0.0536805 7.02517e-19)
(0.691456 0.0754309 -2.18639e-19)
(0.815142 0.0986205 0)
(0.927963 0.121458 0)
(1.02522 0.142263 0)
(1.10429 0.159761 1.53819e-19)
(1.16475 0.173238 0)
(1.20801 0.182554 -1.25776e-19)
(1.2367 0.188028 1.17746e-19)
(1.25398 0.190267 0)
(1.26301 0.189991 -1.9231e-19)
(1.26653 0.187856 -1.71337e-19)
(1.26664 0.184691 -1.54352e-19)
(1.26488 0.179644 1.39313e-19)
(0.00100406 0.000756372 -3.78527e-19)
(0.0297393 -0.001659 1.85326e-19)
(0.0846296 -0.000957363 3.48916e-19)
(0.162954 0.00322157 0)
(0.261995 0.0118818 2.95322e-19)
(0.377987 0.0256349 -5.54855e-19)
(0.50569 0.0442868 -1.29852e-19)
(0.638488 0.0668689 -2.35677e-19)
(0.768996 0.0917612 9.95329e-22)
(0.890082 0.116966 -2.02146e-19)
(0.995993 0.140496 -1.82092e-19)
(1.08317 0.160748 3.36906e-19)
(1.15054 0.176735 -1.53739e-19)
(1.19918 0.188144 4.34398e-21)
(1.23171 0.195228 1.28607e-19)
(1.25149 0.198609 -2.27745e-19)
(1.26194 0.199078 -2.05871e-19)
(1.26611 0.197411 1.8467e-19)
(1.2664 0.194284 -1.68367e-19)
(1.26451 0.190323 5.08439e-21)
(1.26165 0.185001 1.40256e-19)
(0.00519687 -0.000498132 3.91031e-19)
(0.0440368 -0.00407999 -1.93326e-19)
(0.110629 -0.00261757 5.30871e-22)
(0.201568 0.00377411 -1.66808e-19)
(0.31315 0.0157663 1.54718e-19)
(0.440303 0.0335498 2.83694e-19)
(0.576311 0.056361 -2.10557e-21)
(0.713273 0.0826001 2.45568e-19)
(0.8431 0.1101 3.36372e-19)
(0.958814 0.136543 8.11569e-19)
(1.05565 0.159926 -1.87877e-19)
(1.13157 0.178896 0)
(1.18711 0.192877 -2.74959e-21)
(1.22473 0.201991 -2.78894e-19)
(1.24793 0.206847 0)
(1.26043 0.208295 1.15433e-19)
(1.26564 0.207223 3.06271e-19)
(1.26629 0.204404 -9.39088e-20)
(1.26438 0.200476 0)
(1.26122 0.195872 0)
(1.25769 0.190373 0)
(0.0101864 -0.00164469 -2.96684e-19)
(0.0604456 -0.00596653 -9.95757e-20)
(0.139715 -0.00314363 0)
(0.243762 0.00611078 1.67562e-19)
(0.367691 0.0220029 -3.12799e-19)
(0.504941 0.0441589 0)
(0.647313 0.071126 -1.34275e-19)
(0.785853 0.100635 -1.19816e-19)
(0.912256 0.130047 -2.22811e-19)
(1.02026 0.156893 -6.0976e-19)
(1.10655 0.179346 3.71523e-19)
(1.17077 0.196453 -1.71352e-19)
(1.21502 0.208112 0)
(1.24282 0.214863 1.37941e-19)
(1.25821 0.217602 -1.47472e-21)
(1.26498 0.217323 -1.43546e-21)
(1.26629 0.214936 0)
(1.26446 0.211164 0)
(1.26111 0.206573 0)
(1.25714 0.201431 0)
(1.25321 0.195804 0)
(0.0160121 -0.00261206 0)
(0.0789869 -0.00712695 1.98625e-19)
(0.171779 -0.00226927 0)
(0.289176 0.0105114 0)
(0.424898 0.0308055 -1.58124e-19)
(0.570793 0.0575287 2.94518e-19)
(0.717292 0.088452 -2.744e-21)
(0.854787 0.120661 -1.23154e-19)
(0.975312 0.151188 1.13555e-19)
(1.07385 0.177615 9.99948e-20)
(1.1488 0.198467 -9.47489e-20)
(1.20155 0.213292 0)
(1.23547 0.222473 1.48259e-19)
(1.25484 0.226909 -1.38916e-19)
(1.2639 0.227701 2.42793e-19)
(1.26629 0.225907 -1.10951e-19)
(1.26476 0.222399 1.00692e-19)
(1.26125 0.217827 0)
(1.25695 0.212665 0)
(1.2525 0.207053 -1.41039e-19)
(1.24831 0.201311 0)
(0.0226977 -0.00332133 -1.04232e-19)
(0.0996279 -0.00735985 -1.04417e-19)
(0.206615 0.000267837 0)
(0.337323 0.0172245 -9.12685e-20)
(0.483926 0.0423229 -2.47286e-19)
(0.636682 0.0736372 0)
(0.784919 0.108126 0)
(0.91888 0.142327 0)
(1.03151 0.173135 -1.13555e-19)
(1.11944 0.198388 1.02641e-19)
(1.18291 0.217108 -9.28548e-20)
(1.22485 0.229388 -8.47645e-20)
(1.24966 0.236058 -7.67045e-20)
(1.26201 0.238302 0)
(1.26609 0.237339 1.52574e-21)
(1.2652 0.23422 1.08274e-19)
(1.26167 0.229749 -9.54881e-20)
(1.25703 0.224482 8.54503e-20)
(1.25213 0.218803 7.65022e-20)
(1.24738 0.212762 1.40701e-19)
(1.24302 0.206894 -1.24548e-19)
(0.0302475 -0.00368791 0)
(0.122277 -0.006461 2.08565e-19)
(0.243925 0.0047142 2.09877e-21)
(0.387598 0.026453 1.80668e-19)
(0.543838 0.056629 2.49083e-19)
(0.701432 0.0923775 -7.53437e-20)
(0.849011 0.129875 -2.07059e-19)
(0.977239 0.165272 1.65738e-21)
(1.08047 0.195548 0)
(1.15724 0.218981 2.0658e-19)
(1.20957 0.235182 9.286e-20)
(1.24171 0.244784 1.68112e-19)
(1.25872 0.249 7.60606e-20)
(1.26537 0.24921 0)
(1.26562 0.246676 -2.16401e-21)
(1.26233 0.242394 -1.06757e-19)
(1.25742 0.237072 9.54977e-20)
(1.25203 0.23118 -2.23171e-21)
(1.24677 0.225009 -7.65097e-20)
(1.24185 0.21856 6.85424e-20)
(1.23734 0.212535 0)
(0.0386443 -0.00362396 5.54178e-20)
(0.14678 -0.00423124 0)
(0.283316 0.0112887 -9.67357e-20)
(0.439302 0.0383427 9.341e-20)
(0.603649 0.0737197 -1.6957e-19)
(0.763932 0.11357 2.33779e-19)
(0.90859 0.153389 -7.20468e-20)
(1.02927 0.189154 1.92799e-19)
(1.12214 0.21815 0)
(1.1877 0.239242 -1.01069e-19)
(1.22962 0.252668 2.73102e-21)
(1.25312 0.259562 7.94152e-20)
(1.2636 0.261436 -1.47949e-19)
(1.26574 0.259782 -6.4597e-20)
(1.2631 0.255839 -1.17222e-19)
(1.2581 0.250516 0)
(1.25225 0.244423 -4.49805e-20)
(1.24639 0.237941 -4.11557e-20)
(1.24091 0.231284 0)
(1.2359 0.224435 6.39323e-20)
(1.23128 0.218213 -2.49523e-21)
(0.047847 -0.00304139 -6.59324e-22)
(0.17292 -0.00048474 0)
(0.324311 0.0201715 -2.55228e-19)
(0.491668 0.0529741 4.77362e-20)
(0.662379 0.0935143 -1.55957e-21)
(0.823188 0.136976 -8.01031e-22)
(0.962907 0.178345 -7.1915e-20)
(1.07468 0.213665 2.91487e-21)
(1.15671 0.240727 1.47747e-21)
(1.21144 0.259083 -1.03169e-19)
(1.24389 0.269593 9.19592e-20)
(1.25995 0.273822 -8.18102e-20)
(1.26511 0.273493 7.271e-20)
(1.26375 0.270133 6.55564e-20)
(1.25897 0.264914 1.13735e-19)
(1.25277 0.258641 -1.50665e-19)
(1.24631 0.251822 4.60005e-20)
(1.24017 0.244765 0)
(1.23457 0.237613 -6.93858e-20)
(1.22952 0.230364 6.31643e-20)
(1.22482 0.2239 -1.41131e-19)
(0.0577902 -0.00185514 5.74415e-20)
(0.200422 0.00494254 5.71701e-20)
(0.366366 0.0314946 1.56214e-19)
(0.543892 0.0703578 0)
(0.719092 0.115862 8.73292e-20)
(0.87836 0.162317 0)
(1.01145 0.204425 -3.52884e-20)
(1.1134 0.238538 3.3178e-20)
(1.18456 0.263122 5.77198e-20)
(1.22912 0.278464 0)
(1.25317 0.286007 0)
(1.26298 0.287661 -3.89594e-20)
(1.26389 0.285274 2.08337e-21)
(1.25986 0.280348 -5.8117e-22)
(1.25354 0.273955 -1.57631e-21)
(1.24652 0.266789 3.58855e-22)
(1.23967 0.259268 0)
(1.23338 0.251634 3.75257e-20)
(1.22775 0.243974 -3.053e-22)
(1.22271 0.236319 0)
(1.21794 0.229563 2.64058e-20)
(0.0683839 1.33108e-05 0)
(0.228955 0.0121849 -5.71698e-20)
(0.408883 0.0453345 -5.27831e-20)
(0.595166 0.0904346 0)
(0.772936 0.140555 0)
(0.92878 0.189292 2.03088e-20)
(1.05392 0.231325 1.81895e-20)
(1.14555 0.263548 3.15029e-20)
(1.20615 0.285222 -8.60987e-20)
(1.24141 0.297375 5.1398e-20)
(1.25819 0.301966 0)
(1.26284 0.30116 -1.94777e-20)
(1.26041 0.296855 0)
(1.25439 0.290477 0)
(1.24698 0.282984 0)
(1.23944 0.274961 1.24612e-20)
(1.23237 0.266744 0)
(1.22603 0.258521 -1.81507e-20)
(1.22044 0.250334 -1.59822e-20)
(1.21544 0.242262 2.91019e-20)
(1.21064 0.235166 -1.32727e-20)
(0.0795146 0.00263251 0)
(0.258146 0.0213402 0)
(0.451236 0.0617074 0)
(0.644708 0.113078 0)
(0.823166 0.167335 1.10746e-20)
(0.973954 0.217588 -3.07373e-20)
(1.09019 0.258765 -1.81902e-20)
(1.1714 0.288509 7.83536e-21)
(1.22201 0.306948 2.12481e-20)
(1.24895 0.31582 -3.73371e-20)
(1.25954 0.317521 1.13805e-20)
(1.26003 0.314382 1.01481e-20)
(1.25502 0.308283 8.74803e-21)
(1.24756 0.300544 0)
(1.23943 0.292001 -6.31925e-21)
(1.23157 0.283136 1.75776e-20)
(1.22441 0.274217 0)
(1.21811 0.265387 1.81525e-20)
(1.21261 0.256653 0)
(1.20769 0.248151 0)
(1.2029 0.240667 0)
(0.0910481 0.00605776 0)
(0.287585 0.0324637 0)
(0.492789 0.0805674 0)
(0.691789 0.138101 0)
(0.869164 0.19591 -1.11476e-20)
(1.01355 0.246889 -9.97417e-21)
(1.12031 0.286491 -1.8142e-20)
(1.19129 0.313264 0)
(1.23266 0.328239 2.7932e-20)
(1.25231 0.333809 -1.24732e-20)
(1.25775 0.332711 -7.73191e-22)
(1.25492 0.327364 1.78349e-20)
(1.248 0.319577 -8.51171e-21)
(1.23953 0.310547 0)
(1.23094 0.300984 6.08029e-21)
(1.22293 0.291281 5.0602e-21)
(1.2158 0.281648 0)
(1.2096 0.27219 1.6518e-20)
(1.20423 0.26289 0)
(1.19944 0.253938 0)
(1.19473 0.246023 0)
(0.102832 0.0103283 0)
(0.316842 0.0455649 -6.07958e-20)
(0.532917 0.101807 -5.58976e-20)
(0.735754 0.165265 0)
(0.910441 0.225963 0)
(1.0474 0.276888 2.0472e-20)
(1.14442 0.314269 1.8143e-20)
(1.2056 0.33768 -3.06414e-20)
(1.23862 0.349047 2.75754e-20)
(1.252 0.351343 -7.1434e-22)
(1.25321 0.347556 0)
(1.24783 0.340119 -1.85068e-20)
(1.23952 0.330735 0)
(1.23039 0.320462 0)
(1.22156 0.309897 0)
(1.21353 0.299351 9.72682e-21)
(1.2065 0.288989 0)
(1.20047 0.278882 -1.65197e-20)
(1.1953 0.268997 1.36823e-20)
(1.19068 0.259573 -2.48087e-20)
(1.1861 0.251189 1.13031e-20)
(0.114701 0.0154649 6.29902e-20)
(0.345478 0.0606053 6.07958e-20)
(0.571026 0.125262 1.68329e-19)
(0.776035 0.194283 0)
(0.946638 0.257161 9.16253e-20)
(1.07543 0.307287 0)
(1.16274 0.341887 3.45553e-20)
(1.21474 0.361638 -3.24916e-20)
(1.24034 0.369327 5.35408e-20)
(1.24842 0.368415 0)
(1.24626 0.362056 0)
(1.23897 0.352637 3.38827e-20)
(1.2297 0.341729 -2.39536e-21)
(1.22019 0.330252 -1.0456e-19)
(1.21129 0.318693 1.72383e-21)
(1.20336 0.307296 3.8998e-20)
(1.19651 0.296187 0)
(1.1907 0.285411 -2.93269e-20)
(1.18578 0.274921 5.29763e-20)
(1.18139 0.264996 0)
(1.17703 0.256122 -1.99767e-20)
(0.12648 0.0214684 -1.2614e-19)
(0.373057 0.0774981 0)