/*--------------------------------*- C++ -*----------------------------------*\
  =========                 |
  \\      /  F ield         | OpenFOAM: The Open Source CFD Toolbox
   \\    /   O peration     | Website:  https://openfoam.org
    \\  /    A nd           | Version:  7
     \\/     M anipulation  |
\*---------------------------------------------------------------------------*/
FoamFile
{
    version     2.0;
    format      ascii;
    class       volVectorField;
    location    "29";
    object      U;
}
// * * * * * * * * * * * * * * * * * * * * * * * * * * * * * * * * * * * * * //

dimensions      [0 1 -1 0 0 0 0];

internalField   nonuniform List<vector> 
40000
(
(-0.000177998 0.000289524 -2.07602e-21)
(-0.00111781 0.00078643 6.42831e-21)
(-0.00312833 0.00121235 -4.10205e-21)
(-0.00596501 0.00157407 -3.95291e-24)
(-0.00949313 0.00187666 -8.9349e-25)
(-0.0136218 0.00212461 2.89323e-24)
(-0.0182571 0.00232243 -6.81364e-21)
(-0.0233073 0.00247457 1.62004e-21)
(-0.0286873 0.00258534 -4.62415e-21)
(-0.0343183 0.0026589 -1.46312e-21)
(-0.0401274 0.00269924 0)
(-0.0460478 0.00271017 -5.26858e-21)
(-0.0520192 0.0026953 0)
(-0.0579869 0.002658 0)
(-0.0639026 0.00260145 -4.46545e-21)
(-0.0697233 0.0025286 4.21897e-21)
(-0.0754117 0.00244223 -1.99207e-21)
(-0.080936 0.00234503 -1.54565e-24)
(-0.0862699 0.00223963 1.76986e-21)
(-0.0913928 0.00212872 0)
(-0.0962902 0.00201516 -1.57007e-21)
(-0.100954 0.00190203 -4.42992e-21)
(-0.105386 0.00179274 5.5507e-21)
(-0.109593 0.00169103 -2.60674e-21)
(-0.113594 0.00160084 7.33941e-21)
(-0.117418 0.00152617 4.5899e-21)
(-0.121105 0.0014706 -8.60559e-21)
(-0.124702 0.00143653 8.06275e-21)
(-0.128257 0.00142515 -1.88739e-21)
(-0.131841 0.00143972 -3.5389e-21)
(-0.000207203 0.000870315 0)
(-0.00119315 0.0023646 4.28891e-21)
(-0.00323579 0.00364612 8.21671e-21)
(-0.0060931 0.00473511 -7.84155e-21)
(-0.00963183 0.00564662 -3.75577e-21)
(-0.0137622 0.00639407 1.43016e-20)
(-0.0183911 0.00699095 -3.41282e-21)
(-0.0234278 0.00745057 -6.49726e-21)
(-0.0287881 0.00778581 -8.5068e-24)
(-0.0343936 0.00800917 -1.75797e-20)
(-0.0401721 0.00813265 5.55509e-21)
(-0.0460573 0.0081677 2.10819e-20)
(-0.0519892 0.00812516 -9.98154e-21)
(-0.0579136 0.00801519 -4.69297e-24)
(-0.0637821 0.00784732 -4.47301e-21)
(-0.069552 0.00763043 -1.53102e-24)
(-0.075186 0.0073729 0)
(-0.0806521 0.00708274 0)
(-0.0859237 0.00676785 1.41707e-20)
(-0.0909798 0.00643625 0)
(-0.0958054 0.00609644 6.2815e-21)
(-0.100392 0.00575765 -5.90657e-21)
(-0.104739 0.0054301 -7.03264e-25)
(-0.108855 0.00512497 0)
(-0.112756 0.00485418 9.78922e-21)
(-0.116473 0.00462982 -9.17984e-21)
(-0.120044 0.00446288 8.60557e-21)
(-0.123517 0.00436075 -8.06274e-21)
(-0.126939 0.00432734 7.55001e-21)
(-0.130383 0.00437244 -2.12353e-20)
(-0.000265205 0.00144304 -8.31925e-21)
(-0.00134282 0.00392174 -8.57292e-21)
(-0.00344935 0.00604875 0)
(-0.00634771 0.00785722 0)
(-0.00990758 0.00937186 0)
(-0.0140412 0.0106147 7.16652e-21)
(-0.0186575 0.0116079 0)
(-0.0236674 0.0123733 6.48868e-21)
(-0.0289881 0.0129324 1.23382e-20)
(-0.0345428 0.0133056 1.17187e-20)
(-0.0402602 0.0135129 0)
(-0.046075 0.0135732 6.98834e-24)
(-0.051928 0.0135044 -1.99815e-20)
(-0.0577656 0.0133234 1.8909e-20)
(-0.0635398 0.013046 8.93416e-21)
(-0.0692079 0.0126867 8.44656e-21)
(-0.0747329 0.0122596 -7.96681e-21)
(-0.0800823 0.0117777 1.5042e-20)
(-0.0852291 0.0112541 -2.83489e-20)
(-0.0901514 0.0107021 -1.53074e-25)
(-0.0948332 0.0101355 -2.51292e-20)
(-0.0992646 0.00956973 2.36408e-20)
(-0.103443 0.00902169 0)
(-0.107376 0.00851013 0)
(-0.111079 0.00805526 9.79562e-21)
(-0.114579 0.00767776 0)
(-0.117917 0.00739673 0)
(-0.121143 0.00722547 0)
(-0.124297 0.00717172 -1.51043e-20)
(-0.127458 0.00725227 1.41563e-20)
(-0.000351094 0.00200248 8.31925e-21)
(-0.00156457 0.00544422 7.99823e-24)
(-0.00376594 0.00840001 3.71673e-23)
(-0.00672532 0.0109151 -1.57075e-20)
(-0.0103167 0.0130232 -1.50067e-20)
(-0.0144553 0.0147544 1.7107e-23)
(-0.0190527 0.0161393 -2.73021e-20)
(-0.0240227 0.0172079 1.30006e-20)
(-0.0292845 0.0179895 -2.47192e-20)
(-0.0347631 0.0185127 2.34768e-20)
(-0.0403892 0.0188048 -1.11374e-20)
(-0.0460987 0.0188921 2.11146e-20)
(-0.0518334 0.0187994 1.99814e-20)
(-0.0575407 0.0185501 1.63187e-23)
(-0.0631732 0.0181659 -1.78941e-20)
(-0.0686887 0.0176671 0)
(-0.0740498 0.017073 8.09956e-25)
(-0.0792239 0.0164015 1.50511e-20)
(-0.0841831 0.0156707 8.96906e-25)
(-0.0889044 0.0148987 -7.81385e-24)
(-0.0933701 0.0141046 2.51366e-20)
(-0.0975684 0.0133097 -2.36407e-20)
(-0.101495 0.0125376 0)
(-0.105152 0.0118147 2.08779e-20)
(-0.108556 0.0111698 4.37363e-24)
(-0.111731 0.0106333 -5.51205e-20)
(-0.114719 0.0102334 1.7222e-20)
(-0.117572 0.00999098 3.22725e-20)
(-0.120322 0.00991962 1.51042e-20)
(-0.123057 0.0100442 1.4163e-20)
(-0.000463534 0.00254366 3.33925e-20)
(-0.00185512 0.006919 -1.72024e-20)
(-0.00418107 0.0106805 1.64493e-20)
(-0.00722079 0.0138843 1.57379e-20)
(-0.0108538 0.0165724 0)
(-0.014999 0.0187823 -2.87154e-20)
(-0.0195718 0.0205523 -1.36975e-20)
(-0.024489 0.02192 -2.60202e-20)
(-0.0296728 0.0229224 1.236e-20)
(-0.0350507 0.0235953 2.8984e-23)
(-0.0405554 0.0239735 2.2302e-20)
(-0.0461247 0.0240901 2.11614e-20)
(-0.051702 0.0239766 -4.00177e-20)
(-0.0572357 0.0236626 1.8946e-20)
(-0.0626792 0.0231756 -1.89015e-23)
(-0.0679906 0.0225412 0)
(-0.0731327 0.0217837 -1.59587e-20)
(-0.0780724 0.0209258 -3.01355e-20)
(-0.0827809 0.01999 4.26019e-20)
(-0.0872335 0.0189989 1.33859e-20)
(-0.0914104 0.0179766 0)
(-0.095297 0.0169499 -2.36745e-20)
(-0.0988856 0.0159489 0)
(-0.102177 0.0150078 -6.26547e-20)
(-0.10518 0.0141647 3.9197e-20)
(-0.107921 0.0134604 -4.93111e-24)
(-0.110439 0.0129345 3.44652e-20)
(-0.11279 0.0126176 -4.84085e-20)
(-0.114998 0.0125322 3.02269e-20)
(-0.117159 0.0127134 1.41627e-20)
(-0.000600802 0.00306197 -1.67166e-20)
(-0.00221021 0.00833391 1.72019e-20)
(-0.00468891 0.0128719 -1.65198e-24)
(-0.00782743 0.0167418 -4.73411e-20)
(-0.0115117 0.0199927 0)
(-0.0156654 0.0226688 2.87154e-20)
(-0.0202078 0.0248151 -2.74396e-20)
(-0.0250599 0.0264765 5.20731e-20)
(-0.0301471 0.0276969 0)
(-0.0354 0.0285191 -2.35057e-20)
(-0.0407538 0.0289847 -2.2302e-20)
(-0.0461485 0.0291333 -2.11404e-20)
(-0.0515292 0.0290028 -6.01397e-20)
(-0.0568458 0.0286285 2.59823e-24)
(-0.0620527 0.0280435 -1.77563e-23)
(-0.0671085 0.0272787 -1.38671e-23)
(-0.0719759 0.0263626 4.79631e-20)
(-0.0766215 0.0253224 -3.43161e-23)
(-0.0810151 0.0241846 3.113e-23)
(-0.0851304 0.0229761 -2.67413e-20)
(-0.088945 0.0217252 -1.9854e-23)
(-0.0924408 0.0204638 4.73619e-20)
(-0.0956061 0.0192282 -6.67876e-20)
(-0.0984368 0.0180604 2.08919e-20)
(-0.100939 0.0170082 0)
(-0.103133 0.0161246 0)
(-0.10506 0.0154625 -3.44649e-20)
(-0.106779 0.0150657 3.22971e-20)
(-0.108302 0.0149704 -3.02222e-20)
(-0.109734 0.0152254 0)
(-0.000760836 0.0035532 -1.6768e-20)
(-0.00262474 0.0096778 0)
(-0.00528247 0.0149576 1.65154e-20)
(-0.00853719 0.0194662 9.48673e-20)
(-0.0122821 0.023259 -3.01614e-20)
(-0.0164459 0.0263857 0)
(-0.0209527 0.0288976 -5.18907e-23)
(-0.0257276 0.0308458 2.61125e-20)
(-0.0307003 0.0322804 -2.47952e-20)
(-0.0358044 0.0332508 0)
(-0.040978 0.0338048 0)
(-0.0461639 0.0339883 -4.2407e-20)
(-0.051309 0.0338448 6.01681e-20)
(-0.056365 0.0334154 -1.89753e-20)
(-0.0612872 0.0327383 0)
(-0.066035 0.0318489 3.3921e-20)
(-0.0705713 0.0307802 -3.19631e-20)
(-0.0748619 0.0295631 3.01895e-20)
(-0.0788755 0.0282277 -5.68755e-20)
(-0.0825836 0.0268043 -8.0398e-20)
(-0.0859608 0.0253251 2.51995e-20)
(-0.0889852 0.0238263 2.37105e-20)
(-0.0916401 0.0223499 2.22584e-20)
(-0.0939158 0.0209455 0)
(-0.0958127 0.0196712 -3.92699e-20)
(-0.097346 0.0185933 0)
(-0.098557 0.0177813 0)
(-0.0995088 0.0172966 -6.46072e-20)
(-0.100199 0.0171948 -1.01425e-23)
(-0.100739 0.0175458 -8.49938e-20)
(-0.000941289 0.00401367 1.6768e-20)
(-0.00309288 0.0109408 3.46653e-20)
(-0.00595377 0.0169223 3.31859e-20)
(-0.00934083 0.0220381 -3.16482e-20)
(-0.0131552 0.0263483 0)
(-0.0173307 0.0299073 0)
(-0.0217967 0.0327716 2.74543e-20)
(-0.0264832 0.0349977 -2.61625e-20)
(-0.0313237 0.0366416 -3.89067e-23)
(-0.0362556 0.0377582 4.72518e-20)
(-0.0412204 0.0384012 0)
(-0.0461633 0.0386221 4.24068e-20)
(-0.0510338 0.0384701 0)
(-0.0557851 0.0379912 0)
(-0.0603741 0.0372284 1.7369e-23)
(-0.0647607 0.0362215 3.39458e-20)
(-0.068908 0.0350072 -3.20624e-20)
(-0.0727812 0.0336198 6.04716e-20)
(-0.0763477 0.0320924 -2.84949e-20)
(-0.0795767 0.0304581 8.04398e-20)
(-0.0824393 0.0287521 0)
(-0.0849094 0.0270141 0)
(-0.0869643 0.025291 4.46262e-20)
(-0.0885879 0.0236394 0)
(-0.0897734 0.0221278 3.92447e-20)
(-0.090529 0.0208374 -3.68395e-20)
(-0.090894 0.0198573 3.45013e-20)
(-0.0909378 0.0192724 -3.23203e-20)
(-0.0906414 0.0191662 6.04905e-20)
(-0.0901086 0.0196398 8.50278e-20)
(-0.0011396 0.00444024 0)
(-0.00360825 0.0121143 -3.46653e-20)
(-0.006694 0.018753 9.0994e-23)
(-0.0102282 0.0244403 0)
(-0.01412 0.0292398 -6.071e-20)
(-0.0183088 0.0332099 -3.5267e-23)
(-0.0227292 0.036411 2.75276e-20)
(-0.0273161 0.0389042 0)
(-0.0320074 0.0407507 2.48815e-20)
(-0.0367443 0.0420104 -4.72517e-20)
(-0.0414716 0.0427421 0)
(-0.0461376 0.0430028 0)
(-0.0506941 0.0428464 -4.0279e-20)
(-0.0550963 0.0423238 3.80795e-20)
(-0.0593023 0.0414824 -3.59802e-20)
(-0.0632732 0.0403658 0)
(-0.0669719 0.039014 -3.21475e-20)
(-0.070363 0.0374643 -9.08002e-20)
(-0.0734127 0.0357522 -1.32709e-23)
(-0.0760875 0.0339127 -9.6749e-24)
(-0.0783552 0.0319832 2.52721e-20)
(-0.0801844 0.0300058 4.75281e-20)
(-0.0815462 0.0280311 -8.92767e-20)
(-0.0824168 0.0261218 4.19393e-20)
(-0.0827805 0.0243566 -7.42918e-24)
(-0.0826365 0.0228322 2.17174e-23)
(-0.0820199 0.0216611 2.37475e-23)
(-0.0810078 0.0209584 3.23419e-20)
(-0.0795629 0.0208459 0)
(-0.0777529 0.0214704 0)
(-0.00135305 0.00483042 3.38252e-20)
(-0.00416408 0.0131915 9.96764e-23)
(-0.00749379 0.0204385 9.90293e-23)
(-0.0111882 0.026658 -6.37702e-20)
(-0.0151648 0.0319156 6.07501e-20)
(-0.0193681 0.0362724 0)
(-0.0237383 0.039792 0)
(-0.0282148 0.0425395 5.25583e-20)
(-0.03274 0.0445799 -4.9907e-20)
(-0.0372593 0.045978 3.87984e-23)
(-0.0417207 0.0467972 8.99599e-20)
(-0.0460756 0.047099 4.26236e-20)
(-0.0502783 0.046942 -8.06861e-20)
(-0.0542859 0.0463815 3.81529e-20)
(-0.0580581 0.0454687 3.60869e-20)
(-0.0615566 0.0442508 -3.40627e-20)
(-0.0647445 0.0427708 6.42586e-20)
(-0.067586 0.0410683 9.10291e-20)
(-0.0700453 0.0391804 5.72042e-20)
(-0.0720868 0.0371437 2.69136e-20)
(-0.0736742 0.0349965 -5.06164e-20)
(-0.0747709 0.032782 0)
(-0.075341 0.0305532 3.42946e-23)
(-0.0753518 0.0283773 4.20137e-20)
(-0.0747774 0.0263419 3.93433e-20)
(-0.0736056 0.0245599 -7.38296e-20)
(-0.0718636 0.0231698 -3.4564e-20)
(-0.0696383 0.0223252 6.46919e-20)
(-0.0668781 0.0221972 0)
(-0.0635485 0.0229951 -5.66147e-20)
(-0.00157888 0.00518236 3.39003e-20)
(-0.00475337 0.0141668 -6.98315e-20)
(-0.00834343 0.02197 2.23027e-23)
(-0.0122097 0.028679 -9.77445e-23)
(-0.0162772 0.0343603 0)
(-0.020496 0.0390765 0)
(-0.0248109 0.0428937 0)
(-0.0291664 0.0458799 -5.26898e-20)
(-0.033509 0.0481037 5.00317e-20)
(-0.037788 0.0496337 -4.74592e-20)
(-0.0419549 0.0505374 -9.00925e-20)
(-0.045964 0.0508806 -2.61424e-23)
(-0.0497722 0.050726 8.08881e-20)
(-0.0533384 0.0501328 3.8283e-20)
(-0.0566238 0.049156 0)
(-0.0595908 0.0478456 -6.83387e-20)
(-0.0622026 0.0462474 9.67065e-20)
(-0.0644225 0.0444029 -9.10665e-20)
(-0.0662133 0.0423504 -5.72329e-20)
(-0.0675364 0.040127 -1.61705e-19)
(-0.0683516 0.0377708 -2.84869e-24)
(-0.0686167 0.0353252 5.59864e-24)
(-0.0682884 0.0328434 3.27874e-23)
(-0.0673243 0.0303953 -8.3978e-20)
(-0.0656869 0.0280753 1.18231e-19)
(-0.0633497 0.0260114 -5.44606e-23)
(-0.0603274 0.0243708 0)
(-0.0567203 0.0233531 -6.46907e-20)
(-0.0524805 0.0231897 6.04972e-20)
(-0.047333 0.0241719 5.68543e-20)
(-0.00181431 0.00549491 0)
(-0.00536912 0.0150367 -3.50759e-20)
(-0.00923305 0.0233411 3.35104e-20)
(-0.0132807 0.030494 6.40598e-20)
(-0.0174445 0.0365615 3.06317e-20)
(-0.0216788 0.0416069 -5.82832e-20)
(-0.0259334 0.0456978 -6.24109e-23)
(-0.0301569 0.0489046 -5.27929e-20)
(-0.0343002 0.0512986 0)
(-0.038316 0.0529517 4.76962e-20)
(-0.0421593 0.0539353 0)
(-0.0457871 0.0543186 0)
(-0.0491586 0.0541682 -8.10355e-20)
(-0.0522348 0.0535469 -7.66146e-20)
(-0.0549779 0.0525128 1.08722e-19)
(-0.0573509 0.051119 6.83381e-20)
(-0.0593168 0.0494134 7.06752e-23)
(-0.0608381 0.047439 -6.08453e-20)
(-0.0618755 0.0452349 1.14625e-19)
(-0.0623876 0.042838 4.23788e-24)
(-0.06233 0.0402856 1.01578e-19)
(-0.0616545 0.0376194 0)
(-0.06031 0.0348912 0)
(-0.0582439 0.0321708 8.41547e-20)
(-0.0554056 0.0295565 -1.18232e-19)
(-0.0517523 0.0271889 1.10814e-19)
(-0.0472797 0.0252645 -6.91761e-20)
(-0.042103 0.0240329 6.47157e-20)
(-0.036232 0.0238015 -1.2099e-19)
(-0.0289277 0.0250294 5.69004e-20)
(-0.00205666 0.00576756 -3.42205e-20)
(-0.00600443 0.0157991 0)
(-0.0101529 0.0245477 0)
(-0.0143896 0.0320963 -6.44184e-20)
(-0.0186535 0.0385099 1.22861e-19)
(-0.0229027 0.0438514 -5.84666e-20)
(-0.027091 0.0481892 -9.92069e-23)
(-0.0311713 0.0515955 5.29464e-20)
(-0.0350979 0.0541438 0)
(-0.0388269 0.055909 7.26479e-23)
(-0.0423164 0.0569653 1.93272e-23)
(-0.0455259 0.0573855 -8.58043e-20)
(-0.0484169 0.0572396 -1.49908e-22)
(-0.0509517 0.0565935 -3.84133e-20)
(-0.0530935 0.0555084 -1.08889e-19)
(-0.0548056 0.05404 6.85494e-20)
(-0.0560506 0.052238 -6.46556e-20)
(-0.0567894 0.050147 1.21989e-19)
(-0.0569806 0.0478062 -1.14904e-19)
(-0.0565795 0.0452522 -1.08119e-19)
(-0.0555369 0.0425203 3.21591e-23)
(-0.0537988 0.0396496 -4.77909e-20)
(-0.0513055 0.0366884 4.48555e-20)
(-0.0479939 0.0337035 5.52327e-23)
(-0.0437994 0.0307932 -1.18453e-19)
(-0.0386609 0.0281065 -7.39523e-20)
(-0.0325491 0.0258655 1.38373e-19)
(-0.0255824 0.0243632 -1.29429e-19)
(-0.0178789 0.0240002 6.04925e-20)
(-0.00820828 0.0257678 7.76925e-23)
(-0.00230341 0.00600052 1.02825e-19)
(-0.00665273 0.0164537 -3.52783e-20)
(-0.0110935 0.025588 -6.75833e-20)
(-0.0155249 0.0334822 1.93563e-19)
(-0.019891 0.040199 2.10292e-22)
(-0.0241531 0.0458006 0)
(-0.0282684 0.0503557 0)
(-0.032193 0.0539375 5.31311e-20)
(-0.0358844 0.0566214 -5.03853e-20)
(-0.0393018 0.0584846 4.78793e-20)
(-0.0424057 0.0596042 -4.54095e-20)
(-0.045158 0.0600559 -8.6137e-20)
(-0.0475216 0.0599128 1.62722e-19)
(-0.0494604 0.0592437 -3.84865e-20)
(-0.0509377 0.0581127 7.25941e-20)
(-0.0519168 0.0565778 -1.3735e-19)
(-0.0523589 0.0546907 -1.18977e-23)
(-0.0522232 0.052497 4.96591e-23)
(-0.0514654 0.0500364 1.15005e-19)
(-0.0500368 0.0473443 -4.35054e-23)
(-0.047883 0.0444542 0)
(-0.0449434 0.0414013 0)
(-0.0411499 0.0382289 -4.49983e-20)
(-0.036428 0.0349978 -1.68527e-19)
(-0.0306989 0.0318017 1.1849e-19)
(-0.023882 0.0287918 -4.37477e-23)
(-0.0159261 0.0262076 -1.38413e-19)
(-0.00693597 0.0243813 1.29344e-19)
(0.00302573 0.023868 -6.05279e-20)
(0.0151198 0.0261986 5.63746e-20)
(-0.00255227 0.00619461 0)
(-0.00730792 0.0170017 0)
(-0.0120459 0.0264625 6.79358e-20)
(-0.0166751 0.0346505 -1.29435e-19)
(-0.0211439 0.0416255 8.43618e-23)
(-0.0254153 0.0474486 -5.88904e-20)
(-0.0294491 0.0521883 1.68213e-19)
(-0.033204 0.0559185 -1.59933e-19)
(-0.0366401 0.0587162 -3.97618e-24)
(-0.0397189 0.0606605 -4.80165e-20)
(-0.0424031 0.0618311 -1.36697e-19)
(-0.0446562 0.0623064 1.29237e-19)
(-0.0464424 0.0621622 0)
(-0.0477259 0.0614703 0)
(-0.0484701 0.0602971 7.28162e-20)
(-0.0486371 0.058703 1.37695e-19)
(-0.0481864 0.0567416 -6.4906e-20)
(-0.0470742 0.0544596 0)
(-0.0452525 0.0518972 -5.76176e-20)
(-0.0426676 0.049089 1.10417e-23)
(-0.0392592 0.0460662 -5.10542e-20)
(-0.0349592 0.0428599 0)
(-0.0296905 0.0395072 -4.50571e-20)
(-0.0233671 0.0360607 4.22091e-20)
(-0.0158953 0.0326047 -7.89902e-20)
(-0.00717465 0.0292852 2.22008e-19)
(0.00286849 0.0263491 -8.94341e-23)
(0.0141427 0.0241678 6.4685e-20)
(0.0266888 0.0234668 0)
(0.0417015 0.026161 -5.67676e-20)
(-0.00280121 0.00635122 -6.91922e-20)
(-0.00796444 0.0174458 7.11317e-20)
(-0.0130017 0.0271738 1.55932e-22)
(-0.0178295 0.0356025 -6.49825e-20)
(-0.0223989 0.0427888 0)
(-0.0266738 0.0487923 -1.18276e-19)
(-0.0306155 0.0536811 8.38469e-23)
(-0.0341844 0.0575296 5.32843e-20)
(-0.0373426 0.0604162 3.55573e-24)
(-0.0400532 0.0624218 -2.07038e-24)
(-0.0422801 0.0636283 1.36816e-19)
(-0.0439882 0.0641166 4.3226e-20)
(-0.045142 0.0639651 4.09971e-20)
(-0.0457054 0.0632482 -7.7329e-20)
(-0.045641 0.0620348 7.30474e-20)
(-0.0449088 0.0603877 -6.88793e-20)
(-0.0434653 0.0583623 6.5025e-20)
(-0.0412627 0.0560067 -6.12869e-20)
(-0.038248 0.0533617 0)
(-0.0343611 0.0504615 -5.43913e-20)
(-0.0295345 0.0473355 1.02027e-19)
(-0.0236915 0.0440109 4.80081e-20)
(-0.0167449 0.0405184 -4.50926e-20)
(-0.00859701 0.0369008 1.68926e-19)
(0.00086057 0.0332296 -3.9592e-20)
(0.0117485 0.029637 7.40589e-20)
(0.0241658 0.0263641 -6.91283e-20)
(0.0380333 0.0238088 8.66989e-23)
(0.0534619 0.0228522 0)
(0.0719513 0.0258684 -1.12168e-19)
(-0.00304856 0.00647229 -1.14702e-22)
(-0.00861741 0.01779 -7.14329e-20)
(-0.013953 0.0277262 0)
(-0.0189776 0.0363421 -6.53867e-20)
(-0.0236429 0.0436912 6.22484e-20)
(-0.0279127 0.0498318 -9.62587e-23)
(-0.0317487 0.0548315 0)
(-0.0351123 0.0587653 -8.56936e-23)
(-0.0379664 0.0617128 -5.08362e-20)
(-0.040275 0.0637568 4.83017e-20)
(-0.0420029 0.0649812 0)
(-0.0431149 0.0654692 -8.6667e-20)
(-0.0435753 0.0653019 8.21982e-20)
(-0.0433469 0.0645559 0)
(-0.0423899 0.0633028 0)
(-0.0406613 0.0616075 0)
(-0.0381132 0.0595277 0)
(-0.0346924 0.0571129 6.13752e-20)
(-0.0303388 0.0544053 -5.78064e-20)
(-0.0249846 0.0514392 1.63051e-19)
(-0.0185531 0.048243 -1.02242e-19)
(-0.0109573 0.0448411 -9.59487e-20)
(-0.00209897 0.0412584 1.35186e-19)
(0.00813224 0.0375279 6.23808e-23)
(0.019859 0.0337059 -7.91833e-20)
(0.0332205 0.0299042 -7.40568e-20)
(0.0483435 0.0263437 -6.92192e-20)
(0.0651599 0.0234209 1.29237e-19)
(0.0838022 0.0221321 -1.20432e-19)
(0.106361 0.0254912 2.2398e-19)
(-0.00329298 0.00656014 1.3951e-19)
(-0.00926262 0.0180394 -1.32648e-22)
(-0.0148929 0.028126 -1.37361e-19)
(-0.0201091 0.0368751 1.31036e-19)
(-0.0248625 0.0443372 -6.25989e-20)
(-0.0291151 0.0505695 -5.95077e-20)
(-0.032828 0.0556396 5.6615e-20)
(-0.0359626 0.0596231 5.37975e-20)
(-0.0384819 0.0626009 -1.02242e-19)
(-0.0403498 0.0646576 -1.45462e-19)
(-0.0415308 0.0658792 -4.58743e-20)
(-0.0419892 0.0663513 1.73796e-19)
(-0.0416877 0.0661572 -2.46472e-19)
(-0.0405866 0.0653762 7.76874e-20)
(-0.0386429 0.0640822 0)
(-0.0358086 0.0623425 0)
(-0.0320301 0.0602171 0)
(-0.0272465 0.0577578 1.22985e-19)
(-0.0213891 0.0550082 -5.78902e-20)
(-0.01438 0.0520041 -5.45243e-20)
(-0.00613108 0.0487739 -1.02353e-19)
(0.00345681 0.0453408 9.61291e-20)
(0.0144949 0.0417257 -4.51318e-20)
(0.0271068 0.0379534 -8.46459e-20)
(0.0414288 0.034065 -1.00569e-22)
(0.057616 0.0301481 -1.48046e-19)
(0.0758218 0.0263905 2.07629e-19)
(0.0959888 0.0231533 -1.93957e-19)
(0.118205 0.0214796 6.0544e-20)
(0.145497 0.0251992 -5.57121e-20)
(-0.00353348 0.00661742 -6.991e-20)
(-0.00989653 0.0181998 7.19338e-20)
(-0.0158148 0.0283804 6.87642e-20)
(-0.0212142 0.0372089 -1.97355e-19)
(-0.0260438 0.0447335 6.25952e-20)
(-0.0302628 0.0510109 5.97314e-20)
(-0.0338305 0.0561088 0)
(-0.0367071 0.0601041 0)
(-0.0388548 0.0630791 5.11589e-20)
(-0.0402366 0.0651205 9.70276e-20)
(-0.0408157 0.0663164 -1.84206e-19)
(-0.0405544 0.0667547 -8.71063e-23)
(-0.0394128 0.0665212 0)
(-0.0373474 0.0656976 0)
(-0.0343101 0.0643603 -7.34707e-20)
(-0.0302465 0.0625794 3.74743e-23)
(-0.025095 0.0604173 6.53737e-20)
(-0.0187852 0.0579283 -6.15201e-20)
(-0.0112372 0.0551588 -1.15963e-19)
(-0.00236043 0.0521465 1.08951e-19)
(0.00794671 0.0489218 5.1201e-20)
(0.0197979 0.0455085 -1.44369e-19)
(0.0333189 0.041926 -9.01921e-20)
(0.0486478 0.0381939 8.4753e-20)
(0.0659334 0.0343413 7.931e-20)
(0.0853421 0.0304312 7.40823e-20)
(0.10705 0.026611 0)
(0.131012 0.0231751 0)
(0.15717 0.0211077 1.20087e-19)
(0.18993 0.0252132 0)
(-0.00376941 0.00664698 7.05537e-20)
(-0.0105162 0.0182776 -7.24245e-20)
(-0.0167127 0.0284977 1.38551e-19)
(-0.022283 0.0373524 -2.78707e-22)
(-0.0271722 0.0448886 0)
(-0.0313358 0.0511632 0)
(-0.03473 0.0562451 0)
(-0.0373131 0.0602124 -5.41549e-20)
(-0.0390451 0.0631498 5.14226e-20)
(-0.0398872 0.065146 0)
(-0.0397999 0.0662915 9.21797e-20)
(-0.0387425 0.0666768 8.73789e-20)
(-0.0366708 0.0663899 -8.26079e-20)
(-0.0335361 0.0655154 7.80371e-20)
(-0.0292833 0.0641324 -9.48493e-23)
(-0.0238495 0.0623135 -6.9473e-20)
(-0.0171629 0.0601242 -6.54977e-20)
(-0.00914113 0.0576222 1.84978e-19)
(0.000309265 0.0548567 5.79249e-20)
(0.0112938 0.0518693 -1.09154e-19)
(0.0239302 0.0486936 -5.12354e-20)
(0.0383486 0.0453561 4.81128e-20)
(0.0546909 0.041878 0)
(0.0731093 0.0382777 -8.46312e-20)
(0.0937638 0.0345771 -7.92169e-20)
(0.116826 0.0308192 0)
(0.142485 0.0271108 6.89826e-20)
(0.170718 0.0236608 -1.29217e-19)
(0.201166 0.0212503 -1.80272e-19)
(0.240167 0.0258054 0)
(-0.00400039 0.00665171 -1.41273e-19)
(-0.0111191 0.0182795 7.29114e-20)
(-0.0175806 0.0284867 -1.3903e-19)
(-0.0233048 0.0373153 -2.87794e-22)
(-0.0282318 0.0448123 0)
(-0.0323117 0.0510358 0)
(-0.035497 0.0560568 5.73467e-20)
(-0.0377427 0.0599556 1.0892e-19)
(-0.0390058 0.0628193 0)
(-0.0392443 0.0647394 0)
(-0.038415 0.065809 -1.85221e-19)
(-0.0364723 0.0661213 8.7683e-20)
(-0.0333665 0.0657671 -1.40091e-22)
(-0.0290414 0.0648337 0)
(-0.023433 0.0634031 -3.24197e-23)
(-0.0164677 0.0615511 6.95922e-20)
(-0.00806113 0.0593466 -1.604e-22)
(0.00188344 0.0568509 -2.46909e-19)
(0.0134755 0.0541177 -5.80973e-20)
(0.0268379 0.0511929 1.09151e-19)
(0.0421062 0.0481152 1.0252e-19)
(0.0594284 0.0449162 -8.68459e-23)
(0.0789624 0.0416217 9.03231e-20)
(0.100873 0.0382533 1.6925e-19)
(0.125329 0.0348315 7.92139e-20)
(0.152496 0.0313871 7.40096e-20)
(0.182562 0.0279937 6.8909e-20)
(0.215544 0.0247794 1.28465e-19)
(0.250573 0.0221418 -7.5753e-22)
(0.296572 0.0272802 5.41894e-20)
(-0.00422626 0.00663442 1.42308e-19)
(-0.0117031 0.018212 -2.19236e-19)
(-0.0184124 0.0283561 1.39664e-19)
(-0.0242686 0.0371077 1.3327e-19)
(-0.0292048 0.0445153 6.3482e-20)
(-0.0331651 0.0506397 -4.076e-23)
(-0.0360973 0.0555547 -5.72562e-20)
(-0.037952 0.059344 -1.08919e-19)
(-0.038682 0.0620978 2.37979e-22)
(-0.0382407 0.0639109 1.96133e-19)
(-0.03658 0.0648794 -9.31557e-20)
(-0.0336478 0.0650994 1.75645e-19)
(-0.0293866 0.0646649 -1.07892e-22)
(-0.023731 0.0636663 -1.56656e-19)
(-0.0166058 0.0621887 -1.6193e-23)
(-0.00792431 0.0603117 0)
(0.00241293 0.0581079 3.28082e-19)
(0.0145193 0.0556434 6.16751e-20)
(0.0285225 0.0529767 0)
(0.0445641 0.0501597 5.45925e-20)
(0.0627986 0.0472374 -5.13495e-20)
(0.0833913 0.0442486 1.92554e-19)
(0.106514 0.0412263 -2.70947e-19)
(0.132341 0.038199 8.46814e-20)
(0.161039 0.0351915 0)
(0.192759 0.0322305 7.38835e-20)
(0.227662 0.0293685 -1.37945e-19)
(0.26583 0.0266891 1.28426e-19)
(0.30563 0.0239976 -1.195e-19)
(0.359267 0.0299443 -1.09771e-19)
(-0.00444695 0.00659772 -1.42828e-19)
(-0.0122656 0.0180812 -3.60567e-22)
(-0.0192016 0.0281145 -6.99936e-20)
(-0.0251614 0.0367397 -6.67838e-20)
(-0.0300708 0.0440089 -1.27675e-19)
(-0.0338669 0.0499868 6.07151e-20)
(-0.0364914 0.0547517 7.95934e-23)
(-0.0378898 0.0583912 -1.09516e-19)
(-0.0380096 0.0609998 -1.5549e-19)
(-0.0367981 0.0626759 1.47825e-22)
(-0.0342004 0.0635194 9.29005e-20)
(-0.0301565 0.06363 -1.75859e-19)
(-0.0245989 0.0631049 8.3217e-20)
(-0.0174507 0.0620381 7.85624e-20)
(-0.00862312 0.0605187 -9.67038e-24)
(0.00198594 0.05863 6.98173e-20)
(0.0144933 0.0564497 -1.31327e-19)
(0.0290309 0.0540487 0)
(0.045746 0.0514921 -1.16343e-19)
(0.0647995 0.0488383 1.09325e-19)
(0.0863637 0.0461404 -1.02653e-19)
(0.110618 0.0434456 -9.63176e-20)
(0.137744 0.0407963 0)
(0.167914 0.0382301 -2.53572e-19)
(0.201283 0.0357803 1.63177e-22)
(0.237968 0.0334765 -3.69321e-19)
(0.278066 0.0313587 2.07043e-19)
(0.321759 0.0295375 -2.56561e-19)
(0.366379 0.0270011 1.19493e-19)
(0.428034 0.0340724 -1.08499e-19)
(-0.00466239 0.00654382 7.1593e-20)
(-0.0128042 0.0178924 7.36192e-20)
(-0.0199403 0.0277695 7.06793e-20)
(-0.0259687 0.036221 -1.88934e-22)
(-0.0308065 0.0433044 -1.68158e-22)
(-0.034383 0.0490901 0)
(-0.0366335 0.0536621 0)
(-0.0374969 0.0571134 0)
(-0.0369142 0.0595435 0)
(-0.0348254 0.0610553 0)
(-0.0311668 0.061753 9.32333e-20)
(-0.0258683 0.0617404 -8.81695e-20)
(-0.0188506 0.061119 8.34224e-20)
(-0.0100228 0.0599866 8.13215e-24)
(0.000719818 0.0584367 -7.40893e-20)
(0.0134969 0.0565577 1.54403e-23)
(0.0284444 0.0544325 -1.31624e-19)
(0.0457142 0.0521385 1.23824e-19)
(0.065473 0.0497475 1.1634e-19)
(0.0878995 0.0473261 -1.09209e-19)
(0.11318 0.0449361 2.05402e-19)
(0.141503 0.0426345 0)
(0.173046 0.0404737 -1.80371e-19)
(0.207968 0.0385016 3.22596e-22)
(0.246393 0.0367614 3.84514e-22)
(0.288378 0.0352883 5.63452e-22)
(0.333911 0.0341115 -6.84843e-20)
(0.383284 0.033462 1.28135e-19)
(0.432609 0.0312983 1.19023e-19)
(0.502219 0.039874 5.64362e-20)
(-0.0048723 0.00647447 0)
(-0.0133153 0.0176499 7.41785e-20)
(-0.0206194 0.0273277 -7.05002e-20)
(-0.026673 0.0355603 -1.34769e-22)
(-0.0313842 0.0424126 1.28728e-19)
(-0.0346743 0.0479628 -6.1264e-20)
(-0.0364707 0.0523019 0)
(-0.0367052 0.0555295 0)
(-0.0353108 0.0577511 -1.04492e-19)
(-0.0322185 0.0590751 9.91275e-20)
(-0.0273541 0.0596109 9.37973e-20)
(-0.0206352 0.0594671 0)
(-0.0119684 0.0587498 8.36391e-20)
(-0.00124649 0.0575619 0)
(0.011653 0.0560021 -1.48408e-19)
(0.0268693 0.0541644 2.09831e-19)
(0.0445582 0.0521381 1.97472e-19)
(0.0648913 0.0500078 -6.19455e-20)
(0.0880529 0.0478532 -1.17175e-22)
(0.114235 0.0457497 -1.64089e-19)
(0.143632 0.0437685 0)
(0.176426 0.0419763 0)
(0.21278 0.0404356 9.02293e-20)
(0.252814 0.0392034 1.68752e-19)
(0.296592 0.0383314 -1.03848e-22)
(0.344083 0.0378593 1.47496e-19)
(0.395122 0.0377963 1.37478e-19)
(0.45006 0.0385814 0)
(0.50382 0.0369959 -1.19015e-19)
(0.580663 0.0474602 1.63486e-19)
(-0.00507607 0.00639084 7.27714e-20)
(-0.0137944 0.0173568 0)
(-0.0212272 0.0267943 1.61204e-22)
(-0.0272535 0.0347651 -6.79561e-20)
(-0.0317719 0.0413439 6.48523e-20)
(-0.0346951 0.0466182 6.14587e-20)
(-0.0359424 0.0506879 -1.1088e-22)
(-0.0354371 0.0536605 5.55915e-20)
(-0.0331027 0.0556485 0)
(-0.0288596 0.0567668 -1.98789e-19)
(-0.0226213 0.057131 2.66697e-22)
(-0.014291 0.0568551 0)
(-0.00375886 0.0560512 8.38444e-20)
(0.00910036 0.0548278 -2.36985e-19)
(0.0244287 0.0532898 7.44991e-20)
(0.0423856 0.051538 -6.99755e-20)
(0.0631463 0.0496689 -1.31835e-19)
(0.0868998 0.047775 -1.86075e-19)
(0.113843 0.0459449 0)
(0.144174 0.0442629 0)
(0.17808 0.0428094 1.02631e-19)
(0.215724 0.0416602 9.60923e-20)
(0.257227 0.0408855 -9.02718e-20)
(0.302643 0.0405485 0)
(0.35194 0.040705 0)
(0.404958 0.0413931 0)
(0.461349 0.0425913 1.36874e-19)
(0.52138 0.0449745 -6.34698e-20)
(0.579194 0.0441597 1.19563e-19)
(0.661654 0.0568173 1.05986e-19)
(-0.00527261 0.00629342 -1.45751e-19)
(-0.0142353 0.0170145 7.50253e-20)
(-0.0217495 0.0261728 -7.18445e-20)
(-0.0276854 0.0338416 6.84903e-20)
(-0.0319322 0.0401074 -6.48522e-20)
(-0.0343935 0.0450697 6.17515e-20)
(-0.0349798 0.0488381 -5.87494e-20)
(-0.0336048 0.0515297 -1.11059e-19)
(-0.0301815 0.0532652 1.05631e-19)
(-0.0246177 0.0541672 1.9946e-19)
(-0.0168126 0.0543581 9.41154e-20)
(-0.00665308 0.0539589 -8.91236e-20)
(0.00598886 0.0530882 2.20324e-22)
(0.021258 0.0518614 2.35541e-23)
(0.0393165 0.0503906 7.46483e-20)
(0.0603431 0.0487842 0)
(0.0845301 0.0471471 1.3191e-19)
(0.112078 0.0455802 3.10093e-19)
(0.143189 0.044181 -5.835e-20)
(0.178052 0.0430424 0)
(0.216831 0.0422526 -2.05243e-19)
(0.259644 0.0418937 -9.61611e-20)
(0.30654 0.0420399 -8.9901e-20)
(0.357471 0.042755 8.44062e-20)
(0.412267 0.0440914 -7.84933e-20)
(0.470592 0.0460751 7.36155e-20)
(0.531907 0.0486588 -3.48335e-22)
(0.596131 0.0526523 1.26685e-19)
(0.657568 0.0528409 -1.18347e-19)
(0.742869 0.0678323 -2.13266e-19)
(-0.00546008 0.00618206 7.36782e-20)
(-0.0146298 0.0166234 7.54499e-20)
(-0.022169 0.025465 -2.37701e-22)
(-0.0279395 0.0327941 4.01927e-22)
(-0.0318218 0.0387116 0)
(-0.0337101 0.0433301 -2.41866e-22)
(-0.0335053 0.0467713 -1.77293e-19)
(-0.0311109 0.0491626 0)
(-0.0264274 0.0506344 -1.06025e-19)
(-0.0193488 0.0513181 -4.00435e-19)
(-0.0097582 0.0513442 9.47299e-20)
(0.00247557 0.0508415 -8.94103e-20)
(0.0174998 0.0499364 -1.68108e-19)
(0.0354793 0.0487524 1.58871e-19)
(0.0565953 0.0474097 0)
(0.081043 0.0460253 7.01668e-20)
(0.109026 0.0447129 -1.98423e-19)
(0.140748 0.043582 -6.21206e-20)
(0.1764 0.0427381 -1.75041e-19)
(0.216145 0.0422811 0)
(0.260098 0.042304 2.05217e-19)
(0.308301 0.0428903 9.61562e-20)
(0.360694 0.0441115 0)
(0.417084 0.0460234 8.40857e-20)
(0.477124 0.048666 0)
(0.540252 0.0520378 -7.29914e-20)
(0.605755 0.0561029 -2.04228e-19)
(0.672857 0.0615278 -2.53002e-19)
(0.737423 0.0631641 -1.17256e-19)
(0.821227 0.0803771 -3.40595e-21)
(-0.00563583 0.00605588 -7.36782e-20)
(-0.0149675 0.0161819 2.93975e-22)
(-0.0224643 0.0246707 7.25403e-20)
(-0.0279816 0.0316256 -6.88921e-20)
(-0.0313912 0.0371635 -6.56773e-20)
(-0.032578 0.0414121 1.24587e-19)
(-0.031433 0.0445066 5.93897e-20)
(-0.0278479 0.0465863 1.12512e-19)
(-0.0217101 0.0477924 1.06085e-19)
(-0.012898 0.0482661 1.00702e-19)
(-0.00127708 0.0481474 1.90203e-19)
(0.0133026 0.0475741 -3.05585e-22)
(0.031008 0.0466816 0)
(0.0520225 0.0456023 -7.94174e-20)
(0.0765434 0.0444657 -2.16927e-22)
(0.104776 0.0433977 1.31401e-22)
(0.136927 0.0425207 1.98523e-19)
(0.173186 0.0419523 0)
(0.213717 0.0418039 1.16644e-19)
(0.25863 0.0421789 0)
(0.307959 0.0431696 2.53514e-24)
(0.361631 0.0448535 -9.59024e-20)
(0.419436 0.0472898 1.798e-19)
(0.480997 0.0505143 -8.43332e-20)
(0.54575 0.0545422 -1.56711e-19)
(0.612877 0.0593273 7.32037e-20)
(0.681521 0.0649013 2.72041e-19)
(0.749962 0.0713935 6.29276e-20)
(0.817027 0.0753869 2.9141e-19)
(0.893077 0.0939695 5.5422e-20)
(-0.00579621 0.00591339 7.44202e-20)
(-0.0152352 0.0156875 -1.52729e-19)
(-0.0226103 0.0237886 0)
(-0.027772 0.0303376 0)
(-0.0305845 0.0354694 6.60699e-20)
(-0.0309231 0.0393283 -2.66141e-22)
(-0.0286684 0.0420643 -1.18876e-19)
(-0.0236998 0.04383 -1.1271e-19)
(-0.0158901 0.0447786 4.01415e-22)
(-0.0051011 0.0450625 4.17963e-22)
(0.00881987 0.0448322 -9.51063e-20)
(0.0260417 0.0442358 1.79407e-19)
(0.0467494 0.0434186 -1.69382e-19)