/*--------------------------------*- C++ -*----------------------------------*\
  =========                 |
  \\      /  F ield         | OpenFOAM: The Open Source CFD Toolbox
   \\    /   O peration     | Website:  https://openfoam.org
    \\  /    A nd           | Version:  7
     \\/     M anipulation  |
\*---------------------------------------------------------------------------*/
FoamFile
{
    version     2.0;
    format      ascii;
    class       volScalarField;
    location    "55";
    object      p;
}
// * * * * * * * * * * * * * * * * * * * * * * * * * * * * * * * * * * * * * //

dimensions      [0 2 -2 0 0 0 0];

internalField   nonuniform List<scalar> 
928
(
-0.00818054
-0.00797759
-0.00777717
-0.00757925
-0.00738377
-0.00719068
-0.00797993
-0.00777946
-0.0075815
-0.00738597
-0.00719284
-0.0079846
-0.00778405
-0.00758599
-0.00739037
-0.00719715
-0.00799162
-0.00779092
-0.00759272
-0.00739697
-0.00720362
-0.00800096
-0.00780008
-0.0076017
-0.00740577
-0.00721224
-0.00801263
-0.00781152
-0.00761291
-0.00741675
-0.007223
-0.00802662
-0.00782523
-0.00762634
-0.00742992
-0.0072359
-0.00804293
-0.00784121
-0.007642
-0.00744526
-0.00725093
-0.00806153
-0.00785944
-0.00765987
-0.00746277
-0.00726809
-0.00808242
-0.00787992
-0.00767993
-0.00748243
-0.00728736
-0.0081056
-0.00790262
-0.00770219
-0.00750424
-0.00730873
-0.00813103
-0.00792755
-0.00772662
-0.00752818
-0.00733219
-0.00815872
-0.00795469
-0.00775321
-0.00755424
-0.00735772
-0.00818863
-0.00798401
-0.00778194
-0.0075824
-0.00738532
-0.00822076
-0.0080155
-0.0078128
-0.00761264
-0.00741495
-0.00825509
-0.00804914
-0.00784577
-0.00764495
-0.00744662
-0.00829158
-0.0080849
-0.00788083
-0.0076793
-0.00748028
-0.00833022
-0.00812278
-0.00791795
-0.00771568
-0.00751593
-0.00837099
-0.00816274
-0.00795711
-0.00775406
-0.00755355
-0.00841386
-0.00820475
-0.00799829
-0.00779442
-0.0075931
-0.00739428
-0.00845879
-0.00824879
-0.00804146
-0.00783673
-0.00763457
-0.00743491
-0.00829483
-0.00808659
-0.00788096
-0.00767792
-0.0074774
-0.00834284
-0.00813365
-0.00792709
-0.00772313
-0.00752171
-0.00839281
-0.00818262
-0.00797509
-0.00777018
-0.00756783
-0.00844469
-0.00823348
-0.00802495
-0.00781905
-0.00761573
-0.00849832
-0.00828605
-0.00807648
-0.00786956
-0.00766524
-0.00855344
-0.0083401
-0.00812947
-0.00792151
-0.00771617
-0.00861135
-0.00839687
-0.00818514
-0.00797609
-0.00776968
-0.00867579
-0.00845999
-0.00824696
-0.00803664
-0.00782899
-0.00873647
-0.00851938
-0.00830508
-0.00809351
-0.00788464
-0.0076784
-0.00855192
-0.00833756
-0.00812593
-0.00791699
-0.00771068
-0.00867445
-0.00845811
-0.00824452
-0.00803365
-0.00782544
-0.00879131
-0.00857323
-0.00835792
-0.00814535
-0.00793546
-0.00891288
-0.00869301
-0.00847594
-0.00826162
-0.00805
-0.00904223
-0.00882045
-0.00860148
-0.0083853
-0.00817183
-0.00917824
-0.00895445
-0.0087335
-0.00851534
-0.00829993
-0.0093206
-0.00909471
-0.00887168
-0.00865146
-0.00843402
-0.00946909
-0.009241
-0.0090158
-0.00879344
-0.00857387
-0.00962335
-0.009393
-0.00916555
-0.00894095
-0.00871917
-0.00978302
-0.00955031
-0.00932053
-0.00909363
-0.00886956
-0.00994764
-0.00971251
-0.00948033
-0.00925105
-0.00902463
-0.0101168
-0.00987915
-0.00964451
-0.00941279
-0.00918394
-0.0102899
-0.0100497
-0.00981258
-0.00957836
-0.00934704
-0.0104665
-0.0102237
-0.00998403
-0.00974727
-0.00951342
-0.010646
-0.0104006
-0.0101583
-0.009919
-0.00968258
-0.0108279
-0.0105799
-0.010335
-0.010093
-0.009854
-0.0110116
-0.0107609
-0.0105133
-0.0102688
-0.0100271
-0.0111965
-0.0109432
-0.0106929
-0.0104457
-0.0102015
-0.0113821
-0.0111261
-0.0108732
-0.0106234
-0.0103765
-0.0115678
-0.0113092
-0.0110537
-0.0108012
-0.0105517
-0.0117531
-0.0114919
-0.0112338
-0.0109787
-0.0107266
-0.0119376
-0.0116737
-0.011413
-0.0111553
-0.0109006
-0.0121206
-0.0118542
-0.0115909
-0.0113306
-0.0110734
-0.0123018
-0.0120329
-0.011767
-0.0115042
-0.0112445
-0.0124807
-0.0122093
-0.011941
-0.0116757
-0.0114134
-0.0126569
-0.0123831
-0.0121123
-0.0118446
-0.0115799
-0.0128301
-0.0125539
-0.0122807
-0.0120106
-0.0117436
-0.0129999
-0.0127213
-0.0124459
-0.0121735
-0.0119041
-0.013166
-0.0128852
-0.0126075
-0.0123328
-0.0120611
-0.0133281
-0.0130451
-0.0127652
-0.0124883
-0.0122144
-0.013486
-0.0132009
-0.0129189
-0.0126399
-0.0123638
-0.0136394
-0.0133523
-0.0130682
-0.0127872
-0.012509
-0.0137883
-0.0134992
-0.0132131
-0.0129301
-0.0126499
-0.0139324
-0.0136414
-0.0133534
-0.0130684
-0.0127863
-0.0140715
-0.0137787
-0.0134888
-0.013202
-0.0129181
-0.0142055
-0.013911
-0.0136194
-0.0133308
-0.0130451
-0.0143345
-0.0140382
-0.013745
-0.0134547
-0.0131672
-0.0144582
-0.0141603
-0.0138655
-0.0135735
-0.0132845
-0.0145765
-0.0142772
-0.0139808
-0.0136873
-0.0133967
-0.0146896
-0.0143888
-0.0140909
-0.013796
-0.0135038
-0.0147972
-0.014495
-0.0141958
-0.0138994
-0.0136059
-0.0148994
-0.014596
-0.0142954
-0.0139977
-0.0137029
-0.0149962
-0.0146915
-0.0143897
-0.0140908
-0.0137947
-0.0150875
-0.0147817
-0.0144787
-0.0141786
-0.0138813
-0.0151734
-0.0148665
-0.0145624
-0.0142612
-0.0139628
-0.0152538
-0.0149459
-0.0146408
-0.0143386
-0.0140391
-0.0153287
-0.0150199
-0.0147139
-0.0144107
-0.0141102
-0.0153983
-0.0150886
-0.0147817
-0.0144776
-0.0141762
-0.0154624
-0.0151519
-0.0148442
-0.0145393
-0.0142371
-0.015521
-0.0152098
-0.0149014
-0.0145958
-0.0142928
-0.0155743
-0.0152625
-0.0149534
-0.014647
-0.0143434
-0.0156222
-0.0153098
-0.0150001
-0.0146932
-0.0143889
-0.0156648
-0.0153518
-0.0150416
-0.0147341
-0.0144293
-0.0157019
-0.0153885
-0.0150778
-0.0147699
-0.0144646
-0.0157338
-0.01542
-0.0151089
-0.0148005
-0.0144949
-0.0157603
-0.0154462
-0.0151348
-0.0148261
-0.01452
-0.0157815
-0.0154671
-0.0151554
-0.0148465
-0.0145402
-0.0157974
-0.0154828
-0.0151709
-0.0148618
-0.0145553
-0.015808
-0.0154933
-0.0151813
-0.014872
-0.0145653
-0.0158133
-0.0154985
-0.0151864
-0.0148771
-0.0145704
-0.00876907
-0.0088936
-0.00901222
-0.0091356
-0.00926688
-0.00940492
-0.0095494
-0.0097001
-0.00985666
-0.0100187
-0.0101858
-0.0103574
-0.0105331
-0.0107122
-0.0108944
-0.0110789
-0.0112653
-0.0114529
-0.0116411
-0.0118295
-0.0120175
-0.0122045
-0.0123901
-0.0125738
-0.0127552
-0.0129339
-0.0131094
-0.0132815
-0.0134498
-0.0136141
-0.0137741
-0.0139296
-0.0140804
-0.0142264
-0.0143673
-0.0145031
-0.0146337
-0.0147589
-0.0148788
-0.0149933
-0.0151023
-0.0152058
-0.0153037
-0.0153962
-0.0154831
-0.0155645
-0.0156404
-0.0157107
-0.0157756
-0.015835
-0.0158889
-0.0159374
-0.0159805
-0.0160181
-0.0160503
-0.0160771
-0.0160986
-0.0161147
-0.0161254
-0.0161307
-0.00855191
-0.00867444
-0.0087913
-0.00891287
-0.00904222
-0.00917823
-0.00932059
-0.00946907
-0.00962334
-0.009783
-0.00994763
-0.0101167
-0.0102899
-0.0104665
-0.010646
-0.0108278
-0.0110115
-0.0111964
-0.011382
-0.0115678
-0.0117531
-0.0119375
-0.0121206
-0.0123018
-0.0124807
-0.0126569
-0.0128301
-0.0129998
-0.0131659
-0.013328
-0.0134859
-0.0136394
-0.0137883
-0.0139323
-0.0140714
-0.0142055
-0.0143344
-0.0144581
-0.0145765
-0.0146895
-0.0147972
-0.0148994
-0.0149961
-0.0150875
-0.0151733
-0.0152537
-0.0153287
-0.0153982
-0.0154623
-0.015521
-0.0155743
-0.0156222
-0.0156647
-0.0157019
-0.0157337
-0.0157602
-0.0157814
-0.0157973
-0.0158079
-0.0158132
-0.00833755
-0.0084581
-0.00857322
-0.008693
-0.00882043
-0.00895443
-0.00909469
-0.00924099
-0.00939298
-0.00955029
-0.00971249
-0.00987913
-0.0100497
-0.0102237
-0.0104006
-0.0105799
-0.0107609
-0.0109432
-0.0111261
-0.0113092
-0.0114919
-0.0116737
-0.0118542
-0.0120328
-0.0122093
-0.012383
-0.0125538
-0.0127213
-0.0128851
-0.0130451
-0.0132009
-0.0133523
-0.0134992
-0.0136413
-0.0137786
-0.0139109
-0.0140382
-0.0141603
-0.0142771
-0.0143887
-0.014495
-0.0145959
-0.0146915
-0.0147816
-0.0148664
-0.0149458
-0.0150199
-0.0150885
-0.0151518
-0.0152098
-0.0152624
-0.0153097
-0.0153517
-0.0153885
-0.0154199
-0.0154461
-0.015467
-0.0154827
-0.0154932
-0.0154984
-0.00812592
-0.00824451
-0.00835791
-0.00847593
-0.00860147
-0.00873348
-0.00887166
-0.00901579
-0.00916553
-0.00932051
-0.00948031
-0.00964449
-0.00981256
-0.00998401
-0.0101583
-0.0103349
-0.0105133
-0.0106929
-0.0108732
-0.0110537
-0.0112337
-0.011413
-0.0115909
-0.011767
-0.0119409
-0.0121123
-0.0122807
-0.0124459
-0.0126074
-0.0127652
-0.0129188
-0.0130682
-0.0132131
-0.0133533
-0.0134888
-0.0136194
-0.0137449
-0.0138654
-0.0139807
-0.0140909
-0.0141958
-0.0142954
-0.0143897
-0.0144787
-0.0145624
-0.0146408
-0.0147139
-0.0147817
-0.0148442
-0.0149014
-0.0149533
-0.015
-0.0150415
-0.0150778
-0.0151088
-0.0151347
-0.0151554
-0.0151709
-0.0151812
-0.0151864
-0.00791698
-0.00803364
-0.00814534
-0.00826161
-0.00838528
-0.00851533
-0.00865145
-0.00879343
-0.00894094
-0.00909361
-0.00925104
-0.00941277
-0.00957834
-0.00974725
-0.00991897
-0.010093
-0.0102687
-0.0104457
-0.0106234
-0.0108012
-0.0109786
-0.0111553
-0.0113306
-0.0115042
-0.0116757
-0.0118446
-0.0120106
-0.0121734
-0.0123328
-0.0124883
-0.0126398
-0.0127871
-0.01293
-0.0130683
-0.013202
-0.0133308
-0.0134546
-0.0135735
-0.0136873
-0.0137959
-0.0138994
-0.0139977
-0.0140907
-0.0141786
-0.0142612
-0.0143385
-0.0144107
-0.0144776
-0.0145392
-0.0145957
-0.014647
-0.0146931
-0.014734
-0.0147698
-0.0148005
-0.014826
-0.0148464
-0.0148617
-0.0148719
-0.014877
-0.00771067
-0.00782543
-0.00793545
-0.00804999
-0.00817182
-0.00829992
-0.008434
-0.00857385
-0.00871916
-0.00886954
-0.00902461
-0.00918392
-0.00934702
-0.0095134
-0.00968256
-0.00985398
-0.0100271
-0.0102015
-0.0103765
-0.0105517
-0.0107265
-0.00873646
-0.00851937
-0.00830507
-0.00809351
-0.00788463
-0.00867578
-0.00845999
-0.00824696
-0.00803664
-0.00782898
-0.00861134
-0.00839687
-0.00818513
-0.00797608
-0.00776967
-0.00855344
-0.00834009
-0.00812947
-0.00792151
-0.00771617
-0.00849831
-0.00828605
-0.00807648
-0.00786956
-0.00766524
-0.00844469
-0.00823347
-0.00802494
-0.00781904
-0.00761572
-0.0083928
-0.00818261
-0.00797509
-0.00777018
-0.00756782
-0.00834284
-0.00813364
-0.00792709
-0.00772312
-0.00752171
-0.00829483
-0.00808658
-0.00788096
-0.00767791
-0.0074774
-0.00845878
-0.00824879
-0.00804145
-0.00783673
-0.00763456
-0.00743491
-0.00841385
-0.00820475
-0.00799829
-0.00779442
-0.0075931
-0.00739427
-0.00837099
-0.00816273
-0.00795711
-0.00775406
-0.00755355
-0.00833022
-0.00812278
-0.00791795
-0.00771568
-0.00751593
-0.00829158
-0.0080849
-0.00788083
-0.0076793
-0.00748028
-0.00825508
-0.00804913
-0.00784577
-0.00764495
-0.00744661
-0.00822076
-0.00801549
-0.0078128
-0.00761264
-0.00741495
-0.00818863
-0.007984
-0.00778194
-0.00758239
-0.00738532
-0.00815871
-0.00795468
-0.00775321
-0.00755424
-0.00735772
-0.00813103
-0.00792755
-0.00772662
-0.00752818
-0.00733219
-0.00810559
-0.00790262
-0.00770219
-0.00750424
-0.00730873
-0.00808242
-0.00787991
-0.00767993
-0.00748243
-0.00728736
-0.00806153
-0.00785944
-0.00765987
-0.00746277
-0.00726809
-0.00804293
-0.00784121
-0.007642
-0.00744526
-0.00725093
-0.00802662
-0.00782523
-0.00762634
-0.00742992
-0.0072359
-0.00801263
-0.00781152
-0.00761291
-0.00741675
-0.007223
-0.00800096
-0.00780008
-0.0076017
-0.00740577
-0.00721224
-0.00799162
-0.00779092
-0.00759272
-0.00739697
-0.00720362
-0.0079846
-0.00778405
-0.00758599
-0.00739037
-0.00719715
-0.00797993
-0.00777946
-0.0075815
-0.00738597
-0.00719284
-0.00818054
-0.00797759
-0.00777717
-0.00757925
-0.00738377
-0.00719068
)
;

boundaryField
{
    inlet
    {
        type            zeroGradient;
    }
    outlet
    {
        type            fixedValue;
        value           nonuniform 0();
    }
    cylinder
    {
        type            zeroGradient;
    }
    top
    {
        type            symmetryPlane;
    }
    bottom
    {
        type            symmetryPlane;
    }
    defaultFaces
    {
        type            empty;
    }
    procBoundary52to51
    {
        type            processor;
        value           nonuniform List<scalar> 
185
(
-0.00838608
-0.00818293
-0.00818293
-0.0081877
-0.00819486
-0.00820439
-0.0082163
-0.00823058
-0.00824721
-0.00826619
-0.00828751
-0.00831115
-0.0083371
-0.00836535
-0.00839587
-0.00842866
-0.00846368
-0.00850091
-0.00854034
-0.00858193
-0.00862566
-0.0086715
-0.00850576
-0.00850576
-0.00855474
-0.00860571
-0.00865863
-0.00871334
-0.00876956
-0.00882862
-0.0088944
-0.00895641
-0.00876908
-0.00876908
-0.00889361
-0.00901224
-0.00913561
-0.00926689
-0.00940493
-0.00954941
-0.00970011
-0.00985668
-0.0100187
-0.0101858
-0.0103574
-0.0105331
-0.0107123
-0.0108944
-0.0110789
-0.0112653
-0.0114529
-0.0116411
-0.0118295
-0.0120175
-0.0122045
-0.0123902
-0.0125739
-0.0127553
-0.0129339
-0.0131094
-0.0132815
-0.0134499
-0.0136142
-0.0137742
-0.0139297
-0.0140805
-0.0142264
-0.0143673
-0.0145031
-0.0146337
-0.014759
-0.0148789
-0.0149933
-0.0151023
-0.0152058
-0.0153038
-0.0153962
-0.0154832
-0.0155646
-0.0156404
-0.0157108
-0.0157757
-0.0158351
-0.015889
-0.0159375
-0.0159805
-0.0160181
-0.0160504
-0.0160772
-0.0160987
-0.0161147
-0.0161255
-0.0161308
-0.00898907
-0.00911563
-0.00923604
-0.00936124
-0.00949447
-0.00963456
-0.00978119
-0.00993412
-0.010093
-0.0102574
-0.0104269
-0.0106011
-0.0107793
-0.0109611
-0.0111459
-0.0113331
-0.0115222
-0.0117124
-0.0119034
-0.0120944
-0.012285
-0.0124747
-0.0126629
-0.0128491
-0.013033
-0.0132141
-0.013392
-0.0135663
-0.0137369
-0.0139034
-0.0140655
-0.014223
-0.0143757
-0.0145235
-0.0146663
-0.0148038
-0.014936
-0.0150628
-0.0151842
-0.0153
-0.0154104
-0.0155151
-0.0156143
-0.0157078
-0.0157958
-0.0158782
-0.015955
-0.0160262
-0.0160918
-0.0161519
-0.0162065
-0.0162555
-0.0162991
-0.0163371
-0.0163697
-0.0163969
-0.0164186
-0.0164348
-0.0164457
-0.0164511
-0.0089564
-0.0088944
-0.00882861
-0.00876955
-0.00871333
-0.00865863
-0.0086057
-0.00855473
-0.00850575
-0.00850575
-0.00867149
-0.00862565
-0.00858192
-0.00854033
-0.00850091
-0.00846367
-0.00842865
-0.00839587
-0.00836535
-0.0083371
-0.00831115
-0.00828751
-0.00826619
-0.00824721
-0.00823057
-0.0082163
-0.00820439
-0.00819486
-0.0081877
-0.00818293
-0.00818293
-0.00838608
)
;
    }
    procBoundary52to53
    {
        type            processor;
        value           nonuniform List<scalar> 
185
(
-0.00699995
-0.00700206
-0.00700629
-0.00701262
-0.00702107
-0.00703161
-0.00704425
-0.00705898
-0.00707579
-0.00709467
-0.00711561
-0.0071386
-0.00716362
-0.00719066
-0.0072197
-0.00725073
-0.00728372
-0.00731865
-0.00735551
-0.00735551
-0.0071979
-0.00723773
-0.00727937
-0.00732279
-0.00736799
-0.00741494
-0.00746347
-0.0075134
-0.00756585
-0.00762394
-0.00762394
-0.00747475
-0.00750696
-0.00761985
-0.00772821
-0.00784104
-0.00796104
-0.00808722
-0.00821929
-0.00835704
-0.00850015
-0.00864827
-0.00880101
-0.00895792
-0.00911856
-0.00928243
-0.00944905
-0.00961789
-0.00978844
-0.00996017
-0.0101326
-0.0103052
-0.0104774
-0.0106489
-0.0108191
-0.0109877
-0.0111541
-0.0113182
-0.0114794
-0.0116376
-0.0117923
-0.0119435
-0.0120907
-0.0122338
-0.0123727
-0.0125072
-0.012637
-0.0127622
-0.0128827
-0.0129982
-0.0131089
-0.0132145
-0.0133152
-0.0134108
-0.0135013
-0.0135867
-0.0136671
-0.0137423
-0.0138125
-0.0138776
-0.0139376
-0.0139925
-0.0140424
-0.0140873
-0.0141272
-0.014162
-0.0141918
-0.0142166
-0.0142365
-0.0142514
-0.0142613
-0.0142663
-0.0109006
-0.0110734
-0.0112444
-0.0114134
-0.0115799
-0.0117435
-0.011904
-0.0120611
-0.0122144
-0.0123638
-0.012509
-0.0126499
-0.0127863
-0.012918
-0.013045
-0.0131672
-0.0132844
-0.0133966
-0.0135038
-0.0136059
-0.0137028
-0.0137946
-0.0138812
-0.0139627
-0.014039
-0.0141102
-0.0141762
-0.014237
-0.0142928
-0.0143434
-0.0143888
-0.0144292
-0.0144646
-0.0144948
-0.01452
-0.0145401
-0.0145552
-0.0145653
-0.0145703
-0.00750695
-0.00767839
-0.00761983
-0.00772819
-0.00784103
-0.00796103
-0.00808721
-0.00821927
-0.00835702
-0.00850014
-0.00864826
-0.00880099
-0.0089579
-0.00911854
-0.00928241
-0.00944903
-0.00961787
-0.00978842
-0.00996015
-0.0101326
-0.0103051
-0.0109006
-0.0104774
-0.00767839
-0.00762393
-0.00756585
-0.0075134
-0.00746347
-0.00741493
-0.00736799
-0.00732279
-0.00727936
-0.00723772
-0.0071979
-0.00735551
-0.00735551
-0.00731865
-0.00728371
-0.00725072
-0.0072197
-0.00719066
-0.00716362
-0.0071386
-0.00711561
-0.00709467
-0.00707579
-0.00705898
-0.00704425
-0.00703161
-0.00702107
-0.00701262
-0.00700629
-0.00700206
-0.00699995
)
;
    }
}


// ************************************************************************* //
