/*--------------------------------*- C++ -*----------------------------------*\
  =========                 |
  \\      /  F ield         | OpenFOAM: The Open Source CFD Toolbox
   \\    /   O peration     | Website:  https://openfoam.org
    \\  /    A nd           | Version:  7
     \\/     M anipulation  |
\*---------------------------------------------------------------------------*/
FoamFile
{
    version     2.0;
    format      ascii;
    class       surfaceScalarField;
    location    "50";
    object      phi;
}
// * * * * * * * * * * * * * * * * * * * * * * * * * * * * * * * * * * * * * //

dimensions      [0 3 -1 0 0 0 0];

internalField   nonuniform List<scalar> 
17388
(
-3.75342e-06
-6.01854e-06
9.77196e-06
-1.35453e-05
-1.85661e-05
2.8358e-05
-2.83928e-05
-3.13893e-05
4.62369e-05
-4.74339e-05
-4.38943e-05
6.29354e-05
-6.99007e-05
-5.57157e-05
7.81825e-05
-9.51054e-05
-6.67445e-05
9.19493e-05
-0.000122425
-7.70985e-05
0.000104418
-0.000151285
-8.70722e-05
0.000115933
-0.000181147
-9.70727e-05
0.000126934
-0.00021149
-0.000107551
0.000137894
-0.000241806
-0.000118937
0.000149253
-0.000271598
-0.00013159
0.000161382
-0.000300387
-0.00014576
0.000174549
-0.000327743
-0.00016156
0.000188916
-0.00035334
-0.000178947
0.000204544
-0.000377032
-0.000197712
0.000221404
-0.000398968
-0.000217475
0.000239411
-0.000419711
-0.000237714
0.000258458
-0.000440342
-0.00025783
0.00027846
-0.000462494
-0.000277212
0.000299365
-0.000295327
0.000321225
-0.000488393
-3.8786e-06
-2.13994e-06
-1.39749e-05
-8.46989e-06
-2.92584e-05
-1.61058e-05
-4.88304e-05
-2.43224e-05
-7.18959e-05
-3.26502e-05
-9.77503e-05
-4.08901e-05
-0.000125763
-4.90859e-05
-0.00015536
-5.74753e-05
-0.000186007
-6.64257e-05
-0.000217193
-7.63643e-05
-0.000248418
-8.77118e-05
-0.000279185
-0.000100823
-0.000309005
-0.00011594
-0.000337425
-0.00013314
-0.000364072
-0.0001523
-0.00038874
-0.000173044
-0.000411505
-0.000194711
-0.000432865
-0.000216353
-0.000453876
-0.000236819
-0.000476208
-0.00025488
-0.000269347
-0.000502187
-3.94422e-06
1.80428e-06
-1.41976e-05
1.78348e-06
-2.97014e-05
-6.01968e-07
-4.95336e-05
-4.49022e-06
-7.28827e-05
-9.30115e-06
-9.90345e-05
-1.47383e-05
-0.000127356
-2.07642e-05
-0.000157279
-2.7553e-05
-0.000188277
-3.54277e-05
-0.00021985
-4.47907e-05
-0.000251506
-5.60556e-05
-0.000282746
-6.95843e-05
-0.000313059
-8.56266e-05
-0.000341941
-0.000104258
-0.000368931
-0.000125309
-0.000393692
-0.000148283
-0.000416128
-0.000172274
-0.000436562
-0.00019592
-0.000455912
-0.000217469
-0.00047583
-0.000234962
-0.000246376
-0.000498801
-3.94744e-06
5.75172e-06
-1.42041e-05
1.20401e-05
-2.97027e-05
1.48966e-05
-4.95122e-05
1.53193e-05
-7.2814e-05
1.40007e-05
-9.88911e-05
1.13387e-05
-0.000127113
7.45749e-06
-0.000156917
2.25154e-06
-0.000187792
-4.5534e-06
-0.000219248
-1.33337e-05
-0.000250804
-2.45003e-05
-0.000281955
-3.84333e-05
-0.000312166
-5.54157e-05
-0.000340867
-7.55573e-05
-0.000367477
-9.86991e-05
-0.000391467
-0.000124293
-0.000412483
-0.000151258
-0.000430544
-0.000177859
-0.000446302
-0.000201712
-0.000461291
-0.000219973
-0.000229484
-0.000478183
-3.88721e-06
9.63893e-06
-1.39906e-05
2.21435e-05
-2.92536e-05
3.01596e-05
-4.8749e-05
3.48148e-05
-7.16597e-05
3.69114e-05
-9.72702e-05
3.69492e-05
-0.000124955
3.51418e-05
-0.000154159
3.14564e-05
-0.000184384
2.56709e-05
-0.000215154
1.74365e-05
-0.000245996
6.34199e-06
-0.000276407
-8.02249e-06
-0.000305825
-2.59973e-05
-0.000333615
-4.77679e-05
-0.000359061
-7.32528e-05
-0.000381411
-0.000101943
-0.000399975
-0.000132694
-0.000414348
-0.000163486
-0.000424753
-0.000191306
-0.000432441
-0.000212285
-0.000221708
-0.000440218
-3.76451e-06
1.34034e-05
-1.35594e-05
3.19384e-05
-2.83563e-05
4.49565e-05
-4.72429e-05
5.37014e-05
-6.94092e-05
5.90777e-05
-9.41438e-05
6.16838e-05
-0.000120824
6.18225e-05
-0.000148904
5.9536e-05
-0.00017789
5.4657e-05
-0.00020732
4.68665e-05
-0.00023673
3.57517e-05
-0.000265618
2.08655e-05
-0.000293405
1.78985e-06
-0.000319399
-2.17743e-05
-0.000342761
-4.98903e-05
-0.00036251
-8.21941e-05
-0.000377586
-0.000117618
-0.000387059
-0.000154013
-0.000390549
-0.000187817
-0.000388778
-0.000214055
-0.000226005
-0.000384481
-3.58252e-06
1.6986e-05
-1.29197e-05
4.12756e-05
-2.70256e-05
5.90624e-05
-4.50106e-05
7.16864e-05
-6.6075e-05
8.01421e-05
-8.95103e-05
8.51191e-05
-0.000114694
8.70059e-05
-0.000141077
8.59192e-05
-0.000168168
8.17482e-05
-0.000195507
7.42054e-05
-0.000222633
6.28776e-05
-0.000249045
4.72773e-05
-0.000274154
2.68998e-05
-0.000297226
1.29743e-06
-0.000317333
-2.97837e-05
-0.000333295
-6.62316e-05
-0.000343699
-0.000107214
-0.000347048
-0.000150664
-0.000342214
-0.000192651
-0.000329113
-0.000227156
-0.000245175
-0.000309944
-3.34666e-06
2.03326e-05
-1.20877e-05
5.00167e-05
-2.52894e-05
7.2264e-05
-4.20889e-05
8.84858e-05
-6.1696e-05
9.97492e-05
-8.34001e-05
0.000106823
-0.000106569
0.000110175
-0.000130642
0.000109992
-0.000155113
0.000106218
-0.000179506
9.85987e-05
-0.000203349
8.67212e-05
-0.000226132
7.00595e-05
-0.00024725
4.80184e-05
-0.000265951
1.99979e-05
-0.000281239
-1.44955e-05
-0.000291812
-5.56589e-05
-0.000295976
-0.000103049
-0.000291719
-0.000154922
-0.000277129
-0.000207241
-0.000251182
-0.000253104
-0.000281684
-0.000214673
-3.06469e-06
2.33973e-05
-1.10868e-05
5.80387e-05
-2.31889e-05
8.43662e-05
-3.85344e-05
0.000103831
-5.63381e-05
0.000117553
-7.58787e-05
0.000126364
-9.6502e-05
0.000130798
-0.000117615
0.000131106
-0.000138676
0.000127279
-0.000159171
0.000119093
-0.000178587
0.000106137
-0.000196374
8.78468e-05
-0.000211898
6.35429e-05
-0.000224375
3.24747e-05
-0.000232777
-6.09326e-06
-0.000235739
-5.26976e-05
-0.000231403
-0.000107385
-0.000217373
-0.000168952
-0.000191006
-0.000233608
-0.000150788
-0.000293322
-0.000336575
-9.58959e-05
-2.74638e-06
2.61437e-05
-9.94644e-06
6.52388e-05
-2.07772e-05
9.51969e-05
-3.44225e-05
0.000117477
-5.00938e-05
0.000133224
-6.70464e-05
0.000143316
-8.45862e-05
0.000148338
-0.000102068
0.000148587
-0.000118883
0.000144094
-0.000134443
0.000134654
-0.000148156
0.00011985
-0.00015939
9.90806e-05
-0.000167433
7.15866e-05
-0.000171437
3.64787e-05
-0.000170332
-7.19853e-06
-0.000162721
-6.03086e-05
-0.000146686
-0.00012342
-0.000119587
-0.00019605
-7.78583e-05
-0.000275337
-1.73405e-05
-0.00035384
-0.000408835
5.4919e-05
-2.40308e-06
2.85468e-05
-8.70124e-06
7.1537e-05
-1.81167e-05
0.000104612
-2.98436e-05
0.000129203
-4.30769e-05
0.000146458
-5.70328e-05
0.000157272
-7.0957e-05
0.000162263
-8.41237e-05
0.000161754
-9.58262e-05
0.000155797
-0.00010536
0.000144187
-0.000112
0.00012649
-0.000114974
0.000102055
-0.00011343
7.00418e-05
-0.000106385
2.9434e-05
-9.26677e-05
-2.09158e-05
-7.08639e-05
-8.21124e-05
-3.90386e-05
-0.000155246
5.42903e-06
-0.000240518
6.63613e-05
-0.000336269
0.000147809
-0.000435288
-0.000515878
0.000254852
-2.04706e-06
3.05938e-05
-7.3883e-06
7.68782e-05
-1.5275e-05
0.000112499
-2.48959e-05
0.000138824
-3.54134e-05
0.000156975
-4.59855e-05
0.000167844
-5.57743e-05
0.000172051
-6.39448e-05
0.000169924
-6.96546e-05
0.000161506
-7.20369e-05
0.00014657
-7.01796e-05
0.000124632
-6.31018e-05
9.49773e-05
-4.97305e-05
5.66705e-05
-2.88747e-05
8.57812e-06
7.89383e-07
-5.05799e-05
4.09309e-05
-0.000122254
9.33393e-05
-0.000207654
0.000160563
-0.000307741
0.000246092
-0.000421798
0.000354946
-0.000544142
-0.00065696
0.000496028
-1.69056e-06
3.22844e-05
-6.04448e-06
8.12321e-05
-1.23188e-05
0.000118773
-1.96768e-05
0.000146182
-2.72284e-05
0.000164527
-3.40515e-05
0.000174668
-3.91995e-05
0.000177199
-4.16973e-05
0.000172422
-4.05288e-05
0.000160338
-3.46189e-05
0.00014066
-2.28127e-05
0.000112826
-3.85463e-06
7.60192e-05
2.36305e-05
2.91854e-05
6.11412e-05
-2.89326e-05
0.000110321
-9.97596e-05
0.00017289
-0.000184823
0.000250816
-0.000285579
0.000346345
-0.00040327
0.000462556
-0.000538009
0.000603823
-0.000685409
-0.000835476
0.000782339
-1.34467e-06
3.36291e-05
-4.70274e-06
8.45902e-05
-9.30738e-06
0.000123378
-1.42713e-05
0.000151146
-1.86287e-05
0.000168884
-2.13534e-05
0.000177392
-2.13626e-05
0.000177208
-1.75089e-05
0.000168568
-8.565e-06
0.000151394
6.79681e-06
0.000125298
3.00262e-05
8.95969e-05
6.27098e-05
4.33356e-05
0.00010658
-1.46843e-05
0.000163506
-8.58591e-05
0.000235469
-0.000171723
0.000324497
-0.000273851
0.000432618
-0.000393701
0.000561823
-0.000532475
0.000714501
-0.000690687
0.000893305
-0.000864213
-0.00105513
0.00111296
-1.01818e-06
3.46472e-05
-3.38834e-06
8.69603e-05
-6.28429e-06
0.000126274
-8.73911e-06
0.000153601
-9.6846e-06
0.00016983
-7.96303e-06
0.000175671
-2.32565e-06
0.000171571
8.58055e-06
0.000157662
2.62321e-05
0.000133743
5.22504e-05
9.92797e-05
8.84206e-05
5.34267e-05
0.000136702
-4.94547e-06
0.000199219
-7.72016e-05
0.000278234
-0.000164875
0.00037608
-0.000269569
0.000495052
-0.000392823
0.000637263
-0.000535911
0.000804422
-0.000699634
0.000998078
-0.000884342
0.00121869
-0.00108483
-0.0013181
0.00148166
-7.1641e-07
3.53637e-05
-2.11506e-06
8.8359e-05
-3.27047e-06
0.000127429
-3.10256e-06
0.000153433
-4.10672e-07
0.000167138
6.12476e-06
0.000169135
1.79521e-05
0.000159744
3.66653e-05
0.000138949
6.40274e-05
0.00010638
0.00010199
6.13168e-05
0.000152707
2.71028e-06
0.000218526
-7.07646e-05
0.000301963
-0.000160639
0.000405632
-0.000268544
0.000532133
-0.00039607
0.000683888
-0.000544578
0.00086292
-0.000714944
0.00107054
-0.000907257
0.00130718
-0.00112098
0.00157141
-0.00134905
-0.00162306
0.00187636
-4.40303e-07
3.5804e-05
-8.81878e-07
8.88006e-05
-2.55359e-07
0.000126803
2.66361e-06
0.000150514
9.24738e-06
0.000160554
2.10124e-05
0.00015737
3.96413e-05
0.000141115
6.70069e-05
0.000111583
0.000105195
6.81928e-05
0.000156516
9.99552e-06
0.000223505
-6.42791e-05
0.000308889
-0.000156148
0.000415513
-0.000267263
0.000546228
-0.000399258
0.0007037
-0.000553542
0.000890182
-0.00073106
0.00110723
-0.000931992
0.00135544
-0.00115546
0.00163361
-0.00139915
0.00193939
-0.00165483
-0.00196337
0.0022797
-1.85924e-07
3.59899e-05
3.28725e-07
8.82859e-05
2.79646e-06
0.000124335
8.63774e-06
0.000144673
1.94256e-05
0.000149766
3.69124e-05
0.000139883
6.30556e-05
0.000114972
0.000100044
7.45946e-05
0.000150317
1.79206e-05
0.000216558
-5.62455e-05
0.000301667
-0.000149389
0.000408684
-0.000263165
0.000540655
-0.000399234
0.000700435
-0.000559038
0.000890427
-0.000743535
0.00111227
-0.000952898
0.00136648
-0.00118621
0.00165237
-0.00144136
0.00196668
-0.00171346
0.00230711
-0.00199526
-0.00232639
0.00267013
5.60246e-08
3.59339e-05
1.54762e-06
8.67943e-05
5.96643e-06
0.000119916
1.4957e-05
0.000135682
3.03404e-05
0.000134383
5.41459e-05
0.000116078
8.86451e-05
8.04726e-05
0.000136376
2.6864e-05
0.000200144
-4.58479e-05
0.000282994
-0.000139095
0.000388126
-0.00025452
0.00051875
-0.00039379
0.000677875
-0.000558359
0.000868008
-0.000749171
0.00109081
-0.000966339
0.00134673
-0.00120881
0.00163464
-0.00147411
0.00195181
-0.00175853
0.0022929
-0.00205455
0.00265588
-0.00235824
-0.00269391
0.00302341
3.00271e-07
3.56336e-05
2.83151e-06
8.42631e-05
9.36228e-06
0.000113386
2.18091e-05
0.000123235
4.22817e-05
0.00011391
7.31274e-05
8.52322e-05
0.000116967
3.66335e-05
0.000176704
-3.28736e-05
0.000255503
-0.000124647
0.000356702
-0.000240294
0.000483659
-0.000381477
0.000639518
-0.000549648
0.00082688
-0.000745721
0.00104742
-0.000969714
0.00130148
-0.0012204
0.0015877
-0.00149503
0.00190281
-0.00178922
0.00224148
-0.00209719
0.00259686
-0.00240993
0.00296523
-0.00272662
-0.0030456
0.00331693
5.6568e-07
3.50679e-05
4.24326e-06
8.05855e-05
1.31195e-05
0.000104509
2.94232e-05
0.000106932
5.55939e-05
8.77394e-05
9.43328e-05
4.64933e-05
0.000148631
-1.76646e-05
0.000221753
-0.000105996
0.00031716
-0.000220054
0.000438348
-0.000361483
0.000588598
-0.000531727
0.000770617
-0.000731668
0.000986117
-0.000961221
0.00123536
-0.00121896
0.00151676
-0.0015018
0.00182667
-0.00180494
0.00215945
-0.002122
0.00250739
-0.00244514
0.00286329
-0.00276583
0.00321652
-0.00307985
-0.00335366
0.00352458
8.74092e-07
3.41938e-05
5.85785e-06
7.56017e-05
1.73915e-05
9.29757e-05
3.80533e-05
8.627e-05
7.06474e-05
5.51452e-05
0.000118253
-1.11197e-06
0.000184229
-8.36411e-05
0.00027215
-0.000193917
0.00038565
-0.000333553
0.000528156
-0.000503989
0.000702513
-0.000706084
0.000910517
-0.000939671
0.00115241
-0.00120312
0.00142647
-0.00149301
0.00172873
-0.00180406
0.00205304
-0.00212925
0.00239155
-0.00246051
0.00273517
-0.00278875
0.00307693
-0.0031076
0.00340312
-0.00340604
-0.00368459
0.00373404
1.24904e-06
3.29448e-05
7.75449e-06
6.90963e-05
2.23378e-05
7.83924e-05
4.79562e-05
6.06516e-05
8.78022e-05
1.52992e-05
0.000145336
-5.86459e-05
0.000224244
-0.000162549
0.000328299
-0.000297972
0.000461098
-0.000466353
0.000625666
-0.000668557
0.000823953
-0.000904371
0.00105629
-0.001172
0.00132089
-0.00146772
0.0016136
-0.00178573
0.00192795
-0.0021184
0.00225557
-0.00245688
0.00258713
-0.00279207
0.00291355
-0.00311516
0.00322685
-0.0034209
0.00352117
-0.00370036
-0.00396608
0.00380266
1.71386e-06
3.12309e-05
1.00104e-05
6.07997e-05
2.81101e-05
6.02927e-05
5.9368e-05
2.93937e-05
0.000107369
-3.27021e-05
0.000175924
-0.0001272
0.000268953
-0.000255578
0.000390245
-0.000419264
0.000543051
-0.000619159
0.00072956
-0.000855066
0.000950297
-0.00112511
0.00120358
-0.00142529
0.0014852
-0.00174934
0.00178846
-0.00208899
0.00210468
-0.00243462
0.00242412
-0.00277632
0.00273719
-0.00310514
0.00303577
-0.00341374
0.00331374
-0.00369888
0.00356881
-0.00395542
-0.00419697
0.0037997
2.2899e-06
2.8941e-05
1.26947e-05
5.03949e-05
3.48394e-05
3.81481e-05
7.24782e-05
-8.24509e-06
0.000129566
-8.97903e-05
0.000210189
-0.000207823
0.000318345
-0.000363734
0.000457564
-0.000558482
0.000630356
-0.000791951
0.000837571
-0.00106228
0.00107779
-0.00136532
0.00134691
-0.00169441
0.00163818
-0.00204061
0.00194269
-0.0023935
0.00225039
-0.00274231
0.00255135
-0.00307728
0.0028371
-0.00339089
0.00310169
-0.00367834
0.00334193
-0.00393912
0.00355804
-0.00417153
-0.00439054
0.00375161
2.99505e-06
2.5946e-05
1.58628e-05
3.75272e-05
4.26228e-05
1.1388e-05
8.74081e-05
-5.30304e-05
0.000154485
-0.000156867
0.000248083
-0.000301422
0.000372048
-0.000487699
0.000529292
-0.000715727
0.000721119
-0.000983779
0.000946535
-0.0012877
0.00120176
-0.00162055
0.00148015
-0.0019728
0.0017727
-0.00233317
0.00206909
-0.00268989
0.00235904
-0.00303227
0.00263378
-0.00335202
0.00288707
-0.00364419
0.00311586
-0.00390713
0.0033199
-0.00414315
0.00350211
-0.00435375
-0.0045534
0.00366497
3.84268e-06
2.21033e-05
1.95521e-05
2.18178e-05
5.15146e-05
-2.05744e-05
0.000104192
-0.000105708
0.000182059
-0.000234733
0.000289298
-0.000408661
0.000429288
-0.000627689
0.000603906
-0.000890344
0.000812762
-0.00119263
0.0010526
-0.00152753
0.0013171
-0.00188505
0.00159731
-0.00225301
0.00188271
-0.00261856
0.00216264
-0.00296982
0.00242789
-0.00329752
0.00267189
-0.00359602
0.00289127
-0.00386356
0.00308588
-0.00410174
0.00325799
-0.00431526
0.0034121
-0.00450785
-0.00469298
0.00355168
4.84103e-06
1.72623e-05
2.37797e-05
2.87911e-06
6.15189e-05
-5.83136e-05
0.000122767
-0.000166956
0.000212049
-0.000324015
0.000333244
-0.000529856
0.000488892
-0.000783337
0.000679374
-0.00108083
0.000902181
-0.00141544
0.00115156
-0.00177691
0.00141881
-0.0021523
0.00169329
-0.00252749
0.00196396
-0.00288923
0.00222108
-0.00322693
0.00245751
-0.00353395
0.00266944
-0.00380795
0.00285639
-0.00405052
0.00302063
-0.00426598
0.00316605
-0.00446068
0.00329784
-0.00463963
-0.00481471
0.00341957
5.99298e-06
1.12693e-05
2.85403e-05
-1.96682e-05
7.25864e-05
-0.00010236
0.000142962
-0.000237332
0.000244036
-0.00042509
0.000379062
-0.000664881
0.000549323
-0.000953598
0.000753277
-0.00128478
0.000986005
-0.00164817
0.0012393
-0.00203021
0.00150259
-0.00241558
0.00176446
-0.00278936
0.00201451
-0.00313929
0.00224488
-0.0034573
0.00245109
-0.00374017
0.00263219
-0.00398904
0.00279007
-0.0042084
0.00292863
-0.00440454
0.00305254
-0.00458459
0.00316689
-0.00475398
-0.00492273
0.00327491
7.29614e-06
3.97314e-06
3.38064e-05
-4.61784e-05
8.46129e-05
-0.000153166
0.000164503
-0.000317222
0.000277426
-0.000538013
0.000425643
-0.000813098
0.000608763
-0.00113672
0.000822983
-0.001499
0.00106091
-0.00188609
0.00131224
-0.00228155
0.00156532
-0.00266866
0.00180904
-0.00303308
0.00203461
-0.00336486
0.00223668
-0.00365937
0.00241355
-0.00391704
0.00256668
-0.00414217
0.00269967
-0.00434138
0.00281721
-0.00452208
0.00292403
-0.00469142
0.00302468
-0.00485463
-0.00501982
0.00312176
8.74296e-06
-4.76982e-06
3.95282e-05
-7.69637e-05
9.74405e-05
-0.000211079
0.000187015
-0.000406796
0.000311469
-0.000662468
0.000471686
-0.000973314
0.000665233
-0.00133027
0.000885873
-0.00171964
0.00112394
-0.00212416
0.00136769
-0.0025253
0.00160534
-0.00290631
0.00182705
-0.00325479
0.00202635
-0.00356415
0.00220056
-0.00383358
0.00235046
-0.00406694
0.00247928
-0.00427099
0.00259155
-0.00445366
0.00269213
-0.00462265
0.00278533
-0.00478463
0.00287493
-0.00494423
-0.00510771
0.00296283
1.03209e-05
-1.50907e-05
4.56344e-05
-0.000112277
0.00011086
-0.000276304
0.000210028
-0.000505965
0.000345289
-0.000797728
0.000515769
-0.00114379
0.000716738
-0.00153124
0.000939567
-0.00194247
0.00117279
-0.00235738
0.00140406
-0.00275658
0.00162243
-0.00312467
0.00182005
-0.00345241
0.00199303
-0.00373713
0.00214121
-0.00398177
0.00226727
-0.00419301
0.00237554
-0.00437925
0.00247083
-0.00454895
0.00255767
-0.0047095
0.00263977
-0.00486672
0.00272005
-0.00502452
-0.00518746
0.0027998
1.20122e-05
-2.71029e-05
5.20326e-05
-0.000152297
0.000124614
-0.000348886
0.000233002
-0.000614352
0.000377923
-0.000942649
0.00055644
-0.00132231
0.000761421
-0.00173622
0.000982129
-0.00216318
0.00120598
-0.00258123
0.00142093
-0.00297152
0.00161762
-0.00332136
0.00179062
-0.00362541
0.00193855
-0.00388506
0.00206332
-0.00410653
0.00216887
-0.00429856
0.00225999
-0.00447038
0.00234135
-0.00463031
0.00241688
-0.00478503
0.00248957
-0.00493941
0.00256161
-0.00509656
-0.00525959
0.00263374
1.37943e-05
-4.08972e-05
5.86108e-05
-0.000197114
0.000138408
-0.000428683
0.000255337
-0.000731281
0.000408377
-0.00109569
0.000592314
-0.00150625
0.000797707
-0.00194161
0.00101221
-0.00237768
0.00122292
-0.00279194
0.00141888
-0.00316749
0.00159287
-0.00349535
0.00174194
-0.00377448
0.00186689
-0.00401002
0.00197113
-0.00421077
0.0020593
-0.00438672
0.00213616
-0.00454724
0.00220591
-0.00470006
0.00227182
-0.00485094
0.00233619
-0.00500377
0.00240058
-0.00516095
-0.00532436
0.00246535
1.56391e-05
-5.65363e-05
6.52395e-05
-0.000246714
0.000151912
-0.000515355
0.000276408
-0.000855777
0.000435682
-0.00125496
0.000622171
-0.00169274
0.000824417
-0.00214386
0.00102911
-0.00258238
0.00122382
-0.00298665
0.00139931
-0.00334297
0.00155069
-0.00364674
0.00167733
-0.00390112
0.00178175
-0.00411444
0.00186829
-0.00429731
0.00194177
-0.00446021
0.00200665
-0.00461212
0.00206649
-0.0047599
0.0021239
-0.00490835
0.00218059
-0.00506047
0.00223764
-0.005218
-0.00538184
0.00229511
1.7514e-05
-7.40503e-05
7.17745e-05
-0.000300975
0.00016478
-0.000608361
0.000295593
-0.00098659
0.000458954
-0.00141833
0.000645037
-0.00187882
0.000840829
-0.00233965
0.00103277
-0.00277432
0.00120959
-0.00316346
0.00136412
-0.00349751
0.00149383
-0.00377644
0.0016
-0.00400728
0.00168637
-0.00420082
0.00175773
-0.00436867
0.00181875
-0.00452122
0.00187333
-0.0046667
0.00192443
-0.004811
0.00197404
-0.00495796
0.00202341
-0.00510983
0.00207323
-0.00526782
-0.00543201
0.0021234
1.9382e-05
-9.34323e-05
7.8062e-05
-0.000359655
0.000176661
-0.00070696
0.000312306
-0.00112223
0.000477445
-0.00158346
0.000660239
-0.00206161
0.000846689
-0.0025261
0.00102368
-0.00295131
0.00118159
-0.00332137
0.00131551
-0.00363142
0.00142498
-0.00388591
0.0015128
-0.0040951
0.00158346
-0.00427148
0.00164178
-0.00442699
0.00169204
-0.00457148
0.00173756
-0.00471222
0.00178068
-0.00485412
0.0018229
-0.00500018
0.0018651
-0.00515204
0.00190771
-0.00531042
-0.00547482
0.00195052
2.12029e-05
-0.000114635
8.39439e-05
-0.000422396
0.000187218
-0.000810234
0.000326032
-0.00126105
0.000490591
-0.00174802
0.000667424
-0.00223845
0.000842173
-0.00270085
0.00100276
-0.0031119
0.00114151
-0.00346012
0.0012557
-0.00374561
0.00134664
-0.00397686
0.0014182
-0.00416666
0.00147518
-0.00432846
0.00152219
-0.00447399
0.00156297
-0.00461226
0.00160026
-0.00474952
0.00163588
-0.00488973
0.00167093
-0.00503523
0.00170602
-0.00518713
0.00174137
-0.00534578
-0.0055102
0.00177675
2.29345e-05
-0.00013757
8.92645e-05
-0.000488726
0.00019614
-0.00091711
0.000336351
-0.00140126
0.00049803
-0.0019097
0.000666557
-0.00240697
0.000827815
-0.00286211
0.0009712
-0.00325528
0.00109113
-0.00358005
0.00118684
-0.00384131
0.00126104
-0.00405106
0.00131824
-0.00422386
0.00136325
-0.00437347
0.00140027
-0.00451102
0.0014325
-0.00464449
0.00146211
-0.00477913
0.0014905
-0.00491812
0.00151847
-0.00506319
0.00154642
-0.00521508
0.00157447
-0.00537382
-0.00553808
0.00160235
2.45345e-05
-0.000162104
9.38773e-05
-0.000558069
0.000203163
-0.0010264
0.000342958
-0.00154105
0.000499614
-0.00206636
0.000657882
-0.00256524
0.000804417
-0.00300864
0.000930379
-0.00338125
0.00103223
-0.0036819
0.00111088
-0.00391997
0.00117006
-0.00411024
0.00121456
-0.00426837
0.00124898
-0.00440789
0.00127702
-0.00453906
0.00130133
-0.00466879
0.0013236
-0.00480141
0.0013449
-0.00493942
0.00136579
-0.00508409
0.00138657
-0.00523586
0.00140723
-0.00539448
-0.00555841
0.00142756
2.59617e-05
-0.000188066
9.76516e-05
-0.000629759
0.000208078
-0.00113682
0.000345677
-0.00167865
0.00049539
-0.00221607
0.000641867
-0.00271172
0.000772955
-0.00313973
0.000881713
-0.00349
0.000966484
-0.00376667
0.00102955
-0.00398303
0.00107527
-0.00415597
0.00110847
-0.00430157
0.00113338
-0.0044328
0.00115316
-0.00455884
0.00116996
-0.00468559
0.0011851
-0.00481655
0.00119935
-0.00495367
0.00121315
-0.00509788
0.00122667
-0.00524938
0.00123989
-0.0054077
-0.00557114
0.00125262
2.71781e-05
-0.000215244
0.000100478
-0.000703058
0.000210739
-0.00124708
0.000344455
-0.00181237
0.000485581
-0.0023572
0.00061915
-0.00284529
0.000734498
-0.00325508
0.000826589
-0.0035821
0.000895423
-0.0038355
0.000944304
-0.00403191
0.000977944
-0.00418961
0.00100098
-0.00432461
0.00101719
-0.00444901
0.00102923
-0.00457088
0.0010388
-0.00469515
0.0010469
-0.00482465
0.00105411
-0.00496088
0.00106075
-0.00510452
0.00106694
-0.00525557
0.00107265
-0.00541341
-0.00557623
0.00107774
2.81501e-05
-0.000243394
0.000102272
-0.00077718
0.00021107
-0.00135588
0.000339356
-0.00194066
0.000470549
-0.00248839
0.000590476
-0.00296522
0.000690136
-0.00335474
0.000766309
-0.00365827
0.000820382
-0.00388957
0.000856377
-0.00406791
0.000879101
-0.00421233
0.000892883
-0.00433839
0.000901003
-0.00445713
0.000905648
-0.00457552
0.000908142
-0.00469765
0.000909245
-0.00482575
0.000909386
-0.00496102
0.000908801
-0.00510393
0.000907586
-0.00525436
0.000905698
-0.00541152
-0.00557362
0.000903086
2.88498e-05
-0.000272244
0.000102977
-0.000851307
0.000209057
-0.00146196
0.000330546
-0.00206215
0.000450759
-0.0026086
0.000556641
-0.0030711
0.000640928
-0.00343902
0.000702053
-0.00371939
0.00074251
-0.00393003
0.000766772
-0.00409217
0.000779552
-0.00422511
0.000784781
-0.00434362
0.000785257
-0.0044576
0.000782745
-0.00457301
0.00077826
-0.00469316
0.000772368
-0.00481986
0.00076539
-0.00495405
0.000757509
-0.00509605
0.000748802
-0.00524565
0.000739238
-0.00540196
-0.00556319
0.000728809
2.92561e-05
-0.0003015
0.000102566
-0.000924618
0.000204751
-0.00156415
0.000318272
-0.00217567
0.000426742
-0.00271707
0.000518455
-0.00316281
0.000587867
-0.00350843
0.000634862
-0.00376639
0.000662779
-0.00395795
0.000676308
-0.0041057
0.000679934
-0.00422874
0.000677153
-0.00434084
0.000670307
-0.00445076
0.000660794
-0.0045635
0.000649381
-0.00468175
0.000636479
-0.00480696
0.000622327
-0.00493989
0.000607071
-0.0050808
0.000590786
-0.00522937
0.000573459
-0.00538463
-0.00554478
0.000555052
2.93548e-05
-0.000330855
0.00010104
-0.000996302
0.000198254
-0.00166136
0.000302841
-0.00228025
0.000399061
-0.00281329
0.000476701
-0.00324045
0.000531857
-0.00356359
0.000565642
-0.00380017
0.000581995
-0.0039743
0.000585642
-0.00410935
0.000580752
-0.00422385
0.000570373
-0.00433046
0.000556438
-0.00443682
0.000540033
-0.00454709
0.000521723
-0.00466344
0.000501799
-0.00478704
0.000480427
-0.00491852
0.000457716
-0.00505808
0.00043374
-0.00520539
0.000408523
-0.00535941
-0.00551831
0.000382052
2.91388e-05
-0.000359994
9.84224e-05
-0.00106559
0.000189709
-0.00175265
0.000284601
-0.00237515
0.000368287
-0.00289698
0.00043212
-0.00330428
0.000473704
-0.00360517
0.000495161
-0.00382163
0.000500819
-0.00397996
0.0004953
-0.00410383
0.000482401
-0.00421095
0.000464742
-0.0043128
0.000443889
-0.00441597
0.000420672
-0.00452387
0.000395495
-0.00463826
0.000368555
-0.0047601
0.000339958
-0.00488993
0.000309773
-0.0050279
0.000278012
-0.00517363
0.000244582
-0.00532598
-0.0054838
0.000210076
2.8608e-05
-0.000388602
9.47627e-05
-0.00113174
0.000179295
-0.00183718
0.00026392
-0.00245977
0.000334976
-0.00296803
0.000385386
-0.00335469
0.000414111
-0.0036339
0.000424067
-0.00383159
0.000419792
-0.00397569
0.000405701
-0.00408974
0.000385199
-0.00419045
0.000360502
-0.00428811
0.000332862
-0.00438833
0.000302899
-0.00449391
0.000270889
-0.00460625
0.000236956
-0.00472616
0.000201175
-0.00485414
0.000163623
-0.00499035
0.000124275
-0.00513428
8.27426e-05
-0.00528445
-0.00543816
3.7094e-05
2.77689e-05
-0.00041637
9.01269e-05
-0.0011941
0.00016721
-0.00191426
0.00024117
-0.00253373
0.000299652
-0.00302652
0.000337108
-0.00339215
0.000353684
-0.00365048
0.000352898
-0.0038308
0.00033935
-0.00396214
0.000317181
-0.00406757
0.000289398
-0.00416266
0.000257856
-0.00425656
0.000223535
-0.00435401
0.000186886
-0.00445726
0.000148083
-0.00456745
0.000107191
-0.00468527
6.42524e-05
-0.00481121
1.93443e-05
-0.00494544
-2.73589e-05
-0.00508758
-7.61446e-05
-0.00523566
-0.0053866
-0.000127703
2.66332e-05
-0.000443004
8.45955e-05
-0.00125206
0.000153667
-0.00198333
0.000216717
-0.00259678
0.000262802
-0.0030726
0.000287822
-0.00341717
0.000292938
-0.00365559
0.000282095
-0.00381996
0.000259844
-0.00393989
0.000230006
-0.00403773
0.000195207
-0.00412786
0.000156974
-0.00421833
0.000116068
-0.0043131
7.27877e-05
-0.00441398
2.72351e-05
-0.0045219
-2.05684e-05
-0.00463747
-7.05937e-05
-0.00476118
-0.000122755
-0.00489328
-0.000177054
-0.00503328
-0.000233514
-0.0051792
-0.00532883
-0.000291278
2.52178e-05
-0.000468221
7.8259e-05
-0.0013051
0.000138881
-0.00204396
0.00019091
-0.00264881
0.000224865
-0.00310656
0.000237994
-0.0034303
0.000232305
-0.0036499
0.000212022
-0.00379968
0.000181557
-0.00390942
0.000144393
-0.00400056
0.000102796
-0.00408627
5.7997e-05
-0.00417353
1.05722e-05
-0.00426568
-3.9246e-05
-0.00436416
-9.1462e-05
-0.00446968
-0.00014611
-0.00458282
-0.000203189
-0.0047041
-0.000262629
-0.00483384
-0.000324352
-0.00497156
-0.00038817
-0.00511538
-0.00526331
-0.000453692
2.35432e-05
-0.000491765
7.12141e-05
-0.00135277
0.000123064
-0.00209581
0.000164072
-0.00268982
0.000186234
-0.00312872
0.000188026
-0.00343209
0.000172145
-0.00363402
0.000142972
-0.0037705
0.000104716
-0.00387117
6.05112e-05
-0.00395636
1.2284e-05
-0.00403804
-3.89323e-05
-0.00412232
-9.27402e-05
-0.00421187
-0.000149048
-0.00430786
-0.000207875
-0.00441086
-0.000269299
-0.00452139
-0.000333364
-0.00464004
-0.000400024
-0.00476718
-0.000469126
-0.00490246
-0.000540434
-0.00504408
-0.00518994
-0.000613805
2.16331e-05
-0.000513398
6.35604e-05
-0.0013947
0.000106422
-0.00213867
0.000136504
-0.0027199
0.000147257
-0.00313947
0.00013826
-0.00342309
0.000112756
-0.00360852
7.51821e-05
-0.00373293
2.94984e-05
-0.00382548
-2.14937e-05
-0.00390537
-7.6144e-05
-0.00398339
-0.000133688
-0.00406477
-0.000193822
-0.00415174
-0.000256515
-0.00424516
-0.000321849
-0.00434552
-0.000389949
-0.00445329
-0.000460907
-0.00456908
-0.000534702
-0.00469338
-0.000611158
-0.004826
-0.00069001
-0.00496523
-0.00510882
-0.000771132
1.95139e-05
-0.000532911
5.53984e-05
-0.00143059
8.91494e-05
-0.00217242
0.000108476
-0.00273923
0.000108234
-0.00313923
8.89796e-05
-0.00340384
5.43787e-05
-0.00357392
8.84345e-06
-0.00368739
-4.39365e-05
-0.0037727
-0.000101485
-0.00384782
-0.000162442
-0.00392243
-0.00022619
-0.00400102
-0.000292539
-0.00408539
-0.000361513
-0.00417619
-0.000433239
-0.0042738
-0.000507891
-0.00437864
-0.000585618
-0.00449135
-0.000666446
-0.00461255
-0.000750203
-0.00474224
-0.000836566
-0.00487886
-0.00502005
-0.000925336
1.72146e-05
-0.000550126
4.68271e-05
-0.0014602
7.14298e-05
-0.00219702
8.02329e-05
-0.00274803
6.94245e-05
-0.00312842
4.04273e-05
-0.00337484
-2.76353e-06
-0.00353073
-5.58786e-05
-0.00363428
-0.000115478
-0.0037131
-0.000179397
-0.0037839
-0.000246505
-0.00385532
-0.000316338
-0.00393119
-0.000388787
-0.00401294
-0.000463922
-0.00410105
-0.000541905
-0.00419581
-0.000622958
-0.00429759
-0.000707297
-0.00440701
-0.00079502
-0.00452483
-0.000885987
-0.00465128
-0.000979798
-0.00478505
-0.00492374
-0.00107611
1.47687e-05
-0.000564895
3.79441e-05
-0.00148337
5.34377e-05
-0.00221251
5.19861e-05
-0.00274658
3.10589e-05
-0.00310749
-7.13444e-06
-0.00333665
-5.85483e-05
-0.00347931
-0.000118883
-0.00357394
-0.000185041
-0.00364694
-0.00025514
-0.0037138
-0.000328256
-0.00378221
-0.000404048
-0.0038554
-0.000482473
-0.00393451
-0.000563633
-0.00401989
-0.000647721
-0.00411172
-0.000734997
-0.00421031
-0.00082575
-0.00431626
-0.00092018
-0.0044304
-0.00101821
-0.00455324
-0.00111938
-0.00468389
-0.00482003
-0.00122309
1.22205e-05
-0.000577115
2.88511e-05
-0.0015
3.53273e-05
-0.00221899
2.39318e-05
-0.00273518
-6.52673e-06
-0.00307703
-5.36893e-05
-0.00328949
-0.000112842
-0.00342016
-0.00018007
-0.00350672
-0.000252547
-0.00357447
-0.000328648
-0.0036377
-0.000407628
-0.00370323
-0.000489247
-0.00377378
-0.000573514
-0.00385025
-0.000660554
-0.00393285
-0.000750577
-0.0040217
-0.000843874
-0.00411702
-0.000940802
-0.00421933
-0.00104168
-0.00432952
-0.00114656
-0.00444836
-0.00125492
-0.00457553
-0.00470905
-0.0013659
9.58961e-06
-0.000586705
1.96546e-05
-0.00151007
1.72072e-05
-0.00221654
-3.41077e-06
-0.00271457
-4.36002e-05
-0.00303684
-9.9035e-05
-0.00323405
-0.000165548
-0.00335365
-0.000239368
-0.0034329
-0.000317938