/*--------------------------------*- C++ -*----------------------------------*\
  =========                 |
  \\      /  F ield         | OpenFOAM: The Open Source CFD Toolbox
   \\    /   O peration     | Website:  https://openfoam.org
    \\  /    A nd           | Version:  7
     \\/     M anipulation  |
\*---------------------------------------------------------------------------*/
FoamFile
{
    version     2.0;
    format      ascii;
    class       volVectorField;
    location    "50";
    object      U;
}
// * * * * * * * * * * * * * * * * * * * * * * * * * * * * * * * * * * * * * //

dimensions      [0 1 -1 0 0 0 0];

internalField   nonuniform List<vector> 
8820
(
(-0.000580848 -0.00345055 -5.34912e-22)
(-0.00350542 -0.00993303 -1.17658e-20)
(-0.00930314 -0.0159336 -5.46735e-21)
(-0.0167101 -0.0212535 -2.36926e-21)
(-0.0250933 -0.0258138 7.24085e-22)
(-0.0340283 -0.0296434 -4.31373e-21)
(-0.0431483 -0.0328487 -9.30415e-21)
(-0.0521585 -0.035584 -5.62896e-21)
(-0.0608258 -0.038021 1.30235e-20)
(-0.068964 -0.0403225 -2.31722e-21)
(-0.076423 -0.0426231 3.70389e-21)
(-0.0830825 -0.0450178 5.33941e-21)
(-0.0888496 -0.0475586 -7.70741e-21)
(-0.093661 -0.0502555 -8.7221e-21)
(-0.0974895 -0.0530819 4.05453e-21)
(-0.100355 -0.0559812 2.16575e-21)
(-0.102352 -0.0588767 5.28346e-22)
(-0.103681 -0.0616841 1.45557e-20)
(-0.104565 -0.0643254 -4.58886e-21)
(-0.10501 -0.0667323 -3.01043e-20)
(-0.105964 -0.0688776 2.15305e-22)
(-0.000567315 -0.00181311 1.58897e-20)
(-0.00348681 -0.00589061 -1.72985e-20)
(-0.00934321 -0.0101806 3.38804e-21)
(-0.0168413 -0.0143344 1.87055e-20)
(-0.0253351 -0.018168 -7.75669e-21)
(-0.0343924 -0.0216269 -9.33025e-21)
(-0.0436399 -0.0247486 -1.46651e-20)
(-0.0527774 -0.0276323 1.41523e-20)
(-0.0615687 -0.0304064 2.05606e-20)
(-0.0698253 -0.0332001 -1.66613e-20)
(-0.0773955 -0.0361214 -2.01476e-20)
(-0.0841572 -0.0392427 -3.19563e-20)
(-0.0900146 -0.0425927 -1.43741e-20)
(-0.0948996 -0.0461534 -2.75115e-20)
(-0.0987778 -0.0498597 1.42275e-20)
(-0.10166 -0.0536015 -2.17519e-21)
(-0.103632 -0.0572295 -1.05723e-20)
(-0.104889 -0.0605704 -1.35956e-21)
(-0.105655 -0.0634469 -2.8867e-20)
(-0.105938 -0.065689 -1.75779e-20)
(-0.106739 -0.0672183 1.84189e-20)
(-0.000670102 -0.000139279 4.6183e-20)
(-0.00372647 -0.00176411 -1.00978e-20)
(-0.00969373 -0.00431462 3.64281e-20)
(-0.0172752 -0.00728657 2.45485e-20)
(-0.0258281 -0.0103865 2.48585e-20)
(-0.0349236 -0.0134723 1.12819e-20)
(-0.0441903 -0.0165092 -1.85307e-20)
(-0.0533297 -0.0195385 3.21037e-20)
(-0.0621072 -0.0226443 4.84615e-20)
(-0.0703357 -0.0259219 2.56416e-20)
(-0.0778645 -0.029454 -3.80757e-20)
(-0.0845706 -0.0332927 6.39875e-20)
(-0.0903542 -0.0374477 -5.34382e-21)
(-0.0951391 -0.041878 -1.17053e-19)
(-0.0988773 -0.0464852 -7.93927e-20)
(-0.10156 -0.0511093 4.33651e-20)
(-0.10325 -0.0555293 -2.40309e-20)
(-0.104125 -0.0594772 -5.56793e-20)
(-0.104397 -0.0626612 9.09343e-20)
(-0.104064 -0.064787 -3.9015e-20)
(-0.104188 -0.0657045 -4.55238e-20)
(-0.000889416 0.0015384 -1.44604e-20)
(-0.00422345 0.00237194 9.65558e-20)
(-0.0103505 0.00156582 -1.29033e-20)
(-0.018003 -0.00022066 -1.3002e-19)
(-0.026558 -0.00258348 -1.35606e-20)
(-0.0356007 -0.0052912 -1.20496e-19)
(-0.0447706 -0.00823514 6.20359e-20)
(-0.0537773 -0.0113977 1.16272e-19)
(-0.0623928 -0.0148175 -1.06072e-19)
(-0.0704352 -0.0185568 -1.40574e-19)
(-0.0777569 -0.0226748 8.01607e-20)
(-0.0842355 -0.0272074 -7.5442e-20)
(-0.0897675 -0.0321508 9.17126e-20)
(-0.0942664 -0.0374488 1.29994e-19)
(-0.0976659 -0.0429788 2.55219e-20)
(-0.09993 -0.0485398 -1.00372e-20)
(-0.101085 -0.0538438 -9.83284e-20)
(-0.101274 -0.0585229 -1.96577e-20)
(-0.100687 -0.0621515 -2.21672e-20)
(-0.0992893 -0.0642708 -5.76056e-21)
(-0.0982093 -0.0646115 -1.25983e-20)
(-0.00122145 0.00318687 -6.37948e-20)
(-0.0049683 0.00644177 -9.33513e-20)
(-0.0112992 0.00736042 5.55328e-20)
(-0.0190055 0.00675071 -7.37937e-20)
(-0.0274997 0.00512431 8.34429e-20)
(-0.0363919 0.00280118 4.32159e-20)
(-0.0453402 -3.58628e-05 8.90065e-20)
(-0.0540687 -0.00331003 -7.40333e-21)
(-0.0623604 -0.00701472 -8.86324e-20)
(-0.0700418 -0.0111798 4.91183e-20)
(-0.0769711 -0.0158433 1.02032e-20)
(-0.0830283 -0.0210289 1.91201e-20)
(-0.0881072 -0.0267267 -2.85706e-20)
(-0.092111 -0.0328749 -2.76746e-20)
(-0.0949534 -0.0393398 1.6915e-20)
(-0.0965653 -0.0458934 -3.27263e-20)
(-0.0969266 -0.0521918 -5.26433e-21)
(-0.096133 -0.0577691 5.59362e-20)
(-0.0943331 -0.0620444 2.80448e-20)
(-0.091436 -0.0643417 -3.52353e-20)
(-0.0886137 -0.0641905 1.02929e-19)
(-0.0016585 0.00477356 1.31207e-20)
(-0.00594336 0.0103707 2.91381e-19)
(-0.0125157 0.0129697 -1.95965e-20)
(-0.0202534 0.0135145 1.91863e-19)
(-0.0286184 0.0126185 4.96211e-20)
(-0.0372549 0.0106867 -5.01007e-20)
(-0.0458472 0.00797446 -3.59425e-20)
(-0.054139 0.00461737 6.68859e-20)
(-0.0619281 0.000666824 -2.22229e-20)
(-0.0690521 -0.00387541 2.11628e-19)
(-0.0753771 -0.00902828 -6.97287e-20)
(-0.0807873 -0.0148072 2.66908e-19)
(-0.0851756 -0.0212029 3.18426e-21)
(-0.088437 -0.0281591 1.13754e-20)
(-0.0904663 -0.0355463 -1.10929e-19)
(-0.0911607 -0.0431291 -6.99398e-20)
(-0.0904487 -0.0505288 1.37683e-19)
(-0.0883647 -0.0571931 -1.21669e-19)
(-0.0850055 -0.0623741 -1.05505e-19)
(-0.0801923 -0.0651221 -1.41397e-20)
(-0.0750681 -0.064647 3.10156e-20)
(-0.00218925 0.00626782 6.68728e-20)
(-0.0071234 0.0140873 -9.3971e-20)
(-0.0139671 0.0182973 -5.21871e-20)
(-0.0217079 0.0199599 -1.96286e-19)
(-0.0298697 0.0197807 -6.53698e-20)
(-0.038138 0.0182447 2.07415e-19)
(-0.0462293 0.0156769 3.89804e-20)
(-0.0539112 0.0122698 8.77648e-20)
(-0.0609988 0.00811931 -8.50755e-20)
(-0.0673425 0.00325832 3.73986e-20)
(-0.0728173 -0.00231405 3.21559e-20)
(-0.077313 -0.00860769 -1.07438e-19)
(-0.0807236 -0.0156192 1.79327e-19)
(-0.0829385 -0.0233077 -2.84847e-20)
(-0.0838376 -0.0315644 1.87479e-19)
(-0.0832896 -0.0401697 7.85538e-20)
(-0.0811726 -0.0487401 -6.27876e-20)
(-0.0774544 -0.0566653 -6.52736e-20)
(-0.0721773 -0.063039 -3.59425e-20)
(-0.0650537 -0.0665995 -6.67059e-20)
(-0.057027 -0.0660985 6.899e-20)
(-0.00279929 0.00764183 4.54442e-20)
(-0.00847665 0.017526 6.92984e-20)
(-0.0156125 0.0232527 6.66555e-20)
(-0.0233225 0.0259805 -1.07681e-20)
(-0.0312011 0.0264949 2.54579e-19)
(-0.038981 0.025354 -1.48675e-19)
(-0.0464152 0.0229479 1.75765e-19)
(-0.0532977 0.0195244 -2.33816e-19)
(-0.0594621 0.0152227 1.86317e-21)
(-0.0647719 0.010107 -1.24036e-19)
(-0.0691107 0.00419482 -1.48613e-20)
(-0.0723731 -0.00251897 -3.12034e-20)
(-0.0744548 -0.0100394 -2.45919e-19)
(-0.0752429 -0.0183476 6.30646e-20)
(-0.0746077 -0.0273682 5.2713e-20)
(-0.0723974 -0.036921 1.42304e-19)
(-0.0684496 -0.0466531 -4.66956e-20)
(-0.0626693 -0.0559401 1.93636e-20)
(-0.0550653 -0.0637555 5.2233e-20)
(-0.0452715 -0.0685322 -1.32734e-19)
(-0.0336766 -0.06843 -4.74346e-20)
(-0.00347192 0.00887199 -1.21312e-19)
(-0.00996619 0.020629 1.15071e-19)
(-0.0174047 0.027754 -1.12854e-19)
(-0.0250435 0.0314767 -4.86218e-20)
(-0.0325528 0.0326493 3.12292e-21)
(-0.0397161 0.0318943 -1.67543e-20)
(-0.0463251 0.0296615 -1.56459e-19)
(-0.0522011 0.0262509 -3.61008e-19)
(-0.0571963 0.0218447 -1.06183e-19)
(-0.0611851 0.0165385 -1.6346e-20)
(-0.0640573 0.0103696 -2.67178e-21)
(-0.0657099 0.00333965 2.74576e-19)
(-0.0660381 -0.00456395 -1.16826e-20)
(-0.0649264 -0.0133452 3.45253e-21)
(-0.0622398 -0.0229684 1.97538e-20)
(-0.0578167 -0.0333104 5.60289e-20)
(-0.0514673 -0.0440816 -2.42891e-20)
(-0.0430443 -0.0546948 -1.05605e-19)
(-0.0325673 -0.0640758 -8.96416e-20)
(-0.0197484 -0.0703974 3.16471e-19)
(-0.00390375 -0.0709497 1.02758e-21)
(-0.00418894 0.00993974 1.23613e-19)
(-0.0115515 0.0233483 9.30043e-21)
(-0.0192919 0.0317298 -2.96969e-19)
(-0.0268115 0.0363588 -8.64793e-20)
(-0.0338585 0.0381394 1.68721e-19)
(-0.0402679 0.037749 -1.92613e-19)
(-0.0458705 0.0356912 8.46654e-20)
(-0.0505146 0.0323148 3.29804e-19)
(-0.0540683 0.0278431 1.55639e-19)
(-0.056414 0.0224044 1.4388e-19)
(-0.0574426 0.0160578 -6.65273e-20)
(-0.057048 0.00881544 2.30055e-20)
(-0.0551197 0.00066236 -1.47876e-19)
(-0.0515357 -0.00842376 1.96833e-19)
(-0.0461553 -0.018445 3.26462e-21)
(-0.0388141 -0.0293393 -3.11485e-20)
(-0.0293068 -0.0409046 5.23951e-20)
(-0.017444 -0.0526455 3.5469e-20)
(-0.00325934 -0.0635651 -7.20665e-20)
(0.0133037 -0.0716723 -1.26056e-19)
(0.0339901 -0.0724564 -2.0987e-19)
(-0.00493176 0.0108324 -1.92846e-19)
(-0.0131903 0.0256478 3.3609e-19)
(-0.0212188 0.0351219 1.62479e-19)
(-0.0285623 0.040549 -3.98947e-20)
(-0.0350452 0.0428703 -5.06454e-20)
(-0.0405526 0.0428087 -1.13579e-19)
(-0.0449531 0.0409145 -6.39054e-20)
(-0.0481196 0.0375811 1.06619e-19)
(-0.0499328 0.0330713 2.30189e-19)
(-0.0502772 0.0275461 1.06706e-19)
(-0.0490387 0.021089 1.4769e-19)
(-0.0461 0.0137278 1.42756e-19)
(-0.0413368 0.00545224 -2.3215e-19)
(-0.0346127 -0.00376855 1.03652e-19)
(-0.025775 -0.0139634 -3.29293e-19)
(-0.0146618 -0.0251186 -3.42512e-19)
(-0.00106449 -0.037132 -2.68025e-19)
(0.0152113 -0.0496437 1.04584e-19)
(0.0341276 -0.0618559 6.57237e-19)
(0.056014 -0.0715897 -1.64734e-19)
(0.0829354 -0.0728507 1.75564e-19)
(-0.0056823 0.0115433 3.35738e-19)
(-0.0148399 0.0275035 -1.46537e-19)
(-0.0231278 0.0378866 4.94128e-20)
(-0.0302267 0.043984 2.66076e-19)
(-0.0360321 0.0467606 -2.45898e-19)
(-0.0404756 0.0469752 9.15426e-20)
(-0.0434608 0.0452178 -1.48233e-19)
(-0.0448812 0.0419216 -3.59309e-19)
(-0.0446251 0.0373864 5.09069e-19)
(-0.0425731 0.0318054 -2.33996e-20)
(-0.0385977 0.0252887 1.40012e-19)
(-0.0325616 0.0178843 -6.359e-20)
(-0.0243172 0.00959525 1.38352e-19)
(-0.0137049 0.000395012 -7.74878e-21)
(-0.000547863 -0.00975142 1.74882e-19)
(0.0153166 -0.0208738 -4.41324e-20)
(0.0340784 -0.0329282 1.77726e-19)
(0.0559164 -0.0457062 -3.31558e-19)
(0.0807525 -0.058653 -3.51669e-19)
(0.108973 -0.0697162 3.07586e-19)
(0.14412 -0.072275 -1.49625e-19)
(-0.00642401 0.0120724 -3.26991e-19)
(-0.0164587 0.0289043 2.04422e-19)
(-0.0249597 0.0399959 -1.62534e-19)
(-0.03173 0.0466169 8.96301e-20)
(-0.0367284 0.0497448 -7.72995e-20)
(-0.0399277 0.0501659 3.58798e-19)
(-0.0412617 0.0485027 -2.99152e-20)
(-0.0406397 0.0452231 1.01541e-19)
(-0.0379514 0.0406605 -8.90593e-20)
(-0.0330666 0.0350392 2.31735e-19)
(-0.0258365 0.028497 -4.63326e-19)
(-0.0160945 0.0211062 -5.62029e-20)
(-0.00365992 0.0128902 -4.94527e-20)
(0.0116581 0.00383969 2.14028e-19)
(0.0300549 -0.00607254 -2.78173e-19)
(0.0517139 -0.0168842 3.59001e-20)
(0.0767968 -0.0285729 2.40162e-19)
(0.105435 -0.0410472 1.12553e-19)
(0.137475 -0.0539855 5.34427e-21)
(0.17282 -0.0658614 1.15691e-21)
(0.218173 -0.0694593 -1.89677e-19)
(-0.0071424 0.012425 2.93636e-19)
(-0.0180067 0.029851 -2.34438e-19)
(-0.0266535 0.0414369 1.48947e-19)
(-0.0329903 0.0484182 -4.2363e-20)
(-0.0370297 0.0517766 -2.93313e-19)
(-0.038779 0.0523182 -3.35763e-19)
(-0.0381957 0.0506923 3.78306e-19)
(-0.0351991 0.047396 -6.21887e-20)
(-0.0296735 0.0427928 4.31608e-19)
(-0.0214708 0.0371362 -2.69144e-20)
(-0.0104132 0.0305918 1.26623e-20)
(0.00370149 0.0232587 1.81345e-19)
(0.0210927 0.0151863 1.95185e-19)
(0.0419858 0.00639139 2.76807e-19)
(0.0665969 -0.00312864 1.18142e-19)
(0.0951098 -0.0133821 -3.40145e-22)
(0.12765 -0.0243501 -4.38008e-20)
(0.164269 -0.0359716 8.25042e-20)
(0.204785 -0.048072 2.22595e-19)
(0.247829 -0.0599984 -1.7455e-19)
(0.305314 -0.0636484 2.18767e-19)
(-0.00782554 0.0126113 -5.8269e-20)
(-0.019446 0.0303553 -3.70844e-19)
(-0.0281452 0.0422121 -1.73187e-19)
(-0.033916 0.0493766 1.7165e-19)
(-0.0368134 0.0528303 -4.14975e-20)
(-0.0368714 0.0533939 -1.69815e-20)
(-0.0340642 0.0517378 -2.76095e-19)
(-0.0283133 0.0483839 7.34104e-20)
(-0.019491 0.0437222 -3.60982e-19)
(-0.00742397 0.0380335 -3.12434e-19)
(0.00809999 0.0315112 -1.95984e-19)
(0.0273221 0.0242827 -2.03381e-19)
(0.0504991 0.0164279 2.45056e-20)
(0.0778839 0.00799622 1.66658e-19)
(0.1097 -0.000978591 3.31786e-19)
(0.146105 -0.0104629 -5.11071e-20)
(0.187147 -0.0204044 -2.4528e-19)
(0.232734 -0.0307188 -2.05095e-19)
(0.282779 -0.0411744 -2.0722e-20)
(0.333708 -0.0523725 -1.22866e-19)
(0.404767 -0.0546666 5.41896e-20)
(-0.00846378 0.012645 2.76182e-19)
(-0.0207396 0.0304374 3.05616e-19)
(-0.0293661 0.0423367 2.02462e-19)
(-0.0344017 0.0494985 1.70327e-19)
(-0.0359329 0.0529028 6.79589e-20)
(-0.0340113 0.0533823 2.9205e-19)
(-0.0286194 0.0516244 4.09321e-19)
(-0.0196729 0.0481719 -4.69031e-19)
(-0.00702451 0.0434391 4.18759e-19)
(0.00952994 0.0377324 -1.88612e-20)
(0.0302395 0.0312731 -1.80008e-19)
(0.0553818 0.024219 2.9261e-20)
(0.0852399 0.0166832 2.36783e-19)
(0.120072 0.00875213 1.67357e-19)
(0.160073 0.00050131 -2.07858e-19)
(0.205325 -0.00798866 2.02211e-19)
(0.255735 -0.016618 -3.23523e-20)
(0.310939 -0.0252769 -2.2601e-21)
(0.371093 -0.0334018 5.23752e-20)
(0.429606 -0.0432866 1.01693e-19)
(0.514444 -0.0427282 -1.66975e-19)
(-0.00904929 0.0125415 -6.16925e-19)
(-0.0218497 0.0301233 2.11479e-19)
(-0.0302392 0.041837 -1.86798e-19)
(-0.0343244 0.0488073 -3.48349e-19)
(-0.0342115 0.0520145 -2.71161e-19)
(-0.0299612 0.0523031 -1.4268e-19)
(-0.0215546 0.0503757 -4.2919e-19)
(-0.00889313 0.046794 4.79518e-20)
(0.00819686 0.0419946 2.4312e-19)
(0.0299532 0.0363096 1.88175e-20)
(0.0566589 0.0299892 2.24369e-19)
(0.0886148 0.0232232 2.09462e-19)
(0.126105 0.0161604 2.53668e-19)
(0.169348 0.00892617 3.99208e-19)
(0.218448 0.00163709 2.46126e-20)
(0.273325 -0.00558302 -2.17216e-19)
(0.333649 -0.0125923 -1.11268e-19)
(0.39864 -0.0193094 -5.13602e-19)
(0.468664 -0.0246114 -3.98736e-20)
(0.534025 -0.0328347 -1.14505e-19)
(0.63082 -0.028269 1.70853e-19)
(-0.00957499 0.0123164 1.73606e-19)
(-0.0227357 0.0294415 2.51564e-19)
(-0.0306763 0.0407484 -1.55713e-19)
(-0.033538 0.0473415 1.2307e-19)
(-0.0314373 0.0502085 5.06519e-19)
(-0.0244333 0.0502083 1.49299e-19)
(-0.0124971 0.0480582 2.00233e-19)
(0.0044921 0.0443385 1.95579e-19)
(0.0267386 0.0395083 -4.25244e-19)
(0.0545113 0.0339263 3.55037e-20)
(0.0881134 0.027873 4.50307e-20)
(0.127841 0.0215722 3.98805e-19)
(0.173928 0.0152088 -3.7201e-19)
(0.226484 0.00894425 5.94391e-20)
(0.285418 0.00292902 -2.91352e-19)
(0.350369 -0.00268503 1.73217e-19)
(0.420633 -0.00773616 1.56236e-19)
(0.494918 -0.012231 -2.40705e-20)
(0.573411 -0.0145134 -2.19958e-19)
(0.644553 -0.0208267 -1.64699e-19)
(0.748871 -0.01183 5.73918e-20)
(-0.010033 0.0119835 -9.79666e-20)
(-0.0233505 0.0284215 3.23128e-20)
(-0.0305737 0.039111 -6.68877e-20)
(-0.0318699 0.0451524 -2.39905e-19)
(-0.0273576 0.0475509 -4.83124e-20)
(-0.0170857 0.047183 1.78769e-19)
(-0.00100668 0.0447834 2.68426e-19)
(0.0210278 0.0409523 -5.06163e-20)
(0.0492507 0.0361725 3.37187e-20)
(0.0839487 0.0308314 3.56762e-19)
(0.125415 0.0252413 -3.45005e-19)
(0.173886 0.0196593 -1.10411e-19)
(0.229467 0.0143022 8.12519e-20)
(0.292047 0.00935792 -4.27267e-20)
(0.361205 0.00499198 2.64556e-19)
(0.436143 0.00135581 -7.7155e-20)
(0.515624 -0.00141535 3.27743e-20)
(0.597839 -0.00339932 2.44053e-19)
(0.682063 -0.00288706 2.71234e-19)
(0.757585 -0.0068828 6.1971e-20)
(0.862181 0.00600701 1.0325e-19)
(-0.0104127 0.0115541 -3.76152e-20)
(-0.0236375 0.0270894 -2.58422e-19)
(-0.0298081 0.0369678 -9.13066e-20)
(-0.0291169 0.0423037 -3.87637e-20)
(-0.0216779 0.0441296 9.93617e-20)
(-0.00752304 0.0433463 -1.42721e-19)
(0.0134195 0.0407094 -1.93834e-19)
(0.0413243 0.0368419 -4.40766e-19)
(0.0764405 0.0322534 1.29656e-19)
(0.119041 0.0273607 -4.97777e-19)
(0.169352 0.0225071 4.01134e-19)
(0.227466 0.0179773 -5.92046e-20)
(0.293238 0.0140076 -4.42053e-21)
(0.366186 0.0107899 -1.52256e-19)
(0.445397 0.00847129 -5.34319e-19)
(0.529479 0.00715977 2.84792e-19)
(0.616524 0.00689212 1.46385e-20)
(0.704276 0.00762575 -1.11188e-20)
(0.790461 0.0102585 2.11578e-19)
(0.868367 0.00946764 9.86763e-20)
(0.963697 0.0245895 2.59514e-19)
(-0.0106987 0.0110351 -2.29146e-20)
(-0.0235263 0.0254673 -7.11083e-20)
(-0.0282338 0.034364 -3.23532e-19)
(-0.0250433 0.0388693 -6.50673e-19)
(-0.0140621 0.0400539 1.99067e-19)
(0.00469823 0.0388504 2.61997e-19)
(0.031333 0.0360404 4.70546e-20)
(0.0660309 0.0322735 3.45015e-19)
(0.109026 0.0280878 -2.7473e-19)
(0.16052 0.0239283 -4.27203e-19)
(0.220583 0.0201626 -5.00076e-19)
(0.289032 0.0170883 8.45206e-20)
(0.365316 0.0149348 2.44628e-19)
(0.448406 0.0138599 -1.73662e-19)
(0.536728 0.013942 2.32709e-19)
(0.628183 0.0151892 -2.20478e-19)
(0.720169 0.0174711 1.3734e-19)
(0.810055 0.020838 1.73426e-20)
(0.894236 0.0247546 1.06665e-19)
(0.971503 0.0284614 -4.2613e-19)
(1.04679 0.0412069 -3.75054e-19)
(-0.0108695 0.0104295 -1.16693e-19)
(-0.0229301 0.0235729 -3.41695e-19)
(-0.0256797 0.0313456 5.08727e-20)
(-0.0193813 0.034933 5.8266e-20)
(-0.00413777 0.0354535 1.31964e-19)
(0.0200574 0.0338798 5.52617e-19)
(0.0533103 0.0310251 -2.37739e-19)
(0.0957945 0.027568 1.22102e-19)
(0.147672 0.0240741 2.32969e-19)
(0.20898 0.02101 -8.38283e-20)
(0.279499 0.0187504 2.36907e-19)
(0.358607 0.0175768 -5.10038e-19)
(0.445157 0.0176695 2.9759e-19)
(0.5374 0.0190964 2.02505e-20)
(0.632986 0.0218053 -2.09158e-19)
(0.729085 0.0256433 -8.97269e-20)
(0.822549 0.0302862 1.02746e-19)
(0.910466 0.0357385 -3.95674e-19)
(0.989268 0.0405273 3.29782e-19)
(1.06117 0.0485085 -4.46681e-19)
(1.10841 0.0500903 -2.3624e-20)
(-0.0108953 0.00973619 4.78235e-19)
(-0.0217438 0.0214199 3.6874e-20)
(-0.0219494 0.0279605 -1.52003e-20)
(-0.0118343 0.0305885 -3.51995e-19)
(0.00849503 0.0304787 -1.60035e-19)
(0.0390501 0.0286509 -2.59752e-19)
(0.0799197 0.0259533 2.31836e-20)
(0.131206 0.0230938 3.12961e-19)
(0.192907 0.0206582 -8.08489e-20)
(0.264763 0.0191171 1.17554e-20)
(0.346091 0.0188215 -2.70977e-19)
(0.435636 0.0199904 -4.51908e-19)
(0.531473 0.0226947 9.84434e-20)
(0.63101 0.0268467 -3.33423e-19)
(0.73111 0.0322026 2.96809e-19)
(0.828352 0.0384052 2.80843e-19)
(0.919346 0.0449537 2.44631e-19)
(1.00122 0.0516275 -1.26734e-20)
(1.07168 0.0571976 -2.07825e-20)
(1.13026 0.0643093 4.39976e-19)
(1.17319 0.0635445 -5.12512e-20)
(-0.0107378 0.00895144 -1.56991e-19)
(-0.0198428 0.0190208 -5.05537e-19)
(-0.0168228 0.0242602 -1.55708e-19)
(-0.00208296 0.0259417 -9.52104e-20)
(0.0242496 0.0253009 3.6695e-19)
(0.0621636 0.0234093 -1.15458e-19)
(0.111678 0.0211505 5.09079e-19)
(0.172736 0.0192548 -5.23926e-20)
(0.245039 0.0183113 -1.31021e-19)
(0.327854 0.0187619 6.23778e-20)
(0.419836 0.0208848 4.20775e-19)
(0.518901 0.024772 -3.55235e-20)
(0.622219 0.0303144 7.13515e-19)
(0.726345 0.0372051 4.40573e-19)
(0.827508 0.0449701 2.60492e-19)
(0.922019 0.0530475 1.52029e-19)
(1.00667 0.0607994 2.55569e-19)
(1.07922 0.0678969 1.16632e-19)
(1.13831 0.0732962 -2.25959e-19)
(1.18442 0.0788586 3.90884e-19)
(1.21696 0.077812 3.6278e-19)
(-0.010349 0.00807033 -3.32655e-19)
(-0.017084 0.0163893 3.74416e-19)
(-0.0100599 0.0203039 2.50244e-19)
(0.0102051 0.0211133 -2.06468e-19)
(0.0435339 0.0201136 1.98767e-19)
(0.0898446 0.0184282 -7.92651e-20)
(0.149004 0.0169703 -2.72426e-19)
(0.220668 0.0164752 4.33926e-19)
(0.304068 0.0175027 -1.35992e-19)
(0.397792 0.0204152 1.1766e-19)
(0.499627 0.02535 3.26169e-19)
(0.606521 0.0321963 2.31402e-19)
(0.714719 0.0405963 -3.16036e-19)
(0.820081 0.0499836 -2.33489e-19)
(0.91854 0.0596594 4.74369e-20)
(1.0066 0.0689114 1.16419e-19)
(1.08174 0.0770643 -2.51585e-19)
(1.14274 0.0838087 1.18227e-19)
(1.18948 0.0883458 9.23579e-20)
(1.22336 0.0923836 -2.62037e-19)
(1.24516 0.090382 3.60437e-19)
(-0.00967245 0.00708892 2.05404e-19)
(-0.0133083 0.0135451 2.32593e-19)
(-0.00140711 0.0161625 1.36744e-19)
(0.0253624 0.0162421 1.70834e-19)
(0.0667287 0.0151337 -2.40022e-19)
(0.122464 0.0140062 -2.48698e-19)
(0.192165 0.0137852 4.53068e-20)
(0.275032 0.0151795 -1.56207e-19)
(0.369617 0.0186676 -4.99063e-20)
(0.473614 0.0244619 3.43157e-19)
(0.583784 0.032477 -4.00731e-19)
(0.69607 0.0423241 1.6007e-19)
(0.805936 0.0533522 -2.13801e-19)
(0.90889 0.0647401 -3.61921e-19)
(1.00105 0.0756255 4.33873e-19)
(1.07962 0.0852514 1.98032e-19)
(1.1432 0.0930324 -6.8009e-20)
(1.1918 0.0987952 -1.27037e-20)
(1.22652 0.102079 7.40206e-20)
(1.24954 0.104458 -1.77048e-19)
(1.2629 0.101637 -7.58487e-20)
(-0.00864402 0.00600655 -1.86008e-20)
(-0.00834448 0.0105187 -1.08573e-19)
(0.00939377 0.0119241 4.50746e-19)
(0.0437063 0.0114897 1.58042e-19)
(0.0941619 0.0106034 -5.82546e-21)
(0.160282 0.0104626 -5.41901e-20)
(0.241232 0.0119743 1.57875e-19)
(0.335551 0.0157693 1.13393e-19)
(0.440892 0.0221726 -3.78952e-19)
(0.553871 0.0311593 -1.48726e-19)
(0.670157 0.0423381 -3.70335e-19)
(0.784806 0.0549891 -5.43053e-19)
(0.892838 0.0681681 5.43847e-19)
(0.989889 0.0808617 -5.10287e-19)
(1.07279 0.0921568 -2.78887e-19)
(1.13989 0.101384 1.64494e-19)
(1.19111 0.108165 -2.17822e-20)
(1.2277 0.112541 -1.98579e-19)
(1.25173 0.114386 7.79833e-20)
(1.26594 0.115231 4.31863e-21)
(1.27246 0.111548 9.89853e-20)
(-0.0071937 0.00482815 -2.83e-19)
(-0.00201494 0.00735579 -6.6478e-20)
(0.0225955 0.00769939 -1.7451e-19)
(0.0655219 0.0070438 6.82915e-20)
(0.126083 0.00678928 3.03215e-19)
(0.203406 0.00813127 1.11906e-19)
(0.296032 0.0119075 1.15929e-19)
(0.401612 0.018598 -5.38544e-19)
(0.516688 0.0282826 1.12416e-19)
(0.636702 0.0406064 8.66993e-20)
(0.756308 0.0548069 -2.19632e-19)
(0.869982 0.0698234 8.36986e-20)
(0.972778 0.0844775 3.2358e-19)
(1.06101 0.0976804 1.09293e-19)
(1.13265 0.108608 4.32325e-19)
(1.18746 0.116801 2.72327e-19)
(1.22666 0.122162 -6.05387e-20)
(1.25251 0.124967 3.50898e-19)
(1.26771 0.125392 -6.22993e-20)
(1.27512 0.124845 -9.833e-21)
(1.27695 0.120479 -5.47616e-20)
(-0.0052479 0.00356633 4.05265e-20)
(0.00585774 0.00412154 2.02849e-19)
(0.038433 0.0036253 -7.69926e-20)
(0.0910421 0.00312063 -1.44909e-19)
(0.162634 0.003981 2.34652e-20)
(0.251766 0.00735113 1.55915e-19)
(0.356128 0.0139275 -5.86844e-20)
(0.472258 0.0239444 1.45832e-20)
(0.595446 0.0371343 -1.21449e-19)
(0.719982 0.0527317 1.40435e-20)
(0.839766 0.0695773 1.19476e-19)
(0.94916 0.0863192 -2.88478e-19)
(1.0438 0.101661 -7.90907e-20)
(1.12115 0.114587 1.29433e-19)
(1.18063 0.124491 -5.41388e-19)
(1.22338 0.131211 -4.05999e-20)
(1.25171 0.134947 1.72131e-19)
(1.26855 0.136181 -1.84241e-20)
(1.27686 0.135314 1.75985e-19)
(1.27935 0.133588 4.27936e-20)
(1.27796 0.128712 -2.96159e-20)
(-0.00273201 0.00224298 -5.94657e-20)
(0.015443 0.000904072 4.00302e-20)
(0.0571102 -0.000131679 2.17599e-19)
(0.120429 -3.5043e-05 1.82796e-19)
(0.203829 0.00248523 -1.52657e-19)
(0.305086 0.00845321 -1.32487e-19)
(0.420807 0.0183285 2.25822e-19)
(0.546229 0.031989 -9.78448e-20)
(0.675354 0.0487216 -7.01836e-20)
(0.801514 0.0673035 3.15149e-20)
(0.918286 0.0862111 7.59951e-20)
(1.02047 0.103912 -3.43636e-19)
(1.10479 0.119145 -1.28199e-19)
(1.17019 0.131109 -6.458e-20)
(1.21756 0.139516 -2.64135e-19)
(1.24925 0.144526 2.60332e-19)
(1.26832 0.146607 4.73896e-20)
(1.278 0.14639 1.95966e-19)
(1.28119 0.144414 -4.88928e-20)
(1.28027 0.141709 5.84367e-20)
(1.27688 0.136499 -1.50171e-19)
(0.00042679 0.000890459 3.12448e-19)
(0.026894 -0.00218395 7.29422e-21)
(0.0787857 -0.00337529 -1.67674e-19)
(0.153753 -0.00215324 1.16583e-19)
(0.249527 0.00261651 -2.91928e-19)
(0.362872 0.0117439 5.23639e-20)
(0.489094 0.0253355 -6.29738e-20)
(0.622027 0.0427975 5.02462e-19)
(0.754496 0.0628985 3.3981e-19)
(0.879243 0.0839646 2.81626e-19)
(0.990061 0.104205 4.2904e-20)
(1.08273 0.122061 2.45004e-19)
(1.15545 0.136465 1.39636e-19)
(1.20874 0.146946 -8.61461e-20)
(1.24481 0.153573 -5.15271e-20)
(1.26689 0.15681 -1.48673e-19)
(1.27845 0.157325 9.69477e-20)
(1.28269 0.155833 2.10921e-19)
(1.28224 0.152935 4.73031e-20)
(1.27906 0.149432 9.5579e-20)
(1.27444 0.144019 1.15519e-19)
(0.00429656 -0.000447881 -3.35686e-19)
(0.0403386 -0.00500501 2.59189e-19)
(0.103559 -0.00588165 -1.0922e-19)
(0.190977 -0.00294567 -4.66264e-20)
(0.299422 0.00468394 -5.41148e-20)
(0.424417 0.0174861 -7.43713e-20)
(0.559799 0.0350858 -1.60636e-19)
(0.698021 0.0563159 -8.37676e-20)
(0.831013 0.079399 -1.01283e-19)
(0.951431 0.102282 -6.99876e-21)
(1.05386 0.123058 -5.06798e-20)
(1.13549 0.140312 3.09855e-19)
(1.19618 0.153307 5.73143e-20)
(1.23792 0.161961 9.3132e-20)
(1.26398 0.166693 2.70169e-19)
(1.27809 0.168212 -2.04099e-19)
(1.28378 0.167316 -1.79655e-20)
(1.28404 0.164738 -2.20093e-19)
(1.28109 0.161081 -2.07272e-19)
(1.27646 0.156921 -1.21745e-19)
(1.27115 0.151392 -1.54801e-19)
(0.00893737 -0.00171766 1.28776e-19)
(0.0558709 -0.00739836 -3.81127e-20)
(0.131457 -0.00740434 2.10475e-20)
(0.231942 -0.00211605 -3.98846e-20)
(0.353038 0.00897515 1.07198e-19)
(0.488817 0.0258814 5.77594e-20)
(0.631581 0.0476183 -3.41282e-19)
(0.77257 0.0723781 1.74785e-19)
(0.903256 0.0978724 -6.08087e-20)
(1.01679 0.121804 5.84971e-19)
(1.10903 0.142326 -2.52123e-19)
(1.17889 0.158331 3.21945e-20)
(1.22784 0.169497 2.05477e-19)
(1.25911 0.176143 -1.39369e-19)
(1.27664 0.178991 -2.00714e-19)
(1.28437 0.178922 1.25973e-19)
(1.28565 0.176788 3.93997e-21)
(1.28308 0.173295 -7.87063e-20)
(1.27848 0.169003 -3.09394e-19)
(1.27296 0.164291 3.16061e-21)
(1.26725 0.158691 -1.24944e-19)
(0.0143981 -0.00285413 3.30498e-20)
(0.0735421 -0.00918339 -3.37053e-20)
(0.162422 -0.0076822 2.6608e-19)
(0.276359 0.000626636 -1.16455e-20)
(0.409733 0.0157391 -1.89588e-19)
(0.555021 0.0370546 9.38777e-20)
(0.703036 0.0628715 -3.54129e-20)
(0.844143 0.0907276 -8.67557e-20)
(0.9699 0.117926 1.42908e-19)
(1.07451 0.142104 -2.26993e-19)
(1.15549 0.161658 -1.86969e-19)
(1.21353 0.175907 1.5621e-20)
(1.25155 0.184981 -1.4525e-19)
(1.27367 0.189569 1.40067e-19)
(1.28421 0.190626 1.89745e-20)
(1.28698 0.189127 3.21164e-20)
(1.28504 0.185919 -4.51997e-20)
(1.28052 0.18165 8.10414e-20)
(1.27485 0.176809 1.82358e-19)
(1.2688 0.171616 -9.78623e-20)
(1.26288 0.165956 1.00869e-19)
(0.020713 -0.00378336 -3.00067e-20)
(0.093353 -0.0101646 1.11752e-19)
(0.196306 -0.00644921 1.78149e-19)
(0.323809 0.00555336 -6.02442e-20)
(0.468725 0.0251698 -1.2802e-19)
(0.621874 0.0510452 1.08946e-19)
(0.772787 0.0806919 -4.02822e-20)
(0.91142 0.111047 -2.39237e-20)
(1.03 0.139165 3.07158e-19)
(1.12425 0.162818 4.39998e-20)
(1.19356 0.180803 -7.96495e-20)
(1.24028 0.192934 -3.14491e-20)
(1.26851 0.199789 2.36048e-19)
(1.28291 0.202362 -4.80831e-20)
(1.28786 0.201762 1.37273e-19)
(1.2869 0.198992 -1.56539e-19)
(1.28265 0.194849 1.60415e-19)
(1.27684 0.189906 -8.48658e-20)
(1.2705 0.184567 4.05001e-20)
(1.26415 0.178937 4.12229e-20)
(1.2581 0.173203 -4.76222e-20)
(0.0278989 -0.00442392 9.45922e-20)
(0.115248 -0.0101381 3.87296e-20)
(0.232863 -0.00344605 -3.46865e-20)
(0.373748 0.0129001 1.41819e-19)
(0.529117 0.037394 1.78478e-19)
(0.688193 0.067806 -2.44779e-19)
(0.839571 0.100852 -8.78744e-20)
(0.973357 0.132988 1.90961e-19)
(1.083 0.161226 -2.09164e-19)
(1.16608 0.183659 -6.56647e-20)
(1.22386 0.199603 -8.27465e-20)
(1.26014 0.209392 -5.26239e-20)
(1.27986 0.214003 -5.74378e-21)
(1.28793 0.21466 2.37848e-20)
(1.28853 0.212549 -3.7061e-20)
(1.28483 0.208649 7.59855e-20)
(1.27897 0.203678 3.81084e-20)
(1.2723 0.198126 4.2362e-20)
(1.26556 0.192314 1.5729e-19)
(1.25905 0.186271 -2.90188e-21)
(1.25293 0.180433 -7.82166e-20)
(0.0359521 -0.00468921 -1.91903e-19)
(0.13911 -0.0088989 9.39328e-20)
(0.271754 0.00156781 -1.58995e-19)
(0.425527 0.0228542 5.61393e-20)
(0.589944 0.052463 9.58561e-20)
(0.752827 0.0872098 7.41821e-20)
(0.902302 0.123071 -1.62181e-20)
(1.02922 0.156206 -1.1425e-19)
(1.1287 0.183794 1.70195e-19)
(1.20034 0.204419 1.56504e-20)
(1.24716 0.21798 -1.23656e-19)
(1.27412 0.225315 5.91649e-21)
(1.28665 0.227727 1.10933e-19)
(1.28964 0.226594 -5.2353e-20)
(1.28693 0.223112 6.48843e-20)
(1.28124 0.218194 -7.98977e-20)
(1.27429 0.21247 2.72516e-20)
(1.26709 0.206347 8.41224e-22)
(1.26012 0.200067 1.17393e-19)
(1.25354 0.19362 -5.1955e-20)
(1.24736 0.187634 2.20327e-20)
(0.044846 -0.00449021 4.49457e-20)
(0.164759 -0.0062495 3.47466e-21)
(0.312547 0.0088021 8.93411e-20)
(0.478412 0.0355436 -5.543e-20)
(0.650219 0.0703507 -5.66348e-20)
(0.814714 0.109062 -1.90654e-20)
(0.960115 0.147042 -7.83498e-21)
(1.07856 0.180372 2.22988e-19)
(1.16718 0.206613 -2.60662e-20)
(1.22757 0.224958 -1.21017e-19)
(1.26429 0.235913 1.01796e-21)
(1.28313 0.240765 2.09243e-20)
(1.28973 0.241069 -7.39101e-20)
(1.28873 0.238275 -3.9571e-21)
(1.28356 0.233541 -8.01382e-20)
(1.27647 0.227691 -1.15761e-19)
(1.2688 0.221259 -6.83512e-20)
(1.26128 0.214579 -1.331e-19)
(1.2542 0.207822 -3.38069e-20)
(1.24761 0.200973 2.48737e-20)
(1.24139 0.194789 1.09279e-20)
(0.0545303 -0.0037386 -5.08945e-20)
(0.191955 -0.00200832 -6.85932e-20)
(0.354735 0.0184249 -1.87966e-19)
(0.531616 0.0510294 3.13842e-20)
(0.708975 0.090957 1.17116e-19)
(0.872931 0.133114 5.47407e-20)
(1.01238 0.172446 -1.38773e-19)
(1.12121 0.205193 6.43956e-20)
(1.19872 0.229482 -1.53657e-20)
(1.24841 0.245191 -9.03375e-21)
(1.27607 0.253414 -4.69542e-20)
(1.28801 0.255818 6.14994e-20)
(1.2898 0.254123 -1.69707e-20)
(1.28574 0.24979 1.34397e-20)
(1.27877 0.243899 1.0636e-20)
(1.27072 0.237173 -1.38704e-21)
(1.2626 0.230056 -1.9704e-21)
(1.25491 0.222817 -6.11736e-20)
(1.24781 0.215566 -5.39754e-20)
(1.24125 0.208309 4.5071e-20)
(1.235 0.201874 -3.56135e-20)
(0.0649295 -0.00235024 1.42412e-19)
(0.220398 0.0039819 6.41684e-20)
(0.39775 0.0305535 6.76477e-20)
(0.584328 0.0693027 -2.34785e-20)
(0.765311 0.114116 1.03541e-19)
(0.926717 0.159085 -9.95285e-20)
(1.05868 0.198972 5.2231e-20)
(1.15719 0.230416 3.84575e-20)
(1.22375 0.25225 4.19678e-21)
(1.26353 0.265073 -3.12627e-20)
(1.28325 0.270515 -2.18082e-20)
(1.28943 0.270542 2.8616e-20)
(1.28741 0.266963 -5.21826e-21)
(1.28105 0.261194 2.14255e-20)
(1.2728 0.254216 -3.00777e-20)
(1.26412 0.246648 -5.42727e-20)
(1.25574 0.238853 -1.66759e-20)
(1.24799 0.231042 3.5499e-20)
(1.24093 0.223276 -3.92784e-20)
(1.23443 0.215601 2.34162e-20)
(1.22817 0.208862 5.48153e-21)
(0.0759445 -0.000248602 -4.11333e-20)
(0.249739 0.0118463 -5.76468e-20)
(0.440977 0.045248 -5.70799e-20)
(0.635746 0.0902854 -3.87475e-20)
(0.818421 0.139605 -1.71459e-20)
(0.975486 0.186671 4.35557e-20)
(1.09881 0.226326 -1.30954e-20)
(1.18671 0.255823 2.28206e-20)
(1.24278 0.274804 -6.20056e-20)
(1.27359 0.284581 4.02448e-20)
(1.28648 0.287252 1.18617e-20)
(1.28795 0.284995 2.09479e-20)
(1.28298 0.27964 -1.74281e-20)
(1.27492 0.272519 2.07148e-20)
(1.26579 0.264503 1.10369e-20)
(1.25672 0.256107 5.43138e-21)
(1.24823 0.247627 -4.99148e-21)
(1.24051 0.239223 -3.24279e-20)
(1.23354 0.23092 3.11505e-20)