/*--------------------------------*- C++ -*----------------------------------*\
  =========                 |
  \\      /  F ield         | OpenFOAM: The Open Source CFD Toolbox
   \\    /   O peration     | Website:  https://openfoam.org
    \\  /    A nd           | Version:  7
     \\/     M anipulation  |
\*---------------------------------------------------------------------------*/
FoamFile
{
    version     2.0;
    format      ascii;
    class       surfaceScalarField;
    location    "96";
    object      phi;
}
// * * * * * * * * * * * * * * * * * * * * * * * * * * * * * * * * * * * * * //

dimensions      [0 3 -1 0 0 0 0];

internalField   nonuniform List<scalar> 
79480
(
-1.08177e-06
2.49801e-05
-2.38983e-05
-4.18485e-06
6.76658e-05
-6.45627e-05
-9.26072e-06
0.000104895
-9.98188e-05
-1.62588e-05
0.000136558
-0.00012956
-2.51234e-05
0.000162666
-0.000153802
-3.57955e-05
0.000183363
-0.000172691
-4.82148e-05
0.000198913
-0.000186494
-6.23229e-05
0.000209687
-0.000195579
-7.80652e-05
0.000216124
-0.000200382
-9.53936e-05
0.000218699
-0.000201371
-0.000114267
0.000217877
-0.000199004
-0.000134651
0.000214066
-0.000193682
-0.000156517
0.000207575
-0.000185709
-0.000179841
0.00019858
-0.000175256
-0.000204598
0.000187094
-0.000162336
-0.000230764
0.000172961
-0.000146795
-0.000258307
0.000155853
-0.000128309
-0.000287188
0.000135284
-0.000106403
-0.000317354
0.00011063
-8.04632e-05
-0.00034874
8.11489e-05
-4.97631e-05
-0.000381262
4.60039e-05
-1.34818e-05
-0.000414816
4.28218e-06
2.92714e-05
-0.00044929
-4.49866e-05
7.9461e-05
-0.000484558
-0.000102838
0.000138106
-0.000520498
-0.000170342
0.000206282
-0.000557008
-0.00024861
0.00028512
-0.000594027
-0.000338787
0.000375806
-0.00063154
-0.000442054
0.000479568
-0.000669598
-0.000559711
0.000597769
-0.000693204
0.000732059
-0.000708453
-9.84879e-07
2.59649e-05
-3.84223e-06
7.05232e-05
-8.55833e-06
0.000109611
-1.51139e-05
0.000143114
-2.34804e-05
0.000171033
-3.36207e-05
0.000193503
-4.54914e-05
0.000210784
-5.90456e-05
0.000223241
-7.42355e-05
0.000231314
-9.1015e-05
0.000235479
-0.000109342
0.000236204
-0.000129178
0.000233902
-0.000150492
0.000228888
-0.000173252
0.00022134
-0.000197433
0.000211274
-0.000223006
0.000198534
-0.00024994
0.000182786
-0.000278195
0.00016354
-0.000307724
0.000140158
-0.000338461
0.000111886
-0.000370326
7.78685e-05
-0.000403217
3.71733e-05
-0.000437014
-1.11898e-05
-0.000471593
-6.8259e-05
-0.00050683
-0.000135104
-0.000542631
-0.00021281
-0.000578955
-0.000302462
-0.000615842
-0.000405167
-0.000653447
-0.000522107
-0.000654444
-0.000692207
-8.7117e-07
2.68361e-05
-3.43686e-06
7.30889e-05
-7.72048e-06
0.000113894
-1.3736e-05
0.000149129
-2.14834e-05
0.00017878
-3.09487e-05
0.000202968
-4.21059e-05
0.000221941
-5.49191e-05
0.000236054
-6.93465e-05
0.000245741
-8.53428e-05
0.000251475
-0.000102863
0.000253724
-0.000121862
0.000252902
-0.0001423
0.000249326
-0.000164139
0.000243179
-0.000187342
0.000234478
-0.000211875
0.000223067
-0.0002377
0.000208611
-0.000264772
0.000190612
-0.000293037
0.000168423
-0.000322424
0.000141273
-0.000352844
0.000108288
-0.000384186
6.85146e-05
-0.000416308
2.0933e-05
-0.000449071
-3.54965e-05
-0.000482323
-0.000101852
-0.000515947
-0.000179186
-0.000549893
-0.000268516
-0.000584218
-0.000370842
-0.000619145
-0.00048718
-0.000618328
-0.000655262
-7.41939e-07
2.75781e-05
-2.97287e-06
7.53198e-05
-6.75496e-06
0.000117677
-1.21367e-05
0.000154511
-1.91477e-05
0.000185791
-2.77977e-05
0.000211618
-3.80782e-05
0.000232222
-4.99648e-05
0.000247941
-6.34206e-05
0.000259197
-7.84e-05
0.000266455
-9.48524e-05
0.000270176
-0.000112725
0.000270775
-0.000131966
0.000268567
-0.000152524
0.000263737
-0.000174352
0.000256305
-0.000197399
0.000246114
-0.000221617
0.000232829
-0.00024695
0.000215945
-0.00027333
0.000194803
-0.000300672
0.000168616
-0.00032887
0.000136487
-0.00035779
9.74338e-05
-0.000387269
5.04127e-05
-0.000417117
-5.64895e-06
-0.000447146
-7.18227e-05
-0.000477186
-0.000149147
-0.000507138
-0.000238564
-0.000537042
-0.000340939
-0.000567147
-0.000457075
-0.000587334
-0.000598141
-5.99042e-07
2.81771e-05
-2.45644e-06
7.71772e-05
-5.67379e-06
0.000120894
-1.03346e-05
0.000159172
-1.64985e-05
0.000191955
-2.41993e-05
0.000219319
-3.34463e-05
0.000241469
-4.42262e-05
0.000258721
-5.65067e-05
0.000271477
-7.02406e-05
0.000280188
-8.53706e-05
0.000285306
-0.000101833
0.000287237
-0.000119561
0.000286295
-0.000138488
0.000282664
-0.000158548
0.000276365
-0.000179674
0.000267241
-0.000201799
0.000254954
-0.000224848
0.000238994
-0.000248736
0.000218691
-0.000273357
0.000193237
-0.000298581
0.00016171
-0.000324241
0.000123094
-0.00035014
7.63118e-05
-0.000376035
2.02461e-05
-0.000401679
-4.61786e-05
-0.000426822
-0.000124004
-0.000451285
-0.000214101
-0.000475045
-0.000317178
-0.000498335
-0.000433785
-0.000563792
-0.000521877
-4.44847e-07
2.86219e-05
-1.89562e-06
7.86279e-05
-4.49295e-06
0.000123491
-8.355e-06
0.000163034
-1.3571e-05
0.000197171
-2.0199e-05
0.000225947
-2.82657e-05
0.000249535
-3.77687e-05
0.000268224
-4.86797e-05
0.000282388
-6.09494e-05
0.000292458
-7.45122e-05
0.000298869
-8.92912e-05
0.000302016
-0.000105203
0.000302207
-0.000122161
0.000299622
-0.000140077
0.000294281
-0.000158862
0.000286026
-0.000178426
0.000274518
-0.000198671
0.000259239
-0.000219485
0.000239505
-0.000240738
0.00021449
-0.000262267
0.000183239
-0.000283874
0.000144701
-0.000305314
9.77515e-05
-0.000326294
4.12261e-05
-0.000346484
-2.59885e-05
-0.000365542
-0.000104946
-0.000383176
-0.000196467
-0.000399258
-0.000301096
-0.00041395
-0.000419093
-0.000549832
-0.00042791
-2.82181e-07
2.89041e-05
-1.30014e-06
7.96459e-05
-3.23199e-06
0.000125423
-6.22918e-06
0.000166031
-1.04096e-05
0.000201352
-1.58547e-05
0.000231392
-2.26081e-05
0.000256289
-3.0678e-05
0.000276294
-4.00398e-05
0.00029175
-5.06411e-05
0.000303059
-6.24069e-05
0.000310635
-7.52457e-05
0.000314855
-8.90549e-05
0.000316016
-0.000103725
0.000314292
-0.000119143
0.000309698
-0.000135193
0.000302076
-0.000151755
0.000291081
-0.000168704
0.000276187
-0.000185897
0.000256699
-0.000203173
0.000231765
-0.000220336
0.000200402
-0.000237147
0.000161513
-0.000253316
0.000113921
-0.000268497
5.64062e-05
-0.000282272
-1.2213e-05
-0.000294199
-9.30184e-05
-0.000303845
-0.000186822
-0.000310936
-0.000294004
-0.000315509
-0.00041452
-0.000547316
-0.000318026
-1.14333e-07
2.90185e-05
-6.81095e-07
8.02127e-05
-1.91352e-06
0.000126655
-3.99385e-06
0.000168112
-7.06685e-06
0.000204425
-1.12357e-05
0.000235561
-1.65605e-05
0.000261614
-2.30591e-05
0.000282792
-3.07102e-05
0.000299401
-3.94578e-05
0.000311807
-4.92169e-05
0.000320394
-5.98801e-05
0.000325518
-7.13236e-05
0.00032746
-8.34126e-05
0.000326381
-9.60054e-05
0.000322291
-0.000108956
0.000315026
-0.000122111
0.000304236
-0.000135311
0.000289387
-0.00014838
0.000269768
-0.000161119
0.000244504
-0.000173296
0.000212579
-0.000184633
0.000172849
-0.000194792
0.00012408
-0.000203371
6.4985e-05
-0.00020988
-5.70383e-06
-0.000213769
-8.91298e-05
-0.000214451
-0.000186139
-0.000211473
-0.000296982
-0.000204738
-0.000421255
-0.000557826
-0.000194228
5.59661e-08
2.89625e-05
-5.05291e-08
8.03192e-05
-5.62557e-07
0.000127167
-1.69005e-06
0.000169239
-3.60193e-06
0.000206336
-6.42119e-06
0.00023838
-1.02228e-05
0.000265415
-1.50337e-05
0.000287603
-2.08352e-05
0.000305203
-2.75671e-05
0.000318539
-3.51343e-05
0.000327961
-4.34123e-05
0.000333796
-5.2255e-05
0.000336302
-6.15004e-05
0.000335626
-7.09756e-05
0.000331766
-8.04996e-05
0.00032455
-8.98837e-05
0.00031362
-9.8929e-05
0.000298432
-0.000107421
0.000278259
-0.000115121
0.000252204
-0.000121756
0.000219214
-0.000127006
0.0001781
-0.000130491
0.000127566
-0.000131754
6.62481e-05
-0.000130245
-7.21302e-06
-0.000125316
-9.40589e-05
-0.000116234
-0.000195221
-0.000102263
-0.000310953
-8.3336e-05
-0.000440181
-0.000581881
-5.92809e-05
2.23793e-07
2.87387e-05
5.78428e-07
7.99645e-05
7.94161e-07
0.000126952
6.3815e-07
0.000169395
-7.90999e-08
0.000207054
-1.49794e-06
0.000239799
-3.70588e-06
0.000267623
-6.73764e-06
0.000290635
-1.05765e-05
0.000309042
-1.51582e-05
0.000323121
-2.03767e-05
0.000333179
-2.60904e-05
0.00033951
-3.213e-05
0.000342342
-3.8305e-05
0.000341801
-4.4409e-05
0.00033787
-5.02241e-05
0.000330365
-5.55216e-05
0.000318918
-6.00602e-05
0.000302971
-6.35819e-05
0.000281781
-6.58044e-05
0.000254427
-6.64111e-05
0.000219821
-6.50382e-05
0.000176727
-6.12621e-05
0.00012379
-5.45809e-05
5.95668e-05
-4.43913e-05
-1.74027e-05
-2.99714e-05
-0.000108479
-1.05021e-05
-0.000214691
1.48943e-05
-0.00033635
4.76212e-05
-0.000472908
-0.000619258
8.49974e-05
3.86657e-07
2.8352e-05
1.19289e-06
7.91583e-05
2.12905e-06
0.000126016
2.94429e-06
0.00016858
3.43313e-06
0.000206565
3.44177e-06
0.00023979
2.87195e-06
0.000268193
1.68286e-06
0.000291824
-1.09916e-07
0.000310834
-2.43747e-06
0.000325448
-5.18277e-06
0.000335925
-8.18729e-06
0.000342514
-1.12582e-05
0.000345413
-1.41756e-05
0.000344719
-1.66989e-05
0.000340394
-1.85708e-05
0.000332237
-1.95197e-05
0.000319867
-1.92591e-05
0.00030271
-1.74836e-05
0.000280006
-1.38627e-05
0.000250806
-8.03259e-06
0.00021399
4.14483e-07
0.00016828
1.19495e-05
0.000112254
2.71242e-05
4.43922e-05
4.65805e-05
-3.6859e-05
7.10901e-05
-0.000132988
0.000101594
-0.000245194
0.000139199
-0.000373955
0.000184465
-0.000518174
-0.000672924
0.000238131
5.40627e-07
2.78114e-05
1.77982e-06
7.79191e-05
3.41461e-06
0.000124381
5.18227e-06
0.000166812
6.8663e-06
0.000204881
8.30329e-06
0.000238353
9.38775e-06
0.000267109
1.00747e-05
0.000291137
1.03798e-05
0.000310529
1.0377e-05
0.000325451
1.0194e-05
0.000336108
1.00063e-05
0.000342702
1.00298e-05
0.000345389
1.05138e-05
0.000344235
1.17341e-05
0.000339173
1.39881e-05
0.000329983
1.75921e-05
0.000316263
2.28812e-05
0.000297421
3.02117e-05
0.000272675
3.99663e-05
0.000241051
5.25622e-05
0.000201395
6.8461e-05
0.000152381
8.81791e-05
9.25363e-05
0.000112304
2.02672e-05
0.000141522
-6.60769e-05
0.000176645
-0.000168111
0.000218663
-0.000287213
0.000268741
-0.000424032
0.000327881
-0.000577315
-0.00074209
0.000397047
6.82383e-07
2.7129e-05
2.32677e-06
7.62747e-05
4.62415e-06
0.000122083
7.30643e-06
0.00016413
1.01519e-05
0.000202035
1.29921e-05
0.000235513
1.57181e-05
0.000264383
1.82831e-05
0.000288572
2.07043e-05
0.000308108
2.30613e-05
0.000323094
2.54925e-05
0.000333676
2.81898e-05
0.000340005
3.13918e-05
0.000342187
3.53763e-05
0.00034025
4.04543e-05
0.000334095
4.69639e-05
0.000323474
5.52673e-05
0.000307959
6.57499e-05
0.000286939
7.88222e-05
0.000259603
9.49235e-05
0.00022495
0.000114529
0.000181789
0.000138156
0.000128754
0.000166378
6.43147e-05
0.000199832
-1.31866e-05
0.000239243
-0.000105488
0.00028545
-0.000214318
0.000339461
-0.000341224
0.000402517
-0.000487088
0.000475856
-0.000650654
-0.000827065
0.000560832
8.08891e-07
2.63201e-05
2.82227e-06
7.42613e-05
5.73273e-06
0.000119173
9.2738e-06
0.000160589
1.32246e-05
0.000198085
1.74172e-05
0.000231321
2.17427e-05
0.000260057
2.6156e-05
0.000284159
3.06774e-05
0.000303587
3.5393e-05
0.000318378
4.04522e-05
0.000328617
4.60627e-05
0.000334394
5.24846e-05
0.000335766
6.00239e-05
0.000332711
6.90256e-05
0.000325094
7.98686e-05
0.000312631
9.29617e-05
0.000294866
0.000108742
0.000271158
0.000127677
0.000240668
0.000150266
0.000202361
0.000177048
0.000155007
0.000208606
9.71962e-05
0.000245574
2.7346e-05
0.000288652
-5.62639e-05
0.000338609
-0.000155446
0.000396312
-0.000272021
0.000462765
-0.000407677
0.000539234
-0.000563557
0.000627058
-0.000738478
-0.000928135
0.000728128
9.17508e-07
2.54026e-05
3.25618e-06
7.19227e-05
6.71803e-06
0.000115711
1.10454e-05
0.000156262
1.60248e-05
0.000193105
2.1494e-05
0.000225851
2.73492e-05
0.000254202
3.35498e-05
0.000277958
4.0122e-05
0.000297015
4.71595e-05
0.000311341
5.48228e-05
0.000320954
6.33351e-05
0.000325882
7.29774e-05
0.000326123
8.40826e-05
0.000321606
9.70293e-05
0.000312147
0.000112236
0.000297424
0.000130159
0.000276943
0.000151289
0.000250028
0.000176152
0.000215805
0.000205312
0.000173201
0.000239377
0.000120943
0.000279001
5.75715e-05
0.000324895
-1.85483e-05
0.000377826
-0.000109195
0.000438623
-0.000216243
0.000508184
-0.000341581
0.000587493
-0.000486987
0.000677783
-0.000653847
0.000780359
-0.000841053
-0.00104548
0.000897708
1.00608e-06
2.43966e-05
3.62004e-06
6.93087e-05
7.56115e-06
0.00011177
1.25878e-05
0.000151235
1.85002e-05
0.000187193
2.51481e-05
0.000219203
3.24372e-05
0.000246913
4.03354e-05
0.00027006
4.88773e-05
0.000288473
5.81662e-05
0.000302052
6.83742e-05
0.000310746
7.97403e-05
0.000314516
9.25657e-05
0.000313298
0.00010721
0.000306962
0.000124083
0.000295273
0.000143646
0.000277861
0.0001664
0.000254189
0.000192891
0.000223538
0.000223707
0.000184989
0.000259482
0.000137425
0.000300899
7.95254e-05
0.000348693
9.77795e-06
0.000403657
-7.35128e-05
0.000466638
-0.000172175
0.000538533
-0.000288138
0.000620278
-0.000423327
0.000712828
-0.000579537
0.000817318
-0.000758337
0.000934867
-0.000958603
-0.00117915
0.00106853
1.07299e-06
2.33236e-05
3.90738e-06
6.64743e-05
8.24731e-06
0.00010743
1.38742e-05
0.000145608
2.06088e-05
0.000180458
2.83181e-05
0.000211494
3.69228e-05
0.000238308
4.64034e-05
0.000260579
5.6806e-05
0.00027807
6.82459e-05
0.000290612
8.09082e-05
0.000298083
9.50481e-05
0.000300376
0.000110988
0.000297358
0.000129112
0.000288837
0.000149865
0.00027452
0.000173746
0.00025398
0.000201307
0.000226628
0.00023315
0.000191694
0.00026993
0.00014821
0.000312354
9.50011e-05
0.000361188
3.06918e-05
0.000417257
-4.62912e-05
0.000481441
-0.000137697
0.000554676
-0.00024541
0.000637928
-0.00037139
0.000732169
-0.000517569
0.000838306
-0.000685674
0.00095731
-0.00087734
0.00108996
-0.00109125
-0.00132891
0.00123972
1.11725e-06
2.22063e-05
4.11402e-06
6.34775e-05
8.76655e-06
0.000102778
1.48861e-05
0.000139488
2.23201e-05
0.000173024
3.09589e-05
0.000202855
4.07431e-05
0.000228524
5.16704e-05
0.000249652
6.38023e-05
0.000265938
7.72685e-05
0.000277146
9.22698e-05
0.000283082
0.000109079
0.000283567
0.00012804
0.000278397
0.000149565
0.000267312
0.000174133
0.000249952
0.000202285
0.000225828
0.000234623
0.00019429
0.000271812
0.000154506
0.000314577
0.000105445
0.000363707
4.58711e-05
0.000420057
-2.56581e-05
0.000484546
-0.00011078
0.00055815
-0.000211301
0.000641888
-0.000329148
0.000736787
-0.000466288
0.00084383
-0.000624612
0.000963843
-0.000805687
0.00109755
-0.00101104
0.00124522
-0.00123892
-0.00149415
0.00141046
1.13855e-06
2.10678e-05
4.23827e-06
6.03778e-05
9.1143e-06
9.79015e-05
1.56141e-05
0.000132989
2.36177e-05
0.000165021
3.30446e-05
0.000193428
4.38604e-05
0.000217708
5.60848e-05
0.000237428
6.97988e-05
0.000252224
8.51504e-05
0.000261794
0.000102359
0.000265873
0.000121719
0.000264207
0.000143597
0.000256519
0.000168436
0.000242473
0.000196752
0.000221636
0.000229133
0.000193448
0.000266237
0.000157186
0.000308794
0.000111948
0.000357608
5.66311e-05
0.000413558
-1.00783e-05
0.000477592
-8.96924e-05
0.000550727
-0.000183915
0.000634032
-0.000294605
0.000728593
-0.000423709
0.000835468
-0.000573163
0.000955598
-0.000744742
0.00108966
-0.000939749
0.00123802
-0.0011594
0.00140031
-0.00140122
-0.00167367
0.00157983
1.13726e-06
1.99305e-05
4.28113e-06
5.7234e-05
9.2919e-06
9.28907e-05
1.60589e-05
0.000126222
2.45007e-05
0.000156579
3.45709e-05
0.000183358
4.62657e-05
0.000206014
5.96316e-05
0.000224062
7.4774e-05
0.000237082
9.18638e-05
0.000244705
0.000111143
0.000246594
0.000132931
0.000242419
0.000157625
0.000231826
0.0001857
0.000214397
0.000217716
0.00018962
0.000254312
0.000156851
0.000296211
0.000115288
0.000344217
6.39415e-05
0.000399216
1.63235e-06
0.000462186
-7.30489e-05
0.000534172
-0.000161678
0.000616282
-0.000266026
0.000709661
-0.000387984
0.000815431
-0.00052948
0.000934617
-0.000692349
0.00106803
-0.000878157
0.0012161
-0.00108782
0.00137869
-0.00132199
0.00155471
-0.00157724
-0.00186554
0.00174658
1.11454e-06
1.8816e-05
4.24651e-06
5.4102e-05
9.30698e-06
8.78303e-05
1.62325e-05
0.000119296
2.4985e-05
0.000147826
3.55576e-05
0.000172786
4.7982e-05
0.000193589
6.23371e-05
0.000209707
7.87579e-05
0.000220661
9.74436e-05
0.000226019
0.000118666
0.000225372
0.000142773
0.000218312
0.000170198
0.000204401
0.000201459
0.000183136
0.000237165
0.000153914
0.000278015
0.000116001
0.000324804
6.84991e-05
0.000378417
1.03281e-05
0.000439842
-5.97928e-05
0.000510139
-0.000143346
0.000590453
-0.000241991
0.000681968
-0.000357541
0.000785866
-0.000491882
0.000903244
-0.000646858
0.001035
-0.00082411
0.0011817
-0.00102486
0.00134338
-0.0012495
0.00151924
-0.00149785
0.00170744
-0.00176543
-0.00206705
0.00190894
1.07231e-06
1.77436e-05
4.14129e-06
5.1033e-05
9.17371e-06
8.27979e-05
1.61579e-05
0.000112312
2.5104e-05
0.00013888
3.60493e-05
0.00016184
4.90663e-05
0.000180572
6.42719e-05
0.000194501
8.18365e-05
0.000203096
0.000101994
0.000205861
0.000125052
0.000202314
0.000151399
0.000191966
0.000181509
0.000174291
0.000215952
0.000148692
0.000255397
0.000114469
0.000300614
7.07842e-05
0.000352476
1.66365e-05
0.000411964
-4.9159e-05
0.000480151
-0.00012798
0.000558196
-0.000221391
0.000647315
-0.00033111
0.000748732
-0.000458958
0.000863602
-0.000606752
0.000992907
-0.000776162
0.0011373
-0.000968505
0.00129693
-0.00118449
0.00147129
-0.00142386
0.00165876
-0.00168532
0.00185679
-0.00196346
-0.00227468
0.00206443
1.01328e-06
1.67304e-05
3.97533e-06
4.8071e-05
8.91287e-06
7.78603e-05
1.587e-05
0.000105355
2.49092e-05
0.000129841
3.61166e-05
0.000150633
4.96108e-05
0.000167078
6.55521e-05
0.00017856
8.41536e-05
0.000184495
0.000105692
0.000184323
0.000130518
0.000177487
0.000159069
0.000163416
0.000191872
0.000141487
0.000229561
0.000111004
0.000272873
7.11575e-05
0.000322658
2.09987e-05
0.00037988
-4.05857e-05
0.00044561
-0.000114888
0.00052101
-0.000203381
0.000607313
-0.000307694
0.00070577
-0.000429567
0.000817579
-0.000570767
0.00094378
-0.000732953
0.00108511
-0.000917494
0.00124183
-0.00112523
0.00141351
-0.00135616
0.00159894
-0.00160929
0.00179559
-0.00188196
0.0020003
-0.00216818
-0.00248433
0.00220995
9.40946e-07
1.57894e-05
3.76144e-06
4.52505e-05
8.55163e-06
7.30701e-05
1.54148e-05
9.84915e-05
2.44694e-05
0.000120786
3.5855e-05
0.000139247
4.97414e-05
0.000153192
6.63388e-05
0.000161962
8.59101e-05
0.000164924
0.000108783
0.00016145
0.000135363
0.000150908
0.000166143
0.000132635
0.000201721
0.00010591
0.000242798
6.99266e-05
0.000290195
2.37599e-05
0.000344852
-3.36577e-05
0.000407821
-0.000103555
0.00048026
-0.000187327
0.000563402
-0.000286523
0.000658513
-0.000402804
0.000766817
-0.000537872
0.000889399
-0.000693348
0.00102706
-0.000870612
0.00118014
-0.00107058
0.00134835
-0.00129344
0.00153053
-0.00153834
0.00172466
-0.00180343
0.00192727
-0.00208458
0.00213485
-0.00237576
-0.00269155
0.00234207
8.59535e-07
1.49299e-05
3.51513e-06
4.25949e-05
8.123e-06
6.84623e-05
1.48485e-05
9.1766e-05
2.38694e-05
0.000111766
3.5383e-05
0.000127734
4.96156e-05
0.000138959
6.68339e-05
0.000144744
8.73586e-05
0.000144399
0.000111578
0.000137231
0.000139961
0.000122524
0.000173073
9.95224e-05
0.000211586
6.73975e-05
0.000256286
2.5226e-05
0.000308084
-2.80381e-05
0.000368009
-9.35825e-05
0.0004372
-0.000172746
0.000516881
-0.000267008
0.000608318
-0.00037796
0.000712749
-0.000507236
0.000831286
-0.000656408
0.000964776
-0.000826838
0.00111364
-0.00101947
0.00127767
-0.00123461
0.00145588
-0.00147164
0.00164628
-0.00172874
0.001846
-0.00200314
0.00205078
-0.00228936
0.00225696
-0.00258194
-0.00289193
0.00245734
7.73881e-07
1.4156e-05
3.25414e-06
4.01146e-05
7.66493e-06
6.40515e-05
1.42359e-05
8.51951e-05
2.32072e-05
0.000102794
3.4838e-05
0.000116103
4.94165e-05
0.00012438
6.7273e-05
0.000126887
8.87942e-05
0.000122878
0.000114438
0.000111587
0.00014475
9.22126e-05
0.000180376
6.3897e-05
0.000222073
2.57001e-05
0.000270721
-2.34223e-05
0.000327321
-8.46382e-05
0.000392988
-0.000159249
0.000468926
-0.000248684
0.000556393
-0.000354475
0.000656627
-0.000478194
0.000770754
-0.000621363
0.000899658
-0.000785312
0.00104382
-0.000970996
0.00120312
-0.00117877
0.00137668
-0.00140817
0.00156269
-0.00165765
0.00175834
-0.00192439
0.00195995
-0.00220475
0.00216277
-0.00249218
0.00236321
-0.00278239
-0.00308149
0.00255277
6.89281e-07
1.34667e-05
2.99789e-06
3.7806e-05
7.21887e-06
5.98305e-05
1.36478e-05
7.87662e-05
2.25902e-05
9.38518e-05
3.43709e-05
0.000104322
4.93456e-05
0.000109406
6.79152e-05
0.000108318
9.05408e-05
0.000100252
0.00011776
8.43672e-05
0.000150203
5.97696e-05
0.000188606
2.54945e-05
0.00023382
-1.95141e-05
0.000286818
-7.64205e-05
0.000348687
-0.000146507
0.000420608
-0.00023117
0.000503819
-0.000331896
0.000599552
-0.000450208
0.00070894
-0.000587581
0.00083289
-0.000745313
0.000971929
-0.000924351
0.00112603
-0.00112509
0.00129441
-0.00134716
0.00147541
-0.00158917
0.00166639
-0.00184864
0.0018638
-0.0021218
0.00206326
-0.00240422
0.00226005
-0.00268896
0.00245066
-0.002973
-0.00325695
0.00262612
6.11262e-07
1.28555e-05
2.7666e-06
3.56507e-05
6.82798e-06
5.57691e-05
1.31581e-05
7.24361e-05
2.21303e-05
8.48796e-05
3.4139e-05
9.23136e-05
4.96129e-05
9.39319e-05
6.90298e-05
8.89009e-05
9.29332e-05
7.63487e-05
0.000121949
5.53517e-05
0.000156799
2.49193e-05
0.000198316
-1.60224e-05
0.000247447
-6.86447e-05
0.00030525
-0.000134224
0.000372883
-0.000214139
0.000451559
-0.000309847
0.000542498
-0.000422835
0.000646832
-0.000554542
0.000765487
-0.000706236
0.000899034
-0.00087886
0.00104752
-0.00107283
0.00121027
-0.00128785
0.00138577
-0.00152266
0.00157156
-0.00177496
0.00176421
-0.00204129
0.0019596
-0.00231718
0.00215294
-0.00259756
0.00233996
-0.00287598
0.00251708
-0.00315012
-0.00341594
0.00267607
5.45308e-07
1.23102e-05
2.58028e-06
3.36157e-05
6.53503e-06
5.18144e-05
1.28401e-05
6.6131e-05
2.19385e-05
7.57812e-05
3.42979e-05
7.99541e-05
5.04248e-05
7.7805e-05
7.08803e-05
6.84455e-05
9.62967e-05
5.09323e-05
0.000127393
2.42549e-05
0.00016499
-1.26775e-05
0.000210015
-6.10473e-05
0.000263504
-0.000122134
0.000326587
-0.000197307
0.000400457
-0.000288009
0.000486316
-0.000395706
0.000585293
-0.000521812
0.00069833
-0.000667578
0.000826037
-0.000833944
0.00096853
-0.00102135
0.00112525
-0.00122956
0.00129483
-0.00145743
0.00147498
-0.0017028
0.00166247
-0.00196245
0.0018533
-0.00223212
0.00204298
-0.00250686
0.00222666
-0.00278124
0.00240079
-0.00305011
0.00256123
-0.00331055
-0.00355697
0.00270226
4.96557e-07
1.18136e-05
2.45772e-06
3.16545e-05
6.38009e-06
4.7892e-05
1.27621e-05
5.97491e-05
2.21182e-05
6.64251e-05
3.49923e-05
6.708e-05
5.19728e-05
6.08245e-05
7.37086e-05
4.67097e-05
0.000100925
2.37156e-05
0.000134439
-9.25888e-06
0.000175166
-5.34045e-05
0.000224124
-0.000110005
0.000282421
-0.000180431
0.00035123
-0.000266116
0.000431738
-0.000368517
0.000525069
-0.000489037
0.000632178
-0.000628921
0.000753718
-0.000789117
0.000889873
-0.000970099
0.0010402
-0.00117168
0.00120347
-0.00139283
0.00137757
-0.00163153
0.00155949
-0.00188473
0.00174544
-0.00214839
0.00193104
-0.00241773
0.00211178
-0.0026876
0.00228318
-0.00295264
0.00244215
-0.00320908
0.00258292
-0.00345132
-0.00368012
0.00270607
4.69491e-07
1.13441e-05
2.41533e-06
2.97087e-05
6.39827e-06
4.3909e-05
1.29841e-05
5.31632e-05
2.27598e-05
5.66493e-05
3.63478e-05
5.3492e-05
5.44211e-05
4.27512e-05
7.77193e-05
2.34115e-05
0.000107062
-5.62766e-06
0.000143362
-4.55585e-05
0.000187624
-9.76662e-05
0.00024094
-0.000163321
0.000304465
-0.000243956
0.000379375
-0.000341026
0.000466791
-0.000455933
0.000567685
-0.000589931
0.000682749
-0.000743985
0.000812242
-0.00091861
0.00095583
-0.00111369
0.00111243
-0.00132828
0.00128013
-0.00156052
0.00145611
-0.00180751
0.00163679
-0.0020654
0.00181799
-0.0023296
0.00199532
-0.00259506
0.00216455
-0.00285683
0.00232201
-0.0031101
0.00246532
-0.00335239
0.00259027
-0.00357627
-0.00379617
0.00270632
4.67686e-07
1.08764e-05
2.46631e-06
2.77101e-05
6.61783e-06
3.97575e-05
1.35544e-05
4.62267e-05
2.39357e-05
4.62679e-05
3.84638e-05
3.8964e-05
5.78974e-05
2.33176e-05
8.30668e-05
-1.75786e-06
0.000114884
-3.74453e-05
0.00015435
-8.50239e-05
0.000202544
-0.000145861
0.000260611
-0.000221388
0.000329715
-0.000313061
0.000410982
-0.000422292
0.000505401
-0.000550352
0.000613707
-0.000698237
0.000736238
-0.000866516
0.000872773
-0.00105514
0.00102239
-0.0012633
0.00118334
-0.00148924
0.00135304
-0.00173022
0.0015281
-0.00198258
0.00170456
-0.00224186
0.00187816
-0.00250319
0.00204473
-0.00276164
0.00220065
-0.00301275
0.00234323
-0.00325267
0.00247069
-0.00347985
0.00258337
-0.00368896
-0.00389612
0.00268333
4.93607e-07
1.03828e-05
2.61993e-06
2.55837e-05
7.05876e-06
3.53187e-05
1.45069e-05
3.87785e-05
2.56963e-05
3.50785e-05
4.1408e-05
2.32523e-05
6.24856e-05
2.24002e-06
8.9847e-05
-2.91193e-05
0.00012449
-7.20883e-05
0.000167489
-0.000128023
0.000219981
-0.000198352
0.000283125
-0.000284532
0.000358052
-0.000387988
0.000445776
-0.000510016
0.00054708
-0.000651655
0.00066238
-0.000813538
0.000791575
-0.000995711
0.000933897
-0.00119747
0.0010878
-0.0014172
0.0012509
-0.00165234
0.00142004
-0.00189936
0.00159144
-0.00215397
0.00176098
-0.0024114
0.00192459
-0.0026668
0.00207862
-0.00291567
0.00222026
-0.00315438
0.00234778
-0.00338019
0.00246046
-0.00359254
0.00255941
-0.00378791
-0.00398172
0.00264501
5.48538e-07
9.83428e-06
2.88125e-06
2.3251e-05
7.73213e-06
3.04678e-05
1.58605e-05
3.06502e-05
2.80686e-05
2.28704e-05
4.52146e-05
6.1063e-06
6.82234e-05
-2.07688e-05
9.80936e-05
-5.89895e-05
0.000135897
-0.000109891
0.000182764
-0.00017489
0.000239856
-0.000255444
0.000308311
-0.000352988
0.00038917
-0.000468848
0.000483269
-0.000604115
0.000591108
-0.000759495
0.00071271
-0.000935139
0.000847469
-0.00113047
0.000994034
-0.00134403
0.00115025
-0.00157341
0.00131317
-0.00181526
0.00147921
-0.00206541
0.00164442
-0.00231918
0.00180478
-0.00257177
0.00195666
-0.00281868
0.00209713
-0.00305614
0.00222425
-0.00328151
0.00233727
-0.00349321
0.00243637
-0.00369164
0.00252323
-0.00387477
-0.00405717
0.00259868
6.32608e-07
9.20167e-06
3.2512e-06
2.06324e-05
8.64025e-06
2.50787e-05
1.76187e-05
2.16717e-05
3.10563e-05
9.43274e-06
4.98843e-05
-1.27217e-05
7.51024e-05
-4.59868e-05
0.00010778
-9.16666e-05
0.000149044
-0.000151156
0.000200058
-0.000225904
0.000261972
-0.000317358
0.000335855
-0.000426871
0.000422599
-0.000555591
0.000522792
-0.000704308
0.000636584
-0.000873287
0.000763538
-0.00106209
0.000902506
-0.00126944
0.00105156
-0.00149308
0.00120798
-0.00172983
0.00136839
-0.00197568
0.001529
-0.00222601
0.00168587
-0.00247605
0.00183535
-0.00272125
0.00197442
-0.00295775
0.00210099
-0.00318271
0.00221402
-0.00339454
0.00231361
-0.00359279
0.00240064
-0.00377867
0.00247723
-0.00395136
-0.00412419
0.00254425
7.4493e-07
8.45674e-06
3.72702e-06
1.76503e-05
9.7775e-06
1.90283e-05
1.97715e-05
1.16777e-05
3.46421e-05
-5.43787e-06
5.53875e-05
-3.34671e-05
8.30729e-05
-7.36722e-05
0.000118823
-0.000127417
0.000163801
-0.000196134
0.00021917
-0.000281273
0.000286029
-0.000384216
0.000365325
-0.000506167
0.000457738
-0.000648004
0.000563547
-0.000810117
0.000682487
-0.000992227
0.000813621
-0.00119323
0.000955251
-0.00141107
0.00110491
-0.00164274
0.00125943
-0.00188436
0.00141517
-0.00213142
0.00156831
-0.00237915
0.00171518
-0.00262292
0.00185267
-0.00285874
0.00197851
-0.00308359
0.00209145
-0.00329564
0.00219129
-0.00349438
0.00227881
-0.00368031
0.00235541
-0.00385527
0.00242341
-0.00401936
-0.00418456
0.00248379
8.83828e-07
7.57292e-06
4.30297e-06
1.42312e-05
1.11318e-05
1.21995e-05
2.22974e-05
5.12073e-07
3.87908e-05
-2.19313e-05
6.16691e-05
-5.63454e-05
9.20502e-05
-0.000104053
0.000131096
-0.000166463
0.00017998
-0.000245018
0.000239829
-0.000341122
0.000311645
-0.000456032
0.000396197
-0.000590719
0.000493897
-0.000745703
0.000604653
-0.000920873
0.000727743
-0.00111532
0.000861712
-0.0013272
0.00100434
-0.00155369
0.0011527
-0.00179109
0.00130332
-0.00203498
0.00145248
-0.00228058
0.00159653
-0.0025232
0.00173227
-0.00275866
0.00185725
-0.00298372
0.00196998
-0.00319632
0.00207003
-0.00339569
0.00215788
-0.00358224
0.00223484
-0.00375727
0.00230262
-0.00392305
0.00236355
-0.00408029
-0.00423959
0.00241858
1.0471e-06
6.52581e-06
4.97125e-06
1.03071e-05
1.26863e-05
4.48444e-06
2.51666e-05
-1.19683e-05
4.34541e-05
-4.02187e-05
6.86542e-05
-8.15455e-05
0.000101923
-0.000137322
0.000144437
-0.000208978
0.000197349
-0.00029793
0.00026171
-0.000405483
0.000338378
-0.000532699
0.00042789
-0.000680231
0.00053033
-0.000848144
0.000645195
-0.00103574
0.000771279
-0.0012414
0.000906622
-0.00146254
0.00104854
-0.00169562
0.00119378
-0.00193633
0.00133871
-0.00217992
0.00147973
-0.0024216
0.00161354
-0.00265701
0.00173752
-0.00288265
0.00184998
-0.00309617
0.00195018
-0.00329653
0.00203838
-0.00348389
0.00211562
-0.00365948
0.00218351
-0.00382516
0.00224391
-0.00398345
0.00229906
-0.00413544
-0.00429033
0.00234979
1.23232e-06
5.2935e-06
5.72289e-06
5.81648e-06
1.44213e-05
-4.21392e-06
2.83436e-05
-2.58907e-05
4.85742e-05
-6.04493e-05
7.62546e-05
-0.000109226
0.00011256
-0.000173627
0.000158658
-0.000255075
0.000215644
-0.000354916
0.000284454
-0.000474294
0.00036575
-0.000613995
0.000459786
-0.000774267
0.000566275
-0.000954633
0.000684268
-0.00115373
0.000812078
-0.00136921
0.000947286
-0.00159775
0.00108684
-0.00183517
0.00122728
-0.00207677
0.00136502
-0.00231766
0.00149672
-0.00255329
0.00161959
-0.00277988
0.00173169
-0.00299475
0.00183204
-0.00319651
0.00192059
-0.00338508
0.00199817
-0.00356147
0.00206618
-0.00372748
0.0021264
-0.00388538
0.00218068
-0.00403774
0.00223108
-0.00418584
-0.00433754
0.0022783
1.437e-06
3.85649e-06
6.54852e-06
7.04955e-07
1.63157e-05
-1.39811e-05
3.17901e-05
-4.1365e-05
5.40883e-05
-8.27476e-05
8.43734e-05
-0.000139511
0.000123819
-0.000213073
0.000173554
-0.00030481
0.000234582
-0.000415944
0.000307679
-0.00054739
0.000393263
-0.000699579
0.000491261
-0.000872265
0.000600978
-0.00106435
0.000721012
-0.00127376
0.000849221
-0.00149742
0.000982798
-0.00173132
0.00111845
-0.00197082
0.00125265
-0.00221097
0.00138203
-0.00244703
0.00150364
-0.00267491
0.00161532
-0.00289155
0.00171578
-0.00309522
0.00180474
-0.00328547
0.00188272
-0.00346307
0.00195094
-0.00362969
0.00201104
-0.00378758
0.00206482
-0.00393916
0.00211404
-0.00408696
0.0021605
-0.00423229