/*--------------------------------*- C++ -*----------------------------------*\
  =========                 |
  \\      /  F ield         | OpenFOAM: The Open Source CFD Toolbox
   \\    /   O peration     | Website:  https://openfoam.org
    \\  /    A nd           | Version:  7
     \\/     M anipulation  |
\*---------------------------------------------------------------------------*/
FoamFile
{
    version     2.0;
    format      ascii;
    class       surfaceScalarField;
    location    "50";
    object      phi;
}
// * * * * * * * * * * * * * * * * * * * * * * * * * * * * * * * * * * * * * //

dimensions      [0 3 -1 0 0 0 0];

internalField   nonuniform List<scalar> 
1659
(
0.000608274
-1.26315e-05
-3.27036e-11
0.000620783
-1.25083e-05
-3.32832e-11
0.000633168
-1.2385e-05
-3.38177e-11
0.000645429
-1.22616e-05
-3.43028e-11
0.000657567
-1.21382e-05
-3.47316e-11
-1.20149e-05
0.000610381
-2.52326e-05
0.000622859
-2.49867e-05
0.000635215
-2.47405e-05
0.000647448
-2.44941e-05
0.000659557
-2.42478e-05
-2.40017e-05
0.000614578
-3.77731e-05
0.000626997
-3.74055e-05
0.000639294
-3.70373e-05
0.000651468
-3.66688e-05
0.000663521
-3.63005e-05
-3.59325e-05
0.000620832
-5.02233e-05
0.000633162
-4.97353e-05
0.000645371
-4.92464e-05
0.000657459
-4.87573e-05
0.000669427
-4.82682e-05
-4.77797e-05
0.000629093
-6.2554e-05
0.000641305
-6.19474e-05
0.000653399
-6.13398e-05
0.000665373
-6.07318e-05
0.000677229
-6.01238e-05
-5.95164e-05
0.000639296
-7.4737e-05
0.000651363
-7.40141e-05
0.000663313
-7.329e-05
0.000675147
-7.25653e-05
0.000686864
-7.18407e-05
-7.11167e-05
0.000651361
-8.67451e-05
0.000663255
-8.59086e-05
0.000675036
-8.50706e-05
0.000686703
-8.4232e-05
0.000698255
-8.33933e-05
-8.25554e-05
0.000665191
0.000676888
-9.76053e-05
0.000688474
-9.66566e-05
0.000699949
-9.57071e-05
0.000711313
-9.47575e-05
-9.38086e-05
0.000692154
-0.00010908
0.000703521
-0.000108024
0.000714782
-0.000106967
0.000725934
-0.00010591
-0.000104854
0.000708931
-0.000120311
0.000720059
-0.000119152
0.000731082
-0.000117991
0.000742002
-0.000116831
-0.00011567
0.000727089
-0.000131276
0.000737955
-0.000130018
0.000748723
-0.000128758
0.00075939
-0.000127498
-0.000126239
0.000746484
-0.000141957
0.000757071
-0.000140605
0.000767563
-0.000139251
0.000777961
-0.000137896
-0.000136541
0.000766964
-0.000152337
0.000777255
-0.000150896
0.000787456
-0.000149452
0.000797568
-0.000148007
0.000807589
-0.000146563
-0.000145119
0.000788368
-0.000162402
0.000798348
-0.000160876
0.000808245
-0.000159349
0.000818056
-0.000157819
0.000827783
-0.000156289
-0.000154761
0.000810528
0.000820186
-0.000170534
0.000829765
-0.000168928
0.000839266
-0.000167319
0.000848686
-0.00016571
-0.000164102
0.000842597
-0.00017986
0.00085185
-0.00017818
0.000861029
-0.000176499
0.000870135
-0.000174816
-0.000173133
0.000865406
-0.000188845
0.000874325
-0.000187099
0.000883176
-0.00018535
0.000891959
-0.000183599
-0.000181848
0.000888434
-0.000197485
0.000897014
-0.000195678
0.000905532
-0.000193868
0.000913989
-0.000192056
-0.000190242
0.000911503
0.00091974
-0.000203916
0.000927923
-0.000202051
0.000936051
-0.000200183
0.000944122
-0.000198314
-0.000196444
0.000942326
-0.000211811
0.000950174
-0.000209899
0.000957972
-0.000207982
0.000965721
-0.000206063
-0.000204143
0.000964595
-0.000219367
0.000972109
-0.000217413
0.000979581
-0.000215454
0.00098701
-0.000213491
-0.000211527
0.000986371
-0.000226587
0.000993557
-0.000224599
0.00100071
-0.000222604
0.00100782
-0.000220604
-0.000218602
0.00100749
0.00101435
-0.000231462
0.00102118
-0.000229438
0.00102799
-0.000227409
0.00103476
-0.000225375
-0.000223339
0.00103432
-0.000238013
0.00104085
-0.000235967
0.00104735
-0.000233913
0.00105383
-0.000231855
-0.000229793
0.00105331
-0.000244261
0.00105955
-0.0002422
0.00106576
-0.000240129
0.00107196
-0.000238052
-0.00023597
0.00107118
0.00107713
-0.00024815
0.00108307
-0.000246069
0.00108899
-0.00024398
0.00109491
-0.000241884
-0.000239784
0.00109345
-0.000253833
0.00109913
-0.000251748
0.0011048
-0.000249652
0.00111047
-0.000247549
-0.000245439
0.00110837
-0.000259266
0.0011138
-0.000257182
0.00111924
-0.000255087
0.00112467
-0.000252981
-0.000250868
0.00112174
0.00112695
-0.00026239
0.00113217
-0.000260301
0.00113738
-0.0002582
0.0011426
-0.000256089
-0.00025397
0.00113853
-0.000267391
0.00114354
-0.000265313
0.00114856
-0.000263221
0.00115359
-0.000261118
-0.000259006
0.00350887
-0.000273001
0.00351453
-0.00027097
0.00352023
-0.000268921
0.00352596
-0.000266857
-0.00026478
0.00373405
-0.000276657
0.00373778
-0.000274702
0.00374158
-0.000272723
0.00374545
-0.000270726
-0.00026871
0.00396106
-0.000278371
0.00396287
-0.000276518
0.00396479
-0.000274638
0.00396679
-0.000272733
-0.000270806
0.00418754
-0.000278188
0.00418749
-0.000276464
0.00418756
-0.000274708
0.00418775
-0.000272922
-0.000271108
0.00441126
-0.00027619
0.00440942
-0.000274621
0.00440772
-0.000273013
0.00440617
-0.000271369
-0.000269692
0.00463009
-0.000272494
0.00462657
-0.000271101
0.00462322
-0.000269662
0.00462003
-0.00026818
-0.00026666
0.0048421
-0.000267241
0.00483704
-0.000266041
0.00483217
-0.000264789
0.00482748
-0.000263488
-0.000262142
0.00504556
-0.000260599
0.00503913
-0.000259606
0.00503289
-0.000258554
0.00502685
-0.000257447
-0.000256288
0.00523898
-0.00025275
0.00523135
-0.000251973
0.00522392
-0.00025113
0.0052167
-0.000250226
-0.000249264
0.00542112
-0.000243891
0.00541248
-0.000243333
0.00540406
-0.000242704
0.00539584
-0.000242007
-0.000241248
0.00559104
-0.000234221
0.00558159
-0.000233882
0.00557235
-0.000233466
0.00556332
-0.000232978
-0.000232421
0.00574806
-0.000223939
0.00573799
-0.000223815
0.00572813
-0.000223608
0.00571848
-0.000223325
-0.000222968
0.00589177
-0.000213238
0.00588127
-0.000213319
0.00587098
-0.000213314
0.00586088
-0.000213228
-0.000213064
0.00602204
-0.000202298
0.00601129
-0.000202573
0.00600074
-0.000202759
0.00599037
-0.000202859
-0.000202878
0.00613896
-0.000191283
0.00612813
-0.000191738
0.00611747
-0.0001921
0.00610699
-0.000192374
-0.000192564
0.00624287
-0.000180339
0.00623208
-0.000180957
0.00622147
-0.00018148
0.006211
-0.000181914
-0.000182261
0.00633424
-0.00016959
0.00632364
-0.000170354
0.00631318
-0.000171022
0.00630286
-0.000171599
-0.000172088
0.00641374
-0.000159138
0.00640341
-0.00016003
0.00639322
-0.000160826
0.00638315
-0.00016153
-0.000162145
0.00648212
-0.000149066
0.00647216
-0.000150069
0.0064623
-0.000150975
0.00645256
-0.000151789
-0.000152515
0.00654023
-0.000139433
0.00653069
-0.000140529
0.00652125
-0.00014153
0.00651189
-0.000142438
-0.000143259
0.00658897
-0.000130281
0.00657989
-0.000131455
0.00657089
-0.000132533
0.00656198
-0.000133521
-0.000134421
0.00662924
-0.000121634
0.00662065
-0.00012287
0.00661213
-0.000124013
0.00660368
-0.000125065
-0.000126031
0.00666196
-0.000113503
0.00665388
-0.000114788
0.00664584
-0.00011598
0.00663786
-0.000117085
-0.000118104
0.00668801
-0.000105885
0.00668042
-0.000107206
0.00667288
-0.000108437
0.00666538
-0.000109581
-0.000110642
0.00670822
-9.87675e-05
0.00670113
-0.000100114
0.00669407
-0.000101373
0.00668703
-0.000102547
-0.00010364
0.0067234
-9.21322e-05
0.00671678
-9.34949e-05
0.00671018
-9.47722e-05
0.0067036
-9.59669e-05
-9.70817e-05
0.00673425
-8.59544e-05
0.00672808
-8.73251e-05
0.00672192
-8.86127e-05
0.00671578
-8.98198e-05
-9.09491e-05
0.00674145
-8.02065e-05
0.0067357
-8.1578e-05
0.00672996
-8.28688e-05
0.00672422
-8.40814e-05
-8.52183e-05
0.00674557
-7.48587e-05
0.00674022
-7.6225e-05
0.00673487
-7.7513e-05
0.00672951
-7.87251e-05
-7.98636e-05
0.00674716
-6.9881e-05
0.00674217
-7.12368e-05
0.00673717
-7.25167e-05
0.00673217
-7.37231e-05
-7.48582e-05
0.00674665
-6.52437e-05
0.006742
-6.65844e-05
0.00673733
-6.78518e-05
0.00673266
-6.90479e-05
-7.0175e-05
0.00674446
-6.09181e-05
0.00674011
-6.22398e-05
0.00673575
-6.34907e-05
0.00673138
-6.46727e-05
-6.57878e-05
0.00674092
-5.68775e-05
0.00673686
-5.81766e-05
0.00673277
-5.94074e-05
0.00672867
-6.05718e-05
-6.16716e-05
0.00673633
-5.30966e-05
0.00673252
-5.43701e-05
0.00672869
-5.55777e-05
0.00672484
-5.67213e-05
-5.78027e-05
0.00673093
-4.95526e-05
0.00672736
-5.07975e-05
0.00672376
-5.19792e-05
0.00672014
-5.30993e-05
-5.41594e-05
0.00672494
-4.62244e-05
0.00672158
-4.74383e-05
0.0067182
-4.85914e-05
0.00671478
-4.96854e-05
-5.07217e-05
0.00671853
-4.30933e-05
0.00671537
-4.42737e-05
0.00671217
-4.53959e-05
0.00670895
-4.64613e-05
-4.74716e-05
0.00671185
-4.01421e-05
0.00670886
-4.12868e-05
0.00670584
-4.23758e-05
0.00670279
-4.34106e-05
-4.43925e-05
0.00670501
-3.73557e-05
0.00670219
-3.84626e-05
0.00669933
-3.95164e-05
0.00669643
-4.05183e-05
-4.14697e-05
0.00669812
-3.47203e-05
0.00669544
-3.57874e-05
0.00669273
-3.68039e-05
0.00668999
-3.7771e-05
-3.86901e-05
0.00669126
-3.22235e-05
0.00668872
-3.32489e-05
0.00668614
-3.42263e-05
0.00668353
-3.51568e-05
-3.60415e-05
0.0066845
-2.98542e-05
0.00668209
-3.08361e-05
0.00667964
-3.17725e-05
0.00667714
-3.26646e-05
-3.35133e-05
0.0066779
-2.76022e-05
0.0066756
-2.85389e-05
0.00667326
-2.94327e-05
0.00667088
-3.02846e-05
-3.10956e-05
0.0066715
-2.54582e-05
0.00666931
-2.63481e-05
0.00666708
-2.71976e-05
0.0066648
-2.80078e-05
-2.87794e-05
0.00666535
-2.34136e-05
0.00666326
-2.42551e-05
0.00666112
-2.50589e-05
0.00665893
-2.58258e-05
-2.65566e-05
0.00665947
-2.14603e-05
0.00665747
-2.22522e-05
0.00665542
-2.30088e-05
0.00665332
-2.37309e-05
-2.44194e-05
0.0066539
-1.9591e-05
0.00665198
-2.03317e-05
0.00665001
-2.10398e-05
0.00664799
-2.1716e-05
-2.23609e-05
0.00664865
-1.77984e-05
0.0066468
-1.84869e-05
0.00664491
-1.91452e-05
0.00664297
-1.97741e-05
-2.03741e-05
0.00664375
-1.60759e-05
0.00664197
-1.67109e-05
0.00664014
-1.73183e-05
0.00663827
-1.78988e-05
-1.84528e-05
0.00663921
-1.44168e-05
0.00663749
-1.49973e-05
0.00663573
-1.55528e-05
0.00663391
-1.60838e-05
-1.65908e-05
0.00663504
-1.28149e-05
0.00663339
-1.33401e-05
0.00663168
-1.38427e-05
0.00662992
-1.43233e-05
-1.47823e-05
0.00663127
-1.12641e-05
0.00662966
-1.1733e-05
0.006628
-1.21819e-05
0.00662629
-1.26112e-05
-1.30214e-05
0.00662789
-9.75849e-06
0.00662633
-1.01704e-05
0.00662471
-1.05648e-05
0.00662304
-1.09421e-05
-1.13026e-05
0.00662492
-8.2921e-06
0.00662339
-8.64633e-06
0.00662181
-8.98561e-06
0.00662018
-9.31022e-06
-9.62048e-06
0.00662236
-6.85921e-06
0.00662087
-7.15525e-06
0.00661932
-7.43882e-06
0.00661772
-7.71019e-06
-7.9696e-06
0.00662022
-5.45413e-06
0.00661875
-5.69151e-06
0.00661723
-5.91893e-06
0.00661566
-6.13658e-06
-6.34468e-06
0.0066185
-4.07124e-06
0.00661706
-4.2496e-06
0.00661556
-4.42048e-06
0.00661401
-4.58405e-06
-4.74045e-06
0.00661721
-2.70496e-06
0.00661578
-2.82401e-06
0.0066143
-2.93809e-06
0.00661276
-3.04729e-06
-3.15171e-06
0.00661634
-1.34972e-06
0.00661493
-1.40929e-06
0.00661346
-1.46637e-06
0.00661193
-1.52102e-06
-1.57328e-06
0.00661591
0.0066145
0.00661304
0.00661152
-0.000273001
0.00350887
0.000267391
-0.000276657
0.00373405
-0.000278371
0.00396106
-0.000278188
0.00418754
-0.00027619
0.00441126
-0.000272494
0.00463009
-0.000267241
0.0048421
-0.000260599
0.00504556
-0.00025275
0.00523898
-0.000243891
0.00542112
-0.000234221
0.00559104
-0.000223939
0.00574806
-0.000213238
0.00589177
-0.000202298
0.00602204
-0.000191283
0.00613896
-0.000180339
0.00624287
-0.00016959
0.00633424
-0.000159138
0.00641374
-0.000149066
0.00648212
-0.000139433
0.00654023
-0.000130281
0.00658897
-0.000121634
0.00662924
-0.000113503
0.00666196
-0.000105885
0.00668801
-9.87675e-05
0.00670822
-9.21322e-05
0.0067234
-8.59544e-05
0.00673425
-8.02065e-05
0.00674145
-7.48587e-05
0.00674557
-6.9881e-05
0.00674716
-6.52437e-05
0.00674665
-6.09182e-05
0.00674446
-5.68775e-05
0.00674092
-5.30966e-05
0.00673633
-4.95526e-05
0.00673093
-4.62244e-05
0.00672494
-4.30933e-05
0.00671853
-4.01421e-05
0.00671185
-3.73557e-05
0.00670501
-3.47203e-05
0.00669812
-3.22235e-05
0.00669126
-2.98542e-05
0.0066845
-2.76022e-05
0.0066779
-2.54582e-05
0.0066715
-2.34136e-05
0.00666535
-2.14603e-05
0.00665947
-1.9591e-05
0.0066539
-1.77984e-05
0.00664865
-1.60759e-05
0.00664375
-1.44168e-05
0.00663921
-1.28149e-05
0.00663504
-1.12641e-05
0.00663127
-9.75849e-06
0.00662789
-8.2921e-06
0.00662492
-6.85921e-06
0.00662236
-5.45413e-06
0.00662022
-4.07124e-06
0.0066185
-2.70496e-06
0.00661721
-1.34972e-06
0.00661634
0.00661591
-0.00027097
0.00351453
0.000265313
-0.000274702
0.00373778
-0.000276518
0.00396287
-0.000276464
0.00418749
-0.000274621
0.00440942
-0.000271101
0.00462657
-0.000266041
0.00483704
-0.000259606
0.00503913
-0.000251973
0.00523135
-0.000243333
0.00541248
-0.000233882
0.00558159
-0.000223815
0.00573799
-0.000213319
0.00588127
-0.000202573
0.00601129
-0.000191738
0.00612813
-0.000180957
0.00623208
-0.000170354
0.00632364
-0.000160031
0.00640341
-0.000150069
0.00647216
-0.000140529
0.00653069
-0.000131455
0.00657989
-0.00012287
0.00662065
-0.000114788
0.00665388
-0.000107206
0.00668042
-0.000100114
0.00670113
-9.34949e-05
0.00671678
-8.73251e-05
0.00672808
-8.1578e-05
0.0067357
-7.6225e-05
0.00674022
-7.12368e-05
0.00674217
-6.65844e-05
0.006742
-6.22398e-05
0.00674011
-5.81766e-05
0.00673686
-5.43701e-05
0.00673252
-5.07975e-05
0.00672736
-4.74383e-05
0.00672158
-4.42737e-05
0.00671537
-4.12868e-05
0.00670886
-3.84626e-05
0.00670219
-3.57874e-05
0.00669544
-3.32489e-05
0.00668872
-3.08361e-05
0.00668209
-2.85389e-05
0.0066756
-2.63481e-05
0.00666931
-2.42551e-05
0.00666326
-2.22522e-05
0.00665747
-2.03317e-05
0.00665198
-1.84869e-05
0.0066468
-1.67109e-05
0.00664197
-1.49973e-05
0.00663749
-1.33401e-05
0.00663339
-1.1733e-05
0.00662966
-1.01704e-05
0.00662633
-8.64633e-06
0.00662339
-7.15525e-06
0.00662087
-5.69151e-06
0.00661875
-4.2496e-06
0.00661706
-2.82401e-06
0.00661578
-1.40929e-06
0.00661493
0.0066145
-0.000268921
0.00352023
0.000263221
-0.000272723
0.00374158
-0.000274638
0.00396479
-0.000274708
0.00418756
-0.000273013
0.00440772
-0.000269662
0.00462322
-0.000264789
0.00483217
-0.000258554
0.00503289
-0.00025113
0.00522392
-0.000242704
0.00540406
-0.000233466
0.00557235
-0.000223608
0.00572813
-0.000213314
0.00587098
-0.000202759
0.00600074
-0.0001921
0.00611747
-0.00018148
0.00622147
-0.000171022
0.00631318
-0.000160826
0.00639322
-0.000150975
0.0064623
-0.00014153
0.00652125
-0.000132533
0.00657089
-0.000124013
0.00661213
-0.00011598
0.00664584
-0.000108437
0.00667288
-0.000101373
0.00669407
-9.47722e-05
0.00671018
-8.86127e-05
0.00672192
-8.28688e-05
0.00672996
-7.7513e-05
0.00673487
-7.25168e-05
0.00673717
-6.78518e-05
0.00673733
-6.34907e-05
0.00673575
-5.94074e-05
0.00673277
-5.55777e-05
0.00672869
-5.19792e-05
0.00672376
-4.85914e-05
0.0067182
-4.53959e-05
0.00671217
-4.23758e-05
0.00670584
-3.95164e-05
0.00669933
-3.68039e-05
0.00669273
-3.42263e-05
0.00668614
-3.17725e-05
0.00667964
-2.94327e-05
0.00667326
-2.71976e-05
0.00666708
-2.50589e-05
0.00666112
-2.30088e-05
0.00665542
-2.10398e-05
0.00665001
-1.91452e-05
0.00664491
-1.73183e-05
0.00664014
-1.55528e-05
0.00663573
-1.38427e-05
0.00663168
-1.21819e-05
0.006628
-1.05648e-05
0.00662471
-8.98561e-06
0.00662181
-7.43882e-06
0.00661932
-5.91893e-06
0.00661723
-4.42048e-06
0.00661556
-2.93809e-06
0.0066143
-1.46637e-06
0.00661346
0.00661304
-0.000266857
0.00352596
0.000261118
-0.000270726
0.00374545
-0.000272733
0.00396679
-0.000272922
0.00418775
-0.000271369
0.00440617
-0.000268181
0.00462003
-0.000263488
0.00482748
-0.000257447
0.00502685
-0.000250226
0.0052167
-0.000242007
0.00539584
-0.000232978
0.00556332
-0.000223325
0.00571848
-0.000213228
0.00586088
-0.000202859
0.00599037
-0.000192374
0.00610699
-0.000181914
0.006211
-0.000171599
0.00630286
-0.00016153
0.00638315
-0.000151789
0.00645256
-0.000142438
0.00651189
-0.000133521
0.00656198
-0.000125065
0.00660368
-0.000117085
0.00663786
-0.000109581
0.00666538
-0.000102547
0.00668703
-9.59669e-05
0.0067036
-8.98198e-05
0.00671578
-8.40815e-05
0.00672422
-7.87251e-05
0.00672951
-7.37231e-05
0.00673217
-6.90479e-05
0.00673266
-6.46727e-05
0.00673138
-6.05718e-05
0.00672867
-5.67213e-05
0.00672484
-5.30993e-05
0.00672014
-4.96854e-05
0.00671478
-4.64613e-05
0.00670895
-4.34106e-05
0.00670279
-4.05183e-05
0.00669643
-3.7771e-05
0.00668998
-3.51568e-05
0.00668353
-3.26646e-05
0.00667714
-3.02846e-05
0.00667088
-2.80078e-05
0.0066648
-2.58258e-05
0.00665893
-2.37309e-05
0.00665332
-2.1716e-05
0.00664799
-1.97741e-05
0.00664297
-1.78988e-05
0.00663827
-1.60838e-05
0.00663391
-1.43233e-05
0.00662992
-1.26112e-05
0.00662629
-1.09421e-05
0.00662304
-9.31022e-06
0.00662018
-7.71019e-06
0.00661772
-6.13658e-06
0.00661566
-4.58405e-06
0.00661401
-3.04729e-06
0.00661276
-1.52102e-06
0.00661193
0.00661152
-0.00026478
0.000259006
-0.00026871
-0.000270806
-0.000271108
-0.000269692
-0.00026666
-0.000262143
-0.000256288
-0.000249264
-0.000241248
-0.000232421
-0.000222968
-0.000213064
-0.000202878
-0.000192564
-0.000182261
-0.000172088
-0.000162145
-0.000152515
-0.000143259
-0.000134421
-0.000126031
-0.000118104
-0.000110642
-0.00010364
-9.70817e-05
-9.09491e-05
-8.52183e-05
-7.98636e-05
-7.48582e-05
-7.0175e-05
-6.57878e-05
-6.16716e-05
-5.78027e-05
-5.41594e-05
-5.07217e-05
-4.74716e-05
-4.43925e-05
-4.14697e-05
-3.86901e-05
-3.60415e-05
-3.35133e-05
-3.10956e-05
-2.87794e-05
-2.65566e-05
-2.44194e-05
-2.23609e-05
-2.03741e-05
-1.84528e-05
-1.65908e-05
-1.47823e-05
-1.30214e-05
-1.13026e-05
-9.62048e-06
-7.9696e-06
-6.34467e-06
-4.74045e-06
-3.15171e-06
-1.57328e-06
0.00113853
0.00026239
0.00114354
0.000260301
0.00114856
0.0002582
0.00115359
0.000256089
0.00112174
0.000259266
0.00112695
0.000257182
0.00113217
0.000255087
0.00113738
0.000252982
0.000250869
0.00110837
0.000253833
0.0011138
0.000251748
0.00111924
0.000249652
0.00112467
0.000247549
0.000245439
0.00109345
0.00024815
0.00109913
0.000246069
0.0011048
0.00024398
0.00111047
0.000241884
0.000239784
0.00107118
0.000244262
0.00107713
0.0002422
0.00108307
0.000240129
0.00108899
0.000238052
0.00109491
0.00023597
0.00105331
0.000238013
0.00105955
0.000235967
0.00106576
0.000233913
0.00107196
0.000231855
0.000229793
0.00103432
0.000231462
0.00104085
0.000229438
0.00104735
0.000227409
0.00105383
0.000225375
0.000223339
0.00100749
0.000226587
0.00101435
0.000224599
0.00102118
0.000222604
0.00102799
0.000220605
0.00103476
0.000218602
0.000986371
0.000219367
0.000993557
0.000217413
0.00100071
0.000215454
0.00100782
0.000213491
0.000211527
0.000964595
0.000211812
0.000972109
0.000209899
0.000979581
0.000207982
0.00098701
0.000206063
0.000204143
0.000942326
0.000203916
0.000950174
0.000202051
0.000957972
0.000200183
0.000965721
0.000198314
0.000196444
0.000911503
0.000197485
0.00091974
0.000195678
0.000927923
0.000193868
0.000936051
0.000192056
0.000944122
0.000190242
0.000888434
0.000188845
0.000897014
0.000187099
0.000905532
0.00018535
0.000913989
0.000183599
0.000181848
0.000865406
0.00017986
0.000874324
0.00017818
0.000883176
0.000176499
0.000891959
0.000174816
0.000173133
0.000842597
0.000170534
0.00085185
0.000168928
0.000861029
0.000167319
0.000870135
0.00016571
0.000164102
0.000810528
0.000162402
0.000820186
0.000160877
0.000829765
0.000159349
0.000839266
0.000157819
0.000848686
0.00015629
0.000154761
0.000788368
0.000152337
0.000798348
0.000150896
0.000808245
0.000149452
0.000818056
0.000148008
0.000827783
0.000146563
0.000145119
0.000766964
0.000141957
0.000777255
0.000140605
0.000787456
0.000139251
0.000797568
0.000137896
0.000807589
0.000136541
0.000746484
0.000131276
0.000757071
0.000130018
0.000767563
0.000128758
0.000777961
0.000127498
0.000126239
0.000727089
0.000120311
0.000737955
0.000119152
0.000748723
0.000117991
0.00075939
0.000116831
0.00011567
0.000708931
0.00010908
0.000720059
0.000108024
0.000731082
0.000106968
0.000742002
0.00010591
0.000104854
0.000692154
9.76054e-05
0.000703521
9.66567e-05
0.000714782
9.57072e-05
0.000725934
9.47576e-05
9.38087e-05
0.000665191
8.67451e-05
0.000676888
8.59086e-05
0.000688474
8.50707e-05
0.000699949
8.4232e-05
0.000711313
8.33934e-05
8.25554e-05
0.000651361
7.47371e-05
0.000663255
7.40142e-05
0.000675036
7.329e-05
0.000686703
7.25654e-05
0.000698255
7.18407e-05
7.11168e-05
0.000639296
6.25541e-05
0.000651363
6.19475e-05
0.000663313
6.13399e-05
0.000675147
6.07318e-05
0.000686864
6.01239e-05
5.95165e-05
0.000629093
5.02234e-05
0.000641305
4.97353e-05
0.000653399
4.92465e-05
0.000665373
4.87574e-05
0.000677229
4.82683e-05
4.77797e-05
0.000620832
3.77732e-05
0.000633162
3.74056e-05
0.000645371
3.70373e-05
0.000657459
3.66689e-05
0.000669427
3.63005e-05
3.59325e-05
0.000614578
2.52327e-05
0.000626997
2.49868e-05
0.000639294
2.47406e-05
0.000651468
2.44942e-05
0.000663521
2.42479e-05
2.40018e-05
0.000610381
1.26316e-05
0.000622859
1.25084e-05
0.000635215
1.2385e-05
0.000647448
1.22616e-05
0.000659557
1.21382e-05
0.000608274
0.000620783
0.000633168
0.000645429
)
;

boundaryField
{
    inlet
    {
        type            calculated;
        value           nonuniform 0();
    }
    outlet
    {
        type            calculated;
        value           nonuniform 0();
    }
    cylinder
    {
        type            calculated;
        value           nonuniform 0();
    }
    top
    {
        type            symmetryPlane;
        value           uniform 0;
    }
    bottom
    {
        type            symmetryPlane;
        value           uniform 0;
    }
    defaultFaces
    {
        type            empty;
        value           nonuniform 0();
    }
    procBoundary30to29
    {
        type            processor;
        value           nonuniform List<scalar> 
192
(
-0.000595643
-0.00059778
-0.000602038
-0.000608382
-0.000616762
-0.000627113
-0.000639353
-0.000653384
-9.85522e-05
-0.000680679
-0.000697701
-0.000716124
-0.000735803
-0.000756584
-0.000778303
-0.000800792
-0.000172138
-0.000833272
-0.000856421
-0.000879795
-0.000903211
-0.000205776
-0.000934431
-0.000957039
-0.000979151
-0.00100059
-0.000233479
-0.00102777
-0.00104706
-0.00106522
-0.000250221
-0.00108777
-0.00110294
-0.00111654
-0.000264466
-0.00113353
-0.00350326
-0.00373039
-0.00395934
-0.00418773
-0.00441326
-0.00463379
-0.00484736
-0.00505221
-0.00524683
-0.00542998
-0.00560071
-0.00575834
-0.00590247
-0.00603298
-0.00614998
-0.00625381
-0.00634499
-0.00642419
-0.00649219
-0.00654986
-0.00659812
-0.00663789
-0.00667009
-0.00669562
-0.00671534
-0.00673003
-0.00674043
-0.0067472
-0.00675092
-0.00675213
-0.00675129
-0.00674878
-0.00674496
-0.00674011
-0.00673448
-0.00672827
-0.00672166
-0.0067148
-0.0067078
-0.00670076
-0.00669376
-0.00668687
-0.00668015
-0.00667365
-0.00666739
-0.00666142
-0.00665577
-0.00665044
-0.00664547
-0.00664087
-0.00663665
-0.00663282
-0.0066294
-0.00662638
-0.00662379
-0.00662162
-0.00661988
-0.00661857
-0.0066177
-0.00661726
-0.00350326
-0.00373039
-0.00395934
-0.00418773
-0.00441326
-0.00463379
-0.00484736
-0.00505221
-0.00524683
-0.00542998
-0.00560071
-0.00575834
-0.00590247
-0.00603298
-0.00614998
-0.00625381
-0.00634499
-0.00642419
-0.00649219
-0.00654986
-0.00659812
-0.00663789
-0.00667009
-0.00669562
-0.00671534
-0.00673003
-0.00674043
-0.0067472
-0.00675092
-0.00675213
-0.00675129
-0.00674878
-0.00674496
-0.00674011
-0.00673448
-0.00672827
-0.00672166
-0.0067148
-0.0067078
-0.00670076
-0.00669376
-0.00668687
-0.00668015
-0.00667365
-0.00666739
-0.00666142
-0.00665577
-0.00665044
-0.00664547
-0.00664087
-0.00663665
-0.00663282
-0.0066294
-0.00662638
-0.00662379
-0.00662162
-0.00661988
-0.00661857
-0.0066177
-0.00661726
-0.00113353
-0.000264466
-0.00111654
-0.00110294
-0.00108777
-0.000250221
-0.00106522
-0.00104706
-0.00102777
-0.000233479
-0.00100059
-0.000979151
-0.000957039
-0.000934431
-0.000205776
-0.000903211
-0.000879795
-0.000856421
-0.000833272
-0.000172138
-0.000800792
-0.000778303
-0.000756584
-0.000735803
-0.000716124
-0.000697701
-0.000680679
-9.85523e-05
-0.000653384
-0.000639353
-0.000627113
-0.000616762
-0.000608382
-0.000602038
-0.00059778
-0.000595643
)
;
    }
    procBoundary30to31
    {
        type            processor;
        value           nonuniform List<scalar> 
192
(
0.000669582
-3.50881e-11
0.000671544
0.000675452
0.000681274
0.000688965
0.000698464
0.000709694
0.000722567
0.00073698
0.000752819
0.000769959
0.000788264
0.000135188
0.00081752
0.000837425
0.000858027
0.000879166
0.000900674
0.000922383
0.000188429
0.000952137
0.00097342
0.000994394
0.0010149
0.000216599
0.0010415
0.00106029
0.00107814
0.000233885
0.00110081
0.00111612
0.0011301
0.000248749
0.00114783
0.00115863
0.00353174
0.00374938
0.00396889
0.00418805
0.00440475
0.004617
0.00482296
0.005021
0.00520968
0.00538782
0.0055545
0.00570902
0.00585098
0.00598018
0.00609667
0.0062007
0.00629269
0.00637321
0.00644293
0.00650264
0.00655314
0.00659529
0.00662993
0.00665791
0.00668003
0.00669704
0.00670964
0.00671849
0.00672415
0.00672716
0.00672798
0.00672699
0.00672456
0.00672097
0.0067165
0.00671134
0.0067057
0.00669971
0.00669351
0.00668721
0.00668088
0.00667462
0.00666847
0.00666248
0.00665671
0.00665119
0.00664593
0.00664098
0.00663635
0.00663205
0.00662811
0.00662453
0.00662132
0.0066185
0.00661607
0.00661403
0.0066124
0.00661117
0.00661035
0.00660994
0.00353174
0.00374938
0.00396889
0.00418805
0.00440475
0.004617
0.00482296
0.005021
0.00520968
0.00538782
0.0055545
0.00570902
0.00585098
0.00598018
0.00609667
0.0062007
0.00629269
0.00637321
0.00644293
0.00650264
0.00655314
0.00659529
0.00662993
0.00665791
0.00668003
0.00669704
0.00670964
0.00671849
0.00672415
0.00672716
0.00672798
0.00672699
0.00672456
0.00672097
0.0067165
0.00671134
0.0067057
0.00669971
0.00669351
0.00668721
0.00668088
0.00667462
0.00666847
0.00666248
0.00665671
0.00665119
0.00664593
0.00664098
0.00663635
0.00663205
0.00662811
0.00662453
0.00662132
0.0066185
0.00661607
0.00661403
0.0066124
0.00661117
0.00661035
0.00660994
0.00115863
0.00025397
0.0011426
0.0011301
0.00111612
0.00110081
0.000233885
0.00107814
0.00106029
0.0010415
0.000216599
0.0010149
0.000994394
0.00097342
0.000952137
0.000188429
0.000922383
0.000900674
0.000879166
0.000858027
0.000837425
0.00081752
0.000135188
0.000788264
0.000769959
0.000752819
0.00073698
0.000722567
0.000709694
0.000698464
0.000688965
0.000681274
0.000675452
0.000671544
1.2015e-05
0.000657567
)
;
    }
}


// ************************************************************************* //
