/*--------------------------------*- C++ -*----------------------------------*\
  =========                 |
  \\      /  F ield         | OpenFOAM: The Open Source CFD Toolbox
   \\    /   O peration     | Website:  https://openfoam.org
    \\  /    A nd           | Version:  7
     \\/     M anipulation  |
\*---------------------------------------------------------------------------*/
FoamFile
{
    version     2.0;
    format      ascii;
    class       surfaceScalarField;
    location    "10";
    object      phi;
}
// * * * * * * * * * * * * * * * * * * * * * * * * * * * * * * * * * * * * * //

dimensions      [0 3 -1 0 0 0 0];

internalField   nonuniform List<scalar> 
1666
(
0.00189275
-7.18387e-06
-6.18138e-09
0.00189989
-7.1337e-06
-5.96013e-09
0.00190697
-7.08299e-06
-5.71375e-09
0.00191401
-7.03175e-06
-5.46857e-09
-6.97992e-06
-5.1935e-09
0.00189295
-1.43689e-05
0.00190009
-1.42685e-05
0.00190717
-1.4167e-05
0.0019142
-1.40644e-05
-1.39606e-05
0.00189336
-2.15439e-05
0.00190049
-2.13937e-05
0.00190756
-2.12417e-05
0.00191459
-2.1088e-05
-2.09325e-05
0.00189397
-2.87042e-05
0.00190108
-2.85045e-05
0.00190815
-2.83024e-05
0.00191516
-2.80981e-05
-2.78914e-05
0.00189478
-3.58449e-05
0.00190187
-3.55964e-05
0.00190891
-3.5345e-05
0.00191591
-3.50906e-05
-3.48333e-05
0.00189577
-4.29617e-05
0.00190284
-4.26651e-05
0.00190986
-4.2365e-05
0.00191683
-4.20614e-05
-4.17542e-05
0.00189694
-5.00503e-05
0.00190398
-4.97067e-05
0.00191097
-4.93588e-05
0.00191792
-4.90068e-05
-4.86505e-05
0.00189827
-5.71069e-05
0.00190528
-5.67172e-05
0.00191225
-5.63227e-05
0.00191916
-5.59233e-05
-5.5519e-05
0.00189976
-6.41281e-05
0.00190673
-6.36935e-05
0.00191366
-6.32535e-05
0.00192055
-6.28079e-05
-6.23569e-05
0.00190137
-7.11106e-05
0.00190831
-7.06325e-05
0.00191521
-7.01484e-05
0.00192206
-6.9658e-05
-6.91614e-05
0.00190311
-7.8052e-05
0.00191001
-7.75318e-05
0.00191687
-7.70049e-05
0.00192368
-7.64712e-05
-7.59305e-05
0.00190495
-8.49499e-05
0.00191181
-8.43892e-05
0.00191862
-8.38211e-05
0.0019254
-8.32456e-05
-8.26625e-05
0.00190687
-9.18028e-05
0.00191369
-9.12031e-05
0.00192046
-9.05955e-05
0.00192719
-8.99798e-05
0.00193389
-8.93558e-05
-8.87231e-05
0.00190885
-9.86095e-05
0.00191562
-9.79725e-05
0.00192236
-9.7327e-05
0.00192905
-9.66727e-05
0.0019357
-9.60095e-05
-9.53369e-05
0.00191088
-0.00010537
0.0019176
-0.000104697
0.00192429
-0.000104015
0.00193094
-0.000103324
0.00193756
-0.000102623
-0.000101913
0.00191292
-0.000112083
0.0019196
-0.000111376
0.00192624
-0.00011066
0.00193285
-0.000109934
0.00193943
-0.000109198
-0.000108451
0.00191496
0.00192159
-0.000118012
0.0019282
-0.000117263
0.00193477
-0.000116503
0.0019413
-0.000115733
-0.000114952
0.00192356
-0.000124604
0.00193012
-0.000123824
0.00193665
-0.000123034
0.00194315
-0.000122232
-0.000121419
0.00192548
-0.000131155
0.001932
-0.000130347
0.0019385
-0.000129527
0.00194496
-0.000128696
-0.000127852
0.00192733
-0.000137668
0.00193382
-0.000136833
0.00194028
-0.000135986
0.00194671
-0.000135127
-0.000134255
0.00192909
-0.000144146
0.00193554
-0.000143286
0.00194197
-0.000142414
0.00194837
-0.000141528
-0.00014063
0.00193073
-0.000150591
0.00193716
-0.000149709
0.00194356
-0.000148813
0.00194993
-0.000147904
-0.000146982
0.00193224
-0.000157009
0.00193864
-0.000156106
0.00194501
-0.000155189
0.00195137
-0.000154259
-0.000153314
0.00193359
-0.000163403
0.00193997
-0.000162482
0.00194632
-0.000161546
0.00195266
-0.000160596
-0.00015963
0.00193476
-0.00016978
0.00194112
-0.000168842
0.00194747
-0.000167889
0.00195379
-0.000166921
-0.000165937
0.00193574
-0.000176144
0.00194209
-0.000175191
0.00194842
-0.000174223
0.00195474
-0.000173239
-0.000172239
0.0019365
-0.000182502
0.00194284
-0.000181536
0.00194918
-0.000180555
0.00195549
-0.000179557
-0.000178542
0.00193702
-0.00018886
0.00194337
-0.000187883
0.00194971
-0.00018689
0.00195603
-0.00018588
0.00196234
-0.000184853
-0.000183808
0.0019373
0.00194365
-0.000194239
0.00195
-0.000193236
0.00195634
-0.000192216
0.00196266
-0.000191178
-0.000190122
0.00194368
-0.000200612
0.00195004
-0.000199601
0.0019564
-0.000198572
0.00196274
-0.000197525
-0.000196459
0.00481363
-0.000209992
0.00482298
-0.000208953
0.00483231
-0.000207896
0.0048416
-0.00020682
-0.000205723
0.0048703
-0.000218371
0.00487866
-0.000217313
0.00488699
-0.000216234
0.00489531
-0.000215136
-0.000214017
0.00492762
-0.000225746
0.00493498
-0.000224674
0.00494233
-0.000223582
0.00494966
-0.000222468
-0.000221334
0.00498519
-0.000232119
0.00499156
-0.000231041
0.00499792
-0.000229942
0.00500427
-0.000228821
-0.000227678
0.00504261
-0.000237504
0.005048
-0.000236426
0.00505338
-0.000235326
0.00505876
-0.000234204
-0.000233059
0.00509951
-0.00024192
0.00510393
-0.000240848
0.00510836
-0.000239754
0.00511279
-0.000238637
-0.000237497
0.00515554
-0.000245393
0.00515902
-0.000244333
0.00516252
-0.000243251
0.00516603
-0.000242145
-0.000241016
0.0052104
-0.000247957
0.00521298
-0.000246914
0.00521558
-0.000245849
0.00521819
-0.00024476
-0.000243647
0.0052638
-0.000249648
0.00526551
-0.000248628
0.00526725
-0.000247584
0.00526901
-0.000246517
-0.000245426
0.0053155
-0.00025051
0.00531639
-0.000249516
0.0053173
-0.000248499
0.00531825
-0.000247458
-0.000246393
0.0053653
-0.000250588
0.00536541
-0.000249624
0.00536554
-0.000248636
0.00536571
-0.000247625
-0.00024659
0.00541301
-0.000249929
0.00541238
-0.000248998
0.00541179
-0.000248044
0.00541123
-0.000247067
-0.000246065
0.0054585
-0.000248585
0.00545719
-0.00024769
0.00545592
-0.000246772
0.00545468
-0.000245831
-0.000244865
0.00550165
-0.000246605
0.00549971
-0.000245749
0.00549781
-0.000244869
0.00549595
-0.000243966
-0.00024304
0.0055424
-0.000244044
0.00553988
-0.000243226
0.0055374
-0.000242387
0.00553496
-0.000241525
-0.000240639
0.0055807
-0.00024095
0.00557764
-0.000240174
0.00557463
-0.000239376
0.00557166
-0.000238555
-0.000237712
0.00561652
-0.000237377
0.00561299
-0.000236642
0.0056095
-0.000235886
0.00560605
-0.000235108
-0.000234307
0.00564987
-0.000233373
0.00564591
-0.00023268
0.00564199
-0.000231966
0.00563812
-0.000231231
-0.000230474
0.00568079
-0.000228986
0.00567645
-0.000228335
0.00567215
-0.000227664
0.00566789
-0.000226971
-0.000226257
0.00570933
-0.000224263
0.00570464
-0.000223653
0.0057
-0.000223023
0.0056954
-0.000222373
-0.000221702
0.00573553
-0.000219246
0.00573056
-0.000218676
0.00572562
-0.000218088
0.00572073
-0.00021748
-0.000216851
0.0057595
-0.000213977
0.00575427
-0.000213447
0.00574908
-0.000212899
0.00574394
-0.000212331
-0.000211745
0.00578132
-0.000208494
0.00577588
-0.000208002
0.00577047
-0.000207493
0.00576511
-0.000206965
-0.000206419
0.0058011
-0.000202832
0.00579547
-0.000202377
0.00578989
-0.000201906
0.00578434
-0.000201417
-0.000200909
0.00581893
-0.000197025
0.00581316
-0.000196606
0.00580743
-0.00019617
0.00580173
-0.000195718
-0.000195248
0.00583495
-0.000191102
0.00582906
-0.000190716
0.0058232
-0.000190315
0.00581738
-0.000189897
-0.000189464
0.00584925
-0.00018509
0.00584327
-0.000184735
0.00583733
-0.000184367
0.00583141
-0.000183983
-0.000183583
0.00586197
-0.000179012
0.00585593
-0.000178688
0.00584991
-0.00017835
0.00584392
-0.000177998
-0.000177631
0.00587322
-0.000172892
0.00586713
-0.000172595
0.00586107
-0.000172286
0.00585503
-0.000171964
-0.000171627
0.00588312
-0.000166746
0.005877
-0.000166476
0.00587091
-0.000166194
0.00586485
-0.000165899
-0.000165591
0.00589178
-0.000160592
0.00588565
-0.000160347
0.00587955
-0.00016009
0.00587347
-0.000159821
-0.00015954
0.00589931
-0.000154445
0.00589319
-0.000154222
0.00588709
-0.000153988
0.00588101
-0.000153744
-0.000153488
0.00590582
-0.000148315
0.00589971
-0.000148113
0.00589362
-0.000147901
0.00588756
-0.000147679
-0.000147446
0.0059114
-0.000142213
0.00590532
-0.00014203
0.00589926
-0.000141839
0.00589322
-0.000141638
-0.000141426
0.00591616
-0.000136147
0.00591011
-0.000135983
0.00590408
-0.00013581
0.00589807
-0.000135628
-0.000135436
0.00592018
-0.000130125
0.00591417
-0.000129977
0.00590818
-0.000129821
0.00590221
-0.000129656
-0.000129483
0.00592354
-0.000124151
0.00591758
-0.000124018
0.00591163
-0.000123877
0.00590571
-0.000123729
-0.000123573
0.00592632
-0.00011823
0.00592041
-0.00011811
0.00591451
-0.000117983
0.00590864
-0.00011785
-0.000117709
0.00592859
-0.000112363
0.00592274
-0.000112256
0.00591689
-0.000112142
0.00591107
-0.000112023
-0.000111896
0.00593042
-0.000106554
0.00592462
-0.000106457
0.00591883
-0.000106356
0.00591306
-0.000106248
-0.000106134
0.00593187
-0.000100802
0.00592612
-0.000100716
0.00592039
-0.000100625
0.00591467
-0.000100529
-0.000100426
0.00593298
-9.51075e-05
0.0059273
-9.50307e-05
0.00592162
-9.49496e-05
0.00591596
-9.48636e-05
-9.47723e-05
0.00593382
-8.94706e-05
0.00592819
-8.94022e-05
0.00592257
-8.93299e-05
0.00591696
-8.92532e-05
-8.91716e-05
0.00593442
-8.38897e-05
0.00592885
-8.38288e-05
0.00592328
-8.37645e-05
0.00591773
-8.36962e-05
-8.36235e-05
0.00593483
-7.83631e-05
0.00592931
-7.83091e-05
0.00592379
-7.8252e-05
0.00591829
-7.81914e-05
-7.81267e-05
0.00593507
-7.28888e-05
0.0059296
-7.2841e-05
0.00592414
-7.27904e-05
0.00591868
-7.27367e-05
-7.26794e-05
0.00593518
-6.74642e-05
0.00592976
-6.74221e-05
0.00592435
-6.73774e-05
0.00591894
-6.733e-05
-6.72793e-05
0.00593519
-6.20868e-05
0.00592981
-6.20497e-05
0.00592445
-6.20104e-05
0.00591908
-6.19687e-05
-6.1924e-05
0.00593511
-5.67533e-05
0.00592979
-5.67208e-05
0.00592446
-5.66865e-05
0.00591914
-5.66499e-05
-5.66108e-05
0.00593498
-5.14608e-05
0.0059297
-5.14325e-05
0.00592441
-5.14026e-05
0.00591913
-5.13707e-05
-5.13366e-05
0.00593482
-4.62058e-05
0.00592956
-4.61813e-05
0.00592432
-4.61554e-05
0.00591908
-4.61279e-05
-4.60983e-05
0.00593462
-4.09849e-05
0.00592941
-4.09639e-05
0.00592419
-4.09417e-05
0.00591898
-4.0918e-05
-4.08927e-05
0.00593442
-3.57944e-05
0.00592924
-3.57766e-05
0.00592405
-3.57578e-05
0.00591887
-3.57378e-05
-3.57163e-05
0.00593422
-3.06308e-05
0.00592906
-3.0616e-05
0.0059239
-3.06003e-05
0.00591875
-3.05836e-05
-3.05657e-05
0.00593403
-2.54902e-05
0.0059289
-2.54782e-05
0.00592376
-2.54654e-05
0.00591863
-2.54519e-05
-2.54373e-05
0.00593387
-2.03689e-05
0.00592875
-2.03595e-05
0.00592363
-2.03495e-05
0.00591852
-2.03389e-05
-2.03275e-05
0.00593372
-1.52631e-05
0.00592862
-1.52562e-05
0.00592352
-1.52488e-05
0.00591842
-1.52409e-05
-1.52325e-05
0.00593361
-1.01689e-05
0.00592852
-1.01644e-05
0.00592343
-1.01595e-05
0.00591835
-1.01543e-05
-1.01488e-05
0.00593354
-5.08253e-06
0.00592845
-5.08025e-06
0.00592337
-5.07784e-06
0.00591829
-5.07527e-06
-5.07251e-06
0.0059335
0.00592842
0.00592334
0.00591826
-7.29352e-05
0.00594053
-6.75053e-05
0.00594059
-6.21229e-05
0.00594055
-5.67851e-05
0.00594044
-5.14885e-05
0.00594027
-4.62298e-05
0.00594006
-4.10055e-05
0.00593984
-3.58119e-05
0.00593961
-3.06454e-05
0.00593938
-2.55021e-05
0.00593917
-2.03782e-05
0.00593898
-1.527e-05
0.00593882
-1.01735e-05
0.0059387
-5.08478e-06
0.00593862
0.00593857
-0.00021
0.00481363
0.000200621
-0.000218379
0.0048703
-0.000225753
0.00492762
-0.000232126
0.00498519
-0.000237511
0.00504261
-0.000241926
0.00509951
-0.000245399
0.00515554
-0.000247962
0.0052104
-0.000249654
0.0052638
-0.000250515
0.0053155
-0.000250592
0.0053653
-0.000249934
0.00541301
-0.000248589
0.0054585
-0.000246609
0.00550165
-0.000244047
0.0055424
-0.000240954
0.00558069
-0.000237381
0.00561651
-0.000233376
0.00564987
-0.000228989
0.00568079
-0.000224266
0.00570932
-0.000219248
0.00573553
-0.000213979
0.0057595
-0.000208496
0.00578132
-0.000202835
0.00580109
-0.000197027
0.00581893
-0.000191104
0.00583494
-0.000185092
0.00584925
-0.000179015
0.00586197
-0.000172894
0.00587322
-0.000166748
0.00588311
-0.000160594
0.00589177
-0.000154446
0.0058993
-0.000148316
0.00590581
-0.000142215
0.00591139
-0.000136149
0.00591615
-0.000130127
0.00592017
-0.000124153
0.00592353
-0.000118231
0.00592631
-0.000112365
0.00592858
-0.000106555
0.00593041
-0.000100803
0.00593186
-9.51087e-05
0.00593298
-8.94717e-05
0.00593381
-8.38907e-05
0.00593441
-7.83641e-05
0.00593482
-7.28897e-05
0.00593506
-6.74651e-05
0.00593517
-6.20875e-05
0.00593518
-5.67541e-05
0.00593511
-5.14615e-05
0.00593498
-4.62064e-05
0.00593481
-4.09854e-05
0.00593462
-3.57949e-05
0.00593441
-3.06312e-05
0.00593421
-2.54905e-05
0.00593403
-2.03692e-05
0.00593386
-1.52633e-05
0.00593372
-1.01691e-05
0.00593361
-5.08259e-06
0.00593353
0.00593349
-0.000208961
0.00482299
0.000199609
-0.00021732
0.00487866
-0.000224681
0.00493499
-0.000231048
0.00499156
-0.000236432
0.005048
-0.000240854
0.00510393
-0.000244339
0.00515903
-0.00024692
0.00521298
-0.000248633
0.00526551
-0.000249521
0.00531639
-0.000249628
0.0053654
-0.000249002
0.00541238
-0.000247694
0.00545719
-0.000245752
0.00549971
-0.00024323
0.00553988
-0.000240178
0.00557764
-0.000236646
0.00561298
-0.000232683
0.00564591
-0.000228338
0.00567644
-0.000223655
0.00570464
-0.000218679
0.00573055
-0.000213449
0.00575427
-0.000208004
0.00577587
-0.00020238
0.00579546
-0.000196608
0.00581315
-0.000190718
0.00582905
-0.000184737
0.00584326
-0.00017869
0.00585592
-0.000172597
0.00586712
-0.000166478
0.00587699
-0.000160349
0.00588564
-0.000154223
0.00589318
-0.000148114
0.0058997
-0.000142032
0.00590531
-0.000135984
0.0059101
-0.000129978
0.00591416
-0.000124019
0.00591757
-0.000118111
0.0059204
-0.000112257
0.00592273
-0.000106459
0.00592461
-0.000100717
0.00592612
-9.50318e-05
0.00592729
-8.94032e-05
0.00592818
-8.38298e-05
0.00592884
-7.831e-05
0.0059293
-7.28418e-05
0.00592959
-6.74228e-05
0.00592975
-6.20504e-05
0.0059298
-5.67215e-05
0.00592978
-5.14331e-05
0.00592969
-4.61819e-05
0.00592956
-4.09644e-05
0.0059294
-3.57771e-05
0.00592923
-3.06163e-05
0.00592905
-2.54785e-05
0.00592889
-2.03597e-05
0.00592874
-1.52563e-05
0.00592861
-1.01645e-05
0.00592851
-5.08031e-06
0.00592844
0.00592841
-0.000207904
0.00483231
0.00019858
-0.000216242
0.004887
-0.000223589
0.00494233
-0.000229948
0.00499792
-0.000235332
0.00505338
-0.00023976
0.00510836
-0.000243257
0.00516252
-0.000245854
0.00521558
-0.000247589
0.00526725
-0.000248503
0.0053173
-0.000248641
0.00536554
-0.000248048
0.00541179
-0.000246776
0.00545591
-0.000244873
0.00549781
-0.00024239
0.00553739
-0.000239379
0.00557463
-0.000235889
0.00560949
-0.000231969
0.00564199
-0.000227666
0.00567214
-0.000223026
0.0057
-0.00021809
0.00572562
-0.000212901
0.00574908
-0.000207495
0.00577047
-0.000201908
0.00578988
-0.000196172
0.00580742
-0.000190317
0.00582319
-0.000184369
0.00583732
-0.000178352
0.0058499
-0.000172288
0.00586106
-0.000166196
0.0058709
-0.000160092
0.00587954
-0.00015399
0.00588708
-0.000147903
0.00589361
-0.00014184
0.00589925
-0.000135811
0.00590407
-0.000129822
0.00590817
-0.000123879
0.00591162
-0.000117985
0.00591451
-0.000112144
0.00591689
-0.000106357
0.00591883
-0.000100626
0.00592038
-9.49506e-05
0.00592162
-8.93308e-05
0.00592256
-8.37654e-05
0.00592327
-7.82529e-05
0.00592378
-7.27912e-05
0.00592413
-6.73782e-05
0.00592434
-6.20111e-05
0.00592444
-5.66871e-05
0.00592445
-5.14031e-05
0.0059244
-4.6156e-05
0.00592431
-4.09422e-05
0.00592418
-3.57583e-05
0.00592404
-3.06007e-05
0.0059239
-2.54657e-05
0.00592375
-2.03497e-05
0.00592362
-1.5249e-05
0.00592351
-1.01596e-05
0.00592342
-5.0779e-06
0.00592336
0.00592333
-0.000206827
0.0048416
0.000197533
-0.000215143
0.00489531
-0.000222475
0.00494966
-0.000228827
0.00500427
-0.00023421
0.00505876
-0.000238643
0.00511279
-0.000242151
0.00516603
-0.000244765
0.00521819
-0.000246522
0.00526901
-0.000247462
0.00531824
-0.000247629
0.00536571
-0.000247071
0.00541123
-0.000245834
0.00545468
-0.00024397
0.00549594
-0.000241528
0.00553495
-0.000238558
0.00557166
-0.000235111
0.00560604
-0.000231234
0.00563811
-0.000226974
0.00566788
-0.000222376
0.0056954
-0.000217482
0.00572072
-0.000212334
0.00574393
-0.000206967
0.0057651
-0.000201419
0.00578433
-0.00019572
0.00580172
-0.000189899
0.00581737
-0.000183985
0.0058314
-0.000178
0.00584392
-0.000171965
0.00585503
-0.000165901
0.00586484
-0.000159823
0.00587346
-0.000153745
0.005881
-0.000147681
0.00588755
-0.000141639
0.00589321
-0.000135629
0.00589806
-0.000129658
0.0059022
-0.00012373
0.0059057
-0.000117851
0.00590863
-0.000112024
0.00591106
-0.000106249
0.00591305
-0.00010053
0.00591466
-9.48646e-05
0.00591595
-8.92541e-05
0.00591695
-8.36971e-05
0.00591772
-7.81922e-05
0.00591828
-7.27375e-05
0.00591867
-6.73307e-05
0.00591893
-6.19693e-05
0.00591908
-5.66505e-05
0.00591913
-5.13712e-05
0.00591912
-4.61283e-05
0.00591907
-4.09185e-05
0.00591898
-3.57382e-05
0.00591886
-3.0584e-05
0.00591874
-2.54521e-05
0.00591862
-2.03391e-05
0.00591851
-1.52411e-05
0.00591841
-1.01544e-05
0.00591834
-5.07533e-06
0.00591828
0.00591826
-0.000205731
0.000196466
-0.000214024
-0.00022134
-0.000227684
-0.000233065
-0.000237503
-0.000241022
-0.000243652
-0.000245431
-0.000246397
-0.000246594
-0.000246069
-0.000244869
-0.000243043
-0.000240642
-0.000237714
-0.00023431
-0.000230476
-0.00022626
-0.000221705
-0.000216854
-0.000211747
-0.000206421
-0.000200911
-0.00019525
-0.000189465
-0.000183585
-0.000177632
-0.000171629
-0.000165593
-0.000159542
-0.000153489
-0.000147448
-0.000141428
-0.000135437
-0.000129484
-0.000123574
-0.00011771
-0.000111897
-0.000106135
-0.000100427
-9.47732e-05
-8.91724e-05
-8.36243e-05
-7.81275e-05
-7.26801e-05
-6.728e-05
-6.19246e-05
-5.66113e-05
-5.13371e-05
-4.60988e-05
-4.08931e-05
-3.57167e-05
-3.0566e-05
-2.54376e-05
-2.03277e-05
-1.52327e-05
-1.01489e-05
-5.07257e-06
0.00194368
0.000194248
0.00195004
0.000193245
0.0019564
0.000192224
0.00196274
0.000191186
0.000190129
0.0019373
0.000188869
0.00194365
0.000187892
0.00195
0.000186899
0.00195634
0.000185888
0.00196266
0.000184861
0.00193702
0.000182511
0.00194337
0.000181545
0.00194971
0.000180563
0.00195603
0.000179565
0.00017855
0.0019365
0.000176153
0.00194284
0.0001752
0.00194918
0.000174231
0.00195549
0.000173247
0.000172246
0.00193574
0.000169789
0.00194209
0.000168851
0.00194842
0.000167897
0.00195474
0.000166929
0.000165945
0.00193477
0.000163413
0.00194112
0.000162491
0.00194747
0.000161555
0.00195379
0.000160604
0.000159638
0.00193359
0.000157018
0.00193997
0.000156115
0.00194632
0.000155198
0.00195266
0.000154267
0.000153322
0.00193224
0.000150601
0.00193864
0.000149718
0.00194502
0.000148822
0.00195137
0.000147913
0.00014699
0.00193074
0.000144155
0.00193716
0.000143295
0.00194356
0.000142423
0.00194993
0.000141537
0.000140639
0.00192909
0.000137678
0.00193554
0.000136843
0.00194197
0.000135995
0.00194837
0.000135136
0.000134264
0.00192733
0.000131166
0.00193382
0.000130357
0.00194028
0.000129537
0.00194671
0.000128705
0.000127861
0.00192548
0.000124614
0.00193201
0.000123835
0.0019385
0.000123044
0.00194496
0.000122242
0.000121428
0.00191697
0.000118761
0.00192356
0.000118022
0.00193012
0.000117273
0.00193665
0.000116513
0.00194315
0.000115743
0.000114962
0.00191496
0.000112094
0.00192159
0.000111387
0.0019282
0.000110671
0.00193477
0.000109944
0.0019413
0.000109207
0.00010846
0.00191292
0.000105381
0.0019196
0.000104708
0.00192625
0.000104026
0.00193286
0.000103334
0.00193943
0.000102633
0.000101922
0.00191088
9.86209e-05
0.0019176
9.79833e-05
0.00192429
9.73373e-05
0.00193094
9.66825e-05
0.00193756
9.60189e-05
9.5346e-05
0.00190886
9.18143e-05
0.00191563
9.1214e-05
0.00192236
9.06058e-05
0.00192905
8.99895e-05
0.0019357
8.9365e-05
0.00190687
8.49615e-05
0.00191369
8.44001e-05
0.00192046
8.38315e-05
0.0019272
8.32554e-05
8.26718e-05
0.00190495
7.80637e-05
0.00191181
7.75429e-05
0.00191863
7.70154e-05
0.0019254
7.64812e-05
7.59401e-05
0.00190311
7.11224e-05
0.00191001
7.06438e-05
0.00191687
7.01591e-05
0.00192368
6.96683e-05
6.91713e-05
0.00190138
6.414e-05
0.00190831
6.37049e-05
0.00191521
6.32644e-05
0.00192206
6.28184e-05
6.2367e-05
0.00189976
5.71189e-05
0.00190673
5.67287e-05
0.00191366
5.63338e-05
0.00192055
5.5934e-05
5.55294e-05
0.00189827
5.00624e-05
0.00190528
4.97183e-05
0.00191225
4.937e-05
0.00191916
4.90175e-05
4.86609e-05
0.00189694
4.29738e-05
0.00190398
4.26768e-05
0.00191098
4.23763e-05
0.00191792
4.20723e-05
4.17646e-05
0.00189577
3.58571e-05
0.00190284
3.56082e-05
0.00190986
3.53563e-05
0.00191683
3.51015e-05
3.48438e-05
0.00189478
2.87164e-05
0.00190187
2.85163e-05
0.00190891
2.83138e-05
0.00191591
2.81091e-05
2.79019e-05
0.00189397
2.15562e-05
0.00190109
2.14055e-05
0.00190815
2.12531e-05
0.00191516
2.10989e-05
2.0943e-05
0.00189336
1.43812e-05
0.00190049
1.42804e-05
0.00190756
1.41784e-05
0.00191459
1.40754e-05
1.39711e-05
0.00189295
7.1962e-06
0.00190009
7.14559e-06
0.00190717
7.09443e-06
0.0019142
7.0427e-06
6.99035e-06
0.00189275
0.00189989
0.00190697
0.00191401
)
;

boundaryField
{
    inlet
    {
        type            calculated;
        value           nonuniform 0();
    }
    outlet
    {
        type            calculated;
        value           nonuniform 0();
    }
    cylinder
    {
        type            calculated;
        value           nonuniform 0();
    }
    top
    {
        type            symmetryPlane;
        value           uniform 0;
    }
    bottom
    {
        type            symmetryPlane;
        value           uniform 0;
    }
    defaultFaces
    {
        type            empty;
        value           nonuniform 0();
    }
    procBoundary54to53
    {
        type            processor;
        value           nonuniform List<scalar> 
185
(
-0.00188556
-0.00188577
-0.00188619
-0.00188681
-0.00188764
-0.00188865
-0.00188985
-0.00189122
-0.00189273
-0.00189439
-0.00189617
-0.00189805
-0.00190002
-0.00190205
-0.00190412
-0.00190621
-0.00190829
-0.000118751
-0.00191697
-0.00191893
-0.00192082
-0.00192261
-0.00192429
-0.00192582
-0.0019272
-0.00192839
-0.00192938
-0.00193014
-0.00193067
-0.00193093
-0.000195225
-0.0019373
-0.00480425
-0.00486192
-0.00492025
-0.00497882
-0.00503723
-0.00509509
-0.00515207
-0.00520783
-0.00526211
-0.00531464
-0.00536522
-0.00541367
-0.00545984
-0.00550363
-0.00554496
-0.00558379
-0.00562009
-0.00565388
-0.00568518
-0.00571405
-0.00574055
-0.00576477
-0.00578681
-0.00580676
-0.00582474
-0.00584087
-0.00585527
-0.00586805
-0.00587935
-0.00588927
-0.00589794
-0.00590546
-0.00591195
-0.00591751
-0.00592222
-0.0059262
-0.00592951
-0.00593224
-0.00593446
-0.00593623
-0.00593762
-0.00593868
-0.00593946
-0.00594
-0.00594035
-0.00594054
-0.0059406
-0.00594056
-0.00594045
-0.00594028
-0.00594007
-0.00593985
-0.00593961
-0.00593939
-0.00593918
-0.00593899
-0.00593883
-0.00593871
-0.00593862
-0.00593858
-0.00594601
-0.00594602
-0.00594594
-0.00594578
-0.00594557
-0.00594532
-0.00594506
-0.0059448
-0.00594455
-0.00594431
-0.0059441
-0.00594393
-0.0059438
-0.0059437
-0.00594366
-0.00480425
-0.00486192
-0.00492025
-0.00497882
-0.00503723
-0.00509509
-0.00515207
-0.00520783
-0.00526211
-0.00531464
-0.00536522
-0.00541367
-0.00545984
-0.00550363
-0.00554496
-0.00558379
-0.00562009
-0.00565387
-0.00568518
-0.00571404
-0.00574055
-0.00576477
-0.0057868
-0.00580675
-0.00582473
-0.00584086
-0.00585526
-0.00586804
-0.00587934
-0.00588926
-0.00589793
-0.00590545
-0.00591194
-0.0059175
-0.00592222
-0.00592619
-0.0059295
-0.00593223
-0.00593445
-0.00593622
-0.00593761
-0.00593867
-0.00593945
-0.00593999
7.84155e-05
-0.00594034
-0.0019373
-0.000195234
-0.00193093
-0.00193067
-0.00193014
-0.00192938
-0.00192839
-0.0019272
-0.00192582
-0.00192429
-0.00192261
-0.00192082
-0.00191893
-0.000125384
-0.00191035
-0.00190829
-0.00190621
-0.00190412
-0.00190205
-0.00190002
-0.00189805
-0.00189617
-0.00189439
-0.00189274
-0.00189122
-0.00188985
-0.00188866
-0.00188764
-0.00188681
-0.00188619
-0.00188577
-0.00188556
)
;
    }
    procBoundary54to55
    {
        type            processor;
        value           nonuniform List<scalar> 
184
(
0.001921
0.00192118
0.00192156
0.00192211
0.00192285
0.00192375
0.00192482
0.00192603
0.00192738
0.00192886
0.00193045
0.00193213
8.20716e-05
0.00194054
0.00194232
0.00194413
0.00194597
0.0019478
0.00194962
0.00195139
0.00195311
0.00195475
0.00195628
0.0019577
0.00195898
0.0019601
0.00196104
0.0019618
0.000177511
0.00196864
0.00196897
0.00196908
0.00485087
0.0049036
0.00495698
0.00501062
0.00506414
0.00511723
0.00516955
0.00522082
0.00527078
0.00531921
0.00536591
0.00541071
0.00545348
0.00549412
0.00553255
0.00556874
0.00560264
0.00563428
0.00566367
0.00569085
0.00571588
0.00573883
0.00575978
0.00577883
0.00579606
0.0058116
0.00582553
0.00583797
0.00584903
0.00585881
0.00586742
0.00587496
0.00588152
0.0058872
0.00589208
0.00589626
0.0058998
0.00590277
0.00590525
0.0059073
0.00590897
0.0059103
0.00591136
0.00591218
0.00591279
0.00591323
0.00591354
0.00591373
0.00591383
0.00591386
0.00591384
0.00591378
0.00591369
0.0059136
0.0059135
0.00591341
0.00591333
0.00591326
0.00591322
0.00591319
0.00485087
0.0049036
0.00495698
0.00501062
0.00506415
0.00511723
0.00516955
0.00522082
0.00527078
0.00531921
0.00536591
0.00541071
0.00545348
0.00549412
0.00553255
0.00556873
0.00560264
0.00563428
0.00566366
0.00569084
0.00571587
0.00573882
0.00575977
0.00577882
0.00579606
0.00581159
0.00582552
0.00583796
0.00584902
0.0058588
0.00586741
0.00587495
0.00588151
0.00588719
0.00589207
0.00589625
0.00589979
0.00590276
0.00590524
0.00590729
0.00590896
0.0059103
0.00591135
0.00591217
0.00591278
0.00591323
0.00591353
0.00591372
0.00591382
0.00591385
0.00591383
0.00591377
0.00591369
0.00591359
0.00591349
0.0059134
0.00591332
0.00591325
0.00591321
0.00591318
0.00196908
0.00196897
0.000183816
0.00196234
0.0019618
0.00196104
0.0019601
0.00195898
0.0019577
0.00195628
0.00195475
0.00195311
0.0019514
0.00194962
0.0019478
0.00194597
0.00194413
0.00194232
8.87322e-05
0.00193389
0.00193213
0.00193045
0.00192886
0.00192739
0.00192603
0.00192482
0.00192375
0.00192285
0.00192212
0.00192156
0.00192118
0.001921
)
;
    }
}


// ************************************************************************* //
