/*--------------------------------*- C++ -*----------------------------------*\
  =========                 |
  \\      /  F ield         | OpenFOAM: The Open Source CFD Toolbox
   \\    /   O peration     | Website:  https://openfoam.org
    \\  /    A nd           | Version:  7
     \\/     M anipulation  |
\*---------------------------------------------------------------------------*/
FoamFile
{
    version     2.0;
    format      ascii;
    class       volScalarField;
    location    "5";
    object      p;
}
// * * * * * * * * * * * * * * * * * * * * * * * * * * * * * * * * * * * * * //

dimensions      [0 2 -2 0 0 0 0];

internalField   nonuniform List<scalar> 
183
(
-0.38221
-0.385327
-0.384162
-0.389108
-0.387764
-0.385672
-0.393609
-0.391979
-0.389627
-0.386644
-0.396836
-0.394168
-0.390901
-0.387238
-0.39931
-0.395721
-0.391767
-0.387687
-0.401115
-0.396837
-0.392457
-0.388127
-0.383927
-0.402457
-0.397739
-0.393047
-0.388406
-0.383766
-0.398406
-0.393218
-0.387862
-0.382184
-0.37603
-0.392065
-0.385291
-0.377854
-0.369698
-0.388223
-0.379365
-0.369733
-0.359447
-0.348673
-0.357627
-0.345605
-0.333465
-0.321363
-0.329062
-0.316179
-0.303601
-0.291365
-0.279465
-0.284964
-0.272734
-0.260937
-0.249532
-0.242272
-0.253853
-0.24226
-0.297622
-0.284952
-0.272722
-0.260925
-0.24952
-0.329052
-0.316168
-0.30359
-0.291353
-0.279454
-0.369317
-0.357617
-0.345595
-0.333454
-0.321352
-0.388213
-0.379356
-0.369724
-0.359437
-0.348664
-0.392056
-0.385282
-0.377845
-0.369688
-0.398397
-0.39321
-0.387853
-0.382176
-0.40245
-0.397731
-0.393039
-0.388399
-0.383758
-0.401108
-0.39683
-0.39245
-0.38812
-0.399303
-0.395714
-0.39176
-0.38768
-0.396829
-0.394161
-0.390894
-0.387231
-0.393602
-0.391972
-0.38962
-0.386637
-0.389102
-0.387757
-0.385665
-0.38532
-0.384155
-0.382204
-0.0270784
-0.221692
-0.182527
-0.150537
-0.12804
-0.108603
-0.0936769
-0.081053
-0.0708932
-0.0623601
-0.0553003
-0.0493938
-0.0444637
-0.0403498
-0.0369299
-0.0341073
-0.0318054
-0.0299661
-0.0285402
-0.0274975
-0.0268055
-0.0264534
-0.214564
-0.1768
-0.145858
-0.124168
-0.105342
-0.0909793
-0.0787584
-0.0689399
-0.0606787
-0.0538384
-0.0481104
-0.214551
-0.176786
-0.145843
-0.124152
-0.105325
-0.0909621
-0.0787407
-0.068922
-0.0606606
-0.0538203
-0.0480922
-0.0433068
-0.0393106
-0.0359865
-0.0332416
-0.031002
-0.221679
-0.182513
-0.150522
-0.128024
-0.108586
-0.09366
-0.0810356
-0.0708756
-0.0623423
-0.0552824
-0.0493759
-0.0444458
-0.040332
-0.0369122
-0.0340897
-0.0317879
-0.0299487
-0.0285229
-0.0274802
-0.0267883
-0.0264361
)
;

boundaryField
{
    inlet
    {
        type            zeroGradient;
    }
    outlet
    {
        type            fixedValue;
        value           nonuniform 0();
    }
    cylinder
    {
        type            zeroGradient;
    }
    top
    {
        type            symmetryPlane;
    }
    bottom
    {
        type            symmetryPlane;
    }
    defaultFaces
    {
        type            empty;
    }
    procBoundary22to21
    {
        type            processor;
        value           nonuniform List<scalar> 
108
(
-0.398856
-0.398856
-0.402352
-0.402352
-0.405064
-0.405064
-0.407093
-0.407093
-0.408638
-0.403532
-0.403532
-0.404172
-0.398303
-0.398303
-0.396272
-0.396272
-0.390869
-0.380477
-0.369327
-0.369327
-0.355363
-0.342171
-0.342171
-0.324357
-0.310767
-0.297633
-0.297633
-0.278388
-0.265864
-0.253866
-0.253866
-0.23487
-0.246611
-0.234857
-0.291436
-0.278376
-0.265852
-0.265852
-0.324346
-0.310756
-0.310756
-0.36842
-0.355352
-0.34216
-0.34216
-0.390859
-0.380467
-0.380467
-0.396263
-0.396263
-0.404163
-0.398294
-0.398294
-0.40863
-0.403524
-0.403524
-0.407086
-0.407086
-0.405057
-0.405057
-0.402345
-0.402345
-0.398849
-0.398849
-0.0433249
-0.0393287
-0.0360044
-0.0332594
-0.0310197
-0.0292297
-0.0278416
-0.0268269
-0.026153
-0.0258123
-0.207389
-0.171031
-0.141128
-0.120278
-0.102058
-0.088258
-0.0764434
-0.0669652
-0.0589761
-0.0523556
-0.0433249
-0.0468063
-0.207376
-0.171017
-0.141112
-0.120262
-0.102041
-0.0882404
-0.0764254
-0.0669469
-0.0589578
-0.0523372
-0.0467879
-0.0421476
-0.0382696
-0.0350417
-0.0323748
-0.0301979
-0.0292121
-0.0292121
-0.0278241
-0.0268094
-0.0261356
-0.0257949
)
;
    }
    procBoundary22to23
    {
        type            processor;
        value           nonuniform List<scalar> 
111
(
-0.379678
-0.381126
-0.381126
-0.382275
-0.382275
-0.382938
-0.382938
-0.383244
-0.383244
-0.383425
-0.383425
-0.383663
-0.383663
-0.379823
-0.379864
-0.379864
-0.379011
-0.379011
-0.373986
-0.369273
-0.369273
-0.360846
-0.360846
-0.35139
-0.337591
-0.337591
-0.326355
-0.309404
-0.309404
-0.297647
-0.286116
-0.267892
-0.267892
-0.256697
-0.267881
-0.256685
-0.309393
-0.297636
-0.267881
-0.286104
-0.337581
-0.309393
-0.326345
-0.360837
-0.337581
-0.35138
-0.376021
-0.360837
-0.369264
-0.376021
-0.379003
-0.383919
-0.379003
-0.379857
-0.383919
-0.383656
-0.383656
-0.383418
-0.383418
-0.383238
-0.383238
-0.382931
-0.382931
-0.382268
-0.382268
-0.38112
-0.38112
-0.379672
-0.027687
-0.228813
-0.188221
-0.155171
-0.131903
-0.111843
-0.0963537
-0.0833291
-0.0728261
-0.0640211
-0.0567415
-0.0506567
-0.0455823
-0.0413511
-0.0378359
-0.0349363
-0.0325727
-0.0306846
-0.0292213
-0.0281511
-0.0274415
-0.0274415
-0.228801
-0.188207
-0.155156
-0.131888
-0.111827
-0.0963371
-0.0833121
-0.0728087
-0.0640035
-0.0567239
-0.050639
-0.0455646
-0.0413335
-0.0378184
-0.0349189
-0.0325553
-0.0306673
-0.0292041
-0.028134
-0.0274244
-0.0270613
)
;
    }
}


// ************************************************************************* //
