/*--------------------------------*- C++ -*----------------------------------*\
  =========                 |
  \\      /  F ield         | OpenFOAM: The Open Source CFD Toolbox
   \\    /   O peration     | Website:  https://openfoam.org
    \\  /    A nd           | Version:  7
     \\/     M anipulation  |
\*---------------------------------------------------------------------------*/
FoamFile
{
    version     2.0;
    format      ascii;
    class       volVectorField;
    location    "5";
    object      U;
}
// * * * * * * * * * * * * * * * * * * * * * * * * * * * * * * * * * * * * * //

dimensions      [0 1 -1 0 0 0 0];

internalField   nonuniform List<vector> 
183
(
(0.760527 0.0428653 -4.48735e-20)
(0.758525 0.0257883 -2.70409e-20)
(0.757521 0.00860867 6.827e-21)
(0.757521 -0.00860522 9.51846e-21)
(0.758525 -0.0257848 7.88182e-21)
(0.975078 0.0637731 0)
(0.989853 0.0694423 0)
(0.998836 0.0654164 0)
(1.00626 0.0632788 0)
(1.01289 0.0596686 0)
(1.01805 0.0556578 0)
(1.02157 0.0517811 0)
(1.02411 0.0480245 0)
(1.02599 0.0443618 0)
(1.02735 0.0407001 0)
(1.0283 0.0370402 0)
(1.02893 0.0333856 0)
(1.02933 0.029739 0)
(1.02955 0.0261087 0)
(1.02965 0.0225039 0)
(1.02967 0.0189347 0)
(1.02964 0.0154049 0)
(1.02959 0.0119225 0)
(1.02954 0.00847485 0)
(1.02951 0.00506544 0)
(1.02947 0.0016875 0)
(0.968476 0.0558879 0)
(0.974552 0.0603612 0)
(0.980438 0.0659889 0)
(0.986345 0.0675884 0)
(0.992998 0.0669582 0)
(0.999871 0.0643887 0)
(1.00602 0.0602995 0)
(1.01075 0.0554107 0)
(1.01412 0.0502215 0)
(1.01644 0.0450144 0)
(1.01801 0.0399294 0)
(1.01904 0.035059 0)
(1.01968 0.0304535 0)
(1.02004 0.0261275 0)
(1.02021 0.0220724 0)
(1.02025 0.0182627 0)
(1.02021 0.0146651 0)
(1.02013 0.0112371 0)
(1.02005 0.00794374 0)
(1.01998 0.00473974 0)
(1.01995 0.00157614 0)
(0.955124 0.0677859 -7.1849e-21)
(0.969005 0.0525163 6.92571e-21)
(0.940473 0.191527 8.07895e-21)
(0.949315 0.0647121 6.14212e-21)
(0.96915 0.0504884 1.29315e-21)
(0.934273 0.18421 4.66592e-21)
(0.944671 0.0609262 1.13649e-20)
(0.969189 0.0484007 -9.9314e-22)
(0.927932 0.176441 -2.12394e-20)
(0.940839 0.0575799 2.38167e-21)
(0.969077 0.0463417 -1.56416e-22)
(0.921751 0.16841 8.59146e-21)
(0.937557 0.0542568 -2.72539e-20)
(0.968832 0.0442053 -4.38463e-21)
(0.915822 0.160034 4.15947e-20)
(0.934656 0.0509031 2.23752e-20)
(0.96849 0.0419897 9.76058e-21)
(0.910184 0.151322 -1.93696e-20)
(0.932033 0.0475552 6.53695e-21)
(0.904853 0.142294 -1.52116e-20)
(0.92963 0.0442175 5.50253e-21)
(0.899841 0.132969 2.02928e-20)
(0.927414 0.0408895 -2.27745e-20)
(0.895158 0.123367 -2.06762e-21)
(0.925367 0.0375721 1.33385e-20)
(0.890816 0.113507 1.06562e-20)
(0.923484 0.0342659 -2.0405e-20)
(0.886827 0.103412 2.22815e-20)
(0.921761 0.0309704 2.7804e-20)
(0.8832 0.0931033 -4.87816e-20)
(0.920201 0.0276847 -3.9145e-20)
(0.879948 0.0826028 4.6314e-20)
(0.918805 0.0244079 2.06116e-20)
(0.877079 0.0719329 -4.62519e-22)
(0.917576 0.0211388 5.972e-21)
(0.874603 0.061116 -3.23999e-20)
(0.916517 0.0178763 -4.67598e-21)
(0.872528 0.0501744 3.59166e-20)
(0.91563 0.0146192 -6.51248e-21)
(0.870859 0.0391308 -1.08542e-20)
(0.914917 0.0113664 -1.38151e-20)
(0.869603 0.0280079 7.41837e-21)
(0.914381 0.008117 7.85002e-21)
(0.868763 0.0168281 2.19569e-21)
(0.914023 0.00486985 -5.72891e-21)
(0.868343 0.00561435 -2.74687e-21)
(0.913844 0.00162405 8.71077e-22)
(0.868343 -0.00561076 -1.18671e-21)
(0.913844 -0.00162129 -3.85478e-22)
(0.868763 -0.0168245 4.87123e-22)
(0.914023 -0.00486707 -4.09288e-21)
(0.869603 -0.0280042 3.34433e-21)
(0.914381 -0.00811422 1.56169e-20)
(0.870859 -0.0391272 -1.60074e-20)
(0.914917 -0.0113637 -1.19783e-20)
(0.872528 -0.0501708 2.94653e-20)
(0.915629 -0.0146164 -4.78577e-22)
(0.874603 -0.0611123 -3.13329e-20)
(0.916516 -0.0178735 -1.12334e-20)
(0.877079 -0.0719293 -6.96342e-21)
(0.917575 -0.021136 2.9712e-21)
(0.879948 -0.0825991 4.99908e-20)
(0.918804 -0.0244051 2.11233e-20)
(0.8832 -0.0930996 -8.90421e-20)
(0.9202 -0.0276819 -2.24499e-20)
(0.886827 -0.103408 3.23768e-20)
(0.921761 -0.0309676 3.76681e-20)
(0.890816 -0.113503 6.13712e-21)
(0.923483 -0.0342631 -1.31789e-20)
(0.895158 -0.123363 1.04737e-20)
(0.925367 -0.0375693 2.70311e-20)
(0.899841 -0.132965 1.35634e-20)
(0.927413 -0.0408866 -4.93069e-20)
(0.904853 -0.14229 -1.59654e-20)
(0.92963 -0.0442146 1.29502e-21)
(0.910184 -0.151318 -4.33003e-20)
(0.932033 -0.0475523 1.74357e-20)
(0.915822 -0.16003 5.23597e-20)
(0.934655 -0.0509002 2.3409e-20)
(0.96849 -0.0419873 -3.62483e-20)
(0.921751 -0.168406 -1.24896e-20)
(0.937556 -0.0542538 -3.17598e-20)
(0.968832 -0.044203 6.69586e-21)
(0.927932 -0.176437 -2.5118e-20)
(0.940838 -0.0575769 3.86855e-21)
(0.969077 -0.0463394 9.72682e-21)
(0.934273 -0.184206 -1.56273e-20)
(0.94467 -0.0609231 1.17999e-20)
(0.969188 -0.0483984 7.95243e-21)
(0.940473 -0.191523 1.90072e-20)
(0.949314 -0.064709 8.37561e-21)
(0.969149 -0.0504861 2.14652e-21)
(0.955123 -0.0677829 -7.81831e-21)
(0.969004 -0.0525141 -1.91502e-21)
(0.975077 -0.0637699 0)
(0.968475 -0.0558856 0)
(0.989852 -0.0694393 0)
(0.974551 -0.0603591 0)
(0.998834 -0.0654135 0)
(0.980437 -0.0659869 0)
(1.00626 -0.0632763 0)
(0.986344 -0.0675866 0)
(1.01288 -0.0596671 0)
(0.992996 -0.0669568 0)
(1.01805 -0.055657 0)
(0.999869 -0.0643877 0)
(1.02156 -0.0517809 0)
(1.00602 -0.060299 0)
(1.02411 -0.0480251 0)
(1.01075 -0.0554104 0)
(1.02599 -0.0443626 0)
(1.01412 -0.0502214 0)
(1.02735 -0.0407009 0)
(1.01644 -0.0450146 0)
(1.0283 -0.037041 0)
(1.01801 -0.0399296 0)
(1.02893 -0.0333863 0)
(1.01904 -0.0350592 0)
(1.02933 -0.0297396 0)
(1.01968 -0.0304538 0)
(1.02955 -0.0261093 0)
(1.02004 -0.0261277 0)
(1.02965 -0.0225043 0)
(1.02021 -0.0220726 0)
(1.02967 -0.0189351 0)
(1.02025 -0.0182629 0)
(1.02964 -0.0154052 0)
(1.02021 -0.0146653 0)
(1.02959 -0.0119228 0)
(1.02013 -0.0112372 0)
(1.02954 -0.00847509 0)
(1.02005 -0.00794385 0)
(1.02951 -0.00506558 0)
(1.01997 -0.00473981 0)
(1.02947 -0.00168755 0)
(1.01995 -0.00157617 0)
)
;

boundaryField
{
    inlet
    {
        type            uniformFixedValue;
        uniformValue    constant (1 0 0);
        value           nonuniform 0();
    }
    outlet
    {
        type            pressureInletOutletVelocity;
        value           nonuniform 0();
    }
    cylinder
    {
        type            fixedValue;
        value           nonuniform 0();
    }
    top
    {
        type            symmetryPlane;
    }
    bottom
    {
        type            symmetryPlane;
    }
    defaultFaces
    {
        type            empty;
    }
    procBoundary2to1
    {
        type            processor;
        value           nonuniform List<vector> 
86
(
(0.990485 0.0171519 0)
(0.997495 0.0159505 0)
(1.00281 0.0137394 0)
(1.00542 0.0132807 0)
(1.00568 0.0135205 0)
(1.00517 0.0141443 0)
(1.00496 0.0149405 0)
(1.0054 0.0156095 0)
(1.00627 0.0159803 0)
(1.00732 0.0160331 0)
(1.00836 0.0157754 0)
(1.00929 0.0152139 0)
(1.01008 0.0143669 0)
(1.01072 0.0132598 0)
(1.01123 0.0119229 0)
(1.01163 0.0103904 0)
(1.01193 0.00869757 0)
(1.01215 0.0068812 0)
(1.01231 0.0049712 0)
(1.01241 0.00299875 0)
(1.01245 0.00100076 0)
(0.984842 0.0172611 -5.49679e-22)
(0.98315 0.016365 8.59328e-21)
(0.981664 0.0154144 -4.61386e-21)
(0.980378 0.0145567 -9.26327e-21)
(0.979277 0.0136929 5.5195e-21)
(0.978347 0.0128166 3.91559e-21)
(0.968088 0.0397043 1.28072e-20)
(0.968088 0.0397043 1.28072e-20)
(0.967655 0.0373501 2.32307e-20)
(0.967217 0.034925 -2.61999e-20)
(0.966788 0.0324316 1.46294e-20)
(0.966379 0.0298742 -9.78689e-21)
(0.966006 0.0272509 1.80658e-20)
(0.965667 0.0245657 -3.13393e-20)
(0.965366 0.0218232 8.83306e-21)
(0.965103 0.0190277 2.34572e-20)
(0.964879 0.0161848 2.43373e-21)
(0.964693 0.0133006 -4.44885e-21)
(0.964546 0.0103819 4.0653e-21)
(0.964435 0.00743581 -6.80236e-21)
(0.964362 0.00446995 1.62916e-21)
(0.964325 0.00149212 -1.80983e-22)
(0.964325 -0.00148972 -6.18814e-22)
(0.964362 -0.00446754 1.02874e-21)
(0.964435 -0.00743341 -2.99997e-21)
(0.964545 -0.0103795 4.97699e-21)
(0.964693 -0.0132982 -5.33201e-21)
(0.964879 -0.0161824 -2.00543e-21)
(0.965103 -0.0190254 1.60296e-20)
(0.965366 -0.0218208 9.80692e-23)
(0.965667 -0.0245633 -2.96307e-20)
(0.966005 -0.0272485 1.90583e-20)
(0.966379 -0.0298718 -7.12929e-21)
(0.966788 -0.0324293 2.48846e-20)
(0.967216 -0.0349227 -3.99062e-20)
(0.967655 -0.0373478 9.02553e-21)
(0.968087 -0.0397019 -1.81753e-20)
(0.968087 -0.0397019 -1.81753e-20)
(0.978347 -0.0128146 1.00936e-20)
(0.979277 -0.013691 7.03461e-21)
(0.980377 -0.0145548 2.77238e-21)
(0.981664 -0.0154125 -1.13394e-20)
(0.983149 -0.0163632 1.12123e-20)
(0.984842 -0.0172593 -3.41988e-21)
(0.990484 -0.0171501 0)
(0.997495 -0.0159488 0)
(1.00281 -0.0137379 0)
(1.00542 -0.0132794 0)
(1.00568 -0.0135193 0)
(1.00517 -0.0141433 0)
(1.00496 -0.0149397 0)
(1.00539 -0.0156089 0)
(1.00627 -0.0159798 0)
(1.00732 -0.0160328 0)
(1.00836 -0.0157751 0)
(1.00929 -0.0152138 0)
(1.01008 -0.0143668 0)
(1.01072 -0.0132598 0)
(1.01123 -0.0119229 0)
(1.01163 -0.0103904 0)
(1.01193 -0.00869758 0)
(1.01215 -0.00688122 0)
(1.01231 -0.00497122 0)
(1.01241 -0.00299876 0)
(1.01245 -0.00100077 0)
)
;
    }
    procBoundary2to3
    {
        type            processor;
        value           nonuniform List<vector> 
82
(
(0.880091 0.235308 2.88843e-19)
(0.867085 0.226183 -2.62174e-20)
(0.854553 0.216153 3.04107e-19)
(0.842565 0.205256 -1.26766e-19)
(0.831178 0.193536 -9.76228e-20)
(0.820445 0.18104 -5.24301e-20)
(0.810418 0.167821 -1.11737e-19)
(0.801145 0.15393 3.15884e-20)
(0.792669 0.139423 1.14232e-19)
(0.785031 0.124359 -3.06349e-19)
(0.778268 0.108799 1.59805e-19)
(0.77241 0.0928046 5.66576e-20)
(0.767486 0.0764404 2.34016e-20)
(0.763519 0.0597718 5.86775e-20)
(0.763519 0.0597718 5.86775e-20)
(0.742189 0.0455114 -4.07501e-20)
(0.739993 0.0273835 -5.90478e-20)
(0.738893 0.00914168 1.79466e-20)
(0.738893 -0.00913824 3.27915e-20)
(0.739993 -0.0273801 1.94028e-20)
(0.760527 -0.0428618 4.50525e-20)
(0.760527 -0.0428618 4.50525e-20)
(0.763519 -0.0597683 1.3773e-20)
(0.767486 -0.076437 -1.10044e-19)
(0.77241 -0.0928011 -3.30572e-20)
(0.778268 -0.108795 -7.25009e-20)
(0.785031 -0.124356 4.85801e-20)
(0.792669 -0.139419 3.65703e-21)
(0.801144 -0.153926 1.9887e-19)
(0.810418 -0.167817 -9.00685e-20)
(0.820444 -0.181037 3.18823e-19)
(0.831177 -0.193532 -9.31285e-20)
(0.842565 -0.205252 -1.79507e-19)
(0.854553 -0.21615 -3.71947e-20)
(0.867085 -0.22618 -7.824e-20)
(0.880091 -0.235305 -2.15592e-19)
(0.949957 0.214772 0)
(0.970177 0.179979 0)
(0.992501 0.167565 0)
(1.01365 0.150993 0)
(1.02873 0.133616 0)
(1.03847 0.117417 0)
(1.04513 0.103245 0)
(1.04912 0.090594 0)
(1.05116 0.0790736 0)
(1.05188 0.0687508 0)
(1.05168 0.0595404 0)
(1.05087 0.0512989 0)
(1.0497 0.0439004 0)
(1.04833 0.037223 0)
(1.04691 0.0311538 0)
(1.04553 0.0255837 0)
(1.04428 0.0204235 0)
(1.0432 0.015571 0)
(1.04237 0.0109696 0)
(1.04176 0.00651633 0)
(1.04149 0.00215097 0)
(0.945761 0.196769 -1.06135e-20)
(0.945761 0.196769 -1.06135e-20)
(0.945761 -0.196765 1.92562e-21)
(0.945761 -0.196765 1.92562e-21)
(0.949956 -0.214768 0)
(0.970176 -0.179974 0)
(0.9925 -0.167559 0)
(1.01365 -0.150985 0)
(1.02873 -0.133607 0)
(1.03847 -0.117417 0)
(1.04513 -0.103254 0)
(1.04912 -0.0905987 0)
(1.05116 -0.0790764 0)
(1.05188 -0.068754 0)
(1.05168 -0.0595431 0)
(1.05087 -0.0513009 0)
(1.0497 -0.0439014 0)
(1.04833 -0.0372234 0)
(1.04691 -0.0311543 0)
(1.04553 -0.0255846 0)
(1.04428 -0.0204244 0)
(1.0432 -0.0155716 0)
(1.04237 -0.01097 0)
(1.04176 -0.00651666 0)
(1.04149 -0.00215109 0)
)
;
    }
    procBoundary2to4
    {
        type            processor;
        value           nonuniform List<vector> 6((0.921528 0.256757 -9.1938e-20) (0.907227 0.250705 1.13972e-20) (0.893539 0.243465 1.24485e-19) (0.893538 -0.243461 -2.54035e-19) (0.907226 -0.250702 -2.0039e-20) (0.921528 -0.256754 -1.26115e-21));
    }
}


// ************************************************************************* //
