/*--------------------------------*- C++ -*----------------------------------*\
  =========                 |
  \\      /  F ield         | OpenFOAM: The Open Source CFD Toolbox
   \\    /   O peration     | Website:  https://openfoam.org
    \\  /    A nd           | Version:  7
     \\/     M anipulation  |
\*---------------------------------------------------------------------------*/
FoamFile
{
    version     2.0;
    format      ascii;
    class       surfaceScalarField;
    location    "5";
    object      phi;
}
// * * * * * * * * * * * * * * * * * * * * * * * * * * * * * * * * * * * * * //

dimensions      [0 3 -1 0 0 0 0];

internalField   nonuniform List<scalar> 
634
(
1.55096e-06
-1.22941e-05
-4.02362e-05
1.62338e-06
-1.39175e-05
6.63529e-06
-4.52481e-05
1.53559e-05
-8.19686e-05
2.81246e-05
-0.000124654
-0.000173924
1.69309e-06
-1.56106e-05
6.90812e-06
-5.04631e-05
1.59644e-05
-9.10249e-05
2.91987e-05
-0.000137888
4.6963e-05
-0.000191689
6.96231e-05
-0.000253095
9.75545e-05
-0.000322808
-0.000401549
1.75963e-06
-1.73702e-05
7.16673e-06
-5.58702e-05
1.65378e-05
-0.000100396
3.02044e-05
-0.000151555
4.85105e-05
-0.000209995
7.18098e-05
-0.000276395
0.000100462
-0.000351459
0.000134825
-0.000435912
0.000175251
-0.000530485
0.000222074
-0.00063591
-0.000752901
1.82247e-06
7.40901e-06
1.70712e-05
3.11331e-05
-0.000165617
4.9928e-05
-0.00022879
7.3795e-05
-0.000300262
0.000103074
-0.000380738
0.000138098
-0.000470937
0.000179189
-0.000571575
0.00022664
-0.000683361
0.000280712
-0.000806972
0.000341613
-0.00094304
0.000409487
-0.00109213
-0.0012547
3.19753e-05
5.12007e-05
7.5557e-05
0.000105362
0.00014092
-0.000506495
0.000182518
-0.000613173
0.000230408
-0.000731251
0.000284801
-0.000861365
0.000345846
-0.00100409
0.000413622
-0.0011599
0.000488112
-0.00132919
0.000569195
-0.00151219
0.000656624
-0.00170897
-0.00191942
0.000143251
0.00018519
0.000233321
0.000287799
0.000348717
0.000416085
-0.00122727
0.000489814
-0.00140292
0.000569704
-0.00159208
0.00065543
-0.0017947
0.000746528
-0.00201052
0.000842389
-0.00223905
0.000942261
-0.00247956
-0.00273105
0.000416795
0.00048941
0.000567723
0.000651334
0.000739707
-0.00209889
0.000832174
-0.00233152
0.000927934
-0.00257532
0.00102607
-0.00282918
0.00112556
-0.00309171
0.00122532
-0.00336125
0.00132423
-0.00363585
-0.00391295
0.0007295
0.000818143
0.000909366
0.00100223
0.00109574
0.00118883
-0.00345434
0.00128047
-0.00372749
-0.00400213
0.00136964
0.00114714
0.00123126
0.00131248
0.00114714
0.00345435
0.00123126
0.00372749
0.00400214
0.00131248
0.000729499
0.0020989
0.000818143
0.00233152
0.000909366
0.00257533
0.00100223
0.00282919
0.00109574
0.00309172
0.00118883
0.00336125
0.00128047
0.00363586
0.00136964
0.000350151
0.00106501
0.000416794
0.00122727
0.00048941
0.00140292
0.000567723
0.00159208
0.000651333
0.0017947
0.000739707
0.00201052
0.000832174
0.00223906
0.000927934
0.00247957
0.00102607
0.00273106
0.00112556
0.00122532
0.000143251
0.000506497
0.00018519
0.000613176
0.00023332
0.000731254
0.000287799
0.000861368
0.000348717
0.00100409
0.000416084
0.0011599
0.000489813
0.00132919
0.000569704
0.00151219
0.00065543
0.00170898
0.000746528
0.00191942
0.000842389
0.000942261
3.19752e-05
0.000165617
5.12005e-05
0.000228791
7.55568e-05
0.000300263
0.000105361
0.00038074
0.00014092
0.000470939
0.000182518
0.000571578
0.000230408
0.000683364
0.000284801
0.000806976
0.000345846
0.000943044
0.000413621
0.00109213
0.000488112
0.000569195
0.000656624
1.82247e-06
1.73703e-05
7.40899e-06
5.58705e-05
1.70712e-05
0.000100396
3.1133e-05
0.000151556
4.99279e-05
0.000209996
7.37948e-05
0.000276396
0.000103074
0.000351461
0.000138098
0.000435914
0.000179188
0.000530488
0.00022664
0.000635913
0.000280712
0.000341613
1.75963e-06
1.56106e-05
7.16672e-06
5.04634e-05
1.65378e-05
9.10254e-05
3.02043e-05
0.000137889
4.85103e-05
0.00019169
7.18096e-05
0.000253097
0.000100461
0.000322809
0.000134825
0.000175251
1.69309e-06
1.39176e-05
6.9081e-06
4.52484e-05
1.59644e-05
8.19691e-05
2.91986e-05
0.000124655
4.69629e-05
0.000173925
6.9623e-05
1.62337e-06
1.22942e-05
6.63526e-06
4.02365e-05
1.53558e-05
2.81246e-05
1.55096e-06
0.00147593
-0.00991728
0.00142163
-0.00985977
0.00136244
-0.00978634
0.00130175
-0.00970759
0.00124149
-0.00962907
0.00118268
-0.00955335
0.00112577
-0.00948135
0.00107088
-0.00941325
0.00101799
-0.00934894
0.000967012
-0.0092882
0.000917822
-0.00923087
0.000870299
-0.00917676
0.000824323
-0.00912573
0.00077978
-0.00907766
0.000736562
-0.00903241
0.000694569
-0.00898989
0.000653705
-0.00894999
0.000613882
-0.0089126
0.000575015
-0.00887764
0.000537028
-0.00884501
0.000499846
-0.00881464
0.000463401
-0.00878646
0.000427629
-0.00876041
0.00039247
-0.00873641
0.000357865
-0.00871443
0.000323762
-0.00869441
0.000290109
-0.00867631
0.000256857
-0.00866009
0.00022396
-0.00864571
0.000191374
-0.00863316
0.000159055
-0.00862239
0.000126962
-0.00861338
9.50515e-05
-0.00860612
6.32834e-05
-0.0086006
3.1614e-05
-0.00859682
-0.0085948
0.00144107
-0.00955656
0.00146675
-0.00979444
0.0014584
-0.00989532
0.00142631
-0.00990875
0.00137938
-0.00987035
0.00132444
-0.00980483
0.00126612
-0.00972802
0.00120727
-0.00964874
0.00114946
-0.00957126
0.00109344
-0.00949734
0.0010395
-0.00942742
0.000987684
-0.00936143
0.000937904
-0.00929916
0.000890046
-0.00924035
0.000843976
-0.0091848
0.000799564
-0.00913235
0.000756686
-0.00908285
0.000715226
-0.0090362
0.000675075
-0.00899226
0.000636132
-0.00895095
0.0005983
-0.00891216
0.000561492
-0.00887579
0.000525625
-0.00884177
0.00049062
-0.00881001
0.000456406
-0.00878043
0.000422914
-0.00875297
0.000390082
-0.00872757
0.00035785
-0.00870418
0.000326162
-0.00868274
0.000294965
0.000264209
0.000233848
0.000203835
0.000174128
0.000144684
0.000115464
8.64262e-05
5.75311e-05
2.87367e-05
0.0013688
0.00138311
0.00136687
0.00133008
0.00128105
0.00122597
0.00116886
0.00111208
0.00105685
0.0010037
0.000952783
0.000904055
0.0008574
0.000812674
0.000769734
0.000728444
0.000688675
0.00065031
0.000613239
0.000577359
0.000542574
0.000508797
0.000475943
0.000443937
0.000412707
0.000382185
0.00035231
0.000323023
0.0013688
0.00955658
0.00138311
0.00979446
0.00136687
0.00989534
0.00133008
0.00990877
0.00128105
0.00987037
0.00122597
0.00980484
0.00116886
0.00972804
0.00111208
0.00964875
0.00105685
0.00957128
0.0010037
0.00949735
0.000952783
0.00942743
0.000904055
0.00936144
0.000857399
0.00929917
0.000812673
0.00924036
0.000769734
0.00918481
0.000728443
0.00913236
0.000688675
0.00908286
0.00065031
0.0090362
0.000613239
0.00899227
0.000577359
0.00895096
0.000542574
0.00891216
0.000508797
0.0088758
0.000475943
0.00884177
0.000443937
0.00881001
0.000412707
0.00878043
0.000382185
0.00875298
0.00035231
0.00872758
0.000323022
0.00870418
0.000294268
0.00868274
0.000265995
0.00866321
0.000238155
0.00864555
0.000210701
0.00862973
0.00018359
0.0086157
0.000156779
0.00860345
0.000130229
0.00859295
0.000103899
0.00858417
7.77509e-05
0.00857709
5.17458e-05
0.00857171
2.58427e-05
0.00856803
0.00856607
0.00144107
0.00146675
0.0014584
0.00142631
0.00137938
0.00132444
0.00126612
0.00120727
0.00114946
0.00109344
0.0010395
0.00948136
0.000987683
0.00941326
0.000937904
0.00934895
0.000890046
0.00928821
0.000843975
0.00923088
0.000799564
0.00917677
0.000756686
0.00912574
0.000715226
0.00907766
0.000675075
0.00903242
0.000636132
0.0089899
0.0005983
0.00895
0.000561492
0.00891261
0.000525625
0.00887764
0.00049062
0.00884502
0.000456405
0.00881465
0.000422914
0.00878647
0.000390082
0.00876041
0.000357849
0.00873642
0.000326161
0.00871443
0.000294965
0.00869441
0.000264209
0.00867631
0.000233848
0.00866009
0.000203835
0.00864572
0.000174127
0.00863316
0.000144684
0.00862239
0.000115464
0.00861339
8.64261e-05
0.00860613
5.7531e-05
0.0086006
2.87367e-05
0.00859682
0.0085948
0.00112577
0.00107088
0.00101799
0.000967012
0.000917822
0.000870299
0.000824323
0.00077978
0.000736562
0.000694569
0.000653705
0.000613881
0.000575015
0.000537027
0.000499845
0.000463401
0.000427629
0.000392469
0.000357865
0.000323761
0.000290108
0.000256857
0.00022396
0.000191374
0.000159055
0.000126961
9.50514e-05
6.32834e-05
3.1614e-05
)
;

boundaryField
{
    inlet
    {
        type            calculated;
        value           nonuniform 0();
    }
    outlet
    {
        type            calculated;
        value           nonuniform 0();
    }
    cylinder
    {
        type            calculated;
        value           uniform 0;
    }
    top
    {
        type            symmetryPlane;
        value           uniform 0;
    }
    bottom
    {
        type            symmetryPlane;
        value           uniform 0;
    }
    defaultFaces
    {
        type            empty;
        value           nonuniform 0();
    }
    procBoundary16to15
    {
        type            processor;
        value           nonuniform List<scalar> 
139
(
-1.91927e-05
-6.14568e-05
-0.000110058
-1.75593e-05
-0.000180033
-0.000248015
-0.000324618
-0.000410543
-0.000107295
-0.000542452
-0.000655112
-0.000779382
-0.000915844
-0.001065
-0.000350152
-0.00129391
-0.00147553
-0.00167039
-0.00187831
-0.000644272
-0.00218412
-0.00242016
-0.00266655
-0.00292205
-0.00318521
-0.001061
-0.00354048
-0.0038116
-0.00408335
-0.00354049
-0.00381161
-0.00408336
-0.00218412
-0.00242017
-0.00266655
-0.00292206
-0.001061
-0.00318522
-0.00112552
-0.00129392
-0.00147554
-0.0016704
-0.000644272
-0.00187831
-0.000542454
-0.000655115
-0.000779385
-0.00028964
-0.000915847
-0.000180033
-0.000248016
-0.000324619
-0.000107294
-0.000410545
-1.91927e-05
-6.1457e-05
-1.75593e-05
-0.000110059
-0.00866321
-0.00864555
-0.00862973
-0.0086157
-0.00860345
-0.00859294
-0.00858416
-0.00857709
-0.0085717
-0.00856802
-0.00856607
-0.00961288
-0.00980875
-0.00987908
-0.00987196
-0.00982133
-0.00974975
-0.00967091
-0.00959195
-0.00951603
-0.00944419
-0.0093765
-0.0093127
-0.0092525
-0.00919562
-0.00914186
-0.00909106
-0.00904309
-0.00899783
-0.00895519
-0.00891507
-0.00887737
-0.00884202
-0.00880892
-0.008778
-0.0087492
-0.00872245
-0.0086977
-0.00867489
0.000294268
-0.00865399
-0.0096129
-0.00980877
-0.0098791
-0.00987198
-0.00982134
-0.00974976
-0.00967093
-0.00959197
-0.00951605
-0.0094442
-0.00937651
-0.00931272
-0.00925251
-0.00919563
-0.00914187
-0.00909107
-0.00904309
-0.00899784
-0.0089552
-0.00891508
-0.00887738
-0.00884202
-0.00880892
-0.008778
-0.0087492
-0.00872245
-0.0086977
-0.0086749
-0.00865399
-0.00863494
-0.00861771
-0.00860227
-0.00858859
-0.00857664
-0.0085664
-0.00855784
-0.00855094
-0.0085457
-0.00854212
-0.00854023
)
;
    }
    procBoundary16to17
    {
        type            processor;
        value           nonuniform List<scalar> 
146
(
1.07431e-05
3.54371e-05
6.35012e-06
7.3248e-05
0.000111885
0.000156749
4.52994e-05
0.000230435
0.000294876
0.000367965
0.000131138
0.000490059
0.000589086
0.000699374
0.000275601
0.000882139
0.00102425
0.00117979
0.000484392
0.0014311
0.00162154
0.00182603
0.000750012
0.00214319
0.00237969
0.00262806
0.00104525
0.00299222
0.00326148
0.00353694
0.00381601
0.00142117
0.00391296
0.00299223
0.00326149
0.00132423
0.00353695
0.0021432
0.0023797
0.00104525
0.00262807
0.0012547
0.00143111
0.00162155
0.000750012
0.00182604
0.000752904
0.000882142
0.000409487
0.00102426
0.000401551
0.000490062
0.000222074
0.000589089
0.000230437
9.75544e-05
0.000294878
7.32485e-05
0.000111886
4.52994e-05
0.000156751
1.07432e-05
6.35011e-06
3.54373e-05
0.00996145
0.00991407
0.00984552
0.00976828
0.00968933
0.00961216
0.00953827
0.00946814
0.00940182
0.00933918
0.00928006
0.00922428
0.00917171
0.0091222
0.00907563
0.00903189
0.00899085
0.00895243
0.0089165
0.008883
0.00885183
0.00882291
0.00879618
0.00877157
0.00874903
0.00872851
0.00870996
0.00869334
0.00867861
0.00866574
0.00865471
0.00864548
0.00863803
0.00863237
0.00862849
0.00862642
0.00948513
0.00976876
0.00990367
-0.00152011
0.00994084
0.00948515
0.00976878
0.00990369
0.00994086
0.0099173
0.00985978
0.00978636
0.0097076
0.00962909
0.00955336
-0.00118268
0.00953828
0.00946815
0.00940183
0.00933919
0.00928007
0.00922429
0.00917172
0.00912221
0.00907564
0.00903189
0.00899086
0.00895243
0.00891651
0.008883
0.00885183
0.00882291
0.00879618
0.00877158
0.00874904
0.00872851
0.00870996
0.00869334
0.00867861
0.00866575
0.00865471
0.00864548
0.00863804
0.00863237
0.00862849
0.00862642
)
;
    }
}


// ************************************************************************* //
