/*--------------------------------*- C++ -*----------------------------------*\
  =========                 |
  \\      /  F ield         | OpenFOAM: The Open Source CFD Toolbox
   \\    /   O peration     | Website:  https://openfoam.org
    \\  /    A nd           | Version:  7
     \\/     M anipulation  |
\*---------------------------------------------------------------------------*/
FoamFile
{
    version     2.0;
    format      ascii;
    class       volScalarField;
    location    "70";
    object      p;
}
// * * * * * * * * * * * * * * * * * * * * * * * * * * * * * * * * * * * * * //

dimensions      [0 2 -2 0 0 0 0];

internalField   nonuniform List<scalar> 
183
(
-0.0937693
-0.0871908
-0.0928685
-0.0889437
-0.0917354
-0.0904253
-0.090371
-0.0916069
-0.0887792
-0.0924624
-0.086967
-0.0929702
-0.0849443
-0.0931131
-0.0827235
-0.0928792
-0.0803192
-0.0922627
-0.077748
-0.0912637
-0.0750281
-0.0898892
-0.0721781
-0.0881524
-0.0692164
-0.0860703
-0.0661625
-0.0836611
-0.0630425
-0.0809508
-0.0598897
-0.0779907
-0.0567239
-0.0748539
-0.0535127
-0.07154
-0.0501922
-0.0678424
-0.0468668
-0.0635687
-0.0440537
-0.0595161
-0.0371323
-0.0496132
-0.0769886
-0.0209594
-0.0293696
-0.0564576
-0.00818229
-0.0103688
-0.0319269
0.00483517
0.00707779
-0.00969317
0.013536
0.0207374
0.0101928
0.0201888
0.0292818
0.0236043
0.0239929
0.0334437
0.0309796
0.0262956
0.0345353
0.0327702
0.0274609
0.034094
0.0327872
0.0330315
0.0321032
0.0317724
0.0312247
0.0305673
0.0303257
0.0294992
0.0294643
0.0285975
0.0286903
0.027865
0.0280308
0.0272874
0.0274898
0.0268442
0.0270606
0.0265149
0.0267322
0.0262825
0.026495
0.0261341
0.0263414
0.0260616
0.0262656
-0.0673678
-0.0485856
-0.0280949
-0.0109239
0.00134024
0.00890746
0.0135386
0.017095
0.0200212
0.0222171
0.0237209
0.0247103
0.0253368
0.0257209
0.0259458
0.0260691
0.0261302
0.0261553
0.0261619
0.0261609
0.0261585
-0.0346982
-0.0210079
-0.0103827
-0.00498141
-0.00148288
0.0021527
0.00649026
0.0111443
0.0152011
0.0183381
0.0206331
0.022283
0.0234511
0.0242636
0.0248172
0.0251866
0.0254274
0.0255799
0.025673
0.0257259
0.0257496
-0.024846
-0.0149701
-0.0102464
-0.00893823
-0.00739311
-0.00150126
-0.0759113
-0.0386098
-0.0775385
-0.0400085
-0.0792212
-0.0416097
-0.0808524
-0.0433507
-0.0824299
-0.0452301
-0.0839523
-0.0472464
-0.0854161
-0.0493959
-0.0868159
-0.0516718
-0.088145
-0.0540648
-0.0893949
-0.0565632
-0.0905559
-0.0591526
-0.0916168
-0.0618162
-0.0925651
-0.0645346
-0.0933874
-0.0672863
-0.0940698
-0.0700469
-0.0945978
-0.0727902
-0.0949568
-0.0754878
-0.0951329
-0.0781096
-0.0951129
-0.0806239
-0.0948852
-0.0829978
-0.0944399
-0.085198
)
;

boundaryField
{
    inlet
    {
        type            zeroGradient;
    }
    outlet
    {
        type            fixedValue;
        value           nonuniform 0();
    }
    cylinder
    {
        type            zeroGradient;
    }
    top
    {
        type            symmetryPlane;
    }
    bottom
    {
        type            symmetryPlane;
    }
    defaultFaces
    {
        type            empty;
    }
    procBoundary40to39
    {
        type            processor;
        value           nonuniform List<scalar> 
85
(
-0.117458
-0.114564
-0.111546
-0.108422
-0.105209
-0.101922
-0.0985777
-0.0951911
-0.0917775
-0.0883521
-0.0849293
-0.0815233
-0.0781479
-0.074816
-0.0715389
-0.0683259
-0.0651839
-0.0621147
-0.0591154
-0.0562164
-0.0535505
-0.0468934
-0.0320047
-0.0203537
-0.00806602
0.00138573
0.00969208
0.0156108
0.0199338
0.0226749
0.0279965
0.0279965
0.0280544
0.0278395
0.0274938
0.0271149
0.0267555
0.026439
0.0261741
0.0259633
0.0258063
0.0257025
0.0256515
-0.105518
-0.0809879
-0.0503051
-0.0215345
0.00138045
0.0148536
0.0208497
0.0236466
0.0253672
0.026462
0.0270432
0.0272893
0.0273463
0.027304
0.0272156
0.0271116
0.0270097
0.0269201
0.0268491
0.0268
0.0267755
-0.12177
-0.124698
-0.127215
-0.129496
-0.131457
-0.133082
-0.134367
-0.13531
-0.135913
-0.136179
-0.136115
-0.135731
-0.135038
-0.134049
-0.132779
-0.131245
-0.129463
-0.12745
-0.125226
-0.122807
-0.120212
)
;
    }
    procBoundary40to41
    {
        type            processor;
        value           nonuniform List<scalar> 
87
(
-0.102064
-0.105191
-0.108034
-0.110558
-0.112727
-0.11451
-0.11588
-0.116814
-0.117297
-0.117318
-0.116872
-0.115962
-0.114598
-0.112795
-0.110569
-0.107947
-0.104978
-0.101724
-0.0981338
-0.0939796
-0.0895439
-0.0895439
-0.104224
-0.0827503
-0.0561545
-0.0307436
-0.0061481
0.0123908
0.0234628
0.0275711
0.0286526
0.0287033
0.0284833
0.0281641
0.0277932
0.0274205
0.0270768
0.0267785
0.0265329
0.026341
0.0262007
0.0261093
0.0260649
0.00391534
0.0094808
0.0141743
0.0176001
0.0200112
0.0216838
0.0228532
0.0236662
0.0242298
0.0246168
0.0248793
0.0250537
0.0251653
0.0252308
0.0252619
-0.0321302
-0.0283803
-0.020728
-0.0174121
-0.0115782
-0.00619934
0.00391534
-0.000207678
-0.0283803
-0.0306032
-0.0332024
-0.035944
-0.0388459
-0.0419191
-0.0451569
-0.0485491
-0.0520851
-0.0557521
-0.0595352
-0.0634169
-0.0673773
-0.0713942
-0.0754427
-0.0794954
-0.0835225
-0.0874915
-0.0913673
-0.0951133
-0.0986918
)
;
    }
}


// ************************************************************************* //
