/*--------------------------------*- C++ -*----------------------------------*\
  =========                 |
  \\      /  F ield         | OpenFOAM: The Open Source CFD Toolbox
   \\    /   O peration     | Website:  https://openfoam.org
    \\  /    A nd           | Version:  7
     \\/     M anipulation  |
\*---------------------------------------------------------------------------*/
FoamFile
{
    version     2.0;
    format      ascii;
    class       volVectorField;
    location    "80";
    object      U;
}
// * * * * * * * * * * * * * * * * * * * * * * * * * * * * * * * * * * * * * //

dimensions      [0 1 -1 0 0 0 0];

internalField   nonuniform List<vector> 
183
(
(1.15582 0.255491 3.84258e-20)
(1.14901 0.24232 -1.86583e-20)
(1.14234 0.229245 6.8997e-21)
(1.16172 0.312322 7.1679e-20)
(1.15402 0.294631 5.64498e-20)
(1.14738 0.277958 4.10046e-20)
(1.14145 0.262431 1.97895e-20)
(1.13542 0.248746 9.07819e-21)
(1.1609 0.361167 -5.93341e-20)
(1.15187 0.340158 -1.87722e-20)
(1.14399 0.320487 -5.58586e-20)
(1.13722 0.30205 1.03251e-20)
(1.13149 0.284694 -1.22928e-19)
(1.1594 0.418244 -6.56502e-20)
(1.14928 0.393318 1.32711e-20)
(1.14029 0.369975 9.19564e-20)
(1.13238 0.34813 -2.01551e-20)
(1.15572 0.484695 1.68045e-19)
(1.1451 0.455376 -2.35484e-19)
(1.13533 0.427728 3.61844e-20)
(1.1266 0.401841 1.80195e-20)
(1.11889 0.377645 -1.04471e-19)
(1.13676 0.526884 -1.48245e-19)
(1.12759 0.494968 5.36299e-20)
(1.11858 0.464468 1.01881e-19)
(1.11037 0.435825 -6.08872e-20)
(1.11262 0.60124 -5.14565e-19)
(1.11195 0.57037 1.32551e-19)
(1.1059 0.536739 1.64614e-19)
(1.09841 0.503517 -6.61974e-20)
(1.06589 0.637303 -9.11128e-20)
(1.07811 0.612716 9.44083e-20)
(1.07838 0.579744 1.60956e-19)
(1.07395 0.5446 -2.6771e-19)
(0.919583 0.631691 4.02925e-19)
(0.99487 0.657538 3.44496e-19)
(1.02978 0.648806 2.48577e-20)
(1.04209 0.621629 -5.2752e-20)
(1.04365 0.586813 4.74835e-20)
(0.755852 0.569136 4.34301e-19)
(0.887032 0.646763 -3.59824e-19)
(0.958391 0.669189 -2.58771e-19)
(0.991973 0.657369 -3.08315e-20)
(0.522802 0.429831 -1.27599e-19)
(0.727461 0.583588 -2.57875e-19)
(0.852066 0.658472 1.94984e-19)
(0.920008 0.677551 1.75855e-19)
(0.209905 0.18601 -4.98121e-20)
(0.50191 0.441518 2.98284e-19)
(0.696667 0.594736 -5.71417e-20)
(0.815036 0.666666 -8.67819e-20)
(0.201267 0.191488 -1.53973e-19)
(0.479026 0.450514 9.75044e-20)
(0.663825 0.602423 -2.08197e-20)
(0.191665 0.195732 -4.04427e-20)
(0.454437 0.45669 -7.64598e-21)
(0.181224 0.198659 -3.01491e-20)
(0.428434 0.459932 -3.1846e-20)
(0.170082 0.200203 -3.18083e-20)
(0.172659 -0.203476 -3.70903e-20)
(0.183707 -0.201625 -4.18213e-20)
(0.436631 -0.470087 -4.80872e-21)
(0.194003 -0.198376 1.20341e-19)
(0.462582 -0.466218 -8.87727e-20)
(0.203407 -0.193797 -7.79723e-20)
(0.487021 -0.459384 -3.02574e-20)
(0.676944 -0.61729 -6.75551e-20)
(0.211798 -0.18798 3.00945e-19)
(0.50964 -0.449697 3.577e-20)
(0.709731 -0.60885 1.51498e-19)
(0.831831 -0.684934 -3.46671e-20)
(0.530134 -0.437272 -1.25922e-19)
(0.740341 -0.596927 -1.35368e-19)
(0.868924 -0.676044 6.32862e-20)
(0.939108 -0.697448 -4.46727e-20)
(0.76841 -0.581711 2.04714e-20)
(0.903833 -0.663625 -1.52906e-19)
(0.977649 -0.688509 -1.11722e-20)
(1.0123 -0.677697 -2.35494e-19)
(0.936213 -0.647805 -1.7738e-20)
(1.01418 -0.676272 -1.80852e-19)
(1.05032 -0.668705 1.32666e-19)
(1.06299 -0.641759 1.54147e-19)
(1.06447 -0.606695 -1.6005e-20)
(1.08655 -0.656796 1.20368e-20)
(1.09926 -0.632563 -9.02339e-21)
(1.09954 -0.599425 5.00582e-20)
(1.09495 -0.563888 2.87477e-20)
(1.13396 -0.620847 2.44888e-19)
(1.1334 -0.589891 -3.26195e-19)
(1.12726 -0.555928 2.65887e-19)
(1.11966 -0.522261 -6.43327e-20)
(1.15843 -0.546028 -8.62779e-20)
(1.1492 -0.51371 1.34312e-19)
(1.14015 -0.482729 5.79936e-20)
(1.13193 -0.453544 -6.3959e-20)
(1.17767 -0.503493 -2.0255e-19)
(1.16708 -0.473723 5.23433e-20)
(1.15735 -0.445552 -4.15714e-20)
(1.14867 -0.419075 -2.92033e-20)
(1.14103 -0.394227 5.37443e-20)
(1.18188 -0.436237 1.80413e-19)
(1.17188 -0.410726 5.31408e-21)
(1.16301 -0.386729 -1.17913e-20)
(1.15525 -0.364175 -1.12261e-20)
(1.1486 -0.343 -5.39157e-20)
(1.18422 -0.378155 1.12827e-20)
(1.17541 -0.356423 4.23543e-20)
(1.16779 -0.335987 1.36534e-20)
(1.16139 -0.316779 -3.41481e-20)
(1.15619 -0.298695 2.0294e-20)
(1.179 -0.309575 7.24148e-20)
(1.17291 -0.292122 3.56485e-20)
(1.1676 -0.275884 -1.15032e-19)
(1.16218 -0.261556 2.25465e-21)
(1.18281 -0.269063 7.55285e-20)
(1.17657 -0.255152 -5.52303e-20)
(1.17028 -0.241361 4.0483e-20)
(1.13445 0.178204 -4.16333e-21)
(1.11883 0.163348 -5.74564e-22)
(1.11048 0.124988 -6.8018e-21)
(1.10235 0.111239 2.83713e-21)
(1.0942 0.0921161 5.13949e-23)
(1.09034 0.0795507 1.06651e-21)
(1.08428 0.070995 4.79849e-22)
(1.07749 0.0614193 1.21295e-21)
(1.07444 0.0521851 7.18504e-22)
(1.07218 0.0459913 -5.10316e-22)
(1.06867 0.0416897 5.87898e-23)
(1.06381 0.0375079 1.31222e-22)
(1.05981 0.031392 -6.10665e-23)
(1.05777 0.0280204 2.89967e-22)
(1.05406 0.0223271 3.03072e-22)
(1.0545 0.0195867 8.91427e-22)
(1.05006 0.016891 7.35274e-22)
(1.04848 0.0126423 -4.39364e-22)
(1.04679 0.00790873 4.21957e-23)
(1.04878 0.00472629 -9.57096e-23)
(1.04537 0.00389532 -1.25601e-21)
(1.06292 0.0382498 -2.71219e-22)
(1.05884 0.0319418 2.58339e-22)
(1.05684 0.0284749 -4.03834e-22)
(1.05317 0.0225582 2.55074e-23)
(1.05388 0.0198588 -7.55019e-22)
(1.04932 0.0173461 1.88033e-22)
(1.04757 0.0129403 3.78346e-22)
(1.04594 0.00786961 1.9755e-22)
(1.04819 0.00482233 1.09123e-21)
(1.04449 0.0041596 -6.36964e-23)
(1.08412 -0.0485402 -4.34403e-22)
(1.07498 -0.0389608 4.67238e-22)
(1.07246 -0.0336056 3.34966e-23)
(1.06434 -0.0283347 3.47837e-21)
(1.06364 -0.0221771 -1.55002e-21)
(1.05787 -0.0194161 -1.79432e-22)
(1.05853 -0.0149952 -4.70884e-22)
(1.05299 -0.0148607 -5.61643e-22)
(1.05142 -0.00944024 -1.66317e-22)
(1.04996 -0.00716099 1.36298e-21)
(1.05092 -0.00441583 1.50243e-21)
(1.0496 -0.00447057 -4.14812e-22)
(1.04729 -0.00164513 2.9898e-22)
(1.16251 -0.188895 -9.01465e-21)
(1.14641 -0.169648 6.88834e-22)
(1.1388 -0.126329 4.72913e-21)
(1.12775 -0.109748 5.20903e-22)
(1.1199 -0.088393 -2.16439e-21)
(1.10905 -0.0767787 -6.43149e-22)
(1.09889 -0.0642498 -1.86517e-22)
(1.09157 -0.0520026 -4.62836e-23)
(1.08543 -0.0469213 5.65225e-22)
(1.07627 -0.0376601 -5.41416e-22)
(1.07347 -0.0325635 -4.46018e-23)
(1.0654 -0.0274304 -6.49781e-22)
(1.06448 -0.0216182 2.17724e-25)
(1.05862 -0.0189797 2.76525e-22)
(1.059 -0.0146225 -3.96235e-22)
(1.05357 -0.014327 1.87727e-22)
(1.05211 -0.00917647 -1.67664e-21)
(1.05054 -0.00713747 -1.20498e-21)
(1.05125 -0.00439006 -2.61242e-22)
(1.04995 -0.00423209 -1.00459e-21)
(1.04788 -0.0014835 1.78679e-21)
)
;

boundaryField
{
    inlet
    {
        type            uniformFixedValue;
        uniformValue    constant (1 0 0);
        value           nonuniform 0();
    }
    outlet
    {
        type            pressureInletOutletVelocity;
        value           nonuniform 0();
    }
    cylinder
    {
        type            fixedValue;
        value           uniform (0 0 0);
    }
    top
    {
        type            symmetryPlane;
    }
    bottom
    {
        type            symmetryPlane;
    }
    defaultFaces
    {
        type            empty;
    }
    procBoundary12to11
    {
        type            processor;
        value           nonuniform List<vector> 
116
(
(1.12962 0.234935 6.43995e-20)
(1.12644 0.268587 9.40738e-20)
(1.12962 0.234935 6.43995e-20)
(1.12124 0.254416 4.93248e-20)
(1.12553 0.327699 8.12456e-20)
(1.11973 0.308564 -3.75076e-20)
(1.12644 0.268587 9.40738e-20)
(1.11496 0.290569 -8.28824e-20)
(1.12553 0.327699 8.12456e-20)
(1.11217 0.355033 1.03344e-19)
(1.10312 0.409073 8.77697e-20)
(1.11217 0.355033 1.03344e-19)
(1.09678 0.384109 -5.66279e-20)
(1.09115 0.471973 3.96609e-21)
(1.10312 0.409073 8.77697e-20)
(1.08462 0.442454 -4.05714e-20)
(1.09115 0.471973 3.96609e-21)
(1.06833 0.510248 -8.56664e-20)
(1.06833 0.510248 -8.56664e-20)
(1.04107 0.550375 -5.98169e-20)
(1.00482 0.627883 3.25659e-21)
(1.04107 0.550375 -5.98169e-20)
(1.00796 0.591487 -1.62969e-19)
(1.00482 0.627883 3.25659e-21)
(0.952766 0.662894 1.17845e-19)
(0.952766 0.662894 1.17845e-19)
(0.880059 0.68252 7.57589e-20)
(0.880059 0.68252 7.57589e-20)
(0.77631 0.671229 5.72566e-20)
(0.77631 0.671229 5.72566e-20)
(0.629293 0.606537 5.20059e-20)
(0.629293 0.606537 5.20059e-20)
(0.593437 0.606994 1.59238e-20)
(0.401316 0.460156 -1.47869e-20)
(0.401316 0.460156 -1.47869e-20)
(0.15838 0.200315 -6.04956e-20)
(0.161008 -0.203878 -5.27366e-20)
(0.409476 -0.470903 2.63132e-20)
(0.409476 -0.470903 2.63132e-20)
(0.606332 -0.623268 2.22745e-20)
(0.642352 -0.622125 -1.13075e-19)
(0.642352 -0.622125 -1.13075e-19)
(0.792931 -0.690173 3.61919e-20)
(0.792931 -0.690173 3.61919e-20)
(0.898899 -0.702987 -1.43082e-19)
(0.898899 -0.702987 -1.43082e-19)
(0.972782 -0.683665 -2.51327e-20)
(0.972782 -0.683665 -2.51327e-20)
(1.02538 -0.648327 -1.03207e-19)
(1.02538 -0.648327 -1.03207e-19)
(1.02838 -0.611605 1.34583e-19)
(1.06168 -0.569805 -3.65738e-20)
(1.06168 -0.569805 -3.65738e-20)
(1.08916 -0.529046 -6.69953e-21)
(1.08916 -0.529046 -6.69953e-21)
(1.11229 -0.490205 -1.38464e-21)
(1.11229 -0.490205 -1.38464e-21)
(1.1057 -0.460122 5.57332e-21)
(1.12467 -0.426192 -7.77685e-20)
(1.12467 -0.426192 -7.77685e-20)
(1.11834 -0.400574 7.83734e-21)
(1.13439 -0.370914 3.40236e-21)
(1.13439 -0.370914 3.40236e-21)
(1.12876 -0.349056 6.58366e-20)
(1.14312 -0.323123 7.323e-21)
(1.14312 -0.323123 7.323e-21)
(1.13885 -0.304438 5.37704e-20)
(1.1518 -0.281947 -3.62125e-20)
(1.1518 -0.281947 -3.62125e-20)
(1.14726 -0.26722 -3.12396e-20)
(1.15681 -0.24714 -5.96136e-24)
(1.15681 -0.24714 -5.96136e-24)
(1.12473 0.181734 -4.35565e-21)
(1.11246 0.167248 -6.24137e-21)
(1.10555 0.128315 3.15294e-21)
(1.09863 0.113689 -9.84068e-23)
(1.09116 0.0941397 -1.09629e-22)
(1.08805 0.0809036 -2.13178e-21)
(1.08251 0.0724135 -8.18216e-22)
(1.07571 0.0626507 6.47048e-22)
(1.07283 0.0528699 3.69476e-23)
(1.07102 0.0464513 3.86938e-22)
(1.06782 0.0423357 7.94139e-23)
(1.06782 0.0423357 7.94139e-23)
(1.06207 0.0390143 -4.85486e-23)
(1.05786 0.0325132 2.30549e-22)
(1.0559 0.0289313 5.39173e-23)
(1.05228 0.0227635 2.14186e-22)
(1.05329 0.0201146 -3.05788e-22)
(1.04859 0.0178344 -5.96082e-22)
(1.04663 0.0132582 3.27385e-22)
(1.04507 0.00779929 -5.45451e-22)
(1.04763 0.00492219 5.89502e-22)
(1.04358 0.00445459 2.834e-23)
(1.0828 -0.0501379 -5.10418e-22)
(1.07366 -0.0402657 3.18791e-22)
(1.07143 -0.0346429 -3.89287e-22)
(1.06324 -0.0292459 1.03547e-21)
(1.06275 -0.0227206 -1.01483e-21)
(1.0571 -0.019819 -6.33619e-23)
(1.05807 -0.0153525 4.17301e-22)
(1.0524 -0.0154209 -1.79875e-22)
(1.0507 -0.00971563 1.14252e-21)
(1.04935 -0.00714884 -7.34287e-23)
(1.0506 -0.0044175 -1.32534e-23)
(1.04925 -0.00473769 -4.94233e-22)
(1.04665 -0.0018351 4.93295e-22)
(1.15206 -0.192887 -6.51482e-22)
(1.13902 -0.174244 2.3874e-21)
(1.13312 -0.130378 -3.90953e-21)
(1.12349 -0.112871 -9.80846e-22)
(1.11684 -0.0912542 -1.44677e-21)
(1.1067 -0.0794165 1.49421e-21)
(1.09677 -0.0666063 3.26568e-22)
(1.08983 -0.0536607 -1.70271e-22)
(1.08983 -0.0536607 -1.70271e-22)
)
;
    }
    procBoundary12to13
    {
        type            processor;
        value           nonuniform List<vector> 
106
(
(1.16954 0.24781 -2.78286e-20)
(1.16199 0.235173 -1.92552e-20)
(1.15448 0.222875 2.27271e-20)
(1.17869 0.303261 -2.33624e-20)
(1.1701 0.286356 1.72524e-20)
(1.1626 0.270403 5.61007e-20)
(1.1626 0.270403 5.61007e-20)
(1.18065 0.351293 -2.93209e-20)
(1.17058 0.33118 -8.44637e-20)
(1.17058 0.33118 -8.44637e-20)
(1.1825 0.407462 -2.34145e-19)
(1.1711 0.383581 1.01124e-19)
(1.1711 0.383581 1.01124e-19)
(1.18268 0.472801 2.28993e-19)
(1.17063 0.44479 -3.39791e-20)
(1.17063 0.44479 -3.39791e-20)
(1.16637 0.515139 2.60302e-19)
(1.16637 0.515139 2.60302e-19)
(1.14539 0.587311 -3.56203e-19)
(1.14417 0.558789 3.24266e-19)
(1.14417 0.558789 3.24266e-19)
(1.10002 0.62297 1.05471e-19)
(1.10002 0.62297 1.05471e-19)
(0.949443 0.613379 2.77625e-19)
(1.02913 0.64272 -1.93337e-19)
(1.02913 0.64272 -1.93337e-19)
(0.781544 0.551607 3.04531e-19)
(0.781544 0.551607 3.04531e-19)
(0.541436 0.415572 5.65469e-19)
(0.541436 0.415572 5.65469e-19)
(0.217489 0.179405 -1.95484e-19)
(0.217489 0.179405 -1.95484e-19)
(0.219115 -0.181035 5.11795e-20)
(0.219115 -0.181035 5.11795e-20)
(0.548251 -0.422215 -6.28525e-20)
(0.548251 -0.422215 -6.28525e-20)
(0.79361 -0.563392 2.02631e-19)
(0.79361 -0.563392 2.02631e-19)
(0.96576 -0.628785 -8.60458e-20)
(1.04834 -0.660861 -6.74143e-20)
(1.04834 -0.660861 -6.74143e-20)
(1.12071 -0.642114 7.16359e-20)
(1.12071 -0.642114 7.16359e-20)
(1.16684 -0.606711 2.98343e-19)
(1.16585 -0.5782 -1.78761e-19)
(1.16585 -0.5782 -1.78761e-19)
(1.18831 -0.534294 -1.12919e-19)
(1.18831 -0.534294 -1.12919e-19)
(1.20495 -0.491722 -2.54695e-20)
(1.19299 -0.46329 1.959e-19)
(1.19299 -0.46329 1.959e-19)
(1.20542 -0.425696 1.86219e-19)
(1.19422 -0.401231 -4.16084e-20)
(1.19422 -0.401231 -4.16084e-20)
(1.20459 -0.368585 -8.99668e-20)
(1.19481 -0.347727 3.44009e-20)
(1.18628 -0.328075 -7.0573e-20)
(1.18628 -0.328075 -7.0573e-20)
(1.19592 -0.301566 -2.67896e-20)
(1.18898 -0.284768 2.08593e-20)
(1.18898 -0.284768 2.08593e-20)
(1.19742 -0.261537 2.10603e-20)
(1.19041 -0.248051 1.61199e-20)
(1.18325 -0.234922 -5.19726e-20)
(1.14378 0.174224 -1.68923e-20)
(1.12497 0.159082 -1.77891e-21)
(1.11523 0.121576 3.01647e-21)
(1.10596 0.108707 4.0054e-21)
(1.09714 0.0900503 -2.132e-22)
(1.09257 0.0781339 1.15846e-21)
(1.08604 0.0695581 2.53092e-21)
(1.07923 0.0602173 -1.5152e-21)
(1.076 0.0514801 4.94952e-22)
(1.07332 0.0454721 -3.14265e-22)
(1.06955 0.0410215 5.4008e-22)
(1.06472 0.0367864 -2.92497e-23)
(1.06077 0.0308581 1.38724e-22)
(1.05867 0.027566 -9.12758e-23)
(1.05492 0.0220746 3.101e-22)
(1.05513 0.0193021 8.71767e-22)
(1.05081 0.0164645 5.05318e-22)
(1.04936 0.0123607 5.87452e-22)
(1.04762 0.00792138 3.24627e-22)
(1.04938 0.00463387 4.66687e-22)
(1.04623 0.00365759 -1.57838e-21)
(1.1727 -0.184463 1.16736e-20)
(1.15363 -0.164704 5.41892e-21)
(1.14435 -0.122172 6.49888e-22)
(1.1319 -0.106477 -2.00418e-22)
(1.12289 -0.0854257 -2.51887e-23)
(1.11138 -0.0740993 4.26447e-22)
(1.10097 -0.0618989 -1.6172e-21)
(1.09326 -0.0503128 3.615e-22)
(1.08671 -0.0452845 3.88168e-23)
(1.07754 -0.0363628 -1.20215e-22)
(1.07446 -0.0315157 2.19581e-22)
(1.06642 -0.026531 5.01101e-22)
(1.06529 -0.0210438 -1.35686e-21)
(1.05936 -0.0185151 -3.84466e-22)
(1.05948 -0.0142376 1.90483e-22)
(1.05415 -0.0138154 -7.47892e-22)
(1.05276 -0.00892076 -1.0317e-21)
(1.05109 -0.00708361 4.6558e-22)
(1.0516 -0.00434495 6.85918e-22)
(1.05032 -0.00401742 -7.95094e-22)
(1.04845 -0.00134515 2.52621e-21)
)
;
    }
}


// ************************************************************************* //
