/*--------------------------------*- C++ -*----------------------------------*\
  =========                 |
  \\      /  F ield         | OpenFOAM: The Open Source CFD Toolbox
   \\    /   O peration     | Website:  https://openfoam.org
    \\  /    A nd           | Version:  7
     \\/     M anipulation  |
\*---------------------------------------------------------------------------*/
FoamFile
{
    version     2.0;
    format      ascii;
    class       volVectorField;
    location    "45";
    object      U;
}
// * * * * * * * * * * * * * * * * * * * * * * * * * * * * * * * * * * * * * //

dimensions      [0 1 -1 0 0 0 0];

internalField   nonuniform List<vector> 
183
(
(0.707836 -0.321572 -1.52377e-22)
(0.682943 -0.390683 1.80749e-22)
(0.7165 -0.322893 1.10588e-21)
(0.697526 -0.384192 -2.9764e-22)
(0.725207 -0.324495 -3.23583e-22)
(0.711911 -0.377971 -8.94042e-22)
(0.734031 -0.326313 1.06236e-21)
(0.726017 -0.372077 9.59029e-22)
(0.743051 -0.328274 1.13018e-23)
(0.739776 -0.366557 -1.79152e-21)
(0.752344 -0.330299 -3.34011e-21)
(0.753134 -0.361444 1.47284e-21)
(0.761984 -0.332303 7.50567e-22)
(0.76605 -0.35676 -5.81893e-23)
(0.772039 -0.334202 4.10777e-21)
(0.778498 -0.352512 -2.82698e-22)
(0.782567 -0.335918 -5.80863e-21)
(0.790467 -0.348695 -1.50775e-21)
(0.793614 -0.337375 4.97547e-21)
(0.80196 -0.34529 -4.93715e-22)
(0.805212 -0.338508 3.92211e-21)
(0.812995 -0.342266 -1.92047e-23)
(0.817373 -0.339262 2.50413e-21)
(0.823602 -0.339581 -1.13624e-21)
(0.830097 -0.339593 -6.60787e-21)
(0.833822 -0.337188 -2.0838e-21)
(0.843361 -0.339475 -9.05801e-22)
(0.843704 -0.335031 3.89749e-21)
(0.790966 -0.299145 2.6743e-22)
(0.857125 -0.338891 6.05959e-21)
(0.853304 -0.333056 -2.30604e-21)
(0.805395 -0.291835 2.65764e-21)
(0.87133 -0.33782 -4.19623e-21)
(0.862684 -0.331187 -8.00274e-22)
(0.819118 -0.285107 -1.85069e-21)
(0.8859 -0.336217 -1.16924e-21)
(0.87191 -0.329322 2.76741e-21)
(0.832097 -0.278954 -1.83717e-22)
(0.900744 -0.334096 -7.76148e-22)
(0.881046 -0.327405 -1.61258e-21)
(0.844307 -0.273381 -2.30491e-22)
(0.915753 -0.331769 1.07459e-22)
(0.890164 -0.325635 -2.42238e-22)
(0.855736 -0.268543 -9.48126e-22)
(0.930807 -0.329727 -6.82984e-21)
(0.899342 -0.32434 2.77356e-21)
(0.866395 -0.264678 -5.08972e-22)
(0.945793 -0.326893 2.5067e-22)
(0.908658 -0.322487 1.80514e-22)
(0.87633 -0.261049 6.33691e-23)
(0.937694 -0.309436 0)
(0.904487 -0.246349 0)
(0.984183 -0.284468 0)
(0.92604 -0.226332 0)
(1.02794 -0.243164 0)
(0.954531 -0.200797 0)
(1.05965 -0.211065 0)
(0.987765 -0.174988 0)
(1.07713 -0.175751 0)
(1.01509 -0.146055 0)
(1.08853 -0.149215 0)
(1.03737 -0.122989 0)
(1.09618 -0.124802 0)
(1.05373 -0.102307 0)
(1.10152 -0.104554 0)
(1.06587 -0.0856481 0)
(1.10527 -0.087252 0)
(1.07518 -0.0716227 0)
(1.10771 -0.0725742 0)
(1.08232 -0.0598753 0)
(1.10907 -0.0601902 0)
(1.08769 -0.0500079 0)
(1.10958 -0.0497463 0)
(1.0916 -0.0416685 0)
(1.10949 -0.0409242 0)
(1.09436 -0.0345831 0)
(1.10903 -0.0334487 0)
(1.09626 -0.0285212 0)
(1.10835 -0.0270727 0)
(1.09751 -0.0232868 0)
(1.10757 -0.0215793 0)
(1.09827 -0.0187134 0)
(1.10677 -0.016785 0)
(1.09868 -0.0146617 0)
(1.10602 -0.0125312 0)
(1.09886 -0.0110133 0)
(1.10542 -0.00867763 0)
(1.09892 -0.00766274 0)
(1.10499 -0.00509874 0)
(1.09893 -0.00451586 0)
(1.10477 -0.00168127 0)
(1.09892 -0.00149087 0)
(0.498562 -0.466018 0)
(0.555924 -0.443217 0)
(0.6642 -0.401059 0)
(0.818831 -0.350664 0)
(0.987589 -0.297602 0)
(1.11903 -0.243065 0)
(1.18689 -0.192071 0)
(1.20341 -0.149847 0)
(1.19518 -0.117065 0)
(1.18058 -0.0915101 0)
(1.16687 -0.0714886 0)
(1.15556 -0.0557947 0)
(1.14649 -0.0434537 0)
(1.13923 -0.0337135 0)
(1.13336 -0.0259853 0)
(1.12863 -0.019804 0)
(1.12486 -0.0148008 0)
(1.12198 -0.0106807 0)
(1.11989 -0.00720004 0)
(1.11852 -0.00415162 0)
(1.11783 -0.00135548 0)
(0.569117 -0.421241 0)
(0.671493 -0.362558 0)
(0.811796 -0.292601 0)
(0.975699 -0.223171 0)
(1.12906 -0.162905 0)
(1.23152 -0.118702 0)
(1.27031 -0.0898626 0)
(1.26551 -0.0712679 0)
(1.2434 -0.0581483 0)
(1.21918 -0.0475281 0)
(1.1981 -0.0385751 0)
(1.18089 -0.0310298 0)
(1.16705 -0.0247233 0)
(1.15596 -0.0195022 0)
(1.14707 -0.0152071 0)
(1.13996 -0.0116805 0)
(1.13437 -0.00876952 0)
(1.13012 -0.00634289 0)
(1.12706 -0.00428087 0)
(1.12507 -0.00246972 0)
(1.12408 -0.000806764 0)
(0.526808 -0.3241 -4.12513e-23)
(0.493578 -0.471688 -2.49364e-22)
(0.532719 -0.444817 3.80032e-21)
(0.531157 -0.326702 2.17319e-21)
(0.493349 -0.473024 -3.30639e-21)
(0.525208 -0.44843 1.21252e-21)
(0.536381 -0.328695 -1.0644e-21)
(0.494204 -0.473856 -1.76671e-21)
(0.51901 -0.45216 3.14843e-21)
(0.542523 -0.330092 -2.39448e-22)
(0.496122 -0.474099 -2.64304e-21)
(0.51369 -0.455521 -3.11788e-21)
(0.549515 -0.330981 1.4626e-21)
(0.499109 -0.473735 2.0538e-22)
(0.509243 -0.458434 8.71262e-21)
(0.557269 -0.331384 3.31878e-23)
(0.50316 -0.47275 9.71324e-22)
(0.505687 -0.460877 -2.59047e-21)
(0.565682 -0.331335 2.49035e-21)
(0.508262 -0.47114 -1.28043e-21)
(0.503036 -0.462822 1.34922e-21)
(0.574647 -0.330881 -1.11086e-21)
(0.514399 -0.468906 3.11913e-21)
(0.58405 -0.33008 8.01745e-23)
(0.521553 -0.466057 -3.53212e-21)
(0.593781 -0.328998 -4.7165e-22)
(0.529697 -0.462607 2.48912e-21)
(0.603728 -0.327711 1.02125e-21)
(0.538801 -0.458581 6.31322e-21)
(0.613789 -0.326301 6.78566e-22)
(0.548825 -0.45401 -2.4649e-21)
(0.623869 -0.324853 -3.66836e-21)
(0.559717 -0.448934 -1.68347e-21)
(0.63389 -0.323452 3.94887e-21)
(0.571414 -0.4434 -7.34466e-22)
(0.643785 -0.322179 -1.72972e-21)
(0.583842 -0.437465 2.76882e-21)
(0.653507 -0.321109 -2.83599e-21)
(0.596913 -0.431193 3.42491e-21)
(0.663027 -0.320307 4.06285e-22)
(0.610529 -0.424653 -2.24495e-21)
(0.672336 -0.319824 1.29408e-22)
(0.624583 -0.417921 1.4915e-21)
(0.681439 -0.319698 -5.24138e-22)
(0.638964 -0.411077 -7.29485e-22)
(0.690363 -0.319949 -1.44441e-22)
(0.653558 -0.404202 5.03908e-22)
(0.699144 -0.320579 -2.53689e-22)
(0.668254 -0.397378 1.19877e-22)
)
;

boundaryField
{
    inlet
    {
        type            uniformFixedValue;
        uniformValue    constant (1 0 0);
        value           nonuniform 0();
    }
    outlet
    {
        type            pressureInletOutletVelocity;
        value           nonuniform 0();
    }
    cylinder
    {
        type            fixedValue;
        value           nonuniform 0();
    }
    top
    {
        type            symmetryPlane;
    }
    bottom
    {
        type            symmetryPlane;
    }
    defaultFaces
    {
        type            empty;
    }
    procBoundary42to41
    {
        type            processor;
        value           nonuniform List<vector> 
86
(
(0.661053 -0.197795 -1.96389e-22)
(0.667898 -0.204062 1.11235e-21)
(0.675925 -0.210168 -2.97849e-21)
(0.685229 -0.216026 1.71989e-21)
(0.695854 -0.221558 1.34636e-21)
(0.707798 -0.226692 -4.34946e-21)
(0.721009 -0.23137 -2.14851e-21)
(0.735397 -0.235553 2.60094e-21)
(0.750833 -0.239217 -1.27234e-20)
(0.767167 -0.242355 2.7835e-21)
(0.784232 -0.244976 -3.80129e-21)
(0.801854 -0.247104 -3.6777e-21)
(0.819863 -0.248769 -1.06091e-21)
(0.838098 -0.250011 1.17974e-21)
(0.856413 -0.250873 1.40524e-20)
(0.874678 -0.25139 -7.93339e-21)
(0.892787 -0.251564 6.01302e-23)
(0.910656 -0.251398 -8.13354e-21)
(0.928212 -0.251072 3.79227e-21)
(0.945363 -0.25102 -1.59341e-21)
(0.961991 -0.250742 7.44216e-21)
(0.991443 -0.309485 0)
(0.991443 -0.309485 0)
(1.06185 -0.295563 0)
(1.102 -0.258297 0)
(1.12815 -0.231233 0)
(1.13897 -0.194602 0)
(1.14339 -0.164706 0)
(1.14433 -0.136741 0)
(1.1432 -0.113175 0)
(1.14093 -0.0933873 0)
(1.13804 -0.0768447 0)
(1.13479 -0.063089 0)
(1.13139 -0.0516569 0)
(1.12803 -0.0421346 0)
(1.12488 -0.034173 0)
(1.12202 -0.0274704 0)
(1.11949 -0.0217669 0)
(1.11733 -0.0168464 0)
(1.11555 -0.0125262 0)
(1.1142 -0.00864711 0)
(1.1133 -0.00506929 0)
(1.11285 -0.00166921 0)
(0.514564 -0.324917 0)
(0.514564 -0.324917 0)
(0.537162 -0.335878 0)
(0.614943 -0.332999 0)
(0.744359 -0.325609 0)
(0.891302 -0.310356 0)
(1.00817 -0.276798 0)
(1.07702 -0.228627 0)
(1.10796 -0.180071 0)
(1.11871 -0.139454 0)
(1.12153 -0.107519 0)
(1.12178 -0.0829345 0)
(1.12114 -0.0640719 0)
(1.12013 -0.0495255 0)
(1.11894 -0.0382223 0)
(1.11765 -0.0293577 0)
(1.11635 -0.0223296 0)
(1.11513 -0.0166723 0)
(1.1141 -0.0120282 0)
(1.11331 -0.00811096 0)
(1.11276 -0.0046811 0)
(1.11246 -0.00153024 0)
(0.554973 -0.0836027 -2.15255e-22)
(0.55922 -0.0884362 7.34777e-22)
(0.564183 -0.0937565 6.41672e-22)
(0.569791 -0.0988873 2.02233e-22)
(0.575901 -0.103976 -1.98113e-22)
(0.582347 -0.109062 6.36453e-22)
(0.58895 -0.114125 1.67513e-21)
(0.595535 -0.119158 -3.06886e-21)
(0.601942 -0.12417 3.80357e-21)
(0.608037 -0.12918 -2.56234e-21)
(0.613719 -0.134214 2.71541e-21)
(0.618929 -0.139303 1.04844e-21)
(0.623647 -0.144482 3.89161e-22)
(0.627901 -0.149784 2.79365e-21)
(0.631763 -0.15524 1.87446e-21)
(0.635349 -0.160871 -2.34362e-21)
(0.638808 -0.166685 2.25978e-21)
(0.642322 -0.172679 4.28029e-22)
(0.646093 -0.178832 -8.81226e-22)
(0.650334 -0.185107 -2.3144e-22)
(0.655256 -0.191451 -2.66206e-22)
)
;
    }
    procBoundary42to43
    {
        type            processor;
        value           nonuniform List<vector> 
86
(
(0.583038 -0.416965 -1.07037e-22)
(0.596909 -0.408748 2.93084e-22)
(0.611647 -0.400057 -1.41736e-22)
(0.627128 -0.390969 -8.83714e-22)
(0.643215 -0.381572 -1.43417e-22)
(0.65976 -0.371958 8.28772e-22)
(0.676608 -0.362229 2.85564e-22)
(0.693606 -0.352487 -1.40227e-21)
(0.710603 -0.342835 8.70228e-22)
(0.727455 -0.333372 -2.02106e-22)
(0.744029 -0.324192 5.08455e-22)
(0.760205 -0.31538 -1.04472e-21)
(0.77588 -0.30701 -1.50536e-22)
(0.77588 -0.30701 -1.50536e-22)
(0.676934 -0.267638 7.17913e-23)
(0.694444 -0.257512 2.33725e-22)
(0.712152 -0.247357 -3.46056e-22)
(0.729887 -0.237286 2.13794e-22)
(0.747494 -0.227428 -6.61334e-23)
(0.764835 -0.217995 -1.35848e-22)
(0.781803 -0.209192 2.08973e-22)
(0.798324 -0.200556 1.52093e-22)
(0.84694 -0.172044 0)
(0.895604 -0.134593 0)
(0.923187 -0.117576 0)
(0.94802 -0.104334 0)
(0.972102 -0.0908149 0)
(0.997481 -0.0775076 0)
(1.0198 -0.0645194 0)
(1.03789 -0.0537986 0)
(1.05204 -0.0449417 0)
(1.06296 -0.0377662 0)
(1.07128 -0.0318791 0)
(1.07753 -0.0269494 0)
(1.08215 -0.0227411 0)
(1.08551 -0.0190818 0)
(1.08792 -0.0158445 0)
(1.0896 -0.0129328 0)
(1.09071 -0.0102732 0)
(1.09142 -0.00780621 0)
(1.09186 -0.00548087 0)
(1.09212 -0.00325147 0)
(1.09223 -0.00107753 0)
(0.703752 -0.236965 0)
(0.824806 -0.164868 0)
(0.965936 -0.0978591 0)
(1.10507 -0.0412586 0)
(1.21568 -0.00469766 0)
(1.27566 0.0106511 0)
(1.28761 0.012386 0)
(1.27227 0.00873553 0)
(1.24804 0.00446876 0)
(1.22408 0.00156406 0)
(1.20325 -9.33779e-05 0)
(1.18584 -0.000846255 0)
(1.17149 -0.00105648 0)
(1.15973 -0.00099249 0)
(1.15014 -0.000804219 0)
(1.14238 -0.000596515 0)
(1.13622 -0.000402628 0)
(1.1315 -0.000244765 0)
(1.12809 -0.000134462 0)
(1.12586 -6.23659e-05 0)
(1.12475 -1.66671e-05 0)
(0.646058 -0.269643 5.33081e-21)
(0.630822 -0.276341 -2.13579e-21)
(0.617529 -0.282955 3.56146e-21)
(0.605408 -0.289621 6.51982e-22)
(0.594217 -0.296111 -4.34733e-21)
(0.583869 -0.302381 1.04867e-20)
(0.57433 -0.308417 -1.44659e-22)
(0.501301 -0.464239 3.57174e-21)
(0.501301 -0.464239 3.57174e-21)
(0.500495 -0.4651 -3.11761e-21)
(0.500628 -0.465376 4.65875e-21)
(0.501714 -0.465041 7.0775e-22)
(0.503769 -0.46407 -2.73255e-21)
(0.506814 -0.462441 1.79335e-21)
(0.510878 -0.460136 7.29056e-23)
(0.515991 -0.457142 -9.61032e-23)
(0.522188 -0.453449 2.25373e-21)
(0.5295 -0.449053 -9.77963e-22)
(0.537951 -0.443958 6.09005e-22)
(0.54755 -0.438176 -5.49159e-22)
(0.55829 -0.431728 2.38212e-22)
(0.570138 -0.424643 -1.53453e-22)
)
;
    }
}


// ************************************************************************* //
