/*--------------------------------*- C++ -*----------------------------------*\
  =========                 |
  \\      /  F ield         | OpenFOAM: The Open Source CFD Toolbox
   \\    /   O peration     | Website:  https://openfoam.org
    \\  /    A nd           | Version:  7
     \\/     M anipulation  |
\*---------------------------------------------------------------------------*/
FoamFile
{
    version     2.0;
    format      ascii;
    class       surfaceScalarField;
    location    "97";
    object      phi;
}
// * * * * * * * * * * * * * * * * * * * * * * * * * * * * * * * * * * * * * //

dimensions      [0 3 -1 0 0 0 0];

internalField   nonuniform List<scalar> 
79480
(
-4.81452e-07
2.64726e-05
-2.59911e-05
-1.99112e-06
7.65388e-05
-7.50292e-05
-4.6408e-06
0.000125471
-0.000122822
-8.53846e-06
0.000172818
-0.000168921
-1.37786e-05
0.000218137
-0.000212896
-2.04342e-05
0.000261056
-0.000254401
-2.85512e-05
0.000301314
-0.000293197
-3.81447e-05
0.000338774
-0.000329181
-4.91977e-05
0.000373451
-0.000362398
-6.16626e-05
0.000405505
-0.00039304
-7.54644e-05
0.000435238
-0.000421436
-9.05056e-05
0.000463063
-0.000448022
-0.000106672
0.000489466
-0.0004733
-0.000123838
0.000514964
-0.000497798
-0.000141872
0.00054005
-0.000522016
-0.000160642
0.000565152
-0.000546382
-0.000180012
0.000590584
-0.000571214
-0.000199847
0.000616515
-0.00059668
-0.000220008
0.000642943
-0.000622782
-0.000240346
0.000669677
-0.000649338
-0.000260703
0.000696322
-0.000675965
-0.000280899
0.000722274
-0.000702078
-0.00030073
0.000746708
-0.000726877
-0.000319962
0.00076857
-0.000749337
-0.000338331
0.000786569
-0.0007682
-0.000355542
0.000799168
-0.000781957
-0.000371282
0.000804586
-0.000788846
-0.00038524
0.000800798
-0.000786841
-0.000397169
0.000785516
-0.000773587
0.000756373
-0.000746404
-0.000407138
-2.98069e-07
2.67706e-05
-1.30798e-06
7.75488e-05
-3.17551e-06
0.000127339
-6.04175e-06
0.000175685
-1.00333e-05
0.000222128
-1.52534e-05
0.000266277
-2.17754e-05
0.000307836
-2.96374e-05
0.000346636
-3.88408e-05
0.000382654
-4.93498e-05
0.000416014
-6.1094e-05
0.000446982
-7.39734e-05
0.000475942
-8.78636e-05
0.000503356
-0.000102622
0.000529722
-0.000118094
0.000555522
-0.000134115
0.000581173
-0.000150516
0.000606985
-0.000167124
0.000633122
-0.000183754
0.000659573
-0.000200212
0.000686135
-0.000216285
0.000712396
-0.000231738
0.000737727
-0.000246302
0.000761272
-0.000259673
0.000781941
-0.000271509
0.000798405
-0.000281434
0.000809093
-0.000289055
0.000812206
-0.000293993
0.000805737
-0.000295964
0.000787487
0.000755464
-0.000295055
-1.15435e-07
2.68861e-05
-6.23339e-07
7.80567e-05
-1.69997e-06
0.000128416
-3.51549e-06
0.0001775
-6.22522e-06
0.000224838
-9.95998e-06
0.000270011
-1.48182e-05
0.000312694
-2.08601e-05
0.000352678
-2.8104e-05
0.000389898
-3.65255e-05
0.000424435
-4.60591e-05
0.000456516
-5.66016e-05
0.000486485
-6.80182e-05
0.000514773
-8.0148e-05
0.000541852
-9.28106e-05
0.000568184
-0.00010581
0.000594173
-0.000118941
0.000620116
-0.000131984
0.000646165
-0.000144711
0.0006723
-0.000156876
0.000698299
-0.000168211
0.000723731
-0.00017842
0.000747936
-0.000187172
0.000770023
-0.000194093
0.000788862
-0.000198766
0.000803079
-0.000200736
0.000811063
-0.000199527
0.000810998
-0.000194693
0.000800902
-0.000185893
0.000778688
0.000742692
-0.000173121
6.42096e-08
2.68219e-05
5.21656e-08
7.80687e-05
-2.36118e-07
0.000128704
-9.96107e-07
0.00017826
-2.4077e-06
0.000226249
-4.62565e-06
0.000272229
-7.77087e-06
0.000315839
-1.19234e-05
0.000356831
-1.71177e-05
0.000395092
-2.334e-05
0.000430658
-3.05293e-05
0.000463705
-3.85799e-05
0.000494535
-4.73463e-05
0.000523539
-5.66492e-05
0.000551155
-6.62824e-05
0.000577818
-7.60175e-05
0.000603908
-8.56089e-05
0.000629707
-9.47948e-05
0.000655351
-0.000103297
0.000680802
-0.000110818
0.00070582
-0.000117035
0.000729947
-0.000121593
0.000752494
-0.0001241
0.00077253
-0.000124117
0.000788879
-0.00012116
0.000800121
-0.0001147
0.000804603
-0.000104184
0.000800482
-8.90882e-05
0.000785806
-6.90208e-05
0.00075862
0.00071751
-4.38389e-05
2.3692e-07
2.65849e-05
7.08452e-07
7.75972e-05
1.19383e-06
0.000128218
1.47878e-06
0.000177975
1.3637e-06
0.000226364
6.74052e-07
0.000272919
-7.3024e-07
0.000317243
-2.94663e-06
0.000359047
-6.02379e-06
0.000398169
-9.95819e-06
0.000434592
-1.46931e-05
0.00046844
-2.01204e-05
0.000499963
-2.60848e-05
0.000529504
-3.23894e-05
0.00055746
-3.88024e-05
0.000584231
-4.50632e-05
0.000610169
-5.08869e-05
0.000635531
-5.59678e-05
0.000660432
-5.99794e-05
0.000684814
-6.25725e-05
0.000708413
-6.33705e-05
0.000730745
-6.19641e-05
0.000751087
-5.79042e-05
0.00076847
-5.06963e-05
0.000781671
-3.9797e-05
0.000789222
-2.46172e-05
0.000789423
-4.53937e-06
0.000780404
2.10446e-05
0.000760223
5.26189e-05
0.000727046
0.000680041
9.00876e-05
4.00744e-07
2.61842e-05
1.33465e-06
7.66633e-05
2.56741e-06
0.000126986
3.87112e-06
0.000176671
5.03197e-06
0.000225204
5.86051e-06
0.00027209
6.2017e-06
0.000316902
5.9438e-06
0.000359305
5.02564e-06
0.000399087
3.4418e-06
0.000436176
1.24482e-06
0.000470637
-1.45541e-06
0.000502663
-4.49476e-06
0.000532543
-7.66009e-06
0.000560625
-1.06957e-05
0.000587266
-1.33098e-05
0.000612783
-1.51801e-05
0.000637401
-1.59581e-05
0.00066121
-1.52706e-05
0.000684126
-1.2719e-05
0.000705862
-7.87646e-06
0.000725903
-2.83337e-07
0.000743494
1.05587e-05
0.000757628
2.51919e-05
0.000767038
4.42064e-05
0.000770208
6.82398e-05
0.00076539
9.79662e-05
0.000750678
0.000134043
0.000724146
0.000176983
0.000684106
0.000630126
0.000226898
5.52754e-07
2.56315e-05
1.92091e-06
7.52951e-05
3.86282e-06
0.000125044
6.14329e-06
0.000174391
8.54021e-06
0.000222807
1.08546e-05
0.000269776
1.2921e-05
0.000314836
1.4617e-05
0.000357609
1.58715e-05
0.000397833
1.66716e-05
0.000435376
1.70659e-05
0.000470243
1.71655e-05
0.000502563
1.7142e-05
0.000532567
1.72228e-05
0.000560544
1.76853e-05
0.000586804
1.88498e-05
0.000611619
2.10736e-05
0.000635177
2.47453e-05
0.000657539
3.02819e-05
0.00067859
3.8128e-05
0.000698016
4.87565e-05
0.000715274
6.2672e-05
0.000729579
8.04147e-05
0.000739885
0.000102565
0.000744888
0.000129749
0.000743024
0.000162638
0.000732501
0.000201946
0.000711369
0.000248392
0.0006777
0.000302571
0.000629926
0.000568039
0.000364659
6.90504e-07
2.49409e-05
2.45774e-06
7.35279e-05
5.0592e-06
0.000122442
8.25884e-06
0.000171191
1.18325e-05
0.000219233
1.55775e-05
0.000266031
1.9323e-05
0.00031109
2.29398e-05
0.000353992
2.63504e-05
0.000394422
2.9536e-05
0.00043219
3.25418e-05
0.000467237
3.54798e-05
0.000499625
3.85273e-05
0.000529519
4.19238e-05
0.000557148
4.59654e-05
0.000582762
5.09977e-05
0.000606586
5.74094e-05
0.000628766
6.56256e-05
0.000649322
7.61032e-05
0.000668112
8.93284e-05
0.00068479
0.000105816
0.000698787
0.000126109
0.000709286
0.000150784
0.000715211
0.00018045
0.000715221
0.000215758
0.000707716
0.000257401
0.000690858
0.000306124
0.000662646
0.000362696
0.000621128
0.000427798
0.000564825
0.000494102
0.000501735
8.11791e-07
2.41292e-05
2.93648e-06
7.14032e-05
6.13715e-06
0.000119242
1.01834e-05
0.000167145
1.48555e-05
0.000214561
1.99529e-05
0.000260934
2.53048e-05
0.000305738
3.07803e-05
0.000348517
3.62984e-05
0.000388904
4.18369e-05
0.000426652
4.74389e-05
0.000461635
5.32166e-05
0.000493848
5.93517e-05
0.000523384
6.60934e-05
0.000550406
7.37529e-05
0.000575103
8.26975e-05
0.000597642
9.33428e-05
0.00061812
0.000106146
0.000636519
0.000121599
0.000652659
0.000140226
0.000666164
0.000162576
0.000676436
0.000189229
0.000682633
0.000220789
0.000683651
0.000257889
0.000678121
0.000301196
0.000664409
0.000351415
0.000640639
0.000409308
0.000604754
0.000475689
0.000554746
0.000551327
0.000489187
0.000408715
0.000636714
9.14706e-07
2.32144e-05
3.34947e-06
6.89684e-05
7.07923e-06
0.000115512
1.18856e-05
0.000162339
1.75595e-05
0.000208887
2.39088e-05
0.000254584
3.07686e-05
0.000298879
3.80107e-05
0.000341275
4.55549e-05
0.00038136
5.33784e-05
0.000418828
6.15234e-05
0.00045349
7.01026e-05
0.000485268
7.9301e-05
0.000514186
8.93745e-05
0.000540333
0.000100647
0.000563831
0.000113501
0.000584787
0.000128377
0.000603245
0.000145757
0.000619139
0.000166165
0.000632251
0.000190155
0.000642174
0.00021831
0.000648281
0.000251237
0.000649706
0.000289566
0.000645322
0.00033395
0.000633737
0.000385066
0.000613293
0.000443628
0.000582077
0.000510404
0.000537978
0.000586247
0.000478903
0.000672017
0.000403416
0.000312265
0.000768468
9.9767e-07
2.22168e-05
3.6902e-06
6.62759e-05
7.87031e-06
0.000111332
1.33377e-05
0.000156871
1.99e-05
0.000202325
2.73799e-05
0.000247104
3.56235e-05
0.000290635
4.4511e-05
0.000332387
5.39671e-05
0.000371904
6.39716e-05
0.000408824
7.45678e-05
0.000442894
8.58694e-05
0.000473967
9.80637e-05
0.000501991
0.000111411
0.000526985
0.000126245
0.000548998
0.00014296
0.000568071
0.000162013
0.000584191
0.00018391
0.000597242
0.000209197
0.000606964
0.000238457
0.000612915
0.000272298
0.00061444
0.000311354
0.000610649
0.000356278
0.000600399
0.000407738
0.000582277
0.000466426
0.000554605
0.000533061
0.000515442
0.000608418
0.000462621
0.000693388
0.000393934
0.000788923
0.000307881
0.000205052
0.000896136
1.05946e-06
2.11573e-05
3.95344e-06
6.33819e-05
8.49796e-06
0.000106787
1.45164e-05
0.000150853
2.18391e-05
0.000195002
3.03088e-05
0.000238635
3.97889e-05
0.000281155
5.01728e-05
0.000322003
6.13949e-05
0.000360682
7.34408e-05
0.000396778
8.63577e-05
0.000429977
0.000100261
0.000460063
0.00011534
0.000486912
0.000131859
0.000510466
0.000150155
0.000530702
0.000170634
0.000547593
0.000193763
0.000561062
0.000220065
0.000570941
0.000250106
0.000576923
0.000284489
0.000578531
0.000323848
0.000575081
0.000368838
0.00056566
0.000420132
0.000549104
0.000478421
0.000523988
0.000544412
0.000488614
0.000618838
0.000441015
0.000702492
0.000378967
0.000796305
0.000300122
0.000901325
0.00020286
8.7218e-05
0.00101916
1.09921e-06
2.00581e-05
4.13537e-06
6.03458e-05
8.95277e-06
0.00010197
1.54036e-05
0.000144402
2.33461e-05
0.00018706
3.26487e-05
0.000229332
4.31972e-05
0.000270607
5.49034e-05
0.000310297
6.77158e-05
0.000347869
8.16302e-05
0.000382864
9.66999e-05
0.000414907
0.000113044
0.000443719
0.000130854
0.000469102
0.000150396
0.000490924
0.000172011
0.000509087
0.000196109
0.000523495
0.000223165
0.000534005
0.000253715
0.000540391
0.000288338
0.0005423
0.000327656
0.000539213
0.000372322
0.000530415
0.000423012
0.000514969
0.000480425
0.000491691
0.000545275
0.000459139
0.000618296
0.000415593
0.000700255
0.000359056
0.000791977
0.000287246
0.000894455
0.000197643
0.00100883
8.84864e-05
-4.13303e-05
0.00113738
1.11644e-06
1.89417e-05
4.23365e-06
5.72286e-05
9.22863e-06
9.69749e-05
1.59869e-05
0.000137644
2.43993e-05
0.000178647
3.43648e-05
0.000219367
4.57964e-05
0.000259175
5.86293e-05
0.000297464
7.28307e-05
0.000333668
8.84102e-05
0.000367284
0.000105431
0.000397887
0.000124017
0.000425132
0.000144364
0.000448755
0.000166739
0.000468549
0.000191485
0.000484342
0.000219014
0.000495966
0.000249808
0.000503211
0.000284407
0.000505792
0.000323404
0.000503303
0.000367435
0.000495182
0.000417172
0.000480678
0.000473316
0.000458825
0.000536592
0.000428415
0.000607751
0.00038798
0.000687572
0.000335772
0.000776878
0.00026975
0.000876557
0.000187567
0.000987698
8.65019e-05
0.00111152
-3.53354e-05
-0.000180981
0.00125117
1.11108e-06
1.78306e-05
4.24754e-06
5.40921e-05
9.32301e-06
9.18994e-05
1.62603e-05
0.000130706
2.49867e-05
0.000169921
3.54361e-05
0.000208917
4.75532e-05
0.000247058
6.13008e-05
0.000283717
7.66689e-05
0.0003183
9.36852e-05
0.000350268
0.000112425
0.000379146
0.000133023
0.000404535
0.000155678
0.0004261
0.00018066
0.000443567
0.000208311
0.000456691
0.000239048
0.000465229
0.000273354
0.000468905
0.000311776
0.00046737
0.000354916
0.000460163
0.000403426
0.000446672
0.000457998
0.000426106
0.000519364
0.00039746
0.000588287
0.000359492
0.000665572
0.000310695
0.000752065
0.000249278
0.00084868
0.000173136
0.000956407
7.98394e-05
0.00107647
-3.35649e-05
0.00121014
-0.000169001
-0.000332452
0.00136161
1.08345e-06
1.67471e-05
4.17798e-06
5.09976e-05
9.23728e-06
8.68401e-05
1.62247e-05
0.000123719
2.51075e-05
0.000161038
3.58578e-05
0.000198167
4.84557e-05
0.00023446
6.28956e-05
0.000269277
7.91944e-05
0.000302001
9.74016e-05
0.000332061
0.000117609
0.000358938
0.000139963
0.000382181
0.00016467
0.000401394
0.000192003
0.000416233
0.00022231
0.000426384
0.000256006
0.000431532
0.000293581
0.000431331
0.000335587
0.000425364
0.000382639
0.00041311
0.000435408
0.000393903
0.000494616
0.000366898
0.000561033
0.000331042
0.000635483
0.000285042
0.000718845
0.000227334
0.000812068
0.000156055
0.000916191
6.90124e-05
0.00103235
-3.63225e-05
0.00116196
-0.000163168
0.00130623
-0.000313279
-0.000496775
0.00147056
1.03432e-06
1.57128e-05
4.02777e-06
4.80041e-05
8.97706e-06
8.18908e-05
1.58887e-05
0.000116807
2.47729e-05
0.000152154
3.56425e-05
0.000187297
4.85163e-05
0.000221586
6.34234e-05
0.000254369
8.04114e-05
0.000285013
9.95551e-05
0.000312917
0.000120967
0.000337526
0.000144809
0.000358339
0.000171297
0.000374905
0.000200715
0.000386816
0.000233413
0.000393686
0.000269815
0.00039513
0.000310416
0.00039073
0.000355782
0.000379999
0.000406546
0.000362346
0.000463409
0.00033704
0.000527135
0.000303173
0.000598555
0.000259622
0.000678574
0.000205022
0.000768181
0.000137727
0.000868462
5.57743e-05
0.000980623
-4.31489e-05
0.00110598
-0.000161679
0.00124612
-0.000303313
0.00140217
-0.000469327
-0.000675208
0.00158061
9.6497e-07
1.47478e-05
3.80173e-06
4.51674e-05
8.55263e-06
7.71399e-05
1.52697e-05
0.00011009
2.40076e-05
0.000143416
3.48227e-05
0.000176482
4.77746e-05
0.000208634
6.29301e-05
0.000239214
8.03703e-05
0.000267573
0.0001002
0.000293088
0.000122555
0.000315171
0.000147618
0.000333277
0.000175621
0.000346902
0.000206859
0.000355577
0.000241697
0.000358849
0.000280568
0.000356259
0.000323986
0.000347313
0.000372536
0.000331448
0.000426885
0.000307997
0.000487779
0.000276146
0.000556047
0.000234905
0.000632606
0.000183063
0.000718476
0.000119152
0.000814788
4.14148e-05
0.0009228
-5.22373e-05
0.00104391
-0.000164258
0.00117961
-0.00029738
0.00133165
-0.000455359
0.0015009
-0.00063857
-0.000868991
0.00169468
8.77227e-07
1.38706e-05
3.50694e-06
4.25376e-05
7.97939e-06
7.26675e-05
1.43937e-05
0.000103676
2.2851e-05
0.000134959
3.34524e-05
0.000165881
4.63001e-05
0.000195787
6.15011e-05
0.000224013
7.91732e-05
0.000249901
9.94538e-05
0.000272807
0.000122509
0.000292115
0.000148546
0.00030724
0.000177819
0.000317629
0.000210644
0.000322751
0.000247406
0.000322087
0.000288563
0.000315102
0.000334654
0.000301221
0.000386306
0.000279797
0.000444235
0.000250067
0.000509257
0.000211125
0.000582292
0.00016187
0.000664378
0.000100977
0.000756679
2.68506e-05
0.0008605
-6.24066e-05
0.000977285
-0.000169022
0.00110861
-0.000295586
0.00125612
-0.000444885
0.0014216
-0.000620837
0.00160547
-0.000822446
-0.0010786
0.00181508
7.73557e-07
1.30971e-05
3.15292e-06
4.01583e-05
7.27825e-06
6.85422e-05
1.32972e-05
9.7657e-05
2.13581e-05
0.000126898
3.16082e-05
0.000155631
4.4194e-05
0.000183201
5.92646e-05
0.000208942
7.69778e-05
0.000232188
9.75078e-05
0.000252277
0.000121056
0.000268567
0.00014786
0.000280437
0.000178206
0.000287282
0.000212442
0.000288516
0.000250984
0.000283545
0.000294329
0.000271757
0.000343063
0.000252488
0.000397871
0.000224988
0.000459548
0.00018839
0.000529007
0.000141666
0.000607291
8.35861e-05
0.000695584
1.26837e-05
0.000795226
-7.27912e-05
0.000907697
-0.000174878
0.00103461
-0.000295938
0.00117767
-0.000438646
0.00133853
-0.000605741
0.00151879
-0.0008011
0.00171829
-0.00102195
-0.00130433
0.00194403
6.57125e-07
1.24399e-05
2.75185e-06
3.80636e-05
6.47591e-06
6.48181e-05
1.20264e-05
9.21065e-05
1.95999e-05
0.000119324
2.93905e-05
0.00014584
4.15903e-05
0.000171001
5.63931e-05
0.00019414
7.39996e-05
0.000214581
9.46261e-05
0.00023165
0.000118514
0.000244679
0.000145943
0.000253008
0.000177241
0.000255985
0.000212798
0.000252959
0.00025308
0.000243263
0.000298642
0.000226195
0.000350141
0.000200989
0.000408345
0.000166783
0.000474156
0.00012258
0.000548612
6.72095e-05
0.000632905
-7.06796e-07
0.000728391
-8.28023e-05
0.000836571
-0.000180971
0.000959085
-0.000297392
0.00109765
-0.000434498
0.00125394
-0.000594936
0.00142944
-0.000781247
0.00162527
-0.00099693
0.00184046
-0.00123713
-0.00154386
0.00207998
5.31827e-07
1.19081e-05
2.3186e-06
3.62768e-05
5.60493e-06
6.15318e-05
1.06381e-05
8.70734e-05
1.76634e-05
0.000112299
2.69228e-05
0.000136581
3.86557e-05
0.000159268
5.31028e-05
0.000179693
7.05119e-05
0.000197172
9.11468e-05
0.000211015
0.000115298
0.000220528
0.000143296
0.00022501
0.000175523
0.000223758
0.000212429
0.000216052
0.000254551
0.000201141
0.000302522
0.000178224
0.000357094
0.000146418
0.000419149
0.000104728
0.000489719
5.20106e-05
0.00056999
-1.30624e-05
0.00066132
-9.20365e-05
0.000765215
-0.000186697
0.000883316
-0.000299072
0.00101733
-0.000431409
0.00116894
-0.000586105
0.0013396
-0.000765597
0.00153038
-0.000972023
0.00174151
-0.00120806
0.00197118
-0.0014668
-0.00179416
0.00222148
4.02285e-07
1.15058e-05
1.87062e-06
3.48084e-05
4.70333e-06
5.86991e-05
9.19834e-06
8.25783e-05
1.56504e-05
0.000105847
2.43502e-05
0.000127881
3.55863e-05
0.000148032
4.96496e-05
0.000165629
6.684e-05
0.000179982
8.74759e-05
0.00019038
0.000111906
0.000196098
0.000140523
0.000196393
0.000173781
0.000190501
0.000212208
0.000177624
0.000256431
0.000156919
0.000307187
0.000127468
0.000365347
8.82576e-05
0.000431929
3.81453e-05
0.000508113
-2.4173e-05
0.000595241
-0.00010019
0.000694811
-0.000191607
0.000808447
-0.000300333
0.000937833
-0.000428458
0.00108461
-0.000578188
0.00125022
-0.000751714
0.00143564
-0.000951018
0.00164123
-0.00117761
0.00186605
-0.00143288
0.00210758
-0.00170832
-0.00205104
0.00236446
2.7375e-07
1.12321e-05
1.42753e-06
3.36547e-05
3.81371e-06
5.63129e-05
7.78113e-06
7.86109e-05
1.36745e-05
9.99536e-05
2.18348e-05
0.000119721
3.26023e-05
0.000137264
4.63221e-05
0.000151909
6.3352e-05
0.000162952
8.40733e-05
0.000169658
0.000108904
0.000171267
0.000138314
0.000166983
0.000172842
0.000155972
0.000213118
0.000137349
0.000259877
0.00011016
0.000313982
7.33622e-05
0.000376443
2.57968e-05
0.000448424
-3.38362e-05
0.000531252
-0.000107001
0.000626402
-0.00019534
0.000735465
-0.00030067
0.000860086
-0.000424953
0.00100185
-0.000570226
0.00116215
-0.000738481
0.00134192
-0.00093149
0.00154141
-0.00115051
0.00176001
-0.00139621
0.00199538
-0.00166826
0.00224443
-0.00195737
-0.00230847
0.00250186
1.51935e-07
1.10801e-05
1.01048e-06
3.27961e-05
2.98174e-06
5.43416e-05
6.46555e-06
7.51271e-05
1.18574e-05
9.45617e-05
1.95503e-05
0.000112028
2.99396e-05
0.000126875
4.34293e-05
0.00013842
6.04425e-05
0.000145939
8.14325e-05
0.000148668
0.000106898
0.000145801
0.000137402
0.00013648
0.000173585
0.000119789
0.000216192
9.47418e-05
0.000266087
6.02644e-05
0.000324274
1.51752e-05
0.000391906
-4.18345e-05
0.000470287
-0.000112218
0.000560865
-0.000197579
0.00066519
-0.000299666
0.000784855
-0.000420335
0.000921387
-0.000561485
0.00107609
-0.000724932
0.00124986
-0.000912252
0.00144293
-0.00112455
0.00165455
-0.00136213
0.00188295
-0.00162461
0.00212442
-0.00190973
0.0023755
-0.00220845
-0.00256012
0.00262716
4.27491e-08
1.10374e-05
6.41147e-07
3.21977e-05
2.25411e-06
5.27287e-05
5.33229e-06
7.20489e-05
1.03229e-05
8.95711e-05
1.76735e-05
0.000104677
2.78381e-05
0.000116711
4.12858e-05
0.000124972
5.85123e-05
0.000128712
8.00532e-05
0.000127127
0.000106501
0.000119354
0.000138521
0.00010446
0.000176874
8.14357e-05
0.000222433
4.91827e-05
0.000276201
6.49685e-06
0.00033932
-4.79443e-05
0.000413078
-0.000115592
0.000498889
-0.000198029
0.000598263
-0.000296952
0.000712735
-0.000414138
0.000843765
-0.000551366
0.000992591
-0.00071031
0.00116003
-0.000892375
0.00134627
-0.00109849
0.0015506
-0.00132888
0.00177119
-0.00158272
0.00200502
-0.00185845
0.0022473
-0.00215201
0.00249441
-0.00245556
-0.00280002
0.0027343
-4.81148e-08
1.10855e-05
3.40523e-07
3.18091e-05
1.67592e-06
5.13932e-05
4.4592e-06
6.92657e-05
9.19052e-06
8.48398e-05
1.63746e-05
9.7493e-05
2.65286e-05
0.000106557
4.01929e-05
0.000111308
5.79439e-05
0.000110961
8.0409e-05
0.000104662
0.000108284
9.14787e-05
0.000142351
7.03925e-05
0.000183497
4.02897e-05
0.000232729
-4.94312e-08
0.000291185
-5.19594e-05
0.000360135
-0.000116894
0.000440965
-0.000196422
0.000535143
-0.000292206
0.000644151
-0.00040596
0.000769386
-0.000539373
0.000912019
-0.000693999
0.00107281
-0.000871101
0.0012519
-0.00107146
0.00144857
-0.00129517
0.00166108
-0.00154139
0.00188648
-0.00180812
0.00212066
-0.00209263
0.0023582
-0.00238955
0.00259544
-0.0026928
-0.00302308
0.00281851
-1.15349e-07
1.12009e-05
1.27653e-07
3.15661e-05
1.28801e-06
5.02329e-05
3.91668e-06
6.6637e-05
8.56808e-06
8.01884e-05
1.5807e-05
9.02541e-05
2.62184e-05
9.61451e-05
4.042e-05
9.71061e-05
5.90762e-05
9.23049e-05
8.29143e-05
8.08241e-05
0.000112742
6.16513e-05
0.000149463
3.36717e-05
0.000194092
-4.34001e-06
0.000247767
-5.3724e-05
0.000311743
-0.000115935
0.000387381
-0.000192533
0.000476113
-0.000285154
0.000579375
-0.000395468
0.000698509
-0.000525094
0.000834631
-0.000675495
0.000988455
-0.000847823
0.00116009
-0.00104274
0.00134885
-0.00126022
0.00155303
-0.00149934
0.00176981
-0.00175817
0.00199532
-0.00203363
0.00222455
-0.00232185
0.00245216
-0.00261716
0.00267427
-0.00291491
-0.00322549
0.00287667
-1.54656e-07
1.13555e-05
1.88381e-08
3.13926e-05
1.12426e-06
4.91275e-05
3.7631e-06
6.39981e-05
8.54499e-06
7.54065e-05
1.60976e-05
8.27015e-05
2.70779e-05
8.51648e-05
4.21862e-05
8.19977e-05
6.2181e-05
7.23102e-05
8.78947e-05
5.51104e-05
0.00012025
2.92963e-05
0.000160271
-6.34992e-06
0.000209096
-5.31647e-05
0.00026797
-0.000112598
0.000338235
-0.0001862
0.000421292
-0.000275589
0.000518538
-0.0003824
0.000631275
-0.000508205
0.000760578
-0.000654397
0.000907132
-0.000822049
0.00107104
-0.00101174
0.00125165
-0.00122334
0.00144733
-0.0014559
0.00165542
-0.00170743
0.00187217
-0.00197492
0.00209298
-0.00225443
0.00231237
-0.00254125
0.00252559
-0.00283037
0.00272825
-0.00311757
-0.00340459
0.00290735
-1.63168e-07
1.15187e-05
2.43474e-08
3.12051e-05
1.20898e-06
4.79428e-05
4.04109e-06
6.1166e-05
9.18667e-06
7.0261e-05
1.73387e-05
7.45495e-05
2.92298e-05
7.32736e-05
4.56468e-05
6.55808e-05
6.74451e-05
5.05118e-05
9.55641e-05
2.69914e-05
0.000131039
-6.17814e-06
0.000175006
-5.03177e-05
0.000228706
-0.000106865
0.000293464
-0.000177356
0.000370657
-0.000263393
0.000461654
-0.000366586
0.000567727
-0.000488474
0.000689929
-0.000630407
0.000828937
-0.000793405
0.000984873
-0.000977985
0.00115712
-0.00118399
0.00134417
-0.00141039
0.0015435
-0.00165523
0.00175157
-0.00191551
0.00196398
-0.00218733
0.00217572
-0.00246618
0.00238139
-0.00274692
0.00257668
-0.00302567
0.00275572
-0.00329661
-0.00356147
0.00291261
-1.3932e-07
1.1658e-05
1.50302e-07
3.09155e-05
1.55613e-06
4.6537e-05
4.77533e-06
5.79468e-05
1.05311e-05
6.45052e-05
1.95835e-05
6.54971e-05
3.2743e-05
6.01141e-05
5.08843e-05
4.74395e-05
7.49603e-05
2.64358e-05
0.000106013
-4.06166e-06
0.000145182
-4.53466e-05
0.000193698
-9.88342e-05
0.000252875
-0.000166042
0.000324072
-0.000248553
0.000408639
-0.00034796
0.000507832
-0.000465779
0.000622696
-0.000603338
0.000753919
-0.000761629
0.00090166
-0.000941146
0.00106538
-0.0011417
0.00124368
-0.00136228
0.0014342
-0.00160091
0.00163362
-0.00185465
0.00183777
-0.00211966
0.00204189
-0.00239145
0.002241
-0.00266529
0.00243033
-0.00293625
0.00260626
-0.0032016
0.00276339
-0.00345374
-0.00370374
0.00290566
-8.29214e-08
1.17409e-05
3.98861e-07
3.04337e-05
2.16905e-06
4.47668e-05
5.97195e-06
5.41439e-05
1.25878e-05
5.78893e-05
2.28446e-05
5.52403e-05
3.76307e-05
4.5328e-05
5.7908e-05
2.71622e-05
8.47226e-05
-3.7879e-07
0.000119211
-3.85502e-05
0.000162599
-8.87347e-05
0.000216188
-0.000152423
0.000281324
-0.000231178
0.000359345
-0.000326574
0.000451502
-0.000440117
0.000558847
-0.000573124
0.000682095
-0.000726586
0.000821465
-0.000900999
0.000976507
-0.00109619
0.00114596
-0.00131115
0.00132764
-0.00154396
0.00151843
-0.00179171
0.00171442
-0.00205063
0.00191107
-0.00231631
0.00210363
-0.00258401
0.00228756
-0.00284922
0.002459
-0.00310769
0.00261488
-0.00335748
0.00275381
-0.00359267
-0.00382664
0.0028767
5.39471e-09
1.17355e-05
7.65766e-07
2.96733e-05
3.04048e-06
4.24921e-05
7.61961e-06
4.95648e-05
1.53401e-05
5.01689e-05
2.70969e-05
4.34835e-05
4.38549e-05
2.857e-05
6.66589e-05
4.35812e-06
9.66402e-05
-3.03601e-05
0.000135015
-7.69253e-05
0.000183074
-0.000136793
0.000242152
-0.000211501
0.00031358
-0.000302606
0.000398612
-0.000411606
0.00049832
-0.000539824
0.000613462
-0.000688266
0.00074433
-0.000857454
0.000890585
-0.00104725
0.00105111
-0.00125672
0.00122393
-0.00148397
0.00140613
-0.00172616
0.00159402
-0.0019796
0.00178331
-0.00223992
0.00196945
-0.00250245
0.00214804
-0.00276261
0.00231529
-0.00301646
0.00246837
-0.00326077
0.00260541
-0.00349452
0.00272629
-0.00371355
-0.00393163
0.00283129
1.21721e-07
1.16138e-05
1.24283e-06
2.85522e-05
4.15466e-06
3.95803e-05
9.69234e-06
4.40271e-05
1.87485e-05
4.11128e-05
3.22832e-05
2.99487e-05
5.1334e-05
9.51926e-06
7.70214e-05
-2.13293e-05
0.000110549
-6.38879e-05
0.000153194
-0.00011957
0.00020628
-0.00018988
0.000271136
-0.000276356
0.000349023
-0.000380493
0.000441041
-0.000503624
0.000548003
-0.000646786
0.000670287
-0.000810551
0.000807683
-0.000994849
0.00095924
-0.00119881
0.00112317
-0.00142064
0.00129679
-0.00165759
0.00147666
-0.00190603
0.00165868
-0.00216162
0.00183849
-0.00241974
0.00201185
-0.0026758
0.00217499
-0.00292575
0.00232504
-0.00316652
0.00246029
-0.00339601
0.00258001
-0.00361425
0.00268508
-0.00381862
-0.00402288
0.00277633
2.64241e-07
1.13496e-05
1.81965e-06
2.69968e-05
5.48982e-06
3.59101e-05
1.21536e-05
3.73633e-05
2.27574e-05
3.0509e-05
3.83232e-05
1.43828e-05
5.99547e-05
-1.21122e-05
8.88378e-05
-5.02123e-05
0.000126232
-0.000101282
0.00017345
-0.000166788
0.000231815
-0.000248245
0.0003026
-0.000347141
0.000386937
-0.00046483
0.000485702
-0.000602389
0.00059937
-0.000760454
0.000727868
-0.000939048
0.000870423
-0.0011374
0.00102545
-0.00135384
0.00119053
-0.00158572
0.00136241
-0.00182948
0.00153724
-0.00208086
0.00171083
-0.00233521
0.00187902
-0.00258793
0.0020381
-0.00283488
0.00218517
-0.00307282
0.00231836
-0.00329971
0.002437
-0.00351465
0.00254131
-0.00371856
0.00263293
-0.00391023
-0.00410275
0.0027128
4.28946e-07
1.09206e-05
2.48407e-06
2.49417e-05
7.02088e-06
3.13733e-05
1.49609e-05
2.94233e-05
2.73016e-05
1.81682e-05
4.51221e-05
-3.43761e-06
6.95838e-05
-3.65739e-05
0.000101924
-8.25529e-05
0.000143439
-0.000142797
0.000195445
-0.000218794
0.000259227
-0.000312026
0.000335949
-0.000423864
0.000426552
-0.000555433
0.000531616
-0.000707453
0.000651212
-0.000880051
0.000784756
-0.00107259
0.000930888
-0.00128354
0.00108742
-0.00151037
0.00125135
-0.00174965
0.00141905
-0.00199717
0.00158648
-0.00224829
0.00174959
-0.00249832
0.00190469
-0.00274302
0.00204879
-0.00297899
0.00217994
-0.00320396
0.00229723
-0.00341701
0.00240089
-0.0036183
0.00249187
-0.00380954
0.00257222
-0.00399059
-0.00417352
0.00264299
6.12448e-07
1.03082e-05
3.22395e-06
2.23302e-05
8.72213e-06
2.58751e-05
1.80698e-05
2.00757e-05
3.23123e-05
3.92569e-06
5.25792e-05
-2.37045e-05
8.00792e-05
-6.40739e-05
0.000116085
-0.000118559
0.000161903
-0.000188615
0.000218823
-0.000275714
0.000288042
-0.000381245
0.000370565
-0.000506387
0.000467077
-0.000651945
0.000577798
-0.000818174
0.000702338
-0.00100459
0.000839569
-0.00120982
0.00098755
-0.00143152
0.00114354
-0.00166636
0.00130413
-0.00191024
0.00146546
-0.0021585
0.00162355
-0.00240639
0.00177473
-0.0026495
0.00191594
-0.00288423
0.00204506
-0.0031081
0.00216102
-0.00331992
0.0022638
-0.00351979
0.0023543
-0.00370881
0.00243398
-0.00388922
0.00250505
-0.00406165
-0.00423699
0.00256851
8.11741e-07
9.49643e-06
4.0282e-06
1.91137e-05
1.05695e-05
1.93338e-05
2.1438e-05
9.20712e-06
3.77227e-05
-1.2359e-05
6.05956e-05
-4.65774e-05
9.12995e-05
-9.47779e-05
0.000131123
-0.000158382
0.000181355
-0.000238847
0.000243219
-0.000337578
0.00031778
-0.000455806
0.000405825
-0.000594432
0.000507725
-0.000753845
0.000623284
-0.000933733
0.000751611
-0.00113292
0.00089103
-0.00134924
0.00103907
-0.00157955
0.00119254
-0.00181984
0.00134776
-0.00206547
0.00150088
-0.00231161
0.00164819
-0.0025537
0.00178658
-0.00278788
0.00191374
-0.00301139
0.0020284
-0.00322277
0.00213033
-0.00342186
0.00222021
-0.00360967
0.00229941
-0.003788
0.00236964
-0.00395945
0.00243309
-0.00412511
-0.00429457
0.00249068
1.02443e-06
8.472e-06
4.88749e-06
1.52506e-05
1.2542e-05
1.16793e-05
2.50276e-05
-3.27847e-06
4.34712e-05
-3.08026e-05
6.90776e-05
-7.21838e-05
0.000103108
-0.000128809
0.000146845
-0.000202118
0.000201527
-0.000293529
0.000268273
-0.000404324
0.000347965
-0.000535498
0.000441116
-0.000687583
0.000547728
-0.000860457
0.00066715
-0.00105315
0.000797975
-0.00126374
0.000938005
-0.00148927
0.00108431
-0.00172586
0.00123341
-0.00196893
0.00138153
-0.00221359
0.00152502
-0.00245509
0.00166063
-0.00268931
0.00178591
-0.00291316
0.00189936
-0.00312485
0.00200051
-0.00332392
0.00208982
-0.00351116
0.00216846
-0.00368831
0.00223808
-0.00385763
0.00230047
-0.00402185
0.0023577
-0.00418233
-0.00434736
0.00241049
1.24881e-06
7.22319e-06
5.79459e-06
1.07049e-05
1.46223e-05
2.85167e-06
2.88056e-05
-1.74618e-05
4.95025e-05
-5.14996e-05
7.7939e-05
-0.00010062
0.000115377
-0.000166247
0.000163065
-0.000249806
0.000222161
-0.000352625
0.000293631
-0.000475794
0.000378126
-0.000619992
0.000475835
-0.000785293
0.000586348
-0.000970969
0.000708532
-0.00117534
0.000840479
-0.00139569
0.000979528
-0.00162832
0.00112241
-0.00186874
0.00126549
-0.00211201
0.00140512
-0.00235322
0.00153799
-0.00258796
0.00166146
-0.00281279
0.00177381
-0.00302551
0.0018743
-0.00322533
0.00196313
-0.00341276
0.0020413
-0.00358933
0.00211029
-0.0037573
0.00217188
-0.00391921
0.0022278
-0.00407777
0.00227988
-0.00423441
-0.00439615
0.00232867
1.48384e-06
5.73935e-06
6.74422e-06
5.44448e-06
1.67967e-05
-7.20077e-06
3.27443e-05
-3.34094e-05
5.57678e-05
-7.4523e-05
8.71001e-05
-0.000131953
0.000127984
-0.000207131
0.000179604
-0.000301427
0.000243
-0.000416021
0.000318942