/*--------------------------------*- C++ -*----------------------------------*\
  =========                 |
  \\      /  F ield         | OpenFOAM: The Open Source CFD Toolbox
   \\    /   O peration     | Website:  https://openfoam.org
    \\  /    A nd           | Version:  7
     \\/     M anipulation  |
\*---------------------------------------------------------------------------*/
FoamFile
{
    version     2.0;
    format      ascii;
    class       volVectorField;
    location    "97";
    object      U;
}
// * * * * * * * * * * * * * * * * * * * * * * * * * * * * * * * * * * * * * //

dimensions      [0 1 -1 0 0 0 0];

internalField   nonuniform List<vector> 
40000
(
(-0.000371699 0.0205669 -2.90276e-21)
(-0.00147513 0.0572012 8.99232e-21)
(-0.00336877 0.0902012 -5.71839e-21)
(-0.00598585 0.119504 -2.48631e-24)
(-0.00931479 0.145088 -1.75629e-23)
(-0.0133524 0.167008 1.86198e-24)
(-0.0180711 0.185404 -9.47504e-21)
(-0.0234223 0.200501 2.24881e-21)
(-0.0293399 0.212597 -6.44102e-21)
(-0.0357424 0.222055 -2.03039e-21)
(-0.042537 0.229279 0)
(-0.0496238 0.234688 -7.34934e-21)
(-0.0569002 0.23869 0)
(-0.0642651 0.24166 0)
(-0.0716223 0.243913 -6.27881e-21)
(-0.0788825 0.245696 5.95658e-21)
(-0.0859646 0.247176 -2.8227e-21)
(-0.0927951 0.248438 -1.77329e-23)
(-0.0993074 0.249488 2.52249e-21)
(-0.10544 0.25026 0)
(-0.111134 0.250629 -2.28962e-21)
(-0.116331 0.250413 -6.55445e-21)
(-0.120972 0.249389 8.27272e-21)
(-0.124998 0.247296 -3.9259e-21)
(-0.128343 0.243844 1.11643e-20)
(-0.130944 0.238719 7.11914e-21)
(-0.132739 0.231594 -1.3559e-20)
(-0.13367 0.222128 1.29194e-20)
(-0.133679 0.209971 -3.06541e-21)
(-0.132812 0.194784 -5.96275e-21)
(-0.000877301 0.0208571 0)
(-0.00274131 0.0581037 6.09175e-21)
(-0.00506465 0.0917515 1.15243e-20)
(-0.00785059 0.121726 -1.09981e-20)
(-0.0111296 0.147987 -5.26752e-21)
(-0.0149289 0.17057 2.00286e-20)
(-0.0192519 0.189593 -4.77845e-21)
(-0.0240788 0.205258 -9.09064e-21)
(-0.0293695 0.21785 -8.20839e-23)
(-0.0350653 0.227716 -2.45887e-20)
(-0.0410921 0.235251 7.75814e-21)
(-0.0473644 0.24087 2.9522e-20)
(-0.0537897 0.244982 -1.39964e-20)
(-0.0602725 0.247966 -2.74176e-23)
(-0.0667178 0.250145 -6.39601e-21)
(-0.0730337 0.251776 6.35225e-24)
(-0.0791328 0.253035 0)
(-0.084933 0.254014 0)
(-0.0903563 0.254729 2.05352e-20)
(-0.0953282 0.25512 0)
(-0.099775 0.255062 9.26886e-21)
(-0.103623 0.254378 -8.8195e-21)
(-0.106795 0.252844 7.03549e-24)
(-0.109212 0.250198 0)
(-0.11079 0.24615 1.53297e-20)
(-0.111443 0.240388 -1.42489e-20)
(-0.111093 0.23259 1.35585e-20)
(-0.109671 0.222432 -1.29189e-20)
(-0.107104 0.209595 1.25935e-20)
(-0.103397 0.193836 -3.62398e-20)
(-0.00138945 0.0209912 -1.18459e-20)
(-0.00403163 0.0586003 -1.2093e-20)
(-0.00680421 0.0927023 0)
(-0.00977694 0.123203 0)
(-0.0130189 0.150038 0)
(-0.0165855 0.173218 1.01543e-20)
(-0.0205081 0.192832 0)
(-0.0247946 0.209058 9.08226e-21)
(-0.02943 0.222155 1.72659e-20)
(-0.0343775 0.232452 1.64032e-20)
(-0.039582 0.240329 0)
(-0.0449726 0.246193 8.60347e-23)
(-0.0504674 0.250449 -2.8242e-20)
(-0.0559768 0.253477 2.68092e-20)
(-0.0614074 0.255606 1.26437e-20)
(-0.066665 0.2571 1.20806e-20)
(-0.0716562 0.258144 -1.13944e-20)
(-0.07629 0.25884 2.17932e-20)
(-0.080477 0.25921 -4.12424e-20)
(-0.0841295 0.259202 1.74644e-23)
(-0.0871591 0.258696 -3.72562e-20)
(-0.0894759 0.257515 3.56402e-20)
(-0.0909867 0.255436 0)
(-0.091594 0.252198 0)
(-0.091196 0.247511 1.56598e-20)
(-0.089689 0.241067 0)
(-0.0869772 0.232551 0)
(-0.0829845 0.221661 0)
(-0.0776093 0.208119 -2.57708e-20)
(-0.0707931 0.191787 2.41435e-20)
(-0.00189751 0.0209708 1.18459e-20)
(-0.00532019 0.0586925 -8.22594e-23)
(-0.00855306 0.0930508 1.6927e-24)
(-0.0117274 0.123925 -2.23612e-20)
(-0.0149463 0.151224 -2.1255e-20)
(-0.0182893 0.174924 6.29956e-23)
(-0.0218134 0.195085 -3.85837e-20)
(-0.0255514 0.211853 1.83709e-20)
(-0.0295115 0.225457 -3.4918e-20)
(-0.0336783 0.236202 3.31703e-20)
(-0.0380149 0.244448 -1.57303e-20)
(-0.0424653 0.250588 2.99307e-20)
(-0.0469584 0.25502 2.82414e-20)
(-0.0514113 0.258121 1.50579e-22)
(-0.0557328 0.260224 -2.55979e-20)
(-0.0598268 0.261597 0)
(-0.0635947 0.262434 -1.95499e-23)
(-0.0669367 0.262847 2.19621e-20)
(-0.0697528 0.262865 1.37461e-23)
(-0.0719422 0.262444 -1.97555e-22)
(-0.0734028 0.261469 3.74244e-20)
(-0.0740297 0.259766 -3.5639e-20)
(-0.0737144 0.257114 0)
(-0.0723439 0.253252 3.27395e-20)
(-0.0698011 0.247892 4.98227e-22)
(-0.0659668 0.24073 -8.92946e-20)
(-0.0607317 0.231462 2.81098e-20)
(-0.0540149 0.219807 5.47792e-20)
(-0.0456804 0.205536 2.57696e-20)
(-0.0355508 0.188611 2.52854e-20)
(-0.00239091 0.0208006 4.7991e-20)
(-0.00658164 0.0583883 -2.47017e-20)
(-0.0102779 0.0928036 2.35132e-20)
(-0.0136651 0.123894 2.23627e-20)
(-0.0168755 0.151536 0)
(-0.0200084 0.175672 -4.08253e-20)
(-0.0231422 0.196326 -1.95218e-20)
(-0.0263316 0.213606 -3.68726e-20)
(-0.0296058 0.22771 1.74206e-20)
(-0.0329692 0.238912 1.6217e-22)
(-0.0364023 0.247547 3.16525e-20)
(-0.0398639 0.25399 3.01802e-20)
(-0.0432939 0.258627 -5.69473e-20)
(-0.0466166 0.261829 2.71054e-20)
(-0.049744 0.263929 -1.32089e-22)
(-0.0525792 0.265199 0)
(-0.0550191 0.265839 -2.30923e-20)
(-0.0569562 0.265971 -4.41555e-20)
(-0.0582807 0.265633 6.30469e-20)
(-0.0588799 0.264788 2.01619e-20)
(-0.0586391 0.263328 0)
(-0.0574401 0.261084 -3.62931e-20)
(-0.0551612 0.257838 0)
(-0.0516768 0.25333 -9.90218e-20)
(-0.0468577 0.247275 6.29269e-20)
(-0.0405728 0.239372 1.02771e-22)
(-0.0327023 0.229329 5.79562e-20)
(-0.0231658 0.216887 -8.26971e-20)
(-0.0118035 0.201869 5.26584e-20)
(0.00169141 0.184367 2.50943e-20)
(-0.00286031 0.0204877 -2.40275e-20)
(-0.00779243 0.0577024 2.47856e-20)
(-0.0119469 0.0919772 -7.14e-23)
(-0.0155551 0.123124 -6.78e-20)
(-0.0187723 0.150982 0)
(-0.0217122 0.17546 4.0825e-20)
(-0.0244702 0.196539 -3.91291e-20)
(-0.0271191 0.214292 7.39414e-20)
(-0.0297065 0.228878 0)
(-0.0322541 0.240536 -3.33314e-20)
(-0.0347589 0.249573 -3.16519e-20)
(-0.0371938 0.25634 -3.00527e-20)
(-0.03951 0.261208 -8.59692e-20)
(-0.0416397 0.264537 2.24374e-24)
(-0.0434991 0.266656 -1.42806e-22)
(-0.0449915 0.26784 -1.71129e-22)
(-0.0460106 0.268297 6.98635e-20)
(-0.046443 0.268153 -2.24633e-22)
(-0.0461698 0.267459 2.29107e-22)
(-0.0450686 0.266185 -4.01181e-20)
(-0.0430134 0.26423 -3.58322e-22)
(-0.039875 0.261433 7.30077e-20)
(-0.0355209 0.257579 -1.04276e-19)
(-0.0298158 0.252414 3.30699e-20)
(-0.022622 0.245654 0)
(-0.0138006 0.237003 0)
(-0.00322572 0.226179 -5.79536e-20)
(0.00917935 0.212943 5.61984e-20)
(0.0236038 0.19718 -5.32859e-20)
(0.0405057 0.179145 0)
(-0.00329719 0.0200417 -2.43458e-20)
(-0.00893119 0.0566562 0)
(-0.0135311 0.0905975 2.37157e-20)
(-0.0173652 0.121638 1.36035e-19)
(-0.0206047 0.149581 -4.32222e-20)
(-0.0233722 0.174295 0)
(-0.0257751 0.195724 -1.68601e-22)
(-0.0279 0.213898 3.71893e-20)
(-0.0298092 0.228935 -3.5313e-20)
(-0.0315396 0.241037 0)
(-0.0331026 0.25048 0)
(-0.0344847 0.257585 -6.05777e-20)
(-0.0356483 0.262703 8.60798e-20)
(-0.0365341 0.266181 -2.72005e-20)
(-0.0370634 0.268343 0)
(-0.0371412 0.269461 4.9389e-20)
(-0.0366598 0.269748 -4.62764e-20)
(-0.0355011 0.269339 4.48073e-20)
(-0.0335398 0.268291 -8.43301e-20)
(-0.0306448 0.266587 -1.20989e-19)
(-0.0266813 0.264135 3.83141e-20)
(-0.0215111 0.260781 3.69542e-20)
(-0.0149938 0.256318 3.50636e-20)
(-0.0069872 0.250494 0)
(0.00265131 0.243032 -6.42559e-20)
(0.0140647 0.233642 0)
(0.0273824 0.222047 0)
(0.0426737 0.208028 -1.12889e-19)
(0.0601491 0.191529 4.66146e-22)
(0.0804937 0.172987 -1.56097e-19)
(-0.00369427 0.0194748 2.43458e-20)
(-0.00997933 0.0552772 5.02237e-20)
(-0.0150051 0.0886994 4.79092e-20)
(-0.0190669 0.119472 -4.54615e-20)
(-0.0223443 0.147363 0)
(-0.0249632 0.172203 0)
(-0.0270373 0.193894 3.91951e-20)
(-0.0286625 0.212423 -3.733e-20)
(-0.0299118 0.227868 -6.19099e-23)
(-0.0308342 0.240392 6.74265e-20)
(-0.0314539 0.250231 0)
(-0.0317694 0.257679 6.05766e-20)
(-0.0317543 0.263061 0)
(-0.031358 0.266707 0)
(-0.030508 0.268931 -1.09145e-22)
(-0.0291129 0.270003 4.91921e-20)
(-0.0270648 0.270136 -4.71324e-20)
(-0.0242433 0.269474 8.91059e-20)
(-0.0205184 0.268082 -4.27337e-20)
(-0.0157531 0.265954 1.21002e-19)
(-0.0098055 0.263009 0)
(-0.00253108 0.259102 0)
(0.00621631 0.254034 7.04904e-20)
(0.0165827 0.247564 0)
(0.0287128 0.239417 6.48145e-20)
(0.0427504 0.229308 -6.10922e-20)
(0.0588263 0.216968 5.99798e-20)
(0.0770002 0.202188 -5.71216e-20)
(0.0974848 0.184966 1.08397e-19)
(0.12129 0.165943 1.58006e-19)
(-0.00404574 0.018801 0)
(-0.0109217 0.0535985 -5.02237e-20)
(-0.0163479 0.0863266 2.03343e-22)
(-0.0206361 0.116674 0)
(-0.023967 0.144374 -8.7207e-20)
(-0.0264635 0.169219 3.52039e-23)
(-0.0282404 0.191073 3.94289e-20)
(-0.0293975 0.209881 0)
(-0.0300145 0.225678 3.5508e-20)
(-0.0301491 0.238585 -6.74256e-20)
(-0.0298356 0.248801 0)
(-0.0290835 0.256586 0)
(-0.0278766 0.262237 -5.78623e-20)
(-0.0261736 0.266064 5.47022e-20)
(-0.0239091 0.268366 -5.20054e-20)
(-0.0209963 0.26941 0)
(-0.0173296 0.269408 -4.68689e-20)
(-0.0127884 0.268508 -1.34173e-19)
(-0.00724015 0.266786 -4.86803e-22)
(-0.000544024 0.264245 -5.27076e-22)
(0.00744613 0.260817 3.84227e-20)
(0.0168792 0.256369 7.45023e-20)
(0.0279047 0.250713 -1.40479e-19)
(0.0406703 0.243615 6.76136e-20)
(0.0553204 0.234809 -8.33066e-22)
(0.0719969 0.224018 -1.41198e-21)
(0.0908314 0.210972 -1.43529e-21)
(0.111874 0.195469 5.64638e-20)
(0.135312 0.177543 0)
(0.162592 0.158067 0)
(-0.00434745 0.0180359 4.92464e-20)
(-0.011747 0.051658 2.43125e-23)
(-0.0175435 0.08353 1.78713e-22)
(-0.0220542 0.113301 -9.19115e-20)
(-0.0254538 0.14067 8.74122e-20)
(-0.0278564 0.165396 0)
(-0.0293718 0.187304 0)
(-0.0300988 0.206301 7.51045e-20)
(-0.0301195 0.222379 -7.13147e-20)
(-0.0294965 0.235617 2.00396e-23)
(-0.0282718 0.246177 1.28464e-19)
(-0.0264637 0.25428 6.10365e-20)
(-0.0240656 0.260194 -1.15705e-19)
(-0.0210451 0.264206 5.47891e-20)
(-0.017345 0.2666 5.22995e-20)
(-0.0128845 0.267632 -4.93652e-20)
(-0.00756213 0.267512 9.41051e-20)
(-0.00125908 0.266392 1.34587e-19)
(0.0061571 0.264358 8.57524e-20)
(0.0148286 0.261421 4.14307e-20)
(0.0249037 0.257527 -7.69411e-20)
(0.0365334 0.252556 0)
(0.0498684 0.246332 -6.6484e-22)
(0.0650568 0.238635 6.70794e-20)
(0.0822412 0.229208 6.55396e-20)
(0.10156 0.217777 -1.22917e-19)
(0.123146 0.204078 -5.8957e-20)
(0.147043 0.187903 1.14631e-19)
(0.17338 0.169299 0)
(0.204164 0.149398 -1.0575e-19)
(-0.00459704 0.0171967 4.95052e-20)
(-0.0124481 0.0494974 -1.01342e-19)
(-0.0185813 0.0803674 1.36636e-22)
(-0.0233088 0.109418 -1.37622e-22)
(-0.0267918 0.136318 0)
(-0.0291299 0.160795 0)
(-0.0304228 0.182642 0)
(-0.0307633 0.201725 -7.52678e-20)
(-0.0302309 0.217999 7.14696e-20)
(-0.0288901 0.231503 -6.77424e-20)
(-0.026787 0.242356 -1.28654e-19)
(-0.0239468 0.250746 -1.37157e-22)
(-0.0203712 0.256907 1.15713e-19)
(-0.0160367 0.261101 5.49383e-20)
(-0.0108944 0.263591 0)
(-0.00487084 0.264622 -9.90497e-20)
(0.00212952 0.264401 1.41421e-19)
(0.0102215 0.263081 -1.34141e-19)
(0.0195351 0.260753 -8.46938e-20)
(0.0302116 0.257441 -2.43686e-19)
(0.042399 0.253103 -1.14146e-21)
(0.0562487 0.247633 -1.21757e-21)
(0.0719111 0.240871 -6.25008e-22)
(0.0895336 0.232608 -1.36027e-19)
(0.109257 0.2226 1.93684e-19)
(0.131216 0.210581 1.14404e-22)
(0.155546 0.196288 0)
(0.182295 0.179502 -1.14626e-19)
(0.211492 0.160255 1.09993e-19)
(0.245845 0.139954 1.07748e-19)
(-0.00479402 0.0163014 0)
(-0.0130225 0.0471617 -5.08444e-20)
(-0.019457 0.0769017 4.85747e-20)
(-0.0243937 0.105099 9.23144e-20)
(-0.027974 0.131395 4.38597e-20)
(-0.0302778 0.155493 -8.36843e-20)
(-0.0313893 0.177154 -1.07243e-22)
(-0.0313906 0.196212 -7.54594e-20)
(-0.0303546 0.212584 0)
(-0.0283434 0.226271 6.7909e-20)
(-0.0254044 0.237354 0)
(-0.0215674 0.245984 0)
(-0.0168408 0.252362 -1.15793e-19)
(-0.0112093 0.256721 -1.09998e-19)
(-0.00463239 0.259304 1.56222e-19)
(0.00295487 0.260341 9.90474e-20)
(0.0116408 0.260032 3.66179e-22)
(0.0215342 0.258529 -8.90577e-20)
(0.0327606 0.255929 1.70848e-19)
(0.0454579 0.252265 -1.01227e-22)
(0.0597722 0.247509 1.54051e-19)
(0.0758532 0.241569 0)
(0.0938506 0.2343 0)
(0.113911 0.225509 1.3486e-19)
(0.136173 0.214965 -1.94947e-19)
(0.160773 0.202411 1.85569e-19)
(0.187847 0.187588 -1.18862e-19)
(0.217469 0.17026 1.14127e-19)
(0.249517 0.150407 -2.19599e-19)
(0.287564 0.12972 1.07696e-19)
(-0.0049398 0.0153685 -4.98617e-20)
(-0.0134724 0.0446978 0)
(-0.0201721 0.0731996 0)
(-0.0253097 0.100422 -9.27165e-20)
(-0.0290002 0.125986 1.76251e-19)
(-0.0312993 0.149574 -8.38511e-20)
(-0.0322714 0.17092 -1.23929e-23)
(-0.0319832 0.189831 7.55727e-20)
(-0.0304971 0.206191 0)
(-0.027869 0.219966 3.22834e-23)
(-0.0241447 0.231201 4.14137e-23)
(-0.019356 0.240009 -1.22129e-19)
(-0.0135162 0.246559 1.33187e-23)
(-0.00661698 0.251055 -5.50043e-20)
(0.00137347 0.253717 -1.56295e-19)
(0.0105115 0.254758 9.9199e-20)
(0.0208769 0.254368 -9.35628e-20)
(0.032571 0.252698 1.7883e-19)
(0.0457128 0.249847 -1.69273e-19)
(0.0604354 0.245857 -1.61735e-19)
(0.0768811 0.24071 4.6919e-22)
(0.0951972 0.234331 -7.30454e-20)
(0.115532 0.22659 7.10072e-20)
(0.138033 0.217311 7.63431e-22)
(0.16284 0.206276 -1.92417e-19)
(0.190093 0.193241 -1.23293e-19)
(0.219936 0.177948 2.3714e-19)
(0.25249 0.160149 -2.27655e-19)
(0.287427 0.139734 1.09607e-19)
(0.329387 0.118661 6.70511e-22)
(-0.00503765 0.0144169 1.49612e-19)
(-0.0138044 0.0421535 -5.12309e-20)
(-0.0207346 0.0693302 -9.7357e-20)
(-0.0260642 0.095472 2.78499e-19)
(-0.0298767 0.120184 1.33944e-22)
(-0.0321994 0.143132 0)
(-0.0330732 0.164033 0)
(-0.0325456 0.182668 7.55444e-20)
(-0.0306647 0.198896 -7.16948e-20)
(-0.027477 0.212649 6.7977e-20)
(-0.0230236 0.223941 -6.44109e-20)
(-0.0173356 0.23285 -1.22029e-19)
(-0.0104294 0.239514 2.31365e-19)
(-0.00230254 0.244105 -5.47313e-20)
(0.00706917 0.24682 1.04442e-19)
(0.0177332 0.247854 -1.97298e-19)
(0.0297605 0.247385 -6.92975e-22)
(0.0432436 0.245558 -5.13508e-22)
(0.0582941 0.242474 1.69887e-19)
(0.0750389 0.238182 6.28441e-22)
(0.093616 0.232674 0)
(0.11417 0.225889 0)
(0.13685 0.217713 -6.89689e-20)
(0.161805 0.207986 -2.68287e-19)
(0.189182 0.196506 1.9209e-19)
(0.21913 0.183041 7.57153e-22)
(0.251808 0.167337 -2.3579e-19)
(0.287416 0.14914 2.28096e-19)
(0.325348 0.128207 -1.07293e-19)
(0.371571 0.106739 1.04401e-19)
(-0.00509267 0.0134648 0)
(-0.0140297 0.0395766 0)
(-0.0211582 0.0653632 9.76808e-20)
(-0.0266711 0.0903334 -1.85707e-19)
(-0.0306157 0.114083 1.64738e-22)
(-0.0329881 0.136267 -8.39041e-20)
(-0.0338021 0.156591 2.39247e-19)
(-0.0330831 0.174819 -2.2694e-19)
(-0.0308619 0.190784 2.91059e-23)
(-0.0271727 0.204397 -6.79807e-20)
(-0.0220489 0.215639 -1.93002e-19)
(-0.0155185 0.224559 1.82906e-19)
(-0.00759868 0.231261 0)
(0.00170872 0.235892 0)
(0.0124213 0.238621 1.03803e-19)
(0.0245785 0.239626 1.96733e-19)
(0.0382421 0.239069 -9.30036e-20)
(0.0534962 0.23709 0)
(0.0704445 0.233788 -8.47072e-20)
(0.0892079 0.229216 -9.62555e-22)
(0.10992 0.223376 -7.64269e-20)
(0.132726 0.21622 0)
(0.157776 0.207648 -6.93362e-20)
(0.185226 0.197515 6.59438e-20)
(0.215238 0.185637 -1.2878e-19)
(0.247979 0.171792 3.66777e-19)
(0.283626 0.155732 1.76859e-21)
(0.322503 0.137212 1.11793e-19)
(0.363626 0.115815 0)
(0.414628 0.0939425 -1.04982e-19)
(-0.00511163 0.0125301 -9.99593e-20)
(-0.0141636 0.0370134 1.02761e-19)
(-0.0214622 0.0613674 -5.58727e-23)
(-0.0271501 0.0850922 -9.31661e-20)
(-0.0312348 0.10778 0)
(-0.033679 0.129085 -1.68057e-19)
(-0.0344673 0.148703 1.22147e-22)
(-0.0336005 0.166387 7.55718e-20)
(-0.0310897 0.181957 -2.5084e-23)
(-0.0269541 0.195301 9.23604e-23)
(-0.0212171 0.206375 1.92972e-19)
(-0.0139012 0.215201 6.08737e-20)
(-0.00502219 0.221855 5.74901e-20)
(0.00541605 0.226456 -1.09243e-19)
(0.0174262 0.229149 1.03193e-19)
(0.0310406 0.23009 -9.81255e-20)
(0.0463137 0.229429 9.32229e-20)
(0.0633215 0.227295 -8.78623e-20)
(0.0821613 0.223784 0)
(0.102949 0.218952 -7.87135e-20)
(0.125818 0.212808 1.53336e-19)
(0.150914 0.205316 7.23907e-20)
(0.178396 0.196388 -6.87063e-20)
(0.208434 0.185896 2.63778e-19)
(0.241213 0.173668 -6.25973e-20)
(0.27693 0.159497 1.20562e-19)
(0.315782 0.143142 -1.17391e-19)
(0.358267 0.124382 -1.80075e-21)
(0.402875 0.102591 0)
(0.459362 0.0803358 -2.02556e-19)
(-0.00510277 0.0116295 -1.85249e-22)
(-0.0142249 0.034508 -1.02852e-19)
(-0.0216703 0.0574089 0)
(-0.0275254 0.0798319 -9.3168e-20)
(-0.0317554 0.101373 8.84464e-20)
(-0.0342883 0.12169 -1.3948e-22)
(-0.0350782 0.140478 0)
(-0.0340996 0.157487 8.40718e-23)
(-0.0313423 0.172525 -7.15296e-20)
(-0.0268085 0.185466 6.79298e-20)
(-0.0205094 0.196247 0)
(-0.0124597 0.204865 -1.21497e-19)
(-0.00267139 0.211373 1.14671e-19)
(0.00885191 0.215862 0)
(0.0221202 0.218456 0)
(0.0371615 0.21929 0)
(0.0540245 0.218497 0)
(0.0727802 0.216197 8.8067e-20)
(0.0935221 0.212482 -8.29447e-20)
(0.116365 0.207407 2.38584e-19)
(0.141445 0.200988 -1.50843e-19)
(0.168918 0.193196 -1.45321e-19)
(0.198956 0.183958 2.05732e-19)
(0.231754 0.173157 -1.12286e-21)
(0.267528 0.160638 -1.24771e-19)
(0.30652 0.146206 -1.20559e-19)
(0.34894 0.129623 -1.14374e-19)
(0.395515 0.11073 2.19054e-19)
(0.444002 0.0886389 -2.10027e-19)
(0.506845 0.0661011 4.02454e-19)
(-0.00507555 0.0107781 2.00508e-19)
(-0.0142353 0.032101 -1.57363e-22)
(-0.0218096 0.0535495 -1.95977e-19)
(-0.0278244 0.074632 1.86398e-19)
(-0.032201 0.0949562 -8.86399e-20)
(-0.0348324 0.114188 -8.40415e-20)
(-0.0356416 0.132031 7.99548e-20)
(-0.0345765 0.148236 7.55634e-20)
(-0.0316039 0.162608 -1.4338e-19)
(-0.0267081 0.175012 -2.03262e-19)
(-0.0198862 0.185369 -6.39616e-20)
(-0.0111426 0.19366 2.42579e-19)
(-0.000483086 0.199914 -3.44165e-19)
(0.0120919 0.204202 1.08405e-19)
(0.0265928 0.206625 0)
(0.0430465 0.207298 0)
(0.0615001 0.206339 0)
(0.0820237 0.203857 1.74463e-19)
(0.104712 0.199938 -8.24374e-20)
(0.129685 0.194636 -7.76365e-20)
(0.157088 0.187971 -1.49715e-19)
(0.187095 0.179921 1.42628e-19)
(0.219903 0.170425 -6.74745e-20)
(0.25574 0.159377 -1.28676e-19)
(0.294861 0.146637 1.76004e-21)
(0.337561 0.132028 -2.38295e-19)
(0.384047 0.115309 3.41906e-19)
(0.435325 0.0964244 -3.26775e-19)
(0.488149 0.0741636 1.04832e-19)
(0.558289 0.0515643 -1.0141e-19)
(-0.00504028 0.0099893 -1.00275e-19)
(-0.0142181 0.0298283 1.02778e-19)
(-0.0219091 0.0498447 9.79378e-20)
(-0.0280755 0.0695655 -2.79651e-19)
(-0.0325945 0.0886167 8.88893e-20)
(-0.0353249 0.10668 8.43178e-20)
(-0.036159 0.123473 0)
(-0.0350176 0.138754 0)
(-0.0318449 0.152332 7.16309e-20)
(-0.0266057 0.164066 1.35533e-19)
(-0.0192815 0.173871 -2.55897e-19)
(-0.00986429 0.181713 2.5145e-22)
(0.00164929 0.187604 0)
(0.0152653 0.191595 0)
(0.030999 0.193768 -1.0226e-19)
(0.0488807 0.194222 -2.78543e-22)
(0.0689614 0.193059 9.12988e-20)
(0.0913166 0.190375 -8.69336e-20)
(0.116049 0.186251 -1.63876e-19)
(0.143293 0.18074 1.56726e-19)
(0.173213 0.173863 7.47176e-20)
(0.206009 0.165606 -2.11042e-19)
(0.241913 0.155915 -1.35911e-19)
(0.281194 0.144701 1.27052e-19)
(0.32415 0.131835 1.21841e-19)
(0.371127 0.117161 1.18219e-19)
(0.422283 0.100429 0)
(0.478945 0.0817432 0)
(0.536544 0.0594856 2.04912e-19)
(0.614748 0.0371889 0)
(-0.0050077 0.00927406 1.00316e-19)
(-0.0141975 0.0277201 -1.02728e-19)
(-0.0219976 0.0463427 1.96193e-19)
(-0.0283057 0.0646973 -5.63243e-23)
(-0.0329556 0.0824358 0)
(-0.0357736 0.0992628 0)
(-0.0366222 0.114914 0)
(-0.0353962 0.129163 -7.5519e-20)
(-0.0320168 0.141826 7.17076e-20)
(-0.0264289 0.152767 0)
(-0.0185967 0.161897 1.27968e-19)
(-0.00849766 0.169171 1.20894e-19)
(0.00388429 0.174589 -1.13727e-19)
(0.018566 0.178189 1.07757e-19)
(0.0355724 0.180035 2.66977e-22)
(0.0549439 0.18021 -9.61007e-20)
(0.0767423 0.178803 -9.07394e-20)
(0.101057 0.175901 2.58204e-19)
(0.128008 0.171575 8.24824e-20)
(0.157753 0.165879 -1.54471e-19)
(0.190487 0.158834 -7.41132e-20)
(0.226443 0.150433 7.08275e-20)
(0.265897 0.140633 0)
(0.309156 0.129356 -1.269e-19)
(0.356553 0.116489 -1.21166e-19)
(0.408462 0.1019 0)
(0.464931 0.0853195 1.12347e-19)
(0.527601 0.0670808 -2.09066e-19)
(0.590282 0.0450515 -3.05547e-19)
(0.676953 0.0235803 0)
(-0.00498847 0.00864074 -2.0064e-19)
(-0.0141967 0.0258 1.02923e-19)
(-0.0221019 0.0430824 -1.96166e-19)
(-0.0285381 0.060082 -6.5501e-23)
(-0.0332979 0.0764841 0)
(-0.0361771 0.0920217 0)
(-0.0370106 0.106455 7.99071e-20)
(-0.0356681 0.119579 1.51308e-19)
(-0.0320483 0.131223 0)
(-0.0260756 0.141259 0)
(-0.0176954 0.149599 -2.55144e-19)
(-0.00686772 0.156197 1.20476e-19)
(0.00643998 0.161043 -7.77734e-24)
(0.0222605 0.164163 0)
(0.040635 0.165609 1.58249e-22)
(0.0616213 0.165451 9.5699e-20)
(0.085301 0.163768 8.5101e-22)
(0.111786 0.160636 -3.42174e-19)
(0.141226 0.156123 -8.08892e-20)
(0.17381 0.150278 1.5447e-19)
(0.20977 0.143127 1.47055e-19)
(0.24938 0.134668 1.4092e-21)
(0.292953 0.124868 1.31908e-19)
(0.340825 0.113661 2.52648e-19)
(0.393331 0.100951 1.21163e-19)
(0.45083 0.0866406 1.1456e-19)
(0.51317 0.0704217 1.11004e-19)
(0.582241 0.052926 2.13332e-19)
(0.650025 0.0313922 1.40746e-21)
(0.74471 0.0112757 9.32986e-20)
(-0.00499251 0.00809459 2.00623e-19)
(-0.0142368 0.0240838 -3.08976e-19)
(-0.0222446 0.0400924 1.96313e-19)
(-0.0287891 0.0557627 1.86899e-19)
(-0.0336251 0.0708206 8.86878e-20)
(-0.036521 0.0850331 -2.92434e-22)
(-0.0372865 0.0981914 -8.00302e-20)
(-0.0357675 0.110114 -1.51308e-19)
(-0.0318408 0.120652 3.05324e-22)
(-0.0254096 0.129689 2.70332e-19)
(-0.0163985 0.137142 -1.27723e-19)
(-0.00474694 0.142968 2.40432e-19)
(0.00959868 0.147154 -3.14234e-22)
(0.0266932 0.149719 -2.14168e-19)
(0.0466013 0.150706 2.16831e-22)
(0.0694068 0.150175 0)
(0.0952205 0.148196 4.50525e-19)
(0.124188 0.14484 8.57854e-20)
(0.156493 0.140169 0)
(0.192366 0.134232 7.67949e-20)
(0.232078 0.127058 -7.22318e-20)
(0.275938 0.118652 2.76384e-19)
(0.324278 0.108989 -3.94702e-19)
(0.377431 0.09802 1.23154e-19)
(0.435679 0.0856626 0)
(0.499293 0.0718594 1.12213e-19)
(0.567821 0.0562476 -2.16332e-19)
(0.643267 0.0398119 2.05878e-19)
(0.71578 0.0190729 -1.96564e-19)
(0.817205 0.000934579 -1.87633e-19)
(-0.00502841 0.00763748 -2.0081e-19)
(-0.0143347 0.0225792 -9.89962e-23)
(-0.0224411 0.0373895 -9.81977e-20)
(-0.0290653 0.0517691 -9.34913e-20)
(-0.0339286 0.0654902 -1.77746e-19)
(-0.0367753 0.0783598 8.45394e-20)
(-0.0373926 0.0902041 -1.38136e-22)
(-0.0356045 0.100872 -1.51386e-19)
(-0.0312659 0.110237 -2.14145e-19)
(-0.024258 0.1182 6.25142e-22)
(-0.0144825 0.124692 1.27841e-19)
(-0.00185407 0.129673 -2.40249e-19)
(0.013707 0.133132 1.13516e-19)
(0.0322843 0.135086 1.06698e-19)
(0.0539739 0.135573 1.79077e-22)
(0.0788942 0.134647 9.50147e-20)
(0.107194 0.132374 -1.79744e-19)
(0.139058 0.128818 0)
(0.174713 0.124042 -1.60021e-19)
(0.214427 0.118094 1.51576e-19)
(0.258502 0.111008 -1.43777e-19)
(0.30726 0.102793 -1.37495e-19)
(0.361019 0.0934364 0)
(0.420049 0.0829005 -3.73408e-19)
(0.484506 0.0711177 -4.24894e-22)
(0.554471 0.0580718 -5.64993e-19)
(0.629109 0.0433323 3.22943e-19)
(0.710322 0.0282502 -4.09034e-19)
(0.78675 0.00860851 1.96553e-19)
(0.892775 -0.0070044 -1.81068e-19)
(-0.00510269 0.00726764 1.00438e-19)
(-0.0145019 0.0212846 1.03092e-19)
(-0.0226983 0.0349786 9.84562e-20)
(-0.0293615 0.0481165 -2.14623e-22)
(-0.0341844 0.0605233 -1.9022e-22)
(-0.0368916 0.0720498 0)
(-0.03725 0.082562 0)
(-0.0350632 0.0919421 0)
(-0.0301646 0.100092 0)
(-0.0224119 0.106933 0)
(-0.0116809 0.112412 1.27457e-19)
(0.00214238 0.1165 -1.19856e-19)
(0.0191696 0.11919 1.13401e-19)
(0.0395197 0.120503 -2.2317e-22)
(0.0633276 0.120474 -1.00602e-19)
(0.0907531 0.119159 1.55036e-22)
(0.121988 0.116617 -1.78488e-19)
(0.157261 0.112915 1.68545e-19)
(0.196836 0.108113 1.60019e-19)
(0.241008 0.102263 -1.525e-19)
(0.290087 0.0954014 2.86536e-19)
(0.344368 0.0875439 0)
(0.404096 0.0786851 -2.59302e-19)
(0.469404 0.0687973 -8.13367e-22)
(0.540227 0.0578221 -7.50579e-22)
(0.616344 0.0457783 4.87229e-22)
(0.696493 0.0321706 -1.05941e-19)
(0.782201 0.0186559 2.03155e-19)
(0.861238 0.000363692 1.906e-19)
(0.968783 -0.0124961 9.47873e-20)
(-0.00521916 0.00697957 0)
(-0.0147425 0.0201898 1.03231e-19)
(-0.0230122 0.032852 -9.84275e-20)
(-0.0296586 0.0448058 5.12977e-23)
(-0.0343523 0.0559338 1.78354e-19)
(-0.0368019 0.0661349 -8.47888e-20)
(-0.0367572 0.0753177 0)
(-0.0340023 0.0834016 0)
(-0.0283487 0.0903188 -1.42932e-19)
(-0.0196292 0.0960168 1.35591e-19)
(-0.00769034 0.100461 1.27528e-19)
(0.0076148 0.103635 0)
(0.0264353 0.105545 1.13092e-19)
(0.0489311 0.106215 0)
(0.075281 0.105687 -2.00579e-19)
(0.10569 0.104014 2.83689e-19)
(0.140394 0.101261 2.67458e-19)
(0.179658 0.097493 -8.42588e-20)
(0.223769 0.0927737 3.61495e-22)
(0.273025 0.0871563 -2.25902e-19)
(0.327698 0.0806798 0)
(0.388003 0.0733639 0)
(0.454034 0.0652063 1.29013e-19)
(0.525696 0.0561829 2.45813e-19)
(0.602612 0.046238 1.28867e-21)
(0.684154 0.0354061 2.22266e-19)
(0.76865 0.0231558 2.11415e-19)
(0.856958 0.0113044 0)
(0.93691 -0.00543093 -1.9059e-19)
(1.04239 -0.0155479 2.67515e-19)
(-0.00537833 0.00676419 1.00927e-19)
(-0.0150528 0.0192756 0)
(-0.0233668 0.0309893 3.55703e-24)
(-0.0299225 0.0418229 -9.41503e-20)
(-0.0343743 0.0517195 8.95135e-20)
(-0.036419 0.0606292 8.46343e-20)
(-0.0357915 0.068506 -3.71914e-22)
(-0.0322574 0.0753088 7.59716e-20)
(-0.0256058 0.0810034 0)
(-0.0156422 0.0855649 -2.70523e-19)
(-0.00218111 0.0889812 4.31429e-22)
(0.0149614 0.0912545 0)
(0.0359757 0.0924032 1.1292e-19)
(0.0610662 0.0924617 -3.19451e-19)
(0.0904574 0.0914787 1.00388e-19)
(0.124397 0.0895143 -9.4365e-20)
(0.163156 0.0866357 -1.77968e-19)
(0.20702 0.082912 -2.51722e-19)
(0.256272 0.078408 0)
(0.311167 0.0731787 0)
(0.371887 0.0672631 1.41896e-19)
(0.438487 0.0606794 1.35427e-19)
(0.510829 0.0534219 -1.27222e-19)
(0.588503 0.0454606 0)
(0.670741 0.0367342 0)
(0.756437 0.0272613 0)
(0.843593 0.0165327 2.06426e-19)
(0.932163 0.0062944 -9.86654e-20)
(1.01112 -0.00873384 1.83991e-19)
(1.11089 -0.0163955 1.70121e-19)
(-0.00557707 0.00660912 -2.01953e-19)
(-0.0154197 0.0185146 1.03858e-19)
(-0.0237335 0.0293589 -9.92247e-20)
(-0.030104 0.0391395 9.44808e-20)
(-0.034176 0.0478619 -8.95136e-20)
(-0.0356381 0.0555293 8.48578e-20)
(-0.0342123 0.0621429 -8.07318e-20)
(-0.0296463 0.0677027 -1.52147e-19)
(-0.0217059 0.0722101 1.44038e-19)
(-0.0101677 0.0756704 2.71336e-19)
(0.00518842 0.0780964 1.27427e-19)
(0.0245859 0.0795113 -1.20667e-19)
(0.0482583 0.07995 1.61286e-22)
(0.0764538 0.0794601 1.61967e-22)
(0.109438 0.0781006 1.0043e-19)
(0.147492 0.0759395 0)
(0.190903 0.0730496 1.77893e-19)
(0.239947 0.0695032 4.19505e-19)
(0.294862 0.0653666 -7.9079e-20)
(0.355802 0.0606931 0)
(0.422789 0.0555169 -2.83429e-19)
(0.495641 0.0498475 -1.34025e-19)
(0.573903 0.0436666 -1.27896e-19)
(0.656778 0.0369262 1.20077e-19)
(0.743069 0.0295501 -1.15014e-19)
(0.831181 0.021504 1.07865e-19)
(0.918918 0.012378 -2.61039e-21)
(1.00523 0.00354494 1.91888e-19)
(1.0813 -0.00966717 -1.84186e-19)
(1.17199 -0.0154329 -3.39092e-19)
(-0.00580836 0.00649929 1.0162e-19)
(-0.0158212 0.0178729 1.0412e-19)
(-0.0240712 0.0279192 -2.48076e-22)
(-0.0301395 0.0367146 3.7032e-22)
(-0.0336677 0.0443274 0)
(-0.0343391 0.0508145 -3.66548e-22)
(-0.0318648 0.056225 -2.42925e-19)
(-0.0259748 0.0606012 0)
(-0.0164111 0.0639812 -1.44727e-19)
(-0.00291994 0.0664022 -5.4407e-19)
(0.0147544 0.0679041 1.28508e-19)
(0.0368752 0.0685331 -1.20746e-19)
(0.0637166 0.0683434 -2.26455e-19)
(0.0955652 0.0673982 2.13778e-19)
(0.132716 0.0657689 0)
(0.175463 0.0635327 9.43914e-20)
(0.224081 0.0607682 -2.67085e-19)
(0.278795 0.0575504 -8.37784e-20)
(0.33974 0.0539437 -2.37367e-19)
(0.406907 0.0499949 0)
(0.480079 0.0457263 2.82833e-19)
(0.558765 0.0411296 1.34018e-19)
(0.64213 0.0361626 0)
(0.72895 0.0307473 1.19615e-19)
(0.817605 0.0247824 0)
(0.906079 0.0181505 -1.07641e-19)
(0.992109 0.0106084 -3.03956e-19)
(1.07375 0.00284158 -3.80697e-19)
(1.14522 -0.00841431 -1.77163e-19)
(1.22398 -0.0131636 -2.79999e-22)
(-0.00606135 0.00641763 -1.0162e-19)
(-0.0162262 0.0173114 3.4614e-22)
(-0.0243276 0.0266208 9.99063e-20)
(-0.0299531 0.034497 -9.48512e-20)
(-0.0327475 0.0410693 -9.01509e-20)
(-0.0323913 0.0464483 1.70952e-19)
(-0.0285861 0.0507307 8.14148e-20)
(-0.0210449 0.0540013 1.53795e-19)
(-0.00948554 0.0563355 1.44502e-19)
(0.00637593 0.0578032 1.36948e-19)
(0.0268299 0.0584732 2.57707e-19)
(0.0521758 0.058416 -4.19217e-22)
(0.0827219 0.0577067 0)
(0.11878 0.0564258 -1.06817e-19)
(0.160655 0.0546579 -3.20647e-22)
(0.208624 0.0524893 2.07869e-22)
(0.262908 0.0500036 2.67232e-19)
(0.323629 0.0472751 0)
(0.390758 0.0443616 1.58304e-19)
(0.464051 0.0412965 0)
(0.542987 0.0380809 -1.38439e-22)
(0.626703 0.0346783 -1.33886e-19)
(0.713954 0.0310113 2.52362e-19)
(0.803097 0.0269606 -1.19568e-19)
(0.892149 0.0223901 -2.24223e-19)
(0.978806 0.0170927 1.04758e-19)
(1.06086 0.0110062 4.00582e-19)
(1.13581 0.00393941 9.52366e-20)
(1.20118 -0.00509558 4.37644e-19)
(1.2657 -0.0102811 8.26173e-20)
(-0.00632192 0.00634611 1.02351e-19)
(-0.0165958 0.0167884 -2.1014e-19)
(-0.0244399 0.0254091 0)
(-0.0294586 0.0324273 0)
(-0.0313042 0.0380304 9.05914e-20)
(-0.0296574 0.0423809 -3.90006e-22)
(-0.0242111 0.0456223 -1.62623e-19)
(-0.0146623 0.0478809 -1.53603e-19)
(-0.000705673 0.0492694 9.11064e-22)
(0.017971 0.049891 7.4191e-22)
(0.0416886 0.0498436 -1.28772e-19)
(0.0707752 0.0492232 2.422e-19)
(0.10556 0.0481265 -2.28371e-19)
(0.14636 0.0466514 1.07631e-19)
(0.193462 0.0448955 1.00749e-19)
(0.247087 0.042953 -1.89548e-19)
(0.307352 0.0409089 -8.92861e-20)
(0.374217 0.038832 8.41477e-20)
(0.447425 0.0367668 0)
(0.526434 0.034724 -1.49766e-19)
(0.610364 0.0326736 -2.84997e-22)
(0.697952 0.0305394 0)
(0.787549 0.0281986 0)
(0.877155 0.0254832 -1.18884e-19)
(0.964533 0.0222152 3.35959e-19)
(1.04728 0.0181202 -2.10939e-19)
(1.12334 0.0132541 -9.83577e-20)
(1.19019 0.00668468 0)
(1.248 0.000106719 -1.73262e-19)
(1.29665 -0.00793225 0)
(-0.00657314 0.0062669 -1.02987e-19)
(-0.016885 0.0162617 -3.4443e-22)
(-0.024338 0.0242277 0)
(-0.0285623 0.0304422 0)
(-0.0292216 0.0351469 -9.1105e-20)
(-0.0259981 0.0385534 1.7361e-19)
(-0.0185779 0.0408496 -1.64399e-19)
(-0.00664341 0.0422022 1.54407e-19)
(0.0101314 0.0427606 -9.34578e-22)
(0.0320823 0.0426605 -2.76329e-19)
(0.059553 0.0420292 -1.30038e-19)
(0.0928874 0.0409882 7.1461e-22)
(0.132416 0.0396553 2.29422e-19)