/*--------------------------------*- C++ -*----------------------------------*\
  =========                 |
  \\      /  F ield         | OpenFOAM: The Open Source CFD Toolbox
   \\    /   O peration     | Website:  https://openfoam.org
    \\  /    A nd           | Version:  7
     \\/     M anipulation  |
\*---------------------------------------------------------------------------*/
FoamFile
{
    version     2.0;
    format      ascii;
    class       surfaceScalarField;
    location    "10";
    object      phi;
}
// * * * * * * * * * * * * * * * * * * * * * * * * * * * * * * * * * * * * * //

dimensions      [0 3 -1 0 0 0 0];

internalField   nonuniform List<scalar> 
49774
(
-3.84688e-07
3.84697e-07
-9.44138e-12
-1.49364e-06
1.10898e-06
-3.06478e-11
-3.3138e-06
1.82022e-06
-5.56449e-11
-5.82597e-06
2.51226e-06
-8.50746e-11
-9.00412e-06
3.17827e-06
-1.19453e-10
-1.28152e-05
3.81127e-06
-1.59322e-10
-1.72193e-05
4.40425e-06
-2.05177e-10
-2.21693e-05
4.95031e-06
-2.57648e-10
-2.76118e-05
5.4428e-06
-3.17374e-10
-3.3487e-05
5.87557e-06
-3.84939e-10
-3.97298e-05
6.24323e-06
-4.60901e-10
-4.62707e-05
6.54149e-06
-5.45911e-10
-5.30376e-05
6.76755e-06
-6.40673e-10
-5.99575e-05
6.92061e-06
-7.45737e-10
-6.69591e-05
7.00243e-06
-8.61638e-10
-7.3976e-05
7.01794e-06
-9.8904e-10
-8.09508e-05
6.97588e-06
-1.12866e-09
-8.78389e-05
6.88947e-06
-1.28096e-09
-9.46144e-05
6.77686e-06
-1.44654e-09
-0.000101274
6.66142e-06
-1.62569e-09
-0.000107844
6.57123e-06
-1.81882e-09
-0.000114378
6.53645e-06
-2.02616e-09
-0.000120967
6.5909e-06
-2.24771e-09
6.79463e-06
-2.48374e-09
-0.000127759
-3.79926e-07
7.64623e-07
-1.47439e-06
2.20345e-06
-3.26959e-06
3.61541e-06
-5.74545e-06
4.98812e-06
-8.87499e-06
6.30781e-06
-1.26241e-05
7.56037e-06
-1.69515e-05
8.73168e-06
-2.1809e-05
9.80776e-06
-2.71413e-05
1.07751e-05
-3.28871e-05
1.16213e-05
-3.89791e-05
1.23353e-05
-4.53458e-05
1.29082e-05
-5.19123e-05
1.33341e-05
-5.86028e-05
1.36111e-05
-6.53427e-05
1.37423e-05
-7.20621e-05
1.37374e-05
-7.86996e-05
1.36133e-05
-8.52065e-05
1.33964e-05
-9.15525e-05
1.31228e-05
-9.77306e-05
1.28395e-05
-0.000103762
1.26028e-05
-0.000109699
1.24738e-05
-0.00011563
1.25213e-05
1.28677e-05
-0.000121703
-3.70456e-07
1.13508e-06
-1.4361e-06
3.26909e-06
-3.1816e-06
5.36091e-06
-5.58516e-06
7.39168e-06
-8.61787e-06
9.34052e-06
-1.22435e-05
1.1186e-05
-1.64183e-05
1.29065e-05
-2.10912e-05
1.44807e-05
-2.62041e-05
1.58881e-05
-3.1692e-05
1.71092e-05
-3.74838e-05
1.81271e-05
-4.35033e-05
1.89276e-05
-4.96705e-05
1.95014e-05
-5.5904e-05
1.98445e-05
-6.21225e-05
1.99609e-05
-6.82491e-05
1.98639e-05
-7.42143e-05
1.95786e-05
-7.99614e-05
1.91435e-05
-8.54514e-05
1.86128e-05
-9.06688e-05
1.80569e-05
-9.56276e-05
1.75615e-05
-0.000100374
1.72201e-05
-0.000104991
1.71381e-05
1.7505e-05
-0.000109628
-3.5638e-07
1.49146e-06
-1.37915e-06
4.29186e-06
-3.05067e-06
7.03243e-06
-5.34657e-06
9.68758e-06
-8.23503e-06
1.2229e-05
-1.16766e-05
1.46275e-05
-1.56239e-05
1.68538e-05
-2.00218e-05
1.88787e-05
-2.48076e-05
2.06739e-05
-2.9911e-05
2.22127e-05
-3.52552e-05
2.34712e-05
-4.07571e-05
2.44295e-05
-4.63292e-05
2.50735e-05
-5.18814e-05
2.53966e-05
-5.73227e-05
2.54023e-05
-6.25655e-05
2.51066e-05
-6.75284e-05
2.45416e-05
-7.21423e-05
2.37574e-05
-7.6355e-05
2.28256e-05
-8.01388e-05
2.18406e-05
-8.34959e-05
2.09186e-05
-8.64631e-05
2.01873e-05
-8.91163e-05
1.97913e-05
1.99946e-05
-9.16059e-05
-3.37843e-07
1.8293e-06
-1.30408e-06
5.2581e-06
-2.87798e-06
8.60633e-06
-5.03171e-06
1.18413e-05
-7.72963e-06
1.49269e-05
-1.09279e-05
1.78258e-05
-1.45745e-05
2.05004e-05
-1.86089e-05
2.2913e-05
-2.29622e-05
2.50272e-05
-2.75574e-05
2.68079e-05
-3.23097e-05
2.82235e-05
-3.71274e-05
2.92472e-05
-4.19129e-05
2.9859e-05
-4.65645e-05
3.00482e-05
-5.09786e-05
2.98163e-05
-5.50529e-05
2.91809e-05
-5.86905e-05
2.81792e-05
-6.18053e-05
2.68722e-05
-6.4328e-05
2.53482e-05
-6.62135e-05
2.37262e-05
-6.7449e-05
2.21541e-05
-6.80588e-05
2.07971e-05
-6.81076e-05
1.98402e-05
1.96273e-05
-6.77403e-05
-3.15023e-07
2.14432e-06
-1.21155e-06
6.15463e-06
-2.66497e-06
1.00597e-05
-4.64313e-06
1.38195e-05
-7.10555e-06
1.73893e-05
-1.00031e-05
2.07234e-05
-1.32778e-05
2.37751e-05
-1.68625e-05
2.64977e-05
-2.06809e-05
2.88455e-05
-2.46474e-05
3.07744e-05
-2.86677e-05
3.22439e-05
-3.26393e-05
3.32188e-05
-3.64522e-05
3.36719e-05
-3.99904e-05
3.35864e-05
-4.31344e-05
3.29604e-05
-4.5764e-05
3.18105e-05
-4.77626e-05
3.01778e-05
-4.90226e-05
2.81321e-05
-4.94528e-05
2.57784e-05
-4.89868e-05
2.32602e-05
-4.75927e-05
2.076e-05
-4.5281e-05
1.84854e-05
-4.21076e-05
1.66667e-05
1.56756e-05
-3.81558e-05
-2.88115e-07
2.43244e-06
-1.10231e-06
6.96882e-06
-2.41326e-06
1.13707e-05
-4.18361e-06
1.55898e-05
-6.36715e-06
1.95729e-05
-8.90842e-06
2.32646e-05
-1.17424e-05
2.6609e-05
-1.4794e-05
2.95494e-05
-1.79782e-05
3.20297e-05
-2.11995e-05
3.39957e-05
-2.43525e-05
3.53968e-05
-2.73216e-05
3.61879e-05
-2.99822e-05
3.63325e-05
-3.22018e-05
3.5806e-05
-3.38418e-05
3.46004e-05
-3.47605e-05
3.27292e-05
-3.48174e-05
3.02346e-05
-3.3879e-05
2.71938e-05
-3.18271e-05
2.37265e-05
-2.8569e-05
2.00021e-05
-2.4049e-05
1.62401e-05
-1.82614e-05
1.26978e-05
-1.12838e-05
9.68911e-06
7.76761e-06
-3.3758e-06
-2.57322e-07
2.68976e-06
-9.77113e-07
7.68861e-06
-2.1245e-06
1.25181e-05
-3.65605e-06
1.71214e-05
-5.5189e-06
2.14357e-05
-7.65026e-06
2.5396e-05
-9.97699e-06
2.89357e-05
-1.24151e-05
3.19875e-05
-1.48694e-05
3.4484e-05
-1.72333e-05
3.63596e-05
-1.93884e-05
3.75519e-05
-2.12046e-05
3.80042e-05
-2.25408e-05
3.76687e-05
-2.32451e-05
3.65104e-05
-2.31572e-05
3.45124e-05
-2.21104e-05
3.16824e-05
-1.99361e-05
2.80603e-05
-1.64701e-05
2.37278e-05
-1.15613e-05
1.88178e-05
-5.08385e-06
1.35246e-05
3.04818e-06
8.10806e-06
1.28656e-05
2.88037e-06
2.43284e-05
-1.77373e-06
-5.22794e-06
3.7324e-05
-2.22835e-07
2.9126e-06
-8.36677e-07
8.30245e-06
-1.80027e-06
1.34817e-05
-3.06323e-06
1.83843e-05
-4.56512e-06
2.29376e-05
-6.23489e-06
2.70658e-05
-7.9903e-06
3.06911e-05
-9.73733e-06
3.37345e-05
-1.13696e-05
3.61163e-05
-1.2768e-05
3.7758e-05
-1.37999e-05
3.85838e-05
-1.43191e-05
3.85234e-05
-1.4166e-05
3.75156e-05
-1.31676e-05
3.5512e-05
-1.11388e-05
3.24836e-05
-7.88481e-06
2.84284e-05
-3.20506e-06
2.33806e-05
3.10051e-06
1.74222e-05
1.12217e-05
1.06966e-05
2.13242e-05
3.42209e-06
3.35311e-05
-4.09879e-06
4.79017e-05
-1.14902e-05
6.4409e-05
-1.8281e-05
-2.37009e-05
8.28819e-05
-1.84819e-07
3.09742e-06
-6.81631e-07
8.79926e-06
-1.44195e-06
1.4242e-05
-2.40758e-06
1.93499e-05
-3.50963e-06
2.40396e-05
-4.66787e-06
2.8224e-05
-5.79004e-06
3.18133e-05
-6.77107e-06
3.47155e-05
-7.49242e-06
3.68377e-05
-7.82122e-06
3.80868e-05
-7.60956e-06
3.83721e-05
-6.69384e-06
3.76077e-05
-4.89429e-06
3.5716e-05
-2.01482e-06
3.26325e-05
2.15638e-06
2.83124e-05
7.84521e-06
2.27396e-05
1.52881e-05
1.59377e-05
2.47259e-05
7.98445e-06
3.63931e-05
-9.70707e-07
5.05025e-05
-1.06873e-05
6.72219e-05
-2.08181e-05
8.66461e-05
-3.09144e-05
0.000108761
-4.03965e-05
-4.8309e-05
0.00013337
-1.434e-07
3.24082e-06
-5.12463e-07
9.16833e-06
-1.05063e-06
1.47802e-05
-1.69104e-06
1.99904e-05
-2.35551e-06
2.47041e-05
-2.95374e-06
2.88222e-05
-3.38255e-06
3.22421e-05
-3.52496e-06
3.4858e-05
-3.24925e-06
3.6562e-05
-2.40795e-06
3.72455e-05
-8.36803e-07
3.68009e-05
1.64634e-06
3.51246e-05
5.24248e-06
3.21199e-05
1.01722e-05
2.77027e-05
1.6676e-05
2.18087e-05
2.50132e-05
1.44024e-05
3.54594e-05
5.49141e-06
4.83009e-05
-4.857e-06
6.38235e-05
-1.64933e-05
8.2295e-05
-2.91589e-05
0.000103938
-4.2461e-05
0.000128892
-5.58685e-05
0.000157165
-6.86693e-05
-7.96796e-05
0.000188535
-9.86569e-08
3.33947e-06
-3.29486e-07
9.39916e-06
-6.27028e-07
1.50777e-05
-9.14939e-07
2.02783e-05
-1.10489e-06
2.48941e-05
-1.09571e-06
2.88131e-05
-7.7243e-07
3.19188e-05
-5.2958e-09
3.40908e-05
1.35139e-06
3.52053e-05
3.4605e-06
3.51363e-05
6.5035e-06
3.37579e-05
1.06819e-05
3.09462e-05
1.62186e-05
2.65831e-05
2.33599e-05
2.05615e-05
3.23759e-05
1.27927e-05
4.35611e-05
3.21717e-06
5.72331e-05
-8.18061e-06
7.37276e-05
-2.13514e-05
9.33879e-05
-3.61537e-05
0.000116546
-5.23173e-05
0.000143492
-6.94063e-05
0.000174422
-8.67991e-05
0.000209379
-0.000103626
-0.000118423
0.000248122
-5.06102e-08
3.39008e-06
-1.32827e-07
9.48137e-06
-1.71475e-07
1.51164e-05
-7.99302e-08
2.01867e-05
2.41079e-07
2.45731e-05
9.0444e-07
2.81497e-05
2.03768e-06
3.07856e-05
3.78413e-06
3.23444e-05
6.30425e-06
3.26852e-05
9.77704e-06
3.16635e-05
1.44018e-05
2.91332e-05
2.03998e-05
2.49482e-05
2.80167e-05
1.89662e-05
3.75242e-05
1.10539e-05
4.9223e-05
1.09394e-06
6.34435e-05
-1.10033e-05
8.05466e-05
-2.52837e-05
0.000100921
-4.17254e-05
0.000124972
-6.02054e-05
0.000153108
-8.04528e-05
0.000185696
-0.000101995
0.000223012
-0.000124115
0.000265146
-0.00014576
-0.000165125
0.000311849
7.38916e-10
3.38934e-06
7.75625e-08
9.40455e-06
3.16072e-07
1.48779e-05
8.13955e-07
1.96888e-05
1.68222e-06
2.37048e-05
3.04625e-06
2.67857e-05
5.04694e-06
2.87849e-05
7.84199e-06
2.95493e-05
1.16073e-05
2.89198e-05
1.65387e-05
2.67321e-05
2.28538e-05
2.28181e-05
3.07942e-05
1.70079e-05
4.06278e-05
9.13258e-06
5.26523e-05
-9.70645e-07
6.7198e-05
-1.34517e-05
8.46308e-05
-2.84361e-05
0.000105355
-4.6008e-05
0.000129813
-6.61836e-05
0.00015848
-8.88719e-05
0.000191844
-0.000113817
0.000230371
-0.000140522
0.000274435
-0.000168179
0.000324201
-0.000195526
-0.000220334
0.00037941
5.55129e-08
3.33383e-06
3.01886e-07
9.15818e-06
8.35939e-07
1.43438e-05
1.76715e-06
1.87576e-05
3.21903e-06
2.22529e-05
5.33025e-06
2.46744e-05
8.25589e-06
2.58592e-05
1.21688e-05
2.56364e-05
1.72611e-05
2.38275e-05
2.37461e-05
2.02471e-05
3.18602e-05
1.4704e-05
4.18654e-05
7.00272e-06
5.4052e-05
-3.05406e-06
6.87426e-05
-1.56613e-05
8.6296e-05
-3.1005e-05
0.000107112
-4.9252e-05
0.000131636
-7.05322e-05
0.000160364
-9.49115e-05
0.000193839
-0.000122347
0.000232642
-0.00015262
0.000277351
-0.000185231
0.000328469
-0.000219297
0.000386275
-0.000253332
-0.000284602
0.000450543
1.13741e-07
3.22009e-06
5.40384e-07
8.73153e-06
1.38857e-06
1.34956e-05
2.78028e-06
1.73659e-05
4.85228e-06
2.01809e-05
7.75734e-06
2.17694e-05
1.16656e-05
2.1951e-05
1.67658e-05
2.05362e-05
2.32673e-05
1.7326e-05
3.14016e-05
1.21129e-05
4.14243e-05
4.6813e-06
5.36182e-05
-5.19111e-06
6.82957e-05
-1.77316e-05
8.58032e-05
-3.31688e-05
0.000106526
-5.17279e-05
0.000130895
-7.36204e-05
0.000159392
-9.90293e-05
0.000192561
-0.000128081
0.000231014
-0.0001608
0.000275422
-0.000197028
0.000326495
-0.000236304
0.000384898
-0.0002777
0.000451081
-0.000319515
-0.000358425
0.000524905
1.75534e-07
3.04456e-06
7.93289e-07
8.11378e-06
1.97433e-06
1.23146e-05
3.85378e-06
1.54865e-05
6.58243e-06
1.74523e-05
1.0328e-05
1.80238e-05
1.52764e-05
1.70026e-05
2.16336e-05
1.4179e-05
2.96268e-05
9.33274e-06
3.95067e-05
2.23301e-06
5.15491e-05
-7.36114e-06
6.60579e-05
-1.96999e-05
8.33676e-05
-3.50413e-05
0.000103848
-5.36488e-05
0.000127907
-7.57874e-05
0.000156003
-0.000101716
0.000188648
-0.000131675
0.000226428
-0.00016586
0.000270008
-0.00020438
0.000320152
-0.000247172
0.000377706
-0.000293858
0.000443534
-0.000343528
0.000518332
-0.000394314
-0.000442239
0.000602146
2.40937e-07
2.80362e-06
1.06068e-06
7.29404e-06
2.59321e-06
1.0782e-05
4.98746e-06
1.30922e-05
8.4089e-06
1.40308e-05
1.3041e-05
1.33917e-05
1.90867e-05
1.09569e-05
2.67698e-05
6.49585e-06
3.63369e-05
-2.34338e-07
4.80589e-05
-9.48895e-06
6.2233e-05
-2.15353e-05
7.91852e-05
-3.66521e-05
9.92726e-05
-5.51286e-05
0.000122887
-7.72632e-05
0.00015046
-0.00010336
0.00018247
-0.000133726
0.000219453
-0.000168658
0.000262019
-0.000208427
0.000310878
-0.000253239
0.000366863
-0.000303158
0.000430953
-0.000357947
0.000504241
-0.000416816
0.000587763
-0.000477836
-0.000536386
0.000681911
3.09927e-07
2.49369e-06
1.34236e-06
6.26161e-06
3.24462e-06
8.87978e-06
6.17998e-06
1.01569e-05
1.03293e-05
9.88148e-06
1.58928e-05
7.8283e-06
2.3091e-05
3.75863e-06
3.21672e-05
-2.58031e-06
4.33883e-05
-1.14555e-05
5.70472e-05
-2.31479e-05
7.34641e-05
-3.79522e-05
9.29887e-05
-5.61767e-05
0.000116002
-7.8142e-05
0.00014292
-0.000104181
0.000174194
-0.000134635
0.000210323
-0.000169855
0.000251856
-0.000210191
0.000299418
-0.000255988
0.000353731
-0.000307553
0.000415669
-0.000365096
0.000486312
-0.00042859
0.000566987
-0.000497491
0.000659174
-0.000570022
-0.000641071
0.000763859
3.8238e-07
2.11131e-06
1.63774e-06
5.00625e-06
3.92708e-06
6.59043e-06
7.42847e-06
6.65547e-06
1.23389e-05
4.97109e-06
1.88757e-05
1.29147e-06
2.72786e-05
-4.64425e-06
3.7811e-05
-1.31127e-05
5.0762e-05
-2.44065e-05
6.64479e-05
-3.88338e-05
8.52142e-05
-5.67185e-05
0.000107437
-7.83991e-05
0.000133523
-0.000104228
0.000163915
-0.000134572
0.000199089
-0.000169809
0.000239561
-0.000210327
0.000285893
-0.000256523
0.000338706
-0.000308801
0.000398713
-0.00036756
0.000466778
-0.00043316
0.000544014
-0.000505827
0.000631931
-0.000585408
0.000732517
-0.000670608
-0.000756265
0.000847711
4.58051e-07
1.65326e-06
1.94576e-06
3.51854e-06
4.63805e-06
3.89814e-06
8.72817e-06
2.56535e-06
1.44296e-05
-7.30331e-07
2.19778e-05
-6.25675e-06
3.16321e-05
-1.42986e-05
4.36775e-05
-2.51581e-05
5.84264e-05
-3.91554e-05
7.62207e-05
-5.6628e-05
9.74329e-05
-7.79308e-05
0.000122468
-0.000103435
0.000151765
-0.000133526
0.000185797
-0.000168604
0.000225069
-0.000209081
0.000270122
-0.00025538
0.000321533
-0.000307934
0.000379921
-0.000367189
0.000445966
-0.000433605
0.000520468
-0.000507662
0.000604473
-0.000589832
0.000699525
-0.000680459
0.000808058
-0.000779141
-0.000881612
0.000933405
5.36563e-07
1.1167e-06
2.26488e-06
1.79022e-06
5.37392e-06
7.89101e-07
1.00723e-05
-2.13305e-06
1.65904e-05
-7.24845e-06
2.51823e-05
-1.48486e-05
3.61274e-05
-2.52437e-05
4.9733e-05
-3.87638e-05
6.63362e-05
-5.57585e-05
8.63056e-05
-7.65974e-05
0.000110043
-0.000101669
0.000137987
-0.000131378
0.000170611
-0.000166149
0.000208424
-0.000206417
0.000251974
-0.000252631
0.000301839
-0.000305245
0.000358627
-0.000364723
0.000422972
-0.000431534
0.000495531
-0.000506164
0.000577012
-0.000589143
0.000668276
-0.000681097
0.000770621
-0.000782804
0.000886587
-0.000895107
-0.00101667
0.00102164
6.17419e-07
4.99281e-07
2.59309e-06
-1.8545e-07
6.13002e-06
-2.74782e-06
1.14523e-05
-7.45534e-06
1.88073e-05
-1.46034e-05
2.84675e-05
-2.45088e-05
4.07332e-05
-3.75093e-05
5.5934e-05
-5.39646e-05
7.44319e-05
-7.42565e-05
9.66233e-05
-9.87888e-05
0.000122941
-0.000127987
0.000153858
-0.000162295
0.000189886
-0.000202177
0.000231581
-0.000248112
0.000279539
-0.000300588
0.000334397
-0.000360103
0.000396828
-0.000427154
0.00046753
-0.000502235
0.000547205
-0.000585839
0.000636545
-0.000678483
0.000736232
-0.000780783
0.000846987
-0.000893559
0.000970317
-0.00101844
-0.00116108
0.00111473
7.0003e-07
-2.0075e-07
2.92803e-06
-2.41345e-06
6.90092e-06
-6.72071e-06
1.28581e-05
-1.34125e-05
2.10636e-05
-2.2809e-05
3.18085e-05
-3.52537e-05
4.54129e-05
-5.11137e-05
6.22288e-05
-7.07805e-05
8.26426e-05
-9.46702e-05
0.000107078
-0.000123224
0.000135998
-0.000156907
0.00016991
-0.000196207
0.000209366
-0.000241634
0.00025497
-0.000293716
0.000307378
-0.000352996
0.000367301
-0.000420027
0.000435514
-0.000495367
0.000512855
-0.000579576
0.000600226
-0.00067321
0.000698594
-0.000776851
0.000808987
-0.000891176
0.000932223
-0.0010168
0.00106755
-0.00115376
-0.00130893
0.00121539
7.83762e-07
-9.84511e-07
3.26717e-06
-4.89686e-06
7.68077e-06
-1.11343e-05
1.42789e-05
-2.00106e-05
2.33418e-05
-3.18718e-05
3.5178e-05
-4.70899e-05
5.01269e-05
-6.60626e-05
6.85613e-05
-8.92148e-05
9.08902e-05
-0.000116999
0.000117562
-0.000149896
0.000149069
-0.000188413
0.000185948
-0.000233086
0.000228788
-0.000284475
0.000278237
-0.000343164
0.000335004
-0.000409763
0.000399877
-0.0004849
0.000473739
-0.00056923
0.000557602
-0.000663439
0.000652674
-0.000768282
0.000760493
-0.00088467
0.000883217
-0.0010139
0.00102451
-0.00115809
0.00119316
-0.00132241
-0.00152745
0.00141168
8.67981e-07
-1.85249e-06
3.60797e-06
-7.63685e-06
8.46372e-06
-1.59901e-05
1.57038e-05
-2.72507e-05
2.56237e-05
-4.17918e-05
3.85485e-05
-6.00147e-05
5.4835e-05
-8.23491e-05
7.48745e-05
-0.000109254
9.9096e-05
-0.000141221
0.000127969
-0.000178769
0.000162007
-0.000222452
0.000201773
-0.000272852
0.000247882
-0.000330583
0.00030101
-0.000396292
0.000361902
-0.000470655
0.000431388
-0.000554386
0.000510407
-0.000648249
0.000600047
-0.00075308
0.000701621
-0.000869856
0.000816782
-0.000999831
0.000947722
-0.00114484
0.00109753
-0.0013079
0.00127022
-0.0014951
-0.00172039
0.00146316
9.52113e-07
-2.80461e-06
3.94809e-06
-1.06328e-05
9.2443e-06
-2.12863e-05
1.71227e-05
-3.5129e-05
2.78928e-05
-5.2562e-05
4.18944e-05
-7.40163e-05
5.94995e-05
-9.99542e-05
8.11152e-05
-0.00013087
0.000107186
-0.000167292
0.000138198
-0.000209781
0.000174679
-0.000258933
0.000217207
-0.000315379
0.000266408
-0.000379785
0.000322969
-0.000452853
0.00038764
-0.000535325
0.000461246
-0.000627992
0.000544706
-0.000731709
0.000639058
-0.000847432
0.000745487
-0.000976285
0.000865356
-0.0011197
0.00100019
-0.00127967
0.00115148
-0.0014592
0.00131968
-0.0016633
-0.0019
0.00149929
1.03568e-06
-3.84028e-06
4.28554e-06
-1.38827e-05
1.00178e-05
-2.70185e-05
1.85266e-05
-4.36379e-05
3.01342e-05
-6.41696e-05
4.51929e-05
-8.9075e-05
6.40874e-05
-0.000118849
8.72369e-05
-0.00015402
0.000115097
-0.000195152
0.000148164
-0.000242847
0.000186972
-0.000297742
0.000232103
-0.00036051
0.00028418
-0.000431863
0.000343879
-0.000512552
0.000411925
-0.000603371
0.000489099
-0.000705166
0.00057624
-0.00081885
0.000674246
-0.000945438
0.000784061
-0.0010861
0.00090663
-0.00124227
0.00104276
-0.0014158
0.00119276
-0.0016092
0.00135553
-0.00182607
-0.00207083
0.00152636
1.11831e-06
-4.95859e-06
4.6187e-06
-1.73831e-05
1.07803e-05
-3.31801e-05
1.99083e-05
-5.27658e-05
3.23356e-05
-7.65969e-05
4.84251e-05
-0.000105165
6.85711e-05
-0.000138995
9.32011e-05
-0.00017865
0.000122778
-0.000224729
0.000157799
-0.000277868
0.0001988
-0.000338743
0.000246353
-0.000408063
0.000301068
-0.000486577
0.000363589
-0.000575073
0.000434596
-0.000674378
0.000514795
-0.000785365
0.000604911
-0.000908966
0.000705667
-0.00104619
0.000817743
-0.00119818
0.000941694
-0.00136622
0.00107778
-0.00155188
0.00122564
-0.00175706
0.00138369
-0.00198413
-0.00223535
0.00154822
1.19973e-06
-6.15832e-06
4.94636e-06
-2.11297e-05
1.15288e-05
-3.97625e-05
2.12617e-05
-6.24987e-05
3.4487e-05
-8.98223e-05
5.15756e-05
-0.000122253
7.29282e-05
-0.000160347
9.8977e-05
-0.000204698
0.000130186
-0.000255937
0.00016705
-0.000314733
0.000210097
-0.000381789
0.000259882
-0.000457848
0.000316987
-0.000543682
0.000382015
-0.000640102
0.000455583
-0.000747945
0.000538306
-0.000868088
0.000630783
-0.00100144
0.000733559
-0.00114897
0.000847072
-0.00131169
0.000971565
-0.00149071
0.00110693
-0.00168724
0.00125246
-0.00190259
0.00140654
-0.00213821
-0.00239502
0.00156621
1.27975e-06
-7.43808e-06
5.26755e-06
-2.51175e-05
1.22608e-05
-4.67558e-05
2.25821e-05
-7.282e-05
3.65803e-05
-0.00010382
5.46316e-05
-0.000140304
7.71405e-05
-0.000182856
0.00010454
-0.000232098
0.00013729
-0.000288688
0.000175878
-0.000353321
0.000220817
-0.000426728
0.000272637
-0.000509668
0.000331884
-0.00060293
0.000399111
-0.000707329
0.000474863
-0.000823697
0.000559658
-0.000952884
0.000653968
-0.00109575
0.000758172
-0.00125317
0.000872507
-0.00142602
0.000996976
-0.00161518
0.00113123
-0.0018215
0.00127442
-0.00204578
0.00142497
-0.00228876
-0.0025505
0.00158045
1.35821e-06
-8.79629e-06
5.58148e-06
-2.93408e-05
1.29743e-05
-5.41487e-05
2.38654e-05
-8.37111e-05
3.86084e-05
-0.000118563
5.75824e-05
-0.000159278
8.11923e-05
-0.000206466
0.000109868
-0.000260773
0.000144062
-0.000322882
0.000184249
-0.000393508
0.00023092
-0.000473398
0.000284576
-0.000563323
0.00034572
-0.000664075
0.000414848
-0.000776456
0.000492427
-0.000901276
0.000578881
-0.00103934
0.000674558
-0.00119143
0.000779691
-0.00135831
0.000894347
-0.00154068
0.00101835
-0.00173919
0.00115121
-0.00195435
0.00129197
-0.00218654
0.00143914
-0.00243593
-0.00270199
0.00159063
1.43496e-06
-1.02312e-05
5.88736e-06
-3.37932e-05
1.36672e-05
-6.19285e-05
2.51075e-05
-9.51514e-05
4.05643e-05
-0.00013402
6.04173e-05
-0.000179131
8.50684e-05
-0.000231117
0.000114941
-0.000290646
0.000150477
-0.000358417
0.000192132
-0.000435163
0.000240371
-0.000521638
0.00029566
-0.000618613
0.000358455
-0.00072687
0.00042919
-0.000847191
0.000508256
-0.000980341
0.000595979
-0.00112706
0.000692594
-0.00128804
0.000798204
-0.00146392
0.000912733
-0.00165521
0.00103587
-0.00186233
0.001167
-0.00208549
0.00130515
-0.00232468
0.00144887
-0.00257966
-0.00284939
0.00159627
1.5098e-06
-1.1741e-05
6.18427e-06
-3.84677e-05
1.43372e-05
-7.00815e-05
2.63039e-05
-0.000107118
4.24407e-05
-0.000150157
6.31248e-05
-0.000199816
8.87527e-05
-0.000256745
0.000119737
-0.00032163
0.000156505
-0.000395185
0.000199491
-0.000478149
0.000249128
-0.000571275
0.000305844
-0.000675328
0.000370042
-0.000791069
0.000442092
-0.000919241
0.000522307
-0.00106056
0.000610921
-0.00121568
0.00070806
-0.00138518
0.00081371
-0.00156957
0.000927675
-0.00176917
0.00104953
-0.00198418
0.00117858
-0.00221453
0.0013138
-0.0024599
0.00145381
-0.00271967
-0.00299243
0.00159685
1.58248e-06
-1.33235e-05
6.4711e-06
-4.33563e-05
1.49816e-05
-7.8592e-05
2.74494e-05
-0.000119586
4.42288e-05
-0.000166937
6.56921e-05
-0.000221279
9.22267e-05
-0.00028328
0.000124233
-0.000353636
0.000162117
-0.00043307
0.000206288
-0.00052232
0.000257146
-0.000622133
0.000315073
-0.000733255
0.00038042
-0.000856416
0.000453489
-0.00099231
0.000534515
-0.00114158
0.000623639
-0.0013048
0.000720889
-0.00148243
0.000826141
-0.00167482
0.000939093
-0.00188213
0.00105922
-0.00210431
0.00118577
-0.00234108
0.00131768
-0.00259181
0.0014536
-0.0028556
-0.00313071
0.00159188
1.65265e-06
-1.49762e-05
6.74638e-06
-4.845e-05
1.55969e-05
-8.74425e-05
2.85377e-05
-0.000132527
4.59185e-05
-0.000184317
6.81038e-05
-0.000243464
9.54693e-05
-0.000310645
0.000128398
-0.000386565
0.000167275
-0.000471947
0.000212478
-0.000567523
0.00026437
-0.000674025
0.000323285
-0.000792171
0.000389518
-0.000922648
0.0004633
-0.00106609
0.000544789
-0.00122307
0.000634038
-0.00139405
0.000730977
-0.00157937
0.000835383
-0.00177923
0.000946856
-0.0019936
0.00106479
-0.00222225
0.00118837
-0.00246465
0.00131651
-0.00271996
0.0014479
-0.00298698
-0.00326376
0.00158096
1.71987e-06
-1.6696e-05
7.00834e-06
-5.37385e-05
1.61791e-05
-9.66132e-05
2.95613e-05
-0.000145909
4.74978e-05
-0.000202254
7.03425e-05
-0.000266309
9.84562e-05
-0.000338759
0.000132202
-0.000420311
0.000171938
-0.000511683
0.00021801
-0.000613594
0.000270738
-0.000726753
0.000330407
-0.00085184
0.00039725
-0.000989491
0.000471431
-0.00114027
0.000553026
-0.00130467
0.000642003
-0.00148303
0.000738198
-0.00167557
0.000841297
-0.00188232
0.000950812
-0.00210311
0.00106607
-0.0023375
0.00118618
-0.00258477
0.00131007
-0.00284385
0.00143645
-0.00311336
-0.00339112
0.00156381
1.78364e-06
-1.84797e-05
7.25491e-06
-5.92098e-05
1.67234e-05
-0.000106082
3.05118e-05
-0.000159697
4.89533e-05
-0.000220695
7.23884e-05
-0.000289744
0.00010116
-0.000367531
0.000135608
-0.000454759
0.000176061
-0.000552136
0.000222828
-0.000660361
0.000276184
-0.000780109
0.00033636
-0.000912017
0.000403528
-0.00105666
0.00047778
-0.00121453
0.000559113
-0.001386
0.00064741
-0.00157132
0.00074242
-0.00177058
0.000843741
-0.00198365
0.000950807
-0.00221018
0.00106288
-0.00244957
0.00117903
-0.00270092
0.00129817
-0.00296299
0.00141904
-0.00323423
-0.00351231
0.00154023
1.84335e-06
-2.0323e-05
7.48374e-06
-6.48501e-05
1.72245e-05
-0.000115822
3.13796e-05
-0.000173852
5.027e-05
-0.000239586
7.422e-05
-0.000313694
0.000103552
-0.000396862
0.000138578
-0.000489786
0.000179596
-0.000593153
0.000226872
-0.000707637
0.000280636
-0.000833873
0.000341062
-0.000972443
0.000408256
-0.00112385
0.000482241
-0.00128851
0.000562935
-0.00146669
0.000650137
-0.00165853
0.000743514
-0.00186395
0.000842583
-0.00208271
0.000946708
-0.0023143
0.00105509
-0.00255795
0.00116678
-0.00281261
0.00128069
-0.0030769
0.00139558
-0.00334913
-0.00362688
0.00151015
1.89834e-06
-2.22214e-05
7.69226e-06
-7.06441e-05
1.76768e-05
-0.000125807
3.21546e-05
-0.00018833
5.1432e-05
-0.000258863
7.58144e-05
-0.000338076
0.0001056
-0.000426648
0.000141072
-0.000525258
0.000182492
-0.000634572
0.000230082
-0.000755227
0.000284022
-0.000887813
0.000344429
-0.00103285
0.000411344
-0.00119077
0.000484714
-0.00136188
0.000564384
-0.00154636
0.000650072
-0.00174421
0.000741367
-0.00195525
0.000837713
-0.00217906
0.000938411
-0.002415
0.00104262
-0.00266216
0.00114937
-0.00291936
0.00125757
-0.0031851
0.00136606
-0.00345761
-0.00373442
0.0014736
1.94792e-06
-2.41693e-05
7.87775e-06
-7.65739e-05
1.80741e-05
-0.000136003
3.28261e-05
-0.000203082
5.2423e-05
-0.00027846
7.71483e-05
-0.000362802
0.000107274
-0.000456773
0.00014305
-0.000561035
0.000184698
-0.000676221
0.000232398
-0.000802927
0.000286274
-0.000941689
0.000346384
-0.00109296
0.000412702
-0.00125709
0.000485107
-0.00143428
0.000563364
-0.00162462
0.00064712
-0.00182797
0.000735888
-0.00204402
0.000829049
-0.00227222
0.000925851
-0.0025118
0.00102542
-0.00276173
0.00112677
-0.00302071
0.00122885
-0.00328718
0.00133053
-0.0035593
-0.00383458
0.0014307
1.99135e-06
-2.61606e-05
8.03741e-06
-8.262e-05
1.84103e-05
-0.000146376
3.33834e-05
-0.000218055
5.32263e-05
-0.000298303
7.81982e-05
-0.000387773
0.000108541
-0.000487117
0.000144472
-0.000596965
0.000186168
-0.000717917
0.000233763
-0.000850522
0.000287326
-0.000995252
0.000346854
-0.00115249
0.000412255
-0.00132249
0.000483337
-0.00150537
0.000559796
-0.00170108
0.000641205
-0.00190938
0.000727013
-0.00212983
0.000816545
-0.00236175
0.000909005
-0.00260426
0.0010035
-0.00285622
0.00109904
-0.00311625
0.00119461
-0.00338275
0.00128915
-0.00365384
-0.00392708
0.00138165
2.0279e-06
-2.81885e-05
8.16845e-06
-8.87605e-05
1.86793e-05
-0.000156887
3.38159e-05
-0.000233192
5.38257e-05
-0.000318313
7.89414e-05
-0.000412889
0.000109373
-0.000517548
0.000145299
-0.000632891
0.000186856
-0.000759474
0.000234124
-0.00089779
0.000287118
-0.00104825
0.000345775
-0.00121114
0.000409936
-0.00138665
0.000479342
-0.00157477
0.00055362
-0.00177536
0.000632279
-0.00198804
0.00071471
-0.00221226
0.00080019
-0.00244723
0.000887893
-0.00269197
0.00097691
-0.00294524
0.00106628
-0.00320562
0.00115501
-0.00347148
0.00124213
-0.00374096
-0.00401168
0.00132673
2.05687e-06
-3.02454e-05
8.26817e-06
-9.49718e-05
1.88751e-05
-0.000167494
3.41133e-05
-0.00024843
5.42058e-05
-0.000338405
7.93565e-05
-0.00043804
0.000109741
-0.000547933
0.000145499
-0.000668649
0.00018672
-0.000800695
0.000233435
-0.000944505
0.000285602
-0.00110041
0.000343095
-0.00126864
0.000405694
-0.00144925
0.000473075
-0.00164215
0.0005448
-0.00184708
0.000620321
-0.00206356
0.000698979
-0.00229092
0.000780014
-0.00252827
0.000862579
-0.00277453
0.000945768
-0.00302843
0.00102864
-0.00328849
0.00111026
-0.0035531
0.00118974
-0.00382043
-0.00408821
0.00126627
2.07758e-06
-3.2323e-05
8.33399e-06
-0.000101228
1.89923e-05
-0.000178152
3.42661e-05
-0.000263704
5.43525e-05
-0.000358492
7.94242e-05
-0.000463112
0.000109621
-0.00057813
0.000145041
-0.000704069
0.000185727
-0.000841381
0.000231658
-0.000990435
0.000282736
-0.00115149
0.000338776
-0.00132468
0.000399496
-0.00150997
0.000464509
-0.00170717
0.000533323
-0.00191589
0.000605338
-0.00213557
0.000679853
-0.00236543
0.000756082
-0.0026045
0.000833169
-0.00285162
0.00091022
-0.00310548
0.00098633
-0.0033646
0.00106062
-0.0036274
0.00113229
-0.0038921
-0.00415657
0.00120065
2.08938e-06
-3.44124e-05
8.36354e-06
-0.000107502
1.90257e-05
-0.000188814
3.42659e-05
-0.000278944
5.4253e-05
-0.000378479
7.91274e-05
-0.000487986
0.000108991
-0.000607994
0.0001439
-0.000738977
0.000183848
-0.000881329
0.000228764
-0.00103535
0.000278493
-0.00120122
0.000332793
-0.00137898
0.000391323
-0.0015685
0.000453642
-0.00176949
0.000519204
-0.00198146
0.000587366
-0.00220374
0.000657398
-0.00243546
0.000728495
-0.00267559
0.000799805
-0.00292293
0.000870456
-0.00317613
0.000939588
-0.00343374
0.00100639
-0.0036942
0.00107015
-0.00395586
-0.0042167
0.00113029
2.09169e-06
-3.65041e-05
8.35468e-06
-0.000113765
1.89709e-05
-0.000199431
3.4105e-05
-0.000294078
5.38967e-05
-0.000398271
7.84519e-05
-0.000512541
0.000107834
-0.000637377
0.000142055
-0.000773198
0.000181063
-0.000920337
0.000224732
-0.00107902
0.000272856
-0.00124934
0.000325136
-0.00143126
0.000381178
-0.00162454
0.000440488
-0.0018288
0.000502478
-0.00204345
0.000566469
-0.00226773
0.000631708
-0.0025007
0.000697386
-0.00274127
0.000762663
-0.00298821
0.0008267
-0.00324016
0.00088869
-0.00349573
0.000947897
-0.00375341
0.00100369
-0.00401166
-0.00426862
0.0010556
2.08401e-06
-3.85881e-05
8.3056e-06
-0.000119987
1.8824e-05
-0.000209949
3.37775e-05
-0.000309032
5.32748e-05
-0.000417768
7.73868e-05
-0.000536653
0.000106138
-0.000666128
0.000139495
-0.000806555
0.000177359
-0.000958201
0.000219554
-0.00112122
0.000265822
-0.00129561
0.000315812
-0.00148125
0.00036908
-0.00167781
0.000425087
-0.0018848
0.000483207
-0.00210157
0.000542736
-0.00232726
0.000602908
-0.00256087
0.000662919
-0.00280128
0.00072195
-0.00304724
0.000779204
-0.00329742
0.000833934
-0.00355046
0.000885482
-0.00380496
0.000933309
-0.00405948
-0.00431235
0.000977041
2.06594e-06
-4.0654e-05
8.21484e-06
-0.000126136
1.85822e-05
-0.000220316
3.32785e-05
-0.000323728
5.2381e-05
-0.00043687
7.59245e-05
-0.000560197
0.000103893
-0.000694097
0.000136211
-0.000838872
0.000172732
-0.000994722
0.000213232
-0.00116172
0.000257402
-0.00133978
0.000304843
-0.00152869
0.000355067
-0.00172803
0.000407496
-0.00193723
0.000461475
-0.00215555
0.000516282
-0.00238206
0.000571147
-0.00261574
0.00062528
-0.00285541
0.000677894
-0.00309985
0.00072824
-0.00334777
0.00077564
-0.00359786
0.000819512
-0.00384883
0.000859407
-0.00409938
-0.00434798
0.000895043
2.03712e-06
-4.26911e-05
8.08122e-06
-0.00013218
1.82431e-05
-0.000230478
3.26049e-05
-0.00033809
5.12113e-05
-0.000455477
7.40611e-05
-0.000583047
0.000101099
-0.000721134
0.000132205
-0.000869978
0.000167187
-0.0010297
0.000205777
-0.00120031
0.000247617
-0.00138162
0.000292266
-0.00157334
0.000339195
-0.00177496
0.000387795
-0.00198583
0.000437388