/*--------------------------------*- C++ -*----------------------------------*\
  =========                 |
  \\      /  F ield         | OpenFOAM: The Open Source CFD Toolbox
   \\    /   O peration     | Website:  https://openfoam.org
    \\  /    A nd           | Version:  7
     \\/     M anipulation  |
\*---------------------------------------------------------------------------*/
FoamFile
{
    version     2.0;
    format      ascii;
    class       volVectorField;
    location    "10";
    object      U;
}
// * * * * * * * * * * * * * * * * * * * * * * * * * * * * * * * * * * * * * //

dimensions      [0 1 -1 0 0 0 0];

internalField   nonuniform List<vector> 
25088
(
(-8.31704e-05 0.00016799 -6.63995e-22)
(-0.0004751 0.000457741 6.45048e-21)
(-0.00131208 0.000707067 -9.29992e-22)
(-0.00252094 0.000917513 -1.06332e-21)
(-0.00403997 0.00109044 2.59369e-21)
(-0.00582743 0.0012271 2.87987e-21)
(-0.00784007 0.00132895 5.84236e-21)
(-0.0100314 0.00139776 4.27577e-21)
(-0.0123543 0.00143552 2.27593e-22)
(-0.0147618 0.00144446 5.38609e-21)
(-0.0172081 0.00142705 5.4744e-21)
(-0.0196487 0.00138605 -1.07528e-20)
(-0.022042 0.00132444 7.36713e-21)
(-0.0243494 0.00124551 5.57825e-22)
(-0.0265373 0.00115281 4.57416e-21)
(-0.0285769 0.00105018 -7.62569e-21)
(-0.0304465 0.000941694 5.87228e-21)
(-0.0321316 0.000831674 1.44103e-21)
(-0.0336261 0.000724577 -4.33609e-21)
(-0.0349334 0.000624893 4.28651e-21)
(-0.0360673 0.000536906 9.92643e-22)
(-0.0370486 0.00046423 2.06729e-22)
(-0.0378987 0.000410188 1.08992e-20)
(-0.0386828 0.00038042 -1.56517e-20)
(-0.000104202 0.000501365 1.77266e-21)
(-0.000529369 0.0013659 -5.95634e-21)
(-0.00138858 0.00210966 1.77256e-21)
(-0.00260918 0.00273722 -1.64498e-21)
(-0.00412977 0.00325265 -8.31504e-21)
(-0.00590863 0.00365964 -7.88906e-21)
(-0.00790254 0.00396261 -7.90518e-21)
(-0.0100651 0.00416681 1.16079e-20)
(-0.0123493 0.00427818 -1.22024e-20)
(-0.0147083 0.00430341 -1.45532e-20)
(-0.0170962 0.0042499 -7.95658e-21)
(-0.0194688 0.00412586 -9.77202e-22)
(-0.0217844 0.00394027 7.56982e-21)
(-0.0240048 0.00370294 3.72106e-21)
(-0.0260961 0.00342451 4.17721e-22)
(-0.0280301 0.00311647 -4.51673e-21)
(-0.0297848 0.00279111 -3.07904e-21)
(-0.0313461 0.00246138 1.0815e-20)
(-0.0327083 0.00214071 -3.23821e-21)
(-0.0338753 0.00184263 -1.2157e-20)
(-0.0348616 0.00158008 1.06397e-21)
(-0.035689 0.00136404 3.5059e-21)
(-0.0363757 0.00120482 2.94631e-21)
(-0.0369908 0.00111946 3.30407e-20)
(-0.000145688 0.000827019 3.19025e-22)
(-0.000636295 0.00225239 9.46443e-21)
(-0.00153905 0.00347808 8.81436e-21)
(-0.00278233 0.00451159 -1.82571e-20)
(-0.00430532 0.0053596 -1.58271e-20)
(-0.00606634 0.0060282 2.17637e-21)
(-0.00802227 0.00652471 -3.22325e-20)
(-0.0101268 0.00685779 9.84801e-21)
(-0.0123332 0.00703729 -1.14947e-21)
(-0.0145947 0.00707427 3.28719e-20)
(-0.0168656 0.00698101 -1.8901e-20)
(-0.019102 0.00677109 2.04644e-21)
(-0.0212623 0.00645942 1.22858e-20)
(-0.0233085 0.00606226 -2.69172e-21)
(-0.0252068 0.00559733 -2.38826e-20)
(-0.0269293 0.00508374 2.0124e-20)
(-0.0284545 0.00454199 4.07011e-21)
(-0.0297684 0.00399375 -5.54191e-20)
(-0.0308661 0.00346155 4.09671e-20)
(-0.0317524 0.00296819 4.16711e-21)
(-0.0324439 0.00253552 1.15891e-21)
(-0.0329637 0.00218226 -3.10556e-20)
(-0.033324 0.00192673 -3.46445e-20)
(-0.0336015 0.00179781 -1.90945e-20)
(-0.000206491 0.00113996 -1.3704e-20)
(-0.000792682 0.00310315 1.50637e-20)
(-0.00175849 0.00479016 1.44593e-20)
(-0.00303376 0.00621121 -9.31401e-21)
(-0.00455856 0.00737543 -2.66031e-21)
(-0.00629127 0.00829124 8.74571e-21)
(-0.00818883 0.00896877 -1.05631e-20)
(-0.0102052 0.00942001 -1.20275e-20)
(-0.0122938 0.0096586 8.83542e-21)
(-0.0144083 0.00969987 -1.14115e-20)
(-0.0165032 0.00956087 1.70427e-20)
(-0.0185347 0.00926043 1.85163e-20)
(-0.0204617 0.00881925 -3.07943e-20)
(-0.0222463 0.00825998 -1.59623e-20)
(-0.0238552 0.0076073 -3.74184e-20)
(-0.0252606 0.00688793 1.42544e-20)
(-0.0264415 0.00613061 1.27517e-21)
(-0.0273847 0.00536583 9.17748e-20)
(-0.028086 0.00462546 -6.74503e-20)
(-0.0285517 0.00394192 -1.69864e-20)
(-0.0288013 0.0033464 1.39482e-20)
(-0.0288605 0.00286597 -5.46214e-20)
(-0.0287321 0.00252854 7.0015e-20)
(-0.0285034 0.00237566 1.03525e-20)
(-0.000284926 0.0014354 9.99618e-21)
(-0.000993801 0.00390473 3.74376e-21)
(-0.00203946 0.00602466 4.4679e-21)
(-0.00335364 0.00780784 -5.09668e-21)
(-0.00487752 0.00926569 1.44154e-20)
(-0.00656952 0.0104089 -3.27755e-20)
(-0.00838669 0.0112502 -1.89382e-20)
(-0.0102833 0.0118048 -6.94236e-21)
(-0.012213 0.0120901 -1.08944e-20)
(-0.0141298 0.0121254 2.9015e-20)
(-0.0159887 0.0119325 3.31627e-20)
(-0.0177462 0.0115352 -5.19554e-21)
(-0.0193615 0.0109599 4.2204e-20)
(-0.020797 0.0102355 -7.0111e-20)
(-0.0220199 0.0093934 2.16324e-20)
(-0.0230026 0.008468 -3.30936e-20)
(-0.0237248 0.00749623 -1.60956e-20)
(-0.024174 0.00651762 -2.96637e-20)
(-0.0243474 0.00557365 -1.38561e-20)
(-0.024253 0.00470689 -1.46434e-20)
(-0.0239143 0.00395845 7.05115e-21)
(-0.0233609 0.00336448 6.11301e-20)
(-0.0225829 0.00296419 -4.28913e-20)
(-0.0216786 0.00281304 4.83436e-20)
(-0.000378799 0.00170886 4.61038e-21)
(-0.00123346 0.00464446 2.5451e-21)
(-0.0023722 0.00716153 8.3567e-21)
(-0.00372903 0.00927483 -1.22529e-20)
(-0.00524639 0.0109979 2.31449e-20)
(-0.00688273 0.0123433 6.63218e-21)
(-0.00859523 0.0133267 -6.13346e-21)
(-0.0103385 0.0139662 1.90539e-20)
(-0.0120665 0.0142826 1.38705e-21)
(-0.0137337 0.0142992 1.03191e-21)
(-0.0152955 0.0140422 -7.58658e-21)
(-0.016709 0.0135403 -1.666e-20)
(-0.0179335 0.0128253 -6.02348e-20)
(-0.0189321 0.0119321 6.91338e-20)
(-0.0196722 0.0108987 2.57667e-20)
(-0.0201267 0.00976709 -2.81189e-20)
(-0.020276 0.00858239 4.48847e-21)
(-0.0201085 0.00739331 6.37493e-20)
(-0.0196227 0.00625144 -3.77219e-21)
(-0.0188292 0.00521016 -1.13807e-20)
(-0.0177566 0.00432133 -7.3214e-20)
(-0.01644 0.00363116 4.61033e-20)
(-0.0148546 0.00319266 -5.2744e-20)
(-0.0131021 0.0030753 -4.22766e-21)
(-0.000485437 0.00195621 -3.61001e-21)
(-0.00150411 0.00531064 -2.36259e-20)
(-0.00274478 0.00818222 -6.59188e-21)
(-0.00414399 0.0105875 -6.9365e-20)
(-0.00564567 0.0125417 2.26181e-20)
(-0.00720822 0.0140598 -1.59999e-20)
(-0.00878891 0.0151594 -2.11779e-20)
(-0.0103427 0.0158617 4.74074e-20)
(-0.0118241 0.0161908 -4.87163e-20)
(-0.0131879 0.0161739 6.89841e-21)
(-0.0143902 0.0158409 -4.54505e-20)
(-0.0153883 0.0152255 3.31638e-20)
(-0.0161423 0.0143644 6.11986e-21)
(-0.0166156 0.0132983 -2.66052e-20)
(-0.0167759 0.0120718 9.73148e-20)
(-0.0165968 0.0107339 -9.95731e-22)
(-0.0160591 0.00933813 2.87867e-21)
(-0.0151524 0.00794258 -4.21813e-20)
(-0.0138767 0.00660945 -3.98398e-20)
(-0.0122455 0.00540385 1.92525e-19)
(-0.0102935 0.00438968 1.00441e-19)
(-0.00806401 0.00362547 -1.61189e-20)
(-0.00551785 0.00318599 -6.01833e-20)
(-0.00275245 0.00316047 1.19767e-19)
(-0.000601728 0.00217371 8.79668e-21)
(-0.00179691 0.00589266 2.1487e-20)
(-0.00314315 0.00906987 -4.40945e-20)
(-0.00457978 0.0117233 -3.35742e-20)
(-0.0060523 0.01387 3.37383e-20)
(-0.00751903 0.0155264 8.25757e-21)
(-0.00893734 0.0167127 1.72117e-20)
(-0.0102625 0.0174529 -2.89997e-20)
(-0.0114496 0.0177739 -3.98313e-20)
(-0.0124541 0.0177065 -5.0311e-21)
(-0.0132324 0.0172846 2.10495e-20)
(-0.0137426 0.0165459 -3.72539e-20)
(-0.0139452 0.015532 6.64146e-20)
(-0.0138041 0.014289 -6.49689e-20)
(-0.0132874 0.0128676 -8.78203e-20)
(-0.0123692 0.0113239 2.32946e-21)
(-0.0110308 0.00971944 -2.25831e-20)
(-0.00926283 0.00812193 2.35925e-20)
(-0.00706682 0.00660473 -3.69654e-20)
(-0.00445932 0.00524574 9.24241e-20)
(-0.00148165 0.00412246 7.81915e-20)
(0.0018169 0.0033087 -9.68592e-20)
(0.0054934 0.00290757 2.4866e-20)
(0.00940072 0.00302033 -6.44349e-20)
(-0.000724164 0.00235806 -7.53486e-21)
(-0.00210185 0.00638108 1.20259e-20)
(-0.00355135 0.0098095 3.06048e-20)
(-0.00501496 0.0126624 2.31393e-20)
(-0.00643985 0.0149581 1.81192e-21)
(-0.00778419 0.016715 -3.13579e-20)
(-0.00900541 0.0179554 -3.90963e-20)
(-0.0100592 0.0187058 8.15669e-20)
(-0.0109013 0.0189961 7.2176e-21)
(-0.0114875 0.0188601 6.37977e-21)
(-0.0117752 0.0183353 -3.92136e-20)
(-0.011723 0.0174632 5.54421e-20)
(-0.0112919 0.01629 -7.3906e-20)
(-0.0104464 0.0148665 1.50564e-20)
(-0.00915509 0.0132492 7.18815e-20)
(-0.00739227 0.0115008 -6.14816e-20)
(-0.0051398 0.00969075 5.31351e-20)
(-0.00238905 0.00789635 -4.78072e-21)
(0.000856865 0.00620257 -1.89302e-19)
(0.00457826 0.00470116 4.81904e-20)
(0.00872628 0.00348477 -6.02087e-21)
(0.0132442 0.00264474 1.1521e-19)
(0.0182084 0.00231524 1.34682e-20)
(0.023423 0.00261218 1.49183e-19)
(-0.000848876 0.00250639 -1.93227e-20)
(-0.00240784 0.0067677 3.82664e-20)
(-0.0039516 0.0103881 -2.86581e-20)
(-0.00542558 0.0133874 -4.69302e-20)
(-0.00677864 0.0157851 -2.7521e-20)
(-0.00796879 0.0176014 6.71512e-20)
(-0.00895348 0.0188607 4.43243e-20)
(-0.0096889 0.0195917 2.85778e-20)
(-0.0101312 0.0198272 3.08423e-21)
(-0.0102373 0.0196036 4.3401e-20)
(-0.00996491 0.0189618 9.54005e-20)
(-0.00927353 0.0179467 -4.38366e-20)
(-0.00812491 0.0166082 3.2449e-20)
(-0.00648391 0.0150017 -1.15977e-19)
(-0.00431957 0.0131887 -5.33714e-20)
(-0.00160652 0.011238 3.4676e-20)
(0.00167308 0.00922663 -6.35905e-21)
(0.00552725 0.00724125 7.27704e-20)
(0.00995161 0.00537881 4.2062e-23)
(0.0149233 0.00374597 2.41977e-20)
(0.0203853 0.00245259 -7.46012e-20)
(0.0262713 0.00161106 -2.24587e-19)
(0.0326779 0.00139543 -1.54463e-19)
(0.0393632 0.0019459 -3.44963e-20)
(-0.000971665 0.00261627 1.73429e-20)
(-0.0027028 0.00704557 -6.37946e-20)
(-0.00432444 0.0107946 -1.39139e-20)
(-0.00578527 0.0138836 -9.25456e-21)
(-0.00703594 0.0163332 3.91665e-20)
(-0.00803418 0.0181653 -5.82586e-20)
(-0.00873751 0.0194063 -6.84311e-20)
(-0.00910261 0.0200872 5.90162e-20)
(-0.00908634 0.020243 -2.80022e-20)
(-0.00864629 0.0199129 7.80174e-20)
(-0.00774115 0.0191403 -8.43107e-20)
(-0.00633122 0.0179734 -4.43497e-20)
(-0.00437898 0.0164653 -1.29303e-20)
(-0.00184988 0.0146751 -4.86716e-20)
(0.00128661 0.0126686 6.70402e-20)
(0.00505567 0.0105201 -1.75834e-20)
(0.00947501 0.00831344 -3.96827e-20)
(0.0145523 0.00614431 -7.95589e-20)
(0.0202824 0.00412171 3.95485e-20)
(0.0266395 0.00236827 2.39945e-20)
(0.0335579 0.00101313 -8.26961e-20)
(0.0409604 0.000194032 -7.89476e-21)
(0.0489648 0.000136181 1.35568e-19)
(0.0572805 0.00101317 1.5695e-20)
(-0.00108803 0.0026857 -3.50354e-21)
(-0.0029737 0.00720899 -7.64498e-21)
(-0.00464883 0.01102 -1.89209e-20)
(-0.00606546 0.0141393 6.78741e-21)
(-0.00717608 0.0165884 2.90449e-20)
(-0.00793818 0.0183909 2.12442e-20)
(-0.00830929 0.0195752 -2.27201e-20)
(-0.00824664 0.0201745 -6.3253e-20)
(-0.00770788 0.0202258 6.16393e-20)
(-0.00665147 0.0197706 -2.18042e-20)
(-0.0050371 0.0188549 -2.16541e-20)
(-0.00282601 0.0175292 9.70829e-20)
(1.8424e-05 0.0158493 7.76754e-20)
(0.00353003 0.0138774 8.20186e-20)
(0.00773893 0.0116828 -5.25921e-20)
(0.0126701 0.00934401 -6.59715e-20)
(0.0183413 0.00695094 4.41999e-20)
(0.0247604 0.00460737 9.83608e-20)
(0.0319218 0.00243415 1.08813e-19)
(0.0397976 0.000570506 -3.60913e-21)
(0.0483134 -0.000833048 -1.42523e-19)
(0.0573802 -0.00160873 -4.18745e-20)
(0.0671387 -0.00146726 -5.37838e-20)
(0.0772442 -0.00019103 5.2673e-20)
(-0.00119317 0.00271309 1.31033e-20)
(-0.00320667 0.00725346 4.54438e-20)
(-0.00490224 0.0110573 -1.00283e-20)
(-0.00623546 0.0141455 4.13598e-20)
(-0.00716074 0.01654 -2.21819e-20)
(-0.00763527 0.0182665 -7.15072e-20)
(-0.00761669 0.0193553 6.40981e-20)
(-0.00706281 0.0198415 1.54538e-20)
(-0.00593214 0.0197642 -5.72905e-20)
(-0.00418419 0.019167 5.76929e-20)
(-0.00177974 0.0180977 1.72658e-20)
(0.0013188 0.0166089 -1.34684e-20)
(0.00514701 0.0147585 2.23381e-20)
(0.00973783 0.0126107 4.01316e-22)
(0.0151208 0.0102374 -4.21912e-20)
(0.0213207 0.0077203 -2.0272e-20)
(0.0283556 0.00515373 1.03518e-19)
(0.0362336 0.00264838 3.32002e-20)
(0.0449498 0.000335965 -9.10685e-20)
(0.054475 -0.00162764 2.34101e-20)
(0.064727 -0.00306893 -2.22913e-19)
(0.0756048 -0.00378508 2.52011e-19)
(0.0872736 -0.00340803 -4.21845e-20)
(0.0993287 -0.00166281 1.99985e-20)
(-0.00128203 0.00269726 3.60995e-20)
(-0.00338698 0.00717566 5.10904e-20)
(-0.00506079 0.0109016 2.51272e-20)
(-0.00626265 0.0138958 -4.92077e-20)
(-0.00694906 0.016181 7.70796e-20)
(-0.00707693 0.0177849 -8.93716e-20)
(-0.00660401 0.0187397 -7.28976e-20)
(-0.00548881 0.0190823 1.64642e-20)
(-0.0036908 0.0188539 7.41725e-22)
(-0.00117064 0.0180996 -2.02491e-20)
(0.00210959 0.0168691 -1.04652e-19)
(0.00618614 0.0152165 -8.00138e-20)
(0.0110933 0.0132011 -1.79762e-20)
(0.0168627 0.0108884 -7.19866e-20)
(0.0235233 0.00835144 -4.69454e-20)
(0.0310993 0.00567381 5.33601e-20)
(0.0396091 0.00295254 4.04476e-20)
(0.0490618 0.00030318 -2.46045e-20)
(0.0594535 -0.00213357 -8.31495e-20)
(0.0707555 -0.0041862 1.64441e-19)
(0.0828793 -0.00565753 -3.63976e-21)
(0.0957125 -0.00630488 -2.34186e-20)
(0.109447 -0.00566439 -1.57815e-19)
(0.123612 -0.00338398 4.79291e-21)
(-0.00134929 0.00263737 4.85354e-20)
(-0.0034992 0.00697343 -1.50823e-20)
(-0.0050993 0.0105498 -8.49617e-20)
(-0.00611269 0.0133869 6.62468e-21)
(-0.00649801 0.0155082 2.9925e-20)
(-0.00621197 0.0169432 -4.69644e-20)
(-0.00521247 0.0177265 3.12627e-20)
(-0.00345881 0.0178967 -1.88537e-20)
(-0.000911522 0.0174967 -2.21913e-20)
(0.00246745 0.0165734 -8.15338e-20)
(0.00671454 0.0151778 1.1517e-19)
(0.0118644 0.0133651 9.5618e-20)
(0.0179496 0.0111955 1.9314e-20)
(0.0250005 0.00873481 -6.15182e-20)
(0.0330445 0.00605646 5.91895e-20)
(0.0421053 0.00324393 1.96268e-20)
(0.0522011 0.000394833 -8.23425e-20)
(0.0633422 -0.0023732 1.51936e-21)
(0.0755268 -0.00491354 -2.49233e-20)
(0.0887284 -0.00704173 2.94814e-19)
(0.102855 -0.00853801 -1.49031e-19)
(0.117785 -0.00911619 -1.67557e-20)
(0.133743 -0.00819728 -8.69273e-20)
(0.150185 -0.0053251 -1.14709e-19)
(-0.00138936 0.00253297 -2.95645e-21)
(-0.00352712 0.00664582 2.21569e-20)
(-0.00499149 0.0100009 -1.26275e-20)
(-0.0057497 0.0126182 -1.45677e-19)
(-0.00576269 0.0145216 1.1214e-19)
(-0.00498701 0.015743 -1.15329e-20)
(-0.00338081 0.0163191 -1.33746e-19)
(-0.000904198 0.0162903 -8.97082e-21)
(0.00248112 0.0157012 -5.69979e-20)
(0.00681178 0.0146004 1.00489e-19)
(0.0121226 0.01304 2.71628e-20)
(0.0184462 0.0110761 -1.60192e-19)
(0.0258134 0.00876923 6.70111e-20)
(0.0342523 0.00618507 1.1392e-19)
(0.0437885 0.00339604 2.76902e-20)
(0.0544445 0.000484023 1.5122e-20)
(0.0662378 -0.00245538 9.03603e-20)
(0.0791793 -0.00530595 -3.79161e-20)
(0.0932703 -0.00791964 1.42022e-19)
(0.108488 -0.010104 -1.78226e-19)
(0.12474 -0.011621 3.70857e-20)
(0.141902 -0.0121401 9.95248e-20)
(0.160239 -0.0109478 -1.44026e-19)
(0.179135 -0.00745166 1.66093e-19)
(-0.0013964 0.00238404 -7.77221e-20)
(-0.00345394 0.00619305 4.62013e-20)
(-0.00471015 0.00925593 -4.75855e-20)
(-0.00513665 0.0115919 2.73772e-20)
(-0.00469685 0.0132253 -3.81486e-20)
(-0.00334718 0.0141904 1.46576e-20)
(-0.00104608 0.0145259 1.30812e-19)
(0.00224547 0.0142745 2.97216e-20)
(0.00656453 0.0134823 -1.0653e-20)
(0.0119462 0.0121995 -1.83604e-19)
(0.0184235 0.0104792 -1.11406e-20)
(0.026027 0.00837865 -2.7442e-20)
(0.0347849 0.00595831 1.53154e-19)
(0.044723 0.00328323 -1.68519e-19)
(0.0558641 0.000424069 -6.64173e-20)
(0.0682282 -0.0025404 -1.08545e-19)
(0.0818314 -0.0055191 1.47012e-19)
(0.0966843 -0.00840131 2.8847e-20)
(0.112791 -0.0110436 9.43978e-21)
(0.130134 -0.0132533 -6.07602e-20)
(0.148625 -0.0147828 1.87903e-19)
(0.168145 -0.0152622 -7.54001e-20)
(0.189012 -0.0138269 1.75362e-19)
(0.210544 -0.0097078 1.36057e-19)
(-0.00136442 0.00219093 -1.43523e-20)
(-0.00326237 0.0056167 -3.59468e-20)
(-0.00422742 0.00831815 3.77435e-20)
(-0.00423578 0.0103133 8.42851e-21)
(-0.00325344 0.011627 5.50193e-20)
(-0.00123683 0.0122957 1.18447e-19)
(0.00185534 0.0123607 -1.66854e-19)
(0.0060612 0.0118664 -1.06667e-19)
(0.0114166 0.0108609 -1.70675e-19)
(0.017955 0.00939572 8.81165e-20)
(0.0257076 0.00752571 5.88706e-20)
(0.0347026 0.00530866 1.21718e-19)
(0.0449655 0.00280545 -1.51862e-20)
(0.0565187 8.03966e-05 2.03961e-19)
(0.0693818 -0.00279793 -8.76431e-20)
(0.0835709 -0.00575482 9.17323e-20)
(0.0990987 -0.00870582 2.54982e-20)
(0.115974 -0.0115497 7.32517e-20)
(0.134202 -0.0141547 -8.02847e-20)
(0.153772 -0.0163389 -4.30217e-20)
(0.174604 -0.01786 6.0239e-21)
(0.196592 -0.018323 -1.12675e-19)
(0.220131 -0.0167033 -1.76499e-19)
(0.244496 -0.0120115 -4.45089e-20)
(-0.00128724 0.00195453 -3.88453e-20)
(-0.00293483 0.00491979 -4.22029e-20)
(-0.00351512 0.00719318 1.08843e-19)
(-0.00300907 0.00879121 -7.65327e-20)
(-0.00138542 0.0097386 -6.39487e-20)
(0.00139945 0.0100744 6.35921e-20)
(0.00538654 0.0098423 3.41131e-20)
(0.0106131 0.00908869 1.19541e-19)
(0.0171138 0.00786359 -6.51341e-20)
(0.0249208 0.00622033 1.28905e-19)
(0.034063 0.00421524 -7.93203e-21)
(0.0445665 0.00190735 -2.41965e-19)
(0.0564537 -0.000641761 2.38212e-19)
(0.0697434 -0.00336802 -6.17182e-20)
(0.0844506 -0.00620455 -1.17029e-20)
(0.100586 -0.00908067 2.0092e-20)
(0.118158 -0.0119195 -2.00079e-19)
(0.13717 -0.0146324 -1.69019e-19)
(0.157625 -0.017106 1.07189e-19)
(0.179516 -0.0191821 -4.67397e-20)
(0.202776 -0.0206457 4.20996e-20)
(0.227323 -0.0211049 -7.94099e-20)
(0.25366 -0.0193857 2.45307e-19)
(0.281066 -0.0142399 -9.67005e-20)
(-0.00115865 0.00167626 -7.65285e-20)
(-0.00245369 0.00410698 1.65943e-19)
(-0.00254518 0.00588929 -8.70132e-20)
(-0.00141897 0.00703754 -5.87194e-20)
(0.000953465 0.00757613 3.82233e-20)
(0.00461575 0.00754664 1.64616e-19)
(0.00960867 0.00699505 9.00716e-20)
(0.0159687 0.0059699 -1.96512e-19)
(0.0237296 0.00452316 8.57748e-20)
(0.0329219 0.00271009 -8.15323e-20)
(0.043573 0.000588882 -1.54669e-19)
(0.0557065 -0.00177971 1.08341e-19)
(0.0693419 -0.00433271 -2.44618e-19)
(0.084494 -0.00700529 3.14657e-19)
(0.101173 -0.00973101 1.17255e-20)
(0.119383 -0.0124418 -2.62275e-21)
(0.139125 -0.0150675 4.65378e-20)
(0.160394 -0.0175325 -1.04149e-19)
(0.183186 -0.019746 2.03914e-20)
(0.207495 -0.0215863 1.97177e-19)
(0.23326 -0.0228925 -1.30949e-20)
(0.260434 -0.0233235 -3.96893e-20)
(0.28967 -0.0216018 -1.99572e-20)
(0.320338 -0.0162099 -1.27966e-19)
(-0.000972459 0.00135818 1.83502e-19)
(-0.00180159 0.00318475 -9.16059e-20)
(-0.00129021 0.00441762 -1.72802e-20)
(0.000570947 0.00506827 6.04998e-20)
(0.00380766 0.00516036 8.22826e-20)
(0.00846362 0.00473786 -1.84381e-19)
(0.0145795 0.00384908 2.13766e-19)
(0.0221912 0.00254457 2.36093e-20)
(0.0313315 0.000878275 9.4499e-20)
(0.0420299 -0.00109247 -1.54038e-19)
(0.0543124 -0.00330733 9.23543e-21)
(0.0682003 -0.00570332 6.82074e-20)
(0.0837106 -0.00821521 -9.0518e-20)
(0.100855 -0.010776 1.07454e-19)
(0.119637 -0.0133177 6.75523e-20)
(0.140056 -0.0157721 -1.97323e-19)
(0.162103 -0.018072 -8.69478e-20)
(0.185761 -0.0201512 2.55545e-19)
(0.211016 -0.0219404 6.05188e-21)
(0.23785 -0.0233602 1.91196e-19)
(0.266204 -0.0243303 -1.17848e-20)
(0.29606 -0.0246276 -7.74756e-20)
(0.328264 -0.0229747 1.24505e-19)
(0.362439 -0.0176399 4.14092e-19)
(-0.000722668 0.0010031 4.80309e-20)
(-0.000961783 0.00216163 -2.55718e-20)
(0.000275996 0.00279246 8.2788e-20)
(0.00299515 0.00290345 -4.3631e-20)
(0.00721883 0.00251699 -1.2203e-20)
(0.0129908 0.00167926 -4.73637e-20)
(0.0203519 0.000440711 9.60117e-20)
(0.0293373 -0.00114626 -8.18591e-20)
(0.0399794 -0.00302582 1.73602e-20)
(0.0523067 -0.00513862 3.2169e-19)
(0.0663441 -0.00742206 -8.40825e-20)
(0.0821114 -0.00981056 2.0539e-20)
(0.0996236 -0.0122359 -1.82538e-20)
(0.118889 -0.0146276 -1.82315e-20)
(0.139909 -0.0169137 -5.51248e-20)
(0.162675 -0.0190221 1.5972e-19)
(0.18717 -0.0208822 1.08395e-19)
(0.213367 -0.0224287 -1.32547e-19)
(0.241233 -0.0236022 2.63245e-19)
(0.270732 -0.0243564 7.91111e-20)
(0.301782 -0.0247004 -1.4012e-19)
(0.334373 -0.0245898 -3.14296e-20)
(0.369554 -0.0228946 -9.90593e-20)
(0.407484 -0.0178963 -1.9836e-19)
(-0.000403589 0.000614594 2.96243e-20)
(8.14687e-05 0.0010483 1.20356e-19)
(0.00217782 0.0010315 -1.38255e-19)
(0.00588539 0.00056758 -1.14194e-19)
(0.0112249 -0.000322919 -4.95939e-21)
(0.0182403 -0.00159191 9.27391e-21)
(0.0269723 -0.00318704 -9.45187e-20)
(0.037456 -0.00505439 6.18563e-20)
(0.0497232 -0.0071366 1.22549e-20)
(0.0638019 -0.00937251 -2.11096e-19)
(0.0797161 -0.0116975 3.7134e-20)
(0.0974848 -0.0140434 3.40027e-20)
(0.117122 -0.0163389 8.73886e-20)
(0.138634 -0.0185093 9.67188e-20)
(0.16202 -0.020477 -7.64082e-20)
(0.18727 -0.0221621 -5.63903e-20)
(0.214362 -0.0234844 -7.66738e-20)
(0.243263 -0.0243658 -5.13439e-20)
(0.273926 -0.0247345 -9.88162e-20)
(0.306292 -0.0245427 -1.07691e-19)
(0.340238 -0.0238411 4.30039e-20)
(0.375681 -0.0227146 -1.8716e-19)
(0.413695 -0.0202383 1.70877e-19)
(0.455285 -0.0153239 -1.15172e-19)
(-9.99182e-06 0.000197046 6.95655e-21)
(0.00134253 -0.000142307 4.89647e-20)
(0.00443728 -0.000844103 -1.17147e-19)
(0.00927002 -0.00191028 1.86071e-19)
(0.0158591 -0.00332277 1.42921e-19)
(0.0242487 -0.00503193 3.82024e-20)
(0.0344797 -0.00698395 -1.34139e-19)
(0.0465868 -0.00912385 9.775e-21)
(0.0606013 -0.0113932 -6.19092e-20)
(0.0765509 -0.0137298 8.25697e-21)
(0.0944588 -0.0160674 1.07793e-19)
(0.114344 -0.0183363 -5.83256e-20)
(0.136218 -0.0204626 1.27617e-19)
(0.16009 -0.022368 -1.63415e-20)
(0.185959 -0.0239696 7.09831e-20)
(0.213816 -0.0251793 4.26032e-20)
(0.243646 -0.0259032 2.21052e-20)
(0.275421 -0.0260419 1.7666e-19)
(0.309108 -0.025489 -8.52715e-20)
(0.344663 -0.0241463 -5.28164e-20)
(0.381994 -0.0219841 3.33661e-20)
(0.421001 -0.0189466 -7.19487e-20)
(0.462375 -0.0141753 7.41485e-20)
(0.507258 -0.00833987 -3.41573e-19)
(0.000462776 -0.00024434 4.87058e-20)
(0.00283407 -0.00139503 5.42162e-20)
(0.00707361 -0.0028097 6.56504e-20)
(0.0131734 -0.00449644 -1.33044e-19)
(0.0211495 -0.00644028 7.18743e-21)
(0.0310464 -0.00859049 6.54885e-20)
(0.0429048 -0.0108923 6.7678e-20)
(0.0567591 -0.0132902 1.01698e-19)
(0.0726398 -0.0157256 -1.4962e-19)
(0.0905738 -0.0181359 1.56724e-19)
(0.110584 -0.0204549 -1.66795e-19)
(0.132687 -0.0226122 6.21562e-20)
(0.156897 -0.0245334 -2.45515e-19)
(0.183221 -0.0261394 -2.58571e-20)
(0.211662 -0.027345 7.031e-20)
(0.242217 -0.0280582 -1.36108e-19)
(0.274881 -0.0281782 4.74452e-20)
(0.309656 -0.0275914 -7.21539e-20)
(0.346555 -0.0261666 1.1121e-19)
(0.38564 -0.0237576 -2.31627e-19)
(0.427079 -0.0201952 1.42557e-20)
(0.471408 -0.0150937 -1.85654e-19)
(0.520117 -0.00790764 1.44895e-19)
(0.576776 -0.00246769 -1.88854e-19)
(0.00101869 -0.000703601 -1.26749e-19)
(0.00456681 -0.00269258 6.64531e-20)
(0.0101028 -0.00483731 1.82079e-20)
(0.0176153 -0.00715274 -1.42436e-19)
(0.0271184 -0.00962763 4.28405e-20)
(0.0386564 -0.0122106 1.29357e-19)
(0.0522696 -0.0148466 1.09864e-19)
(0.0679916 -0.0174804 -6.27662e-20)
(0.0858518 -0.0200539 1.45003e-19)
(0.105876 -0.0225055 1.47161e-19)
(0.128084 -0.02477 9.51355e-20)
(0.152493 -0.026779 -5.21581e-20)
(0.179114 -0.0284601 -4.68445e-21)
(0.207954 -0.0297369 7.47965e-20)
(0.239015 -0.0305281 -5.85829e-20)
(0.2723 -0.0307467 -2.363e-19)
(0.307816 -0.0302991 4.54721e-20)
(0.345583 -0.0290835 -2.03207e-19)
(0.38566 -0.0269916 1.4459e-19)
(0.428183 -0.0239227 -5.37778e-20)
(0.473477 -0.0197827 3.02708e-20)
(0.522317 -0.0144294 -4.92202e-20)
(0.575936 -0.00850122 2.03122e-19)
(0.63551 -0.00695025 3.51331e-19)
(0.00166099 -0.00117411 4.91103e-20)
(0.00654939 -0.0040158 -3.80043e-20)
(0.0135376 -0.00689593 4.20854e-20)
(0.0226111 -0.00983692 3.37604e-20)
(0.0337821 -0.0128319 -3.8996e-21)
(0.0470943 -0.0158293 3.54921e-21)
(0.0625872 -0.0187742 6.60899e-20)
(0.0802929 -0.0216127 -8.8866e-20)
(0.100239 -0.0242882 -2.23788e-19)
(0.122447 -0.0267411 -4.90345e-20)
(0.146937 -0.0289093 3.81065e-20)
(0.17372 -0.0307279 -9.5254e-20)
(0.202803 -0.0321296 2.83278e-20)
(0.234189 -0.0330448 3.26038e-19)
(0.267876 -0.0334016 2.35959e-19)
(0.303864 -0.0331264 -1.63006e-19)
(0.342156 -0.0321455 -1.78433e-19)
(0.382776 -0.0303881 2.41534e-20)
(0.425782 -0.0277973 -1.27021e-19)
(0.471305 -0.0243574 -8.31935e-20)
(0.519635 -0.0201091 -3.06731e-20)
(0.57138 -0.0151777 9.57054e-20)
(0.627077 -0.0107496 -1.76513e-19)
(0.686098 -0.0111303 5.18699e-20)
(0.00239217 -0.00164867 -7.96513e-20)
(0.00878829 -0.00534394 4.51363e-20)
(0.0173871 -0.00895197 -2.32241e-20)
(0.0281712 -0.0125032 -5.70818e-20)
(0.0411507 -0.0159955 -7.21375e-20)
(0.0563684 -0.0193779 2.78769e-20)
(0.0738621 -0.0225962 3.22585e-20)
(0.0936613 -0.0255983 1.11346e-20)
(0.11579 -0.0283301 9.48854e-20)
(0.140268 -0.0307356 9.02973e-20)
(0.167106 -0.0327568 -1.09832e-19)
(0.196312 -0.0343345 1.25863e-19)
(0.227884 -0.0354091 -8.23265e-20)
(0.261816 -0.0359206 -6.07877e-21)
(0.298095 -0.0358108 -2.30792e-20)
(0.336707 -0.0350244 1.66761e-19)
(0.377639 -0.0335135 1.3743e-19)
(0.420889 -0.0312445 -5.18959e-20)
(0.46648 -0.0282139 7.09107e-21)
(0.514474 -0.0244803 2.26971e-19)
(0.565026 -0.0201786 -1.1426e-19)
(0.618456 -0.0155584 -8.72416e-20)
(0.674706 -0.0118777 -1.84021e-21)
(0.732331 -0.0125741 -4.46608e-19)
(0.00321399 -0.00211969 -4.46566e-20)
(0.0112878 -0.00665502 1.04424e-19)
(0.0216569 -0.0109698 -8.89719e-20)
(0.0343013 -0.0151029 -7.70128e-20)
(0.0492286 -0.0190576 -1.33883e-19)
(0.0664798 -0.0227836 8.76589e-20)
(0.0860902 -0.0262283 -9.53258e-20)
(0.108086 -0.0293421 1.38549e-19)
(0.132486 -0.0320745 5.02874e-20)
(0.159304 -0.0343736 -9.14606e-20)
(0.188544 -0.0361873 -7.82922e-20)
(0.220203 -0.0374637 -1.45649e-19)
(0.254269 -0.0381523 -1.95467e-19)
(0.29072 -0.0382051 3.15645e-19)
(0.329525 -0.0375794 -2.38435e-19)
(0.370649 -0.0362403 2.27845e-19)
(0.414046 -0.0341664 -1.27052e-19)
(0.459675 -0.0313587 6.87819e-20)
(0.507495 -0.0278575 -6.85312e-20)
(0.557474 -0.0237714 1.3909e-19)
(0.609615 -0.0192824 -2.3031e-19)
(0.663976 -0.0146686 2.59641e-19)
(0.720128 -0.0110957 2.16231e-20)
(0.776401 -0.0113109 4.02771e-19)
(0.00412751 -0.00257927 -6.72483e-20)
(0.0140503 -0.00792617 1.04002e-19)
(0.0263494 -0.0129123 1.89739e-19)
(0.0410023 -0.0175855 -2.62886e-19)
(0.0580138 -0.0219545 5.59947e-20)
(0.0774223 -0.0259706 6.93922e-20)
(0.0992594 -0.029583 -8.58261e-20)
(0.123546 -0.0327454 -1.30547e-19)
(0.150296 -0.0354118 1.00246e-19)
(0.179513 -0.0375355 -2.06695e-19)
(0.211193 -0.0390711 1.06722e-19)
(0.245318 -0.0399751 -1.45035e-19)
(0.281862 -0.0402075 1.68988e-19)
(0.320784 -0.0397334 2.14268e-21)
(0.362028 -0.0385264 9.65464e-20)
(0.405527 -0.0365716 -7.87775e-21)
(0.451199 -0.0338722 -5.21665e-20)
(0.498948 -0.030458 -2.62966e-20)
(0.548664 -0.0264013 7.00025e-20)
(0.600217 -0.0218397 -1.25771e-19)
(0.653471 -0.0169698 -3.74231e-19)
(0.708285 -0.012055 -3.79804e-20)
(0.764025 -0.00813607 -7.64739e-20)
(0.819033 -0.00745206 4.17174e-19)
(0.0051331 -0.00301933 -1.45897e-19)
(0.0170758 -0.00913399 6.20846e-20)
(0.0314634 -0.0147415 1.46417e-19)
(0.0482705 -0.0198989 4.79022e-20)
(0.0674986 -0.0246212 -1.79673e-21)
(0.0891825 -0.0288612 -1.09911e-19)
(0.113349 -0.0325708 1.08006e-19)
(0.140013 -0.0357079 1.56973e-19)
(0.169179 -0.0382311 -1.45041e-19)
(0.200843 -0.0401003 1.36917e-19)
(0.234985 -0.0412775 1.37111e-19)
(0.271574 -0.0417286 -2.53626e-19)
(0.310564 -0.0414249 -1.4491e-20)
(0.351889 -0.0403452 1.22726e-19)
(0.395466 -0.0384791 -1.26301e-19)
(0.441191 -0.035831 -1.91542e-19)
(0.488938 -0.0324256 2.83323e-19)
(0.538555 -0.0283161 -9.73006e-20)
(0.589861 -0.0235972 -1.94755e-19)
(0.642637 -0.0184212 9.94487e-20)
(0.696632 -0.0129832 -2.79294e-20)
(0.751562 -0.00751862 8.46195e-20)
(0.806683 -0.00295482 5.24038e-20)
(0.860433 -0.00115283 -2.72097e-19)
(0.00623048 -0.00343172 -6.41934e-20)
(0.0203626 -0.0102548 1.252e-19)
(0.0369944 -0.016419 -1.66625e-19)
(0.0560973 -0.0219909 -2.42984e-20)
(0.0776691 -0.026992 -2.32213e-20)
(0.10174 -0.0313775 -3.34862e-21)
(0.12833 -0.0351026 9.5027e-20)
(0.157447 -0.0381295 3.67966e-20)
(0.189086 -0.0404229 -2.17315e-20)
(0.223228 -0.0419495 -1.20139e-19)
(0.259842 -0.0426799 1.37851e-19)
(0.298876 -0.0425901 1.21078e-19)
(0.340262 -0.0416632 -1.35358e-19)
(0.383907 -0.0398921 -9.60543e-20)
(0.429697 -0.0372825 -7.77231e-20)
(0.477488 -0.0338567 1.49546e-19)
(0.527107 -0.0296588 -3.08879e-19)
(0.578347 -0.0247613 5.29757e-20)
(0.63096 -0.0192749 -4.60211e-20)
(0.684649 -0.0133599 -3.70068e-20)
(0.739072 -0.00720426 7.54747e-20)
(0.793842 -0.00101819 1.11115e-20)
(0.848162 0.00436376 -2.3293e-19)
(0.900586 0.00737414 -9.46809e-20)
(0.00741872 -0.00380825 -2.39312e-20)
(0.0239067 -0.011265 1.23836e-19)
(0.0429342 -0.0179065 -5.15942e-20)
(0.0644692 -0.0238092 -3.58553e-20)
(0.088505 -0.029002 -8.9987e-20)
(0.115066 -0.0334428 7.50086e-20)
(0.144165 -0.0370905 -3.18412e-20)
(0.175799 -0.0399129 -1.26162e-19)
(0.209954 -0.0418811 -6.47293e-20)
(0.246595 -0.0429697 5.21885e-20)
(0.285674 -0.0431586 3.52595e-20)
(0.327119 -0.0424346 -9.05629e-20)
(0.370835 -0.0407936 7.29169e-20)
(0.416703 -0.0382429 -8.46328e-20)
(0.464572 -0.0348042 3.10585e-20)
(0.514258 -0.0305173 1.44189e-19)
(0.565543 -0.0254442 -1.95586e-19)
(0.618164 -0.0196744 2.53567e-19)
(0.671815 -0.0133319 -2.10473e-19)
(0.726131 -0.00658247 2.32494e-19)
(0.780699 0.000391788 1.10227e-19)
(0.835058 0.00739812 1.72833e-21)
(0.888389 0.0136759 5.36885e-20)
(0.939363 0.017897 -1.09271e-20)
(0.0086962 -0.00414074 2.03886e-20)
(0.0277023 -0.0121409 -2.3267e-20)
(0.0492714 -0.0191658 4.12495e-20)
(0.0733679 -0.0253026 -2.83266e-22)
(0.0999798 -0.0305875 8.82558e-20)
(0.129124 -0.0349821 -4.15446e-20)
(0.160806 -0.03845 3.05991e-20)
(0.195011 -0.0409649 -1.58237e-19)
(0.231711 -0.0425055 -2.40367e-20)
(0.270856 -0.043055 -2.64175e-20)
(0.312379 -0.0426036 -9.83063e-20)
(0.356184 -0.04115 1.98188e-19)
(0.402152 -0.0387035 4.32031e-20)
(0.450129 -0.0352865 1.00054e-19)
(0.49993 -0.0309372 -4.87096e-20)
(0.551332 -0.0257128 2.98718e-21)
(0.604068 -0.0196929 2.61083e-20)
(0.65783 -0.0129831 -1.25164e-19)
(0.712255 -0.00572044 -1.51174e-19)
(0.766924 0.00192349 5.96469e-20)
(0.821369 0.0097689 3.46796e-20)
(0.875074 0.0176318 -9.39396e-20)
(0.927218 0.0248114 -2.286e-19)
(0.976581 0.0301823 9.43958e-20)
(0.0100606 -0.00442111 4.26488e-20)
(0.0317411 -0.0128593 5.4489e-20)
(0.0559906 -0.0201599 -1.06778e-19)
(0.0827696 -0.0264208 -9.75189e-21)
(0.11206 -0.0316869 -1.03718e-19)
(0.143871 -0.0359239 -9.95906e-21)
(0.178197 -0.0391006 -8.52002e-20)
(0.215012 -0.041198 -6.67076e-20)