/*--------------------------------*- C++ -*----------------------------------*\
  =========                 |
  \\      /  F ield         | OpenFOAM: The Open Source CFD Toolbox
   \\    /   O peration     | Website:  https://openfoam.org
    \\  /    A nd           | Version:  7
     \\/     M anipulation  |
\*---------------------------------------------------------------------------*/
FoamFile
{
    version     2.0;
    format      ascii;
    class       surfaceScalarField;
    location    "35";
    object      phi;
}
// * * * * * * * * * * * * * * * * * * * * * * * * * * * * * * * * * * * * * //

dimensions      [0 3 -1 0 0 0 0];

internalField   nonuniform List<scalar> 
245
(
-0.00444812
-0.00157794
-0.0015788
-0.00419019
-0.00170935
-0.00156453
-0.0039472
-0.00154072
-0.00372053
-0.00151
-0.00350347
-0.0014706
-0.00329302
-0.00142139
-0.00308923
-0.00316037
-0.00136269
-0.0028921
-0.00149662
-0.0029553
-0.00143008
-0.00275693
-0.00135476
-0.00256511
-0.00261759
-0.00127111
-0.00237957
-0.00141139
-0.00242483
-0.00132073
-0.00223842
-0.00228081
-0.00122257
-0.002058
-0.00136723
-0.00209375
-0.00126264
-0.00191271
-0.00194579
-0.00115142
-0.00173723
-0.00129976
-0.00176437
-0.00118274
-0.00158851
-0.00161322
-0.00121129
-0.00143722
-0.00145949
-0.00108344
-0.00126615
-0.00123706
-0.0012836
-0.00110431
-0.00111263
-0.0011279
-0.00112261
-0.000957281
-0.000970374
-0.00113833
-0.000800354
-0.000811271
-0.0009932
-0.000634379
-0.00115145
-0.000642108
-0.00100266
-0.000477004
-0.000482804
-0.00100977
-0.000318828
-0.000322705
-0.00101452
-0.000160114
-0.000162073
-0.00101692
-1.12851e-06
-1.17148e-06
-0.00101697
0.000157862
0.000159734
-0.00101465
0.00031659
0.000320381
-0.00100998
0.000474792
0.000480504
-0.00100296
0.000632201
-0.0011623
0.000639841
0.000648486
-0.000993593
-0.00115188
0.00079813
0.000808948
-0.00113886
0.000955112
0.000968104
-0.00112325
0.00111053
0.0011257
-0.00110505
0.00126412
0.00128147
-0.00108428
-0.00123798
0.00143517
0.00145732
-0.00121234
0.00158656
0.00161115
-0.0011839
0.00173539
0.00176241
-0.00115269
-0.00130116
0.00191087
0.00194382
-0.00126417
0.0020563
0.00209192
-0.00122422
-0.00136905
0.00223675
0.00227899
-0.00132268
0.00237807
0.00242319
-0.00127321
-0.00141369
0.00256367
0.00261599
-0.00135721
0.00275557
-0.00143294
0.00289099
0.00295404
-0.0013657
-0.00149994
0.00308827
0.00315925
-0.00142487
-0.00155788
0.00329227
0.0033714
-0.0014746
0.00350302
-0.00151457
0.0037205
-0.00154588
0.00394773
-0.00157021
0.00419144
-0.0015849
-0.00171613
-0.00167134
-0.0195155
-0.00169176
-0.019965
-0.0016752
-0.02024
-0.0016338
-0.020458
-0.00158202
-0.0205268
-0.00151599
-0.0206819
-0.00142639
-0.02079
-0.00133529
-0.0207314
-0.00125554
-0.0206762
-0.00116553
-0.0208008
-0.00105298
-0.0208708
-0.0208004
-0.00180353
-0.00181883
-0.00179589
-0.00174781
-0.0016907
-0.00162038
-0.00152298
-0.00142361
-0.00133838
-0.00124428
-0.00112305
-0.000996889
-0.000883811
-0.000785714
-0.000680037
-0.000555971
-0.000435168
-0.000334353
-0.000226911
-0.00010369
-0.000590968
0.0207912
-0.000486138
0.0206445
-0.000378643
0.0206673
-0.000240798
0.0208215
-0.000104151
0.0207943
0.0206279
-0.00181061
0.0195433
-0.00182348
0.0200059
-0.00179756
0.020284
-0.00175512
0.0204517
-0.00169204
0.0206317
-0.00160156
0.0207526
-0.00150667
0.0207095
-0.00141566
0.0206802
-0.00131462
-0.00121063
-0.00110689
-0.00100955
-0.000917308
-0.00080973
-0.000683371
-0.000561021
-0.000458767
-0.000355566
-0.000228534
-0.000101393
-0.00167746
-0.00169563
-0.0016764
-0.00163948
-0.00158063
-0.00149776
-0.00141078
)
;

boundaryField
{
    inlet
    {
        type            calculated;
        value           nonuniform 0();
    }
    outlet
    {
        type            calculated;
        value           nonuniform 0();
    }
    cylinder
    {
        type            calculated;
        value           nonuniform 0();
    }
    top
    {
        type            symmetryPlane;
        value           uniform 0;
    }
    bottom
    {
        type            symmetryPlane;
        value           uniform 0;
    }
    defaultFaces
    {
        type            empty;
        value           nonuniform 0();
    }
    procBoundary6to5
    {
        type            processor;
        value           nonuniform List<scalar> 
115
(
-0.00431757
-0.00169769
-0.00405703
-0.00167162
-0.00381631
-0.0016398
-0.00359073
-0.00160177
-0.00337231
-0.00155404
-0.00163384
-0.00302316
-0.00156842
-0.00281696
-0.0014941
-0.00155472
-0.00247426
-0.00146475
-0.00151479
-0.00213325
-0.0014106
-0.00145078
-0.00179477
-0.0013339
-0.00136503
-0.00139312
-0.00130342
-0.00126001
-0.00128014
-0.00129743
-0.00131187
-0.00065085
-0.00116196
-0.00116987
-0.00117515
-0.00117782
-0.00117787
-0.0011753
-0.00117011
-0.000486976
-0.00132381
-0.00131234
-0.00129802
-0.00128084
-0.00126082
-0.00130117
-0.00139413
-0.00136616
-0.00133516
-0.00179268
-0.0014523
-0.00141226
-0.00213127
-0.00151677
-0.00146689
-0.00247245
-0.00155723
-0.00149679
-0.00281542
-0.00157155
-0.0030217
-0.00163748
-0.00323493
-0.00169435
-0.00160622
-0.00359015
-0.00164492
-0.00381621
-0.0016774
-0.00405759
-0.00170405
-0.00431904
-0.0194213
-0.0199497
-0.0202629
-0.0205061
-0.0205839
-0.0207522
-0.0208874
-0.0208308
-0.0207614
-0.0208949
-0.020992
-0.0209266
-0.0207988
-0.0207043
-0.0207374
-0.0208396
-0.0207306
-0.0206135
-0.0206226
-0.0207645
-0.0205811
-0.0209211
-0.0207493
-0.0207748
-0.0209594
-0.020931
-0.0207321
-0.0194488
-0.019993
-0.0203099
-0.0204942
-0.0206948
-0.0208431
-0.0208044
-0.0207712
-0.0208672
-0.0207529
-0.0207874
-0.0206801
-0.0206833
-0.0207818
0.000720885
-0.0208569
)
;
    }
    procBoundary6to7
    {
        type            processor;
        value           nonuniform List<scalar> 
124
(
0.00457188
0.00145419
0.00431728
0.00145171
0.00407408
0.00143766
0.00384623
0.00141502
0.00362977
0.0013837
0.00342088
0.00134274
0.00321861
0.00129201
0.0030229
0.00123189
0.00129491
0.00270143
0.00121844
0.002517
0.00113368
0.00117957
0.00220001
0.00108055
0.00111735
0.00188314
0.00100551
0.00103402
0.00106
0.00141759
0.000932001
0.000950791
0.000967259
0.000981398
0.000790686
0.000836893
0.000845284
0.00085159
0.000855808
0.000857937
0.000857976
0.000855924
0.000851782
0.000845554
0.000837241
0.000788553
0.000981881
0.000967831
0.000951453
0.000932754
0.00141565
0.00106095
0.00103507
0.00100666
0.00188143
0.00111874
0.00108206
0.00219847
0.00118136
0.00113559
0.0025157
0.00122067
0.00270021
0.00129751
0.00123462
0.00302207
0.00129516
0.00321798
0.00134634
0.00342053
0.00138781
0.00362979
0.00141964
0.00384674
0.00144275
0.00407519
0.00145721
0.00431913
0.00445027
0.00158429
0.0196089
0.0199855
0.0202234
0.0204166
0.020475
0.0206158
0.0207004
0.0206403
0.0205964
0.0207108
0.0207582
0.0206841
-0.000936618
0.0206858
0.0206062
0.0206317
0.0207156
0.0206098
0.0205127
0.0205152
0.0206413
0.0204774
0.0207662
0.0206489
0.0206837
0.0205827
0.020591
0.0206742
0.0207305
0.0206688
0.0205423
0.0205641
0.0206945
0.0206672
0.0205266
0.0196364
0.020024
0.0202648
0.0204148
0.0205729
0.0206698
0.0206225
-0.00132674
0.0205961
)
;
    }
}


// ************************************************************************* //
