/*--------------------------------*- C++ -*----------------------------------*\
  =========                 |
  \\      /  F ield         | OpenFOAM: The Open Source CFD Toolbox
   \\    /   O peration     | Website:  https://openfoam.org
    \\  /    A nd           | Version:  7
     \\/     M anipulation  |
\*---------------------------------------------------------------------------*/
FoamFile
{
    version     2.0;
    format      ascii;
    class       surfaceScalarField;
    location    "55";
    object      phi;
}
// * * * * * * * * * * * * * * * * * * * * * * * * * * * * * * * * * * * * * //

dimensions      [0 3 -1 0 0 0 0];

internalField   nonuniform List<scalar> 
231
(
-0.0048279
-0.0012572
-0.00128668
-0.00118783
-0.00423316
-0.00118653
-0.00401875
-0.00117487
-0.00381383
-0.00104002
-0.00354049
-0.0011531
-0.00361637
-0.00100608
-0.00335764
-0.00112123
-0.00342534
-0.000962116
-0.00318065
-0.00107938
-0.00324038
-0.000908413
-0.00300929
-0.00102779
-0.00306128
-0.000966741
-0.00288782
-0.000896553
-0.00271964
-0.000817557
-0.00255604
-0.00259185
-0.000730145
-0.00239535
-0.000859788
-0.0024264
-0.000766158
-0.00226404
-0.000664973
-0.00210117
-0.002129
-0.000693151
-0.00196508
-0.00057989
-0.00179407
-0.0018256
-0.000601001
-0.00165474
-0.00168298
-0.000620388
-0.00151233
-0.000492837
-0.00132653
-0.00136713
-0.000506232
-0.00118393
-0.0012194
-0.000518157
-0.00103888
-0.00106944
-0.000381418
-0.000838267
-0.000528608
-0.000891689
-0.000388554
-0.000698619
-0.000742664
-0.00039451
-0.000557284
-0.000592109
-0.000399282
-0.0004146
-0.00044033
-0.000402866
-0.000270902
-0.000287631
-0.00040526
-0.000126526
-0.000134317
-0.000406461
1.81904e-05
1.93082e-05
-0.000406469
0.000162913
0.00017294
-0.000405283
0.000307304
0.000326275
-0.000402904
0.00045103
0.000479009
-0.000399334
0.000593752
0.000630836
-0.000394573
0.000735134
0.000781453
-0.000388627
0.00087484
0.000930553
-0.000381498
-0.000528776
0.00107783
0.00110916
-0.000518341
0.00122298
0.00125924
-0.000506427
0.00136569
0.00140709
-0.000493039
0.00155244
-0.000620745
0.001695
0.0017233
-0.000601364
0.0018345
0.0018661
-0.000580251
0.00200578
-0.000693707
0.00214207
0.0021697
-0.00066552
0.00230497
-0.000766931
0.00246729
-0.000860816
0.00259721
0.00263273
-0.00081856
0.00276082
-0.000897842
0.00292906
-0.000968356
0.00310264
-0.00102978
0.00322244
0.0032819
-0.000964059
-0.00108181
0.00339966
0.00346708
-0.00100847
-0.00112419
0.00358281
0.00365839
-0.00104295
-0.00115671
0.00385622
-0.00117927
0.00406167
-0.00119186
0.00427686
-0.00119418
-0.00130789
0.00462925
-0.00129539
0.00487444
-0.00140866
-0.00126686
-0.00134984
-0.0013752
-0.0202234
-0.00137531
-0.0203264
-0.00135271
-0.0203954
-0.00131928
-0.0203699
-0.00126649
-0.0204446
-0.00119646
-0.0204322
-0.00112955
-0.0203222
-0.00106376
-0.02029
-0.0203312
-0.0015099
-0.00150396
-0.00147509
-0.00143599
-0.00137693
-0.00129829
-0.00122343
-0.00115184
-0.00106483
-0.000962819
-0.000861944
-0.000770279
-0.000680384
-0.000586428
-0.000481259
-0.000381128
-0.000290639
-0.000196733
-9.17999e-05
-0.00150322
0.0202282
-0.00152603
0.0204264
-0.00152122
0.0205272
-0.00149579
0.0205602
-0.00144467
0.0206082
-0.00137389
0.0205744
-0.00130314
0.0204503
-0.0012302
-0.00114404
-0.00105955
-0.000971613
-0.000886545
-0.000801352
-0.000705264
-0.000599105
-0.000496722
-0.000404644
-0.000309646
-0.000201147
-9.37954e-05
-0.00136346
-0.00139092
-0.00139224
-0.00137209
-0.00132749
-0.00126529
)
;

boundaryField
{
    inlet
    {
        type            calculated;
        value           nonuniform 0();
    }
    outlet
    {
        type            calculated;
        value           nonuniform 0();
    }
    cylinder
    {
        type            calculated;
        value           nonuniform 0();
    }
    top
    {
        type            symmetryPlane;
        value           uniform 0;
    }
    bottom
    {
        type            symmetryPlane;
        value           uniform 0;
    }
    defaultFaces
    {
        type            empty;
        value           nonuniform 0();
    }
    procBoundary8to7
    {
        type            processor;
        value           nonuniform List<scalar> 
130
(
-0.00458434
-0.00471598
-0.0013986
-0.00130028
-0.00434632
-0.00130039
-0.0041193
-0.00128972
-0.0039039
-0.00126936
-0.00369757
-0.00123929
-0.00349831
-0.0011994
-0.00330532
-0.00114977
-0.00311839
-0.00109067
-0.00293734
-0.00102242
-0.00276195
-0.000945342
-0.000991607
-0.00246004
-0.000899668
-0.00229289
-0.00080001
-0.000831689
-0.00199047
-0.000719371
-0.000743624
-0.000765899
-0.00153747
-0.000638042
-0.000653956
-0.000668124
-0.000680537
-0.000917508
-0.000537579
-0.000545065
-0.000551061
-0.000555565
-0.000558574
-0.000560087
-0.000560101
-0.000558618
-0.000555638
-0.000551161
-0.00054519
-0.000537727
-0.000957129
-0.000680805
-0.000668421
-0.00065428
-0.000638385
-0.00157762
-0.000766423
-0.000744168
-0.000719926
-0.00203094
-0.000832466
-0.000800792
-0.00233352
-0.000900703
-0.00250061
-0.000992929
-0.000946657
-0.00280284
-0.00102406
-0.0029783
-0.00109269
-0.00315946
-0.00115222
-0.00334654
-0.00120236
-0.00353971
-0.00124287
-0.00373921
-0.00127372
-0.0039459
-0.00129504
-0.00416189
-0.00130682
-0.00438986
-0.00451162
-0.00142552
-0.00476116
-0.0200434
0.00148909
-0.0202026
-0.0203324
-0.0204243
-0.020409
-0.0205037
-0.0205109
-0.0203971
-0.0203616
-0.0204183
-0.0204193
-0.020319
-0.0202074
-0.0201645
-0.0201402
-0.0201796
-0.0200758
-0.0200077
-0.019992
-0.0200819
-0.0199561
-0.0201337
-0.0204036
-0.020532
-0.0205856
-0.0206593
-0.0206452
-0.020521
-0.0204672
-0.0204672
-0.0203167
-0.0203122
-0.0201934
-0.020177
-0.0201938
-0.0202085
-0.0201292
-0.0200378
-0.0200444
-0.0201203
-0.0200891
-0.0199942
)
;
    }
    procBoundary8to9
    {
        type            processor;
        value           nonuniform List<scalar> 
138
(
0.00493261
0.00115249
0.00469369
0.00434128
0.00117732
0.00445876
0.00107971
0.00412832
0.00107697
0.003925
0.00365062
0.00106371
0.00372945
0.000929893
0.00347003
0.00089369
0.00329531
0.000847462
0.00312621
0.000791499
0.000845264
0.0028432
0.000772993
0.00268161
0.000691986
0.00252271
0.000602789
0.000634849
0.00223361
0.00053253
0.000557064
0.00193005
0.000443914
0.00046167
0.00047798
0.00146637
0.000352992
0.000363631
0.000373108
0.00097589
0.000243795
0.000248906
0.000253175
0.000256597
0.000259168
0.000260885
0.000261745
0.000261747
0.000260892
0.000259179
0.000256611
0.000253191
0.000248922
0.000243809
0.00101253
0.000373192
0.000363715
0.000353072
0.00150566
0.000478183
0.000461867
0.000444097
0.00197065
0.000557413
0.000532858
0.00227474
0.000635374
0.00243653
0.000730895
0.000692696
0.00272308
0.000773953
0.00288471
0.000846506
0.00305091
0.000909979
0.00084895
0.00333755
0.00089555
0.00351257
0.000932197
0.00369356
0.00377215
0.00106728
0.00396821
0.00108131
0.00417222
0.00108492
0.00438612
0.00450357
0.00118471
0.00473992
0.00116082
0.00498048
0.0201361
0.0202488
0.0203265
0.0203728
0.0203364
0.0203918
0.0203622
0.0202553
0.0202242
0.0202506
-0.000983134
0.0203173
0.0202181
0.0201157
0.0200746
0.0200462
0.0200744
0.0199757
0.0199172
0.0198981
0.019977
0.0198643
0.0203943
0.0203811
0.0202322
0.0202243
0.0201083
0.0200918
0.0200977
0.0201023
0.0200269
0.0199458
0.0199494
0.0200118
0.0199817
0.0199004
0.0203248
0.0204539
0.0205285
0.0205401
0.0205636
0.0205122
-0.00120261
0.0203876
)
;
    }
}


// ************************************************************************* //
