/*--------------------------------*- C++ -*----------------------------------*\
  =========                 |
  \\      /  F ield         | OpenFOAM: The Open Source CFD Toolbox
   \\    /   O peration     | Website:  https://openfoam.org
    \\  /    A nd           | Version:  7
     \\/     M anipulation  |
\*---------------------------------------------------------------------------*/
FoamFile
{
    version     2.0;
    format      ascii;
    class       volVectorField;
    location    "40";
    object      U;
}
// * * * * * * * * * * * * * * * * * * * * * * * * * * * * * * * * * * * * * //

dimensions      [0 1 -1 0 0 0 0];

internalField   nonuniform List<vector> 
392
(
(0.5325 -0.000896961 -7.10482e-24)
(0.536834 -0.000880075 4.5088e-23)
(0.54109 -0.000863602 -4.53216e-24)
(0.533256 -0.00268827 4.71989e-23)
(0.537577 -0.00263767 3.83483e-23)
(0.541822 -0.0025883 -5.48221e-23)
(0.534763 -0.00447182 -3.29149e-22)
(0.53906 -0.00438769 2.50277e-23)
(0.543281 -0.00430561 -3.01724e-23)
(0.537016 -0.00624249 5.89118e-22)
(0.541276 -0.00612514 -2.008e-22)
(0.545461 -0.00601067 -4.16945e-23)
(0.540002 -0.00799525 -9.4509e-23)
(0.544215 -0.00784513 2.0764e-22)
(0.548352 -0.00769867 6.66039e-23)
(0.54371 -0.00972519 -1.21241e-21)
(0.547862 -0.00954283 8.1768e-22)
(0.551941 -0.00936492 -2.56366e-22)
(0.54812 -0.0114275 -2.12319e-22)
(0.552202 -0.0112136 8.67348e-22)
(0.556212 -0.0110049 -2.75057e-22)
(0.553214 -0.0130977 2.95744e-22)
(0.557214 -0.0128529 2.29595e-23)
(0.561145 -0.0126142 -2.13594e-22)
(0.558968 -0.0147312 6.32137e-23)
(0.562877 -0.0144566 -1.36901e-22)
(0.566717 -0.0141886 -4.7474e-23)
(0.565355 -0.016324 8.74e-23)
(0.569164 -0.0160204 -3.97571e-22)
(0.572906 -0.0157242 3.1916e-23)
(0.572348 -0.0178721 -1.11479e-21)
(0.576047 -0.0175406 -1.21107e-21)
(0.579682 -0.0172171 8.83998e-22)
(0.579916 -0.0193719 1.80832e-23)
(0.583497 -0.0190136 7.03225e-22)
(0.587017 -0.018664 -1.14754e-21)
(0.588025 -0.02082 1.4367e-22)
(0.591481 -0.0204362 3.6011e-23)
(0.594879 -0.0200616 -4.15171e-22)
(0.598221 -0.0196961 7.68723e-22)
(0.599966 -0.0218053 -1.44205e-22)
(0.603236 -0.021407 4.62111e-22)
(0.606451 -0.0210183 -5.4086e-22)
(0.608916 -0.0231183 -1.35163e-21)
(0.612052 -0.0226975 6.68056e-22)
(0.615136 -0.0222869 3.14028e-22)
(0.618294 -0.0243729 9.35329e-23)
(0.621291 -0.0239309 -7.56755e-22)
(0.62424 -0.0234996 6.47527e-22)
(0.628062 -0.0255669 -1.47755e-21)
(0.630916 -0.0251052 6.46146e-22)
(0.633726 -0.0246546 -5.0588e-22)
(0.638182 -0.0266989 3.49962e-24)
(0.64089 -0.0262188 -1.46906e-21)
(0.643557 -0.0257501 1.10851e-21)
(0.648614 -0.0277674 -6.54025e-22)
(0.651175 -0.0272702 9.61904e-22)
(0.653697 -0.0267848 -4.46534e-22)
(0.65932 -0.0287714 -4.55441e-22)
(0.661732 -0.0282585 5.59863e-22)
(0.664108 -0.0277577 -1.03837e-22)
(0.67026 -0.0297097 6.26576e-24)
(0.672522 -0.0291825 -6.99682e-22)
(0.674751 -0.0286678 1.71965e-21)
(0.681396 -0.0305828 -1.18817e-22)
(0.683507 -0.0300427 1.27065e-22)
(0.68559 -0.0295153 -7.38689e-22)
(0.692688 -0.0313953 5.39801e-22)
(0.69465 -0.0308433 -1.01593e-21)
(0.696587 -0.0303043 1.27249e-21)
(0.704099 -0.0321466 -1.05185e-21)
(0.705914 -0.0315837 9.48133e-22)
(0.707707 -0.0310341 4.00387e-22)
(0.7263 -0.033421 0)
(0.727847 -0.0328428 0)
(0.729377 -0.0322781 0)
(0.730889 -0.0317266 0)
(0.760879 -0.0348265 0)
(0.762014 -0.0342349 0)
(0.763138 -0.0336569 0)
(0.764253 -0.0330922 0)
(0.796174 -0.0358165 -2.27221e-28)
(0.796905 -0.0352184 2.27221e-28)
(0.797633 -0.0346339 0)
(0.798359 -0.0340626 0)
(0.831611 -0.0363836 0)
(0.831956 -0.0357865 0)
(0.832305 -0.0352027 0)
(0.832658 -0.0346319 0)
(0.866647 -0.0365469 0)
(0.866632 -0.0359578 1.17582e-28)
(0.866627 -0.0353815 0)
(0.866631 -0.0348179 0)
(0.900446 -0.0357648 -1.17582e-28)
(0.900119 -0.0352021 0)
(0.899806 -0.0346514 0)
(0.932967 -0.0352453 0)
(0.932354 -0.034701 0)
(0.93176 -0.0341681 0)
(0.963829 -0.0344411 0)
(0.962971 -0.0339192 0)
(0.962135 -0.0334079 0)
(0.992737 -0.033397 -1.2737e-28)
(0.991676 -0.0329004 0)
(0.99064 -0.0324137 1.78408e-28)
(1.01947 -0.032159 4.20878e-28)
(1.01825 -0.0316896 0)
(1.01705 -0.0312292 -1.78408e-28)
(1.04387 -0.0307724 0)
(1.04253 -0.0303311 0)
(1.04122 -0.0298979 0)
(1.06587 -0.0292803 0)
(1.06445 -0.0288671 0)
(1.06306 -0.0284613 0)
(1.08545 -0.0277224 0)
(1.08399 -0.0273366 0)
(1.08254 -0.0269576 0)
(1.10265 -0.0261339 -3.17397e-28)
(1.10117 -0.0257744 0)
(1.09971 -0.025421 0)
(1.11756 -0.0245449 1.43102e-28)
(1.11609 -0.0242102 -1.21371e-29)
(1.11464 -0.023881 0)
(1.13031 -0.0229803 -1.43102e-28)
(1.12887 -0.0226686 1.21371e-29)
(1.12745 -0.0223617 0)
(1.14106 -0.0214593 -6.17846e-12)
(1.13966 -0.0211687 3.53173e-28)
(1.13829 -0.0208824 -8.97764e-29)
(1.14998 -0.0199961 -6.2783e-12)
(1.14864 -0.0197246 -3.53173e-28)
(1.14732 -0.0194572 8.97764e-29)
(1.15726 -0.0185999 -1.65171e-28)
(1.15599 -0.0183459 0)
(1.15473 -0.0180955 -1.2407e-28)
(1.16309 -0.0172758 0)
(1.16189 -0.0170377 0)
(1.1607 -0.016803 1.2407e-28)
(1.16767 -0.0160254 -4.89036e-28)
(1.16654 -0.015802 0)
(1.16542 -0.0155816 0)
(1.17118 -0.0148476 0)
(1.17011 -0.0146377 0)
(1.16905 -0.0144305 0)
(1.17377 -0.0137389 1.04634e-28)
(1.17276 -0.0135416 -3.84016e-28)
(1.17177 -0.0133469 0)
(1.17561 -0.0126944 -3.88244e-28)
(1.17466 -0.0125092 3.84016e-28)
(1.17373 -0.0123262 0)
(1.17684 -0.0117084 0)
(1.17594 -0.0115348 0)
(1.17506 -0.0113631 0)
(1.17758 -0.0107746 0)
(1.17672 -0.0106122 0)
(1.17588 -0.0104516 0)
(1.17793 -0.00988644 0)
(1.17712 -0.00973515 0)
(1.17631 -0.00958547 0)
(1.17798 -0.00903785 0)
(1.17721 -0.00889758 0)
(1.17644 -0.00875874 0)
(1.17782 -0.00822297 -3.66684e-29)
(1.17708 -0.0080937 0)
(1.17634 -0.00796568 0)
(1.17751 -0.00743644 3.66684e-29)
(1.17679 -0.0073182 0)
(1.17608 -0.00720104 0)
(1.17711 -0.0066735 -5.35736e-28)
(1.1764 -0.00656633 0)
(1.17571 -0.00646009 1.04654e-28)
(1.17664 -0.00592995 0)
(1.17596 -0.00583391 0)
(1.17528 -0.00573866 -1.04654e-28)
(1.17616 -0.00520219 0)
(1.17549 -0.00511733 0)
(1.17483 -0.00503313 0)
(1.17569 -0.0044871 0)
(1.17503 -0.00441347 0)
(1.17438 -0.00434039 0)
(1.17525 -0.00378207 -3.05036e-28)
(1.1746 -0.00371972 0)
(1.17395 -0.0036578 0)
(1.17486 -0.00308489 0)
(1.17422 -0.00303384 0)
(1.17358 -0.00298313 0)
(1.17454 -0.00239367 -1.79935e-28)
(1.1739 -0.00235395 0)
(1.17326 -0.00231448 0)
(1.17429 -0.00170682 1.79935e-28)
(1.17365 -0.00167844 0)
(1.17302 -0.00165023 0)
(1.17412 -0.00102295 1.90738e-28)
(1.17348 -0.00100592 0)
(1.17285 -0.000988993 6.40165e-12)
(1.17403 -0.000340803 -3.10882e-28)
(1.17339 -0.000335124 0)
(1.17277 -0.000329481 -6.47041e-12)
(0.7263 0.0334209 0)
(0.760879 0.0348265 0)
(0.796174 0.0358165 0)
(0.831611 0.0363835 9.50469e-29)
(0.866647 0.0365469 -3.17721e-28)
(0.900789 0.0363399 5.1862e-29)
(0.933599 0.0358012 2.76316e-28)
(0.96471 0.0349738 -7.03845e-29)
(0.993823 0.0339035 5.61095e-29)
(1.02072 0.0326375 -5.61095e-29)
(1.04524 0.031222 0)
(1.06732 0.0297009 0)
(1.08694 0.0281147 0)
(1.10416 0.0264991 0)
(1.11906 0.0248848 3.23252e-28)
(1.13177 0.0232967 -2.53712e-28)
(1.14247 0.0217542 0)
(1.15133 0.0202713 0)
(1.15855 0.0188572 0)
(1.16431 0.0175169 1.67559e-28)
(1.16882 0.0162516 4.89036e-28)
(1.17226 0.01506 0)
(1.17479 0.0139383 0)
(1.17657 0.0128816 0)
(1.17775 0.0118838 6.59065e-12)
(1.17844 0.0109385 -6.59065e-12)
(1.17875 0.0100391 0)
(1.17877 0.0091793 -5.25358e-28)
(1.17858 0.00835325 -2.9618e-28)
(1.17825 0.00755555 0)
(1.17782 0.00678139 6.87924e-12)
(1.17734 0.0060266 -6.87924e-12)
(1.17685 0.00528754 -5.40997e-28)
(1.17636 0.00456112 1.0715e-28)
(1.17592 0.00384474 0)
(1.17552 0.00313618 -5.46497e-28)
(1.17519 0.00243357 -1.90214e-28)
(1.17494 0.00173532 0)
(1.17476 0.00104006 -7.0337e-12)
(1.17468 0.000346503 7.10925e-12)
(0.727847 0.0328428 0)
(0.762013 0.0342348 0)
(0.796905 0.0352184 0)
(0.831956 0.0357864 -9.50469e-29)
(0.866632 0.0359577 2.65859e-28)
(0.900446 0.0357648 0)
(0.932967 0.0352453 -2.76316e-28)
(0.963829 0.0344411 7.03845e-29)
(0.992737 0.033397 -4.95242e-12)
(1.01947 0.032159 4.95242e-12)
(1.04387 0.0307724 0)
(1.06587 0.0292803 0)
(1.08545 0.0277223 0)
(1.10265 0.0261338 0)
(1.11756 0.0245449 -4.66354e-28)
(1.13031 0.0229803 3.96814e-28)
(1.14106 0.0214593 5.75638e-12)
(1.14998 0.0199961 -5.75638e-12)
(1.15726 0.0185998 -1.33058e-28)
(1.16309 0.0172758 -3.45009e-29)
(1.16767 0.0160254 -4.89036e-28)
(1.17118 0.0148476 0)
(1.17377 0.0137389 0)
(1.17561 0.0126944 0)
(1.17684 0.0117084 6.37837e-12)
(1.17758 0.0107745 -6.37837e-12)
(1.17793 0.00988642 0)
(1.17798 0.00903784 5.25358e-28)
(1.17782 0.00822295 2.9618e-28)
(1.17751 0.00743643 0)
(1.17711 0.00667349 6.66536e-12)
(1.17664 0.00592994 -6.66536e-12)
(1.17616 0.00520218 5.40997e-28)
(1.17569 0.00448709 -1.0715e-28)
(1.17525 0.00378207 0)
(1.17486 0.00308488 5.46497e-28)
(1.17454 0.00239367 1.90214e-28)
(1.17429 0.00170682 0)
(1.17412 0.00102295 -1.36389e-11)
(1.17403 0.000340802 1.37854e-11)
(0.729377 0.0322781 0)
(0.763138 0.0336568 0)
(0.797633 0.0346338 0)
(0.832305 0.0352026 0)
(0.866627 0.0353815 -9.94023e-30)
(0.900119 0.035202 9.94023e-30)
(0.932354 0.0347009 0)
(0.962971 0.0339191 0)
(0.991676 0.0329004 -9.53465e-12)
(1.01825 0.0316895 9.53465e-12)
(1.04253 0.030331 0)
(1.06445 0.028867 0)
(1.08399 0.0273366 3.2858e-28)
(1.10117 0.0257744 -3.2858e-28)
(1.11609 0.0242102 1.21371e-29)
(1.12887 0.0226685 -1.21371e-29)
(1.13966 0.0211686 5.55613e-12)
(1.14864 0.0197246 -5.55613e-12)
(1.15599 0.0183459 0)
(1.16189 0.0170377 0)
(1.16654 0.015802 0)
(1.17011 0.0146377 0)
(1.17276 0.0135416 0)
(1.17466 0.0125092 0)
(1.17594 0.0115347 6.17044e-12)
(1.17672 0.0106121 -6.17044e-12)
(1.17712 0.00973513 0)
(1.17721 0.00889757 0)
(1.17708 0.00809369 0)
(1.17679 0.00731819 0)
(1.1764 0.00656632 0)
(1.17596 0.0058339 0)
(1.17549 0.00511732 0)
(1.17503 0.00441347 0)
(1.1746 0.00371971 0)
(1.17422 0.00303383 0)
(1.1739 0.00235394 -4.19121e-28)
(1.17365 0.00167844 4.19121e-28)
(1.17348 0.00100592 -6.60877e-12)
(1.17339 0.000335124 6.67975e-12)
(0.704099 0.0321465 1.05496e-21)
(0.705914 0.0315837 -9.46716e-22)
(0.707706 0.0310341 -4.05235e-22)
(0.692688 0.0313953 -4.73315e-22)
(0.69465 0.0308433 1.06852e-21)
(0.696587 0.0303043 -1.29532e-21)
(0.681396 0.0305828 7.28888e-23)
(0.683507 0.0300427 -8.34434e-23)
(0.68559 0.0295153 7.92726e-22)
(0.67026 0.0297097 -1.04185e-22)
(0.672522 0.0291825 4.84935e-22)
(0.674751 0.0286678 -1.81523e-21)
(0.65932 0.0287714 6.78412e-22)
(0.661732 0.0282584 -3.00123e-22)
(0.664108 0.0277577 1.08987e-22)
(0.648614 0.0277674 7.62147e-22)
(0.651175 0.0272702 -1.00882e-21)
(0.653697 0.0267848 5.00411e-22)
(0.638182 0.0266989 -8.75816e-23)
(0.64089 0.0262187 1.31551e-21)
(0.643557 0.02575 -1.12764e-21)
(0.628062 0.0255669 1.05222e-21)
(0.630916 0.0251052 -7.10273e-22)
(0.633726 0.0246545 3.22253e-22)
(0.618294 0.0243728 1.65702e-22)
(0.621291 0.0239309 5.49162e-22)
(0.624239 0.0234996 -2.23346e-22)
(0.608916 0.0231183 1.56915e-21)
(0.612052 0.0226975 -1.11132e-22)
(0.615136 0.0222869 -3.20026e-22)
(0.596641 0.0222134 -1.24801e-21)
(0.599966 0.0218053 1.50815e-21)
(0.603236 0.021407 -6.35007e-22)
(0.606451 0.0210183 1.68967e-22)
(0.588025 0.02082 -4.60135e-22)
(0.591481 0.0204361 5.47794e-22)
(0.594879 0.0200616 2.73445e-22)
(0.59822 0.0196961 -6.02684e-22)
(0.579916 0.0193718 6.91941e-23)
(0.583497 0.0190136 -1.17127e-21)
(0.587017 0.018664 1.3747e-21)
(0.572348 0.017872 1.20113e-21)
(0.576047 0.0175406 1.64281e-21)
(0.579682 0.0172171 -9.65391e-22)
(0.565355 0.0163239 -1.65271e-22)
(0.569164 0.0160204 -4.7604e-23)
(0.572906 0.0157241 -1.09043e-23)
(0.558968 0.0147312 1.17232e-22)
(0.562877 0.0144565 2.81047e-22)
(0.566717 0.0141886 -1.39326e-23)
(0.553214 0.0130976 -3.45473e-22)
(0.557214 0.0128529 -2.75227e-23)
(0.561145 0.0126141 1.9918e-22)
(0.54812 0.0114275 2.91494e-22)
(0.552202 0.0112136 -8.07699e-22)
(0.556212 0.0110049 3.21123e-22)
(0.54371 0.00972517 1.15062e-21)
(0.547862 0.0095428 -7.4577e-22)
(0.551941 0.00936489 7.16031e-22)
(0.540002 0.00799523 -1.7699e-23)
(0.544215 0.0078451 -1.75361e-22)
(0.548352 0.00769863 -8.65196e-23)
(0.537016 0.00624247 -5.10521e-22)
(0.541276 0.00612511 2.74336e-23)
(0.545461 0.00601063 2.41134e-22)
(0.534763 0.00447179 3.62665e-22)
(0.53906 0.00438766 -4.82776e-23)
(0.543281 0.00430557 9.87927e-24)
(0.533256 0.00268825 -1.5812e-23)
(0.537577 0.00263763 3.61614e-23)
(0.541822 0.00258826 4.41983e-23)
(0.5325 0.000896938 -1.1124e-23)
(0.536834 0.000880044 -4.95856e-23)
(0.54109 0.000863564 -8.35587e-24)
)
;

boundaryField
{
    inlet
    {
        type            uniformFixedValue;
        uniformValue    constant (1 0 0);
        value           nonuniform 0();
    }
    outlet
    {
        type            pressureInletOutletVelocity;
        value           nonuniform 0();
    }
    cylinder
    {
        type            fixedValue;
        value           nonuniform 0();
    }
    top
    {
        type            symmetryPlane;
    }
    bottom
    {
        type            symmetryPlane;
    }
    defaultFaces
    {
        type            empty;
    }
    procBoundary49to48
    {
        type            processor;
        value           nonuniform List<vector> 
131
(
(0.528087 -0.00091427 2.41151e-23)
(0.528855 -0.00274014 4.36947e-23)
(0.530387 -0.00455806 -4.20043e-22)
(0.532677 -0.00636278 5.96789e-22)
(0.535713 -0.00814914 -2.40678e-22)
(0.539482 -0.00991211 -7.01662e-23)
(0.543965 -0.0116468 5.11616e-22)
(0.549142 -0.0133485 -9.22913e-24)
(0.554989 -0.0150127 -5.57501e-22)
(0.56148 -0.0166351 1.48229e-22)
(0.568585 -0.0182118 -1.84029e-21)
(0.576273 -0.019739 -4.34421e-22)
(0.584509 -0.0212133 2.02385e-22)
(0.596641 -0.0222134 4.02786e-22)
(0.596641 -0.0222134 4.02786e-22)
(0.605728 -0.0235494 -4.6495e-22)
(0.615248 -0.0248256 -1.42305e-21)
(0.625161 -0.02604 -1.10602e-21)
(0.63543 -0.0271908 -5.85833e-22)
(0.646014 -0.0282768 -2.12122e-22)
(0.656873 -0.0292968 -2.89284e-23)
(0.667966 -0.0302497 1.81881e-22)
(0.679255 -0.031136 -5.5088e-22)
(0.690699 -0.0319606 2.68626e-22)
(0.702262 -0.032723 7.05931e-22)
(0.724735 -0.0340129 0)
(0.759735 -0.035432 0)
(0.795441 -0.0364284 0)
(0.831271 -0.0369942 0)
(0.866673 -0.037149 -1.11743e-29)
(0.900789 -0.0363399 0)
(0.900789 -0.0363399 0)
(0.933599 -0.0358012 0)
(0.96471 -0.0349738 0)
(0.993823 -0.0339036 0)
(1.02072 -0.0326375 2.93508e-28)
(1.04524 -0.031222 0)
(1.06732 -0.0297009 0)
(1.08694 -0.0281147 0)
(1.10416 -0.0264991 -3.17397e-28)
(1.11906 -0.0248848 0)
(1.13177 -0.0232967 0)
(1.14247 -0.0217542 6.17846e-12)
(1.15133 -0.0202713 6.2783e-12)
(1.15855 -0.0188572 1.97565e-28)
(1.16431 -0.0175169 -3.62735e-28)
(1.16882 -0.0162516 -4.89036e-28)
(1.17226 -0.01506 0)
(1.17479 -0.0139384 0)
(1.17657 -0.0128817 -2.83609e-28)
(1.17775 -0.0118839 0)
(1.17844 -0.0109385 0)
(1.17875 -0.0100391 0)
(1.17877 -0.00917932 0)
(1.17858 -0.00835326 0)
(1.17825 -0.00755556 0)
(1.17782 -0.0067814 -5.35736e-28)
(1.17734 -0.00602661 0)
(1.17685 -0.00528754 0)
(1.17636 -0.00456113 0)
(1.17592 -0.00384474 -3.05036e-28)
(1.17552 -0.00313618 0)
(1.17519 -0.00243357 0)
(1.17494 -0.00173533 0)
(1.17476 -0.00104006 1.90738e-28)
(1.17468 -0.000346504 -3.10882e-28)
(0.724735 0.0340129 0)
(0.759735 0.035432 0)
(0.795441 0.0364284 0)
(0.83127 0.0369942 0)
(0.866673 0.037149 0)
(0.901147 0.0369273 0)
(0.934252 0.0363687 0)
(0.965614 0.0355173 0)
(0.994935 0.03442 1.20744e-29)
(1.02199 0.033125 -1.20744e-29)
(1.04664 0.0316796 -3.52928e-28)
(1.0688 0.0301287 3.52928e-28)
(1.08846 0.0285134 0)
(1.10569 0.0268701 0)
(1.12057 0.0252297 1.35102e-29)
(1.13325 0.0236175 -1.35102e-29)
(1.1439 0.0220529 0)
(1.1527 0.02055 0)
(1.15985 0.0191176 0)
(1.16555 0.0177607 0)
(1.16998 0.0164802 0)
(1.17335 0.0152745 0)
(1.17582 0.0141398 0)
(1.17755 0.0130706 0)
(1.17867 0.0120608 6.80735e-12)
(1.17931 0.0111037 -6.80735e-12)
(1.17958 0.0101929 0)
(1.17957 0.00932171 0)
(1.17935 0.00848434 0)
(1.17899 0.00767531 0)
(1.17854 0.00688983 7.09704e-12)
(1.17805 0.00612367 -7.09704e-12)
(1.17754 0.00537322 0)
(1.17705 0.0046354 0)
(1.17659 0.0039076 0)
(1.17619 0.00318761 0)
(1.17586 0.00247357 4.59975e-28)
(1.1756 0.00176389 -4.59975e-28)
(1.17542 0.00105719 0)
(1.17533 0.000352216 0)
(0.702262 0.0327229 -7.0269e-22)
(0.690699 0.0319606 -3.04007e-22)
(0.679255 0.031136 6.89013e-22)
(0.667966 0.0302497 -4.14919e-22)
(0.656872 0.0292968 2.67604e-22)
(0.646014 0.0282768 1.12219e-22)
(0.63543 0.0271908 4.95179e-22)
(0.625161 0.02604 1.05252e-21)
(0.615247 0.0248256 1.45673e-21)
(0.605728 0.0235494 7.20769e-22)
(0.605728 0.0235494 7.20769e-22)
(0.59326 0.0226316 -6.78359e-22)
(0.584509 0.0212133 -2.54229e-23)
(0.576273 0.019739 2.52529e-22)
(0.568585 0.0182118 5.15795e-22)
(0.56148 0.0166351 3.85514e-22)
(0.554989 0.0150127 5.99253e-22)
(0.549142 0.0133485 -9.91386e-24)
(0.543965 0.0116468 -2.78639e-22)
(0.539482 0.00991209 -9.33546e-23)
(0.535713 0.00814912 1.64373e-22)
(0.532677 0.00636276 -4.42441e-22)
(0.530387 0.00455804 4.67458e-22)
(0.528855 0.00274012 -6.53093e-23)
(0.528087 0.000914256 -2.89821e-23)
)
;
    }
    procBoundary49to50
    {
        type            processor;
        value           nonuniform List<vector> 
131
(
(0.545271 -0.000847532 2.49754e-23)
(0.545991 -0.00254014 -1.17313e-22)
(0.547426 -0.00422554 1.84304e-22)
(0.549571 -0.00589898 2.27792e-22)
(0.552416 -0.00755578 -4.8204e-23)
(0.555948 -0.00919136 -2.71209e-22)
(0.560151 -0.0108013 6.69006e-22)
(0.565006 -0.0123812 2.72693e-22)
(0.570492 -0.0139272 5.30353e-23)
(0.576583 -0.0154351 1.1833e-22)
(0.583255 -0.0169015 -4.83287e-23)
(0.590478 -0.0183229 -1.99548e-21)
(0.590478 -0.0183229 -1.99548e-21)
(0.601506 -0.0193394 -3.23215e-22)
(0.609614 -0.020639 -4.61695e-22)
(0.61817 -0.0218861 2.33086e-22)
(0.627141 -0.0230787 9.46663e-22)
(0.636491 -0.0242147 -4.01844e-22)
(0.646183 -0.0252926 -3.56203e-23)
(0.656182 -0.026311 -4.82149e-22)
(0.666449 -0.0272689 -3.90861e-22)
(0.676949 -0.0281653 1.07772e-21)
(0.687644 -0.0290004 -1.55864e-22)
(0.698499 -0.0297781 1.82185e-21)
(0.709477 -0.0304975 1.21093e-21)
(0.709477 -0.0304975 1.21093e-21)
(0.732385 -0.031188 0)
(0.765358 -0.0325406 0)
(0.799081 -0.0335044 0)
(0.833014 -0.0340741 0)
(0.866645 -0.0342668 0)
(0.899507 -0.0341127 0)
(0.931184 -0.0336466 0)
(0.961321 -0.0329073 0)
(0.989627 -0.0319368 0)
(1.01588 -0.0307779 0)
(1.03993 -0.0294731 0)
(1.06169 -0.0280631 0)
(1.08113 -0.0265854 0)
(1.09827 -0.0250739 0)
(1.11321 -0.0235573 1.12795e-29)
(1.12605 -0.02206 -1.12795e-29)
(1.13693 -0.0206008 0)
(1.14602 -0.0191939 0)
(1.15349 -0.017849 0)
(1.15953 -0.0165718 0)
(1.16431 -0.0153644 0)
(1.168 -0.0142263 0)
(1.17079 -0.0131548 0)
(1.1728 -0.0121457 0)
(1.17418 -0.0111937 -3.66596e-28)
(1.17505 -0.0102931 3.66596e-28)
(1.17552 -0.00943763 0)
(1.17568 -0.00862153 0)
(1.17561 -0.00783911 3.52477e-28)
(1.17537 -0.00708515 -3.52477e-28)
(1.17503 -0.00635495 -3.84363e-28)
(1.17461 -0.00564435 3.84363e-28)
(1.17417 -0.00494973 0)
(1.17373 -0.00426797 0)
(1.17332 -0.00359643 0)
(1.17295 -0.00293286 0)
(1.17264 -0.00227534 -3.93027e-28)
(1.1724 -0.00162226 3.93027e-28)
(1.17224 -0.000972201 6.19808e-12)
(1.17215 -0.000323882 -6.26465e-12)
(0.730889 0.0317265 0)
(0.764253 0.0330921 0)
(0.798359 0.0340626 0)
(0.832657 0.0346319 0)
(0.866631 0.0348179 0)
(0.899806 0.0346514 0)
(0.93176 0.0341681 -7.36754e-29)
(0.962135 0.0334079 7.36754e-29)
(0.99064 0.0324136 -4.58749e-12)
(1.01705 0.0312291 4.58749e-12)
(1.04122 0.0298979 0)
(1.06306 0.0284613 0)
(1.08254 0.0269576 0)
(1.09971 0.025421 0)
(1.11464 0.0238809 0)
(1.12745 0.0223617 0)
(1.13829 0.0208824 0)
(1.14732 0.0194571 0)
(1.15473 0.0180955 -5.53495e-12)
(1.1607 0.016803 5.53495e-12)
(1.16542 0.0155815 0)
(1.16905 0.0144305 0)
(1.17177 0.0133468 0)
(1.17373 0.0123262 0)
(1.17506 0.0113631 -9.99246e-29)
(1.17588 0.0104516 9.99246e-29)
(1.17631 0.00958546 0)
(1.17644 0.00875872 0)
(1.17634 0.00796567 0)
(1.17608 0.00720102 0)
(1.17571 0.00646008 6.24919e-12)
(1.17528 0.00573865 -6.24919e-12)
(1.17483 0.00503312 0)
(1.17438 0.00434038 0)
(1.17395 0.0036578 0)
(1.17358 0.00298313 0)
(1.17326 0.00231448 0)
(1.17302 0.00165023 0)
(1.17285 0.000988991 1.43498e-28)
(1.17277 0.00032948 -1.45039e-28)
(0.709477 0.0304975 -1.20818e-21)
(0.698499 0.0297781 -1.85182e-21)
(0.687644 0.0290004 2.72951e-22)
(0.676949 0.0281653 -1.20186e-21)
(0.666449 0.0272689 5.56538e-22)
(0.656181 0.026311 -7.32313e-22)
(0.646183 0.0252925 -2.65489e-22)
(0.636491 0.0242146 3.94077e-22)
(0.627141 0.0230786 -9.18054e-22)
(0.61817 0.0218861 1.35987e-22)
(0.609614 0.0206389 1.39353e-22)
(0.601506 0.0193394 3.64656e-22)
(0.590478 0.0183229 1.84478e-21)
(0.590478 0.0183229 1.84478e-21)
(0.583255 0.0169015 4.4652e-22)
(0.576583 0.0154351 -5.28955e-22)
(0.570492 0.0139271 7.39361e-23)
(0.565006 0.0123812 -3.80338e-22)
(0.560151 0.0108012 -4.70416e-22)
(0.555948 0.00919131 -3.70152e-22)
(0.552416 0.00755573 -3.45577e-22)
(0.549571 0.00589894 6.54115e-23)
(0.547426 0.0042255 -1.54578e-22)
(0.545991 0.0025401 1.38107e-22)
(0.545271 0.000847486 -3.41e-23)
)
;
    }
}


// ************************************************************************* //
