/*--------------------------------*- C++ -*----------------------------------*\
  =========                 |
  \\      /  F ield         | OpenFOAM: The Open Source CFD Toolbox
   \\    /   O peration     | Website:  https://openfoam.org
    \\  /    A nd           | Version:  7
     \\/     M anipulation  |
\*---------------------------------------------------------------------------*/
FoamFile
{
    version     2.0;
    format      ascii;
    class       volScalarField;
    location    "70";
    object      p;
}
// * * * * * * * * * * * * * * * * * * * * * * * * * * * * * * * * * * * * * //

dimensions      [0 2 -2 0 0 0 0];

internalField   nonuniform List<scalar> 
183
(
0.100273
0.115394
0.115931
0.133365
0.131739
0.13128
0.153251
0.150582
0.14786
0.146342
0.174812
0.171308
0.167416
0.163626
0.193641
0.188853
0.183788
0.178954
0.217633
0.211827
0.205807
0.199615
0.236364
0.229289
0.222089
0.26247
0.254229
0.245943
0.237622
0.280618
0.271143
0.261711
0.308346
0.297656
0.287023
0.276515
0.325353
0.3135
0.30179
0.290284
0.340991
0.328071
0.315372
0.369271
0.355181
0.341296
0.327702
0.38287
0.367851
0.353108
0.338719
0.394762
0.378938
0.363448
0.348368
0.404888
0.388384
0.372266
0.413195
0.396144
0.379518
0.419644
0.402179
0.385171
0.424203
0.406462
0.389197
0.445126
0.426852
0.408975
0.391582
0.445849
0.427582
0.409708
0.392315
0.426394
0.408664
0.3914
0.423302
0.405852
0.388845
0.418327
0.401296
0.384671
0.411503
0.395024
0.378905
0.402876
0.387078
0.371585
0.356472
0.392498
0.377508
0.362756
0.348325
0.380434
0.366371
0.352471
0.338825
0.353735
0.340793
0.328028
0.339676
0.32779
0.315999
0.304368
0.324275
0.313539
0.302807
0.292153
0.298121
0.288528
0.278926
0.281624
0.273243
0.264761
0.256193
0.257037
0.249738
0.242261
0.24
0.23394
0.227611
0.221074
0.217453
0.212324
0.20688
0.201632
0.196482
0.192182
0.187952
0.180171
0.17707
0.173891
0.171672
0.161617
0.159542
0.15835
0.145068
0.144882
0.131278
0.0717647
0.0380014
0.0192561
0.00764557
0.0025421
0.00112037
0.000760483
-0.000823115
0.0028015
0.00620816
0.00487392
0.00698836
0.00470901
0.0147026
0.0105807
0.0148391
0.010646
0.0175002
0.0153788
0.0178107
0.0170434
0.106571
0.0706396
0.0516073
0.0378516
0.0322159
0.0257217
0.0233558
0.0232233
0.0265788
0.0245438
0.0300578
0.0268641
0.0365797
0.0287163
0.0330158
0.0273834
0.0338117
0.0316872
0.031554
0.0311542
0.0325781
)
;

boundaryField
{
    inlet
    {
        type            zeroGradient;
    }
    outlet
    {
        type            fixedValue;
        value           nonuniform 0();
    }
    cylinder
    {
        type            zeroGradient;
    }
    top
    {
        type            symmetryPlane;
    }
    bottom
    {
        type            symmetryPlane;
    }
    defaultFaces
    {
        type            empty;
    }
    procBoundary4to2
    {
        type            processor;
        value           nonuniform List<scalar> 6(0.126593 0.134487 0.141995 0.160406 0.153864 0.146964);
    }
    procBoundary4to3
    {
        type            processor;
        value           nonuniform List<scalar> 
90
(
0.118301
0.161055
0.161055
0.175334
0.193764
0.193764
0.21482
0.21482
0.229327
0.25233
0.25233
0.266142
0.278991
0.30295
0.30295
0.314451
0.324731
0.333741
0.356603
0.356603
0.363385
0.368681
0.372468
0.374731
0.375463
0.374663
0.372343
0.368519
0.363218
0.363218
0.341786
0.334265
0.325485
0.3155
0.3155
0.292911
0.281591
0.269328
0.269328
0.24762
0.23468
0.23468
0.214841
0.214841
0.197409
0.184726
0.184726
0.139718
0.0959913
0.0801908
0.0612334
0.0482826
0.0358487
0.0317847
0.0304681
0.0238376
0.0201719
0.0217441
0.0239254
0.0210525
0.0194783
0.0193608
0.0185621
0.0222948
0.0196836
0.0189614
0.017986
0.0229345
0.018153
0.120279
0.104888
0.0887305
0.0717248
0.0664486
0.0597052
0.0515352
0.0434944
0.0474839
0.0373967
0.0430236
0.0351053
0.0398893
0.0358765
0.0403065
0.0369289
0.0361877
0.0363411
0.0391382
0.0386755
0.0360588
)
;
    }
    procBoundary4to5
    {
        type            processor;
        value           nonuniform List<scalar> 
106
(
0.0840509
0.0840509
0.0989832
0.0989832
0.115874
0.115874
0.134752
0.134752
0.155426
0.155426
0.17793
0.198125
0.198125
0.22321
0.243303
0.243303
0.27058
0.290058
0.290058
0.318979
0.337243
0.354036
0.354036
0.383448
0.398053
0.410819
0.42168
0.430581
0.437475
0.442331
0.442331
0.463677
0.464391
0.444504
0.444504
0.441102
0.43567
0.428244
0.418872
0.407614
0.394539
0.366757
0.366757
0.351549
0.3349
0.307623
0.307623
0.289815
0.264142
0.264142
0.24577
0.222223
0.222223
0.200362
0.200362
0.182752
0.163453
0.163453
0.145948
0.145948
0.130511
0.130511
0.117548
0.117548
0.0579272
0.0224548
0.00799666
0.000150694
-0.00037799
-0.00228197
-0.00437437
-0.00192089
0.00351665
0.00403268
0.000930359
0.00392826
0.00547711
0.0134071
0.0114213
0.0118258
0.0108921
0.0184565
0.0166364
0.0155572
0.0185243
0.0937258
0.0553762
0.0404258
0.0318141
0.0255959
0.0195745
0.0216097
0.0233212
0.0247956
0.0253652
0.028848
0.0286318
0.0347866
0.0295812
0.0298485
0.0277843
0.0342772
0.0322116
0.0289836
0.029058
0.0335712
)
;
    }
}


// ************************************************************************* //
