/*--------------------------------*- C++ -*----------------------------------*\
  =========                 |
  \\      /  F ield         | OpenFOAM: The Open Source CFD Toolbox
   \\    /   O peration     | Website:  https://openfoam.org
    \\  /    A nd           | Version:  7
     \\/     M anipulation  |
\*---------------------------------------------------------------------------*/
FoamFile
{
    version     2.0;
    format      ascii;
    class       surfaceScalarField;
    location    "84";
    object      phi;
}
// * * * * * * * * * * * * * * * * * * * * * * * * * * * * * * * * * * * * * //

dimensions      [0 3 -1 0 0 0 0];

internalField   nonuniform List<scalar> 
79480
(
-9.31391e-07
-3.43079e-06
4.36218e-06
-3.56263e-06
-1.19537e-05
1.45849e-05
-7.81577e-06
-2.2287e-05
2.65402e-05
-1.36196e-05
-3.42455e-05
4.00494e-05
-2.09079e-05
-4.76089e-05
5.48971e-05
-2.96182e-05
-6.21456e-05
7.0856e-05
-3.96914e-05
-7.76286e-05
8.77017e-05
-5.10691e-05
-9.38532e-05
0.000105231
-6.36931e-05
-0.000110656
0.00012328
-7.75032e-05
-0.000127932
0.000141742
-9.24359e-05
-0.000145648
0.000160581
-0.000108424
-0.000163855
0.000179843
-0.000125394
-0.000182682
0.000199652
-0.00014327
-0.000202338
0.000220214
-0.00016197
-0.000223098
0.000241797
-0.000181407
-0.000245281
0.000264718
-0.000201493
-0.000269236
0.000289323
-0.000222139
-0.000295317
0.000315963
-0.000243256
-0.000323862
0.000344979
-0.00026476
-0.000355175
0.000376679
-0.000286573
-0.000389514
0.000411327
-0.000308631
-0.00042708
0.000449137
-0.000330887
-0.000468012
0.000490268
-0.000353321
-0.000512385
0.00053482
-0.000375948
-0.000560213
0.00058284
-0.000398821
-0.000611452
0.000634326
-0.000422038
-0.000666005
0.000689221
-0.000445731
-0.000723715
0.000747408
-0.000470065
-0.000784349
0.000808683
-0.00084755
0.000872785
-0.0004953
-1.00054e-06
-2.43024e-06
-3.82293e-06
-9.13129e-06
-8.37929e-06
-1.77307e-05
-1.45889e-05
-2.80359e-05
-2.23762e-05
-3.98215e-05
-3.16705e-05
-5.28513e-05
-4.24046e-05
-6.68945e-05
-5.45139e-05
-8.17439e-05
-6.7935e-05
-9.72348e-05
-8.26045e-05
-0.000113262
-9.8458e-05
-0.000129795
-0.00011543
-0.000146883
-0.000133451
-0.000164661
-0.000152451
-0.000183338
-0.000172358
-0.000203191
-0.000193096
-0.000224543
-0.000214591
-0.000247742
-0.000236767
-0.000273141
-0.00025955
-0.000301078
-0.000282872
-0.000331853
-0.00030667
-0.000365716
-0.000330896
-0.000402854
-0.000355524
-0.000443384
-0.000380557
-0.000487352
-0.000406039
-0.000534731
-0.000432064
-0.000585428
-0.000458776
-0.000639292
-0.000486367
-0.000696125
-0.00051506
-0.000755656
-0.000817446
-0.000545163
-1.05972e-06
-1.37052e-06
-4.04599e-06
-6.14502e-06
-8.86247e-06
-1.29142e-05
-1.542e-05
-2.14784e-05
-2.36349e-05
-3.16066e-05
-3.34283e-05
-4.30579e-05
-4.47258e-05
-5.55971e-05
-5.74564e-05
-6.90134e-05
-7.15517e-05
-8.31395e-05
-8.69449e-05
-9.78689e-05
-0.000103571
-0.000113169
-0.000121363
-0.00012909
-0.000140259
-0.000145765
-0.000160191
-0.000163405
-0.000181096
-0.000182286
-0.000202909
-0.00020273
-0.000225564
-0.000225086
-0.000248998
-0.000249708
-0.000273146
-0.00027693
-0.00029795
-0.000307049
-0.000323355
-0.00034031
-0.000349321
-0.000376888
-0.000375828
-0.000416878
-0.000402887
-0.000460293
-0.000430558
-0.00050706
-0.000458957
-0.000557029
-0.000488263
-0.000609985
-0.000518711
-0.000665677
-0.000550576
-0.000723792
-0.000783814
-0.000584208
-1.1075e-06
-2.63019e-07
-4.22669e-06
-3.02583e-06
-9.25466e-06
-7.88621e-06
-1.60954e-05
-1.46376e-05
-2.46581e-05
-2.3044e-05
-3.48568e-05
-3.28592e-05
-4.66103e-05
-4.38435e-05
-5.98417e-05
-5.5782e-05
-7.44776e-05
-6.85036e-05
-9.04479e-05
-8.18986e-05
-0.000107685
-9.59319e-05
-0.000126125
-0.000110651
-0.000145704
-0.000126186
-0.000166363
-0.000142747
-0.000188042
-0.000160607
-0.000210685
-0.000180087
-0.000234234
-0.000201537
-0.000258632
-0.000225309
-0.000283824
-0.000251739
-0.000309751
-0.000281122
-0.000336362
-0.0003137
-0.000363612
-0.000349638
-0.000391476
-0.000389013
-0.000419961
-0.000431808
-0.000449121
-0.0004779
-0.000479079
-0.000527072
-0.000510031
-0.000579034
-0.000542244
-0.000633464
-0.000576036
-0.000689999
-0.00074805
-0.0006118
-1.14267e-06
8.7965e-07
-4.36067e-06
1.92173e-07
-9.54674e-06
-2.70013e-06
-1.65999e-05
-7.58446e-06
-2.54236e-05
-1.42203e-05
-3.59259e-05
-2.23568e-05
-4.80199e-05
-3.17496e-05
-6.16227e-05
-4.21791e-05
-7.66562e-05
-5.34701e-05
-9.30466e-05
-6.55083e-05
-0.000110724
-7.82542e-05
-0.000129624
-9.1751e-05
-0.000149685
-0.000106125
-0.000170849
-0.000121582
-0.000193063
-0.000138393
-0.000216275
-0.000156876
-0.000240432
-0.00017738
-0.000265482
-0.000200259
-0.000291371
-0.00022585
-0.000318039
-0.000254453
-0.000345429
-0.00028631
-0.000373484
-0.000321583
-0.00040216
-0.000360337
-0.000431444
-0.000402524
-0.000461368
-0.000447976
-0.000492038
-0.000496402
-0.000523651
-0.00054742
-0.000556495
-0.00060062
-0.000590926
-0.000655569
-0.00071159
-0.000627385
-1.16425e-06
2.0439e-06
-4.44441e-06
3.47233e-06
-9.73139e-06
2.58685e-06
-1.69213e-05
-3.94591e-07
-2.59135e-05
-5.22807e-06
-3.66115e-05
-1.16588e-05
-4.8923e-05
-1.94381e-05
-6.27602e-05
-2.83419e-05
-7.80401e-05
-3.81902e-05
-9.46848e-05
-4.88636e-05
-0.000112622
-6.03171e-05
-0.000131785
-7.25882e-05
-0.000152112
-8.5798e-05
-0.000173548
-0.000100146
-0.000196041
-0.0001159
-0.000219542
-0.000133375
-0.000244001
-0.000152921
-0.000269367
-0.000174893
-0.000295584
-0.000199634
-0.000322586
-0.000227451
-0.000350302
-0.000258594
-0.000378655
-0.00029323
-0.000407573
-0.000331419
-0.000437004
-0.000373093
-0.000466942
-0.000418038
-0.000497453
-0.000465891
-0.000528713
-0.00051616
-0.000561017
-0.000568316
-0.000594755
-0.000621831
-0.000675913
-0.000630432
-1.17154e-06
3.21544e-06
-4.47538e-06
6.77616e-06
-9.80327e-06
7.91475e-06
-1.70506e-05
6.8527e-06
-2.61145e-05
3.83589e-06
-3.68952e-05
-8.7815e-07
-4.9296e-05
-7.0373e-06
-6.32243e-05
-1.44136e-05
-7.85924e-05
-2.28221e-05
-9.53178e-05
-3.21381e-05
-0.000113325
-4.23104e-05
-0.000132543
-5.33698e-05
-0.00015291
-6.54307e-05
-0.00017437
-7.86867e-05
-0.00019687
-9.33996e-05
-0.000220362
-0.000109884
-0.000244795
-0.000128487
-0.000270117
-0.000149571
-0.000296265
-0.000173486
-0.000323164
-0.000200553
-0.000350723
-0.000231035
-0.000378838
-0.000265114
-0.000407399
-0.000302858
-0.0004363
-0.000344191
-0.000465475
-0.000388863
-0.00049493
-0.000436436
-0.000524793
-0.000486297
-0.000555347
-0.000537762
-0.000587012
-0.000590165
-0.000642546
-0.000620379
-1.16416e-06
4.3796e-06
-4.4521e-06
1.00641e-05
-9.7592e-06
1.32218e-05
-1.69823e-05
1.40758e-05
-2.60184e-05
1.28719e-05
-3.67652e-05
9.86874e-06
-4.9123e-05
5.32044e-06
-6.29946e-05
-5.41979e-07
-7.82873e-05
-7.5294e-06
-9.49137e-05
-1.55118e-05
-0.000112793
-2.44314e-05
-0.00013185
-3.43121e-05
-0.00015202
-4.52611e-05
-0.000173242
-5.7465e-05
-0.000195461
-7.11803e-05
-0.000218626
-8.67188e-05
-0.000242684
-0.00010443
-0.000267574
-0.00012468
-0.000293226
-0.000147834
-0.00031955
-0.000174229
-0.000346434
-0.000204152
-0.000373739
-0.000237809
-0.000401306
-0.000275291
-0.000428967
-0.000316529
-0.000456576
-0.000361255
-0.000484048
-0.000408963
-0.000511437
-0.000458908
-0.000538986
-0.000510213
-0.000567139
-0.000562012
-0.000613096
-0.000596589
-1.14203e-06
5.52163e-06
-4.37424e-06
1.32963e-05
-9.59829e-06
1.84459e-05
-1.67148e-05
2.11923e-05
-2.5622e-05
2.17791e-05
-3.62169e-05
2.04637e-05
-4.8397e-05
1.75005e-05
-6.20612e-05
1.31221e-05
-7.71113e-05
7.52071e-06
-9.34536e-05
8.30519e-07
-0.000111001
-6.88366e-06
-0.000129674
-1.56397e-05
-0.000149398
-2.55368e-05
-0.000170108
-3.67549e-05
-0.000191743
-4.95453e-05
-0.000214245
-6.42174e-05
-0.000237551
-8.11227e-05
-0.000261595
-0.000100637
-0.000286291
-0.000123138
-0.000311531
-0.000148988
-0.000337177
-0.000178506
-0.000363054
-0.000211933
-0.000388947
-0.000249398
-0.000414615
-0.000290861
-0.000439814
-0.000336057
-0.000464345
-0.000384432
-0.000488145
-0.000435108
-0.000511388
-0.00048697
-0.000534515
-0.000538885
-0.000589282
-0.000558329
-1.10541e-06
6.62704e-06
-4.24263e-06
1.64335e-05
-9.32206e-06
2.35253e-05
-1.62501e-05
2.81203e-05
-2.49279e-05
3.04569e-05
-3.52528e-05
3.07887e-05
-4.71203e-05
2.93679e-05
-6.04248e-05
2.64267e-05
-7.50627e-05
2.21586e-05
-9.09338e-05
1.67016e-05
-0.000107942
1.01246e-05
-0.000125999
2.41692e-06
-0.000145022
-6.51398e-06
-0.000164935
-1.68418e-05
-0.000185667
-2.88129e-05
-0.000207149
-4.27354e-05
-0.000229307
-5.89643e-05
-0.000252059
-7.7885e-05
-0.000275302
-9.98949e-05
-0.000298907
-0.000125383
-0.000322706
-0.000154707
-0.000346482
-0.000188157
-0.000369965
-0.000225915
-0.000392832
-0.000267994
-0.000414728
-0.00031416
-0.000435317
-0.000363843
-0.000454378
-0.000416047
-0.000471966
-0.000469382
-0.000488481
-0.00052237
-0.000572973
-0.000504791
-1.05492e-06
7.68196e-06
-4.05931e-06
1.94379e-05
-8.93449e-06
2.84005e-05
-1.55943e-05
3.47802e-05
-2.39443e-05
3.88069e-05
-3.38831e-05
4.07275e-05
-4.53042e-05
4.0789e-05
-5.80981e-05
3.92207e-05
-7.21546e-05
3.62151e-05
-8.73649e-05
3.19119e-05
-0.000103623
2.6383e-05
-0.000120829
1.9623e-05
-0.000138888
1.15449e-05
-0.00015771
1.98004e-06
-0.000177209
-9.31395e-06
-0.000197299
-2.26456e-05
-0.000217888
-3.83748e-05
-0.000238874
-5.6899e-05
-0.000260132
-7.86368e-05
-0.000281506
-0.00010401
-0.000302794
-0.000133419
-0.000323737
-0.000167214
-0.000344006
-0.000205646
-0.000363197
-0.000248804
-0.000380838
-0.000296519
-0.000396433
-0.000348248
-0.000409567
-0.000402913
-0.000420116
-0.000458833
-0.000428379
-0.000514108
-0.000566195
-0.000435156
-9.91506e-07
8.67346e-06
-3.82751e-06
2.22739e-05
-8.44197e-06
3.3015e-05
-1.47576e-05
4.10959e-05
-2.26853e-05
4.67345e-05
-3.21253e-05
5.01675e-05
-4.29699e-05
5.16336e-05
-5.51048e-05
5.13556e-05
-6.84126e-05
4.95228e-05
-8.27742e-05
4.62735e-05
-9.80719e-05
4.16807e-05
-0.000114191
3.57418e-05
-0.000131019
2.83733e-05
-0.000148449
1.94101e-05
-0.000166374
8.6108e-06
-0.000184685
-4.33452e-06
-0.000203267
-1.97933e-05
-0.000221988
-3.81772e-05
-0.000240696
-5.9929e-05
-0.0002592
-8.55055e-05
-0.000277262
-0.000115358
-0.000294576
-0.0001499
-0.000310755
-0.000189467
-0.000325315
-0.000234243
-0.000337673
-0.000284162
-0.000347165
-0.000338756
-0.000353149
-0.000396929
-0.000355262
-0.00045672
-0.000353621
-0.000515748
-0.000571082
-0.000348734
-9.16444e-07
9.58991e-06
-3.5516e-06
2.49091e-05
-7.85324e-06
3.73166e-05
-1.37539e-05
4.69965e-05
-2.11702e-05
5.41508e-05
-3.00047e-05
5.9002e-05
-4.01479e-05
6.17767e-05
-5.14805e-05
6.26882e-05
-6.38763e-05
6.19187e-05
-7.72048e-05
5.96019e-05
-9.13333e-05
5.58092e-05
-0.000106129
5.05376e-05
-0.00012146
4.37042e-05
-0.000137194
3.51446e-05
-0.000153199
2.46156e-05
-0.000169336
1.18025e-05
-0.000185457
-3.6722e-06
-0.000201397
-2.22376e-05
-0.000216962
-4.43633e-05
-0.000231923
-7.05448e-05
-0.000245995
-0.000101286
-0.000258824
-0.000137071
-0.000269964
-0.000178326
-0.000278859
-0.000225348
-0.000284821
-0.0002782
-0.000287033
-0.000336544
-0.000284614
-0.000399348
-0.000276908
-0.000464427
-0.000263817
-0.000528838
-0.000589786
-0.000245114
-8.31304e-07
1.04212e-05
-3.23701e-06
2.73148e-05
-7.17922e-06
4.12588e-05
-1.26005e-05
5.24178e-05
-1.94237e-05
6.0974e-05
-2.75533e-05
6.71316e-05
-3.68776e-05
7.11011e-05
-4.72715e-05
7.30822e-05
-5.85989e-05
7.32461e-05
-7.07156e-05
7.17186e-05
-8.34714e-05
6.8565e-05
-9.67124e-05
6.37786e-05
-0.000110281
5.72732e-05
-0.000124018
4.8881e-05
-0.000137756
3.83534e-05
-0.00015132
2.53669e-05
-0.000164522
9.52953e-06
-0.000177151
-9.60893e-06
-0.000188966
-3.25482e-05
-0.000199685
-5.98256e-05
-0.00020897
-9.20002e-05
-0.000216412
-0.00012963
-0.000221504
-0.000173233
-0.000223623
-0.000223229
-0.000221994
-0.000279829
-0.000215672
-0.000342865
-0.000203557
-0.000411463
-0.000184619
-0.000483365
-0.000158818
-0.000554639
-0.000623986
-0.000124617
-7.37915e-07
1.11591e-05
-2.89007e-06
2.94669e-05
-6.43274e-06
4.48015e-05
-1.13183e-05
5.73034e-05
-1.74753e-05
6.7131e-05
-2.48095e-05
7.44658e-05
-3.32068e-05
7.94983e-05
-4.25348e-05
8.24101e-05
-5.2646e-05
8.33573e-05
-6.33804e-05
8.2453e-05
-7.45677e-05
7.97523e-05
-8.60292e-05
7.52401e-05
-9.75782e-05
6.88223e-05
-0.00010902
6.03226e-05
-0.000120149
4.94822e-05
-0.000130745
3.59634e-05
-0.000140571
1.93551e-05
-0.00014936
-8.20027e-07
-0.000156813
-2.50949e-05
-0.000162585
-5.40536e-05
-0.000166273
-8.83124e-05
-0.000167401
-0.000128502
-0.000165399
-0.000175235
-0.00015958
-0.000229049
-0.000149099
-0.00029031
-0.000132921
-0.000359043
-0.000109782
-0.000434602
-7.80994e-05
-0.000515048
-3.66559e-05
-0.000596082
-0.000668019
7.37669e-06
-6.38312e-07
1.17974e-05
-2.51789e-06
3.13465e-05
-5.6282e-06
4.79118e-05
-9.93054e-06
6.16057e-05
-1.53581e-05
7.25585e-05
-2.18174e-05
8.09251e-05
-2.91902e-05
8.68711e-05
-3.73358e-05
9.05557e-05
-4.60937e-05
9.21152e-05
-5.52859e-05
9.16452e-05
-6.47191e-05
8.91856e-05
-7.41863e-05
8.47073e-05
-8.34671e-05
7.81031e-05
-9.23267e-05
6.91822e-05
-0.000100514
5.76695e-05
-0.000107758
4.32069e-05
-0.00011376
2.53578e-05
-0.000118192
3.61143e-06
-0.000120683
-2.26039e-05
-0.000120813
-5.39235e-05
-0.000118102
-9.10234e-05
-0.000111997
-0.000134607
-0.000101856
-0.000185375
-8.69265e-05
-0.000243978
-6.63102e-05
-0.000310927
-3.89147e-05
-0.000386438
-3.39292e-06
-0.000470124
4.18777e-05
-0.000560319
9.86779e-05
-0.000652883
-0.000735736
0.000166395
-5.34675e-07
1.23321e-05
-2.12808e-06
3.29399e-05
-4.78115e-06
5.05649e-05
-8.46248e-06
6.52871e-05
-1.31086e-05
7.72046e-05
-1.8625e-05
8.64415e-05
-2.48881e-05
9.31343e-05
-3.17474e-05
9.7415e-05
-3.90272e-05
9.9395e-05
-4.65295e-05
9.91475e-05
-5.40353e-05
9.66914e-05
-6.13059e-05
9.19779e-05
-6.80828e-05
8.48799e-05
-7.40865e-05
7.5186e-05
-7.90143e-05
6.25973e-05
-8.25355e-05
4.67281e-05
-8.42865e-05
2.71088e-05
-8.38638e-05
3.18878e-06
-8.08167e-05
-2.5651e-05
-7.46395e-05
-6.01007e-05
-6.47628e-05
-0.0001009
-5.05452e-05
-0.000148825
-3.12634e-05
-0.000204657
-6.09597e-06
-0.000269146
2.59019e-05
-0.000342925
6.58433e-05
-0.00042638
0.00011512
-0.000519401
0.000175508
-0.000620706
0.000248478
-0.000725853
-0.000823717
0.000336459
-4.29255e-07
1.27614e-05
-1.72854e-06
3.42392e-05
-3.90777e-06
5.27441e-05
-6.94055e-06
6.83199e-05
-1.07646e-05
8.10287e-05
-1.52827e-05
9.09597e-05
-2.03642e-05
9.82157e-05
-2.58465e-05
0.000102897
-3.15372e-05
0.000105086
-3.72157e-05
0.000104826
-4.26347e-05
0.00010211
-4.75203e-05
9.68635e-05
-5.15723e-05
8.89319e-05
-5.44619e-05
7.80757e-05
-5.58292e-05
6.39646e-05
-5.52783e-05
4.61772e-05
-5.2372e-05
2.42025e-05
-4.66261e-05
-2.55711e-06
-3.74996e-05
-3.47774e-05
-2.43936e-05
-7.32067e-05
-6.63985e-06
-0.000118654
1.65005e-05
-0.000171965
4.58423e-05
-0.000233999
8.22781e-05
-0.000305582
0.000126792
-0.000387438
0.000180491
-0.000480079
0.000244707
-0.000583617
0.000321169
-0.000697168
0.000411751
-0.000816435
-0.00093162
0.000519655
-3.24295e-07
1.30857e-05
-1.32719e-06
3.52421e-05
-3.0243e-06
5.44412e-05
-5.39136e-06
7.06869e-05
-8.36474e-06
8.40021e-05
-1.18421e-05
9.4437e-05
-1.56834e-05
0.000102057
-1.97121e-05
0.000106926
-2.37168e-05
0.00010909
-2.74519e-05
0.000108561
-3.06389e-05
0.000105297
-3.29661e-05
9.91907e-05
-3.40877e-05
9.00535e-05
-3.36215e-05
7.76095e-05
-3.11457e-05
6.14888e-05
-2.61941e-05
4.12255e-05
-1.82504e-05
1.62588e-05
-6.74294e-06
-1.40646e-05
8.96288e-06
-5.04832e-05
2.95696e-05
-9.38135e-05
5.5846e-05
-0.00014493
8.86325e-05
-0.000204751
0.000128835
-0.000274201
0.000177419
-0.000354165
0.000235403
-0.000445423
0.000303867
-0.000548543
0.000384012
-0.000663761
0.000477417
-0.000790574
0.00058599
-0.000925007
-0.00105935
0.000713723
-2.2194e-07
1.33076e-05
-9.3161e-07
3.59518e-05
-2.14639e-06
5.5656e-05
-3.84063e-06
7.23811e-05
-5.94627e-06
8.61077e-05
-8.35304e-06
9.68438e-05
-1.0909e-05
0.000104613
-1.34213e-05
0.000109438
-1.5657e-05
0.000111326
-1.73431e-05
0.000110247
-1.81674e-05
0.000106122
-1.77771e-05
9.88004e-05
-1.57775e-05
8.80539e-05
-1.17295e-05
7.35615e-05
-5.14539e-06
5.49047e-05
4.51557e-06
3.15646e-05
1.78534e-05
2.92102e-06
3.55309e-05
-3.17421e-05
5.82804e-05
-7.32328e-05
8.69043e-05
-0.000122437
0.000122276
-0.000180302
0.000165335
-0.00024781
0.00021707
-0.000325937
0.000278509
-0.000415604
0.00035069
-0.000517604
0.000434641
-0.000632494
0.000531384
-0.000760504
0.000642209
-0.000901399
0.000768745
-0.00105154
-0.00120631
0.000915703
-1.24157e-07
1.34318e-05
-5.48771e-07
3.63764e-05
-1.28844e-06
5.63957e-05
-2.31213e-06
7.34048e-05
-3.54374e-06
8.73393e-05
-4.86189e-06
9.8162e-05
-6.0999e-06
0.000105851
-7.04581e-06
0.000110384
-7.44239e-06
0.000111723
-6.98691e-06
0.000109792
-5.33031e-06
0.000104465
-2.07593e-06
9.5546e-05
3.22283e-06
8.27551e-05
1.10658e-05
6.57185e-05
2.20097e-05
4.39608e-05
3.66733e-05
1.6901e-05
5.57418e-05
-1.61474e-05
7.99717e-05
-5.5972e-05
0.000110193
-0.000103454
0.000147306
-0.000159551
0.000192282
-0.000225278
0.000246145
-0.000301672
0.000309951
-0.000389743
0.000384764
-0.000490417
0.000471609
-0.000604448
0.000571428
-0.000732313
0.000685024
-0.000874101
0.000813266
-0.00102964
0.00095727
-0.00119555
-0.0013712
0.00112216
-3.26959e-08
1.34645e-05
-1.84691e-07
3.65284e-05
-4.62924e-07
5.66739e-05
-8.26464e-07
7.37684e-05
-1.18719e-06
8.77e-05
-1.40904e-06
9.83838e-05
-1.30728e-06
0.000105749
-6.47812e-07
0.000109725
8.53674e-07
0.000110221
3.53286e-06
0.000107113
7.77835e-06
0.00010022
1.40339e-05
8.92905e-05
2.28011e-05
7.39879e-05
3.46432e-05
5.38764e-05
5.01892e-05
2.84148e-05
7.01379e-05
-3.04774e-06
9.52619e-05
-4.12713e-05
0.000126409
-8.71197e-05
0.000164505
-0.000141549
0.00021054
-0.000205587
0.000265569
-0.000280307
0.000330677
-0.000366781
0.000406961
-0.000466026
0.000495473
-0.000578929
0.000597173
-0.000706148
0.00071286
-0.000848
0.000843075
-0.00100432
0.000988153
-0.00117472
0.00114855
-0.00135595
-0.00155193
0.00132929
5.13483e-08
1.34131e-05
1.55914e-07
3.64238e-05
3.20275e-07
5.65095e-05
5.99986e-07
7.34887e-05
1.09948e-06
8.72005e-05
1.97345e-06
9.75099e-05
3.42829e-06
0.000104294
5.72365e-06
0.000107429
9.17422e-06
0.00010677
1.41518e-05
0.000102135
2.10878e-05
9.32835e-05
3.04763e-05
7.99021e-05
4.2877e-05
6.15872e-05
5.89198e-05
3.78336e-05
7.93079e-05
8.0267e-06
0.000104822
-2.85614e-05
0.00013632
-7.27698e-05
0.000174741
-0.00012554
0.000221093
-0.000187901
0.00027645
-0.000260943
0.000341921
-0.000345778
0.000418627
-0.000443487
0.000507652
-0.000555051
0.000609981
-0.000681259
0.000726433
-0.0008226
0.000857575
-0.000979142
0.00100362
-0.00115037
0.00116429
-0.00133539
0.00133936
-0.00153102
-0.00174556
0.00153299
1.26735e-07
1.32864e-05
4.69774e-07
3.60808e-05
1.05446e-06
5.59249e-05
1.9561e-06
7.2587e-05
3.30011e-06
8.58565e-05
5.26402e-06
9.55459e-05
8.07987e-06
0.000101479
1.20366e-05
0.000103473
1.7483e-05
0.000101324
2.48306e-05
9.47874e-05
3.45572e-05
8.35569e-05
4.72105e-05
6.72488e-05
6.34118e-05
4.53858e-05
8.386e-05
1.73854e-05
0.000109334
-1.74477e-05
0.000140697
-5.99238e-05
0.00017889
-0.000110963
0.000224934
-0.000171584
0.000279911
-0.000242879
0.00034495
-0.000325982
0.000421191
-0.000422018
0.000509738
-0.000532035
0.000611605
-0.000656918
0.00072763
-0.000797284
0.000858395
-0.000953364
0.00100412
-0.00112487
0.00116463
-0.00131088
0.00133893
-0.00150968
0.00152624
-0.00171833
-0.0019483
0.00172897
1.93297e-07
1.30931e-05
7.55507e-07
3.55186e-05
1.73667e-06
5.49437e-05
3.237e-06
7.10867e-05
5.40767e-06
8.36859e-05
8.45359e-06
9.25e-05
1.26367e-05
9.72955e-05
1.82794e-05
9.78299e-05
2.57687e-05
9.38348e-05
3.55598e-05
8.49963e-05
4.81809e-05
7.09358e-05
6.42369e-05
5.11927e-05
8.44139e-05
2.52089e-05
0.000109482
-7.68273e-06
0.000140297
-4.82631e-05
0.000177801
-9.74275e-05
0.000223014
-0.000156176
0.000277025
-0.000225595
0.000340972
-0.000306826
0.000416008
-0.000401018
0.000503257
-0.000509267
0.00060375
-0.000632528
0.000718348
-0.000771517
0.000847652
-0.000926587
0.000991894
-0.00109761
0.00115085
-0.00128382
0.00132382
-0.00148385
0.00150907
-0.00169494
0.00170549
-0.00191474
-0.0021556
0.0019128
2.51134e-07
1.28419e-05
1.01365e-06
3.47561e-05
2.36801e-06
5.35893e-05
4.4446e-06
6.90101e-05
7.42523e-06
8.07052e-05
1.15469e-05
8.83783e-05
1.71061e-05
9.17363e-05
2.44632e-05
9.04728e-05
3.40477e-05
8.42503e-05
4.63631e-05
7.26808e-05
6.19921e-05
5.53069e-05
8.16007e-05
3.15841e-05
0.000105942
8.6739e-07
0.00013586
-3.76004e-05
0.000172285
-8.46882e-05
0.000216233
-0.000141375
0.000268792
-0.000208735
0.000331102
-0.000287905
0.000404324
-0.000380049
0.000489597
-0.00048629
0.000587967
-0.000607637
0.000700317
-0.000744878
0.000827266
-0.000898465
0.000969063
-0.00106838
0.00112549
-0.00125403
0.00129575
-0.00145409
0.00147856
-0.00166665
0.00167148
-0.00188785
0.00187326
-0.00211653
-0.00236237
0.00208004
3.00976e-07
1.2541e-05
1.2468e-06
3.38102e-05
2.95394e-06
5.18822e-05
5.58805e-06
6.6376e-05
9.36659e-06
7.69267e-05
1.45635e-05
8.31814e-05
2.15145e-05
8.47853e-05
3.0623e-05
8.13643e-05
4.23658e-05
7.25076e-05
5.72991e-05
5.77475e-05
7.60644e-05
3.65417e-05
9.93922e-05
8.25632e-06
0.000128106
-2.78462e-05
0.00016312
-7.26145e-05
0.000205438
-0.000127006
0.000256139
-0.000192077
0.000316362
-0.000268958
0.000387271
-0.000358814
0.00047001
-0.000462788
0.000565642
-0.000581923
0.000675069
-0.000717064
0.000798932
-0.000868741
0.000937503
-0.00103704
0.00109058
-0.00122146
0.00125738
-0.00142084
0.0014365
-0.0016332
0.00162593
-0.00185608
0.00182275
-0.00208468
0.00202565
-0.00231944
-0.00256331
0.00222659
3.44133e-07
1.21968e-05
1.45964e-06
3.26947e-05
3.50421e-06
4.98376e-05
6.68377e-06
6.31964e-05
1.12563e-05
7.23541e-05
1.75376e-05
7.69001e-05
2.59079e-05
7.64151e-05
3.68181e-05
7.04541e-05
5.07976e-05
5.8528e-05
6.84603e-05
4.00849e-05
9.05099e-05
1.4492e-05
0.000117745
-1.89784e-05
0.000151057
-6.11589e-05
0.000191432
-0.000112989
0.000239935
-0.000175509
0.000297695
-0.000249837
0.000365873
-0.000337136
0.000445619
-0.000438559
0.000538007
-0.000555175
0.000643955
-0.000687872
0.000764132
-0.00083724
0.000898838
-0.00100345
0.0010479
-0.0011861
0.00121056
-0.00138412
0.00138543
-0.0015957
0.00157044
-0.00181821
0.00176288
-0.00204853
0.00195962
-0.00228142
0.00215888
-0.0025187
-0.00275334
0.00234892
3.82464e-07
1.18144e-05
1.65879e-06
3.14184e-05
4.03269e-06
4.74637e-05
7.75502e-06
5.94741e-05
1.31291e-05
6.69801e-05
2.05175e-05
6.95117e-05
3.03497e-05
6.65829e-05
4.31298e-05
5.7674e-05
5.94444e-05
4.22135e-05
7.9969e-05
1.95603e-05
0.000105473
-1.10125e-05
0.000136824
-5.03291e-05
0.000174982
-9.93164e-05
0.000220992
-0.000159
0.00027597
-0.000230487
0.00034107
-0.000314936
0.000417439
-0.000413505
0.000506161
-0.000527282
0.000608173
-0.000657187
0.000724167
-0.000803866
0.000854479
-0.000967553
0.000998975
-0.00114794
0.00115694
-0.00134407
0.00132702
-0.0015542
0.00150718
-0.00177586
0.00169478
-0.00200581
0.00188654
-0.00224028
0.0020794
-0.00247429
0.0022699
-0.00270919
-0.00292757
0.00244413
4.18309e-07
1.13961e-05
1.85261e-06
2.99841e-05
4.55684e-06
4.47595e-05
8.8311e-06
5.51998e-05
1.50286e-05
6.07826e-05
2.35634e-05
6.09768e-05
3.49193e-05
5.5227e-05
4.96583e-05
4.2935e-05
6.84285e-05
2.34432e-05
9.19711e-05
-3.98225e-06
0.000121123
-4.01648e-05
0.000156819
-8.60244e-05
0.000200079
-0.000142577
0.000252
-0.000210921
0.000313723
-0.00029221
0.000386392
-0.000387605
0.000471095
-0.000498209
0.000568787
-0.000624973
0.000680186
-0.000768586
0.000805668
-0.000929348
0.000945146
-0.00110703
0.00109796
-0.00130076
0.0012628
-0.00150891
0.00143769
-0.0017291
0.00162003
-0.00195819
0.00180673
-0.00219251
0.00199429
-0.00242785
0.00218005
-0.00266004
0.00235761
-0.00288675
-0.00308217
0.0025122
4.54393e-07
1.09417e-05
2.05081e-06
2.83877e-05
5.09695e-06
4.17133e-05
9.94602e-06
5.03508e-05
1.70052e-05
5.37234e-05
2.67447e-05
5.12374e-05
3.97071e-05
4.22646e-05
5.65166e-05
2.61255e-05
7.78868e-05
2.07306e-06
0.000104626
-3.07215e-05
0.000137639
-7.31773e-05
0.00017792
-0.000126305
0.000226542
-0.000191199
0.00028463
-0.000269009
0.00035332
-0.0003609
0.000433705
-0.000467989
0.000526751
-0.000591255
0.000633209
-0.000731431
0.000753496
-0.000888873
0.000887579
-0.00106343
0.00103486
-0.00125432
0.00119411
-0.00146
0.0013634
-0.0016782
0.00154019
-0.00190588
0.0017214
-0.0021394
0.00190371
-0.00237482
0.00208372
-0.00260787
0.00225918
-0.0028355
0.00242504
-0.00305261
-0.00325691
0.00259978
4.93702e-07
1.0448e-05
2.26403e-06
2.66174e-05
5.67524e-06
3.83021e-05
1.11369e-05
4.48891e-05
1.91139e-05
4.57464e-05
3.01364e-05
4.02148e-05
4.481e-05
2.7591e-05
6.38244e-05
7.11111e-06
8.79607e-05
-2.20633e-05
0.000118094
-6.08552e-05
0.000155193
-0.000110275
0.000200303
-0.000171416
0.00025453
-0.000245426
0.000319
-0.000333479
0.000394805
-0.000436705
0.000482927
-0.000556112
0.000584147
-0.000692475
0.000698928
-0.000846212
0.0008273
-0.00101725
0.000968746
-0.00120488
0.00112211
-0.00140768
0.00128555
-0.00162344
0.00145658
-0.00184924
0.00163219
-0.00208149
0.00180905
-0.00231626
0.00198378
-0.00254954
0.00215335
-0.00277744
0.00231547
-0.00299762
0.00246832
-0.00320545
-0.00340678
0.00261819
5.39326e-07
9.90864e-06
2.50327e-06
2.46534e-05
6.31461e-06
3.44908e-05
1.24418e-05
3.87619e-05
2.14107e-05
3.67776e-05
3.38147e-05
2.78108e-05
5.03251e-05
1.10806e-05
7.16993e-05
-1.42632e-05
9.87861e-05
-4.915e-05
0.000132525
-9.45938e-05
0.000173936
-0.000151687
0.000224105
-0.000221585
0.000284144
-0.000305465
0.000355144
-0.000404478
0.000438099
-0.000519661
0.000533822
-0.000651835
0.000642827
-0.00080148
0.000765215
-0.000968599
0.000900553
-0.00115258
0.00104778
-0.00135211
0.00120516
-0.00156506
0.00137031
-0.00178858
0.00154025
-0.00201918
0.0017117
-0.00225294
0.00188127
-0.00248582
0.00204579
-0.00271407
0.00220272
-0.00293437
0.0023502
-0.0031451
0.0024875
-0.00334276
-0.00353518
0.00261591
5.94298e-07
9.31434e-06
2.7793e-06
2.24684e-05
7.03746e-06
3.02326e-05
1.3898e-05
3.19013e-05
2.39499e-05
2.67257e-05
3.7852e-05
1.39087e-05
5.63432e-05
-7.41056e-06
8.02486e-05
-3.81685e-05
0.000110482
-7.9383e-05
0.000148038
-0.00013215
0.00019398
-0.000197629
0.000249406
-0.000277011
0.000315404
-0.000371463
0.000392981
-0.000482056
0.000482982
-0.000609661
0.000585973
-0.000754826
0.000702133
-0.00091764
0.000831125
-0.00109759
0.000972001
-0.00129346
0.00112314
-0.00150325
0.00128226
-0.00172418
0.0014465
-0.00195282
0.0016126
-0.00218528
0.00177718
-0.00241752
0.00193704
-0.00264568
0.00208947
-0.0028665
0.00223252
-0.00307742
0.00236503
-0.00327762
0.00248695
-0.00346468
-0.00364748
0.00259925
6.61435e-07
8.65291e-06
3.10213e-06
2.00277e-05
7.86445e-06
2.54703e-05
1.55394e-05
2.42263e-05
2.67803e-05
1.54848e-05
4.23127e-05
-1.62363e-06
6.29425e-05
-2.80404e-05
8.95603e-05
-6.47863e-05
0.000123138
-0.000112961
0.000164716
-0.000173728
0.000215378
-0.000248292
0.000276208
-0.00033784
0.000348225
-0.00044348
0.000432305
-0.000566136
0.000529073
-0.000706429
0.000638786
-0.000864539
0.000761214
-0.00104007
0.000895532
-0.00123191
0.00104025
-0.00143818
0.00119322
-0.00165621
0.00135169
-0.00188264
0.00151247
-0.0021136
0.00167221
-0.00234503
0.00182768
-0.00257299
0.00197608
-0.00279408
0.00211531
-0.00300572
0.00224415
-0.00320626
0.00236219
-0.00339566
0.00247012
-0.00357261
-0.00374621
0.00256884
7.43193e-07
7.90971e-06
3.48043e-06
1.72905e-05
8.81338e-06
2.01374e-05
1.73949e-05
1.56447e-05
2.99428e-05
2.93699e-06
4.72484e-05
-1.89293e-05
7.01829e-05
-5.09748e-05
9.96964e-05
-9.42998e-05
0.000136809
-0.000150073
0.00018259
-0.000219509
0.000238117
-0.000303818
0.000304422
-0.000404145
0.000382413
-0.000521471
0.000472771
-0.000656494
0.00057584
-0.000809498
0.000691502
-0.000980201
0.000819066
-0.00116763
0.000957194
-0.00137004
0.00110388
-0.00158486
0.00125649
-0.00180883
0.00141195
-0.0020381
0.00156694
-0.0022686
0.00171822
-0.0024963
0.00186291
-0.00271768
0.00199879
-0.00292996
0.00212447
-0.0031314
0.00223949
-0.00332127
0.00234414
-0.00350031
0.0024397
-0.00366817
-0.00383377
0.00252727
8.41554e-07
7.06816e-06
3.92115e-06
1.42109e-05
9.8983e-06
1.41602e-05
1.94868e-05
6.05627e-06
3.34675e-05
-1.10437e-05
5.26953e-05
-3.81571e-05
7.81013e-05
-7.63808e-05
0.000110687
-0.000126885
0.000151505
-0.000190892
0.00020163
-0.000269634
0.000262105
-0.000364293
0.000333866
-0.000475907
0.000417656
-0.000605261
0.000513904
-0.000752743
0.000622611
-0.000918205
0.000743231
-0.00110082
0.000874587
-0.00129899
0.00101483
-0.00151028
0.00116149
-0.00173152
0.00131159
-0.00195893
0.00146187
-0.00218839
0.00160909
-0.00241582
0.00175031
-0.00263752
0.00188317
-0.00285055
0.00200614
-0.00305293
0.00211857
-0.00324383
0.00222067
-0.00342338
0.00231335
-0.00359298
0.00239827
-0.00375309
-0.00391215
0.00247664
9.57949e-07
6.11021e-06
4.42924e-06
1.07396e-05
1.11289e-05
7.46057e-06
2.18295e-05
-4.64431e-06
3.73722e-05
-2.65864e-05
5.86709e-05
-5.94558e-05
8.67087e-05
-0.000104419
0.000122525
-0.000162701
0.000167187
-0.000235554
0.000221748
-0.000324194
0.000287174
-0.000429719
0.000364264
-0.000552997
0.000453538
-0.000694534
0.000555117
-0.000854322
0.000668608
-0.0010317
0.000793005
-0.00122522
0.000926642
-0.00143262
0.00106721
-0.00165085
0.00121187
-0.00187618
0.00135744
-0.0021045
0.00150067
-0.00233163
0.00163858
-0.00255372
0.00176869
-0.00276763
0.00188929
-0.00297115
0.00199954
-0.00316318
0.00209948
-0.00334376
0.00218991
-0.0035138
0.00227213
-0.00367521
0.00234806
-0.00382901
-0.003983
0.00241891
1.09324e-06
5.01697e-06
5.00748e-06
6.82534e-06
1.25102e-05
-4.21038e-08
2.44293e-05
-1.65634e-05
4.16619e-05
-4.38191e-05
6.51735e-05
-8.29675e-05
9.59886e-05
-0.000135234
0.000135168
-0.000201881
0.00018377
-0.000284156
0.00024279
-0.000383215
0.000313082
-0.000500011
0.000395253
-0.000635168
0.000489549
-0.00078883
0.000595733
-0.000960506
0.000712984
-0.00114895
0.000839828
-0.00135206
0.000974141
-0.00156694
0.00111323
-0.00178994
0.00125402
-0.00201697
0.0013933
-0.00224377
0.001528
-0.00246633
0.00165555
-0.00268127
0.00177405
-0.00288614
0.00188247
-0.00307957
0.00198064
-0.00326135
0.00206917
-0.00343229
0.0021493
-0.00359393
0.00222259
-0.0037485
0.00229099
-0.00389742
-0.0040477
0.00235569
1.24772e-06
3.76925e-06
5.65658e-06
2.41648e-06
1.40424e-05
-8.42796e-06
2.72841e-05
-2.98051e-05
4.6328e-05
-6.2863e-05
7.2182e-05