/*--------------------------------*- C++ -*----------------------------------*\
  =========                 |
  \\      /  F ield         | OpenFOAM: The Open Source CFD Toolbox
   \\    /   O peration     | Website:  https://openfoam.org
    \\  /    A nd           | Version:  7
     \\/     M anipulation  |
\*---------------------------------------------------------------------------*/
FoamFile
{
    version     2.0;
    format      ascii;
    class       surfaceScalarField;
    location    "35";
    object      phi;
}
// * * * * * * * * * * * * * * * * * * * * * * * * * * * * * * * * * * * * * //

dimensions      [0 3 -1 0 0 0 0];

internalField   nonuniform List<scalar> 
277
(
-0.000415989
-0.00334758
-0.000209088
-0.00335968
-1.87191e-06
-0.00336576
0.000205338
-0.00336582
-0.00335986
0.00440435
-0.0188408
-0.00442325
0.00446132
-0.0191144
0.00440422
-0.0193386
0.00427699
-0.0195339
0.00407072
-0.0197302
0.00393378
-0.0199397
0.00379958
-0.0200326
0.00355252
-0.0200879
0.00327343
-0.0202162
0.00309763
-0.0203185
0.00294922
-0.0203246
0.00268697
-0.0203017
0.00237422
-0.0203295
0.00201135
-0.020424
0.00175056
-0.0204587
0.00154745
-0.0204441
0.00125425
-0.0204102
0.000900186
-0.0204908
0.000560364
-0.0205014
0.000356684
-0.0204706
-0.0205084
0.00402382
-0.00352843
0.00434274
0.00452646
0.00458841
0.00451602
0.00429878
0.00406818
0.00385433
0.00356218
0.00320434
0.00289277
0.00265013
0.00241779
0.00210448
0.00176918
0.00147427
0.00123951
0.000922094
0.000597563
0.00032229
-0.00315251
-0.00407101
-0.00326541
-0.00289367
-0.0108627
-0.00322732
-0.00373736
-0.00301394
-0.00299009
-0.0102467
-0.00330451
-0.00342294
-0.00277507
-0.00308313
-0.00963817
-0.00337919
-0.00312687
-0.00254902
-0.003172
-0.0090362
-0.00345044
-0.00284843
-0.00233532
-0.00325656
-0.00844045
-0.00351817
-0.00258683
-0.00333657
-0.0078505
-0.0023412
-0.00341178
-0.00726606
-0.00211062
-0.00348204
-0.00668683
-0.00189409
-0.00354722
-0.00611253
-0.00169059
-0.00360722
-0.00554287
-0.00149902
-0.00366195
-0.00497753
-0.0013183
-0.00371135
-0.00441615
-0.00114731
-0.00375537
-0.00385839
-0.000984964
-0.00379397
-0.00330383
-0.000830139
-0.00382711
-0.00275209
-0.000681737
-0.00385476
-0.00220272
-0.000538666
-0.0038769
-0.0016553
-0.000399838
-0.0038935
-0.00110937
-0.000264175
-0.00390457
-0.000564483
-0.000130602
-0.00391008
-2.017e-05
1.94968e-06
-0.00391003
0.000524038
0.000134545
-0.00390443
0.0010686
0.000268253
-0.00389327
0.00161397
0.000404142
-0.00387657
0.00216061
0.000543282
-0.00385434
0.00270894
0.00068675
-0.0038266
0.0032594
0.000835626
-0.00379337
0.00381241
0.000990999
-0.00375469
0.00436834
0.00115396
-0.00371059
0.00492758
0.00132561
-0.00366111
0.00549047
0.00150704
-0.00360631
0.00605733
0.00169934
-0.00354627
0.00662846
0.00190358
-0.00348105
0.00720413
0.00212081
-0.00341077
0.0077846
0.00235206
-0.00333556
0.00837014
0.00259829
-0.00325559
0.00896102
-0.00351767
0.00286037
0.00230076
-0.0031711
0.00955765
-0.00344986
0.00313913
0.00251432
-0.00308233
0.0101604
-0.00337852
0.00343532
0.00274028
-0.00298945
0.01077
-0.00330375
0.00374962
0.00297912
-0.00289324
-0.00322649
0.00408287
0.00323058
-0.00315167
0.00443466
0.00349352
-0.0188359
0.00444443
0.00398486
-0.019102
0.00452358
0.00430813
-0.0193143
0.00448427
0.00452082
-0.0195342
0.00434611
0.0045657
-0.0197388
0.00422897
0.00447367
-0.0198603
0.00408065
0.0043516
-0.0199797
0.00386334
0.0041887
-0.0201043
0.00355918
0.00396053
-0.0202386
0.00341139
0.00366142
-0.0202859
0.0030565
0.00336132
-0.020359
0.00284746
0.00303767
-0.0204065
0.00245665
0.00269746
-0.0204641
0.00216917
0.0023207
-0.020478
0.00194239
0.00194623
-0.0204369
0.0017398
0.00164317
-0.0204109
0.00147023
0.00139032
-0.0204589
0.0011091
0.00109202
-0.0204724
0.000789352
0.000782547
-0.0204305
0.000577727
0.000529459
-0.0204178
0.000337663
0.000295541
-0.0204697
)
;

boundaryField
{
    inlet
    {
        type            calculated;
        value           nonuniform 0();
    }
    outlet
    {
        type            calculated;
        value           nonuniform 0();
    }
    cylinder
    {
        type            calculated;
        value           nonuniform 0();
    }
    top
    {
        type            symmetryPlane;
        value           uniform 0;
    }
    bottom
    {
        type            symmetryPlane;
        value           uniform 0;
    }
    defaultFaces
    {
        type            empty;
        value           nonuniform 0();
    }
    procBoundary2to1
    {
        type            processor;
        value           nonuniform List<scalar> 
86
(
-0.0193362
-0.0194333
-0.0195223
-0.0195959
-0.0196578
-0.0197224
-0.019802
-0.0198741
-0.0199241
-0.0199606
-0.020013
-0.020059
-0.0200971
-0.0201107
-0.0201234
-0.0201492
-0.0201754
-0.0201734
-0.0201769
-0.0201954
-0.0201861
-0.00341554
-0.00347879
-0.00354339
-0.00360524
-0.00366414
-0.00372009
-0.0021334
-0.0035822
-0.00364236
-0.00369856
-0.00375073
-0.00379878
-0.00384267
-0.00388234
-0.00391772
-0.0039488
-0.00397551
-0.00399783
-0.00401573
-0.00402917
-0.00403814
-0.00404263
-0.00404262
-0.00403813
-0.00402916
-0.00401571
-0.00399781
-0.00397548
-0.00394875
-0.00391765
-0.00388224
-0.00384254
-0.00379861
-0.00375051
-0.00369829
-0.00364202
-0.00358178
-0.00209904
-0.00371939
-0.00366341
-0.00360448
-0.00354259
-0.00347796
-0.00341461
-0.0193272
-0.0194252
-0.019527
-0.0195791
-0.0196468
-0.0197382
-0.0198168
-0.0198761
-0.0199395
-0.0199858
-0.0200353
-0.0200663
-0.0200873
-0.0201035
-0.0201339
-0.020158
-0.0201606
-0.0201629
-0.0201775
-0.0201838
-0.0201741
)
;
    }
    procBoundary2to3
    {
        type            processor;
        value           nonuniform List<scalar> 
82
(
0.00257003
0.00266081
0.00274662
0.00282734
0.00290281
0.00297293
0.00303755
0.0030966
0.00314998
0.00319761
0.00323942
0.00327537
0.0033054
0.000622258
0.00332948
0.00314131
0.00315278
0.00315855
0.00315861
0.00315298
0.000412226
0.0033479
0.00332994
0.00330601
0.00327614
0.00324037
0.00319876
0.00315135
0.00309822
0.00303945
0.00297514
0.00290538
0.00283029
0.00275002
0.0026647
0.00257447
0.0188597
0.0190574
0.0193956
0.0196612
0.0199365
0.0200766
0.0201669
0.020335
0.0204953
0.0204943
0.020473
0.0205639
0.0206422
0.0207868
0.0207195
0.0206472
0.0207034
0.0208449
0.0208413
0.0206743
0.0208651
0.00280026
0.0114857
0.0113861
0.00279989
0.0188261
0.0190228
0.0193536
0.0196724
0.0198559
0.0200086
0.020197
0.0204085
0.0203864
0.0206408
0.020568
0.0207973
0.0207515
0.0207048
0.0206395
0.0206805
0.0208201
0.0207922
0.0206422
0.0206578
0.0208074
)
;
    }
    procBoundary2to4
    {
        type            processor;
        value           nonuniform List<scalar> 6(0.00227063 0.00237412 0.00247456 0.00247961 0.00237986 0.00227709);
    }
}


// ************************************************************************* //
