/*--------------------------------*- C++ -*----------------------------------*\
  =========                 |
  \\      /  F ield         | OpenFOAM: The Open Source CFD Toolbox
   \\    /   O peration     | Website:  https://openfoam.org
    \\  /    A nd           | Version:  7
     \\/     M anipulation  |
\*---------------------------------------------------------------------------*/
FoamFile
{
    version     2.0;
    format      ascii;
    class       volScalarField;
    location    "15";
    object      p;
}
// * * * * * * * * * * * * * * * * * * * * * * * * * * * * * * * * * * * * * //

dimensions      [0 2 -2 0 0 0 0];

internalField   nonuniform List<scalar> 
183
(
-0.284966
-0.28521
-0.285083
-0.285316
-0.285311
-0.285521
-0.285675
-0.285642
-0.285821
-0.285935
-0.286072
-0.28621
-0.286273
-0.286589
-0.28668
-0.286683
-0.287183
-0.287221
-0.28716
-0.287823
-0.287695
-0.288471
-0.288277
-0.287922
-0.289144
-0.288888
-0.288457
-0.289505
-0.289005
-0.290097
-0.289534
-0.288697
-0.290627
-0.290002
-0.289091
-0.290368
-0.289379
-0.287959
-0.2906
-0.289515
-0.287977
-0.289478
-0.287798
-0.285419
-0.287423
-0.284845
-0.286883
-0.28409
-0.279954
-0.283208
-0.278813
-0.274734
-0.277861
-0.273221
-0.261402
-0.272108
-0.262884
-0.270682
-0.270619
-0.271949
-0.262788
-0.277643
-0.273067
-0.2613
-0.282947
-0.278605
-0.274592
-0.286597
-0.283846
-0.279763
-0.287159
-0.284623
-0.289212
-0.287561
-0.285223
-0.290344
-0.289278
-0.28777
-0.290143
-0.289174
-0.287783
-0.290418
-0.289807
-0.288918
-0.289917
-0.289369
-0.288554
-0.289353
-0.288868
-0.289006
-0.288762
-0.288346
-0.288356
-0.288173
-0.287834
-0.287729
-0.287611
-0.2871
-0.287145
-0.287094
-0.286522
-0.286619
-0.286632
-0.28602
-0.286163
-0.286234
-0.285604
-0.285786
-0.285907
-0.285284
-0.285497
-0.285068
-0.285302
-0.284961
-0.285206
-0.271383
-0.229354
-0.205932
-0.18534
-0.166451
-0.151134
-0.13764
-0.12617
-0.116343
-0.107922
-0.100719
-0.0944898
-0.0892579
-0.0847571
-0.0810222
-0.0779016
-0.0753553
-0.0733985
-0.0718928
-0.0709909
-0.070444
-0.262228
-0.223228
-0.200237
-0.180569
-0.162116
-0.147342
-0.134321
-0.262319
-0.223281
-0.200252
-0.180543
-0.161957
-0.147128
-0.13392
-0.122778
-0.113221
-0.104977
-0.098028
-0.0920935
-0.0870627
-0.0829182
-0.0793696
-0.0765499
-0.0742053
-0.0724411
-0.0711268
-0.271492
-0.229421
-0.205967
-0.185325
-0.166311
-0.150936
-0.137263
-0.12571
-0.115791
-0.107241
-0.100028
-0.0938713
-0.0886588
-0.0843552
-0.0806836
-0.0777567
-0.0753364
-0.0735114
-0.0721541
-0.0712624
-0.0707944
)
;

boundaryField
{
    inlet
    {
        type            zeroGradient;
    }
    outlet
    {
        type            fixedValue;
        value           nonuniform 0();
    }
    cylinder
    {
        type            zeroGradient;
    }
    top
    {
        type            symmetryPlane;
    }
    bottom
    {
        type            symmetryPlane;
    }
    defaultFaces
    {
        type            empty;
    }
    procBoundary30to29
    {
        type            processor;
        value           nonuniform List<scalar> 
110
(
-0.284677
-0.284804
-0.285049
-0.285408
-0.285871
-0.286428
-0.287067
-0.28784
-0.28784
-0.288542
-0.28927
-0.289818
-0.289818
-0.290466
-0.291058
-0.291064
-0.291064
-0.291384
-0.290684
-0.290684
-0.289274
-0.289274
-0.288934
-0.286236
-0.286236
-0.282297
-0.282297
-0.277256
-0.277256
-0.271839
-0.271839
-0.2688
-0.2688
-0.268725
-0.268725
-0.271683
-0.271683
-0.277035
-0.277035
-0.282025
-0.282025
-0.285932
-0.285932
-0.288618
-0.288981
-0.288981
-0.290398
-0.290398
-0.291114
-0.290825
-0.290825
-0.29084
-0.290276
-0.289656
-0.289656
-0.289126
-0.28842
-0.287738
-0.287738
-0.286979
-0.286357
-0.285815
-0.285366
-0.28502
-0.284787
-0.284672
-0.123268
-0.113802
-0.105688
-0.0987475
-0.0927338
-0.0876837
-0.0833243
-0.079709
-0.0766842
-0.0742119
-0.0723101
-0.0708385
-0.0699641
-0.0694172
-0.255805
-0.219149
-0.195184
-0.176225
-0.158129
-0.143784
-0.123268
-0.1312
-0.255869
-0.219197
-0.195184
-0.176189
-0.157955
-0.143557
-0.130775
-0.119995
-0.110763
-0.102794
-0.0960854
-0.0903522
-0.0854895
-0.0814924
-0.0780584
-0.0753378
-0.0730645
-0.0713579
-0.0700849
-0.0702602
-0.0702602
-0.0697976
)
;
    }
    procBoundary30to31
    {
        type            processor;
        value           nonuniform List<scalar> 
88
(
-0.285407
-0.285499
-0.285499
-0.285773
-0.28598
-0.286252
-0.286585
-0.286977
-0.287425
-0.287425
-0.287365
-0.287793
-0.288248
-0.288248
-0.287488
-0.287777
-0.287777
-0.28594
-0.285785
-0.285785
-0.282003
-0.28106
-0.28106
-0.276033
-0.276033
-0.262341
-0.262341
-0.262253
-0.262253
-0.275909
-0.275909
-0.280891
-0.280891
-0.28186
-0.285618
-0.285618
-0.285804
-0.287632
-0.287632
-0.287373
-0.288133
-0.288133
-0.287703
-0.287296
-0.287355
-0.287355
-0.286924
-0.286545
-0.286223
-0.28596
-0.285656
-0.285656
-0.285487
-0.285404
-0.275274
-0.255244
-0.233829
-0.211592
-0.190897
-0.172635
-0.15669
-0.142913
-0.131054
-0.120883
-0.112187
-0.10474
-0.0984126
-0.0930439
-0.0885508
-0.0848355
-0.0818257
-0.0794804
-0.0777414
-0.0766159
-0.0760388
-0.275405
-0.255397
-0.233962
-0.211668
-0.190882
-0.172536
-0.156478
-0.142592
-0.130652
-0.120399
-0.111657
-0.10422
-0.0979206
)
;
    }
    procBoundary30to32
    {
        type            processor;
        value           nonuniform List<scalar> 
12
(
-0.290434
-0.286799
-0.287018
-0.290689
-0.092647
-0.0882412
-0.0846434
-0.0817388
-0.0794942
-0.0778475
-0.076768
-0.0762284
)
;
    }
}


// ************************************************************************* //
