/*--------------------------------*- C++ -*----------------------------------*\
  =========                 |
  \\      /  F ield         | OpenFOAM: The Open Source CFD Toolbox
   \\    /   O peration     | Website:  https://openfoam.org
    \\  /    A nd           | Version:  7
     \\/     M anipulation  |
\*---------------------------------------------------------------------------*/
FoamFile
{
    version     2.0;
    format      ascii;
    class       surfaceScalarField;
    location    "35";
    object      phi;
}
// * * * * * * * * * * * * * * * * * * * * * * * * * * * * * * * * * * * * * //

dimensions      [0 3 -1 0 0 0 0];

internalField   nonuniform List<scalar> 
1659
(
0.000681481
-1.18923e-05
2.18029e-10
0.00069325
-1.17695e-05
2.23151e-10
0.000704897
-1.16472e-05
2.27936e-10
0.000716422
-1.15252e-05
2.32372e-10
-1.14038e-05
2.36439e-10
0.000683415
-2.37567e-05
0.000695157
-2.35116e-05
0.000706777
-2.32673e-05
0.000718275
-2.30238e-05
-2.27814e-05
0.000687267
-3.55659e-05
0.000698955
-3.51994e-05
0.000710522
-3.4834e-05
0.000721968
-3.44699e-05
-3.41073e-05
0.000693008
-4.72929e-05
0.000704615
-4.68062e-05
0.000716102
-4.63211e-05
0.000727469
-4.58376e-05
-4.53561e-05
0.00070059
-5.89112e-05
0.00071209
-5.83062e-05
0.000723472
-5.77029e-05
0.000734736
-5.71018e-05
-5.65031e-05
0.000709954
-7.03951e-05
0.000721322
-6.96739e-05
0.000732574
-6.89548e-05
0.00074371
-6.82381e-05
-6.75242e-05
0.000721026
-8.17201e-05
0.000732237
-8.08853e-05
0.000743335
-8.00527e-05
0.00075432
-7.9223e-05
-7.83965e-05
0.000733716
-9.28627e-05
0.000744748
-9.19172e-05
0.000755669
-9.09742e-05
0.000766481
-9.00343e-05
-8.9098e-05
0.000747924
-0.000103801
0.000758755
-0.000102748
0.000769479
-0.000101698
0.000780095
-0.000100651
0.000790606
-9.96082e-05
-9.85698e-05
0.000763538
-0.000114514
0.000774148
-0.000113357
0.000784654
-0.000112204
0.000795056
-0.000111054
0.000805356
-0.000109908
-0.000108767
0.000780434
-0.000124983
0.000790804
-0.000123727
0.000801074
-0.000122474
0.000811244
-0.000121224
0.000821316
-0.00011998
-0.00011874
0.000798478
0.000808591
-0.000133839
0.000818608
-0.000132491
0.000828531
-0.000131147
0.000838359
-0.000129807
-0.000128473
0.000827368
-0.00014368
0.000837119
-0.000142242
0.000846779
-0.000140807
0.000856349
-0.000139377
-0.000137953
0.000846988
-0.000153237
0.000856459
-0.000151713
0.000865845
-0.000150193
0.000875145
-0.000148677
-0.000147167
0.000867295
-0.000162498
0.000876476
-0.000160893
0.000885577
-0.000159293
0.000894597
-0.000157697
-0.000156107
0.00088813
-0.000171454
0.000897012
-0.000169776
0.000905819
-0.0001681
0.000914551
-0.000166429
0.000923208
-0.000164764
-0.000163104
0.000909328
-0.000180101
0.000917905
-0.000178353
0.000926413
-0.000176608
0.000934851
-0.000174868
0.000943219
-0.000173132
-0.000171403
0.000930722
0.00093899
-0.000186621
0.000947195
-0.000184813
0.000955336
-0.000183008
0.000963412
-0.000181209
-0.000179415
0.000960102
-0.000194579
0.000968002
-0.000192713
0.000975844
-0.00019085
0.000983627
-0.000188992
-0.000187139
0.000981074
-0.000202226
0.00098867
-0.000200308
0.000996213
-0.000198393
0.0010037
-0.000196482
-0.000194576
0.00100174
-0.000209566
0.00100903
-0.000207602
0.00101628
-0.000205641
0.00102348
-0.000203683
0.00103064
-0.000201729
-0.000199781
0.00102194
0.00102894
-0.000214599
0.00103589
-0.000212597
0.00104281
-0.000210598
0.00104968
-0.000208603
-0.000206612
0.00104822
-0.000221307
0.00105489
-0.00021927
0.00106153
-0.000217236
0.00106813
-0.000215205
-0.000213178
0.00106672
-0.000227733
0.00107312
-0.000225668
0.00107949
-0.000223605
0.00108582
-0.000221543
-0.000219485
0.0010843
0.00109043
-0.000231802
0.00109654
-0.000229715
0.00110263
-0.000227629
0.00110869
-0.000225546
-0.000223466
0.0011067
-0.000237685
0.00111256
-0.00023558
0.00111841
-0.000233475
0.00112423
-0.000231372
-0.000229271
0.00112177
-0.00024333
0.00112741
-0.000241213
0.00113303
-0.000239095
0.00113863
-0.000236977
-0.000234861
0.00113553
0.00114095
-0.000246631
0.00114636
-0.000244505
0.00115176
-0.000242378
0.00115715
-0.000240251
-0.000238125
0.00115305
-0.000251851
0.00115827
-0.000249722
0.00116348
-0.000247591
0.00116869
-0.000245459
-0.000243327
0.00116367
-0.00025689
0.00116871
-0.000254764
0.00117376
-0.000252634
0.0011788
-0.000250501
-0.000248367
0.00353757
-0.000262697
0.0035434
-0.0002606
0.00354926
-0.000258495
0.00355515
-0.000256385
-0.00025427
0.00375339
-0.000266686
0.00375743
-0.000264642
0.00376153
-0.000262588
0.00376566
-0.000260524
-0.000258453
0.00397109
-0.000268865
0.00397334
-0.000266901
0.00397568
-0.000264921
0.00397808
-0.000262928
-0.000260924
0.00418848
-0.000269276
0.00418899
-0.000267415
0.00418961
-0.000265534
0.00419031
-0.000263635
-0.000261721
0.00440349
-0.000267991
0.00440233
-0.000266256
0.00440129
-0.000264496
0.00440037
-0.000262713
-0.00026091
0.00461414
-0.000265111
0.0046114
-0.000263522
0.00460881
-0.000261902
0.00460635
-0.000260254
-0.000258581
0.00481863
-0.000260762
0.00481444
-0.000259335
0.00481041
-0.000257872
0.00480653
-0.000256376
-0.000254849
0.00501534
-0.00025509
0.00500984
-0.000253839
0.00500452
-0.000252546
0.00499935
-0.000251215
-0.000249847
0.00520286
-0.000248257
0.00519621
-0.000247191
0.00518974
-0.000246078
0.00518345
-0.000244922
-0.000243723
0.00538001
-0.000240437
0.00537238
-0.000239562
0.00536494
-0.000238635
0.00535768
-0.000237658
-0.000236635
0.00554588
-0.000231808
0.00553744
-0.000231126
0.00552919
-0.000230386
0.00552113
-0.000229591
-0.000228746
0.00569977
-0.000222549
0.00569071
-0.000222057
0.00568182
-0.000221503
0.00567312
-0.00022089
-0.000220221
0.00584127
-0.000212834
0.00583174
-0.000212527
0.00582239
-0.000212153
0.00581322
-0.000211717
-0.000211221
0.00597018
-0.000202828
0.00596035
-0.000202697
0.00595069
-0.000202496
0.00594121
-0.000202229
-0.000201899
0.00608653
-0.000192683
0.00607655
-0.000192717
0.00606673
-0.000192679
0.00605708
-0.000192571
-0.000192398
0.00619056
-0.000182535
0.00618056
-0.000182721
0.00617072
-0.000182833
0.00616102
-0.000182874
-0.000182847
0.00628266
-0.000172502
0.00627277
-0.000172827
0.00626301
-0.000173077
0.00625339
-0.000173253
-0.000173359
0.00636339
-0.000162685
0.0063537
-0.000163134
0.00634413
-0.000163507
0.00633468
-0.000163805
-0.000164032
0.00643341
-0.000153164
0.006424
-0.000153723
0.0064147
-0.000154204
0.0064055
-0.000154611
-0.000154945
0.00649347
-0.000144002
0.00648441
-0.000144656
0.00647544
-0.000145232
0.00646656
-0.000145733
-0.000146162
0.00654438
-0.000135245
0.0065357
-0.00013598
0.00652711
-0.000136637
0.0065186
-0.000137219
-0.00013773
0.00658696
-0.000126922
0.00657871
-0.000127725
0.00657052
-0.00012845
0.0065624
-0.000129101
-0.000129681
0.00662206
-0.000119049
0.00661424
-0.000119907
0.00660648
-0.000120689
0.00659878
-0.000121398
-0.000122036
0.00665049
-0.000111631
0.00664312
-0.000112533
0.00663579
-0.000113361
0.00662851
-0.000114116
-0.000114802
0.00667305
-0.000104661
0.00666612
-0.000105598
0.00665922
-0.000106462
0.00665236
-0.000107254
-0.000107979
0.0066905
-9.81271e-05
0.00668399
-9.90902e-05
0.00667751
-9.99812e-05
0.00667106
-0.000100803
-0.000101557
0.00670352
-9.20108e-05
0.00669742
-9.29921e-05
0.00669134
-9.39029e-05
0.00668529
-9.47458e-05
-9.55231e-05
0.00671276
-8.62895e-05
0.00670705
-8.72822e-05
0.00670135
-8.82064e-05
0.00669567
-8.90642e-05
-8.98579e-05
0.00671879
-8.09384e-05
0.00671345
-8.19367e-05
0.00670811
-8.28684e-05
0.00670278
-8.37354e-05
-8.454e-05
0.00672215
-7.59313e-05
0.00671714
-7.69303e-05
0.00671214
-7.78644e-05
0.00670714
-7.87357e-05
-7.95462e-05
0.00672328
-7.12421e-05
0.00671858
-7.22373e-05
0.00671389
-7.31695e-05
0.00670919
-7.40408e-05
-7.4853e-05
0.00672258
-6.68451e-05
0.00671818
-6.78326e-05
0.00671377
-6.87591e-05
0.00670935
-6.96264e-05
-7.04366e-05
0.00672042
-6.27154e-05
0.00671628
-6.36919e-05
0.00671213
-6.46093e-05
0.00670797
-6.54695e-05
-6.62742e-05
0.00671708
-5.88301e-05
0.00671318
-5.97924e-05
0.00670927
-6.06977e-05
0.00670534
-6.15477e-05
-6.23441e-05
0.00671282
-5.51676e-05
0.00670914
-5.6113e-05
0.00670545
-5.70035e-05
0.00670174
-5.78406e-05
-5.8626e-05
0.00670787
-5.17082e-05
0.0067044
-5.26342e-05
0.0067009
-5.35073e-05
0.00669739
-5.43291e-05
-5.5101e-05
0.00670241
-4.84339e-05
0.00669912
-4.93382e-05
0.0066958
-5.01917e-05
0.00669247
-5.09958e-05
-5.1752e-05
0.00669659
-4.53285e-05
0.00669346
-4.62089e-05
0.00669031
-4.70406e-05
0.00668714
-4.78249e-05
-4.85633e-05
0.00669055
-4.23774e-05
0.00668757
-4.32318e-05
0.00668457
-4.40397e-05
0.00668155
-4.48023e-05
-4.55208e-05
0.00668438
-3.95674e-05
0.00668155
-4.0394e-05
0.00667868
-4.11761e-05
0.00667579
-4.1915e-05
-4.26118e-05
0.00667819
-3.68866e-05
0.00667548
-3.76835e-05
0.00667274
-3.8438e-05
0.00666998
-3.91514e-05
-3.98248e-05
0.00667204
-3.43244e-05
0.00666945
-3.50898e-05
0.00666682
-3.58151e-05
0.00666417
-3.65012e-05
-3.71494e-05
0.006666
-3.1871e-05
0.00666351
-3.26033e-05
0.006661
-3.32976e-05
0.00665845
-3.39549e-05
-3.45763e-05
0.00666012
-2.95176e-05
0.00665773
-3.02151e-05
0.00665531
-3.08769e-05
0.00665286
-3.15038e-05
-3.20968e-05
0.00665444
-2.7256e-05
0.00665214
-2.79173e-05
0.00664981
-2.8545e-05
0.00664744
-2.91401e-05
-2.97033e-05
0.006649
-2.50787e-05
0.00664678
-2.57023e-05
0.00664453
-2.62946e-05
0.00664225
-2.68564e-05
-2.73884e-05
0.00664382
-2.29786e-05
0.00664168
-2.35633e-05
0.00663951
-2.41188e-05
0.0066373
-2.4646e-05
-2.51455e-05
0.00663894
-2.09491e-05
0.00663687
-2.14936e-05
0.00663476
-2.20111e-05
0.00663262
-2.25025e-05
-2.29683e-05
0.00663437
-1.89839e-05
0.00663236
-1.9487e-05
0.00663032
-1.99655e-05
0.00662823
-2.04199e-05
-2.08509e-05
0.00663013
-1.7077e-05
0.00662818
-1.75377e-05
0.00662619
-1.7976e-05
0.00662417
-1.83924e-05
-1.87875e-05
0.00662624
-1.52225e-05
0.00662434
-1.56399e-05
0.0066224
-1.6037e-05
0.00662043
-1.64145e-05
-1.67728e-05
0.00662271
-1.34149e-05
0.00662086
-1.3788e-05
0.00661896
-1.41432e-05
0.00661703
-1.44809e-05
-1.48016e-05
0.00661954
-1.16486e-05
0.00661773
-1.19767e-05
0.00661588
-1.22892e-05
0.00661398
-1.25864e-05
-1.28686e-05
0.00661676
-9.91827e-06
0.00661498
-1.02008e-05
0.00661316
-1.04698e-05
0.0066113
-1.07258e-05
-1.09689e-05
0.00661436
-8.21863e-06
0.00661261
-8.45491e-06
0.00661082
-8.68e-06
0.00660899
-8.89416e-06
-9.09764e-06
0.00661235
-6.54446e-06
0.00661063
-6.73406e-06
0.00660886
-6.9147e-06
0.00660705
-7.0866e-06
-7.24995e-06
0.00661073
-4.89062e-06
0.00660903
-5.03315e-06
0.00660729
-5.16896e-06
0.0066055
-5.29821e-06
0.00660367
-5.42106e-06
-5.53765e-06
0.00660952
-3.25198e-06
0.00660784
-3.34716e-06
0.0066061
-3.43786e-06
0.00660433
-3.52418e-06
0.00660252
-3.60624e-06
-3.68413e-06
0.00660871
-1.62346e-06
0.00660704
-1.6711e-06
0.00660531
-1.71649e-06
0.00660355
-1.75971e-06
0.00660174
-1.80078e-06
-1.83977e-06
0.00660831
0.00660664
0.00660492
0.00660316
0.00660136
-0.000262697
0.00353757
0.00025689
-0.000266686
0.00375339
-0.000268865
0.00397109
-0.000269275
0.00418848
-0.000267991
0.00440349
-0.000265111
0.00461414
-0.000260761
0.00481863
-0.000255089
0.00501534
-0.000248257
0.00520286
-0.000240437
0.00538001
-0.000231808
0.00554588
-0.000222549
0.00569977
-0.000212834
0.00584127
-0.000202828
0.00597018
-0.000192683
0.00608653
-0.000182534
0.00619056
-0.000172502
0.00628266
-0.000162685
0.00636339
-0.000153164
0.00643341
-0.000144002
0.00649347
-0.000135245
0.00654438
-0.000126922
0.00658696
-0.000119049
0.00662206
-0.000111631
0.00665049
-0.000104661
0.00667305
-9.81271e-05
0.0066905
-9.20107e-05
0.00670352
-8.62894e-05
0.00671276
-8.09383e-05
0.0067188
-7.59313e-05
0.00672215
-7.12421e-05
0.00672328
-6.6845e-05
0.00672258
-6.27154e-05
0.00672042
-5.88301e-05
0.00671708
-5.51676e-05
0.00671282
-5.17081e-05
0.00670787
-4.84338e-05
0.00670241
-4.53285e-05
0.00669659
-4.23773e-05
0.00669055
-3.95674e-05
0.00668438
-3.68866e-05
0.00667819
-3.43244e-05
0.00667204
-3.1871e-05
0.006666
-2.95176e-05
0.00666012
-2.7256e-05
0.00665444
-2.50787e-05
0.006649
-2.29786e-05
0.00664382
-2.09491e-05
0.00663894
-1.89839e-05
0.00663437
-1.7077e-05
0.00663013
-1.52225e-05
0.00662624
-1.34149e-05
0.00662271
-1.16486e-05
0.00661954
-9.91826e-06
0.00661676
-8.21862e-06
0.00661436
-6.54446e-06
0.00661235
-4.89062e-06
0.00661073
-3.25198e-06
0.00660952
-1.62346e-06
0.00660871
0.00660831
-0.0002606
0.0035434
0.000254764
-0.000264642
0.00375743
-0.0002669
0.00397334
-0.000267415
0.00418899
-0.000266255
0.00440233
-0.000263521
0.0046114
-0.000259335
0.00481444
-0.000253838
0.00500984
-0.000247191
0.00519621
-0.000239562
0.00537238
-0.000231125
0.00553744
-0.000222057
0.00569071
-0.000212527
0.00583174
-0.000202697
0.00596035
-0.000192717
0.00607655
-0.000182721
0.00618056
-0.000172827
0.00627277
-0.000163134
0.0063537
-0.000153723
0.006424
-0.000144656
0.00648441
-0.00013598
0.0065357
-0.000127725
0.00657871
-0.000119907
0.00661424
-0.000112533
0.00664312
-0.000105598
0.00666612
-9.90901e-05
0.00668399
-9.2992e-05
0.00669742
-8.72822e-05
0.00670705
-8.19367e-05
0.00671345
-7.69303e-05
0.00671714
-7.22373e-05
0.00671858
-6.78325e-05
0.00671818
-6.36918e-05
0.00671628
-5.97924e-05
0.00671318
-5.6113e-05
0.00670914
-5.26342e-05
0.0067044
-4.93382e-05
0.00669912
-4.62089e-05
0.00669346
-4.32318e-05
0.00668757
-4.03939e-05
0.00668155
-3.76835e-05
0.00667548
-3.50898e-05
0.00666945
-3.26033e-05
0.00666351
-3.02151e-05
0.00665773
-2.79173e-05
0.00665214
-2.57023e-05
0.00664678
-2.35632e-05
0.00664168
-2.14935e-05
0.00663687
-1.9487e-05
0.00663236
-1.75377e-05
0.00662818
-1.56398e-05
0.00662434
-1.3788e-05
0.00662086
-1.19767e-05
0.00661773
-1.02008e-05
0.00661498
-8.45491e-06
0.00661261
-6.73405e-06
0.00661063
-5.03314e-06
0.00660903
-3.34715e-06
0.00660784
-1.6711e-06
0.00660704
0.00660664
-0.000258495
0.00354926
0.000252633
-0.000262588
0.00376152
-0.000264921
0.00397568
-0.000265534
0.00418961
-0.000264495
0.00440129
-0.000261902
0.00460881
-0.000257872
0.00481041
-0.000252546
0.00500452
-0.000246078
0.00518974
-0.000238634
0.00536494
-0.000230385
0.00552919
-0.000221502
0.00568182
-0.000212153
0.00582239
-0.000202496
0.00595069
-0.000192678
0.00606673
-0.000182833
0.00617072
-0.000173077
0.00626301
-0.000163507
0.00634413
-0.000154204
0.0064147
-0.000145232
0.00647544
-0.000136637
0.00652711
-0.00012845
0.00657052
-0.000120689
0.00660648
-0.000113361
0.00663579
-0.000106462
0.00665922
-9.99812e-05
0.00667751
-9.39029e-05
0.00669134
-8.82063e-05
0.00670135
-8.28683e-05
0.00670811
-7.78644e-05
0.00671214
-7.31695e-05
0.00671389
-6.8759e-05
0.00671377
-6.46092e-05
0.00671213
-6.06977e-05
0.00670927
-5.70035e-05
0.00670545
-5.35073e-05
0.0067009
-5.01917e-05
0.0066958
-4.70406e-05
0.00669031
-4.40397e-05
0.00668457
-4.11761e-05
0.00667868
-3.8438e-05
0.00667274
-3.5815e-05
0.00666682
-3.32975e-05
0.006661
-3.08769e-05
0.00665531
-2.8545e-05
0.00664981
-2.62946e-05
0.00664453
-2.41188e-05
0.00663951
-2.20111e-05
0.00663476
-1.99655e-05
0.00663032
-1.7976e-05
0.00662619
-1.6037e-05
0.0066224
-1.41432e-05
0.00661896
-1.22892e-05
0.00661588
-1.04698e-05
0.00661316
-8.68e-06
0.00661082
-6.9147e-06
0.00660886
-5.16896e-06
0.00660729
-3.43786e-06
0.0066061
-1.71649e-06
0.00660531
0.00660492
-0.000256384
0.00355515
0.0002505
-0.000260524
0.00376566
-0.000262928
0.00397808
-0.000263635
0.00419031
-0.000262713
0.00440037
-0.000260254
0.00460635
-0.000256376
0.00480653
-0.000251214
0.00499935
-0.000244921
0.00518345
-0.000237658
0.00535768
-0.000229591
0.00552113
-0.00022089
0.00567312
-0.000211717
0.00581322
-0.000202229
0.00594121
-0.000192571
0.00605708
-0.000182874
0.00616102
-0.000173253
0.00625339
-0.000163805
0.00633468
-0.00015461
0.0064055
-0.000145733
0.00646656
-0.000137219
0.0065186
-0.000129101
0.0065624
-0.000121398
0.00659878
-0.000114116
0.00662851
-0.000107254
0.00665236
-0.000100803
0.00667106
-9.47458e-05
0.00668529
-8.90641e-05
0.00669567
-8.37353e-05
0.00670278
-7.87357e-05
0.00670714
-7.40407e-05
0.00670919
-6.96264e-05
0.00670935
-6.54694e-05
0.00670797
-6.15477e-05
0.00670534
-5.78406e-05
0.00670174
-5.43291e-05
0.00669739
-5.09958e-05
0.00669247
-4.78249e-05
0.00668714
-4.48023e-05
0.00668155
-4.1915e-05
0.00667579
-3.91514e-05
0.00666998
-3.65012e-05
0.00666417
-3.39549e-05
0.00665845
-3.15038e-05
0.00665286
-2.91401e-05
0.00664744
-2.68564e-05
0.00664225
-2.4646e-05
0.0066373
-2.25025e-05
0.00663262
-2.04199e-05
0.00662823
-1.83924e-05
0.00662417
-1.64145e-05
0.00662043
-1.44809e-05
0.00661703
-1.25864e-05
0.00661398
-1.07258e-05
0.0066113
-8.89416e-06
0.00660899
-7.08659e-06
0.00660705
-5.29821e-06
0.0066055
-3.52418e-06
0.00660433
-1.75971e-06
0.00660355
0.00660316
-0.00025427
0.000248366
-0.000258453
-0.000260924
-0.000261721
-0.000260909
-0.000258581
-0.000254849
-0.000249847
-0.000243723
-0.000236635
-0.000228746
-0.000220221
-0.000211221
-0.000201899
-0.000192398
-0.000182847
-0.000173359
-0.000164032
-0.000154945
-0.000146162
-0.00013773
-0.000129681
-0.000122036
-0.000114802
-0.000107979
-0.000101557
-9.55231e-05
-8.98579e-05
-8.45399e-05
-7.95462e-05
-7.48529e-05
-7.04365e-05
-6.62742e-05
-6.23441e-05
-5.86259e-05
-5.5101e-05
-5.17519e-05
-4.85633e-05
-4.55208e-05
-4.26118e-05
-3.98248e-05
-3.71494e-05
-3.45762e-05
-3.20968e-05
-2.97033e-05
-2.73884e-05
-2.51455e-05
-2.29683e-05
-2.08509e-05
-1.87875e-05
-1.67728e-05
-1.48016e-05
-1.28686e-05
-1.09689e-05
-9.09764e-06
-7.24995e-06
-5.42106e-06
-3.60624e-06
-1.80078e-06
0.00116367
0.000251851
0.00116871
0.000249722
0.00117376
0.000247591
0.0011788
0.000245458
0.000243326
0.00114783
0.000248754
0.00115305
0.000246631
0.00115827
0.000244505
0.00116348
0.000242377
0.00116869
0.000240251
0.000238125
0.00113553
0.00024333
0.00114095
0.000241213
0.00114636
0.000239095
0.00115176
0.000236977
0.00115715
0.00023486
0.00112177
0.000237684
0.00112741
0.00023558
0.00113303
0.000233475
0.00113863
0.000231371
0.00022927
0.0011067
0.000231802
0.00111256
0.000229715
0.00111841
0.000227629
0.00112423
0.000225545
0.000223465
0.0010843
0.000227733
0.00109043
0.000225668
0.00109654
0.000223604
0.00110263
0.000221543
0.00110869
0.000219485
0.00106672
0.000221306
0.00107312
0.00021927
0.00107949
0.000217236
0.00108583
0.000215204
0.000213177
0.00104822
0.000214599
0.00105489
0.000212597
0.00106153
0.000210598
0.00106813
0.000208602
0.000206612
0.00102194
0.000209566
0.00102894
0.000207602
0.00103589
0.00020564
0.00104281
0.000203682
0.00104968
0.000201729
0.00019978
0.00100174
0.000202226
0.00100903
0.000200308
0.00101628
0.000198393
0.00102348
0.000196482
0.00103064
0.000194575
0.000981074
0.000194579
0.00098867
0.000192712
0.000996213
0.00019085
0.0010037
0.000188991
0.000187138
0.000960102
0.000186621
0.000968002
0.000184812
0.000975844
0.000183008
0.000983627
0.000181208
0.000179414
0.000930722
0.000180101
0.00093899
0.000178353
0.000947195
0.000176608
0.000955336
0.000174867
0.000963412
0.000173132
0.000171402
0.000909328
0.000171454
0.000917905
0.000169775
0.000926413
0.0001681
0.000934851
0.000166429
0.000943219
0.000164763
0.000163104
0.00088813
0.000162497
0.000897012
0.000160893
0.000905819
0.000159293
0.000914551
0.000157697
0.000923208
0.000156107
0.000867295
0.000153236
0.000876476
0.000151712
0.000885577
0.000150192
0.000894597
0.000148677
0.000147167
0.000846988
0.00014368
0.000856459
0.000142241
0.000865845
0.000140807
0.000875145
0.000139377
0.000137952
0.000827368
0.000133839
0.000837119
0.000132491
0.000846779
0.000131147
0.000856349
0.000129807
0.000128472
0.000798478
0.000124982
0.000808591
0.000123726
0.000818608
0.000122473
0.000828531
0.000121224
0.000838359
0.000119979
0.000118739
0.000780434
0.000114513
0.000790804
0.000113357
0.000801074
0.000112203
0.000811244
0.000111053
0.000821316
0.000109907
0.000108766
0.000763538
0.0001038
0.000774148
0.000102747
0.000784654
0.000101697
0.000795056
0.000100651
0.000805356
9.96077e-05
9.85693e-05
0.000747924
9.28623e-05
0.000758755
9.19167e-05
0.000769479
9.09738e-05
0.000780095
9.00339e-05
0.000790606
8.90976e-05
0.000733716
8.17197e-05
0.000744748
8.08848e-05
0.000755669
8.00523e-05
0.000766481
7.92225e-05
7.8396e-05
0.000721026
7.03947e-05
0.000732237
6.96735e-05
0.000743335
6.89543e-05
0.00075432
6.82376e-05
6.75237e-05
0.000709954
5.89107e-05
0.000721322
5.83057e-05
0.000732574
5.77025e-05
0.00074371
5.71013e-05
5.65026e-05
0.00070059
4.72924e-05
0.00071209
4.68058e-05
0.000723472
4.63206e-05
0.000734736
4.58371e-05
4.53556e-05
0.000693008
3.55654e-05
0.000704615
3.51989e-05
0.000716102
3.48335e-05
0.000727469
3.44694e-05
3.41068e-05
0.000687267
2.37562e-05
0.000698955
2.35112e-05
0.000710522
2.32668e-05
0.000721968
2.30234e-05
2.27809e-05
0.000683415
1.18918e-05
0.000695157
1.17691e-05
0.000706777
1.16467e-05
0.000718275
1.15248e-05
1.14033e-05
0.000669589
0.000681481
0.00069325
0.000704897
0.000716422
)
;

boundaryField
{
    inlet
    {
        type            calculated;
        value           nonuniform 0();
    }
    outlet
    {
        type            calculated;
        value           nonuniform 0();
    }
    cylinder
    {
        type            calculated;
        value           nonuniform 0();
    }
    top
    {
        type            symmetryPlane;
        value           uniform 0;
    }
    bottom
    {
        type            symmetryPlane;
        value           uniform 0;
    }
    defaultFaces
    {
        type            empty;
        value           nonuniform 0();
    }
    procBoundary31to30
    {
        type            processor;
        value           nonuniform List<scalar> 
192
(
-0.000669589
-2.12586e-10
-0.00067155
-0.000675458
-0.000681281
-0.000688972
-0.00069847
-0.000709701
-0.000722573
-0.000736986
-0.000752826
-0.000769965
-0.00078827
-0.00013519
-0.000817527
-0.000837432
-0.000858034
-0.000879173
-0.000900681
-0.00092239
-0.000188433
-0.000952144
-0.000973427
-0.000994401
-0.0010149
-0.000216603
-0.00104151
-0.00106029
-0.00107814
-0.000233889
-0.00110081
-0.00111613
-0.0011301
-0.000248754
-0.00114783
-0.00115863
-0.00353176
-0.0037494
-0.00396891
-0.00418807
-0.00440477
-0.00461702
-0.00482298
-0.00502101
-0.00520969
-0.00538783
-0.00555451
-0.00570903
-0.00585099
-0.00598019
-0.00609668
-0.0062007
-0.00629269
-0.00637321
-0.00644293
-0.00650264
-0.00655314
-0.00659528
-0.00662993
-0.00665791
-0.00668002
-0.00669703
-0.00670964
-0.00671848
-0.00672415
-0.00672716
-0.00672797
-0.00672698
-0.00672455
-0.00672096
-0.00671649
-0.00671133
-0.00670569
-0.0066997
-0.0066935
-0.00668719
-0.00668087
-0.0066746
-0.00666845
-0.00666247
-0.0066567
-0.00665117
-0.00664592
-0.00664097
-0.00663633
-0.00663204
-0.00662809
-0.00662451
-0.00662131
-0.00661849
-0.00661606
-0.00661402
-0.00661239
-0.00661116
-0.00661034
-0.00660993
-0.00353176
-0.0037494
-0.00396891
-0.00418807
-0.00440477
-0.00461702
-0.00482298
-0.00502101
-0.00520969
-0.00538783
-0.00555451
-0.00570903
-0.00585099
-0.00598019
-0.00609668
-0.0062007
-0.00629269
-0.00637321
-0.00644293
-0.00650264
-0.00655314
-0.00659528
-0.00662993
-0.00665791
-0.00668002
-0.00669703
-0.00670964
-0.00671848
-0.00672415
-0.00672716
-0.00672797
-0.00672698
-0.00672455
-0.00672096
-0.00671649
-0.00671133
-0.00670569
-0.0066997
-0.0066935
-0.00668719
-0.00668087
-0.0066746
-0.00666845
-0.00666247
-0.0066567
-0.00665117
-0.00664592
-0.00664097
-0.00663633
-0.00663204
-0.00662809
-0.00662451
-0.00662131
-0.00661849
-0.00661606
-0.00661402
-0.00661239
-0.00661116
-0.00661034
-0.00660993
-0.00115863
-0.000253975
-0.00114261
-0.0011301
-0.00111613
-0.00110081
-0.000233889
-0.00107814
-0.00106029
-0.00104151
-0.000216602
-0.0010149
-0.000994401
-0.000973427
-0.000952144
-0.000188432
-0.00092239
-0.000900681
-0.000879173
-0.000858034
-0.000837432
-0.000817527
-0.00013519
-0.00078827
-0.000769965
-0.000752826
-0.000736986
-0.000722573
-0.000709701
-0.00069847
-0.000688972
-0.000681281
-0.000675458
-0.00067155
-1.20149e-05
-0.000657574
)
;
    }
    procBoundary31to32
    {
        type            processor;
        value           nonuniform List<scalar> 
191
(
0.000727825
0.000729653
0.000733294
0.000738718
0.000745883
0.000754731
0.000765192
0.000777182
8.81658e-05
0.00080101
0.000815553
0.000831289
0.000848092
0.000865829
0.000884359
0.000903536
0.000154523
0.00093179
0.000951518
0.000971424
0.000991351
0.00101114
0.000192676
0.00103774
0.00105651
0.00107469
0.00109213
0.000217431
0.00111472
0.00113004
0.00114422
0.000232747
0.00116253
0.00117389
0.00118384
0.00356105
0.00376985
0.00398055
0.00419111
0.00439955
0.00460402
0.0048028
0.00499435
0.00517733
0.00535059
0.00551324
0.0056646
0.00580422
0.00593188
0.00604758
0.00615147
0.0062439
0.00632535
0.00639642
0.00645778
0.00651016
0.00655435
0.00659113
0.00662127
0.00664553
0.00666464
0.00667925
0.00669
0.00669746
0.00670214
0.0067045
0.00670494
0.00670381
0.00670141
0.00669802
0.00669386
0.00668912
0.00668395
0.00667851
0.00667289
0.00666719
0.0066615
0.00665588
0.00665038
0.00664505
0.00663993
0.00663505
0.00663044
0.00662612
0.0066221
0.00661841
0.00661506
0.00661205
0.0066094
0.00660712
0.00660521
7.40497e-06
0.0066018
0.00660066
0.0065999
0.00659952
0.00356105
0.00376985
0.00398055
0.00419111
0.00439955
0.00460402
0.0048028
0.00499435
0.00517733
0.00535059
0.00551324
0.0056646
0.00580422
0.00593188
0.00604758
0.00615147
0.0062439
0.00632535
0.00639642
0.00645778
0.00651016
0.00655435
0.00659113
0.00662127
0.00664553
0.00666464
0.00667925
0.00669
0.00669746
0.00670214
0.0067045
0.00670494
0.00670381
0.00670141
0.00669803
0.00669386
0.00668912
0.00668395
0.00667851
0.00667289
0.00666719
0.0066615
0.00665588
0.00665038
0.00664505
0.00663993
0.00663505
0.00663044
0.00662612
0.0066221
0.00661841
0.00661506
0.00661205
0.0066094
0.00660712
0.00660521
0.00660367
0.00660252
0.00660174
0.00660136
0.00118384
0.00117389
0.00116253
0.000232747
0.00114422
0.00113004
0.00111473
0.000217431
0.00109213
0.00107469
0.00105651
0.00103774
0.000192675
0.00101114
0.000991351
0.000971424
0.000951518
0.00093179
0.000154522
0.000903536
0.000884359
0.000865829
0.000848092
0.000831289
0.000815553
0.00080101
8.81653e-05
0.000777182
0.000765192
0.000754731
0.000745883
0.000738718
0.000733294
0.000729653
0.000727825
)
;
    }
}


// ************************************************************************* //
