/*--------------------------------*- C++ -*----------------------------------*\
  =========                 |
  \\      /  F ield         | OpenFOAM: The Open Source CFD Toolbox
   \\    /   O peration     | Website:  https://openfoam.org
    \\  /    A nd           | Version:  7
     \\/     M anipulation  |
\*---------------------------------------------------------------------------*/
FoamFile
{
    version     2.0;
    format      ascii;
    class       volVectorField;
    location    "75";
    object      U;
}
// * * * * * * * * * * * * * * * * * * * * * * * * * * * * * * * * * * * * * //

dimensions      [0 1 -1 0 0 0 0];

internalField   nonuniform List<vector> 
183
(
(1.03107 0.263097 4.57392e-23)
(0.997765 0.507247 -7.29406e-23)
(1.02237 0.261982 8.83372e-22)
(0.985587 0.511061 3.0651e-22)
(1.01253 0.260557 -3.9312e-21)
(0.972817 0.514121 3.98807e-21)
(1.00148 0.258763 -1.3169e-21)
(0.959515 0.516378 3.18773e-22)
(0.989142 0.256522 6.44455e-22)
(0.945737 0.517792 -4.44387e-22)
(0.975489 0.253741 -1.17914e-20)
(0.931532 0.518324 3.04299e-22)
(0.96054 0.250329 1.3972e-20)
(0.916945 0.517943 -6.26869e-22)
(0.944339 0.246184 1.05272e-21)
(0.902016 0.516622 -7.718e-22)
(0.926986 0.241209 -9.53218e-23)
(0.886783 0.514345 -6.37849e-22)
(0.908609 0.235321 1.93283e-21)
(0.871284 0.5111 -8.6233e-22)
(0.886957 0.575486 -2.46961e-21)
(0.889372 0.22844 -5.07488e-21)
(0.855562 0.506884 1.9493e-21)
(0.876895 0.571703 2.95428e-21)
(0.869465 0.220512 3.87739e-21)
(0.839662 0.5017 -3.10256e-21)
(0.866181 0.567723 -2.78881e-21)
(0.849092 0.211499 2.19708e-20)
(0.823638 0.495559 -1.5774e-20)
(0.854871 0.563562 9.67526e-21)
(0.828472 0.201383 -1.42344e-21)
(0.807552 0.488476 -8.35466e-21)
(0.843034 0.559233 -3.08645e-21)
(0.807819 0.190166 2.00465e-20)
(0.79147 0.480472 2.81555e-22)
(0.830748 0.554744 2.0618e-21)
(0.78734 0.177866 5.85223e-21)
(0.775465 0.471571 -6.81131e-21)
(0.818099 0.550097 -3.04918e-21)
(0.759616 0.4618 1.02335e-21)
(0.805177 0.545293 6.49548e-22)
(0.744003 0.451191 -8.01434e-21)
(0.79207 0.540339 1.12158e-21)
(0.728702 0.439753 -4.27943e-22)
(0.778854 0.535177 1.86478e-21)
(0.7138 0.427743 -4.66243e-22)
(0.765699 0.530147 -3.65057e-21)
(0.698824 0.412603 6.35046e-21)
(0.751411 0.523616 -2.80624e-21)
(0.668642 0.401256 0)
(0.717779 0.515446 0)
(0.589772 0.397004 0)
(0.668787 0.466326 0)
(0.551766 0.359913 0)
(0.694447 0.385592 0)
(0.608056 0.301865 0)
(0.80068 0.290364 0)
(0.753279 0.234411 0)
(0.940218 0.196571 0)
(0.911219 0.175477 0)
(1.05257 0.126076 0)
(1.01727 0.12945 0)
(1.10865 0.0826206 0)
(1.06243 0.0958509 0)
(1.12103 0.0576246 0)
(1.07306 0.0720187 0)
(1.11387 0.0426268 0)
(1.07126 0.0543256 0)
(1.10249 0.0323173 0)
(1.06677 0.0408734 0)
(1.09182 0.0246677 0)
(1.06238 0.0305608 0)
(1.08282 0.0187943 0)
(1.05869 0.0226699 0)
(1.07537 0.0142366 0)
(1.05579 0.0166715 0)
(1.06932 0.0107213 0)
(1.05354 0.0121276 0)
(1.06445 0.00800626 0)
(1.05182 0.00870931 0)
(1.06057 0.00591909 0)
(1.05043 0.00614206 0)
(1.05748 0.00430149 0)
(1.04939 0.0041963 0)
(1.05513 0.003022 0)
(1.04866 0.00270466 0)
(1.05346 0.00199498 0)
(1.04821 0.00150718 0)
(1.05239 0.00112947 0)
(1.04795 0.000490981 0)
(1.05183 0.000369747 0)
(1.13175 0.302849 0)
(1.12066 0.303215 0)
(1.11863 0.2472 0)
(1.08791 0.232025 0)
(1.07718 0.190078 0)
(1.06122 0.167866 0)
(1.05642 0.135456 0)
(1.05414 0.110048 0)
(1.05294 0.0864492 0)
(1.0513 0.0678451 0)
(1.0497 0.053092 0)
(1.04828 0.0416178 0)
(1.04721 0.0326249 0)
(1.04632 0.0254974 0)
(1.04561 0.0197955 0)
(1.04493 0.0151646 0)
(1.04438 0.0113915 0)
(1.04396 0.00824121 0)
(1.04366 0.00557218 0)
(1.0434 0.00321128 0)
(1.04321 0.00105266 0)
(1.04135 0.403838 0)
(1.01122 0.357654 0)
(1.0248 0.290616 0)
(1.00695 0.237251 0)
(1.01057 0.187434 0)
(1.0018 0.152129 0)
(0.995524 0.120758 0)
(0.996222 0.0958628 0)
(1.00152 0.0734159 0)
(1.00913 0.0552794 0)
(1.01645 0.0409934 0)
(1.0224 0.0303067 0)
(1.02693 0.0224671 0)
(1.03027 0.0167341 0)
(1.03278 0.0125247 0)
(1.03462 0.0093625 0)
(1.03603 0.00693823 0)
(1.0371 0.004988 0)
(1.03788 0.00336661 0)
(1.03832 0.00193579 0)
(1.03849 0.000633042 0)
(1.12201 0.333716 -3.18204e-21)
(1.02735 0.441918 2.05135e-21)
(1.11865 0.343162 -1.28084e-21)
(1.02303 0.454544 -1.01326e-21)
(1.11518 0.352352 2.74199e-21)
(1.01909 0.466748 -1.67568e-21)
(1.1116 0.362039 3.0768e-21)
(1.01541 0.478518 -9.3226e-21)
(1.10992 0.24463 -1.39823e-21)
(1.10795 0.371944 -1.55595e-21)
(1.01193 0.489927 6.33954e-21)
(1.10653 0.247665 -8.21326e-21)
(1.10421 0.381813 4.60357e-21)
(1.00862 0.500997 -3.11241e-21)
(1.10307 0.250472 -1.29409e-21)
(1.1004 0.391586 3.60976e-21)
(1.00541 0.51169 4.36e-21)
(1.09952 0.253051 -2.64488e-21)
(1.09649 0.40126 1.72607e-22)
(1.00226 0.521939 8.35395e-22)
(1.09586 0.255403 -1.16162e-20)
(1.09247 0.410814 4.90327e-21)
(0.999054 0.531679 -6.10712e-21)
(1.0921 0.257518 -1.03974e-20)
(1.08829 0.420209 7.55803e-21)
(0.995739 0.540854 -2.4225e-22)
(1.08823 0.259388 7.48812e-21)
(1.08389 0.429406 -1.30318e-21)
(0.992262 0.549418 2.7313e-21)
(1.08425 0.261 2.71015e-21)
(1.0792 0.438373 -3.05554e-22)
(0.988608 0.557326 6.9008e-22)
(1.08016 0.262347 -2.44498e-21)
(1.07411 0.447078 6.83412e-21)
(1.07596 0.263425 -9.53251e-21)
(1.06853 0.455487 -1.87142e-21)
(1.07162 0.264234 3.27136e-21)
(1.06234 0.463566 3.08359e-21)
(1.06711 0.264781 5.9626e-22)
(1.05547 0.471277 -5.70845e-21)
(1.06235 0.265076 2.99544e-21)
(1.04783 0.478576 -8.91517e-22)
(1.05726 0.265133 -3.122e-22)
(1.0394 0.485419 -3.38954e-21)
(1.05172 0.264961 3.87432e-21)
(1.03015 0.491759 2.95119e-22)
(1.04561 0.264567 1.33812e-21)
(1.0201 0.497545 -1.47108e-21)
(1.03877 0.263951 -4.49293e-23)
(1.00929 0.502725 4.32647e-23)
)
;

boundaryField
{
    inlet
    {
        type            uniformFixedValue;
        uniformValue    constant (1 0 0);
        value           nonuniform 0();
    }
    outlet
    {
        type            pressureInletOutletVelocity;
        value           nonuniform 0();
    }
    cylinder
    {
        type            fixedValue;
        value           nonuniform 0();
    }
    top
    {
        type            symmetryPlane;
    }
    bottom
    {
        type            symmetryPlane;
    }
    defaultFaces
    {
        type            empty;
    }
    procBoundary37to36
    {
        type            processor;
        value           nonuniform List<vector> 
86
(
(0.987492 -0.0276889 -4.07155e-22)
(0.985677 -0.0348454 -4.53376e-22)
(0.982808 -0.0425423 -3.02709e-21)
(0.97858 -0.0508224 -3.00019e-21)
(0.972721 -0.0597297 1.6465e-21)
(0.965017 -0.069346 -1.0819e-20)
(0.955331 -0.0796292 1.37756e-22)
(0.943619 -0.0906009 6.16288e-21)
(0.929934 -0.102271 4.46036e-21)
(0.914423 -0.114567 -9.71007e-21)
(0.897326 -0.127466 6.49352e-21)
(0.878954 -0.140868 -4.05568e-21)
(0.859678 -0.15466 1.33936e-20)
(0.839904 -0.168701 -3.91274e-21)
(0.820057 -0.182849 1.42548e-20)
(0.80057 -0.19695 1.70165e-20)
(0.767231 0.164528 8.78717e-21)
(0.767231 0.164528 8.78717e-21)
(0.747679 0.150261 -1.50522e-20)
(0.728891 0.135109 -6.28937e-21)
(0.711239 0.118385 1.02052e-20)
(0.695472 0.101555 3.71898e-21)
(0.66007 0.0819114 0)
(0.573645 0.120942 0)
(0.529451 0.127866 0)
(0.559709 0.149477 0)
(0.686204 0.155118 0)
(0.835092 0.151488 0)
(0.9462 0.129037 0)
(1.00446 0.101055 0)
(1.02885 0.0755815 0)
(1.03856 0.0555004 0)
(1.04312 0.0403313 0)
(1.04564 0.0291575 0)
(1.0471 0.0209769 0)
(1.04797 0.0150367 0)
(1.04841 0.0107109 0)
(1.04857 0.00756546 0)
(1.04848 0.00526354 0)
(1.04829 0.00355336 0)
(1.0481 0.00226996 0)
(1.04797 0.00125188 0)
(1.04786 0.000408799 0)
(1.13076 0.222266 0)
(1.1588 0.248012 0)
(1.15209 0.212235 0)
(1.14238 0.195142 0)
(1.1297 0.153833 0)
(1.11596 0.127954 0)
(1.10698 0.0996901 0)
(1.09537 0.079288 0)
(1.08515 0.0628465 0)
(1.07605 0.0498573 0)
(1.06885 0.0395644 0)
(1.06328 0.0312565 0)
(1.0591 0.0246219 0)
(1.05585 0.019323 0)
(1.05336 0.0151032 0)
(1.05133 0.011678 0)
(1.0498 0.00888856 0)
(1.04868 0.00651655 0)
(1.04791 0.00446554 0)
(1.04733 0.00259 0)
(1.04699 0.000852222 0)
(1.12257 0.229853 -3.78142e-21)
(1.11965 0.233865 -2.63007e-21)
(1.1165 0.237795 2.45773e-21)
(1.11324 0.241359 1.64182e-22)
(1.11324 0.241359 1.64182e-22)
(1.01491 0.0399403 4.26765e-21)
(1.01115 0.0389011 -8.46094e-21)
(1.00792 0.0374294 7.72567e-22)
(1.00511 0.0355069 4.90862e-21)
(1.00261 0.0331593 -1.61815e-20)
(1.00038 0.0304177 -1.22755e-21)
(0.998359 0.027308 1.37583e-21)
(0.996536 0.0238537 3.38654e-21)
(0.994903 0.0200756 5.0404e-21)
(0.993472 0.0159914 -2.58736e-21)
(0.99226 0.0116144 -2.38555e-21)
(0.991283 0.00695356 7.20162e-22)
(0.990542 0.00202263 1.9765e-21)
(0.990006 -0.00315629 -1.05409e-21)
(0.989597 -0.00873529 4.43361e-21)
(0.98918 -0.0146752 1.1727e-21)
(0.988562 -0.0209615 -2.2856e-22)
)
;
    }
    procBoundary37to38
    {
        type            processor;
        value           nonuniform List<vector> 
86
(
(0.947995 0.594867 -2.16489e-22)
(0.943317 0.594584 9.16348e-22)
(0.938282 0.593709 -4.38843e-23)
(0.932803 0.592296 1.9964e-21)
(0.926798 0.590401 1.58964e-21)
(0.920196 0.588079 -4.11947e-21)
(0.912939 0.585382 -4.27099e-21)
(0.90499 0.582357 2.2403e-21)
(0.896329 0.579047 -5.49836e-21)
(0.896329 0.579047 -5.49836e-21)
(0.949955 0.408551 -9.11729e-22)
(0.941415 0.406213 1.72582e-21)
(0.932282 0.404111 -1.1575e-21)
(0.922624 0.40222 1.66881e-21)
(0.91251 0.400517 -4.56884e-21)
(0.902012 0.398979 5.65987e-21)
(0.891198 0.397582 -4.81608e-21)
(0.880143 0.396305 -1.65107e-21)
(0.868923 0.395125 4.45364e-21)
(0.85762 0.394017 9.02331e-22)
(0.846368 0.393179 -5.23137e-22)
(0.835423 0.39272 -4.50296e-22)
(0.817976 0.375638 0)
(0.824923 0.296767 0)
(0.897079 0.210804 0)
(1.00179 0.133418 0)
(1.0956 0.0702442 0)
(1.14983 0.0341782 0)
(1.1606 0.0156336 0)
(1.14811 0.00832777 0)
(1.12904 0.00456543 0)
(1.11171 0.00264222 0)
(1.09756 0.00134049 0)
(1.08626 0.00054956 0)
(1.07723 -3.04243e-05 0)
(1.07012 -0.00042186 0)
(1.06458 -0.000679553 0)
(1.06029 -0.000808617 0)
(1.05698 -0.000824918 0)
(1.05451 -0.000748292 0)
(1.05276 -0.000589591 0)
(1.05165 -0.00037821 0)
(1.05109 -0.000126983 0)
(0.906487 0.444383 0)
(0.868569 0.360757 0)
(0.86311 0.306826 0)
(0.861863 0.220236 0)
(0.889269 0.155113 0)
(0.916402 0.0936536 0)
(0.936212 0.0551346 0)
(0.951844 0.032201 0)
(0.966293 0.0202674 0)
(0.981534 0.0135702 0)
(0.995997 0.00951685 0)
(1.00819 0.00669088 0)
(1.01763 0.00467547 0)
(1.02451 0.0032121 0)
(1.02933 0.00218635 0)
(1.03257 0.00147433 0)
(1.03474 0.000996325 0)
(1.03617 0.000655772 0)
(1.03708 0.000415231 0)
(1.03757 0.000224967 0)
(1.03775 7.35749e-05 0)
(0.906737 0.459767 6.89037e-24)
(0.907543 0.467164 7.54346e-21)
(0.909056 0.473979 -1.0051e-21)
(0.911166 0.478898 5.2881e-22)
(0.913809 0.482717 5.48393e-22)
(0.916948 0.485903 1.05085e-20)
(0.920582 0.48838 -4.09375e-21)
(0.924739 0.490002 -5.00587e-22)
(0.929445 0.490729 -4.20914e-21)
(0.934692 0.490581 -1.19281e-21)
(0.940414 0.489588 -6.55181e-22)
(0.946494 0.487785 2.55777e-21)
(0.984795 0.564535 3.64835e-21)
(0.984795 0.564535 3.64835e-21)
(0.980864 0.571008 6.03371e-21)
(0.976863 0.576716 3.9509e-21)
(0.972834 0.581641 -1.75379e-21)
(0.968803 0.585771 2.95437e-23)
(0.964774 0.589106 -2.05067e-21)
(0.960728 0.591658 -1.56811e-21)
(0.956623 0.593446 1.78871e-22)
(0.952403 0.594503 2.15024e-22)
)
;
    }
}


// ************************************************************************* //
