/*--------------------------------*- C++ -*----------------------------------*\
  =========                 |
  \\      /  F ield         | OpenFOAM: The Open Source CFD Toolbox
   \\    /   O peration     | Website:  https://openfoam.org
    \\  /    A nd           | Version:  7
     \\/     M anipulation  |
\*---------------------------------------------------------------------------*/
FoamFile
{
    version     2.0;
    format      ascii;
    class       volVectorField;
    location    "45";
    object      U;
}
// * * * * * * * * * * * * * * * * * * * * * * * * * * * * * * * * * * * * * //

dimensions      [0 1 -1 0 0 0 0];

internalField   nonuniform List<vector> 
392
(
(0.629768 -0.000550284 1.63883e-25)
(0.6325 -0.000541656 -3.63471e-24)
(0.635192 -0.00053321 -4.10048e-24)
(0.630261 -0.00164959 8.33911e-24)
(0.632987 -0.00162374 9.34887e-24)
(0.635672 -0.00159843 -4.5148e-24)
(0.631247 -0.0027449 1.98863e-23)
(0.633958 -0.00270191 -1.38429e-23)
(0.63663 -0.00265983 -6.59097e-24)
(0.63272 -0.00383356 3.71713e-23)
(0.635411 -0.00377359 1.93274e-23)
(0.638063 -0.00371488 -3.3512e-24)
(0.634677 -0.00491296 -3.62291e-23)
(0.637341 -0.00483622 7.76621e-24)
(0.639966 -0.0047611 2.61963e-23)
(0.63711 -0.00598053 3.12399e-23)
(0.639741 -0.00588729 -1.74283e-23)
(0.642333 -0.00579602 -2.34409e-24)
(0.640011 -0.00703378 2.9644e-24)
(0.642602 -0.00692436 7.50612e-23)
(0.645156 -0.00681726 -1.00074e-23)
(0.64337 -0.00807026 4.2869e-23)
(0.645915 -0.00794504 -5.72578e-23)
(0.648424 -0.00782248 2.2945e-25)
(0.647175 -0.00908761 -2.08912e-23)
(0.649669 -0.00894703 6.60181e-23)
(0.652128 -0.00880942 3.56906e-23)
(0.651413 -0.0100836 6.76411e-23)
(0.653851 -0.00992812 -4.25947e-23)
(0.656255 -0.00977594 4.36074e-23)
(0.656071 -0.011056 -9.04598e-23)
(0.658447 -0.0108862 8.13559e-23)
(0.660791 -0.01072 -2.64727e-23)
(0.661131 -0.0120029 1.02385e-22)
(0.663442 -0.0118193 4.03727e-23)
(0.665721 -0.0116395 -9.69444e-23)
(0.666578 -0.0129223 1.21745e-23)
(0.668819 -0.0127254 -4.12408e-23)
(0.67103 -0.0125328 7.04852e-23)
(0.672394 -0.0138124 8.21458e-23)
(0.674561 -0.013603 1.58325e-23)
(0.6767 -0.013398 -4.84151e-23)
(0.678559 -0.0146716 1.2318e-22)
(0.68065 -0.0144503 8.92411e-24)
(0.682714 -0.0142337 -1.29982e-22)
(0.685055 -0.0154984 2.14035e-22)
(0.687067 -0.0152658 -3.79179e-23)
(0.689052 -0.0150383 1.15927e-22)
(0.69186 -0.0162914 -1.6387e-22)
(0.69379 -0.0160484 4.9653e-23)
(0.695696 -0.0158105 -2.1029e-24)
(0.698954 -0.0170495 -7.66894e-23)
(0.700801 -0.0167967 1.54098e-24)
(0.702625 -0.0165493 -2.19922e-23)
(0.706314 -0.0177717 -1.24017e-22)
(0.708077 -0.0175098 2.2925e-22)
(0.709818 -0.0172535 -1.11521e-22)
(0.71392 -0.018457 1.59752e-22)
(0.715598 -0.0181868 -2.67983e-22)
(0.717255 -0.0179224 1.67066e-22)
(0.721748 -0.0191047 -1.61004e-22)
(0.723341 -0.0188269 -2.07536e-23)
(0.724915 -0.0185552 1.23852e-22)
(0.726472 -0.0182892 8.37197e-24)
(0.729777 -0.0197145 -4.9346e-23)
(0.731284 -0.0194299 4.95755e-23)
(0.732775 -0.0191516 9.04403e-24)
(0.734251 -0.0188791 -9.88137e-23)
(0.737983 -0.0202869 -1.71153e-22)
(0.739406 -0.0199961 4.70481e-23)
(0.740815 -0.0197117 3.37693e-23)
(0.742209 -0.0194334 6.59454e-23)
(0.747685 -0.0205244 -5.3413e-23)
(0.749012 -0.0202347 6.76477e-24)
(0.750327 -0.0199512 2.26316e-23)
(0.763928 -0.0214597 0)
(0.76509 -0.0211613 0)
(0.766243 -0.0208694 4.05922e-29)
(0.789284 -0.0225576 0)
(0.79019 -0.0222513 0)
(0.791091 -0.0219517 3.97562e-29)
(0.815509 -0.0233858 0)
(0.81616 -0.0230755 0)
(0.81681 -0.022772 0)
(0.842217 -0.0239448 0)
(0.842621 -0.0236345 0)
(0.843027 -0.0233311 0)
(0.869039 -0.0242441 0)
(0.869209 -0.0239375 0)
(0.869383 -0.023638 2.25024e-30)
(0.895628 -0.0242994 0)
(0.895579 -0.0239999 0)
(0.895537 -0.0237074 5.37106e-29)
(0.921665 -0.02413 -7.94704e-29)
(0.921415 -0.0238403 0)
(0.921176 -0.0235577 -5.81785e-29)
(0.946863 -0.0237581 7.94704e-29)
(0.946435 -0.0234807 0)
(0.94602 -0.0232102 0)
(0.970975 -0.0232086 3.03075e-30)
(0.970394 -0.0229452 0)
(0.969826 -0.0226886 -2.61643e-30)
(0.993798 -0.0225074 -3.03075e-30)
(0.993087 -0.0222592 0)
(0.99239 -0.0220179 2.61643e-30)
(1.01517 -0.0216812 0)
(1.01435 -0.021449 0)
(1.01355 -0.0212236 0)
(1.03496 -0.0207562 0)
(1.03407 -0.0205404 0)
(1.03319 -0.0203312 0)
(1.05311 -0.0197578 0)
(1.05216 -0.0195582 0)
(1.05122 -0.0193651 0)
(1.06958 -0.0187096 0)
(1.06858 -0.0185258 0)
(1.06761 -0.0183483 0)
(1.08435 -0.0176332 3.67035e-30)
(1.08334 -0.0174644 1.2047e-29)
(1.08234 -0.0173018 0)
(1.09747 -0.0165475 -3.67035e-30)
(1.09646 -0.0163927 -1.2047e-29)
(1.09546 -0.0162441 0)
(1.10899 -0.0154688 1.71365e-12)
(1.10799 -0.0153271 0)
(1.107 -0.0151914 9.53586e-29)
(1.11899 -0.0144106 -1.71365e-12)
(1.11801 -0.0142807 0)
(1.11705 -0.0141567 -9.53586e-29)
(1.12757 -0.0133833 0)
(1.12663 -0.0132641 1.16838e-28)
(1.12569 -0.0131508 0)
(1.13484 -0.012395 0)
(1.13393 -0.0122854 -1.16838e-28)
(1.13304 -0.0121816 0)
(1.14092 -0.0114509 0)
(1.14005 -0.01135 0)
(1.1392 -0.0112546 0)
(1.14592 -0.0105544 0)
(1.1451 -0.0104611 0)
(1.14429 -0.0103733 0)
(1.14998 -0.00970669 0)
(1.14921 -0.00962027 0)
(1.14844 -0.00953908 0)
(1.15321 -0.00890739 0)
(1.15248 -0.00882717 0)
(1.15176 -0.00875199 0)
(1.15572 -0.00815493 -1.28077e-28)
(1.15504 -0.00808036 1.01023e-28)
(1.15436 -0.00801063 0)
(1.15763 -0.00744675 1.28077e-28)
(1.15698 -0.00737741 -1.01023e-28)
(1.15634 -0.00731269 0)
(1.15903 -0.00677959 0)
(1.15842 -0.00671519 0)
(1.15781 -0.00665514 0)
(1.16 -0.0061498 0)
(1.15943 -0.00609011 0)
(1.15886 -0.00603453 0)
(1.16064 -0.00555348 1.25118e-28)
(1.1601 -0.00549839 -1.37883e-28)
(1.15956 -0.00544712 0)
(1.16102 -0.00498671 -1.25118e-28)
(1.1605 -0.00493616 1.37883e-28)
(1.15998 -0.00488913 0)
(1.16119 -0.00444565 0)
(1.16069 -0.00439962 1.0831e-28)
(1.1602 -0.00435683 -1.20843e-28)
(1.16121 -0.00392664 0)
(1.16073 -0.00388518 -1.0831e-28)
(1.16026 -0.00384663 1.20843e-28)
(1.16112 -0.00342629 0)
(1.16066 -0.00338946 0)
(1.16021 -0.00335521 0)
(1.16097 -0.00294149 0)
(1.16053 -0.00290935 0)
(1.16008 -0.00287946 -2.92788e-29)
(1.16079 -0.00246942 0)
(1.16036 -0.00244205 0)
(1.15992 -0.00241661 -8.3523e-29)
(1.1606 -0.00200756 0)
(1.16018 -0.00198505 0)
(1.15975 -0.00196411 0)
(1.16043 -0.00155365 0)
(1.16001 -0.00153606 1.11896e-28)
(1.15959 -0.0015197 0)
(1.16029 -0.00110568 0)
(1.15987 -0.00109307 -1.11896e-28)
(1.15946 -0.00108134 0)
(1.16018 -0.000661812 1.32126e-28)
(1.15977 -0.000654231 0)
(1.15936 -0.000647176 1.39743e-30)
(1.16013 -0.000220344 -1.33545e-28)
(1.15972 -0.000217813 0)
(1.15931 -0.000215459 3.09836e-29)
(1.1606 0.00066991 -2.37379e-12)
(1.16055 0.000223046 2.39928e-12)
(0.763928 0.0214597 0)
(0.789285 0.0225577 0)
(0.815509 0.0233859 0)
(0.842217 0.0239449 0)
(0.869039 0.0242442 0)
(0.895628 0.0242995 0)
(0.921665 0.02413 0)
(0.946863 0.0237582 0)
(0.970975 0.0232086 0)
(0.993798 0.0225074 0)
(1.01517 0.0216812 0)
(1.03496 0.0207562 0)
(1.05311 0.0197578 0)
(1.06958 0.0187097 0)
(1.08435 0.0176332 0)
(1.09747 0.0165475 0)
(1.10899 0.0154689 0)
(1.11899 0.0144106 0)
(1.12757 0.0133833 0)
(1.13484 0.012395 0)
(1.14092 0.011451 0)
(1.14592 0.0105544 0)
(1.14998 0.0097067 0)
(1.15321 0.0089074 0)
(1.15572 0.00815494 2.01491e-12)
(1.15763 0.00744676 -2.01491e-12)
(1.15903 0.0067796 0)
(1.16 0.00614981 0)
(1.16064 0.00555349 0)
(1.16102 0.00498672 0)
(1.16119 0.00444565 2.15896e-12)
(1.16121 0.00392665 -2.15896e-12)
(1.16112 0.0034263 0)
(1.16097 0.00294149 0)
(1.16079 0.00246942 0)
(1.1606 0.00200756 0)
(1.16043 0.00155365 -1.41749e-28)
(1.16029 0.00110568 1.41749e-28)
(1.16018 0.000661813 -2.23783e-12)
(1.16013 0.000220344 2.26187e-12)
(0.76509 0.0211613 0)
(0.79019 0.0222514 0)
(0.81616 0.0230755 0)
(0.842621 0.0236345 0)
(0.869209 0.0239376 8.56285e-30)
(0.895579 0.0239999 -8.56285e-30)
(0.921415 0.0238403 0)
(0.946435 0.0234807 0)
(0.970394 0.0229452 0)
(0.993087 0.0222593 0)
(1.01435 0.0214491 1.33777e-12)
(1.03407 0.0205404 -1.33777e-12)
(1.05216 0.0195582 0)
(1.06858 0.0185258 0)
(1.08334 0.0174644 0)
(1.09646 0.0163928 0)
(1.10799 0.0153271 0)
(1.11801 0.0142807 0)
(1.12663 0.0132641 -1.16839e-28)
(1.13393 0.0122854 1.16839e-28)
(1.14005 0.01135 0)
(1.1451 0.0104612 0)
(1.14921 0.00962028 0)
(1.15248 0.00882718 0)
(1.15504 0.00808037 1.89261e-12)
(1.15698 0.00737742 -1.89261e-12)
(1.15842 0.00671519 0)
(1.15943 0.00609012 0)
(1.1601 0.0054984 0)
(1.1605 0.00493616 0)
(1.16069 0.00439963 2.02911e-12)
(1.16073 0.00388519 -2.02911e-12)
(1.16066 0.00338946 0)
(1.16053 0.00290935 0)
(1.16036 0.00244206 0)
(1.16018 0.00198505 0)
(1.16001 0.00153607 0)
(1.15987 0.00109307 0)
(1.15977 0.000654232 0)
(1.15972 0.000217814 0)
(0.766243 0.0208694 -4.05921e-29)
(0.791091 0.0219518 -3.97562e-29)
(0.81681 0.0227721 0)
(0.843027 0.0233312 0)
(0.869383 0.023638 0)
(0.895537 0.0237074 -5.59609e-29)
(0.921176 0.0235577 5.81785e-29)
(0.94602 0.0232103 0)
(0.969826 0.0226887 2.61643e-30)
(0.99239 0.0220179 -2.61643e-30)
(1.01355 0.0212236 1.24384e-12)
(1.03319 0.0203312 -1.24384e-12)
(1.05122 0.0193651 0)
(1.06761 0.0183483 0)
(1.08234 0.0173018 0)
(1.09546 0.0162442 0)
(1.107 0.0151914 0)
(1.11705 0.0141567 0)
(1.12569 0.0131508 0)
(1.13304 0.0121816 0)
(1.1392 0.0112546 0)
(1.14429 0.0103733 0)
(1.14844 0.00953909 0)
(1.15176 0.008752 0)
(1.15436 0.00801064 1.77232e-12)
(1.15634 0.0073127 -1.77232e-12)
(1.15781 0.00665515 0)
(1.15886 0.00603453 0)
(1.15956 0.00544713 -1.10147e-28)
(1.15998 0.00488914 1.10147e-28)
(1.1602 0.00435683 0)
(1.16026 0.00384664 0)
(1.16021 0.00335521 0)
(1.16008 0.00287947 2.92788e-29)
(1.15992 0.00241661 8.3523e-29)
(1.15975 0.00196411 0)
(1.15959 0.0015197 0)
(1.15946 0.00108135 0)
(1.15936 0.000647177 -1.39743e-30)
(1.15931 0.000215459 -3.09836e-29)
(0.747685 0.0205245 7.6057e-23)
(0.749012 0.0202348 -8.81304e-24)
(0.750327 0.0199513 -2.11629e-23)
(0.737983 0.0202869 1.61026e-22)
(0.739406 0.0199962 -4.99629e-23)
(0.740815 0.0197118 -2.27465e-23)
(0.742209 0.0194335 -5.39487e-23)
(0.729777 0.0197146 9.89787e-23)
(0.731284 0.01943 -7.48409e-23)
(0.732775 0.0191516 1.51078e-23)
(0.734251 0.0188791 7.92256e-23)
(0.721748 0.0191048 1.33635e-22)
(0.723341 0.018827 3.32692e-23)
(0.724915 0.0185553 -1.46948e-22)
(0.726472 0.0182893 -2.13128e-24)
(0.71392 0.018457 -1.36335e-22)
(0.715598 0.0181868 2.56867e-22)
(0.717255 0.0179225 -1.47358e-22)
(0.706314 0.0177717 1.17284e-22)
(0.708077 0.0175098 -2.03063e-22)
(0.709818 0.0172536 1.55331e-22)
(0.698954 0.0170496 3.32286e-23)
(0.700801 0.0167967 -3.42944e-23)
(0.702625 0.0165493 -6.41104e-23)
(0.69186 0.0162915 1.53506e-22)
(0.69379 0.0160484 -8.77097e-23)
(0.695696 0.0158106 -1.59874e-23)
(0.685055 0.0154984 -1.60617e-22)
(0.687067 0.0152659 1.24349e-22)
(0.689052 0.0150383 -6.16668e-23)
(0.678559 0.0146717 -1.63233e-22)
(0.68065 0.0144503 -7.10899e-23)
(0.682714 0.0142337 1.04452e-22)
(0.672394 0.0138125 -1.32247e-22)
(0.674561 0.013603 4.47675e-23)
(0.6767 0.0133981 -5.93521e-24)
(0.666578 0.0129223 5.06212e-23)
(0.668819 0.0127255 2.17521e-24)
(0.67103 0.0125328 -1.76545e-23)
(0.661131 0.012003 -7.12508e-23)
(0.663442 0.0118193 -7.13004e-23)
(0.665721 0.0116396 6.74184e-23)
(0.656071 0.0110561 3.90433e-23)
(0.658447 0.0108863 -3.6838e-23)
(0.660791 0.01072 4.31349e-23)
(0.651413 0.0100837 -1.56616e-23)
(0.653851 0.00992819 3.34453e-24)
(0.656255 0.00977601 3.35897e-24)
(0.647175 0.00908768 1.61524e-23)
(0.649669 0.0089471 -2.78995e-23)
(0.652128 0.0088095 -7.43408e-23)
(0.64337 0.00807033 -8.41343e-23)
(0.645915 0.00794512 1.85029e-23)
(0.648424 0.00782255 -2.47193e-24)
(0.640011 0.00703385 2.44406e-23)
(0.642602 0.00692444 -4.39134e-23)
(0.645156 0.00681733 2.93151e-23)
(0.63711 0.00598061 -3.03129e-23)
(0.639741 0.00588737 1.93083e-23)
(0.642333 0.00579609 -1.99962e-23)
(0.634677 0.00491303 -1.75646e-23)
(0.637341 0.00483629 -4.4988e-23)
(0.639966 0.00476117 -1.06193e-23)
(0.63272 0.00383363 5.043e-24)
(0.635411 0.00377366 3.12082e-23)
(0.638063 0.00371496 3.75591e-24)
(0.631247 0.00274497 -2.17367e-23)
(0.633958 0.00270198 -7.80767e-24)
(0.63663 0.0026599 -3.42722e-24)
(0.630261 0.00164967 -1.08394e-23)
(0.632987 0.00162381 1.84379e-24)
(0.635672 0.0015985 1.37502e-23)
(0.629768 0.000550359 6.28495e-25)
(0.6325 0.000541731 -1.00715e-24)
(0.635192 0.000533284 1.91279e-24)
)
;

boundaryField
{
    inlet
    {
        type            uniformFixedValue;
        uniformValue    constant (1 0 0);
        value           nonuniform 0();
    }
    outlet
    {
        type            pressureInletOutletVelocity;
        value           nonuniform 0();
    }
    cylinder
    {
        type            fixedValue;
        value           nonuniform 0();
    }
    top
    {
        type            symmetryPlane;
    }
    bottom
    {
        type            symmetryPlane;
    }
    defaultFaces
    {
        type            empty;
    }
    procBoundary58to57
    {
        type            processor;
        value           nonuniform List<vector> 
131
(
(0.626995 -0.000559103 2.19772e-24)
(0.627495 -0.00167602 -1.26473e-24)
(0.628494 -0.00278883 1.67865e-23)
(0.629989 -0.00389485 -4.48362e-24)
(0.631973 -0.00499139 2.51542e-23)
(0.63444 -0.00607583 2.1713e-23)
(0.637382 -0.00714561 4.48729e-23)
(0.640787 -0.00819823 1.14091e-22)
(0.644644 -0.0092313 4.12823e-24)
(0.64894 -0.0102425 1.13433e-22)
(0.65366 -0.0112296 -2.46316e-23)
(0.658787 -0.0121906 7.9112e-23)
(0.664306 -0.0131235 6.94717e-23)
(0.670196 -0.0140264 6.90139e-23)
(0.67644 -0.0148978 1.58902e-24)
(0.683016 -0.0157361 1.61258e-22)
(0.689905 -0.0165399 -2.09581e-22)
(0.697083 -0.017308 1.91081e-24)
(0.70453 -0.0180394 -1.03998e-22)
(0.712222 -0.0187332 -2.19442e-24)
(0.720137 -0.0193887 -7.43235e-23)
(0.728253 -0.0200055 -1.15786e-22)
(0.736545 -0.0205842 -2.76752e-23)
(0.746345 -0.0208206 -3.33497e-23)
(0.746345 -0.0208206 -3.33497e-23)
(0.762755 -0.0217648 0)
(0.788373 -0.0228709 0)
(0.814855 -0.0237032 0)
(0.841814 -0.0242624 0)
(0.868875 -0.024558 0)
(0.895686 -0.0246062 0)
(0.921924 -0.0244269 8.53064e-29)
(0.947302 -0.0240427 -8.53064e-29)
(0.97157 -0.0234791 -3.24566e-30)
(0.994523 -0.0227625 3.24566e-30)
(1.016 -0.0219201 0)
(1.03588 -0.0209787 0)
(1.05408 -0.0199639 0)
(1.07058 -0.0188999 0)
(1.08538 -0.0178083 0)
(1.09849 -0.0167084 0)
(1.11 -0.0156166 3.64766e-12)
(1.11997 -0.0145463 -3.64766e-12)
(1.12852 -0.0135082 -1.12965e-28)
(1.13575 -0.0125101 1.12965e-28)
(1.14178 -0.0115574 0)
(1.14675 -0.010653 0)
(1.15076 -0.00979823 0)
(1.15394 -0.00899255 0)
(1.15641 -0.00823423 0)
(1.15828 -0.00752059 0)
(1.15964 -0.00684827 0)
(1.16058 -0.0062135 0)
(1.16119 -0.00561232 0)
(1.16154 -0.00504073 0)
(1.16169 -0.00449483 0)
(1.16169 -0.00397095 0)
(1.16159 -0.00346566 0)
(1.16143 -0.00297583 0)
(1.16123 -0.00249865 0)
(1.16104 -0.0020316 0)
(1.16086 -0.00157244 0)
(1.16071 -0.00111914 0)
(1.1606 -0.000669909 -1.40153e-28)
(1.16055 -0.000223046 1.41658e-28)
(1.16103 0.000678511 -2.51166e-12)
(1.16097 0.000225916 2.53864e-12)
(0.762755 0.0217648 0)
(0.788373 0.0228709 0)
(0.814855 0.0237033 0)
(0.841814 0.0242624 0)
(0.868875 0.0245581 0)
(0.895686 0.0246063 0)
(0.921924 0.0244269 0)
(0.947302 0.0240428 0)
(0.97157 0.0234791 0)
(0.994523 0.0227625 0)
(1.016 0.0219201 0)
(1.03588 0.0209787 0)
(1.05408 0.019964 0)
(1.07058 0.0188999 0)
(1.08538 0.0178083 -1.72927e-12)
(1.09849 0.0167084 1.72927e-12)
(1.11 0.0156166 1.82383e-12)
(1.11997 0.0145463 -1.82383e-12)
(1.12852 0.0135082 -1.9133e-12)
(1.13575 0.0125101 1.9133e-12)
(1.14178 0.0115574 0)
(1.14675 0.010653 0)
(1.15076 0.00979825 0)
(1.15394 0.00899256 0)
(1.15641 0.00823425 2.1393e-12)
(1.15828 0.0075206 -2.1393e-12)
(1.15964 0.00684828 0)
(1.16058 0.00621351 0)
(1.16119 0.00561233 0)
(1.16154 0.00504073 0)
(1.16169 0.00449484 0)
(1.16169 0.00397095 0)
(1.16159 0.00346566 0)
(1.16143 0.00297583 0)
(1.16123 0.00249865 0)
(1.16104 0.0020316 0)
(1.16086 0.00157244 0)
(1.16071 0.00111914 0)
(1.16071 0.00111914 0)
(0.746345 0.0208206 3.33497e-23)
(0.746345 0.0208206 3.33497e-23)
(0.736545 0.0205842 -3.02624e-24)
(0.728253 0.0200056 1.13075e-22)
(0.720137 0.0193888 9.44637e-23)
(0.712222 0.0187333 7.84004e-24)
(0.70453 0.0180395 1.81902e-22)
(0.697083 0.0173081 -3.72715e-23)
(0.689905 0.0165399 1.10816e-22)
(0.683016 0.0157361 -1.17916e-22)
(0.67644 0.0148979 -3.69954e-23)
(0.670196 0.0140265 -5.42811e-23)
(0.664306 0.0131235 -9.23564e-23)
(0.658787 0.0121907 -8.20612e-23)
(0.65366 0.0112297 4.61809e-23)
(0.64894 0.0102426 -6.543e-23)
(0.644644 0.00923137 -6.70153e-23)
(0.640787 0.00819831 -7.41808e-23)
(0.637382 0.00714568 -3.69849e-23)
(0.63444 0.00607591 -5.07244e-23)
(0.631973 0.00499147 -2.86742e-23)
(0.629989 0.00389492 1.32911e-23)
(0.628494 0.00278891 -1.43313e-23)
(0.627495 0.00167609 1.29372e-23)
(0.626995 0.000559177 -4.70944e-24)
)
;
    }
    procBoundary58to59
    {
        type            processor;
        value           nonuniform List<vector> 
130
(
(0.637844 -0.000524937 -7.57616e-24)
(0.638318 -0.00157364 -7.84786e-24)
(0.639263 -0.00261861 -1.23541e-23)
(0.640676 -0.00365738 1.3837e-24)
(0.642553 -0.00468751 1.66574e-23)
(0.644888 -0.00570662 2.41636e-23)
(0.647673 -0.00671235 3.63415e-23)
(0.650897 -0.00770242 -5.68293e-23)
(0.654552 -0.00867464 2.21499e-23)
(0.658625 -0.00962689 1.39429e-23)
(0.663101 -0.0105571 1.19114e-23)
(0.667968 -0.0114635 -2.94049e-23)
(0.67321 -0.0123441 -6.39249e-23)
(0.67881 -0.0131973 6.31913e-23)
(0.68475 -0.0140216 -8.42331e-23)
(0.691012 -0.0148154 2.52114e-23)
(0.697577 -0.0155776 -7.07311e-23)
(0.704426 -0.016307 -6.2839e-23)
(0.711539 -0.0170026 -7.92579e-24)
(0.718894 -0.0176636 1.44224e-23)
(0.718894 -0.0176636 1.44224e-23)
(0.728012 -0.0180287 7.84289e-23)
(0.73571 -0.0186122 -5.97091e-24)
(0.74359 -0.0191609 5.16339e-23)
(0.75163 -0.0196737 5.96188e-23)
(0.767387 -0.0205836 4.05928e-29)
(0.791985 -0.0216585 3.97562e-29)
(0.817457 -0.0224751 0)
(0.843435 -0.0230345 0)
(0.869562 -0.0233453 0)
(0.895503 -0.0234218 5.59609e-29)
(0.920948 -0.023282 -5.81785e-29)
(0.945618 -0.0229467 0)
(0.969272 -0.0224389 -1.16599e-29)
(0.991708 -0.0217833 1.16599e-29)
(1.01276 -0.0210049 -2.34737e-29)
(1.03232 -0.0201286 2.34737e-29)
(1.05029 -0.0191785 0)
(1.06664 -0.0181773 0)
(1.08136 -0.0171455 0)
(1.09447 -0.0161018 0)
(1.10603 -0.0150618 -2.84575e-29)
(1.11609 -0.0140388 2.84575e-29)
(1.12477 -0.0130434 -6.20458e-29)
(1.13215 -0.0120835 6.20458e-29)
(1.13835 -0.0111648 0)
(1.14349 -0.0102909 0)
(1.14768 -0.00946324 0)
(1.15104 -0.00868196 0)
(1.15368 -0.00794584 -3.36964e-29)
(1.15571 -0.00725268 3.36964e-29)
(1.15722 -0.00659957 0)
(1.15829 -0.00598314 0)
(1.15902 -0.00539977 7.34806e-29)
(1.15947 -0.00484572 -7.34806e-29)
(1.15971 -0.00431733 0)
(1.15979 -0.00381107 0)
(1.15975 -0.0033236 0)
(1.15964 -0.00285189 -2.92788e-29)
(1.15949 -0.00239312 -8.3523e-29)
(1.15933 -0.00194478 0)
(1.15918 -0.0015046 0)
(1.15905 -0.00107051 0)
(1.15896 -0.00064066 1.93241e-28)
(1.15891 -0.000213284 -1.6292e-28)
(0.767387 0.0205836 -4.05928e-29)
(0.791985 0.0216585 -3.97562e-29)
(0.817457 0.0224752 0)
(0.843435 0.0230345 0)
(0.869562 0.0233453 -9.95448e-30)
(0.895503 0.0234218 -4.60064e-29)
(0.920948 0.023282 5.81785e-29)
(0.945618 0.0229467 0)
(0.969272 0.022439 0)
(0.991708 0.0217833 0)
(1.01276 0.0210049 1.15218e-12)
(1.03232 0.0201286 -1.15218e-12)
(1.05029 0.0191785 0)
(1.06664 0.0181773 0)
(1.08136 0.0171456 1.43812e-29)
(1.09447 0.0161018 -1.43812e-29)
(1.10603 0.0150618 0)
(1.11609 0.0140388 0)
(1.12477 0.0130434 6.20458e-29)
(1.13215 0.0120835 -6.20458e-29)
(1.13835 0.0111649 0)
(1.14349 0.0102909 0)
(1.14768 0.00946325 0)
(1.15104 0.00868197 0)
(1.15368 0.00794585 1.65395e-12)
(1.15571 0.00725269 -1.65395e-12)
(1.15722 0.00659958 0)
(1.15829 0.00598315 0)
(1.15902 0.00539977 0)
(1.15947 0.00484573 0)
(1.15971 0.00431734 1.77483e-12)
(1.15979 0.00381107 -1.77483e-12)
(1.15975 0.00332361 0)
(1.15964 0.00285189 2.92788e-29)
(1.15949 0.00239312 8.3523e-29)
(1.15933 0.00194478 0)
(1.15918 0.0015046 0)
(1.15905 0.00107051 0)
(1.15896 0.000640661 -8.45727e-29)
(1.15891 0.000213284 5.3085e-29)
(0.75163 0.0196737 -4.22284e-23)
(0.74359 0.0191609 -5.41153e-23)
(0.73571 0.0186123 1.79938e-23)
(0.728012 0.0180287 -9.89734e-23)
(0.718894 0.0176637 1.28281e-23)
(0.718894 0.0176637 1.28281e-23)
(0.711539 0.0170027 -2.63497e-24)
(0.704426 0.0163071 6.69213e-23)
(0.697577 0.0155777 7.8281e-24)
(0.691012 0.0148155 1.98603e-23)
(0.68475 0.0140216 5.6895e-23)
(0.67881 0.0131974 -4.64967e-23)
(0.67321 0.0123442 7.24501e-23)
(0.667968 0.0114635 -1.04489e-24)
(0.663101 0.0105572 3.19019e-24)
(0.658625 0.00962696 1.56395e-23)
(0.654552 0.00867471 -3.38557e-23)
(0.650897 0.00770249 5.64329e-23)
(0.647673 0.00671242 -2.68856e-23)
(0.644888 0.00570669 -3.5094e-23)
(0.642553 0.00468759 -2.81164e-24)
(0.640676 0.00365745 -1.38943e-23)
(0.639263 0.00261868 1.08291e-23)
(0.638318 0.00157371 1.12254e-23)
(0.637844 0.00052501 2.90932e-24)
)
;
    }
}


// ************************************************************************* //
