/*--------------------------------*- C++ -*----------------------------------*\
  =========                 |
  \\      /  F ield         | OpenFOAM: The Open Source CFD Toolbox
   \\    /   O peration     | Website:  https://openfoam.org
    \\  /    A nd           | Version:  7
     \\/     M anipulation  |
\*---------------------------------------------------------------------------*/
FoamFile
{
    version     2.0;
    format      ascii;
    class       volScalarField;
    location    "50";
    object      p;
}
// * * * * * * * * * * * * * * * * * * * * * * * * * * * * * * * * * * * * * //

dimensions      [0 2 -2 0 0 0 0];

internalField   nonuniform List<scalar> 
183
(
-0.371757
-0.367121
-0.380018
-0.374682
-0.36967
-0.388879
-0.382802
-0.377245
-0.37155
-0.365569
-0.398297
-0.391451
-0.385338
-0.379122
-0.372553
-0.36561
-0.358115
-0.349844
-0.393901
-0.387137
-0.379912
-0.372139
-0.363595
-0.354054
-0.343407
-0.331696
-0.3788
-0.369028
-0.358037
-0.345809
-0.332509
-0.318435
-0.303938
-0.289352
-0.33274
-0.31718
-0.301423
-0.285817
-0.270611
-0.255962
-0.241948
-0.228595
-0.265791
-0.250579
-0.236142
-0.222476
-0.209549
-0.197316
-0.185765
-0.174682
-0.202817
-0.190456
-0.178824
-0.167677
-0.203228
-0.191636
-0.180761
-0.170347
-0.277885
-0.262753
-0.248376
-0.234791
-0.221986
-0.20992
-0.198542
-0.187831
-0.340279
-0.326005
-0.311191
-0.296238
-0.281483
-0.267167
-0.253438
-0.240366
-0.369288
-0.359873
-0.349358
-0.337716
-0.325104
-0.311806
-0.298161
-0.284493
-0.383522
-0.376773
-0.369638
-0.362056
-0.353819
-0.344712
-0.334624
-0.323594
-0.387516
-0.38066
-0.374523
-0.368307
-0.361795
-0.354992
-0.347747
-0.377676
-0.371609
-0.366033
-0.360325
-0.354367
-0.368424
-0.363123
-0.358099
-0.359807
-0.0930259
-0.0759434
-0.0607318
-0.0495749
-0.0398593
-0.0319293
-0.0253122
-0.0198099
-0.0150131
-0.0107347
-0.00721671
-0.00407719
-0.00159031
0.00052933
0.00235363
0.0037946
0.0048895
0.00537971
0.00595051
-0.143041
-0.113009
-0.0884416
-0.072092
-0.057382
-0.0467171
-0.0373642
-0.0297246
-0.0233724
-0.0181057
-0.0134784
-0.00931951
-0.00590857
-0.00285356
-0.000454353
0.00159635
0.00338412
0.0048044
0.00586716
0.00631727
0.00690377
-0.147445
-0.119309
-0.0953252
-0.0791385
-0.0641793
-0.0529692
-0.0426326
-0.0345096
-0.0274321
-0.0212197
-0.0163033
-0.0119697
-0.00841871
-0.00568843
-0.00315244
-0.00122131
0.000544911
0.00170458
0.00252211
0.00317934
0.00358027
-0.0561231
-0.0454132
-0.0369345
-0.0295738
-0.0231458
-0.0180151
-0.0135149
-0.00980947
-0.00692763
-0.00428806
-0.00227542
-0.000457301
0.000765881
0.00164049
0.00231686
0.00271734
)
;

boundaryField
{
    inlet
    {
        type            zeroGradient;
    }
    outlet
    {
        type            fixedValue;
        value           nonuniform 0();
    }
    cylinder
    {
        type            zeroGradient;
    }
    top
    {
        type            symmetryPlane;
    }
    bottom
    {
        type            symmetryPlane;
    }
    defaultFaces
    {
        type            empty;
    }
    procBoundary20to19
    {
        type            processor;
        value           nonuniform List<scalar> 
94
(
-0.408209
-0.400579
-0.400579
-0.40286
-0.395513
-0.387545
-0.387545
-0.385436
-0.374247
-0.361628
-0.347691
-0.347691
-0.332282
-0.315261
-0.298299
-0.281736
-0.281736
-0.260433
-0.244709
-0.22989
-0.215944
-0.215944
-0.195657
-0.183197
-0.171508
-0.160326
-0.196109
-0.184341
-0.173333
-0.162813
-0.273649
-0.257766
-0.2428
-0.22875
-0.21558
-0.21558
-0.342169
-0.326191
-0.309876
-0.293663
-0.293663
-0.37653
-0.365734
-0.353619
-0.353619
-0.392959
-0.385642
-0.377797
-0.377797
-0.397885
-0.390227
-0.390227
-0.136238
-0.107522
-0.0837658
-0.0681789
-0.0539918
-0.0438293
-0.034848
-0.0274985
-0.0214153
-0.0163911
-0.0119346
-0.00789186
-0.0045854
-0.0016142
0.00069541
0.00267532
0.00442901
0.0058319
0.0068608
0.00726782
0.0078742
-0.140284
-0.113377
-0.0902399
-0.074867
-0.06049
-0.0498027
-0.0398384
-0.0320701
-0.0252756
-0.0192746
-0.0145709
-0.0104036
-0.00700828
-0.00443376
-0.00200297
-0.000151482
0.00156504
0.00265919
0.00341595
0.00405475
0.00445948
)
;
    }
    procBoundary20to21
    {
        type            processor;
        value           nonuniform List<scalar> 
102
(
-0.364115
-0.360132
-0.362637
-0.362637
-0.364474
-0.364474
-0.35903
-0.359338
-0.359338
-0.352735
-0.345555
-0.340627
-0.340627
-0.330409
-0.319103
-0.319103
-0.305902
-0.292392
-0.274946
-0.274946
-0.26091
-0.247358
-0.234348
-0.215894
-0.215894
-0.203816
-0.19236
-0.181367
-0.149602
-0.177564
-0.227968
-0.216224
-0.205096
-0.177564
-0.194577
-0.271056
-0.258031
-0.227968
-0.245519
-0.311794
-0.299488
-0.271056
-0.286958
-0.339851
-0.331148
-0.311794
-0.321587
-0.348225
-0.339851
-0.341804
-0.352878
-0.348225
-0.347424
-0.355232
-0.352878
-0.350743
-0.355232
-0.351842
-0.0975218
-0.0797388
-0.0640435
-0.0524052
-0.0423341
-0.0341136
-0.0272355
-0.0215034
-0.0165379
-0.0121367
-0.00850971
-0.00528483
-0.00271198
-0.000524875
0.00133812
0.00280261
0.00392822
0.00445568
0.00501454
-0.149602
-0.118355
-0.118355
-0.154421
-0.125153
-0.100358
-0.0833808
-0.067857
-0.067857
-0.0592665
-0.0481813
-0.039346
-0.031701
-0.0250529
-0.0197073
-0.0150396
-0.0111805
-0.00815098
-0.00540885
-0.00331329
-0.00144134
-0.00015647
0.000771938
0.00146807
0.00187085
)
;
    }
}


// ************************************************************************* //
