/*--------------------------------*- C++ -*----------------------------------*\
  =========                 |
  \\      /  F ield         | OpenFOAM: The Open Source CFD Toolbox
   \\    /   O peration     | Website:  https://openfoam.org
    \\  /    A nd           | Version:  7
     \\/     M anipulation  |
\*---------------------------------------------------------------------------*/
FoamFile
{
    version     2.0;
    format      ascii;
    class       surfaceScalarField;
    location    "40";
    object      phi;
}
// * * * * * * * * * * * * * * * * * * * * * * * * * * * * * * * * * * * * * //

dimensions      [0 3 -1 0 0 0 0];

internalField   nonuniform List<scalar> 
272
(
1.98727e-05
-9.75389e-05
7.94592e-05
-0.000370963
0.000178749
-0.000723828
0.000314146
-0.00114169
-0.00160131
2.16473e-05
-0.000119186
8.50802e-05
-0.000434396
0.00018859
-0.000827337
0.000326446
-0.00127954
0.00048829
-0.00176316
0.000660501
-0.00224539
0.00082907
-0.0026958
0.000982625
-0.0030929
0.00111432
-0.00342723
0.00122211
-0.00370049
-0.00392214
2.33134e-05
-0.0001425
9.00734e-05
-0.000501156
0.000196675
-0.000933939
0.000335191
-0.00141806
0.000493318
-0.00192128
0.000656481
-0.00240855
0.000811091
-0.00285041
0.000947336
-0.00322915
0.00106041
-0.00354031
0.00115012
-0.0037902
0.00121945
-0.00399147
0.0012729
-0.00415871
0.00131511
-0.00430531
0.00135001
-0.00444183
0.00138053
-0.00457574
0.00140863
-0.00471187
0.00143553
-0.00485313
0.00146193
-0.00500109
-0.00515644
2.48288e-05
9.42978e-05
0.000202761
0.000340126
0.000492466
0.000644778
0.000784378
0.000903246
0.000998542
0.00107162
0.00112634
0.00116741
0.00119918
0.00122509
0.00124754
0.00126806
0.00128756
0.00130654
0.00132524
0.00134365
0.00136156
0.00116453
0.00516749
0.0011757
0.00532991
0.00549811
0.00118628
2.47754e-05
0.000142435
9.40995e-05
0.000500492
0.000202351
0.0009323
0.000339478
0.00141522
0.000491602
0.0019172
0.000643762
0.00240334
0.000783296
0.00284431
0.000902183
0.00322243
0.000997567
0.0035332
0.00107078
0.00378287
0.00112568
0.00398403
0.00116694
0.0041512
0.00119893
0.00429772
0.0012251
0.00443416
0.00124785
0.00456798
0.0012687
0.004704
0.00128859
0.00484515
0.00130802
0.00499301
0.00132724
0.00134623
0.00136479
2.32601e-05
0.000119175
8.98717e-05
0.00043388
0.000196249
0.000825922
0.000334502
0.00127696
0.000492377
0.00175933
0.000655348
0.00224037
0.000809854
0.0026898
0.00094609
0.00308619
0.00105924
0.00342005
0.00114909
0.00369303
0.00121859
0.00127225
0.00131469
0.00134985
0.00138067
0.00140911
0.00143641
2.15947e-05
9.75804e-05
8.48772e-05
0.000370598
0.000188152
0.000722647
0.000325722
0.0011394
0.000487276
0.000659247
0.000827664
0.000981171
0.00111292
1.98216e-05
7.92575e-05
0.000178305
0.000336121
-0.0200331
0.000285237
-0.0199864
0.00023626
-0.019956
0.000187392
-0.0198958
0.000139551
-0.0198714
9.21367e-05
-0.0198393
4.66325e-05
-0.0198488
-0.0198143
0.00120642
0.00107206
0.000963053
0.000866994
0.000781972
0.000706721
0.000638117
0.000574692
0.000516648
0.000463794
0.000413731
0.000365686
0.000319679
0.000275553
0.000233402
0.000193221
0.000153023
0.000113751
7.48998e-05
3.81145e-05
0.00103851
0.0215635
0.00091379
0.0211352
0.000814088
0.0209988
0.000727404
0.0208125
0.000652488
0.0207022
0.000585501
0.0205862
0.000524184
0.0204767
0.000468622
0.0203795
0.000418239
0.0203178
0.000369716
0.0202049
0.000326161
0.0201648
0.000284166
0.020078
0.000245966
0.0200422
0.000210586
0.0199967
0.000177352
0.0199573
0.000145293
0.0199119
0.000113814
0.0198684
8.39762e-05
0.0198514
5.60204e-05
0.0198498
2.82664e-05
0.0198309
0.0198079
0.00121182
0.00107958
0.000972135
0.000876825
0.000793127
0.000717142
0.000646889
0.000582422
0.00052306
0.000465735
0.000413377
0.000362684
0.000315768
0.000271548
0.000229459
0.000188636
0.000148541
0.000110063
7.33296e-05
3.6845e-05
)
;

boundaryField
{
    inlet
    {
        type            calculated;
        value           nonuniform 0();
    }
    outlet
    {
        type            calculated;
        value           nonuniform 0();
    }
    cylinder
    {
        type            calculated;
        value           uniform 0;
    }
    top
    {
        type            symmetryPlane;
        value           uniform 0;
    }
    bottom
    {
        type            symmetryPlane;
        value           uniform 0;
    }
    defaultFaces
    {
        type            empty;
        value           nonuniform 0();
    }
    procBoundary18to17
    {
        type            processor;
        value           nonuniform List<scalar> 
85
(
-0.000167328
-0.000570625
-0.0010424
-0.00155542
-0.00207362
-0.00256086
-0.00299001
-0.00334802
-0.0036356
-0.00386328
-0.00404619
-0.00419978
-0.00433708
-0.00446774
-0.00459819
-0.00473239
-0.00487262
-0.00502007
-0.00517515
-0.00533757
-0.00550576
-0.00517909
-0.00534107
-0.00550869
-0.000167211
-0.000569816
-0.00104055
-0.00155234
-0.00206933
-0.0025555
-0.00298384
-0.00334131
-0.00362858
-0.00385609
-0.00403892
-0.00419246
-0.00432972
-0.00446033
-0.00459072
-0.00472486
-0.00486504
-0.00115294
-0.00501244
-0.02159
-0.0211581
-0.0210098
-0.0208351
-0.0207031
-0.0206041
-0.0205019
-0.0204011
-0.0203213
-0.0202664
-0.0201902
-0.0201119
-0.0200425
-0.0199889
-0.0199442
-0.0199158
-0.0198556
-0.0198322
-0.0198005
-0.019812
-0.0197762
-0.0214157
-0.0210105
-0.0208991
-0.0207258
-0.0206272
-0.0205192
-0.0204154
-0.0203239
-0.0202674
-0.0201564
-0.0201212
-0.020036
-0.020004
-0.0199613
-0.019924
-0.0198798
-0.0198369
-0.0198216
-0.0198218
-0.0198031
-0.0197796
)
;
    }
    procBoundary18to19
    {
        type            processor;
        value           nonuniform List<scalar> 
91
(
7.76662e-05
0.000311377
0.000624538
0.00100629
0.00143801
0.000477453
0.00207317
0.00252723
0.00293935
0.00329553
0.00359271
0.00383653
0.00130772
0.00410526
0.0042631
0.00440693
0.00454522
0.00468377
0.00482623
0.00497469
0.00513019
0.00148819
0.00531916
0.00548785
0.00514828
0.00531092
0.00547955
0.00391452
0.00409754
0.00425528
0.004399
0.00453716
0.00467556
0.00481785
0.00146328
0.00496615
0.00159777
0.0020684
0.00252139
0.00293268
0.0032883
0.00122083
0.00358512
7.77588e-05
0.000311162
0.0006236
0.000313394
0.00100431
0.0200859
0.0200373
0.020005
0.0199447
0.0199193
0.0198868
0.0198943
0.019861
0.0217451
0.0212924
0.0211188
0.0209312
0.0207882
0.0206793
0.0205705
0.0204646
0.0203793
0.0203192
0.0202403
0.02016
-0.000388963
0.0200885
0.0217164
0.0212674
0.0211062
0.0209078
0.0207859
0.0206621
0.020547
0.020444
0.0203772
0.0202622
0.0202171
0.0201287
0.0200891
0.0200409
0.0199994
0.0199527
0.0199085
0.0198899
0.0198865
0.0198674
0.0198447
)
;
    }
}


// ************************************************************************* //
