/*--------------------------------*- C++ -*----------------------------------*\
  =========                 |
  \\      /  F ield         | OpenFOAM: The Open Source CFD Toolbox
   \\    /   O peration     | Website:  https://openfoam.org
    \\  /    A nd           | Version:  7
     \\/     M anipulation  |
\*---------------------------------------------------------------------------*/
FoamFile
{
    version     2.0;
    format      ascii;
    class       surfaceScalarField;
    location    "5";
    object      phi;
}
// * * * * * * * * * * * * * * * * * * * * * * * * * * * * * * * * * * * * * //

dimensions      [0 3 -1 0 0 0 0];

internalField   nonuniform List<scalar> 
272
(
0.000691142
-0.00505018
0.000676842
-0.00519157
0.000661306
-0.00534043
0.00064452
-0.00549573
-0.00565581
0.000626624
0.000320138
-0.00229265
0.000424552
-0.00284698
0.000510187
-0.00329522
0.000572435
-0.00363634
0.000612101
-0.00388658
0.000633141
-0.00407015
0.000640485
-0.00421125
0.000638566
-0.00432943
0.000630665
-0.00443825
0.000618883
-0.00454597
0.00060441
-0.00465715
0.000587865
0.000569563
0.000549676
0.000528299
0.000505504
0.000481325
0.0004558
3.02648e-05
-0.000351674
0.00010314
-0.0010559
0.000200333
-0.00175375
0.000302726
-0.00239504
0.000394474
-0.00293872
0.000465988
-0.00336673
0.000514278
-0.00368463
0.000541257
-0.00391356
0.000551338
0.000549373
0.00053942
0.000524312
0.00050576
2.98832e-05
-0.000381557
9.99051e-05
-0.00112593
0.000190567
-0.00184442
0.00028273
-0.0024872
0.000361676
0.000419451
0.000454521
2.91875e-05
9.56592e-05
0.000179044
2.91873e-05
0.000381558
9.56588e-05
0.00112593
0.000179044
0.00184442
0.00248721
2.98831e-05
0.000351675
9.99047e-05
0.00105591
0.000190566
0.00175376
0.000282729
0.00239504
0.000361674
0.00293873
0.000419448
0.00336673
0.000454518
0.00368463
0.000469683
0.00391356
0.00408024
3.02648e-05
0.000103139
0.000200333
0.000302724
0.000394472
0.00284698
0.000465986
0.00329522
0.000514275
0.00363634
0.000541254
0.00388658
0.000551334
0.00407016
0.000549368
0.00421125
0.000539415
0.00432943
0.000524306
0.00443825
0.000505754
0.00454597
0.000484674
0.00465715
0.00477419
0.000424551
0.000510184
0.000572432
0.000612098
0.000633137
0.000640481
0.000638561
0.000630659
0.000618877
0.000604404
0.000587858
0.000569556
0.000549668
0.00505019
0.000528291
0.00519157
0.000505496
0.00534044
0.000481317
0.00549574
0.00565582
0.000455791
0.000691135
0.000676835
0.000661298
0.000644512
0.000626615
0.00047246
-0.0216665
0.000357531
-0.0212219
0.000272689
-0.0210078
0.000209763
-0.0207378
0.000159926
-0.0205292
0.000121583
-0.0203495
9.11727e-05
-0.0201885
6.75673e-05
-0.0200472
4.91331e-05
-0.0199192
3.48632e-05
-0.0198054
2.39012e-05
-0.0197046
1.55931e-05
-0.0196158
9.41757e-06
-0.0195383
4.9575e-06
-0.0194713
1.87449e-06
-0.0194142
-1.07528e-07
-0.0193663
-1.13041e-06
-0.0193272
-1.49795e-06
-0.0192965
-1.33882e-06
-0.0192739
-8.13626e-07
-0.019259
-0.0192518
0.000306947
0.000200247
0.000121442
6.80127e-05
2.5266e-05
-3.88823e-06
-2.5556e-05
-4.03729e-05
-5.02508e-05
-5.60454e-05
-5.85881e-05
-5.85241e-05
-5.6365e-05
-5.25212e-05
-4.73214e-05
-4.10325e-05
-3.38903e-05
-2.60602e-05
-1.7716e-05
-8.99012e-06
0.000306938
0.0216665
0.000200239
0.0212219
0.000121435
0.0210079
6.80082e-05
0.0207379
2.52635e-05
0.0205292
-3.88883e-06
0.0203496
-2.55556e-05
0.0201885
-4.03717e-05
0.0200472
-5.0249e-05
0.0199192
-5.60434e-05
0.0198055
-5.85861e-05
0.0197046
-5.85222e-05
0.0196158
-5.63633e-05
0.0195383
-5.25196e-05
0.0194713
-4.73199e-05
0.0194142
-4.10312e-05
0.0193663
-3.38893e-05
0.0193273
-2.60593e-05
0.0192965
-1.77154e-05
0.0192739
-8.98984e-06
0.019259
0.0192518
0.000472452
0.000357523
0.000272683
0.000209759
0.000159923
0.000121582
9.11731e-05
6.75685e-05
4.91348e-05
3.48651e-05
2.39031e-05
1.55949e-05
9.41926e-06
4.95905e-06
1.8759e-06
-1.06422e-07
-1.12941e-06
-1.49718e-06
-1.33829e-06
-8.13359e-07
)
;

boundaryField
{
    inlet
    {
        type            calculated;
        value           nonuniform 0();
    }
    outlet
    {
        type            calculated;
        value           nonuniform 0();
    }
    cylinder
    {
        type            calculated;
        value           uniform 0;
    }
    top
    {
        type            symmetryPlane;
        value           uniform 0;
    }
    bottom
    {
        type            symmetryPlane;
        value           uniform 0;
    }
    defaultFaces
    {
        type            empty;
        value           nonuniform 0();
    }
    procBoundary16to15
    {
        type            processor;
        value           nonuniform List<scalar> 
90
(
-0.00477419
-0.00489834
-0.0050303
-0.00517019
-0.00531764
-0.00547155
-0.00563029
-0.00408023
-0.00420928
-0.00431948
-0.00442314
-0.00452742
0.000484681
-0.00463607
-0.00301767
-0.00342451
-0.0037197
0.000469687
-0.00392872
-0.000410744
-0.0011924
-0.0019278
0.000260528
-0.00256869
-0.000410746
-0.0011924
-0.00192781
-0.00256869
0.000260527
-0.00301767
-0.00342451
-0.0037197
-0.00392873
-0.00408017
0.000469618
-0.00420928
-0.00431948
-0.00442314
-0.00452742
-0.00463607
-0.00475103
0.000461515
-0.00489835
-0.0050303
-0.00517019
-0.00531764
-0.00547156
-0.00563029
-0.0215177
-0.0211152
-0.020929
-0.0206844
-0.0204864
-0.0203204
-0.0201668
-0.0200324
-0.0199093
-0.0197996
-0.019702
-0.0196159
-0.0195405
-0.0194752
-0.0194194
-0.0193726
-0.0193344
-0.0193044
-0.0192822
-0.0192677
-0.0192608
-0.0215177
-0.0211152
-0.020929
-0.0206844
-0.0204865
-0.0203204
-0.0201668
-0.0200324
-0.0199093
-0.0197997
-0.0197021
-0.0196159
-0.0195405
-0.0194752
-0.0194194
-0.0193726
-0.0193344
-0.0193044
-0.0192822
-0.0192678
-0.0192608
)
;
    }
    procBoundary16to17
    {
        type            processor;
        value           nonuniform List<scalar> 
88
(
0.00506319
0.00520587
0.00535597
0.00551252
0.00567371
0.00218066
0.00274256
0.00320958
0.00357409
0.00384691
0.00404911
0.0042039
0.00433135
0.00444615
0.00455775
0.00467162
0.00479073
-0.000704148
0.00491665
0.000321409
0.00098303
-0.000208147
0.00165656
0.000321411
0.000983033
0.00165657
0.00229265
-0.000320137
0.00274257
0.00320959
0.00357409
0.00384692
0.00404912
0.00420391
0.00433135
0.00444615
0.00455775
0.00467163
0.00479073
0.00491665
-0.000704141
0.00506319
0.00520587
0.00535597
0.00551252
0.00567371
0.0218207
0.0213368
0.0210927
0.0208008
0.020579
0.0203879
0.0202189
0.0200708
0.0199376
0.0198197
0.0197155
0.0196241
0.0195445
0.0194758
0.0194172
0.0193683
0.0193283
0.0192969
0.0192737
0.0192585
0.019251
0.0218207
0.0213369
0.0210927
0.0208008
0.0205791
0.0203879
0.0202189
0.0200708
0.0199377
0.0198197
0.0197156
0.0196241
0.0195445
0.0194758
0.0194173
0.0193683
0.0193283
0.0192969
0.0192737
0.0192585
0.019251
)
;
    }
}


// ************************************************************************* //
