/*--------------------------------*- C++ -*----------------------------------*\
  =========                 |
  \\      /  F ield         | OpenFOAM: The Open Source CFD Toolbox
   \\    /   O peration     | Website:  https://openfoam.org
    \\  /    A nd           | Version:  7
     \\/     M anipulation  |
\*---------------------------------------------------------------------------*/
FoamFile
{
    version     2.0;
    format      ascii;
    class       volVectorField;
    location    "20";
    object      U;
}
// * * * * * * * * * * * * * * * * * * * * * * * * * * * * * * * * * * * * * //

dimensions      [0 1 -1 0 0 0 0];

internalField   nonuniform List<vector> 
183
(
(0.0378414 -0.00352416 4.24085e-20)
(0.144218 -0.00400764 3.40575e-21)
(0.278881 0.0115126 8.42351e-20)
(0.43307 0.0385365 -5.23591e-20)
(0.59593 0.0739299 -5.36765e-20)
(0.0469493 -0.0029597 -4.80441e-20)
(0.170137 -0.00032221 -6.47234e-20)
(0.319605 0.0202996 -1.77452e-19)
(0.48521 0.0530587 2.96209e-20)
(0.654574 0.0936321 1.10756e-19)
(0.814614 0.137266 5.22106e-20)
(0.954183 0.178968 -1.32297e-19)
(1.06633 0.214753 6.15618e-20)
(1.14907 0.242353 -1.49557e-20)
(1.20464 0.261251 -8.99466e-21)
(1.23792 0.272256 -4.60974e-20)
(0.056801 -0.00179799 1.34733e-19)
(0.197436 0.00503029 6.06831e-20)
(0.361432 0.0315136 6.39733e-20)
(0.537278 0.0703264 -2.21472e-20)
(0.71129 0.115889 9.82424e-20)
(0.86999 0.162565 -9.47992e-20)
(1.00312 0.205056 4.99061e-20)
(1.10557 0.23967 3.71986e-20)
(1.17748 0.264802 4.33777e-21)
(1.22286 0.280672 -3.0508e-20)
(1.24767 0.288679 -2.16871e-20)
(1.25811 0.290716 2.80465e-20)
(1.2595 0.288634 -5.34235e-21)
(1.25583 0.283949 2.16704e-20)
(1.24978 0.277754 -3.0671e-20)
(1.24297 0.270758 -5.63737e-20)
(1.23629 0.263391 -1.77673e-20)
(1.23016 0.255904 3.8191e-20)
(1.22468 0.24839 -4.24122e-20)
(0.0673086 3.97618e-05 -3.89633e-20)
(0.225792 0.0121858 -5.46125e-20)
(0.403771 0.0452342 -5.40671e-20)
(0.588468 0.0902841 -3.67381e-20)
(0.765216 0.140495 -1.63252e-20)
(0.920683 0.189503 4.15452e-20)
(1.04601 0.231965 -1.2632e-20)
(1.13824 0.264715 2.19868e-20)
(1.1996 0.286937 -6.02604e-20)
(1.23564 0.299595 3.95042e-20)
(1.2531 0.304618 1.17579e-20)
(1.2583 0.304161 2.08712e-20)
(1.25627 0.30013 -1.76188e-20)
(1.25056 0.293972 2.10275e-20)
(1.24339 0.286663 1.14257e-20)
(1.23604 0.278801 5.69509e-21)
(1.22913 0.270734 -5.27194e-21)
(1.22295 0.262656 -3.50193e-20)
(1.2175 0.254614 3.39593e-20)
(1.21266 0.246681 -1.02839e-20)
(1.20804 0.239737 -1.08134e-20)
(1.21023 -0.260897 2.94778e-21)
(1.20549 -0.252564 1.7757e-20)
(1.20089 -0.245259 -2.41581e-23)
(0.0674126 -3.98992e-05 -2.68523e-20)
(0.226107 -0.012202 -8.00155e-21)
(0.404286 -0.0452881 -3.54506e-20)
(0.58914 -0.090378 -3.01607e-20)
(0.765979 -0.140617 -4.80047e-21)
(0.921462 -0.189634 9.49683e-21)
(1.04675 -0.232084 -4.96623e-21)
(1.13888 -0.264808 -1.80459e-20)
(1.20015 -0.286998 -1.28023e-20)
(1.2361 -0.299628 -2.00256e-20)
(1.2535 -0.30463 1.15861e-20)
(1.25866 -0.304162 1.33226e-20)
(1.25661 -0.30013 1.87461e-20)
(1.2509 -0.29398 3.51032e-21)
(1.24374 -0.286684 -3.31281e-21)
(1.23639 -0.27884 3.53707e-20)
(1.22951 -0.270794 5.93775e-21)
(1.22334 -0.262741 -4.61117e-21)
(1.2179 -0.254727 1.64359e-20)
(1.21307 -0.246825 -1.73225e-20)
(1.20845 -0.239904 2.43002e-21)
(0.0568901 0.00180074 -1.49847e-20)
(0.197717 -0.00503692 7.1512e-20)
(0.361903 -0.0315524 1.3858e-19)
(0.537911 -0.070404 -3.48017e-20)
(0.712029 -0.115999 3.24553e-20)
(0.870768 -0.162692 -1.50881e-20)
(1.00387 -0.205181 2.55292e-20)
(1.10624 -0.239777 -6.99427e-20)
(1.17806 -0.264883 7.50749e-20)
(1.22335 -0.280726 -8.25352e-21)
(1.24809 -0.288713 3.8661e-20)
(1.25848 -0.290738 -8.14276e-20)
(1.25984 -0.288653 4.25287e-21)
(1.25616 -0.283973 -4.62749e-20)
(1.25011 -0.277789 2.25885e-20)
(1.24331 -0.27081 1.54144e-20)
(1.23664 -0.263463 1.71566e-20)
(1.23052 -0.255999 1.43058e-21)
(0.0470242 0.00296439 -8.93207e-20)
(0.170382 0.000323061 -1.4284e-19)
(0.32003 -0.0203253 -8.70663e-20)
(0.485797 -0.0531206 1.36393e-19)
(0.655281 -0.0937285 -1.21422e-19)
(0.815379 -0.137386 6.63606e-21)
(0.954942 -0.179095 7.45473e-20)
(1.06703 -0.214871 -3.28725e-20)
(1.14968 -0.242451 8.67103e-21)
(1.20516 -0.261326 2.82783e-20)
(0.0379029 0.00352992 4.09413e-20)
(0.144429 0.00401393 1.34627e-19)
(0.279258 -0.0115275 6.73246e-20)
(0.433607 -0.0385839 1.0267e-20)
(1.1057 0.045155 1.35195e-21)
(1.10288 0.0379397 -7.84515e-22)
(1.10097 0.0323045 5.76764e-22)
(1.09752 0.0259208 -7.7079e-22)
(1.09606 0.0201329 -3.1315e-23)
(1.09419 0.0141542 8.08721e-22)
(1.09461 0.0081345 -4.34251e-22)
(1.09274 0.00364717 -6.01329e-23)
(1.19617 0.21461 6.81677e-22)
(1.17198 0.196877 -4.06216e-21)
(1.16335 0.166368 2.69973e-21)
(1.15353 0.152887 -1.63264e-21)
(1.14612 0.133263 -2.10866e-21)
(1.14053 0.120071 5.91396e-22)
(1.13469 0.107015 1.95022e-21)
(1.12886 0.095642 -7.02782e-22)
(1.1241 0.0850188 -7.37946e-22)
(1.12061 0.0757864 1.41391e-21)
(1.11603 0.0677429 6.1429e-22)
(1.11141 0.0597784 -8.84943e-22)
(1.10731 0.0521521 2.76811e-22)
(1.10411 0.0454492 -6.43761e-22)
(1.10139 0.0381523 -4.84695e-22)
(1.09958 0.0325341 -1.49268e-21)
(1.09612 0.0261143 4.74509e-22)
(1.09471 0.0202886 -1.47745e-21)
(1.09286 0.0142247 -1.2717e-21)
(1.09339 0.0081818 -2.53841e-22)
(1.09144 0.00372929 -1.11359e-21)
(1.18941 -0.217883 2.04675e-21)
(1.16626 -0.199818 7.17207e-23)
(1.15919 -0.168899 -6.64562e-22)
(1.14894 -0.154908 1.29592e-21)
(1.14299 -0.135423 8.09128e-22)
(1.1366 -0.122184 -3.12208e-22)
(1.1305 -0.109105 5.88522e-22)
(1.12502 -0.0963136 -1.73453e-22)
(1.12133 -0.0868381 7.38449e-22)
(1.11473 -0.0764332 2.81315e-22)
(1.11229 -0.0670512 5.68039e-22)
(1.10721 -0.0595824 7.01775e-22)
(1.10506 -0.0504668 4.27366e-22)
(1.10236 -0.0444177 -7.43209e-23)
(1.10007 -0.0371196 2.40524e-22)
(1.09743 -0.0313953 -7.22454e-23)
(1.09496 -0.0250258 -2.77562e-23)
(1.09396 -0.0189679 4.23801e-22)
(1.09383 -0.0134774 4.37146e-22)
(1.09276 -0.00839996 7.60615e-23)
(1.09148 -0.00276762 1.89157e-22)
(1.19658 -0.214954 -1.38223e-21)
(1.17235 -0.197138 3.4835e-21)
(1.16403 -0.167302 -3.9626e-21)
(1.15319 -0.153476 -3.24742e-22)
(1.14663 -0.134379 1.09677e-21)
(1.13985 -0.12124 -1.11425e-21)
(1.13345 -0.108303 -2.2015e-21)
(1.12766 -0.095709 2.28306e-22)
(1.1237 -0.0862312 6.4443e-24)
(1.11699 -0.0759695 -2.70203e-21)
(1.11429 -0.0666872 -1.32385e-21)
(1.10913 -0.0592439 -3.76358e-22)
(1.10678 -0.0502812 -1.06184e-21)
(1.10395 -0.0442153 -1.71389e-21)
(1.10155 -0.0369552 -5.43489e-22)
(1.09885 -0.0312219 -1.07657e-21)
(1.09634 -0.0249042 1.53813e-22)
(1.09526 -0.01892 -1.50777e-21)
(1.09504 -0.0134308 -1.28497e-21)
(1.09396 -0.00833086 4.60865e-23)
(1.09271 -0.00274009 -1.25256e-21)
)
;

boundaryField
{
    inlet
    {
        type            uniformFixedValue;
        uniformValue    constant (1 0 0);
        value           nonuniform 0();
    }
    outlet
    {
        type            pressureInletOutletVelocity;
        value           nonuniform 0();
    }
    cylinder
    {
        type            fixedValue;
        value           uniform (0 0 0);
    }
    top
    {
        type            symmetryPlane;
    }
    bottom
    {
        type            symmetryPlane;
    }
    defaultFaces
    {
        type            empty;
    }
    procBoundary18to17
    {
        type            processor;
        value           nonuniform List<vector> 
85
(
(0.0783608 0.00262262 -8.87096e-22)
(0.254833 0.0212441 -1.8451e-20)
(0.445998 0.0614812 6.01562e-21)
(0.637997 0.112809 -3.69556e-21)
(0.815601 0.167193 8.76855e-21)
(0.966181 0.217765 3.96471e-21)
(1.08274 0.259411 9.47382e-21)
(1.16458 0.289697 -6.88291e-21)
(1.21594 0.308675 -1.27945e-20)
(1.24361 0.318029 1.02945e-20)
(1.25481 0.320128 4.40997e-21)
(1.25576 0.317306 1.37973e-20)
(1.25111 0.311456 1.69886e-21)
(1.24392 0.303921 -5.26268e-21)
(1.236 0.295551 -2.98546e-21)
(1.22831 0.286842 -4.14304e-21)
(1.22132 0.278071 2.87059e-22)
(1.21516 0.269384 -8.18746e-21)
(1.20981 0.260796 -2.17246e-21)
(1.20505 0.252431 -1.76959e-20)
(1.20045 0.2451 2.34361e-23)
(1.20203 -0.266978 -1.8877e-21)
(1.19741 -0.258195 -1.6153e-20)
(1.19289 -0.250461 2.44152e-22)
(0.0784801 -0.00262666 8.87881e-22)
(0.255183 -0.021272 1.84673e-20)
(0.446553 -0.0615517 -6.02083e-21)
(0.638701 -0.112919 3.69879e-21)
(0.816378 -0.167326 -8.77613e-21)
(0.966955 -0.217897 -3.9682e-21)
(1.08345 -0.259521 -9.48213e-21)
(1.1652 -0.289773 6.88935e-21)
(1.21646 -0.308714 1.28073e-20)
(1.24405 -0.318038 -1.03051e-20)
(1.25519 -0.320117 -4.41397e-21)
(1.25612 -0.317286 5.31927e-21)
(1.25146 -0.311438 -1.70107e-21)
(1.24427 -0.303911 5.27319e-21)
(1.23636 -0.295555 2.99276e-21)
(1.22869 -0.286866 4.15228e-21)
(1.22171 -0.278117 -2.88176e-22)
(1.21558 -0.269456 8.21054e-21)
(1.21558 -0.269456 8.21054e-21)
(1.18896 0.217539 -2.037e-21)
(1.16584 0.199541 -7.08915e-23)
(1.15847 0.167914 6.60605e-22)
(1.14925 0.15429 -1.29086e-21)
(1.1424 0.134227 -8.08321e-22)
(1.1373 0.120882 3.13317e-22)
(1.13181 0.107727 -5.95696e-22)
(1.12625 0.0962352 1.76614e-22)
(1.12177 0.0854822 -7.54934e-22)
(1.11856 0.0762024 -2.91743e-22)
(1.11413 0.068184 -5.87312e-22)
(1.10961 0.060174 -7.21525e-22)
(1.10561 0.0524936 -4.35855e-22)
(1.10251 0.0457479 7.61102e-23)
(1.09989 0.0383642 -2.4179e-22)
(1.09819 0.0327683 7.19583e-23)
(1.09472 0.0263168 2.7331e-23)
(1.09335 0.0204492 -4.17213e-22)
(1.09152 0.0142921 -4.26428e-22)
(1.09215 0.008231 -7.45926e-23)
(1.09013 0.00381925 -1.84281e-22)
(1.18201 -0.22068 -1.91874e-21)
(1.16007 -0.202462 -5.62438e-23)
(1.15426 -0.170472 6.6137e-22)
(1.14465 -0.156322 -1.19096e-21)
(1.13932 -0.136471 -7.51266e-22)
(1.13334 -0.123135 3.09105e-22)
(1.12755 -0.109924 -5.58632e-22)
(1.12237 -0.0969265 1.75325e-22)
(1.11896 -0.0874593 -6.96807e-22)
(1.11246 -0.0769096 -2.4642e-22)
(1.11028 -0.0674201 -5.34589e-22)
(1.10528 -0.059926 -6.56215e-22)
(1.10332 -0.0506462 -4.00462e-22)
(1.10078 -0.0446146 7.48783e-23)
(1.0986 -0.037285 -2.28047e-22)
(1.09601 -0.0315744 7.28256e-23)
(1.09356 -0.0251496 2.20219e-23)
(1.09265 -0.019009 -3.99214e-22)
(1.09262 -0.0135208 -4.16473e-22)
(1.09155 -0.00847509 -7.16914e-23)
(1.09023 -0.00280009 -1.79484e-22)
)
;
    }
    procBoundary18to19
    {
        type            processor;
        value           nonuniform List<vector> 
91
(
(0.0295406 -0.00357643 -1.80544e-19)
(0.11995 -0.00619106 8.82975e-20)
(0.239799 0.00501811 -1.49566e-19)
(0.381659 0.0267454 5.28354e-20)
(0.536297 0.0569299 9.03329e-20)
(0.755238 0.113909 -1.78911e-20)
(0.755238 0.113909 -1.78911e-20)
(0.89953 0.154007 -7.62537e-21)
(1.02042 0.190192 2.13192e-19)
(1.1139 0.219703 -2.51462e-20)
(1.1803 0.241343 -1.17563e-19)
(1.2231 0.25529 6.58245e-22)
(1.2547 0.276905 6.11058e-20)
(1.2547 0.276905 6.11058e-20)
(1.26042 0.276916 -1.68043e-20)
(1.25949 0.273825 1.36394e-20)
(1.25502 0.268823 1.07622e-20)
(1.24906 0.262731 -1.59273e-21)
(1.24278 0.256073 -2.41157e-21)
(1.2368 0.249165 -6.52349e-20)
(1.23136 0.24216 -5.85917e-20)
(1.21979 0.240874 2.57131e-20)
(1.21979 0.240874 2.57131e-20)
(1.2152 0.234269 6.21892e-21)
(1.22505 -0.248511 -1.51317e-21)
(1.22017 -0.241024 3.20346e-20)
(1.21558 -0.23444 -7.92172e-22)
(1.23836 -0.272312 1.20752e-19)
(1.25508 -0.276947 -8.48296e-20)
(1.26077 -0.276953 9.71737e-20)
(1.25981 -0.273865 -3.637e-20)
(1.25535 -0.268872 9.25162e-20)
(1.24939 -0.262795 4.2998e-20)
(1.24312 -0.256154 2.54797e-20)
(1.22505 -0.248511 -1.51317e-21)
(1.23715 -0.249268 6.53822e-20)
(0.596596 -0.0740121 1.61532e-19)
(0.755981 -0.114019 -1.0751e-19)
(0.900289 -0.154132 1.83039e-19)
(1.02114 -0.190317 1.16027e-20)
(1.11455 -0.219816 1.62907e-19)
(1.23836 -0.272312 1.20752e-19)
(1.18086 -0.241437 -7.61462e-20)
(0.0295899 0.00358253 -2.0877e-21)
(0.120129 0.00620086 -4.23598e-21)
(0.240128 -0.00502447 2.81596e-20)
(0.596596 -0.0740121 1.61532e-19)
(0.382143 -0.0267801 -9.96739e-20)
(1.10728 0.0448655 -1.28019e-21)
(1.10436 0.037727 -9.17187e-22)
(1.10236 0.0320794 -1.09998e-21)
(1.0989 0.0257351 5.42637e-22)
(1.09739 0.0199818 1.28389e-21)
(1.09551 0.0140813 -1.02453e-21)
(1.09583 0.00808879 1.51951e-21)
(1.09402 0.00357202 4.99131e-22)
(1.20314 0.211564 -3.76474e-21)
(1.17801 0.194189 6.12482e-21)
(1.16816 0.164804 -3.00113e-21)
(1.15775 0.151475 -3.31582e-22)
(1.14981 0.132301 -5.32104e-22)
(1.14375 0.119257 1.24181e-21)
(1.13756 0.106313 1.19886e-21)
(1.13146 0.0950565 -1.73994e-21)
(1.12642 0.084554 1.0113e-21)
(1.12266 0.075369 1.52814e-21)
(1.11794 0.0673107 1.91664e-21)
(1.1132 0.0593944 -2.42195e-22)
(1.109 0.0518189 3.49789e-21)
(1.109 0.0518189 3.49789e-21)
(1.20352 -0.211905 5.43893e-21)
(1.17833 -0.194433 -3.63666e-21)
(1.16878 -0.165687 -1.89063e-21)
(1.15739 -0.152033 2.27082e-21)
(1.15025 -0.133341 1.94405e-22)
(1.14309 -0.120307 -1.23884e-22)
(1.13638 -0.107517 -1.47325e-21)
(1.13029 -0.0951126 -1.07898e-22)
(1.12606 -0.0856382 2.97328e-22)
(1.11924 -0.0755177 -7.29323e-22)
(1.11628 -0.0663278 8.23137e-22)
(1.11104 -0.0589101 1.02035e-23)
(1.10849 -0.0500904 -1.02988e-21)
(1.10553 -0.0440088 -8.29545e-22)
(1.10302 -0.0367918 7.81554e-22)
(1.10026 -0.0310534 -5.75508e-22)
(1.09772 -0.0247844 7.73653e-22)
(1.09656 -0.0188666 3.01121e-23)
(1.09625 -0.0133819 -8.27396e-22)
(1.09516 -0.00826674 4.41201e-22)
(1.09393 -0.00271662 5.95678e-23)
)
;
    }
}


// ************************************************************************* //
