/*--------------------------------*- C++ -*----------------------------------*\
  =========                 |
  \\      /  F ield         | OpenFOAM: The Open Source CFD Toolbox
   \\    /   O peration     | Website:  https://openfoam.org
    \\  /    A nd           | Version:  7
     \\/     M anipulation  |
\*---------------------------------------------------------------------------*/
FoamFile
{
    version     2.0;
    format      ascii;
    class       volScalarField;
    location    "55";
    object      p;
}
// * * * * * * * * * * * * * * * * * * * * * * * * * * * * * * * * * * * * * //

dimensions      [0 2 -2 0 0 0 0];

internalField   nonuniform List<scalar> 
25088
(
-0.31381
-0.315891
-0.317621
-0.318975
-0.32011
-0.321036
-0.321738
-0.322213
-0.322461
-0.322482
-0.322276
-0.321847
-0.321194
-0.320322
-0.319235
-0.317936
-0.316432
-0.314729
-0.312836
-0.31076
-0.308514
-0.306096
-0.303499
-0.30085
-0.314346
-0.316399
-0.318104
-0.319435
-0.320548
-0.321452
-0.322132
-0.322585
-0.322812
-0.322812
-0.322587
-0.322137
-0.321465
-0.320573
-0.319466
-0.318149
-0.316626
-0.314906
-0.312995
-0.310903
-0.308643
-0.306212
-0.303592
-0.30094
-0.315415
-0.317413
-0.319068
-0.320353
-0.321421
-0.322281
-0.322918
-0.323329
-0.323513
-0.323472
-0.323206
-0.322715
-0.322003
-0.321073
-0.319927
-0.318572
-0.317012
-0.315256
-0.31331
-0.311186
-0.308898
-0.30644
-0.303772
-0.301117
-0.317011
-0.318928
-0.320508
-0.321725
-0.322727
-0.323521
-0.324093
-0.324439
-0.324561
-0.324457
-0.32413
-0.323579
-0.322807
-0.321818
-0.320614
-0.319202
-0.317586
-0.315776
-0.313778
-0.311604
-0.309273
-0.306774
-0.304034
-0.301371
-0.319128
-0.320937
-0.322418
-0.323546
-0.324459
-0.325165
-0.325651
-0.325912
-0.32595
-0.325764
-0.325354
-0.324723
-0.323871
-0.322803
-0.321522
-0.320033
-0.318342
-0.316458
-0.314389
-0.312148
-0.309759
-0.307205
-0.304369
-0.30169
-0.321755
-0.323431
-0.32479
-0.325807
-0.326611
-0.327208
-0.327586
-0.327742
-0.327674
-0.327385
-0.326873
-0.32614
-0.325189
-0.324022
-0.322643
-0.321057
-0.319271
-0.317294
-0.315135
-0.312809
-0.310345
-0.307721
-0.304757
-0.302031
-0.324883
-0.326402
-0.327616
-0.328501
-0.329174
-0.329641
-0.329891
-0.329919
-0.329727
-0.329313
-0.328678
-0.327824
-0.326753
-0.325466
-0.323969
-0.322266
-0.320366
-0.318275
-0.316006
-0.313575
-0.311018
-0.308306
-0.305177
-0.302319
-0.328499
-0.329837
-0.330885
-0.331617
-0.332139
-0.332456
-0.332556
-0.332437
-0.332099
-0.331541
-0.330763
-0.329767
-0.328555
-0.327129
-0.325493
-0.323653
-0.321615
-0.319391
-0.31699
-0.314433
-0.311766
-0.308947
-0.305651
-0.302844
-0.33259
-0.333726
-0.334585
-0.335145
-0.335496
-0.335642
-0.335573
-0.335287
-0.334782
-0.334059
-0.333118
-0.33196
-0.330587
-0.329001
-0.327206
-0.325207
-0.323012
-0.320631
-0.318076
-0.315372
-0.312572
-0.309623
-0.306119
-0.303317
-0.337144
-0.338055
-0.338705
-0.339074
-0.339234
-0.33919
-0.338932
-0.338458
-0.337767
-0.33686
-0.335736
-0.334396
-0.332842
-0.331075
-0.329099
-0.32692
-0.324545
-0.321985
-0.319253
-0.316376
-0.313421
-0.31032
-0.30657
-0.303734
-0.342146
-0.342812
-0.343234
-0.343392
-0.343343
-0.343088
-0.342622
-0.341941
-0.341045
-0.339934
-0.338607
-0.337066
-0.335311
-0.333343
-0.331167
-0.328787
-0.32621
-0.323447
-0.320511
-0.317436
-0.314298
-0.311018
-0.306981
-0.304087
-0.347586
-0.347985
-0.348159
-0.348088
-0.34781
-0.347327
-0.346633
-0.345726
-0.344606
-0.343272
-0.341724
-0.339963
-0.337988
-0.335801
-0.333404
-0.330801
-0.327999
-0.325009
-0.321845
-0.318541
-0.315191
-0.3117
-0.307329
-0.304354
-0.353449
-0.353563
-0.353469
-0.353151
-0.352626
-0.351896
-0.350956
-0.349805
-0.348442
-0.346867
-0.34508
-0.343081
-0.340868
-0.338443
-0.335806
-0.332961
-0.329913
-0.326672
-0.32325
-0.319686
-0.31609
-0.312351
-0.30759
-0.304507
-0.359725
-0.359532
-0.359152
-0.358568
-0.357779
-0.356783
-0.355579
-0.354166
-0.352544
-0.350712
-0.348669
-0.346414
-0.343948
-0.341268
-0.338374
-0.335267
-0.331952
-0.328436
-0.324729
-0.320872
-0.31699
-0.312958
-0.307741
-0.304483
-0.366401
-0.36588
-0.365194
-0.364327
-0.363256
-0.361977
-0.360492
-0.358801
-0.356903
-0.354797
-0.352483
-0.349959
-0.347224
-0.344274
-0.341108
-0.337724
-0.334124
-0.33031
-0.32629
-0.322105
-0.317895
-0.313517
-0.307764
-0.304284
-0.373464
-0.372595
-0.371584
-0.370417
-0.369045
-0.367467
-0.365685
-0.3637
-0.361511
-0.359117
-0.356519
-0.353712
-0.350696
-0.347465
-0.344014
-0.34034
-0.336438
-0.332307
-0.327949
-0.323401
-0.318815
-0.314027
-0.307637
-0.303837
-0.380899
-0.379662
-0.378306
-0.376822
-0.375135
-0.373241
-0.371147
-0.368853
-0.366359
-0.363665
-0.36077
-0.357671
-0.354363
-0.350842
-0.347099
-0.343125
-0.338911
-0.33445
-0.329731
-0.324786
-0.319774
-0.3145
-0.307345
-0.303085
-0.388692
-0.387065
-0.385346
-0.383528
-0.381509
-0.379285
-0.376864
-0.374249
-0.371439
-0.368434
-0.365233
-0.361832
-0.358228
-0.354411
-0.350371
-0.346094
-0.341566
-0.336766
-0.331673
-0.326302
-0.320812
-0.314966
-0.306885
-0.301963
-0.396823
-0.394786
-0.392686
-0.390518
-0.388153
-0.385585
-0.382825
-0.379877
-0.37674
-0.373415
-0.369901
-0.366194
-0.362289
-0.358176
-0.353841
-0.349265
-0.344427
-0.339293
-0.333823
-0.328009
-0.321996
-0.315484
-0.306275
-0.300391
-0.405271
-0.402803
-0.400306
-0.397774
-0.39505
-0.392125
-0.389015
-0.385724
-0.382252
-0.378601
-0.374769
-0.370753
-0.366548
-0.362142
-0.357519
-0.352657
-0.347524
-0.342076
-0.336246
-0.329994
-0.323436
-0.316175
-0.305613
-0.298328
-0.414009
-0.411094
-0.408183
-0.405275
-0.40218
-0.398888
-0.395418
-0.391776
-0.387963
-0.38398
-0.379827
-0.375503
-0.371001
-0.366311
-0.361414
-0.356286
-0.350888
-0.345163
-0.339019
-0.332373
-0.325292
-0.317256
-0.305126
-0.29579
-0.423008
-0.41963
-0.416292
-0.412996
-0.409521
-0.405853
-0.402017
-0.398017
-0.393858
-0.389541
-0.385067
-0.380437
-0.375645
-0.370681
-0.36553
-0.360166
-0.354546
-0.348605
-0.342226
-0.335277
-0.327754
-0.318931
-0.304832
-0.292233
-0.432234
-0.42838
-0.424605
-0.420913
-0.417049
-0.413
-0.408791
-0.40443
-0.399922
-0.395269
-0.390476
-0.385543
-0.380468
-0.375246
-0.369864
-0.3643
-0.358518
-0.352451
-0.345974
-0.338916
-0.331161
-0.321557
-0.304711
-0.286411
-0.44165
-0.43731
-0.433091
-0.428997
-0.424739
-0.420304
-0.415719
-0.410995
-0.406136
-0.401148
-0.396036
-0.390805
-0.385457
-0.379989
-0.374399
-0.368676
-0.362801
-0.356732
-0.350388
-0.343654
-0.336383
-0.327192
-0.310361
-0.288896
-0.451215
-0.446385
-0.441715
-0.437216
-0.432563
-0.427739
-0.422777
-0.417689
-0.41248
-0.407158
-0.40173
-0.396205
-0.390587
-0.384884
-0.379102
-0.373246
-0.367327
-0.361357
-0.355362
-0.349432
-0.343703
-0.338061
-0.334156
-0.344271
-0.460888
-0.455564
-0.450443
-0.445538
-0.440489
-0.435277
-0.42994
-0.424489
-0.418932
-0.413277
-0.407536
-0.401717
-0.395832
-0.389894
-0.383919
-0.377928
-0.371955
-0.366053
-0.360326
-0.354971
-0.350208
-0.34635
-0.346947
-0.360016
-0.470625
-0.464807
-0.459237
-0.453928
-0.448485
-0.442889
-0.437179
-0.431368
-0.425466
-0.419482
-0.413427
-0.407316
-0.401162
-0.394983
-0.388802
-0.382651
-0.376577
-0.370656
-0.365016
-0.359874
-0.35541
-0.351928
-0.352864
-0.362559
-0.480378
-0.474072
-0.468056
-0.462347
-0.456517
-0.450541
-0.444463
-0.438299
-0.432056
-0.425745
-0.41938
-0.412975
-0.406547
-0.400117
-0.39371
-0.387366
-0.381136
-0.3751
-0.369387
-0.364193
-0.359636
-0.355943
-0.356155
-0.36257
-0.490102
-0.483313
-0.476859
-0.470758
-0.464546
-0.458198
-0.451761
-0.445249
-0.438671
-0.432038
-0.425365
-0.418665
-0.411957
-0.405263
-0.398609
-0.392034
-0.385589
-0.379348
-0.373426
-0.367979
-0.363058
-0.358806
-0.357867
-0.361284
-0.499749
-0.492485
-0.485601
-0.479116
-0.472533
-0.465823
-0.459035
-0.452184
-0.445278
-0.438329
-0.431349
-0.424354
-0.41736
-0.410387
-0.403462
-0.396619
-0.389903
-0.383375
-0.377129
-0.371275
-0.365804
-0.360782
-0.358527
-0.359273
-0.509266
-0.501538
-0.494234
-0.487377
-0.480433
-0.473372
-0.466244
-0.459064
-0.451839
-0.44458
-0.437297
-0.430004
-0.422717
-0.415452
-0.408231
-0.401084
-0.394044
-0.38716
-0.380496
-0.374125
-0.367985
-0.36209
-0.358497
-0.356905
-0.5186
-0.510419
-0.502707
-0.495489
-0.488198
-0.4808
-0.473345
-0.465847
-0.458313
-0.450749
-0.443167
-0.435575
-0.427987
-0.420415
-0.412876
-0.405389
-0.39798
-0.390677
-0.383524
-0.376555
-0.369675
-0.362866
-0.357965
-0.354305
-0.527692
-0.51907
-0.510964
-0.5034
-0.495777
-0.488055
-0.480287
-0.472484
-0.46465
-0.45679
-0.448911
-0.44102
-0.433123
-0.425229
-0.417348
-0.40949
-0.401669
-0.393898
-0.386198
-0.378575
-0.370913
-0.363179
-0.35702
-0.351504
-0.536478
-0.527429
-0.518944
-0.51105
-0.50311
-0.495081
-0.487015
-0.478921
-0.470799
-0.46265
-0.454477
-0.446284
-0.438071
-0.429841
-0.421596
-0.413338
-0.405068
-0.396786
-0.388494
-0.38018
-0.371713
-0.36306
-0.355697
-0.348504
-0.544889
-0.535429
-0.526582
-0.518375
-0.510136
-0.501817
-0.493469
-0.485098
-0.476699
-0.468269
-0.459807
-0.451309
-0.442772
-0.434192
-0.425562
-0.416876
-0.408125
-0.399297
-0.390381
-0.381348
-0.372067
-0.362511
-0.353998
-0.345285
-0.552849
-0.542996
-0.533806
-0.525304
-0.516786
-0.508196
-0.499584
-0.49095
-0.482286
-0.473583
-0.464834
-0.45603
-0.447162
-0.438217
-0.429184
-0.420045
-0.410785
-0.401382
-0.391815
-0.382047
-0.371953
-0.361515
-0.351907
-0.341814
-0.560276
-0.550051
-0.540539
-0.531763
-0.522987
-0.514146
-0.505287
-0.496407
-0.487489
-0.478521
-0.469488
-0.460377
-0.451169
-0.441848
-0.432391
-0.422779
-0.412986
-0.402985
-0.392749
-0.382238
-0.371336
-0.360042
-0.349393
-0.33805
-0.567082
-0.556508
-0.546697
-0.537671
-0.528658
-0.519588
-0.510502
-0.501391
-0.492233
-0.483008
-0.473695
-0.464273
-0.454719
-0.445008
-0.435113
-0.425008
-0.414662
-0.404045
-0.393127
-0.38187
-0.370174
-0.358051
-0.346416
-0.333944
-0.573173
-0.562276
-0.552193
-0.542941
-0.533717
-0.52444
-0.515147
-0.505823
-0.496437
-0.486963
-0.477373
-0.467639
-0.457732
-0.44762
-0.437272
-0.426657
-0.415742
-0.404496
-0.392891
-0.380892
-0.368417
-0.355496
-0.342931
-0.329444
-0.578449
-0.56726
-0.556934
-0.547484
-0.538074
-0.528614
-0.519136
-0.509616
-0.500016
-0.490301
-0.480437
-0.47039
-0.460123
-0.449601
-0.438787
-0.427649
-0.416153
-0.40427
-0.391976
-0.379244
-0.366012
-0.352328
-0.338888
-0.324493
-0.582808
-0.57136
-0.560824
-0.551204
-0.541637
-0.53202
-0.522379
-0.512681
-0.50288
-0.492934
-0.4828
-0.472438
-0.461807
-0.450866
-0.439577
-0.427906
-0.415821
-0.403298
-0.390319
-0.376868
-0.362904
-0.348493
-0.334235
-0.319037
-0.586142
-0.574474
-0.563763
-0.554006
-0.54431
-0.534564
-0.524783
-0.514926
-0.504938
-0.494769
-0.48437
-0.473694
-0.462694
-0.451328
-0.439556
-0.427346
-0.414669
-0.401507
-0.387853
-0.373702
-0.359038
-0.343939
-0.328922
-0.313017
-0.588343
-0.576496
-0.565648
-0.555788
-0.545996
-0.536148
-0.526252
-0.516256
-0.506096
-0.495714
-0.485055
-0.474065
-0.462695
-0.4509
-0.438641
-0.425889
-0.412622
-0.398828
-0.384513
-0.369688
-0.354357
-0.338615
-0.322899
-0.306382
-0.589301
-0.577321
-0.566378
-0.556451
-0.546596
-0.536676
-0.526689
-0.516574
-0.506257
-0.495673
-0.48476
-0.473459
-0.461719
-0.449494
-0.436748
-0.423456
-0.409604
-0.395192
-0.380237
-0.364767
-0.348809
-0.332471
-0.316118
-0.299079
-0.588908
-0.576843
-0.56585
-0.555894
-0.54601
-0.536049
-0.525997
-0.515784
-0.505328
-0.494553
-0.483393
-0.471785
-0.459677
-0.447025
-0.433795
-0.41997
-0.405545
-0.390533
-0.374965
-0.358885
-0.342345
-0.325463
-0.308536
-0.291063
-0.587056
-0.57496
-0.563962
-0.554017
-0.544141
-0.53417
-0.524081
-0.513792
-0.503211
-0.492259
-0.480861
-0.468954
-0.456483
-0.443409
-0.429703
-0.415356
-0.400376
-0.384789
-0.36864
-0.351993
-0.33492
-0.317548
-0.300114
-0.282292
-0.583643
-0.571569
-0.560616
-0.550723
-0.540892
-0.530944
-0.520845
-0.510502
-0.499817
-0.4887
-0.477075
-0.464877
-0.452053
-0.438566
-0.424398
-0.409547
-0.394035
-0.377903
-0.361213
-0.344044
-0.326493
-0.308692
-0.290819
-0.272731
-0.578569
-0.566576
-0.555717
-0.54592
-0.53617
-0.526279
-0.516199
-0.505826
-0.495054
-0.483789
-0.471951
-0.459474
-0.446308
-0.432423
-0.41781
-0.402479
-0.386465
-0.369825
-0.352638
-0.335001
-0.31703
-0.298863
-0.280621
-0.26235
-0.571742
-0.559889
-0.549177
-0.539518
-0.529889
-0.520089
-0.510056
-0.499678
-0.48884
-0.477443
-0.465407
-0.452666
-0.439175
-0.424912
-0.409876
-0.394094
-0.377614
-0.36051
-0.342877
-0.32483
-0.306504
-0.288038
-0.269499
-0.251125
-0.563077
-0.551424
-0.540913
-0.531436
-0.521967
-0.512291
-0.502335
-0.491977
-0.481095
-0.469587
-0.45737
-0.444384
-0.430589
-0.415971
-0.400543
-0.384344
-0.36744
-0.349921
-0.3319
-0.313505
-0.294892
-0.276199
-0.257437
-0.239039
-0.552498
-0.541108
-0.53085
-0.521599
-0.512329
-0.502812
-0.492963
-0.482651
-0.471748
-0.46015
-0.447774
-0.434565
-0.42049
-0.405547
-0.389761
-0.373187
-0.355908
-0.33803
-0.319682
-0.301008
-0.28218
-0.263333
-0.244424
-0.226081
-0.53994
-0.528875
-0.518924
-0.509942
-0.50091
-0.491587
-0.481875
-0.471636
-0.460737
-0.449072
-0.436562
-0.423156
-0.408831
-0.393597
-0.377493
-0.360592
-0.342991
-0.324816
-0.306207
-0.287327
-0.268359
-0.249435
-0.230457
-0.212244
-0.525348
-0.51467
-0.505078
-0.496409
-0.487653
-0.478559
-0.469015
-0.458876
-0.448007
-0.436302
-0.423685
-0.410112
-0.395572
-0.380087
-0.363712
-0.346535
-0.328673
-0.310265
-0.291469
-0.272457
-0.253429
-0.234507
-0.215537
-0.197527
-0.508681
-0.498451
-0.489271
-0.480956
-0.472514
-0.463682
-0.454337
-0.444328
-0.433518
-0.421801
-0.409107
-0.395402
-0.380685
-0.364993
-0.348398
-0.331004
-0.312945
-0.294375
-0.275466
-0.256402
-0.237393
-0.218553
-0.19967
-0.181937
-0.48991
-0.480188
-0.471469
-0.463551
-0.455459
-0.446923
-0.437808
-0.427959
-0.417236
-0.405539
-0.392803
-0.379004
-0.364153
-0.348304
-0.331545
-0.313996
-0.295808
-0.277151
-0.258207
-0.239171
-0.220263
-0.201588
-0.182871
-0.165487
-0.469022
-0.459865
-0.451656
-0.444173
-0.436467
-0.42826
-0.419407
-0.409748
-0.399144
-0.3875
-0.374759
-0.360907
-0.345972
-0.330019
-0.313156
-0.295519
-0.277275
-0.258607
-0.239708
-0.220782
-0.202056
-0.183626
-0.16516
-0.148196
-0.446018
-0.43748
-0.429827
-0.422817
-0.415531
-0.407685
-0.399125
-0.389687
-0.379236
-0.367681
-0.354976
-0.341117
-0.326147
-0.31015
-0.293247
-0.275592
-0.257366
-0.238765
-0.219992
-0.201256
-0.182793
-0.164689
-0.14655
-0.130039
-0.420913
-0.413045
-0.405992
-0.39949
-0.392657
-0.385204
-0.376967
-0.367783
-0.35752
-0.346093
-0.333465
-0.319649
-0.3047
-0.288719
-0.271844
-0.254244
-0.236113
-0.217659
-0.199092
-0.180627
-0.162504
-0.144801
-0.127044
-0.110911
-0.393737
-0.386589
-0.380175
-0.374215
-0.367866
-0.360836
-0.352954
-0.344057
-0.334016
-0.322758
-0.310255
-0.296533
-0.281664
-0.265764
-0.248986
-0.231515
-0.213558
-0.195331
-0.17705
-0.158934
-0.141229
-0.124004
-0.106686
-0.090899
-0.364539
-0.358153
-0.352416
-0.347028
-0.341192
-0.334614
-0.327118
-0.318541
-0.308762
-0.297714
-0.285385
-0.271813
-0.257085
-0.241332
-0.224724
-0.207458
-0.189752
-0.17183
-0.153914
-0.136225
-0.119013
-0.102324
-0.085508
-0.0705828
-0.333378
-0.327795
-0.322768
-0.317979
-0.312684
-0.306586
-0.299507
-0.291284
-0.281806
-0.271014
-0.258909
-0.245544
-0.231021
-0.215485
-0.19912
-0.182136
-0.164759
-0.14722
-0.129743
-0.112553
-0.0959024
-0.0798137
-0.0635705
-0.0494071
-0.30033
-0.295586
-0.291298
-0.287135
-0.282405
-0.276815
-0.270182
-0.262349
-0.253211
-0.242722
-0.230895
-0.217797
-0.203544
-0.188297
-0.17225
-0.155624
-0.138651
-0.12157
-0.104604
-0.0879784
-0.0719484
-0.0565205
-0.0409029
-0.0274632
-0.265485
-0.26161
-0.258088
-0.254573
-0.250432
-0.245376
-0.23922
-0.231811
-0.223055
-0.212917
-0.201423
-0.188653
-0.174739
-0.159853
-0.144199
-0.128007
-0.111516
-0.0949631
-0.0785741
-0.0625718
-0.0472137
-0.0324932
-0.0175361
-0.00480804
-0.228944
-0.225965
-0.223232
-0.220385
-0.216854
-0.212358
-0.206708
-0.199759
-0.191427
-0.18169
-0.170585
-0.158209
-0.144702
-0.130251
-0.115067
-0.0993857
-0.0834487
-0.0674942
-0.0517436
-0.0364164
-0.0217715
-0.00779018
0.0064905
0.0185343
-0.190823
-0.188762
-0.186836
-0.184675
-0.181775
-0.177862
-0.172747
-0.166294
-0.15843
-0.149143
-0.138487
-0.126568
-0.113541
-0.0995992
-0.0849629
-0.0698692
-0.0545604
-0.0392714
-0.0242172
-0.00961046
0.00429081
0.0175167
0.0311272
0.0425458
-0.151245
-0.150121
-0.14902
-0.147559
-0.145308
-0.142001
-0.13745
-0.131529
-0.124175
-0.115391
-0.105243
-0.0938484
-0.081373
-0.0680174
-0.054007
-0.0395793
-0.0249734
-0.0104175
0.00388357
0.017729
0.0308655
0.0433359
0.0563104
0.0672185
-0.110348
-0.110175
-0.109911
-0.109165
-0.107579
-0.104899
-0.100941
-0.0955863
-0.0887866
-0.0805577
-0.0709767
-0.0601738
-0.0483233
-0.0356322
-0.0223281
-0.00864705
0.00517808
0.0189295
0.0324176
0.0454595
0.0578137
0.0695405
0.0819458
0.0925452
-0.0682755
-0.0690685
-0.0696499
-0.0696288
-0.0687234
-0.0666907
-0.0633515
-0.058599
-0.0523967
-0.0447741
-0.0358202
-0.0256762
-0.0145243
-0.00257648
0.00993889
0.0227895
0.0357507
0.0486188
0.0612239
0.0734086
0.0849534
0.0959447
0.107862
0.118424
-0.0251842
-0.0269489
-0.0283848
-0.029098
-0.0288857
-0.0275195
-0.0248252
-0.0207081
-0.0151453
-0.00817929
8.88111e-05
0.0095079
0.0198883
0.0310142
0.0426573
0.05459
0.0665976
0.078492
0.090127
0.101379
0.112065
0.122308
0.133791
0.144599
0.0187646
0.0160225
0.0137266
0.0122721
0.01178
0.0124628
0.014488
0.0179377
0.022821
0.0290821
0.0366083
0.0452389
0.0547774
0.0650047
0.0756926
0.0866179
0.0975752
0.108391
0.118945
0.129153
0.138899
0.148368
0.159469
0.171144
0.0634003
0.0596775
0.0565188
0.054318
0.0531124
0.0530966
0.0544306
0.0571836
0.0613499
0.0668611
0.0735931
0.0813761
0.0900073
0.0992641
0.108918
0.118747
0.128553
0.138169
0.147487
0.15646
0.165061
0.17356
0.184123
0.197917
0.108545
0.103841
0.0998189
0.096869
0.0949427
0.0942156
0.0948391
0.0968686
0.100284
0.105005
0.110896
0.117779
0.125445
0.133669
0.142219
0.150874
0.159432
0.167721
0.175608
0.183028
0.189962
0.196471
0.204056
0.216988
0.154012
0.14833
0.143447
0.139748
0.137096
0.135647
0.135544
0.136827
0.139463
0.143359
0.148368
0.154307
0.160961
0.168102
0.175497
0.182925
0.190177
0.197063
0.203409
0.209067
0.213874
0.21696
0.215917
0.214342
0.199612
0.192958
0.187218
0.182771
0.179392
0.177214
0.176371
0.176889
0.178721
0.181762
0.185858
0.190817
0.196424
0.202447
0.208659
0.214837
0.220776
0.226286
0.231191
0.235352
0.238648
0.240328
0.238603
0.238553
0.245147
0.237529
0.230941
0.225751
0.221645
0.218734
0.217142
0.216881
0.21789
0.220053
0.22321
0.227164
0.231697
0.236583
0.241594
0.246516
0.251152
0.255323
0.258868
0.261676
0.263661
0.264238
0.262467
0.263859
0.290415
0.281847
0.274421
0.268495
0.263666
0.260022
0.257675
0.256625
0.256797
0.258066
0.260266
0.263196
0.266641
0.270375
0.27418
0.27785
0.281199
0.284062
0.2863
0.287827
0.288576
0.288055
0.285724
0.286963
0.335212
0.32571
0.317461
0.31081
0.305264
0.30089
0.297787
0.295942
0.295269
0.295634
0.296865
0.298761
0.301108
0.303688
0.306288
0.308714
0.310794
0.31238
0.313352
0.313647
0.313221
0.311651
0.308589
0.309062
0.37933
0.368916
0.359862
0.3525
0.346248
0.341149
0.337293
0.334653
0.333131
0.332587
0.332845
0.333703
0.334952
0.336378
0.337781
0.338977
0.339808
0.340143
0.33988
0.338977
0.337405
0.334801
0.33093
0.330422
0.422565
0.411263
0.401425
0.393368
0.386423
0.38061
0.376008
0.372577
0.370209
0.368758
0.368043
0.367867
0.368022
0.368304
0.368522
0.368505
0.368109
0.367218
0.365747
0.363669
0.360969
0.357329
0.352591
0.350999
0.464709
0.452549
0.441952
0.43322
0.425599
0.419086
0.413749
0.409536
0.406331
0.403979
0.4023
0.401099
0.400172
0.399324
0.398374
0.397165
0.395567
0.393476
0.390825
0.387596
0.383784
0.379112
0.373478
0.37075
0.505563
0.492576
0.481249
0.471865
0.463589
0.456393
0.450336
0.445356
0.441325
0.438086
0.435458
0.433246
0.431255
0.429298
0.427206
0.424832
0.422059
0.418799
0.414995
0.410642
0.405741
0.40005
0.393514
0.38963
0.544928
0.531152
0.519125
0.509116
0.500207
0.49235
0.485594
0.479864
0.475027
0.47092
0.467362
0.464163
0.461133
0.458094
0.454888
0.451381
0.447468
0.443072
0.438151
0.432704
0.426743
0.420057
0.412629
0.407592
0.582613
0.568088
0.555396
0.544789
0.535275
0.526782
0.51935
0.512895
0.507275
0.502325
0.497865
0.493707
0.489669
0.485583
0.481299
0.476697
0.471683
0.466193
0.460192
0.453691
0.446704
0.439055
0.430756
0.424585
0.618435
0.603203
0.589883
0.578711
0.56862
0.55952
0.551441
0.544289
0.537916
0.532154
0.526824
0.521743
0.516735
0.511641
0.506324
0.500671
0.494602
0.488063
0.48103
0.473519
0.465549
0.456976
0.447835
0.440562
0.652219
0.636326
0.622417
0.610714
0.60008
0.590405
0.58171
0.573894
0.566802
0.560265
0.554104
0.548142
0.542209
0.536155
0.529853
0.523201
0.51613
0.508594
0.50058
0.492109
0.483206
0.473756
0.463812
0.45548
0.683801
0.667293
0.652838
0.64064
0.629497
0.619283
0.610009
0.601566
0.593795
0.586525
0.579579
0.572783
0.565977
0.559017
0.551785
0.544193
0.536177
0.527704
0.518767
0.509393
0.499612
0.489337
0.478634
0.469296
0.713024
0.695953
0.680996
0.668341
0.656728
0.646012
0.636199
0.627171
0.618766
0.61081
0.603129
0.595555
0.587932
0.580126
0.572028
0.563558
0.554662
0.545316
0.535521
0.525306
0.514709
0.503668
0.492257
0.481975
0.739748
0.722164
0.70675
0.693679
0.681635
0.670459
0.66015
0.650584
0.641593
0.633005
0.624646
0.616353
0.607977
0.599391
0.590495
0.581216
0.571512
0.561364
0.550779
0.539793
0.528445
0.5167
0.504637
0.493483
0.76384
0.745798
0.729974
0.716528
0.704097
0.692505
0.681747
0.671692
0.662169
0.653005
0.64403
0.635083
0.626023
0.616728
0.607108
0.597097
0.586659
0.575784
0.564485
0.552799
0.540773
0.528391
0.515737
0.503788
0.785184
0.766738
0.750552
0.736776
0.724
0.71204
0.700881
0.69039
0.680393
0.670716
0.66119
0.651661
0.64199
0.632064
0.621799
0.611135
0.600045
0.588523
0.576588
0.564281
0.551651
0.538705
0.525523
0.512864
0.803676
0.784882
0.768384
0.754321
0.741248
0.728967
0.71746
0.70659
0.696179
0.686054
0.676049
0.666011
0.655808
0.645333
0.634505
0.623274
0.611616
0.599531
0.587044
0.574197
0.561043
0.547606
0.533966
0.520688
0.819225
0.800139
0.78338
0.769077
0.755753
0.743202
0.731402
0.720211
0.709451
0.698947
0.688537
0.67807
0.667417
0.656477
0.645175
0.633464
0.621327
0.608769
0.595816
0.582514
0.568918
0.555068
0.541041
0.527239
0.831756
0.812436
0.795467
0.780971
0.767445
0.754676
0.742639
0.731188
0.720145
0.709336
0.698597
0.687782
0.676765
0.66545
0.653764
0.641666
0.629142
0.6162
0.602871
0.589202
0.57525
0.561066
0.546726
0.5325
0.841208
0.821712
0.804584
0.789943
0.776265
0.763331
0.751115
0.739468
0.728211
0.71717
0.706182
0.695104
0.683813
0.672212
0.660236
0.647846
0.635029
0.621798
0.608185
0.594238
0.580017
0.565581
0.551005
0.536457
0.847535
0.827921
0.810688
0.795949
0.782169
0.769125
0.756789
0.745011
0.73361
0.722413
0.711259
0.700004
0.688528
0.676737
0.664566
0.65198
0.638967
0.625542
0.611738
0.597605
0.583204
0.568599
0.553865
0.539102
0.850706
0.831033
0.813747
0.79896
0.785129
0.77203
0.759633
0.747788
0.736316
0.72504
0.713803
0.702459
0.690891
0.679004
0.666736
0.654051
0.640939
0.627417
0.613518
0.599292
0.5848
0.57011
0.555297
0.540425
0.850706
0.831033
0.813747
0.79896
0.785129
0.77203
0.759633
0.747788
0.736316
0.72504
0.713803
0.702459
0.690891
0.679004
0.666736
0.654051
0.640939
0.627417
0.613518
0.599292
0.5848
0.57011
0.555297
0.540425
0.847535
0.827921
0.810688
0.795949
0.782169
0.769125
0.756789
0.745011
0.73361
0.722413
0.711259
0.700004
0.688528
0.676737
0.664566
0.65198
0.638967
0.625542
0.611738
0.597605
0.583204
0.568599
0.553865
0.539102
0.841208
0.821712
0.804584
0.789943
0.776265
0.763331
0.751115
0.739468
0.728211
0.71717
0.706182
0.695104
0.683813
0.672212
0.660236
0.647846
0.635029
0.621798
0.608185
0.594238
0.580017
0.565581
0.551005
0.536457
0.831756
0.812436
0.795467
0.780971
0.767445
0.754676
0.742639
0.731188
0.720145
0.709336
0.698597
0.687782
0.676765
0.66545
0.653764
0.641666
0.629142
0.6162
0.602871
0.589202
0.57525
0.561066
0.546726
0.5325
0.819225
0.800139
0.78338
0.769077
0.755753
0.743202
0.731402
0.720211
0.709451
0.698947
0.688537
0.678069
0.667417
0.656477
0.645175
0.633464
0.621327
0.608769
0.595816
0.582514
0.568918
0.555068
0.541041
0.527239
0.803676
0.784882
0.768384
0.754321
0.741248
0.728967
0.71746
0.70659
0.696179
0.686054
0.676049
0.666011
0.655808
0.645333
0.634505
0.623274
0.611616
0.599531
0.587044
0.574197
0.561043
0.547606
0.533966
0.520688
0.785184
0.766738
0.750552
0.736776
0.724
0.71204
0.700881
0.69039
0.680393
0.670716
0.66119
0.651661
0.64199
0.632064
0.621799
0.611135
0.600045
0.588523
0.576588
0.564281
0.551651
0.538705
0.525523
0.512864
0.76384
0.745798
0.729974
0.716528
0.704097
0.692505
0.681747
0.671692
0.662169
0.653005
0.64403
0.635083
0.626023
0.616728
0.607108
0.597097
0.586659
0.575784
0.564485
0.552799
0.540773
0.528391
0.515737
0.503788
0.739748
0.722164
0.70675
0.693679
0.681635
0.670459
0.66015
0.650584
0.641593
0.633005
0.624646
0.616353
0.607977
0.599391
0.590495
0.581216
0.571512
0.561364
0.550779
0.539793
0.528445
0.5167
0.504637
0.493483
0.713024
0.695953
0.680996
0.668341
0.656728
0.646012
0.636199
0.627171
0.618766
0.61081
0.603129
0.595555
0.587932
0.580126
0.572028
0.563558
0.554662
0.545316
0.535521
0.525306
0.514709
0.503668
0.492257
0.481975
0.683801
0.667293
0.652838
0.64064
0.629497
0.619283
0.610009
0.601566
0.593795
0.586525
0.579579
0.572783
0.565977
0.559017
0.551785
0.544193
0.536177
0.527704
0.518767
0.509393
0.499612
0.489337
0.478634
0.469296
0.652219
0.636326
0.622417
0.610714
0.60008
0.590405
0.58171
0.573894
0.566802
0.560265
0.554104
0.548142
0.542209
0.536155
0.529853
0.523201
0.51613
0.508594
0.50058
0.492109
0.483206
0.473756
0.463812
0.45548
0.618435
0.603203
0.589883
0.578711
0.56862
0.55952
0.551441
0.544289
0.537916
0.532154
0.526824
0.521743
0.516735
0.511641
0.506324
0.500671
0.494602
0.488063
0.48103
0.473519
0.465549
0.456976
0.447835
0.440562
0.582613
0.568088
0.555396
0.544789
0.535275
0.526782
0.51935
0.512895
0.507275
0.502325
0.497865
0.493707
0.489669
0.485583
0.481299
0.476697
0.471683
0.466193
0.460192
0.453691
0.446704
0.439055
0.430756
0.424585
0.544928
0.531152
0.519125
0.509116
0.500207
0.49235
0.485594
0.479864
0.475027
0.47092
0.467362
0.464163
0.461133
0.458094
0.454888
0.451381
0.447468
0.443072
0.438151
0.432704
0.426743
0.420057
0.412629
0.407592
0.505563
0.492576
0.481249
0.471865
0.463589
0.456393
0.450336
0.445356
0.441325
0.438086
0.435458
0.433246
0.431255
0.429298
0.427206
0.424832
0.422059
0.418799
0.414995
0.410642
0.405741
0.40005
0.393514
0.38963
0.464709
0.452549
0.441952
0.43322
0.425599
0.419086
0.413749
0.409536
0.406331
0.403979
0.4023
0.401099
0.400172
0.399324
0.398374
0.397165
0.395567
0.393476
0.390825
0.387596
0.383784
0.379112
0.373478
0.37075
0.422565
0.411263
0.401425
0.393368
0.386423
0.38061
0.376008
0.372577
0.370209
0.368758
0.368043
0.367867
0.368022
0.368304
0.368522
0.368505
0.368109
0.367218
0.365747
0.363669
0.360969
0.357329
0.352591
0.350999
0.37933
0.368916
0.359862
0.3525
0.346248
0.341149
0.337293
0.334653
0.333131
0.332587
0.332845
0.333703
0.334952
0.336378
0.337781
0.338977
0.339808
0.340143
0.33988
0.338977
0.337405
0.334801
0.33093
0.330422
0.335212
0.32571
0.317461
0.31081
0.305264
0.30089
0.297787
0.295942
0.295269
0.295634
0.296865
0.298761
0.301108
0.303688
0.306288
0.308714
0.310794
0.31238
0.313352
0.313647
0.313221
0.311651
0.308589
0.309062
0.290415
0.281847
0.274421
0.268495
0.263666
0.260022
0.257675
0.256625
0.256797
0.258066
0.260266
0.263196
0.266641
0.270375
0.27418
0.27785
0.281199
0.284062
0.2863
0.287827
0.288576
0.288055
0.285724
0.286963
0.245147
0.237529
0.230941
0.225751
0.221645
0.218734
0.217142
0.216881
0.21789
0.220053
0.22321
0.227164
0.231697
0.236583
0.241594
0.246516
0.251152
0.255323
0.258868
0.261676
0.263661
0.264238
0.262467
0.263859
0.199612
0.192958
0.187218
0.182771
0.179392
0.177214
0.176371
0.176889
0.178721
0.181762
0.185858
0.190817
0.196424
0.202447
0.208659
0.214837
0.220776
0.226286
0.231191
0.235352
0.238648
0.240328
0.238603
0.238553
0.154012
0.14833
0.143447
0.139748
0.137096
0.135647
0.135544
0.136827
0.139463
0.143359
0.148368
0.154307
0.160961
0.168102
0.175497
0.182925
0.190177
0.197063
0.203409
0.209067
0.213874
0.21696
0.215917
0.214342
0.108545
0.103841
0.0998189
0.096869
0.0949427
0.0942155
0.0948391
0.0968686
0.100284
0.105005
0.110896
0.117779
0.125445
0.133669
0.142219
0.150874
0.159432
0.167721
0.175608
0.183028
0.189962
0.196471
0.204056
0.216988
0.0634003
0.0596775
0.0565187
0.054318
0.0531124
0.0530966
0.0544306
0.0571835
0.0613499
0.0668611
0.0735931
0.0813761
0.0900073
0.0992641
0.108918
0.118747
0.128553
0.138169
0.147487
0.15646
0.165061
0.17356
0.184123
0.197917
0.0187646
0.0160224
0.0137265
0.0122721
0.01178
0.0124628
0.0144879
0.0179377
0.0228209
0.0290821
0.0366082
0.0452389
0.0547774
0.0650047
0.0756926
0.0866179
0.0975752
0.108391
0.118945
0.129153
0.138899
0.148368
0.159469
0.171144
-0.0251842
-0.0269489
-0.0283848
-0.029098
-0.0288857
-0.0275195
-0.0248252
-0.0207081
-0.0151454
-0.00817931
8.87967e-05
0.00950789
0.0198883
0.0310142
0.0426573
0.05459
0.0665976
0.078492
0.0901269
0.101379
0.112065
0.122308
0.133791
0.144599
-0.0682755
-0.0690686
-0.0696499
-0.0696288
-0.0687234
-0.0666908
-0.0633515
-0.058599
-0.0523968
-0.0447741
-0.0358202
-0.0256762
-0.0145243
-0.00257649
0.00993888
0.0227894
0.0357507
0.0486188
0.0612239
0.0734086
0.0849534
0.0959446
0.107862
0.118424
-0.110348
-0.110175
-0.109911
-0.109165
-0.107579
-0.104899
-0.100941
-0.0955863
-0.0887866
-0.0805577
-0.0709767
-0.0601738
-0.0483233
-0.0356322
-0.0223282
-0.00864705
0.00517807
0.0189295
0.0324176
0.0454595
0.0578137
0.0695405
0.0819458
0.0925452
-0.151245
-0.150121
-0.14902
-0.147559
-0.145308
-0.142001
-0.13745
-0.131529
-0.124175
-0.115391
-0.105243
-0.0938484
-0.081373
-0.0680175
-0.054007
-0.0395793
-0.0249734
-0.0104175
0.00388356
0.017729
0.0308655
0.0433359
0.0563104
0.0672185
-0.190823
-0.188762
-0.186836
-0.184675
-0.181775
-0.177862
-0.172747
-0.166294
-0.15843
-0.149143
-0.138487
-0.126568
-0.113541
-0.0995992
-0.0849629
-0.0698692
-0.0545604
-0.0392714
-0.0242172
-0.00961047
0.0042908
0.0175167
0.0311272
0.0425458
-0.228944
-0.225965