/*--------------------------------*- C++ -*----------------------------------*\
  =========                 |
  \\      /  F ield         | OpenFOAM: The Open Source CFD Toolbox
   \\    /   O peration     | Website:  https://openfoam.org
    \\  /    A nd           | Version:  7
     \\/     M anipulation  |
\*---------------------------------------------------------------------------*/
FoamFile
{
    version     2.0;
    format      ascii;
    class       volScalarField;
    location    "40";
    object      p;
}
// * * * * * * * * * * * * * * * * * * * * * * * * * * * * * * * * * * * * * //

dimensions      [0 2 -2 0 0 0 0];

internalField   nonuniform List<scalar> 
183
(
0.112006
0.105427
0.098607
0.0918405
0.0852539
0.0789718
0.0733457
0.0682331
0.0633174
0.0588468
0.0550012
0.0515722
0.0483672
0.0454037
0.0428121
0.0407375
0.0389847
0.037474
0.0363464
0.0356286
0.0352438
0.0991357
0.095613
0.0919611
0.0881489
0.0841906
0.0801523
0.0760645
0.0720696
0.0683066
0.0647279
0.0612851
0.0580703
0.0551844
0.0526358
0.050387
0.0483823
0.0467153
0.0454297
0.0444514
0.0437531
0.0434511
0.11593
0.100577
0.116811
0.100945
0.117565
0.101272
0.11834
0.101593
0.119101
0.101894
0.119833
0.102174
0.129206
0.120538
0.102432
0.129866
0.121212
0.102671
0.130481
0.121854
0.102889
0.131051
0.12246
0.103087
0.131576
0.123022
0.103266
0.132057
0.123578
0.103424
0.132495
0.123983
0.103563
0.132884
0.124462
0.133225
0.124843
0.133521
0.125182
0.13377
0.125467
0.133973
0.125699
0.13413
0.125876
0.134241
0.125996
0.134307
0.12606
0.134322
0.126067
0.134296
0.126019
0.134222
0.125913
0.134101
0.125752
0.133934
0.125536
0.133721
0.125265
0.133461
0.12494
0.133154
0.12457
0.103796
0.132799
0.124118
0.103683
0.132397
0.12372
0.103557
0.131949
0.12318
0.103411
0.131458
0.122635
0.103244
0.130921
0.122046
0.103058
0.130338
0.121421
0.102852
0.12971
0.120764
0.102625
0.120077
0.102378
0.119362
0.10211
0.11862
0.10182
0.117862
0.101511
0.117126
0.101194
0.116264
0.100838
0.112364
0.0994415
0.105879
0.0959238
0.0991458
0.0922727
0.0923015
0.0884877
0.0856599
0.0845175
0.0795669
0.0803497
0.0738435
0.0761895
0.0683972
0.0721986
0.0633974
0.0683682
0.0588322
0.0647568
0.05473
0.0613836
0.0510875
0.0582888
0.0478411
0.055508
0.0451375
0.0529778
0.0429434
0.0506994
0.0410768
0.0487475
0.0394351
0.0471765
0.038139
0.0459145
0.0372568
0.0449221
0.0366352
0.0442766
0.0362287
0.0439955
)
;

boundaryField
{
    inlet
    {
        type            zeroGradient;
    }
    outlet
    {
        type            fixedValue;
        value           nonuniform 0();
    }
    cylinder
    {
        type            zeroGradient;
    }
    top
    {
        type            symmetryPlane;
    }
    bottom
    {
        type            symmetryPlane;
    }
    defaultFaces
    {
        type            empty;
    }
    procBoundary1to0
    {
        type            processor;
        value           nonuniform List<scalar> 
86
(
0.0971435
0.0945121
0.091186
0.0876654
0.0839521
0.0801506
0.0764701
0.0729402
0.0695177
0.0663184
0.0634191
0.0607717
0.0583388
0.0561214
0.0541496
0.0524959
0.0511031
0.049948
0.0490716
0.048506
0.0482059
0.0986852
0.0991134
0.0994821
0.0998607
0.100231
0.100585
0.100924
0.101247
0.101554
0.101843
0.102113
0.102362
0.102591
0.103689
0.103689
0.103799
0.103894
0.103973
0.104037
0.104087
0.104123
0.104147
0.104155
0.104145
0.104123
0.104086
0.104036
0.103959
0.103893
0.103893
0.102864
0.102667
0.102448
0.102207
0.101946
0.101666
0.101368
0.101053
0.100722
0.100376
0.100013
0.0996466
0.09928
0.0988603
0.0973411
0.0947435
0.0914825
0.0879723
0.084259
0.0805565
0.0768761
0.0732239
0.0697865
0.0665373
0.0635384
0.0607968
0.0583004
0.0561287
0.0542813
0.052719
0.0513958
0.0503429
0.0495822
0.0490712
0.0488033
)
;
    }
    procBoundary1to2
    {
        type            processor;
        value           nonuniform List<scalar> 
86
(
0.119794
0.110327
0.100875
0.091858
0.0836201
0.0761937
0.0691822
0.0626121
0.0569012
0.0519207
0.0472453
0.0429122
0.0389974
0.0356493
0.0330214
0.0306742
0.0285999
0.0268083
0.0256924
0.0250772
0.0244139
0.124268
0.125267
0.126107
0.126948
0.127749
0.128501
0.128501
0.171424
0.173775
0.175977
0.178027
0.179921
0.181654
0.183223
0.184627
0.185861
0.186925
0.187816
0.188533
0.189076
0.189442
0.189634
0.189646
0.189485
0.189147
0.188633
0.187945
0.187085
0.186052
0.18485
0.18348
0.181946
0.180249
0.178395
0.176385
0.174226
0.171921
0.129037
0.129037
0.128316
0.127545
0.126735
0.125925
0.124962
0.120653
0.111151
0.101591
0.0927261
0.0844853
0.0765581
0.0691947
0.0625948
0.0564874
0.0510886
0.0462108
0.0419997
0.038623
0.0357821
0.0332597
0.0309998
0.0291234
0.0278468
0.027058
0.0263847
0.0257767
)
;
    }
}


// ************************************************************************* //
