/*--------------------------------*- C++ -*----------------------------------*\
  =========                 |
  \\      /  F ield         | OpenFOAM: The Open Source CFD Toolbox
   \\    /   O peration     | Website:  https://openfoam.org
    \\  /    A nd           | Version:  7
     \\/     M anipulation  |
\*---------------------------------------------------------------------------*/
FoamFile
{
    version     2.0;
    format      ascii;
    class       surfaceScalarField;
    location    "81";
    object      phi;
}
// * * * * * * * * * * * * * * * * * * * * * * * * * * * * * * * * * * * * * //

dimensions      [0 3 -1 0 0 0 0];

internalField   nonuniform List<scalar> 
79480
(
-7.7819e-07
7.42051e-06
-6.64232e-06
-2.99745e-06
2.25804e-05
-2.03612e-05
-6.61001e-06
3.85388e-05
-3.49263e-05
-1.15701e-05
5.51333e-05
-5.01732e-05
-1.78322e-05
7.21815e-05
-6.59194e-05
-2.53501e-05
8.95044e-05
-8.19865e-05
-3.40757e-05
0.000106938
-9.82118e-05
-4.39585e-05
0.000124344
-0.000114461
-5.49439e-05
0.000141626
-0.000130641
-6.69729e-05
0.000158739
-0.00014671
-7.99817e-05
0.000175695
-0.000162686
-9.39011e-05
0.000192571
-0.000178652
-0.000108657
0.000209503
-0.000194747
-0.000124171
0.000226682
-0.000211168
-0.000140361
0.000244339
-0.000228149
-0.000157142
0.000262735
-0.000245954
-0.000174428
0.000282144
-0.000264857
-0.000192135
0.000302832
-0.000285126
-0.000210178
0.000325049
-0.000307006
-0.000228483
0.000349013
-0.000330709
-0.00024698
0.000374902
-0.000356405
-0.000265614
0.000402851
-0.000384217
-0.000284351
0.000432949
-0.000414213
-0.000303179
0.000465241
-0.000446414
-0.000322121
0.000499732
-0.00048079
-0.000341241
0.000536386
-0.000517266
-0.000360649
0.000575125
-0.000555717
-0.000380501
0.000615817
-0.000595965
-0.000401005
0.000658248
-0.000637744
0.000702176
-0.000680692
-0.000422489
-7.01215e-07
8.12172e-06
-2.70865e-06
2.45879e-05
-5.98637e-06
4.18165e-05
-1.04997e-05
5.96466e-05
-1.62136e-05
7.78954e-05
-2.30912e-05
9.6382e-05
-3.10929e-05
0.000114939
-4.01749e-05
0.000133426
-5.02882e-05
0.000151739
-6.13772e-05
0.000169828
-7.33795e-05
0.000187697
-8.62251e-05
0.000205417
-9.98367e-05
0.000223115
-0.00011413
0.000240975
-0.000129015
0.000259223
-0.000144396
0.000278116
-0.000160175
0.000297923
-0.000176253
0.000318909
-0.000192529
0.000341326
-0.000208907
0.000365392
-0.000225299
0.000391294
-0.000241622
0.000419175
-0.000257812
0.000449139
-0.000273822
0.000481251
-0.000289631
0.000515542
-0.000305253
0.000552008
-0.000320744
0.000590616
-0.000336205
0.000631278
-0.000351793
0.000673837
0.000718188
-0.000367805
-6.20021e-07
8.74174e-06
-2.40336e-06
2.63712e-05
-5.32582e-06
4.4739e-05
-9.3636e-06
6.36844e-05
-1.44916e-05
8.30234e-05
-2.06823e-05
0.000102573
-2.79039e-05
0.000122161
-3.61193e-05
0.000141641
-4.52844e-05
0.000160904
-5.53468e-05
0.00017989
-6.62451e-05
0.000198596
-7.79083e-05
0.00021708
-9.02551e-05
0.000235462
-0.000103195
0.000253915
-0.000116629
0.000272657
-0.00013045
0.000291937
-0.000144545
0.000312018
-0.000158796
0.000333161
-0.000173086
0.000355615
-0.000187293
0.000379599
-0.0002013
0.000405301
-0.000214994
0.000432869
-0.000228271
0.000462416
-0.000241038
0.000494018
-0.000253221
0.000527724
-0.000264771
0.000563558
-0.000275676
0.000601521
-0.000285972
0.000641574
-0.000295753
0.000683617
0.000727701
-0.000305266
-5.36063e-07
9.2778e-06
-2.08689e-06
2.7922e-05
-4.63946e-06
4.72916e-05
-8.18024e-06
6.72252e-05
-1.26936e-05
8.75367e-05
-1.81602e-05
0.000108039
-2.45559e-05
0.000128556
-3.18493e-05
0.000148935
-4.00009e-05
0.000169056
-4.89611e-05
0.00018885
-5.86691e-05
0.000208304
-6.90521e-05
0.000227463
-8.00248e-05
0.000246435
-9.14897e-05
0.00026538
-0.000103338
0.000284505
-0.000115449
0.000304048
-0.000127695
0.000324264
-0.000139939
0.000345405
-0.000152038
0.000367714
-0.000163846
0.000391407
-0.000175212
0.000416667
-0.000185985
0.000443642
-0.000196015
0.000472446
-0.000205155
0.000503158
-0.000213267
0.000535836
-0.000220228
0.000570519
-0.000225947
0.00060724
-0.000230384
0.000646011
-0.000233556
0.000686789
0.000729783
-0.000235638
-4.50843e-07
9.72865e-06
-1.7647e-06
2.92359e-05
-3.93886e-06
4.94657e-05
-6.96901e-06
7.02553e-05
-1.08479e-05
9.14156e-05
-1.55637e-05
0.000112755
-2.10985e-05
0.000134091
-2.74262e-05
0.000155262
-3.45109e-05
0.000176141
-4.23052e-05
0.000196644
-5.07483e-05
0.000216747
-5.97654e-05
0.00023648
-6.92666e-05
0.000255936
-7.9147e-05
0.00027526
-8.92871e-05
0.000294645
-9.95533e-05
0.000314315
-0.0001098
0.00033451
-0.000119868
0.000355474
-0.000129592
0.000377438
-0.000138793
0.000400608
-0.000147285
0.000425159
-0.000154875
0.000451232
-0.000161361
0.000478931
-0.000166535
0.000508332
-0.000170187
0.000539488
-0.000172112
0.000572445
-0.000172128
0.000607256
-0.000170108
0.00064399
-0.000165991
0.000682673
0.000723595
-0.000159803
-3.65882e-07
1.00945e-05
-1.44239e-06
3.03124e-05
-3.23583e-06
5.12592e-05
-5.74978e-06
7.27693e-05
-8.98402e-06
9.46498e-05
-1.29329e-05
0.000116704
-1.75835e-05
0.000138742
-2.2914e-05
0.000160593
-2.88911e-05
0.000182118
-3.54687e-05
0.000203222
-4.25855e-05
0.000223864
-5.01642e-05
0.000244059
-5.81097e-05
0.000263881
-6.63094e-05
0.00028346
-7.46328e-05
0.000302969
-8.29322e-05
0.000322614
-9.10433e-05
0.000342621
-9.87867e-05
0.000363217
-0.000105968
0.000384618
-0.000112377
0.000407017
-0.00011779
0.000430573
-0.000121967
0.00045541
-0.000124652
0.000481616
-0.000125572
0.000509252
-0.000124439
0.000538355
-0.000120958
0.000568964
-0.000114845
0.000601143
-0.000105874
0.000635019
-9.39566e-05
0.000670755
0.000708431
-7.87931e-05
-2.82695e-07
1.03772e-05
-1.12555e-06
3.11552e-05
-2.54227e-06
5.26759e-05
-4.54268e-06
7.47697e-05
-7.13193e-06
9.72391e-05
-1.03089e-05
0.000119881
-1.40643e-05
0.000142497
-1.83789e-05
0.000164907
-2.32212e-05
0.00018696
-2.85452e-05
0.000208546
-3.42885e-05
0.000229607
-4.03704e-05
0.000250141
-4.66904e-05
0.000270201
-5.31277e-05
0.000289897
-5.95407e-05
0.000309382
-6.57671e-05
0.00032884
-7.16241e-05
0.000348478
-7.69096e-05
0.000368503
-8.14013e-05
0.00038911
-8.4857e-05
0.000410473
-8.7013e-05
0.000432729
-8.75823e-05
0.000455979
-8.6252e-05
0.000480286
-8.26814e-05
0.000505681
-7.6502e-05
0.000532176
-6.73248e-05
0.000559787
-5.47567e-05
0.000588575
-3.8429e-05
0.000618692
-1.81159e-05
0.000650442
0.000685001
5.31412e-06
-2.0277e-07
1.058e-05
-8.1969e-07
3.17722e-05
-1.86999e-06
5.37262e-05
-3.36779e-06
7.62675e-05
-5.32165e-06
9.9193e-05
-7.73307e-06
0.000122292
-1.05947e-05
0.000145359
-1.38884e-05
0.000168201
-1.75828e-05
0.000190654
-2.16311e-05
0.000212594
-2.59686e-05
0.000233945
-3.05107e-05
0.000254683
-3.51509e-05
0.000274842
-3.976e-05
0.000294506
-4.41849e-05
0.000313807
-4.82486e-05
0.000332904
-5.17501e-05
0.00035198
-5.44641e-05
0.000371217
-5.6141e-05
0.000390787
-5.65056e-05
0.000410837
-5.52547e-05
0.000431478
-5.20542e-05
0.000452778
-4.65351e-05
0.000474767
-3.82888e-05
0.000497435
-2.68653e-05
0.000520752
-1.17775e-05
0.000544699
7.47891e-06
0.000569319
3.13754e-05
0.000594795
6.02241e-05
0.000621593
0.000651136
9.40894e-05
-1.27548e-07
1.07075e-05
-5.30175e-07
3.21748e-05
-1.23049e-06
5.44265e-05
-2.24474e-06
7.72817e-05
-3.58271e-06
0.000100531
-5.24645e-06
0.000123956
-7.22852e-06
0.000147341
-9.51e-06
0.000170482
-1.20582e-05
0.000193202
-1.4824e-05
0.00021536
-1.77393e-05
0.00023686
-2.07148e-05
0.000257658
-2.36376e-05
0.000277764
-2.63693e-05
0.000297238
-2.87456e-05
0.000316183
-3.05747e-05
0.000334733
-3.16373e-05
0.000353042
-3.16857e-05
0.000371265
-3.04433e-05
0.000389545
-2.76023e-05
0.000407996
-2.28213e-05
0.000426697
-1.57206e-05
0.000445678
-5.87648e-06
0.000464923
7.18477e-06
0.000484373
2.39928e-05
0.000503944
4.51326e-05
0.000523559
7.12275e-05
0.000543224
0.000102874
0.000563148
0.000140512
0.000583956
0.000607469
0.000184179
-5.84271e-08
1.0766e-05
-2.62065e-07
3.23784e-05
-6.34793e-07
5.47992e-05
-1.19242e-06
7.78394e-05
-1.94366e-06
0.000101282
-2.88882e-06
0.000124901
-4.01815e-06
0.00014847
-5.31004e-06
0.000171774
-6.72855e-06
0.000194621
-8.2208e-06
0.000216852
-9.71412e-06
0.000238353
-1.11133e-05
0.000259057
-1.22982e-05
0.000278949
-1.31213e-05
0.000298061
-1.34064e-05
0.000316468
-1.29473e-05
0.000334274
-1.15066e-05
0.000351601
-8.81485e-06
0.000368573
-4.56896e-06
0.000385299
1.56987e-06
0.000401857
9.97981e-06
0.000418287
2.10839e-05
0.000434574
3.53571e-05
0.00045065
5.3335e-05
0.000466396
7.56227e-05
0.000481657
0.0001029
0.000496282
0.00013591
0.000510214
0.000175394
0.000523664
0.000221936
0.000537414
0.000553828
0.000275576
3.53449e-09
1.07624e-05
-2.03524e-08
3.24023e-05
-9.32081e-08
5.48721e-05
-2.2853e-07
7.79747e-05
-4.31404e-07
0.000101485
-6.97879e-07
0.000125168
-1.01364e-06
0.000148786
-1.35219e-06
0.000172113
-1.67242e-06
0.000194941
-1.91595e-06
0.000217096
-2.004e-06
0.000238441
-1.83446e-06
0.000258888
-1.27891e-06
0.000278394
-1.80167e-07
0.000296963
1.64971e-06
0.000314638
4.43185e-06
0.000331492
8.42129e-06
0.000347612
1.39088e-05
0.000363086
2.12227e-05
0.000377985
3.07317e-05
0.000392348
4.2849e-05
0.000406169
5.80381e-05
0.000419384
7.68217e-05
0.000431866
9.97919e-05
0.000443425
0.000127624
0.000453825
0.000161086
0.00046282
0.000201039
0.00047026
0.000248381
0.000476323
0.000303861
0.000481934
0.000490103
0.000367586
5.68646e-08
1.07056e-05
1.91272e-07
3.22679e-05
3.85143e-07
5.46782e-05
6.30852e-07
7.7729e-05
9.29487e-07
0.000101186
1.29167e-06
0.000124806
1.73871e-06
0.000148339
2.30425e-06
0.000171547
3.03661e-06
0.000194209
4.00158e-06
0.000216131
5.28561e-06
0.000237157
6.99909e-06
0.000257174
9.2796e-06
0.000276113
1.22949e-05
0.000293947
1.62456e-05
0.000310687
2.13673e-05
0.00032637
2.79326e-05
0.000341047
3.62533e-05
0.000354765
4.66825e-05
0.000367556
5.96176e-05
0.000379413
7.5505e-05
0.000390282
9.48466e-05
0.000400043
0.000118209
0.000408504
0.000146237
0.000415398
0.000179667
0.000420394
0.00021935
0.000423137
0.00026626
0.00042335
0.000321455
0.000421128
0.000385887
0.000417502
0.000416185
0.000459805
1.00843e-07
1.06047e-05
3.68547e-07
3.20002e-05
7.92037e-07
5.42547e-05
1.3717e-06
7.71493e-05
2.1175e-06
0.000100441
3.04932e-06
0.000123874
4.19792e-06
0.000147191
5.60639e-06
0.000170139
7.33245e-06
0.000192483
9.45124e-06
0.000214012
1.20587e-05
0.00023455
1.5275e-05
0.000253958
1.92481e-05
0.00027214
2.41575e-05
0.000289038
3.02169e-05
0.000304628
3.76772e-05
0.00031891
4.68288e-05
0.000331895
5.80047e-05
0.000343589
7.15822e-05
0.000353978
8.79873e-05
0.000363008
0.000107699
0.00037057
0.000131256
0.000376486
0.000159267
0.000380493
0.000192424
0.000382241
0.000231523
0.000381296
0.000277486
0.000377174
0.000331392
0.000369443
0.000394465
0.000358055
0.000467893
0.000344074
0.000331894
0.000552184
1.3459e-07
1.04701e-05
5.08706e-07
3.16261e-05
1.12098e-06
5.36425e-05
1.9826e-06
7.62877e-05
3.11501e-06
9.93082e-05
4.5499e-06
0.000122439
6.3299e-06
0.000145411
8.5099e-06
0.000167959
1.11592e-05
0.000189834
1.43644e-05
0.000210807
1.82328e-05
0.000230681
2.2896e-05
0.000249295
2.85143e-05
0.000266522
3.52797e-05
0.000282273
4.34204e-05
0.000296487
5.32035e-05
0.000309127
6.49384e-05
0.00032016
7.89795e-05
0.000329548
9.57297e-05
0.000337228
0.000115644
0.000343094
0.000139235
0.00034698
0.000167078
0.000348642
0.000199824
0.000347746
0.000238214
0.000343852
0.000283095
0.000336415
0.000335459
0.00032481
0.000396481
0.000308421
0.000467545
0.000286991
0.000550103
0.000261515
0.000236904
0.000645093
1.57528e-07
1.03126e-05
6.09559e-07
3.11741e-05
1.36725e-06
5.28848e-05
2.45528e-06
7.51996e-05
3.90916e-06
9.78543e-05
5.77486e-06
0.000120573
8.1093e-06
0.000143076
1.09815e-05
0.000165087
1.44745e-05
0.00018634
1.86885e-05
0.000206593
2.37442e-05
0.000225626
2.97868e-05
0.000243252
3.69902e-05
0.000259318
4.55614e-05
0.000273701
5.57444e-05
0.000286304
6.78243e-05
0.000297047
8.21308e-05
0.000305854
9.90422e-05
0.000312637
0.000118988
0.000317282
0.000142456
0.000319626
0.000169994
0.000319442
0.000202218
0.000316418
0.000239825
0.000310139
0.000283606
0.000300071
0.000334464
0.000285556
0.000393457
0.000265817
0.000461848
0.000240031
0.000541173
0.000207666
0.000633161
0.000169527
0.000130679
0.000739387
1.69329e-07
1.01433e-05
6.69919e-07
3.06735e-05
1.52827e-06
5.20264e-05
2.78523e-06
7.39427e-05
4.49282e-06
9.61467e-05
6.71373e-06
0.000118352
9.52147e-06
0.000140268
1.30014e-05
0.000161607
1.72526e-05
0.000182089
2.23912e-05
0.000201454
2.85534e-05
0.000219464
3.59e-05
0.000235906
4.46212e-05
0.000250597
5.49409e-05
0.000263382
6.71214e-05
0.000274124
8.14683e-05
0.0002827
9.83347e-05
0.000288987
0.000118126
0.000292846
0.000141302
0.000294105
0.000168387
0.000292541
0.00019997
0.000287859
0.000236715
0.000279672
0.000279373
0.000267481
0.000328792
0.000250653
0.000385941
0.000228407
0.000451946
0.000199812
0.000528153
0.000163824
0.000616239
0.000119579
0.000718184
6.75828e-05
1.24103e-05
0.000836452
1.69962e-07
9.97332e-06
6.89735e-07
3.01537e-05
1.60399e-06
5.11122e-05
2.97226e-06
7.25744e-05
4.86554e-06
9.42535e-05
7.36549e-06
0.000115852
1.05644e-05
0.000137069
1.45663e-05
0.000157605
1.94886e-05
0.000177167
2.54653e-05
0.000195478
3.26508e-05
0.000212278
4.12244e-05
0.000227332
5.13947e-05
0.000240427
6.34058e-05
0.000251371
7.75416e-05
0.000259988
9.4132e-05
0.00026611
0.000113558
0.000269562
0.000136255
0.000270149
0.000162723
0.000267638
0.000193526
0.000261737
0.000229307
0.000252079
0.000270786
0.000238193
0.000318779
0.000219488
0.000374208
0.000195224
0.000438121
0.000164494
0.000511723
0.00012621
0.000596443
7.91046e-05
0.000694077
2.19454e-05
0.000806787
-4.5128e-05
-0.000118997
0.000938194
1.59728e-07
9.81359e-06
6.70248e-07
2.96432e-05
1.59717e-06
5.01852e-05
3.02117e-06
7.11504e-05
5.03449e-06
9.22401e-05
7.73994e-06
0.000113147
1.12508e-05
0.000133559
1.56918e-05
0.000153164
2.12011e-05
0.000171658
2.79332e-05
0.000188745
3.60634e-05
0.000204148
4.57919e-05
0.000217604
5.735e-05
0.000228869
7.10053e-05
0.000237715
8.70681e-05
0.000243925
0.000105897
0.00024728
0.000127908
0.000247552
0.000153574
0.000244482
0.000183441
0.00023777
0.000218129
0.00022705
0.000258339
0.000211869
0.000304867
0.000191665
0.000358611
0.000165744
0.000420584
0.00013325
0.000491933
9.31456e-05
0.000573958
4.41838e-05
0.00066817
-1.51072e-05
0.000776461
-8.63452e-05
0.000901051
-0.000169718
-0.000264867
0.00104692
1.39313e-07
9.67428e-06
6.14139e-07
2.91684e-05
1.51371e-06
4.92857e-05
2.94222e-06
6.97219e-05
5.01531e-06
9.01671e-05
7.85903e-06
0.000110303
1.16098e-05
0.000129808
1.64152e-05
0.000148358
2.24365e-05
0.000165636
2.98515e-05
0.00018133
3.88594e-05
0.00019514
4.96855e-05
0.000206777
6.25875e-05
0.000215967
7.78617e-05
0.000222441
9.58505e-05
0.000225936
0.000116949
0.000226182
0.000141614
0.000222887
0.00017037
0.000215726
0.000203817
0.000204323
0.000242643
0.000188224
0.000287628
0.000166884
0.000339659
0.000139635
0.000399734
0.000105669
0.000468979
6.40048e-05
0.000548659
1.34658e-05
0.000640188
-4.73453e-05
0.000745154
-0.000120073
0.000865505
-0.000206696
0.00100334
-0.000307554
-0.00042662
0.00116509
1.09815e-07
9.56446e-06
5.25652e-07
2.87525e-05
1.36295e-06
4.84484e-05
2.75163e-06
6.83332e-05
4.83278e-06
8.80859e-05
7.75773e-06
0.000107378
1.1688e-05
0.000125877
1.67967e-05
0.00014325
2.32706e-05
0.000159162
3.13142e-05
0.000173287
4.1154e-05
0.0001853
5.30448e-05
0.000194887
6.72762e-05
0.000201735
8.41797e-05
0.000205538
0.000104137
0.000205979
0.00012759
0.000202729
0.000155045
0.000195431
0.00018709
0.000183682
0.000224397
0.000167016
0.000267735
0.000144886
0.000317983
0.000116636
0.000376133
8.14843e-05
0.000443309
3.8493e-05
0.000520766
-1.34516e-05
0.000609898
-7.56664e-05
0.000712237
-0.000149685
0.000829436
-0.000237272
0.000963438
-0.000340698
0.00111601
-0.000460125
-0.000605511
0.0012949
7.27765e-08
9.49168e-06
4.10668e-07
2.84146e-05
1.15775e-06
4.77013e-05
2.47173e-06
6.70192e-05
4.52116e-06
8.60365e-05
7.48464e-06
0.000104415
1.15511e-05
0.000121811
1.69214e-05
0.00013788
2.38112e-05
0.000152273
3.24549e-05
0.000164643
4.31113e-05
0.000174644
5.60699e-05
0.000181928
7.16588e-05
0.000186147
9.02526e-05
0.000186944
0.000112282
0.000183949
0.000138245
0.000176766
0.000168715
0.000164961
0.000204354
0.000148043
0.000245921
0.000125448
0.000294289
9.6518e-05
0.000350448
6.04773e-05
0.000415519
1.64131e-05
0.000490759
-3.67469e-05
0.000577561
-0.000100253
0.000677444
-0.00017555
0.000792042
-0.000264282
0.000923028
-0.000368258
0.00107224
-0.000489914
0.00124092
-0.000628798
-0.000802284
0.00143769
3.02089e-08
9.46148e-06
2.76704e-07
2.81681e-05
9.14471e-07
4.70635e-05
2.13097e-06
6.58027e-05
4.12411e-06
8.40433e-05
7.1018e-06
0.000101437
1.12828e-05
0.00011763
1.68986e-05
0.000132264
2.4197e-05
0.000144974
3.34471e-05
0.000155393
4.49451e-05
0.000163146
5.9022e-05
0.000167851
7.6052e-05
0.000169117
9.64626e-05
0.000166533
0.000120745
0.000159666
0.000149466
0.000148045
0.000183279
0.000131148
0.000222939
0.000108384
0.000269309
7.90779e-05
0.000323379
4.24485e-05
0.000386267
-2.4106e-06
0.00045923
-5.65504e-05
0.000543661
-0.000121177
0.000641075
-0.000197667
0.000753089
-0.000287564
0.000881374
-0.000392567
0.00102755
-0.000514437
0.00119321
-0.000655572
0.0013789
-0.000814484
-0.00101676
0.00159338
-1.5607e-08
9.47708e-06
1.32765e-07
2.80198e-05
6.52802e-07
4.65435e-05
1.7635e-06
6.4692e-05
3.69403e-06
8.21128e-05
6.68386e-06
9.84472e-05
1.09841e-05
0.00011333
1.68603e-05
0.000126388
2.45967e-05
0.000137238
3.45019e-05
0.000145488
4.69159e-05
0.000150732
6.2219e-05
0.000152548
8.0841e-05
0.000150495
0.000103273
0.000144101
0.00013008
0.00013286
0.000161911
0.000116214
0.000199515
9.35432e-05
0.000243754
6.41449e-05
0.000295611
2.72206e-05
0.000356203
-1.81436e-05
0.000426783
-7.29907e-05
0.000508738
-0.000138505
0.000603575
-0.000216014
0.000712893
-0.000306985
0.000838331
-0.000413002
0.000981494
-0.00053573
0.00114383
-0.000676776
0.00132646
-0.000838202
0.00152924
-0.00101726
-0.00124748
0.00175996
-6.16452e-08
9.53873e-06
-1.04851e-08
2.79686e-05
3.95253e-07
4.61377e-05
1.4083e-06
6.3679e-05
3.29083e-06
8.02303e-05
6.31618e-06
9.54218e-05
1.07709e-05
0.000108875
1.69583e-05
0.0001202
2.52039e-05
0.000128992
3.58618e-05
0.00013483
4.93232e-05
0.00013727
6.60264e-05
0.000135845
8.64676e-05
0.000130053
0.000111213
0.000119355
0.000140914
0.000103159
0.000176317
8.08115e-05
0.00021828
5.15801e-05
0.000267783
1.46415e-05
0.000325938
-3.09343e-05
0.00039399
-8.61956e-05
0.000473316
-0.000152316
0.000565405
-0.000230595
0.000671833
-0.000322442
0.000794201
-0.000429353
0.00093406
-0.000552861
0.00109279
-0.000694465
0.00127152
-0.000855501
0.00147062
-0.0010373
0.00168941
-0.00123605
-0.0014914
0.00193334
-1.05055e-07
9.64378e-06
-1.42203e-07
2.80057e-05
1.6617e-07
4.58294e-05
1.10798e-06
6.27372e-05
2.97991e-06
7.83583e-05
6.09204e-06
9.23097e-05
1.07698e-05
0.000104197
1.73586e-05
0.000113611
2.62306e-05
0.00012012
3.77923e-05
0.000123268
5.24944e-05
0.000122568
7.08425e-05
0.000117497
9.341e-05
0.000107486
0.000120851
9.19145e-05
0.000153914
7.00966e-05
0.000193455
4.12701e-05
0.000240451
4.58384e-06
0.000296007
-4.09139e-05
0.000361357
-9.62842e-05
0.000437862
-0.000162701
0.00052699
-0.000241445
0.000630282
-0.000333887
0.000749295
-0.000441455
0.00088552
-0.000565578
0.00104027
-0.000707608
0.00121451
-0.000868711
0.00140884
-0.00104983
0.00162267
-0.00125113
0.00185505
-0.00146844
-0.00174392
0.00210757
-1.42503e-07
9.78629e-06
-2.49717e-07
2.8113e-05
-6.80041e-09
4.55864e-05
9.07271e-07
6.18231e-05
2.82958e-06
7.6436e-05
6.10894e-06
8.90303e-05
1.11131e-05
9.91932e-05
1.82346e-05
0.00010649
2.78982e-05
0.000110457
4.05701e-05
0.000110596
5.6769e-05
0.000106369
7.70778e-05
9.71879e-05
0.000102157
8.24064e-05
0.00013276
6.13122e-05
0.000169741
3.31149e-05
0.000214075
-3.0636e-06
0.000266857
-4.81986e-05
0.000329311
-0.000103368
0.000402778
-0.000169751
0.000488698
-0.000248621
0.000588575
-0.000341321
0.000703914
-0.000449226
0.000836141
-0.000573681
0.000986486
-0.000715923
0.00115585
-0.000876968
0.0013446
-0.00105746
0.00155258
-0.00125782
0.00177811
-0.00147666
0.00202034
-0.00171067
-0.00199897
0.0022754
-1.70946e-07
9.95723e-06
-3.22281e-07
2.82643e-05
-1.02654e-07
4.53668e-05
8.49576e-07
6.08709e-05
2.90785e-06
7.43778e-05
6.46408e-06
8.54741e-05
1.19329e-05
9.37244e-05
1.97591e-05
9.86636e-05
3.04265e-05
9.97893e-05
4.44687e-05
9.65541e-05
6.24806e-05
8.83575e-05
8.51313e-05
7.45371e-05
0.000113178
5.43596e-05
0.000147479
2.70117e-05
0.000189002
-8.40874e-06
0.000238838
-5.2899e-05
0.000298193
-0.000107554
0.00036839
-0.000173564
0.000450838
-0.000252199
0.000547
-0.000344783
0.00065833
-0.000452651
0.000786187
-0.000577083
0.000931723
-0.000719217
0.00109574
-0.000879943
0.00127855
-0.00105977
0.00147976
-0.00125867
0.00169828
-0.00147633
0.00193141
-0.00170979
0.00217855
-0.0019578
-0.00224956
0.00242913
-1.87215e-07
1.01444e-05
-3.47789e-07
2.84249e-05
-9.26635e-08
4.51117e-05
9.77801e-07
5.98004e-05
3.27945e-06
7.20761e-05
7.24968e-06
8.15039e-05
1.33541e-05
8.762e-05
2.20951e-05
8.99226e-05
3.40221e-05
8.78623e-05
4.97429e-05
8.08333e-05
6.99362e-05
6.81642e-05
9.53649e-05
4.91084e-05
0.000126888
2.28364e-05
0.000165472
-1.15724e-05
0.000212197
-5.51335e-05
0.000268256
-0.000108958
0.000334949
-0.000174247
0.000413657
-0.000252272
0.000505801
-0.000344344
0.000612786
-0.000451768
0.000735909
-0.000575774
0.000876248
-0.000717422
0.00103453
-0.000877498
0.00121097
-0.00105639
0.00140513
-0.00125394
0.00161577
-0.00146931
0.00184073
-0.00170129
0.00207665
-0.00194572
0.00232273
-0.00220388
-0.00248826
0.00256142
-1.88654e-07
1.03331e-05
-3.16528e-07
2.85527e-05
4.30909e-08
4.47521e-05
1.32922e-06
5.85143e-05
4.00215e-06
6.94032e-05
8.54815e-06
7.69579e-05
1.54881e-05
8.068e-05
2.53873e-05
8.00234e-05
3.88664e-05
7.43831e-05
5.66138e-05
6.3086e-05
7.93977e-05
4.53802e-05
0.000108079
2.04274e-05
0.00014362
-1.27044e-05
0.000187091
-5.5044e-05
0.000239673
-0.000107715
0.000302642
-0.000171927
0.00037735
-0.000248955
0.000465183
-0.000340105
0.000567498
-0.000446659
0.00068554
-0.00056981
0.000820324
-0.000710558
0.000972509
-0.000869607
0.00114225
-0.00104724
0.00132904
-0.00124318
0.00153161
-0.0014565
0.00174783
-0.00168554
0.00197458
-0.00192804
0.00220831
-0.00217945
0.00244666
-0.00244223
-0.00270751
0.00266591
-1.7313e-07
1.05062e-05
-2.2053e-07
2.86001e-05
3.21882e-07
4.42097e-05
1.9348e-06
5.69014e-05
5.12393e-06
6.62141e-05
1.04279e-05
7.16539e-05
1.8427e-05
7.26809e-05
2.9754e-05
6.86964e-05
4.51058e-05
5.90313e-05
6.52557e-05
4.29362e-05
9.10645e-05
1.95714e-05
0.000123491
-1.19988e-05
0.000163596
-5.28096e-05
0.000212544
-0.000103992
0.000271592
-0.000166763
0.000342064
-0.0002424
0.000425315
-0.000332205
0.000522661
-0.000437451
0.000635303
-0.000559301
0.000764209
-0.000698716
0.000909988
-0.000856337
0.00107274
-0.00103236
0.00125194
-0.00122643
0.00144628
-0.00143752
0.00165363
-0.00166385
0.0018711
-0.001903
0.00209483
-0.00215177
0.00232156
-0.00240617
0.00254559
-0.00266626
-0.00290269
0.00274078
-1.39033e-07
1.06453e-05
-5.32245e-08
2.85143e-05
7.57983e-07
4.33985e-05
2.81806e-06
5.48413e-05
6.68091e-06
6.23512e-05
1.29401e-05
6.53947e-05
2.2239e-05
6.33821e-05
3.52815e-05
5.56539e-05
5.2844e-05
4.14688e-05
7.57866e-05
1.99936e-05
0.000105062
-9.70409e-06
0.000141722
-4.86586e-05
0.000186915
-9.80027e-05
0.000241878
-0.000158955
0.000307912
-0.000232797
0.00038634
-0.000320829
0.000478452
-0.000424317
0.000585412
-0.000544411
0.000708156
-0.000682046
0.000847264
-0.000837823
0.00100282
-0.00101189
0.00117426
-0.00120381
0.0013603
-0.00141247
0.00155883
-0.00163605
0.00176695
-0.00187198
0.00198112
-0.00211717
0.00219722
-0.00236787
0.00241212
-0.00262107
0.00261904
-0.00287319
-0.00311297
0.00282931
-8.559e-08
1.07309e-05
1.87855e-07
2.82409e-05
1.35901e-06
4.22273e-05
3.99369e-06
5.22066e-05
8.69603e-06
5.76489e-05
1.61173e-05
5.79734e-05
2.69663e-05
5.2533e-05
4.20207e-05
4.05995e-05
6.21376e-05
2.13519e-05
8.82628e-05
-6.13156e-06
0.000121436
-4.28774e-05
0.000162791
-9.00134e-05
0.000213544
-0.000148756
0.000274975
-0.000220386
0.000348385
-0.000306206
0.000435036
-0.00040748
0.000536073
-0.000525354
0.000652414
-0.000660753
0.000784629
-0.00081426
0.000932798
-0.000985992
0.00109638
-0.00117547
0.0012741
-0.00138153
0.00146391
-0.00160228
0.00166297
-0.00183511
0.00186779
-0.0020768
0.00207444
-0.00232382
0.00227888
-0.00257231
0.00247752
-0.00281971
0.00266589
-0.00306156
-0.00329659
0.00284951
-1.2707e-08
1.07436e-05
5.04961e-07
2.77232e-05
2.12844e-06
4.06038e-05
5.46787e-06
4.88672e-05
1.1179e-05
5.19377e-05
1.99726e-05
4.91798e-05
3.26246e-05
3.9881e-05
4.9987e-05
2.32371e-05
7.29961e-05
-1.65724e-06
0.000102679
-3.58142e-05
0.000140152
-8.03505e-05
0.000186614
-0.000136475
0.000243322
-0.000205465
0.000311559
-0.000288623
0.00039257
-0.000387217
0.000487488
-0.000502398
0.000597229
-0.000635095
0.000722369
-0.000785893
0.00086301
-0.000954902
0.00101865
-0.00114163
0.00118807
-0.00134489
0.00136929
-0.00156275
0.00155955
-0.00179254
0.00175546
-0.00203102
0.00195319
-0.00227452
0.00214874
-0.00251938
0.00233839
-0.00276195
0.00251882
-0.00300014
0.00268724
-0.00322997
-0.00345449
0.00284514
7.98069e-08
1.06638e-05
8.96974e-07
2.69061e-05
3.06494e-06
3.84359e-05
7.2389e-06
4.46932e-05
1.41274e-05
4.50493e-05
2.45015e-05
3.88057e-05
3.92048e-05
2.51777e-05
5.91619e-05
3.28002e-06
8.53844e-05
-2.78797e-05
0.000118971
-6.94009e-05
0.000161101
-0.00012248
0.000213012
-0.000188387
0.00027597
-0.000268423
0.000351209
-0.000363862
0.000439859
-0.000475867
0.000542844
-0.000605383
0.000660766
-0.000753017
0.000793769
-0.000918895
0.000941409
-0.00110254
0.00110255
-0.00130277
0.0012753
-0.00151764
0.00145701
-0.00174446
0.0016444
-0.00197993
0.00183374
-0.00222036
0.00202115
-0.00246194
0.00220292
-0.00270115
0.0023759
-0.00293493
0.00253757
-0.00316182
0.00268631
-0.00337871
-0.0035915
0.00282332
1.9049e-07
1.04733e-05
1.36119e-06
2.57354e-05
4.1635e-06
3.56336e-05
9.29854e-06
3.95582e-05
1.75283e-05
3.68195e-05
2.96843e-05
2.66496e-05
4.66763e-05
8.18563e-06
6.9498e-05
-1.95416e-05
9.92283e-05
-5.761e-05
0.000137025
-0.000107198
0.000184108
-0.000169563
0.000241727
-0.000246005
0.000311108
-0.000337804
0.000393385
-0.000446139
0.000489503
-0.000571985
0.0006001
-0.00071598
0.000725379
-0.000878296
0.000864979
-0.00105849
0.00101786
-0.00125543
0.00118225
-0.00146716
0.00135562
-0.00169101
0.00153482
-0.00192366
0.00171624
-0.00216135
0.00189608
-0.0024002
0.00207072
-0.00263658
0.00223702
-0.00286745
0.00239262
-0.00309053
0.00253596
-0.00330516
0.00266661
-0.00350936
-0.00371052
0.00278564
3.18536e-07
1.01547e-05
1.89397e-06
2.41599e-05
5.41651e-06
3.2111e-05
1.16337e-05
3.3341e-05
2.1361e-05
2.70922e-05
3.54894e-05
1.25212e-05
5.49916e-05
-1.13166e-05
8.0924e-05
-4.5474e-05
0.000114422
-9.11077e-05
0.000156684
-0.00014946
0.000208946
-0.000221825
0.000272428
-0.000309487
0.000348273
-0.000413649
0.000437451
-0.000535317
0.00054065
-0.000675183
0.000658146
-0.000833476
0.000789676
-0.00100983
0.000934322
-0.00120314
0.00109044
-0.00141155
0.00125566
-0.00163238
0.00142695
-0.0018623
0.00160082
-0.00209753
0.00177358
-0.0023341
0.00194165
-0.00256827
0.00210192
-0.00279685
0.00225202
-0.00301754
0.00239049
-0.00322899
0.00251673
-0.00343141
0.00263127
-0.0036239
-0.00381456
0.00273531
4.62695e-07
9.69203e-06
2.49104e-06
2.21316e-05
6.81488e-06
2.77872e-05
1.42284e-05
2.59275e-05
2.55998e-05
1.57209e-05
4.1877e-05
-3.75598e-06
6.40905e-05
-3.35301e-05
9.33504e-05
-7.47338e-05
0.000130833
-0.000128591
0.000177757
-0.000196385
0.000235339
-0.000279407
0.000304731
-0.000378879
0.000386935
-0.000495852
0.000482693
-0.000631076
0.000592368
-0.000784858
0.000715808
-0.000956916
0.000852233
-0.00114625
0.00100015
-0.00135106
0.00115735
-0.00156874
0.00132095
-0.00179598
0.00148759
-0.00202894
0.00165366
-0.0022636
0.00181565
-0.00249608
0.00197042
-0.00272305
0.00211559
-0.00294201
0.0022496
-0.00315156
0.00237191
-0.0033513
0.00248276
-0.00354225
0.00258336
-0.0037245
-0.00390621
0.00267501
6.21808e-07
9.07022e-06
3.14812e-06
1.96053e-05
8.34905e-06
2.25862e-05
1.70652e-05
1.72113e-05
3.02157e-05
2.57033e-06
4.88017e-05
-2.23419e-05
7.39042e-05
-5.86326e-05
0.000106675
-0.000107504
0.000148312
-0.000170228
0.000200027
-0.000248099
0.000262981
-0.00034236
0.000338208
-0.000454106
0.000426512
-0.000584156
0.000528346
-0.00073291
0.000643683
-0.000900194
0.000771893
-0.00108513
0.000911657
-0.00128601
0.00106093
-0.00150034
0.00121701
-0.00172482
0.00137667
-0.00195563
0.00153638
-0.00218865
0.00169266
-0.00241989
0.0018424
-0.00264582
0.0019831
-0.00286375
0.00211315
-0.00307206
0.00223186
-0.00327027
0.00233945
-0.00345889
0.00243682
-0.00363962
0.0025256
-0.00381329
-0.00398774
0.00260713
7.94892e-07
8.27533e-06
3.86128e-06
1.65389e-05
1.00099e-05
1.64377e-05
2.01267e-05
7.09451e-06
3.51791e-05
-1.24821e-05
5.62155e-05
-4.33784e-05
8.4358e-05
-8.6775e-05
0.000120784
-0.00014393
0.000166692
-0.000216137
0.000223252
-0.00030466
0.000291531
-0.000410639
0.000372392
-0.000534967
0.000466384
-0.000678149
0.00057361
-0.000840136
0.000693603
-0.00102019
0.000825229
-0.00121675
0.00096664
-0.00142743
0.00111531
-0.00164901
0.00126815
-0.00187766
0.00142175
-0.00210923
0.00157266
-0.00233957
0.00171773
-0.00256496
0.00185439
-0.00278248
0.00198091
-0.00299027
0.00209645
-0.0031876
0.00220108
-0.0033749
0.00229564
-0.00355345
0.00238145
-0.00372543
0.00246036
-0.0038922
-0.00406101
0.00253363
9.8121e-07
7.29412e-06
4.62718e-06
1.28929e-05
1.17889e-05
9.27596e-06
2.33959e-05
-4.51252e-06
4.04597e-05
-2.95459e-05
6.40685e-05
-6.69872e-05
9.53726e-05
-0.000118079
0.000135556
-0.000184114
0.000185792
-0.000266373
0.000247174
-0.000366041
0.000320624
-0.000484089
0.000406788
-0.000621131
0.000505901
-0.000777262
0.000617668
-0.000951902
0.000741149
-0.00114367
0.000874707
-0.00135031
0.00101601
-0.00156873
0.00116214
-0.00179514
0.0013098
-0.00202532
0.00145559
-0.00225501
0.0015963
-0.00248028
0.0017293
-0.00269795
0.00185267
-0.00290586
0.00196544
-0.00310303
0.00206749
-0.00328966
0.00215952
-0.00346692
0.00224278
-0.00363671
0.00231883
-0.00380149
0.00238955
-0.00396291
-0.0041275
0.00245604
1.18027e-06
6.11385e-06
5.44311e-06