/*--------------------------------*- C++ -*----------------------------------*\
  =========                 |
  \\      /  F ield         | OpenFOAM: The Open Source CFD Toolbox
   \\    /   O peration     | Website:  https://openfoam.org
    \\  /    A nd           | Version:  7
     \\/     M anipulation  |
\*---------------------------------------------------------------------------*/
FoamFile
{
    version     2.0;
    format      ascii;
    class       volScalarField;
    location    "10";
    object      p;
}
// * * * * * * * * * * * * * * * * * * * * * * * * * * * * * * * * * * * * * //

dimensions      [0 2 -2 0 0 0 0];

internalField   nonuniform List<scalar> 
183
(
-0.373207
-0.368782
-0.381539
-0.376407
-0.371529
-0.390499
-0.384619
-0.379198
-0.373654
-0.3679
-0.400048
-0.393392
-0.387419
-0.381379
-0.375092
-0.368597
-0.361773
-0.354438
-0.396149
-0.389591
-0.382712
-0.375485
-0.367739
-0.359275
-0.34998
-0.339868
-0.38257
-0.373724
-0.363942
-0.353179
-0.341557
-0.329317
-0.31676
-0.30418
-0.342669
-0.328954
-0.315109
-0.301448
-0.288201
-0.275511
-0.263451
-0.25204
-0.284053
-0.270701
-0.258109
-0.24627
-0.235147
-0.224693
-0.214891
-0.205518
-0.228633
-0.217937
-0.207942
-0.198391
-0.228174
-0.217478
-0.20748
-0.19793
-0.297636
-0.283572
-0.270226
-0.257637
-0.245799
-0.234676
-0.224222
-0.214417
-0.355277
-0.342093
-0.328409
-0.314588
-0.300943
-0.287707
-0.275024
-0.262967
-0.381843
-0.37303
-0.363283
-0.352558
-0.34097
-0.328759
-0.316226
-0.303663
-0.395368
-0.38883
-0.381972
-0.37477
-0.367051
-0.358618
-0.349355
-0.339272
-0.399243
-0.392613
-0.38666
-0.380639
-0.374372
-0.367898
-0.361096
-0.389719
-0.383863
-0.378463
-0.372937
-0.367201
-0.380785
-0.375675
-0.370816
-0.372476
-0.135688
-0.120644
-0.106763
-0.0965139
-0.0873513
-0.0798022
-0.0734164
-0.0680404
-0.063351
-0.0591058
-0.0556011
-0.0524846
-0.0499741
-0.047845
-0.0460259
-0.0445137
-0.0434318
-0.042885
-0.0423198
-0.177601
-0.152164
-0.13048
-0.116197
-0.102862
-0.0931638
-0.0844204
-0.0772143
-0.0711414
-0.0660429
-0.0615643
-0.0574697
-0.054098
-0.051089
-0.0486825
-0.0466376
-0.0448696
-0.0433799
-0.0423382
-0.0418311
-0.0412536
-0.177104
-0.151701
-0.129998
-0.115701
-0.102234
-0.0923131
-0.0830732
-0.0758035
-0.0694941
-0.0639006
-0.0595066
-0.0555968
-0.0524279
-0.0499714
-0.0477239
-0.0459954
-0.0443752
-0.0433635
-0.0425943
-0.0420308
-0.0416412
-0.0956615
-0.0860444
-0.0784202
-0.0718227
-0.0660099
-0.061399
-0.0573189
-0.0539918
-0.0513805
-0.0490219
-0.0472067
-0.0455335
-0.0444551
-0.0436287
-0.0430428
-0.0426521
)
;

boundaryField
{
    inlet
    {
        type            zeroGradient;
    }
    outlet
    {
        type            fixedValue;
        value           nonuniform 0();
    }
    cylinder
    {
        type            zeroGradient;
    }
    top
    {
        type            symmetryPlane;
    }
    bottom
    {
        type            symmetryPlane;
    }
    defaultFaces
    {
        type            empty;
    }
    procBoundary20to19
    {
        type            processor;
        value           nonuniform List<scalar> 
94
(
-0.41013
-0.402681
-0.402681
-0.405323
-0.398217
-0.390664
-0.390664
-0.389701
-0.379562
-0.36827
-0.35589
-0.35589
-0.343093
-0.327906
-0.312813
-0.298127
-0.298127
-0.279329
-0.265369
-0.252292
-0.240066
-0.240066
-0.221683
-0.210785
-0.200628
-0.190941
-0.221237
-0.210337
-0.200178
-0.19049
-0.293692
-0.278862
-0.264908
-0.251834
-0.239608
-0.239608
-0.357366
-0.342532
-0.327376
-0.312306
-0.312306
-0.388965
-0.378865
-0.367615
-0.367615
-0.40452
-0.397436
-0.389907
-0.389907
-0.4093
-0.401879
-0.401879
-0.170427
-0.146109
-0.125218
-0.111719
-0.0989438
-0.0898002
-0.0814801
-0.074613
-0.0688546
-0.0640385
-0.0597714
-0.055823
-0.0525807
-0.0496782
-0.0473772
-0.0454184
-0.0436993
-0.042228
-0.0412282
-0.0407632
-0.0401693
-0.169941
-0.145663
-0.124764
-0.11126
-0.0983553
-0.0889554
-0.0800924
-0.0731757
-0.0671538
-0.0617753
-0.0575962
-0.0538559
-0.0508461
-0.0485484
-0.0464139
-0.0447703
-0.0432005
-0.0422571
-0.0415489
-0.0410072
-0.0406155
)
;
    }
    procBoundary20to21
    {
        type            processor;
        value           nonuniform List<scalar> 
102
(
-0.365517
-0.361752
-0.36443
-0.36443
-0.366463
-0.366463
-0.361196
-0.362027
-0.362027
-0.35597
-0.349582
-0.346441
-0.346441
-0.337718
-0.329074
-0.329074
-0.317823
-0.306368
-0.291818
-0.291818
-0.279843
-0.26836
-0.257416
-0.241264
-0.241264
-0.231087
-0.221504
-0.212344
-0.184582
-0.205044
-0.251558
-0.240782
-0.230604
-0.205044
-0.221019
-0.291312
-0.279345
-0.251558
-0.267865
-0.328506
-0.317277
-0.291312
-0.305839
-0.353786
-0.345815
-0.328506
-0.337118
-0.361345
-0.353786
-0.355307
-0.365768
-0.361345
-0.360518
-0.368073
-0.365768
-0.363739
-0.368073
-0.36481
-0.140846
-0.125065
-0.11065
-0.0998536
-0.0902743
-0.0823781
-0.0756803
-0.0700309
-0.0651304
-0.0607304
-0.05709
-0.0538646
-0.0512514
-0.0490395
-0.0471674
-0.0456291
-0.0445085
-0.0439242
-0.0433677
-0.184582
-0.158129
-0.158129
-0.184074
-0.157649
-0.13518
-0.120117
-0.106105
-0.106105
-0.0990029
-0.0890069
-0.0810269
-0.0741398
-0.068103
-0.0632739
-0.0590226
-0.0555376
-0.0527753
-0.0503068
-0.0484037
-0.0466752
-0.0455316
-0.0446512
-0.0440423
-0.0436478
)
;
    }
}


// ************************************************************************* //
