/*--------------------------------*- C++ -*----------------------------------*\
  =========                 |
  \\      /  F ield         | OpenFOAM: The Open Source CFD Toolbox
   \\    /   O peration     | Website:  https://openfoam.org
    \\  /    A nd           | Version:  7
     \\/     M anipulation  |
\*---------------------------------------------------------------------------*/
FoamFile
{
    version     2.0;
    format      ascii;
    class       volScalarField;
    location    "15";
    object      p;
}
// * * * * * * * * * * * * * * * * * * * * * * * * * * * * * * * * * * * * * //

dimensions      [0 2 -2 0 0 0 0];

internalField   nonuniform List<scalar> 
392
(
0.285694
0.263976
0.245369
0.226881
0.209521
0.193846
0.17981
0.167256
0.156052
0.146082
0.137229
0.129375
0.122413
0.116242
0.11077
0.105916
0.101606
0.097777
0.0943711
0.0913389
0.0886368
0.0862272
0.0840771
0.082158
0.0804453
0.0789175
0.0775561
0.076345
0.0752705
0.0743207
0.0734852
0.0727554
0.0721237
0.0715839
0.0711306
0.0707595
0.0704668
0.0702498
0.0701093
0.07005
0.269619
0.255716
0.242857
0.2303
0.218413
0.207352
0.197093
0.187584
0.178781
0.170641
0.163122
0.156183
0.149781
0.143879
0.13844
0.13343
0.128817
0.124573
0.120671
0.117085
0.113794
0.110776
0.108012
0.105485
0.103179
0.101079
0.0991718
0.0974462
0.0958911
0.094497
0.0932551
0.0921579
0.0911987
0.0903715
0.0896715
0.0890943
0.0886367
0.088296
0.088068
0.0879471
0.261543
0.252259
0.243253
0.23404
0.224933
0.216108
0.207616
0.199488
0.191749
0.184417
0.177498
0.170993
0.164896
0.159197
0.153881
0.148933
0.144337
0.140073
0.136124
0.132472
0.1291
0.12599
0.123129
0.1205
0.11809
0.115886
0.113878
0.112053
0.110403
0.108918
0.107592
0.106418
0.105388
0.104498
0.103744
0.103121
0.102626
0.102257
0.102014
0.101898
0.313391
0.283289
0.270371
0.321287
0.287093
0.27278
0.326173
0.289497
0.274244
0.331105
0.29207
0.275795
0.336155
0.294758
0.277403
0.340991
0.297364
0.278944
0.34557
0.299856
0.280398
0.349926
0.302245
0.281777
0.35407
0.304527
0.283081
0.358001
0.306696
0.284309
0.361715
0.308744
0.285459
0.365207
0.310664
0.286531
0.415463
0.368473
0.312451
0.287525
0.422611
0.371505
0.314102
0.288438
0.429088
0.374295
0.315611
0.289271
0.434901
0.376837
0.316976
0.290023
0.440056
0.379122
0.318194
0.444557
0.381142
0.319264
0.448409
0.382888
0.320183
0.451615
0.384356
0.32095
0.454177
0.385537
0.321564
0.456096
0.386428
0.322026
0.457376
0.387024
0.322333
0.458015
0.387323
0.322487
0.458015
0.387323
0.322487
0.457376
0.387024
0.322333
0.456096
0.386428
0.322026
0.454177
0.385537
0.321564
0.451615
0.384356
0.32095
0.448409
0.382888
0.320183
0.444557
0.381142
0.319264
0.440056
0.379122
0.318194
0.434901
0.376837
0.316976
0.290023
0.429088
0.374295
0.315611
0.289271
0.422611
0.371505
0.314102
0.288438
0.415463
0.368473
0.312451
0.287525
0.365207
0.310664
0.286531
0.361715
0.308744
0.285459
0.358001
0.306696
0.284309
0.35407
0.304527
0.283081
0.349926
0.302245
0.281777
0.34557
0.299856
0.280398
0.340991
0.297364
0.278944
0.336155
0.294758
0.277403
0.331105
0.29207
0.275795
0.326173
0.289497
0.274244
0.321287
0.287093
0.27278
0.313391
0.283289
0.270371
0.285694
0.269619
0.261543
0.263976
0.255716
0.252259
0.245369
0.242857
0.243253
0.226881
0.2303
0.23404
0.209521
0.218413
0.224933
0.193846
0.207352
0.216108
0.17981
0.197093
0.207616
0.167256
0.187584
0.199488
0.156052
0.178781
0.191749
0.146082
0.170641
0.184417
0.137229
0.163122
0.177498
0.129375
0.156183
0.170993
0.122413
0.149781
0.164896
0.116242
0.143879
0.159197
0.11077
0.13844
0.153881
0.105916
0.13343
0.148933
0.101606
0.128817
0.144337
0.097777
0.124573
0.140073
0.0943711
0.120671
0.136124
0.0913389
0.117085
0.132472
0.0886368
0.113794
0.1291
0.0862272
0.110776
0.12599
0.0840771
0.108012
0.123129
0.0821581
0.105485
0.1205
0.0804453
0.103179
0.11809
0.0789175
0.101079
0.115886
0.0775561
0.0991718
0.113878
0.076345
0.0974462
0.112053
0.0752705
0.0958912
0.110403
0.0743207
0.094497
0.108919
0.0734852
0.0932551
0.107592
0.0727554
0.0921579
0.106418
0.0721237
0.0911987
0.105388
0.0715839
0.0903715
0.104498
0.0711306
0.0896715
0.103744
0.0707595
0.0890943
0.103121
0.0704668
0.0886367
0.102626
0.0702498
0.088296
0.102257
0.0701093
0.088068
0.102014
0.07005
0.0879471
0.101898
)
;

boundaryField
{
    inlet
    {
        type            zeroGradient;
    }
    outlet
    {
        type            fixedValue;
        value           nonuniform 0();
    }
    cylinder
    {
        type            zeroGradient;
    }
    top
    {
        type            symmetryPlane;
    }
    bottom
    {
        type            symmetryPlane;
    }
    defaultFaces
    {
        type            empty;
    }
    procBoundary2to1
    {
        type            processor;
        value           nonuniform List<scalar> 
130
(
0.242548
0.2366
0.230558
0.224331
0.218091
0.21193
0.205887
0.19999
0.194266
0.188732
0.183405
0.178292
0.173402
0.168735
0.164295
0.160078
0.156085
0.15231
0.148749
0.145399
0.142253
0.139306
0.136553
0.133988
0.131605
0.129399
0.127365
0.125498
0.123793
0.122246
0.120853
0.11961
0.118513
0.11756
0.116748
0.116075
0.115539
0.115138
0.11487
0.114732
0.247442
0.248776
0.249601
0.250491
0.251416
0.252307
0.253154
0.253961
0.254731
0.25546
0.256148
0.256793
0.257394
0.257949
0.258459
0.25892
0.290693
0.290693
0.291281
0.291787
0.292209
0.292547
0.292801
0.29297
0.293055
0.293055
0.29297
0.292801
0.292547
0.292209
0.291787
0.291281
0.290693
0.290693
0.25892
0.258459
0.257949
0.257394
0.256793
0.256148
0.25546
0.254731
0.253961
0.253154
0.252307
0.251416
0.250491
0.249601
0.248776
0.247442
0.242548
0.2366
0.230558
0.224331
0.218091
0.21193
0.205887
0.19999
0.194266
0.188732
0.183405
0.178293
0.173402
0.168735
0.164295
0.160078
0.156085
0.15231
0.148749
0.145399
0.142253
0.139306
0.136553
0.133988
0.131605
0.129399
0.127365
0.125498
0.123793
0.122246
0.120853
0.11961
0.118513
0.11756
0.116748
0.116075
0.115539
0.115138
0.11487
0.114732
)
;
    }
    procBoundary2to3
    {
        type            processor;
        value           nonuniform List<scalar> 
130
(
0.444269
0.458088
0.470769
0.482278
0.492585
0.501663
0.509488
0.516039
0.521301
0.52526
0.527904
0.529228
0.529228
0.527904
0.52526
0.521301
0.516039
0.509488
0.501663
0.492585
0.482278
0.470769
0.458088
0.444269
0.221357
0.197918
0.182089
0.165796
0.15088
0.138293
0.127668
0.118519
0.110561
0.103608
0.0975154
0.0921563
0.0874283
0.0832478
0.0795453
0.0762621
0.0733482
0.0707604
0.0684611
0.0664175
0.0646008
0.0629856
0.0615499
0.0602739
0.0591405
0.0581346
0.057243
0.0564542
0.0557581
0.055146
0.0546103
0.0541445
0.0537429
0.0534009
0.0531144
0.0528803
0.0526959
0.0525592
0.052467
0.0524159
0.271114
0.29054
0.305557
0.319558
0.333109
0.345955
0.358034
0.369377
0.380001
0.389914
0.399123
0.407636
0.407636
0.407636
0.407636
0.399123
0.389914
0.380001
0.369377
0.358034
0.345955
0.333109
0.319558
0.305557
0.29054
0.271114
0.221357
0.197917
0.182089
0.165796
0.15088
0.138293
0.127668
0.118519
0.110561
0.103608
0.0975154
0.0921563
0.0874283
0.0832478
0.0795453
0.0762621
0.0733482
0.0707604
0.0684611
0.0664175
0.0646008
0.0629857
0.0615499
0.0602739
0.0591405
0.0581346
0.057243
0.0564542
0.0557581
0.055146
0.0546103
0.0541445
0.0537429
0.0534009
0.0531144
0.0528803
0.0526959
0.0525592
0.052467
0.0524159
)
;
    }
}


// ************************************************************************* //
