/*--------------------------------*- C++ -*----------------------------------*\
  =========                 |
  \\      /  F ield         | OpenFOAM: The Open Source CFD Toolbox
   \\    /   O peration     | Website:  https://openfoam.org
    \\  /    A nd           | Version:  7
     \\/     M anipulation  |
\*---------------------------------------------------------------------------*/
FoamFile
{
    version     2.0;
    format      ascii;
    class       volScalarField;
    location    "71";
    object      p;
}
// * * * * * * * * * * * * * * * * * * * * * * * * * * * * * * * * * * * * * //

dimensions      [0 2 -2 0 0 0 0];

internalField   nonuniform List<scalar> 
40000
(
-0.244883
-0.245781
-0.246454
-0.247002
-0.247493
-0.24793
-0.248319
-0.24867
-0.248991
-0.24929
-0.249571
-0.249839
-0.250097
-0.250344
-0.25058
-0.250804
-0.251012
-0.251202
-0.25137
-0.251512
-0.251623
-0.2517
-0.251739
-0.25174
-0.2517
-0.251621
-0.251505
-0.251354
-0.251168
-0.25097
-0.244208
-0.245117
-0.245796
-0.246349
-0.246842
-0.247279
-0.247665
-0.248011
-0.248324
-0.248611
-0.248877
-0.249126
-0.24936
-0.249578
-0.249781
-0.249965
-0.250127
-0.250265
-0.250372
-0.250445
-0.250479
-0.25047
-0.250413
-0.250306
-0.250148
-0.249937
-0.249678
-0.24937
-0.249008
-0.248631
-0.243643
-0.244557
-0.245238
-0.245791
-0.246283
-0.246717
-0.247098
-0.247436
-0.247739
-0.248013
-0.248262
-0.24849
-0.248698
-0.248887
-0.249053
-0.249196
-0.249312
-0.249395
-0.249441
-0.249445
-0.249401
-0.249303
-0.249148
-0.248931
-0.248651
-0.248307
-0.247902
-0.247435
-0.246894
-0.246339
-0.243191
-0.244103
-0.244783
-0.245332
-0.24582
-0.246248
-0.246621
-0.246949
-0.247239
-0.247497
-0.247728
-0.247933
-0.248115
-0.248271
-0.248402
-0.248503
-0.24857
-0.248598
-0.248582
-0.248515
-0.248392
-0.248205
-0.24795
-0.247622
-0.247219
-0.246739
-0.246186
-0.24556
-0.244838
-0.244104
-0.242853
-0.243757
-0.24443
-0.244973
-0.245453
-0.245872
-0.246235
-0.246551
-0.246826
-0.247067
-0.247277
-0.247458
-0.247611
-0.247735
-0.247828
-0.247886
-0.247904
-0.247877
-0.247798
-0.24766
-0.247457
-0.24718
-0.246824
-0.246384
-0.245856
-0.245239
-0.244539
-0.243752
-0.242849
-0.241936
-0.242628
-0.243519
-0.244181
-0.244713
-0.245183
-0.24559
-0.245941
-0.246242
-0.246501
-0.246723
-0.24691
-0.247066
-0.247189
-0.247279
-0.247334
-0.247348
-0.247317
-0.247234
-0.247091
-0.246882
-0.246599
-0.246232
-0.245775
-0.245223
-0.244569
-0.243814
-0.242964
-0.242018
-0.240933
-0.239841
-0.242515
-0.243387
-0.244034
-0.244554
-0.24501
-0.245404
-0.245739
-0.246023
-0.246264
-0.246464
-0.246628
-0.246756
-0.246849
-0.246904
-0.246919
-0.246889
-0.246808
-0.246669
-0.246463
-0.246183
-0.24582
-0.245363
-0.244806
-0.244141
-0.243362
-0.242468
-0.241468
-0.240363
-0.239096
-0.237824
-0.242512
-0.243361
-0.24399
-0.244493
-0.244933
-0.24531
-0.245628
-0.245894
-0.246113
-0.246291
-0.246429
-0.246529
-0.246589
-0.246609
-0.246584
-0.246509
-0.246378
-0.246183
-0.245915
-0.245564
-0.245122
-0.244576
-0.243919
-0.243141
-0.242237
-0.241204
-0.240054
-0.23879
-0.237343
-0.235885
-0.242617
-0.243438
-0.244046
-0.24453
-0.244951
-0.245309
-0.245607
-0.245852
-0.246049
-0.246202
-0.246313
-0.246382
-0.24641
-0.246393
-0.246327
-0.246207
-0.246026
-0.245775
-0.245445
-0.245025
-0.244504
-0.243871
-0.243115
-0.242226
-0.241197
-0.240025
-0.238724
-0.237302
-0.235675
-0.23402
-0.242825
-0.243615
-0.244199
-0.244662
-0.245062
-0.245399
-0.245675
-0.245897
-0.246069
-0.246195
-0.246277
-0.246315
-0.246308
-0.246254
-0.246147
-0.245982
-0.24575
-0.245444
-0.245053
-0.244565
-0.243968
-0.243249
-0.242396
-0.241397
-0.240244
-0.238934
-0.237479
-0.2359
-0.234095
-0.232218
-0.243133
-0.24389
-0.244446
-0.244886
-0.245263
-0.245576
-0.245828
-0.246025
-0.24617
-0.246268
-0.246319
-0.246324
-0.246282
-0.246189
-0.24604
-0.245829
-0.245549
-0.245188
-0.244737
-0.244182
-0.243511
-0.242709
-0.241761
-0.240655
-0.239381
-0.237931
-0.236322
-0.234584
-0.23261
-0.23045
-0.243537
-0.244257
-0.244786
-0.2452
-0.245551
-0.245839
-0.246064
-0.246233
-0.24635
-0.246417
-0.246436
-0.246407
-0.246328
-0.246195
-0.246004
-0.245748
-0.245417
-0.245003
-0.244494
-0.243875
-0.243132
-0.242249
-0.24121
-0.240001
-0.238607
-0.237021
-0.235254
-0.233358
-0.231224
-0.228619
-0.244033
-0.244715
-0.245213
-0.2456
-0.245924
-0.246184
-0.246381
-0.24652
-0.246606
-0.246641
-0.246626
-0.24656
-0.246442
-0.246269
-0.246035
-0.245732
-0.245353
-0.244886
-0.24432
-0.243639
-0.242827
-0.241868
-0.240743
-0.239434
-0.237925
-0.236204
-0.234279
-0.232221
-0.229952
-0.22661
-0.244617
-0.24526
-0.245726
-0.246084
-0.246378
-0.246608
-0.246775
-0.246882
-0.246935
-0.246935
-0.246883
-0.246779
-0.246621
-0.246406
-0.246128
-0.245779
-0.245351
-0.244833
-0.244211
-0.24347
-0.242594
-0.241562
-0.240355
-0.238952
-0.237333
-0.235483
-0.233403
-0.231158
-0.228749
-0.225324
-0.245285
-0.245888
-0.246321
-0.246649
-0.246912
-0.24711
-0.247243
-0.247316
-0.247333
-0.247296
-0.247205
-0.247061
-0.246861
-0.246602
-0.246279
-0.245883
-0.245407
-0.244838
-0.244162
-0.243364
-0.242426
-0.241326
-0.240043
-0.238553
-0.236831
-0.234857
-0.232631
-0.230224
-0.22751
-0.224002
-0.246034
-0.246597
-0.246996
-0.247291
-0.247522
-0.247685
-0.247783
-0.247819
-0.247798
-0.24772
-0.247588
-0.247401
-0.247157
-0.246853
-0.246483
-0.24604
-0.245515
-0.244895
-0.244167
-0.243315
-0.242318
-0.241155
-0.239802
-0.238231
-0.236414
-0.234323
-0.231955
-0.229377
-0.226403
-0.222595
-0.246862
-0.247384
-0.247748
-0.24801
-0.248206
-0.248333
-0.248392
-0.248389
-0.248325
-0.248205
-0.248028
-0.247795
-0.247505
-0.247153
-0.246735
-0.246244
-0.245669
-0.244999
-0.24422
-0.243315
-0.242263
-0.241041
-0.239623
-0.237978
-0.236074
-0.233876
-0.23137
-0.228622
-0.225414
-0.221151
-0.247766
-0.248247
-0.248577
-0.248804
-0.248962
-0.24905
-0.249069
-0.249022
-0.248914
-0.248747
-0.248523
-0.248241
-0.247901
-0.247499
-0.247031
-0.246489
-0.245864
-0.245144
-0.244314
-0.243357
-0.242252
-0.240974
-0.239496
-0.237784
-0.235802
-0.233506
-0.23087
-0.227957
-0.224534
-0.219676
-0.248745
-0.249187
-0.249481
-0.249672
-0.249791
-0.249837
-0.249811
-0.249718
-0.249561
-0.249344
-0.249068
-0.248734
-0.248342
-0.247887
-0.247366
-0.246771
-0.246094
-0.245322
-0.244441
-0.243433
-0.242276
-0.240945
-0.23941
-0.237636
-0.235583
-0.233199
-0.230442
-0.22737
-0.223768
-0.218173
-0.249801
-0.250204
-0.25046
-0.250613
-0.250691
-0.250692
-0.250618
-0.250475
-0.250266
-0.249994
-0.249663
-0.249273
-0.248824
-0.248313
-0.247736
-0.247086
-0.246354
-0.245529
-0.244595
-0.243535
-0.242326
-0.240943
-0.239354
-0.237521
-0.2354
-0.232937
-0.23007
-0.226844
-0.223116
-0.216649
-0.250935
-0.251298
-0.251517
-0.251629
-0.251662
-0.251615
-0.25149
-0.251292
-0.251027
-0.250697
-0.250305
-0.249855
-0.249345
-0.248774
-0.248137
-0.247429
-0.24664
-0.245759
-0.244771
-0.243657
-0.242395
-0.240959
-0.239314
-0.237423
-0.235238
-0.2327
-0.229733
-0.226354
-0.222571
-0.215122
-0.252149
-0.252473
-0.252652
-0.252722
-0.252708
-0.252608
-0.252428
-0.252171
-0.251844
-0.25145
-0.250994
-0.250479
-0.249904
-0.249268
-0.248568
-0.247798
-0.246948
-0.246008
-0.244962
-0.243792
-0.242475
-0.240983
-0.239282
-0.23733
-0.23508
-0.232468
-0.229409
-0.225872
-0.222117
-0.213622
-0.253448
-0.253732
-0.25387
-0.253895
-0.253829
-0.253673
-0.253432
-0.253112
-0.252718
-0.252256
-0.25173
-0.251145
-0.2505
-0.249795
-0.249027
-0.248191
-0.247277
-0.246274
-0.245167
-0.243937
-0.242561
-0.241009
-0.239247
-0.237232
-0.234912
-0.232224
-0.229079
-0.225374
-0.221721
-0.212191
-0.254838
-0.25508
-0.255174
-0.255151
-0.255029
-0.254813
-0.254507
-0.254117
-0.253651
-0.253115
-0.252514
-0.251853
-0.251133
-0.250355
-0.249515
-0.248607
-0.247625
-0.246555
-0.245383
-0.244089
-0.242649
-0.241034
-0.239205
-0.237121
-0.234725
-0.231956
-0.228726
-0.224843
-0.221342
-0.210882
-0.256326
-0.256524
-0.256571
-0.256495
-0.256314
-0.256032
-0.255654
-0.255189
-0.254645
-0.25403
-0.253348
-0.252607
-0.251807
-0.250949
-0.250032
-0.249049
-0.247994
-0.246853
-0.245611
-0.244248
-0.242739
-0.241053
-0.239153
-0.236991
-0.234513
-0.231655
-0.22834
-0.224281
-0.220929
-0.209759
-0.25792
-0.25807
-0.258068
-0.257934
-0.257688
-0.257334
-0.25688
-0.256334
-0.255706
-0.255004
-0.254237
-0.253408
-0.252523
-0.251581
-0.250582
-0.249519
-0.248386
-0.247169
-0.245852
-0.244415
-0.242831
-0.241068
-0.239088
-0.236842
-0.234273
-0.231319
-0.227909
-0.223698
-0.220432
-0.208891
-0.259629
-0.259729
-0.259671
-0.259475
-0.259158
-0.258726
-0.258188
-0.257555
-0.256837
-0.256043
-0.255183
-0.254263
-0.253287
-0.252256
-0.251169
-0.250022
-0.248805
-0.247507
-0.24611
-0.244592
-0.242926
-0.241079
-0.23901
-0.236671
-0.234004
-0.230946
-0.227425
-0.223105
-0.219767
-0.20828
-0.261465
-0.261509
-0.26139
-0.261126
-0.260732
-0.260215
-0.259588
-0.25886
-0.258045
-0.257153
-0.256194
-0.255176
-0.254103
-0.252978
-0.251799
-0.250562
-0.249257
-0.247872
-0.246388
-0.244783
-0.243027
-0.241087
-0.23892
-0.236478
-0.233704
-0.230541
-0.226891
-0.222529
-0.218806
-0.207762
-0.26344
-0.263421
-0.263235
-0.262896
-0.262418
-0.26181
-0.261084
-0.260256
-0.259337
-0.25834
-0.257277
-0.256155
-0.254981
-0.253756
-0.25248
-0.251147
-0.249749
-0.24827
-0.246693
-0.244991
-0.243136
-0.24109
-0.238813
-0.236258
-0.233371
-0.230109
-0.226347
-0.222062
-0.217571
-0.207483
-0.265567
-0.265477
-0.265217
-0.264796
-0.264225
-0.263518
-0.262688
-0.261751
-0.260721
-0.259613
-0.258439
-0.257208
-0.255927
-0.254597
-0.253219
-0.251785
-0.250287
-0.248708
-0.247028
-0.24522
-0.243252
-0.241088
-0.238686
-0.236003
-0.232993
-0.229636
-0.22581
-0.22177
-0.216607
-0.209547
-0.267859
-0.267689
-0.267347
-0.266835
-0.266165
-0.26535
-0.264407
-0.263354
-0.262207
-0.260982
-0.259691
-0.258345
-0.256951
-0.255512
-0.254025
-0.252485
-0.25088
-0.249192
-0.247399
-0.245471
-0.243375
-0.241073
-0.238526
-0.235694
-0.232543
-0.229073
-0.2252
-0.221387
-0.216443
-0.216659
-0.27033
-0.27007
-0.269637
-0.269026
-0.268247
-0.267316
-0.266253
-0.265077
-0.263806
-0.262456
-0.261043
-0.259577
-0.258065
-0.25651
-0.25491
-0.253256
-0.251535
-0.249727
-0.247807
-0.245743
-0.2435
-0.241037
-0.238318
-0.23531
-0.231987
-0.228367
-0.224413
-0.220578
-0.215954
-0.215546
-0.272996
-0.272634
-0.2721
-0.271381
-0.270484
-0.269429
-0.268237
-0.26693
-0.265528
-0.264048
-0.262507
-0.260915
-0.25928
-0.257603
-0.255882
-0.254106
-0.252259
-0.250318
-0.248255
-0.246034
-0.243618
-0.240968
-0.238047
-0.234828
-0.231295
-0.227476
-0.223363
-0.21932
-0.214653
-0.21282
-0.27587
-0.275395
-0.274749
-0.273912
-0.272888
-0.2717
-0.270371
-0.268926
-0.267386
-0.26577
-0.264095
-0.262372
-0.260607
-0.258803
-0.256953
-0.255044
-0.253058
-0.250967
-0.24874
-0.246337
-0.24372
-0.24085
-0.237692
-0.234225
-0.230443
-0.226376
-0.222033
-0.217685
-0.212802
-0.209771
-0.278968
-0.278366
-0.277597
-0.276632
-0.275471
-0.274141
-0.272668
-0.271077
-0.269393
-0.267635
-0.26582
-0.26396
-0.26206
-0.26012
-0.258131
-0.256077
-0.253935
-0.251674
-0.249257
-0.246644
-0.243793
-0.240666
-0.237235
-0.233485
-0.229416
-0.225063
-0.220442
-0.215753
-0.2106
-0.206603
-0.282305
-0.281561
-0.280657
-0.279554
-0.278247
-0.276766
-0.27514
-0.273397
-0.271562
-0.269657
-0.267697
-0.265694
-0.263651
-0.261566
-0.259426
-0.257211
-0.254892
-0.252435
-0.249799
-0.246941
-0.243819
-0.2404
-0.23666
-0.232593
-0.228208
-0.223543
-0.218621
-0.213595
-0.208168
-0.20349
-0.285895
-0.284994
-0.283943
-0.282691
-0.281228
-0.279587
-0.277802
-0.2759
-0.273909
-0.271849
-0.269738
-0.267585
-0.26539
-0.263148
-0.260841
-0.258445
-0.255926
-0.253243
-0.250353
-0.247213
-0.243783
-0.240035
-0.235954
-0.231542
-0.22682
-0.221831
-0.216603
-0.211264
-0.205585
-0.200428
-0.289752
-0.288678
-0.287467
-0.286056
-0.284428
-0.282619
-0.280666
-0.2786
-0.276446
-0.274227
-0.271958
-0.269646
-0.267288
-0.264874
-0.262382
-0.259779
-0.257029
-0.254085
-0.250904
-0.247442
-0.243666
-0.239555
-0.235104
-0.230329
-0.225259
-0.219943
-0.214417
-0.208793
-0.202893
-0.197407
-0.293887
-0.292624
-0.291241
-0.289661
-0.287858
-0.285874
-0.283747
-0.281509
-0.279187
-0.276802
-0.274367
-0.271886
-0.269352
-0.266747
-0.264045
-0.261207
-0.25819
-0.254947
-0.251433
-0.247609
-0.24345
-0.238946
-0.234104
-0.228952
-0.223531
-0.217895
-0.212085
-0.206205
-0.200112
-0.194393
-0.298312
-0.296843
-0.295276
-0.293517
-0.291531
-0.289364
-0.287057
-0.284642
-0.282146
-0.279587
-0.276977
-0.274313
-0.271585
-0.268767
-0.265825
-0.262717
-0.259394
-0.255809
-0.25192
-0.247695
-0.24312
-0.238197
-0.232949
-0.227415
-0.221645
-0.2157
-0.209624
-0.203513
-0.19725
-0.191355
-0.303036
-0.301345
-0.299582
-0.297634
-0.295457
-0.2931
-0.290607
-0.288009
-0.285332
-0.282592
-0.279794
-0.276932
-0.273987
-0.270927
-0.267711
-0.264292
-0.26062
-0.256648
-0.252341
-0.247679
-0.242659
-0.2373
-0.231637
-0.225721
-0.219611
-0.213369
-0.207044
-0.200723
-0.194306
-0.188268
-0.308066
-0.306136
-0.304165
-0.30202
-0.299645
-0.297093
-0.294408
-0.291621
-0.288755
-0.285822
-0.282822
-0.279741
-0.276552
-0.273216
-0.269687
-0.265912
-0.261843
-0.257439
-0.252674
-0.247542
-0.242054
-0.236246
-0.230166
-0.223874
-0.217435
-0.210911
-0.204351
-0.197836
-0.191276
-0.185112
-0.313406
-0.311222
-0.309032
-0.306682
-0.304103
-0.301349
-0.298467
-0.295485
-0.29242
-0.289281
-0.28606
-0.282734
-0.279268
-0.275617
-0.271728
-0.26755
-0.263036
-0.258156
-0.252896
-0.247265
-0.241294
-0.235031
-0.228536
-0.221877
-0.215121
-0.208329
-0.201549
-0.194849
-0.188155
-0.181869
-0.319057
-0.316603
-0.314185
-0.311623
-0.308834
-0.305875
-0.302789
-0.299603
-0.296329
-0.292967
-0.289501
-0.285899
-0.282119
-0.278107
-0.273809
-0.269176
-0.264169
-0.25877
-0.252983
-0.246833
-0.240368
-0.233649
-0.226747
-0.219732
-0.212672
-0.205625
-0.198635
-0.19176
-0.184936
-0.17853
-0.325016
-0.322278
-0.319622
-0.316843
-0.31384
-0.31067
-0.307375
-0.303976
-0.300478
-0.296872
-0.293133
-0.289218
-0.285078
-0.280655
-0.275896
-0.270756
-0.26521
-0.259255
-0.252913
-0.246229
-0.239266
-0.232096
-0.224796
-0.217439
-0.210087
-0.202797
-0.195606
-0.188562
-0.181611
-0.175083
-0.331275
-0.32824
-0.32534
-0.32234
-0.319118
-0.315732
-0.312221
-0.308597
-0.304858
-0.300982
-0.296935
-0.292665
-0.288115
-0.283227
-0.277951
-0.272254
-0.266125
-0.259582
-0.252666
-0.24544
-0.23798
-0.230368
-0.222682
-0.214994
-0.207364
-0.19984
-0.192456
-0.185249
-0.178173
-0.171521
-0.337822
-0.334479
-0.331329
-0.328104
-0.324661
-0.321054
-0.317318
-0.313455
-0.309451
-0.305275
-0.30088
-0.296206
-0.291193
-0.285783
-0.279935
-0.273632
-0.266883
-0.259726
-0.252222
-0.244452
-0.236501
-0.228457
-0.220399
-0.212394
-0.204498
-0.19675
-0.189179
-0.181813
-0.174614
-0.167837
-0.344637
-0.340978
-0.337574
-0.334122
-0.330455
-0.326623
-0.322651
-0.318531
-0.314236
-0.309723
-0.304933
-0.299802
-0.294266
-0.288276
-0.281804
-0.274852
-0.267451
-0.259661
-0.251564
-0.243252
-0.23482
-0.226358
-0.217941
-0.209633
-0.20148
-0.193517
-0.185766
-0.178245
-0.170927
-0.164024
-0.351698
-0.347715
-0.344056
-0.340376
-0.336483
-0.332418
-0.328197
-0.323798
-0.319181
-0.314288
-0.309052
-0.303405
-0.297288
-0.290661
-0.283515
-0.275875
-0.267797
-0.259363
-0.250672
-0.241826
-0.232927
-0.224061
-0.2153
-0.206701
-0.198303
-0.190133
-0.182208
-0.174537
-0.167102
-0.160075
-0.358971
-0.354662
-0.350747
-0.346841
-0.342718
-0.338412
-0.333926
-0.329222
-0.324245
-0.318925
-0.313188
-0.306964
-0.300204
-0.292885
-0.285022
-0.276664
-0.267892
-0.258809
-0.249529
-0.240163
-0.23081
-0.221556
-0.212466
-0.203588
-0.194955
-0.186587
-0.178493
-0.170679
-0.163131
-0.155982
-0.36642
-0.361784
-0.357615
-0.353483
-0.349129
-0.344572
-0.339801
-0.334762
-0.329382
-0.323581
-0.317282
-0.310421
-0.30296
-0.294899
-0.28628
-0.277181
-0.267706
-0.257977
-0.248119
-0.238246
-0.228457
-0.218832
-0.209428
-0.200284
-0.191426
-0.182867
-0.174613
-0.166662
-0.159006
-0.151739
-0.373999
-0.369038
-0.364619
-0.360264
-0.355675
-0.350855
-0.345776
-0.340365
-0.334535
-0.328198
-0.321275
-0.313714
-0.305497
-0.296651
-0.287247
-0.27739
-0.26721
-0.256844
-0.246422
-0.236061
-0.225855
-0.215876
-0.206172
-0.196775
-0.187703
-0.178964
-0.170557
-0.162475
-0.154718
-0.147339
-0.381656
-0.376375
-0.371713
-0.367137
-0.362307
-0.35721
-0.351796
-0.345973
-0.339641
-0.332707
-0.325099
-0.316779
-0.307756
-0.298089
-0.287878
-0.277258
-0.266379
-0.255388
-0.244422
-0.233593
-0.222989
-0.212673
-0.202685
-0.193048
-0.183774
-0.174863
-0.166312
-0.15811
-0.150258
-0.142774
-0.38933
-0.383739
-0.378841
-0.374047
-0.368972
-0.363578
-0.357798
-0.351519
-0.344631
-0.337039
-0.328684
-0.319551
-0.30968
-0.299163
-0.288133
-0.276752
-0.265185
-0.253589
-0.2421
-0.230825
-0.219843
-0.209209
-0.198952
-0.189089
-0.179625
-0.170554
-0.161869
-0.153556
-0.145618
-0.138037
-0.396954
-0.391066
-0.385941
-0.380932
-0.375603
-0.369894
-0.363712
-0.356929
-0.349427
-0.341118
-0.331959
-0.321964
-0.31121
-0.299824
-0.287973
-0.275839
-0.263603
-0.251425
-0.239437
-0.227739
-0.216402
-0.205467
-0.194959
-0.184885
-0.175243
-0.166024
-0.157216
-0.148804
-0.140788
-0.133123
-0.404454
-0.398285
-0.392944
-0.387722
-0.38213
-0.376081
-0.36946
-0.362123
-0.35395
-0.344865
-0.334849
-0.323952
-0.31229
-0.300027
-0.28736
-0.27449
-0.261608
-0.248873
-0.236413
-0.224318
-0.212647
-0.201432
-0.19069
-0.18042
-0.170615
-0.161262
-0.152344
-0.143845
-0.135762
-0.128023
-0.411749
-0.405317
-0.399773
-0.39434
-0.388475
-0.382059
-0.374958
-0.367016
-0.358116
-0.348199
-0.337281
-0.325451
-0.312866
-0.299727
-0.286257
-0.272675
-0.259175
-0.245914
-0.23301
-0.220543
-0.208561
-0.197088
-0.18613
-0.175681
-0.165729
-0.156256
-0.147242
-0.13867
-0.130531
-0.122733
-0.418752
-0.41208
-0.406346
-0.400703
-0.394551
-0.387741
-0.380118
-0.371519
-0.361838
-0.351041
-0.339184
-0.326399
-0.312886
-0.298881
-0.284632
-0.270366
-0.256281
-0.242525
-0.229208
-0.216396
-0.204129
-0.192418
-0.181264
-0.170655
-0.160572
-0.150995
-0.141901
-0.13327
-0.125089
-0.117246
-0.425371
-0.418484
-0.412574
-0.406722
-0.400268
-0.393034
-0.384846
-0.375541
-0.365029
-0.353312
-0.340487
-0.326737
-0.312302
-0.297451
-0.282451
-0.267537
-0.252901
-0.238686
-0.224987
-0.21186
-0.199331
-0.187407
-0.176078
-0.165327
-0.155132
-0.145469
-0.136311
-0.127639
-0.119428
-0.11156
-0.43151
-0.424436
-0.418364
-0.412303
-0.405531
-0.397841
-0.389046
-0.378989
-0.367603
-0.354933
-0.341125
-0.326409
-0.311068
-0.2954
-0.279685
-0.264161
-0.249014
-0.234376
-0.220328
-0.206915
-0.194153
-0.182039
-0.170557
-0.159686
-0.149398
-0.139667
-0.130463
-0.121767
-0.113543
-0.10567
-0.437071
-0.429838
-0.42362
-0.417348
-0.410242
-0.402065
-0.392623
-0.381772
-0.369477
-0.355831
-0.341033
-0.325363
-0.309142
-0.292693
-0.276304
-0.260214
-0.244598
-0.229574
-0.215213
-0.201546
-0.188578
-0.1763
-0.164689
-0.153719
-0.14336
-0.13358
-0.12435
-0.115649
-0.107427
-0.0995699
-0.441951
-0.434591
-0.428242
-0.421758
-0.414299
-0.405606
-0.395481
-0.383799
-0.370569
-0.355936
-0.340153
-0.323551
-0.306486
-0.289298
-0.272283
-0.255673
-0.239632
-0.224264
-0.209625
-0.195735
-0.182592
-0.170176
-0.158461
-0.147415
-0.137006
-0.1272
-0.117963
-0.109276
-0.101076
-0.0932558
-0.446049
-0.438595
-0.43213
-0.425431
-0.417603
-0.408365
-0.397524
-0.384984
-0.370802
-0.355181
-0.338432
-0.32093
-0.303063
-0.285187
-0.267598
-0.250517
-0.234096
-0.218425
-0.203547
-0.189469
-0.17618
-0.163655
-0.151862
-0.140765
-0.13033
-0.120518
-0.111296
-0.102643
-0.0944829
-0.0867228
-0.449263
-0.441749
-0.435182
-0.428266
-0.420054
-0.410246
-0.398662
-0.385245
-0.370105
-0.353507
-0.335819
-0.31746
-0.298843
-0.280334
-0.262225
-0.244726
-0.227974
-0.212044
-0.196964
-0.182733
-0.169331
-0.156726
-0.144882
-0.133761
-0.123322
-0.113528
-0.104343
-0.0957445
-0.0876445
-0.0799684
-0.451494
-0.443954
-0.437301
-0.430166
-0.421553
-0.411154
-0.398809
-0.384504
-0.368411
-0.350859
-0.332271
-0.313106
-0.293798
-0.274716
-0.256145
-0.238283
-0.221249
-0.205104
-0.189863
-0.175516
-0.162033
-0.14938
-0.137513
-0.126393
-0.115976
-0.106223
-0.0970967
-0.0885742
-0.080558
-0.0729918
-0.452646
-0.445114
-0.438389
-0.431033
-0.422009
-0.411003
-0.397883
-0.382691
-0.365662
-0.34719
-0.327752
-0.307839
-0.287903
-0.268312
-0.249342
-0.231172
-0.213908
-0.197593
-0.182233
-0.167807
-0.154279
-0.141608
-0.129749
-0.118657
-0.108287
-0.0985974
-0.0895507
-0.081125
-0.0732178
-0.0657844
-0.452626
-0.445136
-0.438355
-0.430776
-0.421331
-0.409708
-0.395812
-0.379742
-0.361805
-0.342458
-0.322227
-0.301633
-0.281138
-0.261107
-0.241799
-0.223381
-0.205938
-0.189501
-0.174064
-0.159598
-0.14606
-0.133405
-0.121584
-0.110548
-0.100251
-0.0906477
-0.0816998
-0.0733882
-0.0656056
-0.0583041
-0.451347
-0.443934
-0.437111
-0.429311
-0.419439
-0.407195
-0.392528
-0.375602
-0.356796
-0.336628
-0.31567
-0.294468
-0.273488
-0.253086
-0.233507
-0.214898
-0.19733
-0.18082
-0.16535
-0.150883
-0.137373
-0.124767
-0.113015
-0.102064
-0.091867
-0.0823732
-0.0735447
-0.0653627
-0.0576978
-0.0504599
-0.448731
-0.441427
-0.434577
-0.426557
-0.416258
-0.403396
-0.387973
-0.370223
-0.350597
-0.329672
-0.308062
-0.286329
-0.264939
-0.244239
-0.224455
-0.205717
-0.188078
-0.171544
-0.156085
-0.141659
-0.128213
-0.115692
-0.104041
-0.0932063
-0.0831357
-0.0737769
-0.065092
-0.0570615
-0.0495095
-0.0422143
-0.444704
-0.437543
-0.43068
-0.422445
-0.411722
-0.398253
-0.382099
-0.363567
-0.343179
-0.32157
-0.299386
-0.277204
-0.255485
-0.234561
-0.21464
-0.195833
-0.178179
-0.161669
-0.146268
-0.131925
-0.118582
-0.106181
-0.0946641
-0.0839754
-0.0740601
-0.0648634
-0.0563484
-0.0484914
-0.0410858
-0.0338662
-0.439205
-0.432216
-0.425356
-0.416913
-0.405774
-0.391718
-0.374866
-0.355603
-0.334521
-0.312306
-0.289634
-0.267087
-0.245121
-0.224048
-0.204058
-0.185244
-0.16763
-0.151196
-0.135898
-0.12168
-0.108479
-0.096235
-0.0848863
-0.0743756
-0.0646447
-0.0556389
-0.0473237
-0.0396651
-0.0323798
-0.0254724
-0.432179
-0.425393
-0.418549
-0.409909
-0.398369
-0.38375
-0.366243
-0.34631
-0.32461
-0.301875
-0.278802
-0.25598
-0.233848
-0.212702
-0.192712
-0.173953
-0.156435
-0.140128
-0.124979
-0.110929
-0.0979101
-0.085859
-0.0747123
-0.0644129
-0.0548963
-0.0461091
-0.0380203
-0.0305773
-0.0234681
-0.0168935
-0.423582
-0.417027
-0.410217
-0.40139
-0.389469
-0.374322
-0.356211
-0.335677
-0.313439
-0.290274
-0.266894
-0.243884
-0.22167
-0.200527
-0.180606
-0.161964
-0.144598
-0.128468
-0.113517
-0.0996768
-0.0868804
-0.0750605
-0.0641511
-0.0540922
-0.0448207
-0.0362808
-0.0284435
-0.0212416
-0.0143473
-0.00809717
-0.413382
-0.407083
-0.400323
-0.391326
-0.379049
-0.363414
-0.344759
-0.323698
-0.301012
-0.277511
-0.253918
-0.23081
-0.208598
-0.187534
-0.167749
-0.149286
-0.132127
-0.116226
-0.101518
-0.0879339
-0.0753995
-0.0638469
-0.0532094
-0.0434237
-0.0344267
-0.0261619
-0.0186017
-0.0116667
-0.00501213
0.000913886
-0.401555
-0.395539
-0.388846
-0.379698
-0.367095
-0.351019
-0.331886
-0.310381
-0.287339
-0.263597
-0.239887
-0.216772
-0.194644
-0.173734
-0.154154
-0.13593
-0.119034
-0.103415
-0.088997
-0.0757095
-0.0634775
-0.0522297
-0.0418981
-0.0324178
-0.0237246
-0.0157622
-0.00850456
-0.0018601
0.00453596
0.0101286
-0.388092
-0.382381
-0.375772
-0.366495
-0.353602
-0.33714
-0.3176
-0.295738
-0.272435
-0.248553
-0.22482
-0.201789
-0.179827
-0.159145
-0.139836
-0.121912
-0.105336
-0.0900453
-0.0759648
-0.0630178
-0.0511278
-0.0402217
-0.03023
-0.0210868
-0.0127264
-0.00509325
0.00183698
0.00816897
0.0142893
0.0195351
-0.372992
-0.367609
-0.361102
-0.35172
-0.338578
-0.32179
-0.30192
-0.279791
-0.256327
-0.232402
-0.208744
-0.185884
-0.164169
-0.143788
-0.124816
-0.107251
-0.0910476
-0.0761363
-0.0624386
-0.0498745
-0.0383659
-0.0278379
-0.0182199
-0.0094448
-0.00144595
0.00583152
0.0124102
0.018409
0.0242366
0.0291204
-0.356267
-0.35123
-0.344845
-0.335387
-0.322041
-0.30499
-0.284873
-0.262571
-0.239043
-0.215177
-0.191687
-0.169086
-0.147696
-0.127687
-0.109116
-0.0919688
-0.0761907
-0.0617075
-0.0484375
-0.0362982
-0.0252095
-0.0150954
-0.00588439
0.00249196
0.0101011
0.016997
0.0232006
0.0288461
0.0343637
0.0388705
-0.337939
-0.333268
-0.327024
-0.317519
-0.304018
-0.286773
-0.266493
-0.244114
-0.220624
-0.196915
-0.173684
-0.151426
-0.13044
-0.110871
-0.0927633
-0.0760898
-0.060789
-0.0467817
-0.0339833
-0.0223094
-0.0116784
-0.00201341
0.00675819
0.0147057
0.0218974
0.028386
0.0341915
0.039464
0.044654
0.0487695
-0.318043
-0.313752
-0.30767
-0.298152
-0.284548
-0.26718
-0.246825
-0.224467
-0.201116
-0.177663
-0.154769
-0.132942
-0.112433
-0.0933729
-0.075788
-0.059643
-0.0448694
-0.0313842
-0.0191
-0.00793099
0.00220544
0.0113873
0.0196877
0.0271768
0.0339238
0.03998
0.0453646
0.0502441
0.0550884
0.0587993
-0.296621
-0.292726
-0.286826
-0.277331
-0.263678
-0.246262
-0.225921
-0.203681
-0.180564
-0.157446
-0.135003
-0.113678
-0.0937166
-0.0752277
-0.0582237
-0.0426598
-0.0284616
-0.0155428
-0.00381404
0.0068119
0.0164184
0.0250839
0.0328823
0.0398844
0.0461599
0.0517586
0.0566995
0.061166
0.0656451
0.0689378
-0.273728
-0.270241
-0.264545
-0.255109
-0.241466
-0.224079
-0.203841
-0.18181
-0.159016
-0.136342
-0.114423
-0.0936771
-0.0743315
-0.0564752
-0.0401073
-0.0251746
-0.011598
0.000711933
0.011846
0.0218923
0.0309348
0.0390523
0.046319
0.0528062
0.0585838
0.0637001
0.0681745
0.072207
0.0762985
0.0791552
-0.24943
-0.246359
-0.240889
-0.23155
-0.217977
-0.200696
-0.180644
-0.158911
-0.136548
-0.1144
-0.0930829
-0.0729896
-0.0543241
-0.0371581
-0.0214785
-0.00722477
0.00568659
0.0173473
0.0278493
0.0372814
0.0457276
0.053267
0.0599736
0.065919
0.071173
0.0757821
0.079767
0.0833425
0.0870179
0.0894155
-0.223799
-0.22115
-0.215928
-0.206729
-0.193286
-0.176175
-0.156396
-0.135069
-0.113219
-0.0916788
-0.0710405
-0.051668
-0.0337434
-0.0173221
-0.00238008
0.0111498
0.0233548
0.0343283
0.0441632
0.0529484
0.0607681
0.067701
0.0738208
0.0791991
0.0839047
0.0879822
0.0914537
0.0945468
0.0977715
0.0996879
-0.196914
-0.194694
-0.189743
-0.180725
-0.167456
-0.150601
-0.131194
-0.110351
-0.089098
-0.0682456
-0.0483568
-0.0297687
-0.0126418
0.00298401
0.0171425
0.0299067
0.0413668
0.0516178
0.0607529
0.0688612
0.0760264
0.0823265
0.0878349
0.0926224
0.0967562
0.100278
0.103213
0.105797
0.108534
0.109949
-0.168848
-0.16708
-0.162419
-0.153611
-0.140589
-0.12407
-0.105108
-0.0848344
-0.0642594
-0.0441687
-0.0250959
-0.00735116
0.00892555
0.0237088
0.0370412
0.049001
0.0596809
0.0691768
0.0775822
0.0849859
0.091471
0.0971146
0.101989
0.106165
0.109705
0.112648
0.115024
0.11708
0.119289
0.120134
-0.139674
-0.138411
-0.134059
-0.125493
-0.112781
-0.0966652
-0.0782278
-0.0586019
-0.0387805
-0.0195204
-0.00132482
0.0155222
0.0309006
0.0447982
0.0572658
0.0683858
0.0782531
0.0869644
0.094613
0.101287
0.107069
0.112036
0.116257
0.119802
0.122728
0.12507
0.126873
0.128384
0.129986
0.130086
-0.109491
-0.10884
-0.104736
-0.0964694
-0.0841243
-0.0684809
-0.050643
-0.0317398
-0.0127421
0.00562423
0.0228866
0.0387866
0.053223
0.066196
0.0777636
0.088012
0.0970377
0.104938
0.111805
0.117728
0.122787
0.127058
0.130611
0.13351
0.135806
0.137533
0.138756
0.139692
0.140511
0.139634
-0.0785437
-0.0783394
-0.0745793
-0.0666489
-0.0547219
-0.0396165
-0.0224486
-0.00433747
0.0137724
0.0311875
0.047466
0.0623748
0.0758302
0.0878438
0.0984802
0.107829
0.115987
0.123053
0.129118
0.134271
0.13859
0.142151
0.145023
0.147265
0.148923
0.150036
0.150694
0.151012
0.150805
0.148821
-0.0468527
-0.0470844
-0.043698
-0.0361388
-0.0246804
-0.0101748
0.00625768
0.0235133
0.040677
0.0570893
0.0723391
0.0862175
0.0986576
0.109681
0.119359
0.127784
0.135053
0.141263
0.146509
0.150874
0.15444
0.15728
0.159461
0.16104
0.162061
0.162582
0.162709
0.162395
0.161081
0.158183
-0.0145192
-0.015205
-0.0122051
-0.00505055
0.00589026
0.0197385
0.0353755
0.0517182
0.0678839
0.0832478
0.0974297
0.110244
0.121639
0.131647
0.140344
0.147823
0.154183
0.159523
0.163933
0.167499
0.170299
0.172408
0.173891
0.174803
0.175192
0.175139
0.174755
0.173785
0.171424
0.169799
0.0183295
0.0171815
0.0197822
0.0265
0.0368775
0.0500155
0.0648028
0.0801814
0.0953034
0.10958
0.12266
0.134381
0.144707
0.153678
0.161374
0.167891
0.173328
0.177782
0.181345
0.184101
0.186127
0.187497
0.188276
0.188518
0.188276
0.187643
0.186699
0.185115
0.182404
0.181447
0.0515663
0.0499541
0.0521429
0.0583941
0.0681665
0.0805464
0.0944358
0.108806
0.122845
0.136
0.147951
0.158557
0.167794
0.17571
0.182391
0.187932
0.192434
0.195993
0.1987
0.200637
0.201883
0.202509
0.20258
0.20215
0.201277
0.200052
0.198526
0.196378
0.193378
0.192359
0.0850641
0.0829883
0.0847537
0.0905113
0.0996408
0.11122
0.12417
0.137492
0.150416
0.162424
0.173224
0.182696
0.190829
0.197679
0.203333
0.207889
0.211448
0.214105
0.21595
0.217065
0.217526
0.217405
0.216765
0.215662
0.214155
0.212332
0.210226
0.207557
0.204239
0.202882
0.118695
0.116158
0.11749
0.12273
0.131183
0.141925
0.153899
0.166143
0.177925
0.188765
0.198398
0.206723
0.213743
0.219518
0.22414
0.227706
0.230318
0.232069
0.233049
0.233339
0.233014
0.232145
0.230794
0.229017
0.226874
0.224449
0.221765
0.218577
0.21488
0.213083
0.152329
0.149335
0.150226
0.154927
0.162676
0.172549
0.183518
0.194659
0.205281
0.214937
0.223394
0.230565
0.236466
0.241164
0.24475
0.247326
0.248989
0.249835
0.24995
0.249416
0.248306
0.24669
0.24463
0.24218
0.239402
0.236372
0.233112
0.229401
0.225285
0.223002
0.185837
0.182393
0.182837
0.186981
0.194001
0.202981
0.212922
0.222942
0.23239
0.240856
0.24813
0.254147
0.258929
0.26255
0.265103
0.26669
0.267408
0.267352
0.266606
0.265251
0.263361
0.261002
0.258236
0.255117
0.251705
0.248074
0.244238
0.24
0.235445
0.232651
0.219091
0.215204
0.215195
0.218769
0.225042
0.233109
0.242007
0.250894
0.259162
0.266435
0.272529
0.277393
0.281062
0.283611
0.285138
0.285743
0.285523
0.28457
0.282971
0.280803
0.278138
0.275043
0.271577
0.267795
0.263753
0.259524
0.255117
0.250351
0.245346
0.242029
0.251963
0.24764
0.247178
0.250171
0.255683
0.262824
0.270668
0.278418
0.285506
0.29159
0.29651
0.300232
0.302796
0.304285
0.304795
0.304428
0.30328
0.301442
0.298998
0.296026
0.292597
0.288774
0.284618
0.28018
0.275516
0.270695
0.265723
0.260434
0.254977
0.251128
0.284325
0.279578
0.278662
0.281067