/*--------------------------------*- C++ -*----------------------------------*\
  =========                 |
  \\      /  F ield         | OpenFOAM: The Open Source CFD Toolbox
   \\    /   O peration     | Website:  https://openfoam.org
    \\  /    A nd           | Version:  7
     \\/     M anipulation  |
\*---------------------------------------------------------------------------*/
FoamFile
{
    version     2.0;
    format      ascii;
    class       surfaceScalarField;
    location    "71";
    object      phi;
}
// * * * * * * * * * * * * * * * * * * * * * * * * * * * * * * * * * * * * * //

dimensions      [0 3 -1 0 0 0 0];

internalField   nonuniform List<scalar> 
79480
(
-7.64948e-07
-3.59335e-06
4.3583e-06
-2.94406e-06
-9.94898e-06
1.21281e-05
-6.48315e-06
-1.57227e-05
1.92618e-05
-1.13262e-05
-2.08827e-05
2.57257e-05
-1.74146e-05
-2.54099e-05
3.14983e-05
-2.46882e-05
-2.93001e-05
3.65737e-05
-3.30852e-05
-3.25651e-05
4.09621e-05
-4.2543e-05
-3.52312e-05
4.4689e-05
-5.29985e-05
-3.73385e-05
4.7794e-05
-6.43891e-05
-3.8938e-05
5.03286e-05
-7.66525e-05
-4.00888e-05
5.23522e-05
-8.97278e-05
-4.08534e-05
5.39286e-05
-0.000103555
-4.12935e-05
5.51208e-05
-0.000118076
-4.14648e-05
5.5986e-05
-0.000133235
-4.14124e-05
5.65709e-05
-0.000148976
-4.11666e-05
5.69078e-05
-0.000165247
-4.07396e-05
5.70107e-05
-0.000181998
-4.01227e-05
5.68736e-05
-0.000199182
-3.92848e-05
5.6469e-05
-0.000216759
-3.81711e-05
5.57475e-05
-0.000234694
-3.67025e-05
5.46379e-05
-0.000252968
-3.47746e-05
5.30482e-05
-0.000271576
-3.22566e-05
5.08647e-05
-0.000290538
-2.89897e-05
4.79524e-05
-0.000309906
-2.47844e-05
4.41524e-05
-0.000329768
-1.94175e-05
3.92791e-05
-0.000350253
-1.26301e-05
3.31154e-05
-0.000371534
-4.12772e-06
2.54079e-05
-0.000393809
6.42655e-06
1.5849e-05
1.95164e-05
4.01342e-06
-0.000417339
-7.75269e-07
-2.81808e-06
-2.98109e-06
-7.74315e-06
-6.55972e-06
-1.21441e-05
-1.14515e-05
-1.59909e-05
-1.75945e-05
-1.92669e-05
-2.4925e-05
-2.19696e-05
-3.33783e-05
-2.41118e-05
-4.2889e-05
-2.57206e-05
-5.33915e-05
-2.68359e-05
-6.4821e-05
-2.75085e-05
-7.71132e-05
-2.77965e-05
-9.02053e-05
-2.77613e-05
-0.000104036
-2.7463e-05
-0.000118545
-2.69559e-05
-0.000133673
-2.62838e-05
-0.000149364
-2.54754e-05
-0.000165562
-2.45416e-05
-0.000182213
-2.34719e-05
-0.000199266
-2.22324e-05
-0.000216673
-2.07641e-05
-0.000234394
-1.89812e-05
-0.0002524
-1.67687e-05
-0.000270676
-1.39801e-05
-0.000289232
-1.04343e-05
-0.000308103
-5.91278e-06
-0.000327365
-1.56075e-07
-0.00034713
7.1355e-06
-0.000367551
1.6293e-05
-0.000388813
2.76886e-05
4.18482e-05
-0.000411145
-7.79877e-07
-2.03821e-06
-2.99669e-06
-5.52633e-06
-6.58993e-06
-8.55082e-06
-1.1497e-05
-1.10838e-05
-1.76531e-05
-1.31108e-05
-2.49917e-05
-1.46311e-05
-3.34451e-05
-1.56584e-05
-4.29454e-05
-1.62203e-05
-5.34247e-05
-1.63566e-05
-6.48156e-05
-1.61176e-05
-7.70518e-05
-1.55603e-05
-9.00681e-05
-1.47449e-05
-0.000103801
-1.37302e-05
-0.000118187
-1.25694e-05
-0.000133166
-1.1305e-05
-0.000148676
-9.96531e-06
-0.000164658
-8.56035e-06
-0.00018105
-7.07903e-06
-0.000197796
-5.48638e-06
-0.00021484
-3.72099e-06
-0.000232129
-1.69224e-06
-0.00024962
7.23049e-07
-0.000267285
3.68466e-06
-0.000285113
7.39336e-06
-0.000303121
1.20952e-05
-0.000321361
1.80845e-05
-0.000339928
2.57023e-05
-0.000358954
3.53191e-05
-0.000378605
4.73392e-05
6.23316e-05
-0.000399088
-7.78936e-07
-1.25927e-06
-2.99147e-06
-3.31379e-06
-6.57512e-06
-4.96718e-06
-1.14651e-05
-6.1939e-06
-1.75941e-05
-6.9818e-06
-2.48931e-05
-7.33204e-06
-3.32921e-05
-7.25937e-06
-4.27206e-05
-6.79175e-06
-5.31082e-05
-5.96901e-06
-6.43853e-05
-4.84062e-06
-7.64829e-05
-3.46273e-06
-8.93334e-05
-1.89438e-06
-0.00010287
-1.93433e-07
-0.000117027
1.58792e-06
-0.00013174
3.4074e-06
-0.000146942
5.23674e-06
-0.000162568
7.06527e-06
-0.00017855
8.90323e-06
-0.000194821
1.07848e-05
-0.000211313
1.27715e-05
-0.000227961
1.49557e-05
-0.000244704
1.74656e-05
-0.00026149
2.04708e-05
-0.000278286
2.41888e-05
-0.000295081
2.88906e-05
-0.000311901
3.49048e-05
-0.000328814
4.26153e-05
-0.000345933
5.24375e-05
-0.000363405
6.48113e-05
8.03515e-05
-0.000381425
-7.727e-07
-4.86572e-07
-2.96637e-06
-1.12012e-06
-6.51727e-06
-1.41627e-06
-1.1359e-05
-1.3522e-06
-1.74223e-05
-9.18466e-07
-2.46362e-05
-1.18164e-07
-3.29283e-05
1.03275e-06
-4.22258e-05
2.50576e-06
-5.24559e-05
4.26108e-06
-6.35463e-05
6.24975e-06
-7.54254e-05
8.41642e-06
-8.80227e-05
1.07029e-05
-0.000101268
1.30521e-05
-0.000115093
1.54121e-05
-0.000129425
1.77403e-05
-0.000144196
2.00073e-05
-0.000159331
2.22005e-05
-0.000174755
2.43274e-05
-0.00019039
2.6419e-05
-0.000206152
2.8534e-05
-0.00022196
3.07631e-05
-0.000237729
3.32353e-05
-0.000253384
3.61258e-05
-0.00026886
3.96643e-05
-0.000284113
4.41436e-05
-0.000299134
4.99263e-05
-0.000313961
5.74423e-05
-0.000328684
6.71598e-05
-0.000343436
7.95637e-05
9.53241e-05
-0.000358409
-7.61509e-07
2.74938e-07
-2.92262e-06
1.04099e-06
-6.419e-06
2.0801e-06
-1.11831e-05
3.41192e-06
-1.71443e-05
5.04276e-06
-2.42298e-05
6.96727e-06
-3.23651e-05
9.16804e-06
-4.14751e-05
1.16158e-05
-5.14845e-05
1.42705e-05
-6.23183e-05
1.70836e-05
-7.3902e-05
2.00001e-05
-8.61617e-05
2.29626e-05
-9.90238e-05
2.59142e-05
-0.000112414
2.88025e-05
-0.000126258
3.15839e-05
-0.000140477
3.42266e-05
-0.000154991
3.67145e-05
-0.000169714
3.90503e-05
-0.000184554
4.12595e-05
-0.000199414
4.33942e-05
-0.000214191
4.55393e-05
-0.000228775
4.78197e-05
-0.00024306
5.04106e-05
-0.000256944
5.35485e-05
-0.000270345
5.7544e-05
-0.00028321
6.27918e-05
-0.00029554
6.97723e-05
-0.000307399
7.90189e-05
-0.000318912
9.10762e-05
0.000106689
-0.000330276
-7.45773e-07
1.02071e-06
-2.8617e-06
3.15692e-06
-6.28341e-06
5.50181e-06
-1.09427e-05
8.0712e-06
-1.67678e-05
1.08678e-05
-2.36842e-05
1.38837e-05
-3.16157e-05
1.70995e-05
-4.04847e-05
2.04848e-05
-5.02134e-05
2.39992e-05
-6.07238e-05
2.7594e-05
-7.19381e-05
3.12145e-05
-8.37788e-05
3.48033e-05
-9.61678e-05
3.83032e-05
-0.000109026
4.1661e-05
-0.000122273
4.48307e-05
-0.000135824
4.77772e-05
-0.000149589
5.04792e-05
-0.000163471
5.29324e-05
-0.000177365
5.51537e-05
-0.000191156
5.7185e-05
-0.000204717
5.91007e-05
-0.000217913
6.10158e-05
-0.000230601
6.30986e-05
-0.000242638
6.55858e-05
-0.000253894
6.87994e-05
-0.000264266
7.31637e-05
-0.000273707
7.92141e-05
-0.000282253
8.75647e-05
-0.00029002
9.88425e-05
0.000113895
-0.000297226
-7.2596e-07
1.74667e-06
-2.78533e-06
5.21629e-06
-6.11407e-06
8.83055e-06
-1.06436e-05
1.26008e-05
-1.63013e-05
1.65255e-05
-2.30112e-05
2.05936e-05
-3.06949e-05
2.47833e-05
-3.92728e-05
2.90627e-05
-4.8664e-05
3.33904e-05
-5.87873e-05
3.77173e-05
-6.95614e-05
4.19886e-05
-8.09043e-05
4.61462e-05
-9.27335e-05
5.01323e-05
-0.000104964
5.38918e-05
-0.000117509
5.73757e-05
-0.000130276
6.05439e-05
-0.000143165
6.33684e-05
-0.000156068
6.58357e-05
-0.000168866
6.79509e-05
-0.000181423
6.97421e-05
-0.00019359
7.12678e-05
-0.000205201
7.26266e-05
-0.000216074
7.39721e-05
-0.00022602
7.55322e-05
-0.000234853
7.76324e-05
-0.000242411
8.07211e-05
-0.000248589
8.53918e-05
-0.000253383
9.23594e-05
-0.000256902
0.000102361
0.000116385
-0.000259392
-7.02592e-07
2.44926e-06
-2.69537e-06
7.20906e-06
-5.91488e-06
1.20501e-05
-1.02924e-05
1.69783e-05
-1.57543e-05
2.19875e-05
-2.22233e-05
2.70625e-05
-2.96189e-05
3.21789e-05
-3.78588e-05
3.73025e-05
-4.6859e-05
4.23906e-05
-5.65348e-05
4.73931e-05
-6.68006e-05
5.22544e-05
-7.75699e-05
5.69155e-05
-8.87544e-05
6.13168e-05
-0.000100263
6.54009e-05
-0.000112002
6.91145e-05
-0.00012387
7.24116e-05
-0.000135757
7.52555e-05
-0.000147543
7.76213e-05
-0.000159092
7.94996e-05
-0.00017025
8.09004e-05
-0.000180843
8.18609e-05
-0.000190672
8.24562e-05
-0.000199517
8.28165e-05
-0.000207135
8.31502e-05
-0.000213277
8.37748e-05
-0.000217711
8.51544e-05
-0.000220259
8.79402e-05
-0.000220869
9.29698e-05
-0.000219635
0.000101127
0.000113569
-0.000216819
-6.76224e-07
3.12549e-06
-2.59381e-06
9.12664e-06
-5.68999e-06
1.51462e-05
-9.89583e-06
2.11841e-05
-1.51368e-05
2.72284e-05
-2.13339e-05
3.32596e-05
-2.84044e-05
3.92494e-05
-3.62629e-05
4.51611e-05
-4.48221e-05
5.09498e-05
-5.3993e-05
5.6564e-05
-6.36853e-05
6.19466e-05
-7.38069e-05
6.70371e-05
-8.42636e-05
7.17735e-05
-9.49576e-05
7.60949e-05
-0.000105786
7.99429e-05
-0.000116638
8.32641e-05
-0.000127395
8.60116e-05
-0.00013792
8.81471e-05
-0.000148064
8.96434e-05
-0.000157652
9.04888e-05
-0.000166485
9.06937e-05
-0.000174332
9.03027e-05
-0.000180928
8.94123e-05
-0.000185977
8.81992e-05
-0.000189161
8.69588e-05
-0.000190163
8.61568e-05
-0.000188719
8.64962e-05
-0.000184708
8.89592e-05
-0.000178201
9.46193e-05
0.000104805
-0.000169437
-6.47432e-07
3.77292e-06
-2.48271e-06
1.09619e-05
-5.44366e-06
1.81072e-05
-9.46097e-06
2.52014e-05
-1.44589e-05
3.22264e-05
-2.03565e-05
3.91571e-05
-2.70683e-05
4.59612e-05
-3.45057e-05
5.25984e-05
-4.25769e-05
5.90211e-05
-5.11884e-05
6.51755e-05
-6.02442e-05
7.10024e-05
-6.9646e-05
7.64389e-05
-7.92924e-05
8.14199e-05
-8.90775e-05
8.588e-05
-9.88893e-05
8.97547e-05
-0.000108607
9.29818e-05
-0.000118098
9.55026e-05
-0.000127214
9.72633e-05
-0.000135787
9.82163e-05
-0.000143623
9.83243e-05
-0.000150495
9.75662e-05
-0.00015614
9.59481e-05
-0.000160252
9.35233e-05
-0.000162475
9.04228e-05
-0.000162419
8.69024e-05
-0.000159672
8.34101e-05
-0.000153862
8.0686e-05
-0.000144777
7.98745e-05
-0.00013247
8.23118e-05
8.93774e-05
-0.000117042
-6.168e-07
4.38972e-06
-2.36417e-06
1.27093e-05
-5.1802e-06
2.09232e-05
-8.99486e-06
2.90161e-05
-1.37308e-05
3.69624e-05
-1.93046e-05
4.47309e-05
-2.56276e-05
5.22842e-05
-3.2607e-05
5.95777e-05
-4.01463e-05
6.65605e-05
-4.81463e-05
7.31755e-05
-5.65044e-05
7.93606e-05
-6.51151e-05
8.50496e-05
-7.38686e-05
9.01734e-05
-8.26496e-05
9.4661e-05
-9.13353e-05
9.84404e-05
-9.97931e-05
0.00010144
-0.000107877
0.000103586
-0.000115422
0.000104809
-0.000122243
0.000105037
-0.000128124
0.000104205
-0.000132812
0.000102255
-0.000136011
9.91472e-05
-0.000137371
9.48826e-05
-0.000136479
8.95314e-05
-0.000132867
8.32899e-05
-0.000126021
7.65642e-05
-0.000115439
7.01039e-05
-0.000100773
6.52088e-05
-8.21456e-05
6.36843e-05
6.66305e-05
-5.93988e-05
-5.84905e-07
4.97462e-06
-2.24022e-06
1.43646e-05
-4.9038e-06
2.35868e-05
-8.50434e-06
3.26166e-05
-1.29623e-05
4.14204e-05
-1.81911e-05
4.99598e-05
-2.40982e-05
5.81913e-05
-3.05858e-05
6.60653e-05
-3.75517e-05
7.35264e-05
-4.489e-05
8.05137e-05
-5.24905e-05
8.69611e-05
-6.02388e-05
9.27979e-05
-6.80154e-05
9.79499e-05
-7.56938e-05
0.000102339
-8.31387e-05
0.000105885
-9.02034e-05
0.000108504
-9.67257e-05
0.000110109
-0.000102524
0.000110607
-0.000107391
0.000109905
-0.000111088
0.000107902
-0.000113335
0.000104502
-0.000113802
9.96138e-05
-0.000112095
9.31751e-05
-0.000107745
8.51816e-05
-0.000100203
7.57482e-05
-8.88482e-05
6.52093e-05
-7.30294e-05
5.4285e-05
-5.21476e-05
4.4327e-05
-2.61649e-05
3.77017e-05
3.8328e-05
2.13757e-06
-5.52296e-07
5.52692e-06
-2.11279e-06
1.59251e-05
-4.61841e-06
2.60924e-05
-7.99582e-06
3.5994e-05
-1.21625e-05
4.55871e-05
-1.7028e-05
5.48252e-05
-2.24947e-05
6.36579e-05
-2.8459e-05
7.20296e-05
-3.4812e-05
7.98794e-05
-4.14397e-05
8.71413e-05
-4.82228e-05
9.37442e-05
-5.50365e-05
9.96117e-05
-6.17496e-05
0.000104663
-6.82221e-05
0.000108812
-7.4304e-05
0.000111967
-7.98314e-05
0.000114032
-8.46235e-05
0.000114901
-8.84772e-05
0.000114461
-9.11619e-05
0.000112589
-9.24119e-05
0.000109152
-9.19168e-05
0.000104007
-8.93104e-05
9.70074e-05
-8.41555e-05
8.80202e-05
-7.59273e-05
7.69535e-05
-6.3998e-05
6.38189e-05
-4.76343e-05
4.88456e-05
-2.60223e-05
3.2673e-05
1.56142e-06
1.67432e-05
3.57661e-05
3.49704e-06
-1.23266e-06
7.53267e-05
-5.19486e-07
6.0464e-06
-1.98366e-06
1.73893e-05
-4.32762e-06
2.84364e-05
-7.47508e-06
3.91415e-05
-1.13396e-05
4.94516e-05
-1.58256e-05
5.93113e-05
-2.08297e-05
6.8662e-05
-2.62412e-05
7.74411e-05
-3.19429e-05
8.55811e-05
-3.78113e-05
9.30097e-05
-4.37163e-05
9.96492e-05
-4.9521e-05
0.000105416
-5.50796e-05
0.000110222
-6.02365e-05
0.000113969
-6.48233e-05
0.000116554
-6.86558e-05
0.000117864
-7.15299e-05
0.000117775
-7.32171e-05
0.000116148
-7.34581e-05
0.00011283
-7.19552e-05
0.000107649
-6.83629e-05
0.000100414
-6.22752e-05
9.09197e-05
-5.3209e-05
7.89541e-05
-4.05833e-05
6.43279e-05
-2.36933e-05
4.69288e-05
-1.68376e-06
2.68361e-05
2.64033e-05
4.58597e-06
6.16139e-05
-1.84673e-05
0.000104491
-3.93798e-05
-5.15458e-05
0.000154804
-4.86925e-07
6.53333e-06
-1.85439e-06
1.87567e-05
-4.03453e-06
3.06165e-05
-6.947e-06
4.2054e-05
-1.05002e-05
5.30048e-05
-1.45926e-05
6.34036e-05
-1.91132e-05
7.31827e-05
-2.39432e-05
8.2271e-05
-2.89553e-05
9.05933e-05
-3.40151e-05
9.80695e-05
-3.89795e-05
0.000104614
-4.36966e-05
0.000110134
-4.8004e-05
0.000114529
-5.17267e-05
0.000117691
-5.46741e-05
0.000119501
-5.66372e-05
0.000119827
-5.73837e-05
0.000118521
-5.66533e-05
0.000115418
-5.41514e-05
0.000110328
-4.95413e-05
0.000103039
-4.24348e-05
9.33079e-05
-3.23793e-05
8.08642e-05
-1.8841e-05
6.54158e-05
-1.1813e-06
4.66681e-05
2.13745e-05
2.4373e-05
4.97721e-05
-1.56152e-06
8.51713e-05
-3.08131e-05
0.000128821
-6.2117e-05
0.000181729
-9.2288e-05
-0.000113721
0.000243904
-4.54991e-07
6.98832e-06
-1.72623e-06
2.0028e-05
-3.7416e-06
3.26319e-05
-6.41537e-06
4.47277e-05
-9.64955e-06
5.6239e-05
-1.33349e-05
6.7089e-05
-1.7352e-05
7.71998e-05
-2.15716e-05
8.64906e-05
-2.58552e-05
9.48769e-05
-3.00547e-05
0.000102269
-3.40121e-05
0.000108571
-3.75577e-05
0.000113679
-4.0509e-05
0.00011748
-4.26676e-05
0.00011985
-4.38165e-05
0.00012065
-4.37161e-05
0.000119727
-4.20995e-05
0.000116905
-3.86673e-05
0.000111985
-3.30811e-05
0.000104742
-2.49559e-05
9.49139e-05
-1.38507e-05
8.22027e-05
7.43846e-07
6.62697e-05
1.94214e-05
4.67382e-05
4.28833e-05
2.32063e-05
7.19723e-05
-4.71603e-06
0.000107722
-3.7311e-05
0.000151423
-7.45148e-05
0.000204592
-0.000115286
0.000268666
-0.000156362
-0.00018926
0.000344204
-4.23968e-07
7.41229e-06
-1.6001e-06
2.12041e-05
-3.45051e-06
3.44823e-05
-5.88263e-06
4.71599e-05
-8.79051e-06
5.91468e-05
-1.20558e-05
7.03543e-05
-1.55486e-05
8.06926e-05
-1.91279e-05
9.00699e-05
-2.26414e-05
9.83904e-05
-2.59256e-05
0.000105553
-2.88041e-05
0.00011145
-3.10866e-05
0.000115962
-3.25664e-05
0.00011896
-3.30175e-05
0.000120301
-3.21906e-05
0.000119824
-2.98095e-05
0.000117346
-2.55651e-05
0.00011266
-1.91103e-05
0.000105531
-1.00529e-05
9.56847e-05
2.05189e-06
8.28091e-05
1.77106e-05
6.6544e-05
3.7502e-05
4.64783e-05
6.20917e-05
2.21485e-05
9.22531e-05
-6.95504e-06
0.000128898
-4.13607e-05
0.000173131
-8.15439e-05
0.000226341
-0.000127725
0.00029026
-0.000179205
0.000366736
-0.000232837
-0.000279725
0.000457201
-3.94034e-07
7.80632e-06
-1.47648e-06
2.22866e-05
-3.16205e-06
3.61679e-05
-5.34965e-06
4.93475e-05
-7.92372e-06
6.17209e-05
-1.0755e-05
7.31856e-05
-1.37014e-05
8.36389e-05
-1.66077e-05
9.29762e-05
-1.93058e-05
0.000101089
-2.16137e-05
0.000107861
-2.3334e-05
0.00011317
-2.42517e-05
0.000116879
-2.41316e-05
0.00011884
-2.27147e-05
0.000118884
-1.97138e-05
0.000116823
-1.48084e-05
0.00011244
-7.63904e-06
0.000105491
2.19898e-06
9.56926e-05
1.51629e-05
8.27208e-05
3.17698e-05
6.62021e-05
5.26054e-05
4.57083e-05
7.83331e-05
2.07507e-05
0.000109705
-9.22355e-06
0.000147578
-4.48283e-05
0.000192939
-8.67215e-05
0.000246949
-0.000135554
0.000311048
-0.000191824
0.000387105
-0.000255263
0.000477284
-0.000323016
-0.000386626
0.000584184
-3.65243e-07
8.17157e-06
-1.35543e-06
2.32768e-05
-2.87601e-06
3.76885e-05
-4.8156e-06
5.1287e-05
-7.04711e-06
6.39524e-05
-9.42853e-06
7.5567e-05
-1.18032e-05
8.60136e-05
-1.39998e-05
9.51727e-05
-1.58314e-05
0.00010292
-1.70947e-05
0.000109124
-1.75673e-05
0.000113642
-1.70058e-05
0.000116318
-1.51414e-05
0.000116976
-1.16763e-05
0.000115419
-6.27827e-06
0.000111425
1.42498e-06
0.000104737
1.18525e-05
9.50634e-05
2.5477e-05
8.20681e-05
4.28323e-05
6.53655e-05
6.45209e-05
4.45136e-05
9.12214e-05
1.90078e-05
0.000123696
-1.17242e-05
0.000162799
-4.8326e-05
0.000209482
-9.15113e-05
0.000264812
-0.000142051
0.000329997
-0.00020074
0.00040648
-0.000268306
0.000496157
-0.00034494
0.000601338
-0.000428197
-0.000511267
0.000725979
-3.37517e-07
8.50908e-06
-1.23647e-06
2.41757e-05
-2.5911e-06
3.90431e-05
-4.27771e-06
5.29737e-05
-6.15573e-06
6.58304e-05
-8.06815e-06
7.74794e-05
-9.84158e-06
8.7787e-05
-1.12857e-05
9.66169e-05
-1.21921e-05
0.000103827
-1.23325e-05
0.000109265
-1.14558e-05
0.000112766
-9.28502e-06
0.000114147
-5.51261e-06
0.000113203
2.04431e-07
0.000109702
8.25062e-06
0.000103378
1.90586e-05
9.39289e-05
3.31166e-05
8.10054e-05
5.09755e-05
6.42092e-05
7.3257e-05
4.30839e-05
0.000100661
1.71097e-05
0.000133971
-1.43022e-05
0.00017406
-5.18131e-05
0.000221892
-9.61581e-05
0.000278524
-0.000148143
0.000345103
-0.000208631
0.000422877
-0.000278513
0.000513239
-0.000358668
0.000617993
-0.000449693
0.000739371
-0.000549575
-0.00065457
0.000882673
-3.10634e-07
8.81972e-06
-1.11862e-06
2.49837e-05
-2.30485e-06
4.02293e-05
-3.73125e-06
5.44001e-05
-5.24154e-06
6.73407e-05
-6.66138e-06
7.88993e-05
-7.79806e-06
8.89237e-05
-8.43944e-06
9.72582e-05
-8.3522e-06
0.000103739
-7.27926e-06
0.000108192
-4.9364e-06
0.000110423
-1.00792e-06
0.000110219
4.85851e-06
0.000107337
1.30579e-05
0.000101503
2.40349e-05
9.24015e-05
3.8291e-05
7.96728e-05
5.63927e-05
6.29037e-05
7.89793e-05
4.16226e-05
0.00010677
1.5293e-05
0.000140572
-1.66917e-05
0.00018128
-5.50109e-05
0.000229885
-0.000100418
0.000287462
-0.000153736
0.000355169
-0.000215849
0.000434224
-0.000287687
0.000525894
-0.000370183
0.000631481
-0.000464256
0.000752561
-0.000570773
0.000891063
-0.000688077
-0.000816863
0.00105336
-2.84229e-07
9.10395e-06
-1.00033e-06
2.56998e-05
-2.01364e-06
4.12426e-05
-3.16945e-06
5.55559e-05
-4.29339e-06
6.84647e-05
-5.19128e-06
7.97972e-05
-5.64824e-06
8.93807e-05
-5.42711e-06
9.70371e-05
-4.26597e-06
0.000102578
-1.87478e-06
0.000105801
2.06878e-06
0.000106479
7.92464e-06
0.000104363
1.60964e-05
9.91651e-05
2.70382e-05
9.05608e-05
4.12626e-05
7.81771e-05
5.93485e-05
6.15869e-05
8.19493e-05
4.03029e-05
0.000109801
1.37712e-05
0.000143727
-1.86337e-05
0.000184647
-5.76111e-05
0.00023357
-0.000103935
0.000291599
-0.000158446
0.000359911
-0.000222048
0.000439742
-0.00029568
0.000532354
-0.000380298
0.00063899
-0.000476819
0.000760818
-0.000586084
0.000899046
-0.000709
0.00105514
-0.000844173
-0.000997642
0.00123592
-2.57791e-07
9.36174e-06
-8.7953e-07
2.63215e-05
-1.71268e-06
4.20758e-05
-2.58352e-06
5.64267e-05
-3.29709e-06
6.91782e-05
-3.63658e-06
8.01367e-05
-3.36187e-06
8.9106e-05
-2.20726e-06
9.58825e-05
1.21807e-07
0.000100249
3.95282e-06
0.00010197
9.65161e-06
0.000100781
1.76283e-05
9.6386e-05
2.83443e-05
8.84491e-05
4.23203e-05
7.65848e-05
6.01443e-05
6.0353e-05
8.24802e-05
3.9251e-05
0.000110075
1.27077e-05
0.000143768
-1.99213e-05
0.00018449
-5.9356e-05
0.00023327
-0.000106391
0.000291227
-0.000161891
0.000359557
-0.000226777
0.000439514
-0.000302004
0.000532371
-0.000388537
0.000639374
-0.000487302
0.00076168
-0.000599125
0.000900258
-0.000724661
0.0010558
-0.000864541
0.00122929
-0.00101766
-0.00119531
0.00142696
-2.30672e-07
9.59241e-06
-7.53637e-07
2.68445e-05
-1.39609e-06
4.27182e-05
-1.9628e-06
5.69934e-05
-2.23554e-06
6.9451e-05
-1.97192e-06
7.9873e-05
-9.03199e-07
8.80373e-05
1.26861e-06
9.37107e-05
4.87501e-06
9.66428e-05
1.02861e-05
9.65584e-05
1.79166e-05
9.315e-05
2.82331e-05
8.60696e-05
4.17615e-05
7.49206e-05
5.90959e-05
5.92504e-05
8.09067e-05
3.85422e-05
0.000107949
1.22089e-05
0.000141068
-2.04117e-05
0.000181207
-6.00598e-05
0.000229402
-0.000107551
0.000286784
-0.000163773
0.000354558
-0.000229666
0.000433988
-0.000306206
0.000526354
-0.00039437
0.000632905
-0.000495088
0.000754789
-0.000609186
0.00089297
-0.000737307
0.00104814
-0.000879831
0.00122032
-0.00103672
0.00141016
-0.0012075
-0.00140695
0.00162179
-2.02099e-07
9.79451e-06
-6.19603e-07
2.7262e-05
-1.05698e-06
4.31556e-05
-1.29491e-06
5.72313e-05
-1.08905e-06
6.92451e-05
-1.682e-07
7.89522e-05
1.76836e-06
8.61007e-05
5.05518e-06
9.04239e-05
1.00654e-05
9.16326e-05
1.72166e-05
8.94072e-05
2.69785e-05
8.33881e-05
3.988e-05
7.3168e-05
5.65182e-05
5.82825e-05
7.75666e-05
3.82021e-05
0.000103783
1.23255e-05
0.000136018
-2.00256e-05
0.000175216
-5.96095e-05
0.000222418
-0.000107262
0.000278757
-0.000163891
0.000345443
-0.000230459
0.000423739
-0.000307961
0.000514923
-0.000397391
0.00062024
-0.000499687
0.000740826
-0.000615674
0.000877623
-0.000745983
0.00103128
-0.000890962
0.00120209
-0.00105064
0.0013893
-0.00122394
0.00159347
-0.00141167
-0.00162812
0.00181464
-1.71189e-07
9.9657e-06
-4.73983e-07
2.75648e-05
-6.87631e-07
4.33693e-05
-5.66014e-07
5.71097e-05
1.64286e-07
6.85148e-05
1.80643e-06
7.731e-05
4.69732e-06
8.32098e-05
9.21209e-06
8.59091e-05
1.57702e-05
8.50745e-05
2.48425e-05
8.03349e-05
3.69588e-05
7.12718e-05
5.27167e-05
5.74102e-05
7.27895e-05
3.82096e-05
9.79352e-05
1.30564e-05
0.000129002
-1.87417e-05
0.000166935
-5.79586e-05
0.000212774
-0.000105448
0.000267647
-0.000162136
0.000332762
-0.000229005
0.000409374
-0.000307071
0.000498754
-0.000397342
0.000602133
-0.00050077
0.00072063
-0.000618184
0.000855164
-0.000750207
0.00100635
-0.000897169
0.00117438
-0.00105899
0.001359
-0.00123526
0.00155869
-0.00142363
0.00177412
-0.0016271
-0.00185292
0.00199893
-1.36973e-07
1.01027e-05
-3.13014e-07
2.77408e-05
-2.79611e-07
4.33359e-05
2.3884e-07
5.65913e-05
1.54788e-06
6.72058e-05
3.98644e-06
7.48715e-05
7.93115e-06
7.92651e-05
1.38023e-05
8.00379e-05
2.20707e-05
7.68061e-05
3.32653e-05
6.91402e-05
4.79819e-05
5.65553e-05
6.68912e-05
3.85009e-05
9.07475e-05
1.43533e-05
0.000120395
-1.65913e-05
0.000156773
-5.51198e-05
0.000200915
-0.000102101
0.000253943
-0.000158476
0.000317054
-0.000225246
0.000391493
-0.000303444
0.000478517
-0.000394095
0.000579338
-0.000498163
0.000695053
-0.000616485
0.000826556
-0.000749686
0.000974431
-0.000898083
0.00113885
-0.00106158
0.00131943
-0.00123957
0.00151519
-0.00143102
0.00172402
-0.00163245
0.00194631
-0.00184939
-0.0020743
0.00216768
-9.84195e-08
1.02011e-05
-1.32693e-07
2.77751e-05
1.75923e-07
4.30272e-05
1.13532e-06
5.56319e-05
3.08651e-06
6.52546e-05
6.40748e-06
7.15505e-05
1.15188e-05
7.41538e-05
1.88903e-05
7.26664e-05
2.90489e-05
6.66475e-05
4.25867e-05
5.56025e-05
6.01696e-05
3.89724e-05
8.25456e-05
1.61248e-05
0.000110552
-1.36529e-05
0.000145118
-5.11579e-05
0.000187269
-9.72704e-05
0.000238115
-0.000152946
0.000298839
-0.0002192
0.000370674
-0.000297081
0.000454858
-0.000387628
0.000552583
-0.00049182
0.000664921
-0.000610501
0.000792737
-0.000744301
0.000936586
-0.000893535
0.0010966
-0.0010581
0.00127241
-0.00123739
0.001463
-0.00143017
0.00166664
-0.00163466
0.00188092
-0.00184673
0.00210418
-0.00207265
-0.00228418
0.00231406
-5.44674e-08
1.02556e-05
7.10547e-08
2.76496e-05
6.8799e-07
4.24103e-05
2.13958e-06
5.41803e-05
4.80521e-06
6.2589e-05
9.10565e-06
6.72501e-05
1.55094e-05
6.775e-05
2.45403e-05
6.36356e-05
3.67854e-05
5.44024e-05
5.29043e-05
3.94836e-05
7.36365e-05
1.82402e-05
9.9809e-05
-1.00477e-05
0.000132341
-4.61845e-05
0.000172242
-9.10593e-05
0.00022061
-0.000145639
0.000278614
-0.00021095
0.000347467
-0.000288054
0.000428391
-0.000378005
0.000522558
-0.000481794
0.000631015
-0.000600277
0.0007546
-0.000734086
0.000893836
-0.000883537
0.00104883
-0.00104852
0.00121915
-0.00122843
0.00140381
-0.00142204
0.00160119
-0.00162755
0.00180896
-0.00184243
0.00202506
-0.00206284
0.00224376
-0.00229136
-0.00247441
0.002434
-4.04888e-09
1.02596e-05
3.02313e-07
2.73432e-05
1.26589e-06
4.14467e-05
3.2677e-06
5.21785e-05
6.72886e-06
5.91278e-05
1.21165e-05
6.18625e-05
1.99508e-05
5.99157e-05
3.08135e-05
5.27729e-05
4.53559e-05
3.98599e-05
6.43077e-05
2.05319e-05
8.84838e-05
-5.93593e-06
0.000118789
-4.03531e-05
0.000156219
-8.36147e-05
0.000201855
-0.000136695
0.000256847
-0.000200631
0.000322394
-0.000276496
0.000399697
-0.000365357
0.000489909
-0.000468218
0.000594061
-0.000585946
0.000712966
-0.000719182
0.000847125
-0.000868245
0.000996612
-0.00103302
0.00116098
-0.00121289
0.00133918
-0.00140663
0.00152955
-0.00161241
0.00172986
-0.00182785
0.00193733
-0.0020499
0.00215018
-0.00227568
0.00236268
-0.00250386
-0.00270998
0.00259825
5.39559e-08
1.02057e-05
5.65354e-07
2.68318e-05
1.91857e-06
4.00935e-05
4.53534e-06
4.95617e-05
8.88154e-06
5.47816e-05
1.5474e-05
5.527e-05
2.48881e-05
5.05015e-05
3.77668e-05
3.98942e-05
5.48283e-05
2.27984e-05
7.68741e-05
-1.51393e-06
0.000104793
-3.38553e-05
0.000139565
-7.51244e-05
0.000182251
-0.000126301
0.000233984
-0.000188429
0.000295945
-0.000262591
0.000369318
-0.000349869
0.000455241
-0.00045128
0.000554729
-0.000567706
0.000668585
-0.000699802
0.000797296
-0.000847894
0.000940924
-0.00101187
0.001099
-0.0011911
0.00127047
-0.00138436
0.00145362
-0.00158978
0.00164615
-0.00180494
0.00184528
-0.00202699
0.00204799
-0.00225261
0.00225171
-0.0024794
0.00245209
-0.00270424
-0.00291743
0.00265954
1.20559e-07
1.00851e-05
8.64043e-07
2.60883e-05
2.65466e-06
3.83029e-05
5.95742e-06
4.62589e-05
1.12859e-05
4.94532e-05
1.92095e-05
4.73464e-05
3.0362e-05
3.9349e-05
4.54499e-05
2.48064e-05
6.52598e-05
2.9885e-06
9.06641e-05
-2.69182e-05
0.000122623
-6.58138e-05
0.000162179
-0.00011468
0.000210446
-0.000174568
0.000268585
-0.000246568
0.000337766
-0.000331773
0.000419116
-0.000431218
0.00051364
-0.000545804
0.000622139
-0.000676205
0.000745102
-0.000822764
0.000882593
-0.000985385
0.00103416
-0.00116343
0.00119872
-0.00135567
0.00137459
-0.00156022
0.00155943
-0.00177463
0.00175043
-0.00199594
0.00194444
-0.002221
0.00213827
-0.00244645
0.00232898
-0.0026701
0.00251336
-0.00288862
-0.00309868
0.00269462
1.96771e-07
9.88832e-06
1.20214e-06
2.5083e-05
3.48225e-06
3.60228e-05
7.54774e-06
4.21935e-05
1.39624e-05
4.30385e-05
2.33509e-05
3.79578e-05
3.64076e-05
2.62923e-05
5.39037e-05
7.31027e-06
7.66937e-05
-1.98015e-05
0.000105718
-5.59421e-05
0.000141998
-0.000102094
0.000186628
-0.000159311
0.000240752
-0.000228691
0.000305525
-0.000311341
0.000382063
-0.000408311
0.000471373
-0.000520528
0.000574259
-0.00064869
0.000691224
-0.000793171
0.000822357
-0.000953897
0.000967224
-0.00113025
0.00112479
-0.001321
0.00129338
-0.00152426
0.00147069
-0.00173753
0.00165389
-0.00195783
0.00183983
-0.00218188
0.00202522
-0.00240639
0.00220701
-0.00262823
0.00238244
-0.00284554
0.0025491
-0.00305529
-0.00325821
0.00270864
2.8354e-07
9.60478e-06
1.58315e-06
2.37834e-05
4.40875e-06
3.31972e-05
9.31869e-06
3.72835e-05
1.69291e-05
3.54281e-05
2.79219e-05
2.6965e-05
4.30529e-05
1.11613e-05
6.31579e-05
-1.27947e-05
8.91563e-05
-4.57999e-05
0.000122049
-8.8835e-05
0.00016291
-0.000142954
0.000212862
-0.000209263
0.00027305
-0.000288879
0.000344582
-0.000382873
0.000428468
-0.000492197
0.000525528
-0.000617587
0.000636289
-0.000759452
0.000760878
-0.000917759
0.000898909
-0.00109193
0.0010494
-0.00128074
0.00121073
-0.00148233
0.00138064
-0.00169417
0.00155636
-0.00191325
0.00173473
-0.0021362
0.00191249
-0.00235964
0.00208651
-0.00258042
0.00225413
-0.00279585
0.00241318
-0.00300459
0.00256223
-0.00320433
-0.0033983
0.00270231
3.81748e-07
9.22303e-06
2.01026e-06
2.21548e-05
5.44076e-06
2.97667e-05
1.1281e-05
3.14433e-05
2.02009e-05
2.65082e-05
3.29407e-05
1.42252e-05
5.03173e-05
-6.21533e-06
7.32291e-05
-3.57064e-05
0.000102655
-7.52254e-05
0.000139645
-0.000125826
0.000185307
-0.000188617
0.000240771
-0.000264727
0.000307141
-0.000355249
0.000385434
-0.000461166
0.000476491
-0.000583254
0.000580876
-0.000721972
0.000698766
-0.000877342
0.000829842
-0.00104884
0.000973196
-0.00123528
0.00112728
-0.00143483
0.00128993
-0.00164497
0.00145841
-0.00186265
0.00162962
-0.00208446
0.00180033
-0.00230691
0.00196741
-0.00252672
0.00212816
-0.00274116
0.00228052
-0.00294821
0.00242312
-0.00314718
0.00255548
-0.00333669
-0.00352147
0.00267865
4.92202e-07
8.73083e-06
2.48628e-06
2.01608e-05
6.5839e-06
2.56691e-05
1.34433e-05
2.45839e-05
2.37891e-05
1.61624e-05
3.84194e-05
-4.05078e-07
5.82107e-05
-2.60067e-05
8.41188e-05
-6.16146e-05
0.000117173
-0.000108279
0.00015846
-0.000167113
0.000209096
-0.000239253
0.000270185
-0.000325815
0.000342751
-0.000427815
0.000427662
-0.000546077
0.000525526
-0.000681118
0.000636584
-0.000833031
0.000760598
-0.00100136
0.000896755
-0.00118499
0.00104361
-0.00138213
0.00119908
-0.0015903
0.00136053
-0.00180643
0.00152492
-0.00202705
0.00168905
-0.00224859
0.00184979
-0.00246765
0.00200444
-0.00268136
0.00215088
-0.00288761
0.00228781
-0.00308515
0.00241468
-0.00327405
0.00253186
-0.00345387
-0.00363016
0.00264055
6.15622e-07
8.11521e-06
3.01361e-06
1.77628e-05
7.84266e-06
2.084e-05
1.58119e-05
1.66147e-05
2.77005e-05
4.2738e-06
4.4363e-05
-1.70676e-05
6.67315e-05
-4.83752e-05
9.58118e-05
-9.06948e-05
0.000132671
-0.000145138
0.000178411
-0.000212853
0.000234132
-0.000294974
0.000300871
-0.000392554
0.000379523
-0.000506467
0.000470748
-0.000637302
0.00057486
-0.00078523
0.000691715
-0.000949886
0.00082061
-0.00113025
0.000960219
-0.0013246
0.00110858
-0.0015305
0.00126316
-0.00174488
0.00142099
-0.00196426
0.00157892
-0.00218497
0.00173382
-0.00240349
0.00188296
-0.00261679
0.00202417
-0.00282258
0.00215608
-0.00301951
0.00227815
-0.00320721
0.00239056
-0.00338647
0.00249435
-0.00355766
-0.00372666
0.00259085
7.52631e-07
7.36258e-06
3.59414e-06
1.49213e-05
9.22027e-06
1.52139e-05
1.83907e-05
7.4442e-06
3.19376e-05
-9.27312e-06
5.07688e-05
-3.58987e-05
7.58657e-05
-7.34721e-05
0.000108274
-0.000123103
0.00014908
-0.000185945
0.000199381
-0.000263153
0.000260222
-0.000355815
0.000332531
-0.000464863
0.000417022
-0.000590958
0.00051409
-0.000734369
0.000623694
-0.000894835
0.000745259
-0.00107145
0.000877595
-0.00126259
0.00101888
-0.00146588
0.00116669
-0.00167831
0.00131816
-0.00189636
0.00147019
-0.00211628
0.00161965
-0.00233444
0.00176378
-0.00254762
0.00190034
-0.00275335
0.00202784
-0.00295008
0.00214565
-0.00313732
0.00225392
-0.00331549
0.00235346
-0.003486
0.00244571
-0.00364991
-0.00381304
0.0025321
9.03729e-07
6.45885e-06
4.2292e-06
1.15958e-05
1.07184e-05
8.72465e-06
2.11803e-05
-3.01764e-06
3.64971e-05
-2.459e-05
5.76249e-05
-5.70265e-05
8.55855e-05
-0.000101433
0.00012145
-0.000158967
0.000166305
-0.000230801
0.00022121
-0.000318058
0.000287119
-0.000421725
0.000364805
-0.000542549
0.000454746