/*--------------------------------*- C++ -*----------------------------------*\
  =========                 |
  \\      /  F ield         | OpenFOAM: The Open Source CFD Toolbox
   \\    /   O peration     | Website:  https://openfoam.org
    \\  /    A nd           | Version:  7
     \\/     M anipulation  |
\*---------------------------------------------------------------------------*/
FoamFile
{
    version     2.0;
    format      ascii;
    class       volScalarField;
    location    "10";
    object      p;
}
// * * * * * * * * * * * * * * * * * * * * * * * * * * * * * * * * * * * * * //

dimensions      [0 2 -2 0 0 0 0];

internalField   nonuniform List<scalar> 
36
(
-0.188213
-0.189185
-0.190985
-0.193374
-0.174582
-0.177247
-0.180058
-0.181705
-0.158805
-0.148759
-0.138047
-0.127523
-0.117704
-0.108989
-0.101517
-0.0953212
-0.0904017
-0.0867414
-0.0843185
-0.0831125
-0.0903229
-0.0859951
-0.0831466
-0.081732
-0.158805
-0.148759
-0.138047
-0.127523
-0.181705
-0.180058
-0.177247
-0.174582
-0.193374
-0.190985
-0.189185
-0.188213
)
;

boundaryField
{
    inlet
    {
        type            zeroGradient;
    }
    outlet
    {
        type            fixedValue;
        value           nonuniform 0();
    }
    cylinder
    {
        type            zeroGradient;
    }
    top
    {
        type            symmetryPlane;
    }
    bottom
    {
        type            symmetryPlane;
    }
    defaultFaces
    {
        type            empty;
    }
    procBoundary41to39
    {
        type            processor;
        value           nonuniform List<scalar> 4(-0.0882989 -0.0832389 -0.0799351 -0.0782978);
    }
    procBoundary41to40
    {
        type            processor;
        value           nonuniform List<scalar> 
37
(
-0.210826
-0.21193
-0.21413
-0.21738
-0.196079
-0.196079
-0.198761
-0.20175
-0.203414
-0.177112
-0.177112
-0.163622
-0.149384
-0.135834
-0.123484
-0.112727
-0.103636
-0.0961846
-0.0903229
-0.0859951
-0.0831466
-0.081732
-0.177112
-0.177112
-0.163622
-0.149384
-0.135834
-0.0961846
-0.203414
-0.20175
-0.198761
-0.196079
-0.196079
-0.21738
-0.21413
-0.21193
-0.210826
)
;
    }
    procBoundary41to42
    {
        type            processor;
        value           nonuniform List<scalar> 
35
(
-0.166559
-0.167543
-0.169384
-0.171842
-0.171842
-0.153913
-0.156637
-0.159592
-0.161707
-0.161707
-0.126834
-0.11882
-0.111134
-0.104166
-0.0980949
-0.0930003
-0.088918
-0.0858589
-0.083823
-0.0828066
-0.0904017
-0.0867414
-0.0843185
-0.0831125
-0.161707
-0.117704
-0.161707
-0.159592
-0.156637
-0.153913
-0.171842
-0.171842
-0.169384
-0.167543
-0.166559
)
;
    }
    procBoundary41to43
    {
        type            processor;
        value           nonuniform List<scalar> 6(-0.141752 -0.13469 -0.141752 -0.13469 -0.126834 -0.11882);
    }
}


// ************************************************************************* //
