/*--------------------------------*- C++ -*----------------------------------*\
  =========                 |
  \\      /  F ield         | OpenFOAM: The Open Source CFD Toolbox
   \\    /   O peration     | Website:  https://openfoam.org
    \\  /    A nd           | Version:  7
     \\/     M anipulation  |
\*---------------------------------------------------------------------------*/
FoamFile
{
    version     2.0;
    format      ascii;
    class       volScalarField;
    location    "21";
    object      p;
}
// * * * * * * * * * * * * * * * * * * * * * * * * * * * * * * * * * * * * * //

dimensions      [0 2 -2 0 0 0 0];

internalField   nonuniform List<scalar> 
40000
(
-0.268184
-0.269077
-0.269748
-0.270299
-0.270795
-0.27124
-0.271639
-0.272002
-0.272337
-0.272652
-0.272951
-0.273239
-0.273518
-0.27379
-0.274055
-0.274311
-0.274557
-0.274791
-0.275009
-0.275208
-0.275386
-0.27554
-0.275669
-0.275771
-0.275847
-0.275899
-0.275932
-0.27595
-0.275956
-0.275969
-0.26829
-0.269176
-0.269843
-0.27039
-0.270883
-0.271325
-0.271721
-0.272081
-0.272414
-0.272727
-0.273024
-0.27331
-0.273587
-0.273857
-0.27412
-0.274374
-0.274618
-0.27485
-0.275066
-0.275263
-0.275439
-0.27559
-0.275715
-0.275814
-0.275886
-0.275933
-0.275962
-0.275974
-0.275973
-0.275982
-0.268501
-0.269375
-0.270033
-0.270572
-0.271058
-0.271494
-0.271885
-0.27224
-0.272568
-0.272876
-0.273169
-0.273451
-0.273724
-0.27399
-0.274249
-0.2745
-0.27474
-0.274968
-0.27518
-0.275373
-0.275543
-0.275689
-0.275808
-0.275899
-0.275962
-0.276001
-0.276019
-0.276022
-0.276007
-0.276008
-0.268815
-0.26967
-0.270314
-0.270843
-0.271319
-0.271745
-0.272128
-0.272476
-0.272797
-0.273098
-0.273384
-0.27366
-0.273927
-0.274188
-0.274441
-0.274686
-0.274921
-0.275143
-0.275349
-0.275535
-0.275698
-0.275836
-0.275945
-0.276024
-0.276075
-0.2761
-0.276103
-0.276091
-0.276055
-0.276043
-0.269229
-0.27006
-0.270686
-0.271199
-0.271663
-0.272077
-0.272449
-0.272786
-0.273098
-0.27339
-0.273667
-0.273935
-0.274194
-0.274447
-0.274693
-0.27493
-0.275158
-0.275372
-0.27557
-0.275747
-0.2759
-0.276026
-0.276123
-0.276187
-0.276221
-0.276226
-0.27621
-0.276177
-0.276113
-0.276082
-0.269738
-0.270539
-0.271143
-0.271639
-0.272086
-0.272486
-0.272844
-0.273169
-0.273468
-0.273749
-0.274016
-0.274272
-0.274522
-0.274765
-0.275001
-0.275229
-0.275447
-0.275651
-0.275839
-0.276005
-0.276146
-0.276258
-0.276338
-0.276384
-0.276396
-0.276377
-0.276335
-0.276276
-0.276175
-0.276119
-0.270338
-0.271104
-0.271682
-0.272157
-0.272585
-0.272968
-0.273309
-0.273619
-0.273904
-0.274171
-0.274424
-0.274669
-0.274906
-0.275136
-0.275361
-0.275578
-0.275784
-0.275977
-0.276152
-0.276305
-0.276431
-0.276527
-0.276587
-0.27661
-0.276596
-0.276547
-0.276473
-0.276382
-0.276236
-0.276146
-0.271022
-0.271749
-0.272298
-0.27275
-0.273156
-0.273518
-0.273841
-0.274133
-0.274401
-0.274652
-0.27489
-0.275119
-0.275341
-0.275558
-0.275768
-0.275971
-0.276164
-0.276343
-0.276504
-0.276641
-0.276751
-0.276826
-0.276864
-0.276861
-0.276816
-0.27673
-0.276618
-0.276488
-0.276289
-0.27615
-0.271784
-0.272468
-0.272986
-0.273411
-0.273793
-0.274132
-0.274434
-0.274706
-0.274955
-0.275186
-0.275406
-0.275618
-0.275823
-0.276023
-0.276218
-0.276405
-0.276582
-0.276745
-0.276889
-0.277009
-0.277099
-0.277152
-0.277165
-0.277131
-0.27705
-0.276923
-0.276764
-0.276588
-0.276327
-0.276119
-0.272618
-0.273256
-0.27374
-0.274137
-0.274491
-0.274806
-0.275084
-0.275333
-0.275559
-0.27577
-0.275969
-0.27616
-0.276346
-0.276527
-0.276702
-0.276871
-0.27703
-0.277175
-0.277301
-0.277401
-0.277469
-0.277499
-0.277482
-0.277415
-0.277293
-0.277118
-0.276905
-0.276676
-0.276346
-0.276032
-0.273516
-0.274107
-0.274554
-0.27492
-0.275246
-0.275533
-0.275785
-0.276008
-0.27621
-0.276397
-0.276572
-0.27674
-0.276903
-0.277062
-0.277217
-0.277365
-0.277503
-0.277628
-0.277733
-0.277811
-0.277856
-0.277859
-0.277811
-0.277707
-0.277541
-0.277311
-0.277035
-0.276744
-0.276341
-0.275854
-0.274472
-0.275013
-0.275423
-0.275757
-0.276052
-0.276309
-0.276532
-0.276728
-0.276902
-0.277061
-0.27721
-0.277352
-0.27749
-0.277624
-0.277754
-0.277879
-0.277994
-0.278096
-0.278178
-0.278232
-0.278251
-0.278226
-0.278146
-0.278002
-0.277787
-0.277498
-0.277148
-0.276788
-0.276326
-0.275509
-0.275479
-0.27597
-0.276341
-0.276641
-0.276904
-0.277129
-0.277321
-0.277486
-0.27763
-0.277759
-0.277878
-0.27799
-0.278099
-0.278205
-0.278308
-0.278406
-0.278495
-0.278572
-0.278628
-0.278657
-0.278649
-0.278593
-0.278478
-0.278293
-0.278027
-0.277673
-0.277241
-0.276805
-0.276316
-0.274988
-0.27653
-0.276972
-0.277304
-0.277569
-0.277797
-0.277989
-0.278147
-0.278278
-0.278388
-0.278484
-0.278569
-0.278648
-0.278724
-0.278799
-0.278871
-0.278939
-0.278999
-0.279048
-0.279076
-0.279078
-0.27904
-0.278953
-0.278802
-0.278574
-0.278255
-0.277833
-0.277315
-0.276773
-0.276107
-0.274778
-0.277621
-0.278014
-0.278306
-0.278536
-0.278728
-0.278884
-0.279006
-0.2791
-0.279174
-0.279232
-0.279279
-0.279322
-0.279361
-0.2794
-0.279437
-0.279471
-0.2795
-0.279517
-0.279515
-0.279486
-0.279418
-0.279298
-0.279111
-0.278839
-0.278466
-0.277974
-0.277367
-0.276709
-0.275849
-0.274417
-0.278746
-0.279092
-0.279345
-0.279538
-0.279693
-0.279811
-0.279894
-0.279949
-0.279981
-0.279998
-0.280005
-0.280005
-0.280004
-0.280002
-0.280001
-0.279997
-0.27999
-0.279972
-0.279937
-0.279875
-0.279775
-0.279621
-0.279396
-0.279081
-0.278653
-0.27809
-0.277389
-0.276613
-0.275569
-0.273867
-0.279903
-0.280203
-0.280417
-0.280574
-0.28069
-0.280768
-0.280809
-0.280821
-0.280809
-0.28078
-0.28074
-0.280695
-0.280648
-0.280602
-0.280556
-0.280511
-0.280463
-0.280406
-0.280334
-0.280237
-0.280102
-0.279912
-0.279649
-0.27929
-0.27881
-0.278176
-0.277378
-0.276478
-0.275255
-0.273152
-0.281089
-0.281346
-0.281522
-0.281641
-0.281718
-0.281753
-0.281749
-0.281714
-0.281653
-0.281575
-0.281484
-0.281388
-0.28129
-0.281194
-0.2811
-0.281007
-0.280914
-0.280815
-0.280702
-0.280565
-0.280392
-0.280165
-0.279863
-0.27946
-0.278927
-0.278225
-0.27733
-0.276301
-0.274908
-0.272274
-0.282303
-0.28252
-0.282659
-0.28274
-0.282775
-0.282765
-0.282714
-0.282628
-0.282514
-0.282381
-0.282235
-0.282082
-0.281928
-0.281776
-0.281627
-0.281483
-0.281339
-0.281192
-0.281034
-0.280854
-0.28064
-0.280372
-0.280028
-0.279581
-0.278995
-0.278227
-0.277237
-0.276076
-0.274535
-0.271234
-0.283547
-0.283726
-0.28383
-0.283872
-0.283864
-0.283806
-0.283704
-0.283563
-0.283392
-0.283198
-0.282991
-0.282776
-0.28256
-0.282346
-0.282138
-0.281936
-0.281736
-0.281536
-0.281328
-0.281101
-0.28084
-0.280528
-0.28014
-0.279646
-0.279007
-0.278174
-0.27709
-0.275794
-0.274145
-0.27004
-0.284823
-0.284968
-0.285036
-0.285039
-0.284986
-0.284878
-0.28472
-0.28452
-0.284286
-0.284028
-0.283753
-0.28347
-0.283186
-0.282906
-0.282632
-0.282366
-0.282105
-0.281846
-0.281582
-0.281302
-0.280991
-0.28063
-0.280193
-0.279648
-0.278954
-0.278055
-0.276881
-0.275443
-0.27374
-0.26871
-0.286136
-0.28625
-0.286283
-0.286245
-0.286144
-0.285983
-0.285766
-0.285502
-0.285201
-0.284871
-0.284524
-0.284168
-0.28381
-0.283456
-0.283111
-0.282775
-0.282447
-0.282124
-0.281799
-0.28146
-0.281093
-0.280678
-0.280187
-0.279586
-0.278831
-0.277863
-0.2766
-0.275009
-0.273318
-0.267275
-0.287494
-0.287578
-0.287576
-0.287496
-0.287345
-0.287126
-0.286846
-0.286514
-0.286139
-0.285734
-0.285308
-0.284872
-0.284434
-0.284001
-0.283578
-0.283166
-0.282766
-0.282374
-0.281982
-0.281579
-0.281151
-0.280675
-0.280124
-0.27946
-0.278637
-0.277595
-0.276243
-0.274481
-0.272867
-0.265784
-0.288905
-0.28896
-0.288922
-0.288798
-0.288594
-0.288314
-0.287966
-0.28756
-0.287107
-0.286619
-0.286109
-0.285588
-0.285064
-0.284546
-0.28404
-0.283548
-0.283069
-0.282601
-0.282137
-0.281665
-0.28117
-0.280628
-0.28001
-0.279276
-0.278378
-0.277252
-0.275809
-0.27386
-0.272362
-0.264298
-0.29038
-0.290406
-0.290332
-0.29016
-0.289899
-0.289554
-0.289133
-0.288648
-0.288111
-0.287536
-0.286936
-0.286323
-0.285708
-0.2851
-0.284505
-0.283926
-0.283365
-0.282817
-0.282275
-0.281729
-0.28116
-0.280545
-0.279853
-0.279042
-0.278059
-0.27684
-0.275299
-0.273158
-0.271773
-0.2629
-0.291931
-0.291928
-0.291814
-0.291592
-0.29127
-0.290855
-0.290356
-0.289786
-0.289159
-0.288491
-0.287795
-0.287086
-0.286375
-0.285671
-0.284983
-0.284313
-0.283664
-0.283031
-0.282407
-0.281781
-0.281133
-0.280439
-0.279665
-0.278767
-0.27769
-0.276367
-0.274718
-0.272397
-0.271064
-0.261682
-0.293574
-0.293538
-0.293381
-0.293104
-0.292717
-0.292226
-0.291643
-0.290983
-0.290262
-0.289495
-0.288698
-0.287887
-0.287075
-0.286271
-0.285485
-0.284721
-0.283979
-0.283257
-0.282546
-0.281834
-0.281101
-0.28032
-0.279456
-0.278463
-0.277281
-0.275844
-0.274065
-0.271603
-0.270163
-0.260682
-0.295322
-0.29525
-0.295046
-0.29471
-0.294251
-0.293679
-0.293007
-0.292251
-0.291428
-0.290557
-0.289655
-0.288738
-0.28782
-0.286913
-0.286025
-0.285161
-0.284324
-0.283508
-0.282706
-0.281902
-0.281077
-0.2802
-0.279236
-0.278136
-0.276841
-0.275285
-0.273355
-0.270813
-0.268951
-0.259779
-0.297194
-0.29708
-0.296822
-0.296421
-0.295885
-0.295225
-0.294457
-0.2936
-0.292671
-0.291691
-0.290678
-0.289651
-0.288623
-0.287608
-0.286616
-0.28565
-0.284712
-0.283798
-0.282899
-0.281997
-0.28107
-0.280088
-0.279011
-0.277793
-0.276374
-0.274701
-0.272631
-0.27013
-0.267453
-0.259171
-0.299207
-0.299043
-0.298725
-0.298252
-0.297631
-0.296877
-0.296008
-0.295042
-0.294002
-0.292908
-0.291781
-0.290639
-0.289499
-0.288373
-0.287272
-0.2862
-0.285158
-0.284141
-0.283137
-0.282128
-0.281089
-0.279987
-0.278782
-0.277429
-0.275874
-0.274083
-0.271916
-0.269621
-0.266207
-0.261029
-0.30138
-0.301156
-0.30077
-0.300217
-0.299504
-0.298649
-0.297671
-0.296592
-0.295435
-0.294222
-0.292976
-0.291716
-0.29046
-0.289221
-0.288008
-0.286827
-0.285676
-0.284549
-0.283432
-0.282304
-0.281137
-0.279897
-0.278543
-0.277032
-0.275318
-0.273386
-0.271128
-0.269015
-0.265739
-0.26799
-0.303729
-0.303436
-0.302972
-0.30233
-0.301517
-0.300553
-0.29946
-0.298261
-0.296982
-0.295646
-0.294278
-0.292897
-0.291521
-0.290165
-0.288837
-0.287542
-0.286276
-0.28503
-0.283789
-0.282527
-0.281214
-0.279813
-0.278283
-0.276582
-0.274674
-0.272558
-0.270168
-0.267966
-0.264916
-0.266363
-0.306275
-0.305898
-0.305346
-0.304607
-0.303686
-0.302605
-0.301389
-0.300065
-0.298658
-0.297195
-0.2957
-0.294195
-0.292697
-0.29122
-0.289773
-0.288357
-0.286968
-0.285593
-0.284212
-0.282797
-0.281315
-0.279724
-0.277985
-0.276058
-0.273913
-0.271557
-0.268953
-0.266464
-0.263287
-0.263119
-0.309034
-0.30856
-0.307909
-0.307062
-0.306023
-0.304817
-0.303472
-0.302016
-0.300476
-0.298882
-0.297257
-0.295624
-0.294
-0.292399
-0.290826
-0.289283
-0.287759
-0.28624
-0.284701
-0.28311
-0.281429
-0.279616
-0.27763
-0.275437
-0.273011
-0.270363
-0.26747
-0.264594
-0.261122
-0.259603
-0.312023
-0.311437
-0.310674
-0.309709
-0.308543
-0.307203
-0.305722
-0.304128
-0.302451
-0.30072
-0.298962
-0.297197
-0.295443
-0.293712
-0.292007
-0.290325
-0.288654
-0.286972
-0.285252
-0.283455
-0.281542
-0.27947
-0.2772
-0.274701
-0.271954
-0.268971
-0.26574
-0.262443
-0.258628
-0.256006
-0.315259
-0.314544
-0.313657
-0.312563
-0.311259
-0.309778
-0.308153
-0.306415
-0.304595
-0.302724
-0.300828
-0.298928
-0.297039
-0.295171
-0.293323
-0.29149
-0.289652
-0.287785
-0.285854
-0.283819
-0.281638
-0.279269
-0.276676
-0.273835
-0.270734
-0.267389
-0.263794
-0.260086
-0.255926
-0.25251
-0.318755
-0.317895
-0.31687
-0.315636
-0.314186
-0.312554
-0.310778
-0.30889
-0.306923
-0.304907
-0.302869
-0.300827
-0.298796
-0.296782
-0.294779
-0.292776
-0.29075
-0.28867
-0.286496
-0.284186
-0.281698
-0.278993
-0.276042
-0.272828
-0.26935
-0.265629
-0.261668
-0.257575
-0.253098
-0.249111
-0.322527
-0.321503
-0.320327
-0.318942
-0.317335
-0.315545
-0.31361
-0.311566
-0.309447
-0.307282
-0.305095
-0.302906
-0.300724
-0.298551
-0.296376
-0.294182
-0.29194
-0.289613
-0.287159
-0.284535
-0.2817
-0.278623
-0.275283
-0.271674
-0.267806
-0.263706
-0.259388
-0.254947
-0.250188
-0.245796
-0.326585
-0.325379
-0.324039
-0.322493
-0.320719
-0.318762
-0.316663
-0.314457
-0.31218
-0.30986
-0.307519
-0.305174
-0.302829
-0.30048
-0.298112
-0.2957
-0.293209
-0.290598
-0.287823
-0.284844
-0.281625
-0.278143
-0.27439
-0.270371
-0.266108
-0.261636
-0.256979
-0.252222
-0.247215
-0.242529
-0.330939
-0.329535
-0.328016
-0.326298
-0.324349
-0.322217
-0.319947
-0.317574
-0.315133
-0.312651
-0.310149
-0.307635
-0.305112
-0.302568
-0.29998
-0.297317
-0.294539
-0.291603
-0.288466
-0.285091
-0.281452
-0.277538
-0.273353
-0.268918
-0.264263
-0.259431
-0.254454
-0.249414
-0.244186
-0.239274
-0.335599
-0.333977
-0.332268
-0.330367
-0.328234
-0.325921
-0.323473
-0.320928
-0.318317
-0.315666
-0.31299
-0.310295
-0.307574
-0.304808
-0.301968
-0.299017
-0.29591
-0.292604
-0.289061
-0.285252
-0.281163
-0.276795
-0.272169
-0.267315
-0.262277
-0.257102
-0.251825
-0.246526
-0.241099
-0.236001
-0.34057
-0.338714
-0.336801
-0.334708
-0.332384
-0.329882
-0.327251
-0.324527
-0.321739
-0.318909
-0.316047
-0.313151
-0.310207
-0.307189
-0.304059
-0.300776
-0.297295
-0.293574
-0.289583
-0.285305
-0.28074
-0.275905
-0.270832
-0.265566
-0.260156
-0.254653
-0.249097
-0.243558
-0.237947
-0.232685
-0.345854
-0.343748
-0.341621
-0.339327
-0.336804
-0.334108
-0.331289
-0.328379
-0.325405
-0.322384
-0.319318
-0.316199
-0.313002
-0.309693
-0.306231
-0.302569
-0.298664
-0.294484
-0.290006
-0.285229
-0.280169
-0.274858
-0.269341
-0.263671
-0.257903
-0.252089
-0.246269
-0.240506
-0.234722
-0.229306
-0.351453
-0.34908
-0.346729
-0.344227
-0.3415
-0.338604
-0.33559
-0.332487
-0.329317
-0.326089
-0.322798
-0.319426
-0.315939
-0.312298
-0.308454
-0.304363
-0.299988
-0.295303
-0.290304
-0.285005
-0.279436
-0.273647
-0.267692
-0.261631
-0.25552
-0.249411
-0.243341
-0.237366
-0.231417
-0.22585
-0.357363
-0.35471
-0.352124
-0.349409
-0.346471
-0.343371
-0.340156
-0.336851
-0.333471
-0.330017
-0.326475
-0.322815
-0.318997
-0.314974
-0.310697
-0.306126
-0.301231
-0.296003
-0.290453
-0.284613
-0.278531
-0.272267
-0.265883
-0.259444
-0.253006
-0.246615
-0.240308
-0.234129
-0.22802
-0.222304
-0.363578
-0.36063
-0.357802
-0.354868
-0.351717
-0.348408
-0.344984
-0.341466
-0.33786
-0.334156
-0.33033
-0.326342
-0.322144
-0.317686
-0.312922
-0.307818
-0.30236
-0.296554
-0.29043
-0.284039
-0.277442
-0.27071
-0.263911
-0.257109
-0.250357
-0.243698
-0.237164
-0.230788
-0.224524
-0.218658
-0.370083
-0.36683
-0.363754
-0.360599
-0.35723
-0.353706
-0.350067
-0.346323
-0.342469
-0.338486
-0.334337
-0.329974
-0.325344
-0.320395
-0.315088
-0.309402
-0.303339
-0.296927
-0.290214
-0.283266
-0.27616
-0.268971
-0.26177
-0.254619
-0.247567
-0.240652
-0.233899
-0.227335
-0.22092
-0.214902
-0.376862
-0.373294
-0.369967
-0.366587
-0.362999
-0.359255
-0.35539
-0.351402
-0.347277
-0.34298
-0.338464
-0.333674
-0.328554
-0.323056
-0.317153
-0.310838
-0.304137
-0.297095
-0.289783
-0.282281
-0.274674
-0.267041
-0.259453
-0.251968
-0.244629
-0.237468
-0.230506
-0.223758
-0.217196
-0.211029
-0.383892
-0.380003
-0.376421
-0.372816
-0.369005
-0.365036
-0.360932
-0.356681
-0.352253
-0.347602
-0.342669
-0.337396
-0.331726
-0.325621
-0.31907
-0.312087
-0.304718
-0.297034
-0.28912
-0.28107
-0.272974
-0.264912
-0.256953
-0.249148
-0.241535
-0.234138
-0.226973
-0.22005
-0.213346
-0.207031
-0.391143
-0.386928
-0.383092
-0.379262
-0.375226
-0.371024
-0.366667
-0.362127
-0.357361
-0.352309
-0.346906
-0.341088
-0.334808
-0.328041
-0.320794
-0.313108
-0.305052
-0.296717
-0.288205
-0.279617
-0.271047
-0.262574
-0.254259
-0.246148
-0.238273
-0.23065
-0.223291
-0.216198
-0.209358
-0.202899
-0.398578
-0.394037
-0.389947
-0.385894
-0.381631
-0.377186
-0.372557
-0.3677
-0.362555
-0.357051
-0.351118
-0.344694
-0.337744
-0.330262
-0.32228
-0.313864
-0.305109
-0.296123
-0.287021
-0.27791
-0.268883
-0.260014
-0.25136
-0.242958
-0.234831
-0.226993
-0.219449
-0.212194
-0.205223
-0.198625
-0.406154
-0.401288
-0.396949
-0.392675
-0.388181
-0.383482
-0.37856
-0.373351
-0.367781
-0.36177
-0.355245
-0.348154
-0.340477
-0.332233
-0.323483
-0.314319
-0.304859
-0.295228
-0.28555
-0.275933
-0.266467
-0.257221
-0.248243
-0.239563
-0.231199
-0.223156
-0.215434
-0.208027
-0.200932
-0.194201
-0.413821
-0.408635
-0.404052
-0.399559
-0.394831
-0.389864
-0.384622
-0.379023
-0.372978
-0.3664
-0.359221
-0.351403
-0.342947
-0.333902
-0.324359
-0.314437
-0.304275
-0.294011
-0.283773
-0.27367
-0.263786
-0.254181
-0.244895
-0.235952
-0.227362
-0.219125
-0.211237
-0.203687
-0.196475
-0.189619
-0.421519
-0.416022
-0.411203
-0.406494
-0.401526
-0.396275
-0.390683
-0.384651
-0.378077
-0.370872
-0.362978
-0.354375
-0.345095
-0.335218
-0.324866
-0.314184
-0.303329
-0.292449
-0.281673
-0.271105
-0.260823
-0.250878
-0.241302
-0.232111
-0.223307
-0.214888
-0.206845
-0.199163
-0.191844
-0.184873
-0.429183
-0.423387
-0.418341
-0.413419
-0.408205
-0.40265
-0.396675
-0.390163
-0.383003
-0.375111
-0.366443
-0.357005
-0.346863
-0.336132
-0.324963
-0.313528
-0.301996
-0.290521
-0.27923
-0.268221
-0.257563
-0.247298
-0.237449
-0.228024
-0.219022
-0.210434
-0.202247
-0.194445
-0.187029
-0.179953
-0.436742
-0.430661
-0.425399
-0.420267
-0.414797
-0.408916
-0.402521
-0.39548
-0.387678
-0.379039
-0.369542
-0.359226
-0.348194
-0.336595
-0.324613
-0.312438
-0.300251
-0.288206
-0.276426
-0.265001
-0.253989
-0.243424
-0.23332
-0.223679
-0.214494
-0.205751
-0.197433
-0.189524
-0.182022
-0.174854
-0.444115
-0.437769
-0.432302
-0.426962
-0.421227
-0.414994
-0.40814
-0.400518
-0.392017
-0.382576
-0.372202
-0.360974
-0.349032
-0.336564
-0.323779
-0.310885
-0.298068
-0.285482
-0.273241
-0.261426
-0.250084
-0.239241
-0.228901
-0.219061
-0.209709
-0.200826
-0.192393
-0.184391
-0.176814
-0.169569
-0.451217
-0.444627
-0.438969
-0.433423
-0.42741
-0.420798
-0.413443
-0.40519
-0.395935
-0.385641
-0.374351
-0.362185
-0.349325
-0.335994
-0.322426
-0.30884
-0.295425
-0.282328
-0.269657
-0.257479
-0.245832
-0.234732
-0.224177
-0.214157
-0.204654
-0.195648
-0.187116
-0.179038
-0.171399
-0.164092
-0.457959
-0.451149
-0.445313
-0.439562
-0.433257
-0.426236
-0.418338
-0.409405
-0.399345
-0.388154
-0.375917
-0.362799
-0.349024
-0.334847
-0.320522
-0.306276
-0.292297
-0.278724
-0.265653
-0.253141
-0.241215
-0.229882
-0.219133
-0.208953
-0.199319
-0.190208
-0.181593
-0.173455
-0.165769
-0.158419
-0.464244
-0.457241
-0.451244
-0.445287
-0.438675
-0.431215
-0.422731
-0.413069
-0.402161
-0.390039
-0.376834
-0.36276
-0.348082
-0.333084
-0.318035
-0.303167
-0.288662
-0.274649
-0.261212
-0.248396
-0.236218
-0.224676
-0.213756
-0.203436
-0.193691
-0.184494
-0.175814
-0.167634
-0.159918
-0.152545
-0.469976
-0.462809
-0.456663
-0.450501
-0.443565
-0.435635
-0.426526
-0.416093
-0.404298
-0.391218
-0.377036
-0.362015
-0.346456
-0.330671
-0.314938
-0.299489
-0.284498
-0.270083
-0.256315
-0.243226
-0.230824
-0.219099
-0.208032
-0.197595
-0.18776
-0.178496
-0.169773
-0.16157
-0.15384
-0.146465
-0.475052
-0.467753
-0.461475
-0.455105
-0.447828
-0.439398
-0.429626
-0.418384
-0.405674
-0.391622
-0.376465
-0.360514
-0.344107
-0.327575
-0.311203
-0.295219
-0.279786
-0.265009
-0.250944
-0.237615
-0.225019
-0.213139
-0.201949
-0.191419
-0.181516
-0.172207
-0.16346
-0.155254
-0.147528
-0.140173
-0.479373
-0.471973
-0.465578
-0.458998
-0.451364
-0.442406
-0.431936
-0.419857
-0.406211
-0.391183
-0.375065
-0.358213
-0.340999
-0.323767
-0.306805
-0.290335
-0.274505
-0.259407
-0.245085
-0.231549
-0.218789
-0.206782
-0.195496
-0.184897
-0.174949
-0.165618
-0.156868
-0.148679
-0.140977
-0.133666
-0.482836
-0.475368
-0.468872
-0.46208
-0.454072
-0.44456
-0.433366
-0.420426
-0.405836
-0.389839
-0.372785
-0.355072
-0.337098
-0.31922
-0.301723
-0.284817
-0.268638
-0.253262
-0.23872
-0.225013
-0.212122
-0.200017
-0.188662
-0.17802
-0.168053
-0.158722
-0.149992
-0.141841
-0.134182
-0.126938
-0.485341
-0.477841
-0.471257
-0.464252
-0.455855
-0.445767
-0.433828
-0.420014
-0.404482
-0.387537
-0.369581
-0.351054
-0.332377
-0.313911
-0.295936
-0.278648
-0.262169
-0.246559
-0.231839
-0.217997
-0.205007
-0.192835
-0.181441
-0.170782
-0.160819
-0.151512
-0.142824
-0.134733
-0.127141
-0.119991
-0.486792
-0.479294
-0.472638
-0.465418
-0.456619
-0.445938
-0.433239
-0.41855
-0.402089
-0.384225
-0.365413
-0.34613
-0.326811
-0.307819
-0.289426
-0.271812
-0.255084
-0.239286
-0.224428
-0.210489
-0.197436
-0.185229
-0.173823
-0.163176
-0.153243
-0.143982
-0.135358
-0.127347
-0.119848
-0.112819
-0.487097
-0.479635
-0.472922
-0.465484
-0.456275
-0.444988
-0.431525
-0.415968
-0.398602
-0.379861
-0.360249
-0.340272
-0.320379
-0.300928
-0.282179
-0.264297
-0.24737
-0.231432
-0.216478
-0.202481
-0.1894
-0.177191
-0.165805
-0.155197
-0.14532
-0.136129
-0.127587
-0.119673
-0.112286
-0.105388
-0.486167
-0.478775
-0.472019
-0.464366
-0.454738
-0.442842
-0.428617
-0.41221
-0.393976
-0.374409
-0.35406
-0.33346
-0.313063
-0.293223
-0.274183
-0.256091
-0.23902
-0.222989
-0.207983
-0.193967
-0.180895
-0.168718
-0.157384
-0.146844
-0.137049
-0.127951
-0.11951
-0.111708
-0.104433
-0.097616
-0.483922
-0.476633
-0.46985
-0.461982
-0.451935
-0.43943
-0.424456
-0.407228
-0.388171
-0.367839
-0.346824
-0.325676
-0.304852
-0.284694
-0.265428
-0.247187
-0.230025
-0.213951
-0.198938
-0.184944
-0.171918
-0.159807
-0.148557
-0.138116
-0.128431
-0.119451
-0.111137
-0.103471
-0.0963028
-0.089433
-0.480288
-0.473135
-0.466339
-0.45826
-0.447797
-0.434692
-0.418991
-0.400981
-0.381156
-0.360129
-0.338526
-0.31691
-0.295737
-0.275333
-0.25591
-0.237579
-0.220383
-0.204314
-0.189339
-0.175409
-0.162468
-0.15046
-0.139327
-0.129014
-0.119468
-0.110634
-0.102476
-0.0949807
-0.0879505
-0.0810088
-0.475202
-0.468216
-0.461421
-0.453139
-0.442265
-0.428577
-0.41218
-0.393436
-0.37291
-0.351263
-0.329154
-0.307155
-0.285712
-0.265139
-0.245626
-0.227267
-0.21009
-0.194078
-0.179187
-0.165363
-0.152547
-0.140677
-0.129695
-0.119543
-0.110165
-0.101505
-0.0935316
-0.0862171
-0.0792749
-0.0726364
-0.468606
-0.461817
-0.45504
-0.446562
-0.435292
-0.421044
-0.403992
-0.384572
-0.363416
-0.341234
-0.318706
-0.296409
-0.274779
-0.254111
-0.234576
-0.216251
-0.19915
-0.183245
-0.168485
-0.15481
-0.142158
-0.130464
-0.119667
-0.109708
-0.100528
-0.0920706
-0.0843074
-0.0771887
-0.0703991
-0.0640969
-0.460457
-0.453893
-0.447149
-0.438487
-0.426838
-0.412063
-0.394404
-0.374374
-0.352668
-0.330038
-0.307182
-0.284676
-0.262941
-0.242254
-0.222765
-0.204537
-0.187567
-0.171819
-0.157237
-0.143755
-0.131306
-0.119827
-0.109249
-0.0995152
-0.0905631
-0.0823371
-0.0748089
-0.0679133
-0.0613224
-0.0553425
-0.450718
-0.444406
-0.437711
-0.428881
-0.416877
-0.401613
-0.383403
-0.362836
-0.340666
-0.317681
-0.29459
-0.271963
-0.250207
-0.229576
-0.210202
-0.192131
-0.175349
-0.15981
-0.145451
-0.132208
-0.120003
-0.108773
-0.0984502
-0.0889729
-0.080279
-0.0723122
-0.0650451
-0.0584005
-0.0520356
-0.0463714
-0.439365
-0.433331
-0.426701
-0.417721
-0.405391
-0.389683
-0.370988
-0.349963
-0.32742
-0.304174
-0.280943
-0.258285
-0.23659
-0.21609
-0.196899
-0.179046
-0.162506
-0.147228
-0.133142
-0.120176
-0.108256
-0.0973135
-0.0872799
-0.0780918
-0.0696856
-0.0620057
-0.0550257
-0.048657
-0.0425375
-0.0371953
-0.426386
-0.420653
-0.414106
-0.404996
-0.392375
-0.376276
-0.357163
-0.335767
-0.312944
-0.289535
-0.266258
-0.24366
-0.222107
-0.201812
-0.18287
-0.165296
-0.149055
-0.134087
-0.120319
-0.107675
-0.0960798
-0.0854613
-0.0757511
-0.0668839
-0.0587949
-0.0514289
-0.0447613
-0.0386911
-0.0328345
-0.0278265
-0.411778
-0.406369
-0.399923
-0.390707
-0.377834
-0.3614
-0.341947
-0.320267
-0.297262
-0.273788
-0.250561
-0.228109
-0.20678
-0.186762
-0.168136
-0.1509
-0.135011
-0.120403
-0.106999
-0.0947198
-0.0834885
-0.0732311
-0.0638782
-0.0553632
-0.0476204
-0.040595
-0.0342645
-0.0285138
-0.0229372
-0.0182781
-0.395551
-0.390485
-0.384159
-0.374864
-0.361783
-0.345078
-0.325363
-0.303493
-0.280403
-0.256963
-0.233879
-0.211662
-0.190634
-0.170966
-0.152718
-0.135878
-0.120395
-0.106196
-0.0932011
-0.0813286
-0.0704998
-0.0606397
-0.0516775
-0.0435456
-0.0361774
-0.029519
-0.0235494
-0.0181387
-0.0128593
-0.00856409
-0.377725
-0.373021
-0.366834
-0.357491
-0.344248
-0.327338
-0.307445
-0.285478
-0.262404
-0.239097
-0.216249
-0.194349
-0.1737
-0.15445
-0.136643
-0.120257
-0.105231
-0.0914885
-0.0789464
-0.0675215
-0.0571333
-0.0477058
-0.0391671
-0.0314487
-0.0244831
-0.0182175
-0.0126324
-0.00758173
-0.00261728
0.00129957
-0.358333
-0.354006
-0.347978
-0.338619
-0.325266
-0.308221
-0.288236
-0.266269
-0.243312
-0.22023
-0.197706
-0.176208
-0.156012
-0.137247
-0.119941
-0.104062
-0.089544
-0.0763047
-0.0642587
-0.0533212
-0.0434106
-0.03445
-0.0263668
-0.0190917
-0.0125563
-0.00670919
-0.00153153
0.00313891
0.00777
0.0112949
-0.337415
-0.333481
-0.327633
-0.318291
-0.304881
-0.287776
-0.267787
-0.24592
-0.223174
-0.200398
-0.178294
-0.157279
-0.137607
-0.119391
-0.102645
-0.0873267
-0.0733643
-0.0606726
-0.049164
-0.0387522
-0.029355
-0.0208947
-0.0132981
-0.00649532
-0.000417256
0.00498601
0.0097331
0.0140029
0.0182809
0.0213999
-0.315024
-0.311496
-0.305848
-0.29656
-0.28315
-0.266059
-0.246159
-0.224486
-0.202017
-0.179675
-0.158066
-0.137606
-0.118527
-0.100921
-0.0847905
-0.0700835
-0.0567234
-0.0446222
-0.0336906
-0.0238414
-0.0149918
-0.00706371
1.61544e-05
0.0063185
0.0119125
0.0168467
0.0211401
0.0249878
0.0288898
0.0315847
-0.291223
-0.28811
-0.282685
-0.273488
-0.260137
-0.243139
-0.223411
-0.201994
-0.179948
-0.158103
-0.13707
-0.117239
-0.098818
-0.0818809
-0.0664175
-0.0523698
-0.0396559
-0.0281858
-0.0178688
-0.00861711
-0.000347702
0.0070176
0.0135522
0.0193269
0.0244108
0.0288508
0.0326669
0.0360693
0.0395665
0.0418132
-0.266084
-0.263392
-0.258212
-0.249147
-0.235916
-0.219079
-0.199588
-0.178564
-0.157007
-0.135745
-0.115365
-0.0962311
-0.0785282
-0.0623144
-0.0475683
-0.0342249
-0.0221988
-0.0113981
-0.00173103
0.00689025
0.0145489
0.0213228
0.027285
0.0325064
0.0370551
0.040976
0.0442907
0.0472219
0.0502792
0.052055
-0.239686
-0.237419
-0.232506
-0.223615
-0.210554
-0.193942
-0.17481
-0.154247
-0.133263
-0.112664
-0.0930092
-0.0746367
-0.0577095
-0.0422702
-0.0282876
-0.0156909
-0.00439138
0.00570432
0.0146884
0.0226488
0.0296682
0.0358242
0.0411891
0.0458332
0.049823
0.0532005
0.0559897
0.0584235
0.0610036
0.0622864
-0.2121
-0.210281
-0.205652
-0.196969
-0.184133
-0.167846
-0.149139
-0.129121
-0.108791
-0.0889294
-0.0700669
-0.0525151
-0.0364165
-0.0217993
-0.00862319
0.00318785
0.0137249
0.0230826
0.0313534
0.0386249
0.0449793
0.0504932
0.0552383
0.0592834
0.062692
0.0655024
0.0677445
0.0696604
0.0717219
0.0724445
-0.183401
-0.18208
-0.177747
-0.169301
-0.156764
-0.140864
-0.12266
-0.103267
-0.0836678
-0.0646127
-0.0466042
-0.029928
-0.0147067
-0.000955173
0.0113751
0.0223646
0.0321066
0.0406963
0.0482262
0.0547836
0.0604498
0.0653004
0.0694058
0.072833
0.0756401
0.0778617
0.0795406
0.0809218
0.0823854
0.0823692
-0.15367
-0.152955
-0.148879
-0.140719
-0.128535
-0.11309
-0.0954645
-0.0767721
-0.0579729
-0.0397883
-0.0226906
-0.00693988
0.00735988
0.0202063
0.0316551
0.0417908
0.0507081
0.0585029
0.0652674
0.0710883
0.076046
0.0802151
0.0836647
0.0864585
0.0886475
0.0902654
0.0913751
0.0921911
0.0928801
0.0918901
-0.123157
-0.1229
-0.119161
-0.111326
-0.0995474
-0.0846222
-0.0676464
-0.0497237
-0.0317894
-0.0145335
0.00160228
0.0163825
0.0297212
0.0416271
0.0521628
0.0614158
0.0694823
0.0764584
0.0824359
0.0875009
0.0917329
0.0952055
0.0979867
0.100136
0.101699
0.102714
0.103269
0.103476
0.103148
0.101054
-0.0918958
-0.0920716
-0.088702
-0.0812294
-0.069906
-0.0555631
-0.0393023
-0.0222132
-0.00520277
0.0110723
0.0262005
0.0399705
0.052313
0.0632476
0.0728423
0.0811875
0.0883805
0.0945173
0.0996893
0.103982
0.107474
0.110238
0.112341
0.11384
0.114777
0.11521
0.115246
0.114832
0.11341
0.110409
-0.0599771
-0.0606038
-0.0576167
-0.0505398
-0.0397203
-0.0260174
-0.010532
0.00566557
0.0216996
0.0369475
0.0510282
0.0637534
0.0750698
0.0850063
0.0936362
0.101052
0.107353
0.112633
0.116984
0.12049
0.12323
0.125275
0.126693
0.127537
0.127853
0.127723
0.127258
0.126203
0.123752
0.122034
-0.0275266
-0.0286134
-0.0260211
-0.019372
-0.00910215
0.00390774
0.0185631
0.0338173
0.0488286
0.0630093
0.0760081
0.0876594
0.0979242
0.10684
0.114486
0.120956
0.126347
0.130757
0.134274
0.136983
0.138961
0.140281
0.141006
0.141191
0.140887
0.140188
0.139173
0.137516
0.134728
0.133689
0.00532905
0.00377971
0.00596461
0.0121563
0.0218344
0.0341031
0.0478796
0.0621451
0.0760938
0.0891733
0.101062
0.111615
0.120808
0.128687
0.135332
0.140841
0.145312
0.14884
0.151514
0.153418
0.154628
0.155215
0.155243
0.154767
0.153843
0.152562
0.150976
0.148765
0.145698
0.144607
0.0384634
0.0364519
0.0382181
0.0439252
0.0529737
0.0644584
0.0773134
0.0905513
0.103404
0.115355
0.12611
0.135547
0.143653
0.15048
0.156114
0.160653
0.164195
0.166834
0.168659
0.169752
0.170189
0.17004
0.169368
0.168229
0.166681
0.164812
0.162656
0.159933
0.156557
0.155135
0.0717487
0.0692777
0.0706153
0.0758135
0.0841988
0.0948622
0.106759
0.118937
0.130667
0.141468
0.151074
0.15938
0.166388
0.172156
0.176772
0.180334
0.182942
0.184688
0.18566
0.18594
0.185602
0.184715
0.183343
0.18154
0.179365
0.176903
0.174177
0.170944
0.167197
0.165342
0.105057
0.10213
0.103031
0.107699
0.115393
0.125203
0.136112
0.147205
0.157792
0.167427
0.175872
0.183041
0.188945
0.193649
0.197244
0.199828
0.2015
0.202352
0.202472
0.201938
0.200826
0.199203
0.197131
0.194664
0.191863
0.188806
0.185512
0.181764
0.177605
0.175269
0.138259
0.134883
0.135341
0.139461
0.146438
0.15537
0.165268
0.175256
0.184686
0.193146
0.200425
0.206454
0.211254
0.214894
0.217469
0.219077
0.219816
0.219777
0.219047
0.217704
0.21582
0.213464
0.210696
0.207569
0.204142
0.200491
0.196631
0.192362
0.187769
0.184929
0.171226
0.167408
0.167419
0.170977
0.177218
0.185251
0.194122
0.202993
0.211259
0.218542
0.224655
0.229546
0.233245
0.235827
0.237388
0.238025
0.237837
0.236913
0.235339
0.233193
0.230545
0.227461
0.224002
0.22022
0.216172
0.21193
0.207506
0.202716
0.197679
0.194322
0.203832
0.19958
0.199141
0.202126
0.207617
0.214739
0.222571
0.23032
0.237421
0.243529
0.248482
0.252243
0.25485
0.256384
0.256939
0.256616
0.25551
0.253712
0.251303
0.248362
0.244958
0.241156
0.237014
0.232584