/*--------------------------------*- C++ -*----------------------------------*\
  =========                 |
  \\      /  F ield         | OpenFOAM: The Open Source CFD Toolbox
   \\    /   O peration     | Website:  https://openfoam.org
    \\  /    A nd           | Version:  7
     \\/     M anipulation  |
\*---------------------------------------------------------------------------*/
FoamFile
{
    version     2.0;
    format      ascii;
    class       volVectorField;
    location    "21";
    object      U;
}
// * * * * * * * * * * * * * * * * * * * * * * * * * * * * * * * * * * * * * //

dimensions      [0 1 -1 0 0 0 0];

internalField   nonuniform List<vector> 
40000
(
(-0.000180321 0.00029461 -2.1824e-21)
(-0.00113181 0.000800135 6.75673e-21)
(-0.00316671 0.00123344 -4.31131e-21)
(-0.00603722 0.0016015 -3.99652e-24)
(-0.00960684 0.00190949 -9.06205e-25)
(-0.0137836 0.00216202 2.92592e-24)
(-0.0184725 0.00236373 -7.15922e-21)
(-0.0235811 0.00251915 1.70217e-21)
(-0.0290234 0.00263269 -4.85822e-21)
(-0.0347199 0.00270861 -1.53716e-21)
(-0.0405975 0.00275099 0)
(-0.0465891 0.00276374 -5.53467e-21)
(-0.0526341 0.00275052 0)
(-0.0586778 0.0027148 0)
(-0.0646718 0.00265981 -4.69066e-21)
(-0.0705734 0.00258858 4.43168e-21)
(-0.0763455 0.00250396 -2.09249e-21)
(-0.0819566 0.00240867 -1.62213e-24)
(-0.0873809 0.0023054 1.85908e-21)
(-0.0925982 0.00219691 0)
(-0.0975948 0.00208608 -1.64929e-21)
(-0.102364 0.0019761 -4.65349e-21)
(-0.106906 0.00187045 5.83102e-21)
(-0.111232 0.00177295 -2.73859e-21)
(-0.115362 0.00168768 7.71079e-21)
(-0.119325 0.0016188 4.82253e-21)
(-0.123166 0.00157006 -9.04251e-21)
(-0.126933 0.00154404 8.47295e-21)
(-0.130678 0.00154216 -1.98378e-21)
(-0.134477 0.00156817 -3.71989e-21)
(-0.000209899 0.000882664 0)
(-0.00120799 0.00239752 4.50793e-21)
(-0.00327515 0.00369632 8.6354e-21)
(-0.00616616 0.0047998 -8.24112e-21)
(-0.00974607 0.00572341 -3.94643e-21)
(-0.013924 0.0064809 1.50278e-20)
(-0.0186059 0.00708608 -3.58569e-21)
(-0.0237002 0.00755253 -6.826e-21)
(-0.0291218 0.00789343 -8.62849e-24)
(-0.0347919 0.00812151 -1.84685e-20)
(-0.0406378 0.008249 5.83591e-21)
(-0.046593 0.00828758 2.21464e-20)
(-0.0525972 0.00824827 -1.04853e-20)
(-0.0585961 0.00814143 -4.82673e-24)
(-0.0645413 0.00797674 -4.69841e-21)
(-0.0703904 0.00776325 -1.59335e-24)
(-0.0761061 0.00750945 0)
(-0.0816568 0.00722351 0)
(-0.0870163 0.00691344 1.48848e-20)
(-0.0921641 0.00658743 0)
(-0.0970857 0.00625413 6.59838e-21)
(-0.101774 0.00592298 -6.20462e-21)
(-0.106228 0.00560444 -8.62435e-25)
(-0.110458 0.00530999 0)
(-0.114482 0.00505198 1.02847e-20)
(-0.118332 0.00484297 -9.64492e-21)
(-0.122049 0.00469449 9.04249e-21)
(-0.125683 0.00461453 -8.47294e-21)
(-0.129285 0.00460771 7.93556e-21)
(-0.132931 0.00468526 -2.23213e-20)
(-0.0002686 0.00146242 -8.74506e-21)
(-0.00135924 0.00397329 -9.01086e-21)
(-0.00349052 0.00612722 0)
(-0.00642233 0.00795816 0)
(-0.0100227 0.00949145 0)
(-0.014203 0.0107497 7.52986e-21)
(-0.018871 0.0117555 0)
(-0.0239369 0.0125313 6.81731e-21)
(-0.0293173 0.0130989 1.29626e-20)
(-0.0349346 0.0134792 1.23112e-20)
(-0.0407173 0.0136924 0)
(-0.0465998 0.013758 7.08986e-24)
(-0.0525225 0.013694 -2.09893e-20)
(-0.0584317 0.0135176 1.98623e-20)
(-0.0642795 0.0132449 9.38463e-21)
(-0.0700235 0.0128907 8.87221e-21)
(-0.0756263 0.0124692 -8.36828e-21)
(-0.0810562 0.0119937 1.57997e-20)
(-0.0862862 0.0114774 -2.97773e-20)
(-0.0912949 0.0109339 1.10133e-25)
(-0.0960666 0.0103773 -2.63959e-20)
(-0.100592 0.00982323 2.48332e-20)
(-0.10487 0.00928911 0)
(-0.108908 0.00879416 0)
(-0.112723 0.00835923 1.0291e-20)
(-0.116344 0.00800582 0)
(-0.119814 0.00775395 0)
(-0.123184 0.00761791 0)
(-0.126497 0.00760662 -1.58741e-20)
(-0.129837 0.00773918 1.48802e-20)
(-0.000355486 0.00202851 8.74506e-21)
(-0.00158325 0.00551346 8.02183e-24)
(-0.0038097 0.00850538 3.75631e-23)
(-0.00680216 0.0110506 -1.65071e-20)
(-0.0104331 0.0131837 -1.57692e-20)
(-0.0146169 0.0149356 1.73212e-23)
(-0.0192643 0.0163373 -2.86851e-20)
(-0.0242881 0.0174198 1.36582e-20)
(-0.029607 0.0182127 -2.59685e-20)
(-0.0351455 0.0187452 2.46624e-20)
(-0.0408337 0.0190452 -1.16995e-20)
(-0.0466073 0.0191394 2.21795e-20)
(-0.052408 0.019053 2.09893e-20)
(-0.0581829 0.0188097 1.65509e-23)
(-0.0638846 0.0184317 -1.87954e-20)
(-0.0694708 0.0179395 0)
(-0.0749044 0.0173526 6.10869e-25)
(-0.0801528 0.0166895 1.5809e-20)
(-0.0851883 0.0159682 1.13338e-24)
(-0.0899883 0.0152072 -8.18615e-24)
(-0.0945352 0.0144261 2.64034e-20)
(-0.0988176 0.0136464 -2.48331e-20)
(-0.102831 0.0128924 0)
(-0.106581 0.0121911 2.19322e-20)
(-0.110082 0.0115723 5.0918e-24)
(-0.11336 0.0110672 -5.79119e-20)
(-0.116458 0.0107057 1.8095e-20)
(-0.119431 0.0105098 3.39126e-20)
(-0.122311 0.0104948 1.5874e-20)
(-0.125192 0.0106886 1.48878e-20)
(-0.000469186 0.00257586 3.50976e-20)
(-0.00187665 0.00700468 -1.80793e-20)
(-0.00422808 0.0108109 1.72871e-20)
(-0.00730041 0.0140522 1.65378e-20)
(-0.0109718 0.0167714 0)
(-0.0151604 0.0190069 -3.01694e-20)
(-0.0197807 0.0207979 -1.43896e-20)
(-0.0247489 0.0221828 -2.73356e-20)
(-0.0299866 0.0231992 1.29846e-20)
(-0.0354207 0.0238838 2.93762e-23)
(-0.0409835 0.0242717 2.34265e-20)
(-0.0466126 0.0243968 2.22271e-20)
(-0.052251 0.024291 -4.20342e-20)
(-0.0578469 0.0239843 1.98997e-20)
(-0.0633537 0.0235047 -1.91596e-23)
(-0.0687295 0.0228783 0)
(-0.073937 0.0221295 -1.67622e-20)
(-0.0789431 0.0212815 -3.16516e-20)
(-0.083719 0.0203569 4.47458e-20)
(-0.0882403 0.0193789 1.40594e-20)
(-0.0924872 0.0183719 0)
(-0.0964453 0.0173632 -2.48672e-20)
(-0.100107 0.0163835 0)
(-0.103473 0.0154678 -6.58183e-20)
(-0.106554 0.0146553 4.11783e-20)
(-0.109374 0.0139882 -4.24288e-24)
(-0.111977 0.0135078 3.62121e-20)
(-0.114418 0.0132464 -5.08692e-20)
(-0.116721 0.0132288 3.17635e-20)
(-0.118985 0.0134934 1.48848e-20)
(-0.000607928 0.00309971 -1.75693e-20)
(-0.00223508 0.00843448 1.80789e-20)
(-0.00473972 0.0130253 -1.7488e-24)
(-0.00791027 0.0169393 -4.97427e-20)
(-0.0116315 0.020227 0)
(-0.0158263 0.0229335 3.01694e-20)
(-0.0204135 0.0251048 -2.88244e-20)
(-0.0253132 0.0267866 5.47044e-20)
(-0.0304504 0.0280237 0)
(-0.0357551 0.0288597 -2.46916e-20)
(-0.0411622 0.0293368 -2.34264e-20)
(-0.0466113 0.0294954 -2.22057e-20)
(-0.0520472 0.0293738 -6.3166e-20)
(-0.0574196 0.029008 2.5011e-24)
(-0.0626828 0.0284316 -1.81686e-23)
(-0.0677952 0.0276758 -1.44198e-23)
(-0.0727194 0.0267695 5.03746e-20)
(-0.0774219 0.0257404 -3.47416e-23)
(-0.0818725 0.0246152 3.15027e-23)
(-0.0860447 0.0234212 -2.80881e-20)
(-0.0899159 0.0221872 -2.0576e-23)
(-0.0934681 0.0209456 4.97479e-20)
(-0.0966893 0.0197332 -7.01524e-20)
(-0.0995752 0.0185932 2.19462e-20)
(-0.102132 0.0175746 0)
(-0.10438 0.0167318 0)
(-0.106361 0.0161198 -3.62118e-20)
(-0.108135 0.0157848 3.3936e-20)
(-0.109712 0.0157654 -3.17605e-20)
(-0.111199 0.0161147 0)
(-0.000769594 0.00359579 -1.76217e-20)
(-0.0026533 0.00979149 0)
(-0.0053375 0.0151312 1.73541e-20)
(-0.00862358 0.0196902 9.96728e-20)
(-0.0124038 0.023525 -3.16886e-20)
(-0.0166063 0.0266866 0)
(-0.0211546 0.0292272 -5.25582e-23)
(-0.0259733 0.0311988 2.74291e-20)
(-0.0309915 0.0326528 -2.60455e-20)
(-0.0361423 0.033639 0)
(-0.0413636 0.0342062 0)
(-0.0465977 0.034401 -4.45391e-20)
(-0.0517913 0.0342677 6.31948e-20)
(-0.0568957 0.0338478 -1.99294e-20)
(-0.061866 0.0331801 0)
(-0.0666616 0.0323006 3.56254e-20)
(-0.0712448 0.0312424 -3.35699e-20)
(-0.0755815 0.0300372 3.17072e-20)
(-0.07964 0.0287151 -5.97341e-20)
(-0.0833916 0.027307 -8.44384e-20)
(-0.0868104 0.0258455 2.64672e-20)
(-0.0898743 0.0243672 2.49041e-20)
(-0.0925659 0.0229149 2.33807e-20)
(-0.094875 0.0215391 0)
(-0.0968016 0.0202993 -4.1251e-20)
(-0.0983601 0.0192635 0)
(-0.0995918 0.0185035 0)
(-0.10056 0.0180835 -6.78842e-20)
(-0.10126 0.0180625 -8.13134e-24)
(-0.101803 0.0185146 -8.93215e-20)
(-0.000951782 0.00406034 1.76217e-20)
(-0.00312537 0.0110656 3.64226e-20)
(-0.00601327 0.0171134 3.48653e-20)
(-0.00943096 0.022285 -3.32504e-20)
(-0.0132788 0.026642 0)
(-0.0174903 0.03024 0)
(-0.0219944 0.0331364 2.88393e-20)
(-0.0267203 0.0353889 -2.74797e-20)
(-0.0316013 0.0370544 -3.9385e-23)
(-0.0365745 0.0381889 4.96266e-20)
(-0.0415807 0.0388467 0)
(-0.046565 0.0390802 4.45389e-20)
(-0.0514764 0.0389393 0)
(-0.0562678 0.0384707 0)
(-0.0608959 0.037718 1.71777e-23)
(-0.0653203 0.0367214 3.56496e-20)
(-0.0695037 0.0355181 -3.36715e-20)
(-0.073411 0.0341429 6.35057e-20)
(-0.0770091 0.032629 -2.99255e-20)
(-0.0802669 0.0310101 8.44801e-20)
(-0.0831549 0.0293217 0)
(-0.085646 0.027604 0)
(-0.0877171 0.0259045 4.68701e-20)
(-0.0893509 0.0242806 0)
(-0.0905395 0.0228025 4.12269e-20)
(-0.0912899 0.021553 -3.86984e-20)
(-0.0916409 0.0206239 3.62479e-20)
(-0.0916616 0.0201033 -3.39575e-20)
(-0.0913287 0.0200789 6.35614e-20)
(-0.0907441 0.0206563 8.93586e-20)
(-0.00115187 0.00449019 0)
(-0.00364478 0.0122483 -3.64226e-20)
(-0.00675808 0.0189584 9.21743e-23)
(-0.0103221 0.0247064 0)
(-0.0142455 0.0295569 -6.3769e-20)
(-0.0184674 0.0335696 -3.55715e-23)
(-0.0229221 0.0368059 2.89136e-20)
(-0.0275439 0.0393283 0)
(-0.0322703 0.0411985 2.61328e-20)
(-0.0370424 0.0424778 -4.96265e-20)
(-0.0418044 0.0432259 0)
(-0.0465043 0.0435002 0)
(-0.0510936 0.0433558 -4.22989e-20)
(-0.0555269 0.0428441 3.99891e-20)
(-0.0597623 0.0420131 -3.77851e-20)
(-0.0637602 0.040907 0)
(-0.0674832 0.0395663 -3.37565e-20)
(-0.0708955 0.0380287 -9.53528e-20)
(-0.0739626 0.0363298 -1.43212e-23)
(-0.0766505 0.0345051 -1.07184e-23)
(-0.0789261 0.0325923 2.65399e-20)
(-0.0807571 0.030634 4.99157e-20)
(-0.0821136 0.0286811 -9.37636e-20)
(-0.0829703 0.0267973 4.4048e-20)
(-0.0833099 0.0250624 -8.21001e-24)
(-0.0831299 0.0235753 1.99109e-23)
(-0.0824639 0.022451 2.18795e-23)
(-0.0813884 0.0218087 3.39776e-20)
(-0.0798617 0.0217751 0)
(-0.0779446 0.0225018 0)
(-0.00136708 0.00488282 3.55364e-20)
(-0.00420462 0.0133324 1.00638e-22)
(-0.00756241 0.0206552 1.00256e-22)
(-0.0112859 0.0269393 -6.69804e-20)
(-0.0152921 0.0322515 6.38098e-20)
(-0.0195255 0.0366541 0)
(-0.0239259 0.0402118 0)
(-0.0284325 0.0429906 5.51955e-20)
(-0.0329874 0.0450569 -5.24111e-20)
(-0.0375354 0.0464762 3.90378e-23)
(-0.0420245 0.0473129 9.44663e-20)
(-0.0464053 0.0476293 4.47584e-20)
(-0.050632 0.0474849 -8.47266e-20)
(-0.0546613 0.0469356 4.00633e-20)
(-0.0584524 0.0460334 3.78933e-20)
(-0.0619665 0.0448259 -3.57677e-20)
(-0.0651663 0.0433566 6.74772e-20)
(-0.0680152 0.0416655 9.55839e-20)
(-0.0704771 0.0397901 6.00668e-20)
(-0.0725152 0.0377671 2.82627e-20)
(-0.0740924 0.035635 -5.31524e-20)
(-0.0751709 0.0334374 0)
(-0.0757136 0.0312275 3.33824e-23)
(-0.075686 0.0290734 4.41212e-20)
(-0.0750602 0.0270636 4.13243e-20)
(-0.0738217 0.0253128 -7.7545e-20)
(-0.0719952 0.0239626 -3.63071e-20)
(-0.0696672 0.023171 6.79617e-20)
(-0.066782 0.0231152 0)
(-0.0632907 0.024009 -5.9489e-20)
(-0.0015946 0.0052364 3.56127e-20)
(-0.00479777 0.0143126 -7.33525e-20)
(-0.00841639 0.0221949 2.27872e-23)
(-0.0123108 0.0289716 -9.88631e-23)
(-0.016406 0.0347104 0)
(-0.0206518 0.0394751 0)
(-0.024993 0.0433327 0)
(-0.0293736 0.0463523 -5.53284e-20)
(-0.0337402 0.0486036 5.25372e-20)
(-0.0380413 0.0501561 -4.98362e-20)
(-0.0422284 0.0510783 -9.46005e-20)
(-0.0462553 0.0514368 -2.68417e-23)
(-0.0500784 0.0512952 8.49302e-20)
(-0.0536563 0.0507134 4.01947e-20)
(-0.0569496 0.0497469 0)
(-0.0599203 0.0484465 -7.1751e-20)
(-0.0625309 0.0468584 1.01537e-19)
(-0.064744 0.0450243 -9.56207e-20)
(-0.0665216 0.0429829 -6.00938e-20)
(-0.0678243 0.0407714 -1.69792e-19)
(-0.0686108 0.0384282 -4.63472e-24)
(-0.0688374 0.0359966 3.89298e-24)
(-0.0684593 0.0335301 3.19222e-23)
(-0.0674322 0.031099 -8.81954e-20)
(-0.0657162 0.0287983 1.24169e-19)
(-0.063282 0.0267577 -5.30803e-23)
(-0.060141 0.0251474 0)
(-0.0563926 0.0241727 -6.79605e-20)
(-0.0519891 0.0240728 6.35596e-20)
(-0.046629 0.0251401 5.97391e-20)
(-0.00183159 0.00554978 0)
(-0.00541711 0.0151853 -3.68382e-20)
(-0.00931005 0.023571 3.51941e-20)
(-0.013385 0.0307939 6.72733e-20)
(-0.0175745 0.0369212 3.2164e-20)
(-0.0218329 0.0420172 -6.12016e-20)
(-0.0261096 0.0461504 -6.30414e-23)
(-0.0303534 0.0493922 -5.54325e-20)
(-0.0345147 0.0518151 0)
(-0.038546 0.0534918 5.00755e-20)
(-0.0424018 0.0544946 0)
(-0.0460389 0.0548936 0)
(-0.049416 0.0547563 -8.5079e-20)
(-0.0524935 0.0541461 -8.04388e-20)
(-0.0552333 0.0531219 1.14143e-19)
(-0.0575975 0.0517374 7.17504e-20)
(-0.0595487 0.0500407 7.18994e-23)
(-0.0610485 0.0480753 -6.38815e-20)
(-0.0620567 0.0458806 1.2035e-19)
(-0.0625309 0.0434935 4.16049e-24)
(-0.0624253 0.0409513 1.06652e-19)
(-0.0616906 0.0382957 0)
(-0.0602738 0.0355785 0)
(-0.0581199 0.0328694 8.83699e-20)
(-0.0551761 0.030267 -1.2417e-19)
(-0.0513959 0.0279133 1.16386e-19)
(-0.0467707 0.0260075 -7.26589e-20)
(-0.0414136 0.0248066 6.79804e-20)
(-0.0353441 0.024628 -1.27114e-19)
(-0.0277919 0.0259322 5.97774e-20)
(-0.00207535 0.00582256 -3.59367e-20)
(-0.00605566 0.0159486 0)
(-0.0102335 0.0247797 0)
(-0.0144967 0.0323997 -6.76358e-20)
(-0.0187844 0.0388746 1.28995e-19)
(-0.0230546 0.0442681 -6.13869e-20)
(-0.0272612 0.0486497 -1.00122e-22)
(-0.0313567 0.0520922 5.55874e-20)
(-0.0352954 0.0546704 0)
(-0.0390332 0.0564599 7.34091e-23)
(-0.0425275 0.0575358 1.97924e-23)
(-0.0457377 0.0579719 -9.00781e-20)
(-0.0486247 0.0578389 -1.51139e-22)
(-0.0511503 0.0572034 -4.03263e-20)
(-0.0532772 0.0561274 -1.14311e-19)
(-0.0549679 0.054667 7.19636e-20)
(-0.0561843 0.0528726 -6.78758e-20)
(-0.0568864 0.0507888 1.28065e-19)
(-0.0570318 0.0484553 -1.20628e-19)
(-0.0565748 0.0459084 -1.1351e-19)
(-0.0554647 0.0431837 3.28514e-23)
(-0.0536461 0.0403199 -5.01765e-20)
(-0.0510574 0.0373649 4.70993e-20)
(-0.0476331 0.0343852 5.52756e-23)
(-0.043306 0.0314788 -1.24387e-19)
(-0.0380108 0.0287953 -7.76644e-20)
(-0.0317126 0.0265591 1.45337e-19)
(-0.0245232 0.0250695 -1.35956e-19)
(-0.0165764 0.0247304 6.35539e-20)
(-0.00664647 0.0265689 7.87133e-23)
(-0.00232332 0.00605497 1.07975e-19)
(-0.0067068 0.0166022 -3.70433e-20)
(-0.0111773 0.0258193 -7.09558e-20)
(-0.0156343 0.0337855 2.03219e-19)
(-0.0200223 0.0405644 2.1225e-22)
(-0.0243026 0.046219 0)
(-0.0284322 0.0508186 0)
(-0.0323673 0.0544374 5.57737e-20)
(-0.036065 0.0571517 -5.28942e-20)
(-0.0394843 0.0590395 5.02601e-20)
(-0.0425854 0.0601788 -4.76666e-20)
(-0.0453296 0.0606461 -9.04133e-20)
(-0.0476797 0.0605153 1.70813e-19)
(-0.0495985 0.0598561 -4.03993e-20)
(-0.0510491 0.058733 7.62096e-20)
(-0.0519937 0.0572047 -1.44177e-19)
(-0.052393 0.0553233 -1.33019e-23)
(-0.0522051 0.0531347 4.90239e-23)
(-0.0513845 0.0506788 1.2073e-19)
(-0.0498813 0.047991 -4.27138e-23)
(-0.0476399 0.0451046 0)
(-0.0445978 0.0420545 0)
(-0.0406852 0.0388835 -4.72397e-20)
(-0.035825 0.0356515 -1.76954e-19)
(-0.0299356 0.0324513 1.24423e-19)
(-0.0229324 0.0294336 -4.20128e-23)
(-0.0147583 0.0268391 -1.45372e-19)
(-0.00551326 0.0250021 1.35867e-19)
(0.004747 0.024486 -6.35814e-20)
(0.017168 0.0268763 5.92414e-20)
(-0.00257319 0.00624793 0)
(-0.00736436 0.0171477 0)
(-0.0121323 0.0266906 7.13118e-20)
(-0.0167864 0.0349504 -1.35875e-19)
(-0.0212752 0.0419876 8.53884e-23)
(-0.025562 0.0478639 -6.18142e-20)
(-0.0296064 0.0526484 1.76558e-19)
(-0.033367 0.0564157 -1.67865e-19)
(-0.0368038 0.0592439 -3.90564e-24)
(-0.0398779 0.0612127 -5.03982e-20)
(-0.0425515 0.0624026 -1.43471e-19)
(-0.0447879 0.0628929 1.35651e-19)
(-0.0465506 0.0627602 0)
(-0.0478034 0.0620768 0)
(-0.0485088 0.06091 7.64319e-20)
(-0.0486281 0.0593207 1.44524e-19)
(-0.0481199 0.0573628 -6.81268e-20)
(-0.0469394 0.0550834 0)
(-0.0450373 0.0525228 -6.04803e-20)
(-0.0423586 0.0497157 9.76834e-24)
(-0.0388415 0.0466929 -5.35904e-20)
(-0.0344161 0.0434853 0)
(-0.0290032 0.0401291 -4.7298e-20)
(-0.0225146 0.0366759 4.43145e-20)
(-0.0148535 0.0332085 -8.29446e-20)
(-0.00591533 0.0298714 2.33136e-19)
(0.00437878 0.0269109 -8.82535e-23)
(0.0159428 0.0246998 6.79423e-20)
(0.0288276 0.0239789 0)
(0.0442405 0.026703 -5.9633e-20)
(-0.00282295 0.00640295 -7.26314e-20)
(-0.00802278 0.017588 7.46673e-20)
(-0.0130901 0.0273965 1.56963e-22)
(-0.0179421 0.0358962 -6.82054e-20)
(-0.0225298 0.043144 0)
(-0.0268175 0.0492002 -1.24128e-19)
(-0.0307662 0.0541334 8.46641e-23)
(-0.0343362 0.0580187 5.59281e-20)
(-0.0374895 0.0609353 3.48397e-24)
(-0.0401886 0.0629647 -2.11581e-24)
(-0.0423974 0.0641897 1.4359e-19)
(-0.04408 0.064692 4.5365e-20)
(-0.0452006 0.0645507 4.30215e-20)
(-0.0457222 0.0638408 -8.11567e-20)
(-0.0456068 0.0626319 7.66632e-20)
(-0.0448132 0.0609873 -7.22934e-20)
(-0.0432971 0.0589628 6.82468e-20)
(-0.0410096 0.0566069 -6.43234e-20)
(-0.0378961 0.0539604 0)
(-0.0338952 0.0510577 -5.70843e-20)
(-0.0289376 0.0479278 1.071e-19)
(-0.0229447 0.0445977 5.03921e-20)
(-0.0158273 0.041097 -4.73323e-20)
(-0.00748506 0.0374674 1.77345e-19)
(0.00219339 0.0337784 -4.15676e-20)
(0.0133326 0.0301598 7.77652e-20)
(0.026037 0.0268504 -7.26037e-20)
(0.040233 0.0242483 8.57686e-23)
(0.0560397 0.0232469 0)
(0.0749976 0.0262689 -1.17869e-19)
(-0.00307091 0.00652205 -1.16211e-22)
(-0.00867719 0.0179273 -7.4971e-20)
(-0.0140429 0.0279419 0)
(-0.0190908 0.0366269 -6.86125e-20)
(-0.023773 0.0440362 6.53222e-20)
(-0.0280531 0.0502283 -9.72309e-23)
(-0.0318925 0.0552715 0)
(-0.0352528 0.0592411 -8.61889e-23)
(-0.0380964 0.0622176 -5.33481e-20)
(-0.0403871 0.0642843 5.06853e-20)
(-0.0420891 0.0655259 0)
(-0.0431669 0.0660265 -9.09456e-20)
(-0.0435841 0.0658675 8.6247e-20)
(-0.0433027 0.0651265 0)
(-0.0422821 0.0638756 0)
(-0.040478 0.0621801 0)
(-0.0378417 0.0600982 0)
(-0.0343185 0.0576798 6.44121e-20)
(-0.0298468 0.0549671 -6.06667e-20)
(-0.0243571 0.0519945 1.71133e-19)
(-0.0177707 0.0487903 -1.07311e-19)
(-0.0099987 0.0453784 -1.00717e-19)
(-0.000940346 0.0417831 1.41907e-19)
(0.00951724 0.0380358 6.02491e-23)
(0.0214998 0.0341908 -8.31319e-20)
(0.0351502 0.0303568 -7.7763e-20)
(0.0506009 0.0267507 -7.26917e-20)
(0.0677891 0.023766 1.35743e-19)
(0.0868517 0.0224059 -1.26522e-19)
(0.109951 0.025746 2.35373e-19)
(-0.00331576 0.00660766 1.46399e-19)
(-0.00932342 0.0181708 -1.34071e-22)
(-0.0149838 0.028333 -1.44125e-19)
(-0.0202226 0.0371489 1.37489e-19)
(-0.0249912 0.0446692 -6.56754e-20)
(-0.0292517 0.0509513 -6.2436e-20)
(-0.0329647 0.0560632 5.9401e-20)
(-0.0360916 0.060081 5.64448e-20)
(-0.0385949 0.0630862 -1.0727e-19)
(-0.0404383 0.0651639 -1.52615e-19)
(-0.0415859 0.066401 -4.81336e-20)
(-0.0420011 0.0668836 1.82354e-19)
(-0.0416462 0.0666957 -2.58618e-19)
(-0.0404805 0.0659172 8.15151e-20)
(-0.0384601 0.0646226 0)
(-0.0355358 0.0628797 0)
(-0.0316526 0.0607488 0)
(-0.0267482 0.0582821 1.29057e-19)
(-0.0207521 0.0555234 -6.07497e-20)
(-0.0135843 0.0525085 -5.72153e-20)
(-0.00515461 0.0492659 -1.0742e-19)
(0.00463841 0.0458183 1.00894e-19)
(0.0159086 0.0421859 -4.73701e-20)
(0.0287826 0.0383925 -8.88505e-20)
(0.0433996 0.034477 -9.88716e-23)
(0.0599181 0.0305235 -1.55451e-19)
(0.0784972 0.0267147 2.18044e-19)
(0.0990851 0.0234053 -2.03715e-19)
(0.121767 0.0216361 6.35942e-20)
(0.14968 0.0253096 -5.85559e-20)
(-0.00355654 0.00666255 -7.33555e-20)
(-0.00995797 0.0183249 7.54752e-20)
(-0.0159062 0.0285777 7.21469e-20)
(-0.0213275 0.03747 -2.07041e-19)
(-0.0261707 0.0450502 6.56722e-20)
(-0.0303951 0.051375 6.26618e-20)
(-0.0339596 0.0565125 0)
(-0.0368241 0.0605398 0)
(-0.0389504 0.0635401 5.36728e-20)
(-0.0403011 0.0656003 1.01797e-19)
(-0.0408389 0.0668093 -1.93247e-19)
(-0.0405253 0.0672557 -8.70908e-23)
(-0.0393197 0.0670257 0)
(-0.0371777 0.0662017 0)
(-0.03405 0.0648607 -7.70866e-20)
(-0.0298809 0.0630731 3.72431e-23)
(-0.0246072 0.0609018 6.8593e-20)
(-0.0181567 0.0584014 -6.45553e-20)
(-0.0104475 0.0556184 -1.2168e-19)
(-0.00138697 0.0525907 1.14335e-19)
(0.0091292 0.0493488 5.37335e-20)
(0.0212173 0.0459161 -1.5151e-19)
(0.0350062 0.0423117 -9.46676e-20)
(0.0506367 0.0385543 8.89557e-20)
(0.0682612 0.0346712 8.32543e-20)
(0.088049 0.0307221 7.77841e-20)
(0.110181 0.0268487 0)
(0.13462 0.0233364 0)
(0.16129 0.0211544 1.26171e-19)
(0.19476 0.0251867 0)
(-0.00379262 0.00668965 7.40036e-20)
(-0.010578 0.018396 -7.59688e-20)
(-0.0168041 0.0286845 1.45324e-19)
(-0.0223954 0.0375996 -2.80535e-22)
(-0.0272968 0.0451882 0)
(-0.0314633 0.0515071 0)
(-0.0348509 0.0566257 0)
(-0.0374174 0.0606224 -5.6804e-20)
(-0.0391224 0.0635823 5.39381e-20)
(-0.0399265 0.0655946 0)
(-0.0397898 0.0667504 9.67001e-20)
(-0.0386706 0.0671407 9.16595e-20)
(-0.0365239 0.0668544 -8.66566e-20)
(-0.0332998 0.0659762 8.18649e-20)
(-0.0289419 0.0645859 -9.46646e-23)
(-0.0233859 0.0627565 -7.28855e-20)
(-0.016558 0.060554 -6.87158e-20)
(-0.00837405 0.0580361 1.94078e-19)
(0.00126191 0.0552526 6.07838e-20)
(0.0124579 0.0522449 -1.14533e-19)
(0.0253346 0.0490469 -5.37665e-20)
(0.0400252 0.045685 5.04947e-20)
(0.0566746 0.0421802 0)
(0.0754387 0.0385504 -8.88295e-20)
(0.0964806 0.034816 -8.31575e-20)
(0.119974 0.0310176 0)
(0.146113 0.0272568 7.24488e-20)
(0.174883 0.0237326 -1.35709e-19)
(0.205889 0.0211952 -1.89398e-19)
(0.245697 0.0256539 0)
(-0.00402367 0.00669194 -1.48173e-19)
(-0.011181 0.0183911 7.64593e-20)
(-0.0176717 0.0286625 -1.45805e-19)
(-0.0234161 0.0375476 -2.89611e-22)
(-0.0283535 0.0450933 0)
(-0.0324337 0.0513577 0)
(-0.0356088 0.0564119 6.01368e-20)
(-0.0378332 0.0603367 1.14222e-19)
(-0.0390634 0.0632197 0)
(-0.0392567 0.0651526 0)
(-0.0383692 0.0662293 -1.94264e-19)
(-0.0363546 0.0665433 9.19641e-20)
(-0.0331618 0.0661861 -1.40637e-22)
(-0.0287335 0.0652454 0)
(-0.0230042 0.0638036 -3.19896e-23)
(-0.0158985 0.0619371 7.3004e-20)
(-0.00732982 0.059715 -1.59025e-22)
(0.00280075 0.0571989 -2.5904e-19)
(0.0146054 0.0544428 -6.09535e-20)
(0.0282099 0.0514928 1.1453e-19)
(0.0437531 0.0483877 1.07579e-19)
(0.0613863 0.0451592 -8.49757e-23)
(0.0812708 0.0418331 9.47905e-20)
(0.103575 0.0384307 1.77643e-19)
(0.12847 0.0349719 8.31543e-20)
(0.156125 0.0314858 7.77033e-20)
(0.18673 0.028042 7.23726e-20)
(0.220312 0.0247611 1.34957e-19)
(0.255941 0.0219914 -7.64756e-22)
(0.302842 0.0270169 5.70108e-20)
(-0.00424957 0.00667231 1.49215e-19)
(-0.0117648 0.0183168 -2.29883e-19)
(-0.0185029 0.0285207 1.46444e-19)
(-0.024378 0.0373247 1.39738e-19)
(-0.0293228 0.0447769 6.65637e-20)
(-0.0332806 0.0509381 -4.17589e-23)
(-0.0361986 0.0558825 -6.00462e-20)
(-0.0380269 0.0596939 -1.14221e-19)
(-0.0387176 0.0624633 2.39732e-22)
(-0.0382234 0.0642854 2.05679e-19)
(-0.0364951 0.0652572 -9.76798e-20)
(-0.0334798 0.0654752 1.84207e-19)
(-0.0291187 0.0650339 -1.09099e-22)
(-0.0233447 0.064024 -1.6431e-19)
(-0.016081 0.0625313 -1.55348e-23)
(-0.00723891 0.0606355 0)
(0.00328354 0.0584097 3.44165e-19)
(0.0156023 0.0559202 6.47075e-20)
(0.0298482 0.0532258 0)
(0.0461659 0.0503787 5.72798e-20)
(0.0647135 0.0474239 -5.38772e-20)
(0.0856598 0.0444006 2.02059e-19)
(0.10918 0.0413418 -2.84345e-19)
(0.135452 0.038276 8.88717e-20)
(0.164644 0.0352281 0)
(0.196911 0.0322238 7.75712e-20)
(0.232409 0.0293129 -1.44865e-19)
(0.271239 0.0265779 1.34906e-19)
(0.311671 0.0237552 -1.25578e-19)
(0.366294 0.0295805 -1.15432e-19)
(-0.00447029 0.0066334 -1.49738e-19)
(-0.0123271 0.0181794 -3.62761e-22)
(-0.0192912 0.028268 -7.33843e-20)
(-0.0252686 0.0369411 -7.00188e-20)
(-0.0301842 0.0442504 -1.33843e-19)
(-0.0339745 0.0502607 6.36515e-20)
(-0.0365805 0.0550506 7.96313e-23)
(-0.0379468 0.0587081 -1.14821e-19)
(-0.0380201 0.0613279 -1.6304e-19)
(-0.0367471 0.063009 1.49957e-22)
(-0.0340715 0.0638518 9.74238e-20)
(-0.0299321 0.0639562 -1.84421e-19)
(-0.0242601 0.0634203 8.72672e-20)
(-0.0169766 0.0623381 8.23891e-20)
(-0.00799095 0.0607993 -8.98937e-24)
(0.00280136 0.0588876 7.32278e-20)
(0.0155198 0.0566809 -1.37759e-19)
(0.0302994 0.0542506 0)
(0.0472906 0.0516617 -1.22049e-19)
(0.0666579 0.0489732 1.14695e-19)
(0.0885772 0.0462382 -1.07705e-19)
(0.113231 0.0435042 -1.01069e-19)
(0.140805 0.0408139 0)
(0.171473 0.0382051 -2.66144e-19)
(0.205392 0.0357113 1.64318e-22)
(0.242679 0.0333618 -3.87765e-19)
(0.283425 0.0311949 2.17421e-19)
(0.327832 0.0293296 -2.69514e-19)
(0.373103 0.0266667 1.25571e-19)
(0.435801 0.0336142 -1.14154e-19)
(-0.00468576 0.00657747 7.50492e-20)
(-0.0128653 0.0179842 7.71713e-20)
(-0.0200286 0.0279122 7.40742e-20)
(-0.0260728 0.0364068 -1.90535e-22)
(-0.0309142 0.0435255 -1.69598e-22)
(-0.0344811 0.0493389 0)
(-0.0367079 0.0539312 0)
(-0.0375328 0.0573959 0)
(-0.0368957 0.0598327 0)
(-0.0347354 0.061345 0)
(-0.0309872 0.0620376 9.77569e-20)
(-0.0255794 0.0620147 -9.24506e-20)
(-0.0184309 0.0613781 8.74729e-20)
(-0.00944869 0.0602262 7.38147e-24)
(0.00147405 0.0586528 -7.77029e-20)
(0.0144598 0.0567467 1.61898e-23)
(0.0296475 0.054591 -1.38053e-19)
(0.0471923 0.0522635 1.29881e-19)
(0.0672643 0.0498361 1.22046e-19)
(0.0900459 0.047376 -1.14581e-19)
(0.115727 0.0449449 2.15503e-19)
(0.144498 0.0426003 0)
(0.176541 0.0403947 -1.8929e-19)
(0.212014 0.0383762 3.2493e-22)
(0.251041 0.0365885 3.87073e-22)
(0.293677 0.0350669 5.69137e-22)
(0.339899 0.033838 -7.19367e-20)
(0.390023 0.0331535 1.34608e-19)
(0.439998 0.0308692 1.25091e-19)
(0.510666 0.0393201 5.92698e-20)
(-0.00489575 0.00650627 0)
(-0.013376 0.0177357 7.77337e-20)
(-0.0207059 0.0274598 -7.38944e-20)
(-0.0267732 0.0357307 -1.35168e-22)
(-0.0314847 0.0426133 1.34903e-19)
(-0.0347606 0.0481862 -6.42037e-20)
(-0.0365275 0.0525406 0)
(-0.0367159 0.0557767 0)
(-0.0352578 0.0580002 -1.0953e-19)
(-0.0320828 0.0593202 1.03906e-19)
(-0.0271154 0.0598464 9.83231e-20)
(-0.0202713 0.0596879 0)
(-0.0114551 0.0589513 8.76894e-20)
(-0.000557363 0.0577398 0)
(0.0125472 0.0561524 -1.55634e-19)
(0.0280007 0.0542838 2.20058e-19)
(0.0459623 0.0522233 2.07114e-19)
(0.066607 0.0500559 -6.49751e-20)
(0.0901224 0.0478615 -1.17669e-22)
(0.116704 0.045716 -1.72142e-19)
(0.146549 0.0436907 0)
(0.179842 0.0418525 0)
(0.216746 0.0402641 9.46878e-20)
(0.257381 0.0389826 1.77123e-19)
(0.301807 0.0380598 -1.02548e-22)
(0.349987 0.0375357 1.54864e-19)
(0.401738 0.037415 1.44385e-19)
(0.457438 0.0381689 0)
(0.511824 0.0364676 -1.25083e-19)
(0.589679 0.0468004 1.71971e-19)
(-0.00509964 0.00642096 7.62347e-20)
(-0.0138545 0.0174369 0)
(-0.0213115 0.0269162 1.61828e-22)
(-0.0273487 0.0349204 -7.11988e-20)
(-0.0318634 0.0415243 6.79429e-20)
(-0.034767 0.0468162 6.43987e-20)
(-0.0359777 0.0508961 -1.12507e-22)
(-0.0354175 0.0538721 5.82482e-20)
(-0.0330086 0.0558571 0)
(-0.02867 0.0569667 -2.08347e-19)
(-0.0223133 0.0573168 2.68879e-22)
(-0.0138397 0.0570219 0)
(-0.00313707 0.0561946 8.78946e-20)
(0.00992251 0.0549437 -2.48466e-19)
(0.0254841 0.0533745 7.81133e-20)
(0.0437101 0.0515883 -7.33837e-20)
(0.0647795 0.0496819 -1.38263e-19)
(0.0888844 0.0477481 -1.9516e-19)
(0.116225 0.0458757 0)
(0.147002 0.0441494 0)
(0.181405 0.0426498 1.07676e-19)
(0.219597 0.0414526 1.00835e-19)
(0.261697 0.0406281 -9.47271e-20)
(0.307756 0.0402395 0)
(0.357733 0.040342 0)
(0.41146 0.0409738 0)
(0.468563 0.0421064 1.43767e-19)
(0.52933 0.044454 -6.66999e-20)
(0.587725 0.0435264 1.25615e-19)
(0.671083 0.0560327 1.11651e-19)
(-0.0052963 0.00632203 -1.52679e-19)
(-0.0142946 0.0170893 7.85867e-20)
(-0.021831 0.0262848 -7.52471e-20)
(-0.0277742 0.033982 7.17362e-20)
(-0.0320124 0.0402679 -6.79428e-20)
(-0.0344475 0.0452424 6.46933e-20)
(-0.0349888 0.0490159 -6.15482e-20)
(-0.0335487 0.0517058 -1.16373e-19)
(-0.0300384 0.0534334 1.10676e-19)
(-0.0243641 0.054322 2.09022e-19)
(-0.016423 0.0544943 9.86419e-20)
(-0.00609954 0.054072 -9.341e-20)
(0.00673684 0.053174 2.21497e-22)
(0.0222339 0.0519162 2.42678e-23)
(0.0405569 0.0504111 7.8263e-20)
(0.061888 0.0487676 0)
(0.0864229 0.0470908 1.38338e-19)
(0.114365 0.0454821 3.25232e-19)
(0.145919 0.044039 -6.12012e-20)
(0.181276 0.0428549 0)
(0.220599 0.0420179 -2.15333e-19)
(0.264004 0.0416099 -1.00902e-19)
(0.311536 0.0417049 -9.43535e-20)
(0.363138 0.042366 8.85865e-20)
(0.418629 0.0436447 -8.24133e-20)
(0.477657 0.0455663 7.72919e-20)
(0.539656 0.0480745 -3.56978e-22)
(0.604551 0.0520178 1.33126e-19)
(0.666495 0.0520943 -1.24397e-19)
(0.752513 0.0668959 -2.24581e-19)
(-0.0054839 0.00620925 7.71477e-20)
(-0.014688 0.0166929 7.90135e-20)
(-0.0222466 0.0255673 -2.39707e-22)
(-0.0280202 0.0329199 4.04739e-22)
(-0.0318878 0.0388523 0)
(-0.033742 0.0434778 -2.44027e-22)
(-0.0334825 0.0469188 -1.85696e-19)
(-0.0310108 0.0493034 0)
(-0.0262259 0.0507626 -1.11073e-19)
(-0.0190197 0.0514283 -4.19568e-19)
(-0.00927287 0.0514316 9.92618e-20)
(0.00314824 0.0509019 -9.36979e-20)
(0.0183939 0.0499661 -1.76212e-19)
(0.036632 0.0487482 1.66531e-19)
(0.0580471 0.0473687 0)
(0.0828375 0.0459452 7.35755e-20)
(0.11121 0.0445916 -2.08067e-19)
(0.14337 0.0434178 -6.51489e-20)
(0.179511 0.0425296 -1.83595e-19)
(0.219796 0.0420268 0)
(0.264336 0.0420021 2.15306e-19)
(0.313167 0.0425388 1.00897e-19)
(0.366222 0.0437075 0)
(0.423295 0.0455626 8.82616e-20)
(0.48402 0.0481424 0)
(0.547814 0.0514435 -7.66617e-20)
(0.613938 0.055421 -2.14544e-19)
(0.681606 0.0607703 -2.65872e-19)
(0.746575 0.0622897 -1.2328e-19)
(0.830874 0.0792521 -3.37836e-21)
(-0.00565971 0.00608171 -7.71477e-20)
(-0.0150241 0.0162464 2.96508e-22)
(-0.0225369 0.0247635 7.59481e-20)
(-0.028052 0.031737 -7.21408e-20)
(-0.0314396 0.0372847 -6.8773e-20)
(-0.032583 0.0415352 1.30479e-19)
(-0.0313717 0.0446244 6.2193e-20)
(-0.0276954 0.0466924 1.17836e-19)
(-0.0214395 0.0478813 1.11133e-19)
(-0.0124801 0.0483327 1.0549e-19)
(-0.000680189 0.0481874 1.99271e-19)
(0.0141132 0.0475837 -3.07949e-22)
(0.0320699 0.0466577 0)
(0.0533767 0.0455421 -8.32468e-20)
(0.0782341 0.044367 -2.18854e-22)
(0.106851 0.0432587 1.32727e-22)
(0.139433 0.04234 2.08168e-19)
(0.176176 0.0417286 0)
(0.21724 0.0415362 1.22346e-19)
(0.262733 0.0418658 0)
(0.312683 0.0428091 2.37119e-24)
(0.367007 0.044443 -1.0064e-19)
(0.425482 0.0468248 1.88698e-19)
(0.487713 0.0499884 -8.85118e-20)
(0.553112 0.0539461 -1.64534e-19)
(0.620837 0.0586483 7.68661e-20)
(0.690002 0.0641194 2.85778e-19)
(0.758869 0.0705024 6.61425e-20)
(0.8262 0.0743597 3.06448e-19)
(0.902533 0.0926111 5.82156e-20)
(-0.00582003 0.00593785 7.78948e-20)
(-0.0152896 0.0157468 -1.59871e-19)
(-0.0226763 0.0238718 0)
(-0.0278294 0.0304347 0)
(-0.0306113 0.0355713 6.91686e-20)
(-0.0308956 0.039427 -2.68534e-22)
(-0.0285612 0.0421528 -1.24483e-19)
(-0.0234853 0.0439023 -1.18034e-19)
(-0.0155385 0.0448293 4.05817e-22)
(-0.00457997 0.0450871 4.21804e-22)
(0.00954563 0.0448268 -9.96402e-20)
(0.0270103 0.0441972 1.87986e-19)