/*--------------------------------*- C++ -*----------------------------------*\
  =========                 |
  \\      /  F ield         | OpenFOAM: The Open Source CFD Toolbox
   \\    /   O peration     | Website:  https://openfoam.org
    \\  /    A nd           | Version:  7
     \\/     M anipulation  |
\*---------------------------------------------------------------------------*/
FoamFile
{
    version     2.0;
    format      ascii;
    class       volScalarField;
    location    "5";
    object      p;
}
// * * * * * * * * * * * * * * * * * * * * * * * * * * * * * * * * * * * * * //

dimensions      [0 2 -2 0 0 0 0];

internalField   nonuniform List<scalar> 
928
(
-0.177244
-0.17145
-0.165705
-0.160015
-0.154384
-0.177379
-0.171585
-0.16584
-0.160149
-0.154518
-0.177648
-0.171853
-0.166108
-0.160417
-0.154784
-0.178048
-0.172253
-0.166507
-0.160816
-0.155182
-0.178576
-0.172782
-0.167036
-0.161343
-0.155708
-0.17923
-0.173435
-0.167689
-0.161995
-0.156359
-0.180002
-0.174208
-0.168461
-0.162767
-0.15713
-0.180889
-0.175096
-0.169349
-0.163654
-0.158015
-0.181884
-0.176091
-0.170345
-0.16465
-0.15901
-0.153429
-0.182979
-0.177188
-0.171442
-0.165747
-0.160106
-0.154524
-0.178379
-0.172635
-0.16694
-0.161298
-0.155715
-0.179656
-0.173914
-0.16822
-0.162579
-0.156994
-0.181011
-0.175272
-0.16958
-0.16394
-0.158354
-0.182437
-0.176702
-0.171013
-0.165374
-0.159789
-0.183925
-0.178195
-0.172509
-0.166873
-0.161289
-0.155762
-0.179743
-0.174062
-0.168429
-0.162848
-0.157322
-0.181338
-0.175664
-0.170035
-0.164457
-0.158933
-0.182974
-0.177307
-0.171684
-0.16611
-0.160589
-0.184641
-0.178983
-0.173368
-0.1678
-0.162283
-0.15682
-0.180687
-0.17508
-0.169519
-0.164007
-0.158549
-0.18241
-0.176814
-0.171261
-0.165757
-0.160303
-0.184148
-0.178564
-0.173021
-0.167524
-0.162078
-0.180323
-0.174792
-0.169305
-0.163866
-0.158479
-0.182087
-0.176569
-0.171094
-0.165664
-0.160285
-0.183853
-0.17835
-0.172887
-0.167469
-0.162098
-0.18013
-0.174682
-0.169276
-0.163916
-0.158605
-0.181894
-0.17646
-0.171068
-0.165719
-0.160419
-0.183622
-0.178206
-0.172829
-0.167494
-0.162205
-0.180045
-0.174689
-0.169373
-0.164101
-0.158877
-0.182146
-0.17681
-0.171511
-0.166254
-0.161042
-0.18542
-0.180046
-0.174706
-0.169405
-0.164148
-0.183658
-0.178441
-0.173255
-0.168106
-0.162997
-0.182202
-0.177125
-0.172078
-0.167063
-0.162085
-0.180649
-0.175713
-0.170804
-0.165925
-0.161079
-0.178704
-0.173921
-0.16916
-0.164427
-0.159724
-0.176438
-0.171815
-0.167212
-0.162632
-0.158079
-0.17388
-0.169424
-0.164985
-0.160565
-0.156168
-0.171053
-0.166771
-0.162501
-0.158246
-0.154011
-0.167991
-0.163886
-0.159789
-0.155704
-0.151636
-0.164729
-0.160803
-0.156883
-0.152971
-0.149071
-0.161303
-0.157559
-0.153816
-0.150078
-0.146348
-0.15775
-0.154187
-0.150622
-0.147058
-0.143498
-0.154107
-0.150724
-0.147335
-0.143943
-0.140553
-0.150407
-0.1472
-0.143985
-0.140763
-0.13754
-0.146679
-0.143646
-0.1406
-0.137545
-0.134485
-0.142952
-0.140087
-0.137206
-0.134314
-0.131413
-0.139248
-0.136546
-0.133826
-0.131091
-0.128345
-0.135587
-0.133042
-0.130476
-0.127893
-0.125297
-0.131985
-0.12959
-0.127173
-0.124737
-0.122285
-0.128455
-0.126205
-0.12393
-0.121634
-0.11932
-0.125007
-0.122895
-0.120757
-0.118595
-0.116413
-0.121649
-0.119669
-0.11766
-0.115627
-0.113572
-0.118388
-0.116532
-0.114648
-0.112737
-0.110802
-0.115226
-0.11349
-0.111722
-0.109928
-0.108108
-0.112167
-0.110543
-0.108888
-0.107204
-0.105493
-0.109213
-0.107696
-0.106146
-0.104567
-0.10296
-0.106364
-0.104947
-0.103498
-0.102018
-0.10051
-0.103619
-0.102299
-0.100944
-0.0995583
-0.0981433
-0.10098
-0.0997495
-0.0984846
-0.0971876
-0.095861
-0.0984444
-0.097299
-0.0961187
-0.0949059
-0.0936628
-0.0960116
-0.0949464
-0.093846
-0.0927126
-0.0915483
-0.0903554
-0.0936801
-0.0926904
-0.0916653
-0.0906068
-0.0895171
-0.0883981
-0.0914484
-0.0905298
-0.0895756
-0.0885878
-0.0875683
-0.0865192
-0.089315
-0.0884633
-0.0875757
-0.0866544
-0.0857011
-0.0847178
-0.0872781
-0.0864891
-0.0856643
-0.0848055
-0.0839146
-0.0829933
-0.085336
-0.084606
-0.08384
-0.08304
-0.0822077
-0.0813448
-0.083487
-0.0828122
-0.0821015
-0.0813567
-0.0805794
-0.0797714
-0.0817295
-0.0811063
-0.0804474
-0.0797543
-0.0790287
-0.0782722
-0.0800616
-0.0794867
-0.0788762
-0.0782316
-0.0775544
-0.0768462
-0.0784817
-0.077952
-0.0773867
-0.0767873
-0.0761554
-0.0754925
-0.0769882
-0.0765006
-0.0759775
-0.0754204
-0.0748308
-0.0742102
-0.0755795
-0.0751311
-0.0746473
-0.0741296
-0.0735795
-0.0729983
-0.0742542
-0.0738421
-0.0733949
-0.0729138
-0.0724004
-0.0718559
-0.0730107
-0.0726323
-0.072219
-0.0717719
-0.0712926
-0.0707822
-0.0718478
-0.0715005
-0.0711185
-0.0707029
-0.0702551
-0.0697763
-0.070764
-0.0704454
-0.0700923
-0.0697057
-0.069287
-0.0688374
-0.0697581
-0.0694659
-0.0691393
-0.0687794
-0.0683875
-0.0679647
-0.068829
-0.0685609
-0.0682586
-0.0679231
-0.0675557
-0.0671576
-0.0679757
-0.0677295
-0.0674492
-0.067136
-0.066791
-0.0664152
-0.0671969
-0.0669706
-0.0667104
-0.0664173
-0.0660925
-0.0657371
-0.0662835
-0.0660412
-0.0657663
-0.0654596
-0.0651225
-0.0656673
-0.0654411
-0.0651822
-0.0648918
-0.0645709
-0.0651214
-0.0649092
-0.0646646
-0.0643885
-0.0640819
-0.0646451
-0.0644451
-0.0642128
-0.0639491
-0.063655
-0.0642379
-0.0640483
-0.0638265
-0.0635733
-0.0632898
-0.0638992
-0.0637183
-0.0635051
-0.0632607
-0.062986
-0.0636288
-0.0634547
-0.0632485
-0.063011
-0.0627433
-0.0634262
-0.0632573
-0.0630562
-0.0628239
-0.0625615
-0.0632913
-0.0631257
-0.062928
-0.0626993
-0.0624403
-0.063224
-0.0630601
-0.0628642
-0.0626371
-0.0623799
-0.185422
-0.183659
-0.182204
-0.18065
-0.178705
-0.176439
-0.173881
-0.171055
-0.167992
-0.16473
-0.161304
-0.157751
-0.154108
-0.150407
-0.14668
-0.142953
-0.139249
-0.135588
-0.131985
-0.128455
-0.125008
-0.12165
-0.118388
-0.115227
-0.112168
-0.109213
-0.106364
-0.10362
-0.100981
-0.098445
-0.0960122
-0.0936807
-0.091449
-0.0893156
-0.0872787
-0.0853366
-0.0834877
-0.0817301
-0.0800622
-0.0784823
-0.0769888
-0.0755801
-0.0742548
-0.0730113
-0.0718484
-0.0707646
-0.0697587
-0.0688296
-0.0679763
-0.0671975
-0.0664926
-0.0658606
-0.0653007
-0.0648123
-0.0643947
-0.0640476
-0.0637704
-0.0635628
-0.0634244
-0.0633555
-0.180047
-0.178442
-0.177127
-0.175715
-0.173922
-0.171816
-0.169425
-0.166772
-0.163887
-0.160804
-0.15756
-0.154188
-0.150725
-0.147201
-0.143647
-0.140088
-0.136546
-0.133042
-0.129591
-0.126205
-0.122896
-0.119669
-0.116533
-0.11349
-0.110544
-0.107696
-0.104948
-0.102299
-0.0997501
-0.0972996
-0.094947
-0.092691
-0.0905304
-0.0884638
-0.0864897
-0.0846066
-0.0828128
-0.0811069
-0.0794873
-0.0779526
-0.0765012
-0.0751317
-0.0738427
-0.0726329
-0.0715011
-0.070446
-0.0694665
-0.0685615
-0.0677301
-0.0669712
-0.0662841
-0.0656679
-0.065122
-0.0646457
-0.0642384
-0.0638998
-0.0636294
-0.0634268
-0.0632918
-0.0632246
-0.174708
-0.173257
-0.172079
-0.170805
-0.169162
-0.167213
-0.164986
-0.162502
-0.15979
-0.156884
-0.153817
-0.150623
-0.147336
-0.143985
-0.140601
-0.137207
-0.133826
-0.130477
-0.127174
-0.123931
-0.120757
-0.117661
-0.114648
-0.111723
-0.108889
-0.106147
-0.103499
-0.100945
-0.0984851
-0.0961193
-0.0938465
-0.0916659
-0.0895762
-0.0875763
-0.0856649
-0.0838406
-0.0821021
-0.0804479
-0.0788768
-0.0773873
-0.0759781
-0.0746479
-0.0733954
-0.0722195
-0.071119
-0.0700928
-0.0691399
-0.0682592
-0.0674498
-0.066711
-0.0660418
-0.0654416
-0.0649098
-0.0644457
-0.0640489
-0.0637189
-0.0634553
-0.0632578
-0.0631263
-0.0630607
-0.169407
-0.168108
-0.167064
-0.165926
-0.164428
-0.162633
-0.160566
-0.158247
-0.155705
-0.152972
-0.150079
-0.147059
-0.143944
-0.140764
-0.137546
-0.134315
-0.131091
-0.127894
-0.124738
-0.121635
-0.118596
-0.115628
-0.112737
-0.109928
-0.107204
-0.104567
-0.102019
-0.0995588
-0.0971882
-0.0949065
-0.0927131
-0.0906074
-0.0885883
-0.0866549
-0.0848061
-0.0830406
-0.0813572
-0.0797548
-0.0782321
-0.0767879
-0.075421
-0.0741302
-0.0729144
-0.0717725
-0.0707034
-0.0697062
-0.06878
-0.0679237
-0.0671366
-0.0664179
-0.0657668
-0.0651828
-0.0646651
-0.0642134
-0.063827
-0.0635057
-0.063249
-0.0630567
-0.0629286
-0.0628647
-0.164149
-0.162998
-0.162086
-0.16108
-0.159725
-0.15808
-0.156169
-0.154012
-0.151636
-0.149072
-0.146349
-0.143499
-0.140553
-0.13754
-0.134486
-0.131414
-0.128345
-0.125298
-0.122285
-0.119321
-0.116414
-0.113573
-0.110803
-0.108109
-0.105494
-0.102961
-0.10051
-0.0981439
-0.0958615
-0.0936633
-0.0915488
-0.0895176
-0.0875688
-0.0857016
-0.0839151
-0.0822082
-0.0805799
-0.0790292
-0.0775549
-0.076156
-0.0748314
-0.07358
-0.0724009
-0.0712931
-0.0702556
-0.0692875
-0.068388
-0.0675563
-0.0667915
-0.066093
-0.0654602
-0.0648924
-0.064389
-0.0639496
-0.0635739
-0.0632613
-0.0630115
-0.0628245
-0.0626998
-0.0626377
-0.182148
-0.176812
-0.171513
-0.166255
-0.161043
-0.180047
-0.174691
-0.169375
-0.164102
-0.158878
-0.183623
-0.178208
-0.17283
-0.167495
-0.162206
-0.181895
-0.176462
-0.171069
-0.165721
-0.16042
-0.180132
-0.174683
-0.169277
-0.163917
-0.158607
-0.183854
-0.178351
-0.172888
-0.16747
-0.162099
-0.182089
-0.176571
-0.171095
-0.165666
-0.160286
-0.180325
-0.174793
-0.169307
-0.163868
-0.15848
-0.18415
-0.178565
-0.173022
-0.167526
-0.162079
-0.182412
-0.176815
-0.171263
-0.165758
-0.160304
-0.180688
-0.175082
-0.16952
-0.164009
-0.15855
-0.184643
-0.178985
-0.173369
-0.167801
-0.162284
-0.156822
-0.182975
-0.177308
-0.171686
-0.166112
-0.16059
-0.18134
-0.175665
-0.170037
-0.164458
-0.158934
-0.179744
-0.174064
-0.16843
-0.162849
-0.157323
-0.183926
-0.178196
-0.172511
-0.166874
-0.16129
-0.155763
-0.182438
-0.176703
-0.171014
-0.165375
-0.15979
-0.181013
-0.175273
-0.169581
-0.163941
-0.158355
-0.179657
-0.173915
-0.168221
-0.16258
-0.156995
-0.17838
-0.172636
-0.166941
-0.161299
-0.155715
-0.18298
-0.177189
-0.171443
-0.165748
-0.160107
-0.154525
-0.181885
-0.176092
-0.170346
-0.16465
-0.15901
-0.15343
-0.18089
-0.175096
-0.16935
-0.163655
-0.158016
-0.180003
-0.174209
-0.168462
-0.162768
-0.15713
-0.17923
-0.173435
-0.167689
-0.161996
-0.15636
-0.178577
-0.172782
-0.167036
-0.161344
-0.155709
-0.178048
-0.172253
-0.166508
-0.160816
-0.155183
-0.177648
-0.171853
-0.166108
-0.160417
-0.154785
-0.177379
-0.171585
-0.16584
-0.160149
-0.154518
-0.177244
-0.17145
-0.165705
-0.160015
-0.154384
)
;

boundaryField
{
    inlet
    {
        type            zeroGradient;
    }
    outlet
    {
        type            fixedValue;
        value           nonuniform 0();
    }
    cylinder
    {
        type            zeroGradient;
    }
    top
    {
        type            symmetryPlane;
    }
    bottom
    {
        type            symmetryPlane;
    }
    defaultFaces
    {
        type            empty;
    }
    procBoundary24to23
    {
        type            processor;
        value           nonuniform List<scalar> 
193
(
-0.183084
-0.183218
-0.183487
-0.183887
-0.184415
-0.185068
-0.18584
-0.186725
-0.187718
-0.188811
-0.184168
-0.184168
-0.185441
-0.186793
-0.188213
-0.189695
-0.185467
-0.185467
-0.187054
-0.188681
-0.190338
-0.186334
-0.186334
-0.188046
-0.18977
-0.185894
-0.185894
-0.187643
-0.189392
-0.185617
-0.185617
-0.187363
-0.189071
-0.185437
-0.185437
-0.187516
-0.190825
-0.188903
-0.187305
-0.185606
-0.183506
-0.181076
-0.178347
-0.175344
-0.172101
-0.168655
-0.165044
-0.161306
-0.15748
-0.1536
-0.149697
-0.145798
-0.141929
-0.138108
-0.134353
-0.130677
-0.127089
-0.123599
-0.120211
-0.116929
-0.113757
-0.110695
-0.107744
-0.104904
-0.102174
-0.0995526
-0.0970393
-0.0946321
-0.0923292
-0.0901289
-0.0880292
-0.0860283
-0.0841242
-0.0823151
-0.080599
-0.0789742
-0.0774388
-0.0759912
-0.0746298
-0.0733528
-0.072159
-0.0710467
-0.0700147
-0.0690617
-0.0681866
-0.0673883
-0.066492
-0.066492
-0.06586
-0.0653001
-0.0648117
-0.0643941
-0.064047
-0.0637698
-0.0635622
-0.0634238
-0.0633549
-0.190827
-0.188905
-0.187306
-0.185608
-0.183507
-0.181077
-0.178348
-0.175346
-0.172102
-0.168656
-0.165045
-0.161307
-0.157481
-0.153601
-0.149697
-0.145799
-0.14193
-0.138109
-0.134354
-0.130678
-0.12709
-0.1236
-0.120212
-0.11693
-0.113758
-0.110696
-0.107745
-0.104904
-0.102174
-0.0995533
-0.09704
-0.0946327
-0.0923299
-0.0901295
-0.0880299
-0.0860289
-0.0841249
-0.0823157
-0.0805996
-0.0789748
-0.0774394
-0.0759919
-0.0746304
-0.0733535
-0.0721596
-0.0710473
-0.0700153
-0.0690624
-0.0681872
-0.0673889
-0.0666663
-0.0660186
-0.0654449
-0.0649445
-0.0645168
-0.0641612
-0.0638773
-0.0636647
-0.063523
-0.0634524
-0.187518
-0.185439
-0.185439
-0.189073
-0.187364
-0.185618
-0.185618
-0.189393
-0.187645
-0.185896
-0.185896
-0.189772
-0.188048
-0.186336
-0.186336
-0.190339
-0.188682
-0.187056
-0.185468
-0.185468
-0.189696
-0.188215
-0.186794
-0.185443
-0.184169
-0.184169
-0.188812
-0.187719
-0.186726
-0.185841
-0.185068
-0.184416
-0.183887
-0.183487
-0.183219
-0.183084
)
;
    }
    procBoundary24to25
    {
        type            processor;
        value           nonuniform List<scalar> 
193
(
-0.148815
-0.148949
-0.149215
-0.149611
-0.150136
-0.150785
-0.151553
-0.152437
-0.152437
-0.147912
-0.149004
-0.150193
-0.15147
-0.152829
-0.154262
-0.154262
-0.150297
-0.151855
-0.153467
-0.155124
-0.155124
-0.151417
-0.153148
-0.154905
-0.156684
-0.156684
-0.153148
-0.154959
-0.156779
-0.156779
-0.153349
-0.15517
-0.156966
-0.156966
-0.153703
-0.155878
-0.158936
-0.157932
-0.157148
-0.156271
-0.155055
-0.153556
-0.151798
-0.1498
-0.147586
-0.145186
-0.14263
-0.139947
-0.137167
-0.134317
-0.131423
-0.128508
-0.125591
-0.12269
-0.119819
-0.116991
-0.114215
-0.111498
-0.108847
-0.106266
-0.10376
-0.101329
-0.098976
-0.0967018
-0.094507
-0.0923915
-0.0923915
-0.0891358
-0.087252
-0.0854423
-0.0837064
-0.0820436
-0.0804532
-0.0789344
-0.0774865
-0.0761087
-0.0748001
-0.0735599
-0.0723874
-0.0712817
-0.0702421
-0.0692678
-0.0683581
-0.0675123
-0.0667298
-0.0660099
-0.0653521
-0.0647558
-0.0642206
-0.063746
-0.0633316
-0.0629771
-0.0626821
-0.0624464
-0.0622698
-0.0621521
-0.0620935
-0.158938
-0.157933
-0.157149
-0.156272
-0.155056
-0.153557
-0.151799
-0.1498
-0.147587
-0.145187
-0.14263
-0.139947
-0.137167
-0.134317
-0.131423
-0.128508
-0.125591
-0.12269
-0.11982
-0.116991
-0.114215
-0.111498
-0.108848
-0.106267
-0.10376
-0.101329
-0.0989765
-0.0967023
-0.0945075
-0.092392
-0.0903559
-0.0883986
-0.0865197
-0.0847183
-0.0829938
-0.0813454
-0.079772
-0.0782727
-0.0768467
-0.075493
-0.0742107
-0.0729988
-0.0718564
-0.0707827
-0.0697768
-0.0688379
-0.0679652
-0.0671581
-0.0664158
-0.0657376
-0.065123
-0.0645715
-0.0640825
-0.0636556
-0.0632904
-0.0629866
-0.0627439
-0.062562
-0.0624408
-0.0623804
-0.155879
-0.153705
-0.156967
-0.156967
-0.155171
-0.15335
-0.156781
-0.156781
-0.15496
-0.153149
-0.156685
-0.156685
-0.154906
-0.153149
-0.151418
-0.155125
-0.155125
-0.153468
-0.151856
-0.150298
-0.154263
-0.154263
-0.15283
-0.151471
-0.150193
-0.149005
-0.147913
-0.152437
-0.152437
-0.151554
-0.150785
-0.150136
-0.149612
-0.149215
-0.148949
-0.148815
)
;
    }
}


// ************************************************************************* //
