/*--------------------------------*- C++ -*----------------------------------*\
  =========                 |
  \\      /  F ield         | OpenFOAM: The Open Source CFD Toolbox
   \\    /   O peration     | Website:  https://openfoam.org
    \\  /    A nd           | Version:  7
     \\/     M anipulation  |
\*---------------------------------------------------------------------------*/
FoamFile
{
    version     2.0;
    format      ascii;
    class       volScalarField;
    location    "25";
    object      p;
}
// * * * * * * * * * * * * * * * * * * * * * * * * * * * * * * * * * * * * * //

dimensions      [0 2 -2 0 0 0 0];

internalField   nonuniform List<scalar> 
8820
(
-0.267503
-0.268964
-0.269869
-0.270541
-0.271109
-0.271593
-0.272016
-0.272391
-0.272724
-0.273012
-0.27325
-0.273427
-0.273538
-0.273575
-0.273537
-0.273429
-0.273267
-0.273081
-0.27286
-0.272524
-0.272571
-0.267723
-0.269165
-0.270059
-0.270721
-0.27128
-0.271757
-0.272172
-0.272541
-0.272869
-0.273152
-0.273383
-0.273555
-0.273659
-0.273687
-0.273638
-0.273514
-0.273333
-0.273125
-0.272878
-0.272512
-0.272536
-0.268147
-0.269552
-0.270423
-0.271066
-0.271609
-0.272071
-0.272473
-0.272829
-0.273144
-0.273415
-0.273636
-0.273795
-0.273883
-0.273892
-0.273818
-0.273662
-0.273439
-0.27318
-0.272877
-0.272444
-0.27241
-0.268767
-0.270119
-0.270955
-0.271572
-0.27209
-0.27253
-0.272911
-0.273248
-0.273545
-0.273799
-0.274002
-0.274142
-0.274208
-0.274189
-0.274078
-0.273872
-0.273585
-0.273247
-0.272854
-0.272315
-0.272182
-0.269573
-0.270856
-0.271648
-0.272229
-0.272715
-0.273125
-0.273479
-0.273791
-0.274065
-0.274296
-0.274477
-0.274593
-0.27463
-0.274575
-0.274416
-0.274145
-0.273772
-0.273327
-0.272811
-0.272121
-0.271838
-0.270552
-0.271751
-0.27249
-0.273027
-0.273474
-0.273846
-0.274166
-0.274447
-0.274693
-0.274897
-0.275051
-0.275139
-0.275144
-0.275047
-0.274831
-0.274484
-0.274005
-0.273424
-0.272748
-0.271864
-0.271359
-0.271689
-0.272792
-0.273468
-0.273955
-0.274353
-0.274682
-0.274961
-0.275205
-0.275416
-0.27559
-0.275713
-0.275771
-0.27574
-0.275598
-0.275322
-0.274888
-0.274288
-0.273545
-0.272674
-0.271553
-0.270715
-0.272966
-0.273964
-0.27457
-0.274997
-0.27534
-0.275617
-0.275849
-0.27605
-0.276221
-0.276359
-0.276449
-0.276474
-0.276407
-0.276221
-0.275883
-0.27536
-0.274628
-0.273697
-0.272597
-0.271196
-0.269774
-0.274367
-0.275252
-0.27578
-0.276142
-0.276421
-0.276638
-0.276814
-0.276964
-0.277089
-0.277186
-0.27724
-0.277231
-0.277129
-0.2769
-0.276503
-0.275894
-0.275027
-0.273895
-0.272536
-0.270795
-0.268335
-0.275875
-0.276642
-0.277086
-0.277374
-0.277581
-0.277729
-0.27784
-0.277929
-0.278002
-0.278052
-0.278065
-0.278019
-0.277882
-0.277614
-0.277166
-0.276477
-0.275487
-0.274159
-0.272509
-0.270386
-0.267722
-0.277473
-0.278121
-0.278476
-0.278681
-0.278806
-0.278875
-0.27891
-0.278929
-0.278938
-0.278932
-0.278897
-0.278811
-0.278638
-0.278333
-0.277839
-0.277082
-0.275979
-0.274465
-0.272507
-0.26985
-0.266681
-0.279149
-0.279678
-0.279939
-0.280054
-0.280086
-0.280063
-0.280009
-0.279944
-0.279877
-0.279804
-0.279712
-0.279577
-0.279363
-0.27902
-0.278483
-0.277666
-0.276463
-0.274778
-0.272527
-0.269351
-0.265315
-0.280894
-0.281306
-0.281469
-0.281485
-0.281412
-0.281282
-0.281124
-0.280961
-0.280801
-0.280646
-0.280483
-0.280288
-0.280023
-0.279634
-0.27905
-0.278175
-0.276882
-0.275034
-0.272511
-0.268873
-0.263656
-0.282705
-0.283004
-0.283064
-0.28297
-0.28278
-0.282528
-0.282248
-0.281967
-0.281698
-0.281443
-0.281191
-0.280919
-0.280586
-0.280138
-0.279495
-0.278552
-0.277165
-0.275158
-0.27237
-0.268374
-0.261702
-0.284584
-0.284776
-0.284727
-0.284512
-0.284188
-0.283797
-0.283377
-0.282959
-0.28256
-0.282185
-0.281824
-0.281454
-0.281034
-0.280505
-0.279783
-0.278752
-0.277256
-0.275084
-0.272015
-0.267809
-0.259499
-0.286544
-0.286631
-0.286466
-0.286118
-0.285644
-0.285095
-0.284514
-0.283938
-0.283389
-0.282872
-0.282381
-0.281891
-0.281361
-0.280727
-0.2799
-0.278755
-0.277124
-0.274772
-0.271388
-0.267143
-0.257181
-0.288603
-0.288586
-0.288297
-0.2878
-0.28716
-0.286433
-0.285672
-0.284918
-0.284196
-0.283517
-0.282874
-0.282243
-0.28158
-0.280817
-0.279858
-0.278569
-0.276774
-0.274229
-0.270501
-0.266348
-0.254988
-0.29079
-0.290666
-0.290238
-0.289578
-0.288753
-0.28783
-0.286869
-0.285916
-0.285003
-0.284142
-0.283329
-0.282537
-0.281719
-0.280805
-0.27969
-0.278231
-0.276244
-0.273491
-0.269429
-0.26538
-0.253163
-0.293139
-0.292897
-0.292321
-0.291479
-0.29045
-0.289311
-0.288131
-0.286963
-0.285841
-0.284783
-0.283782
-0.282811
-0.281822
-0.280735
-0.279442
-0.277793
-0.275602
-0.272627
-0.268308
-0.264138
-0.251716
-0.295694
-0.295318
-0.294575
-0.293532
-0.292279
-0.290907
-0.289491
-0.288092
-0.286749
-0.285478
-0.284276
-0.283112
-0.281931
-0.280652
-0.279161
-0.277309
-0.274922
-0.271754
-0.267401
-0.262712
-0.250704
-0.298504
-0.297969
-0.297037
-0.295772
-0.294277
-0.292653
-0.290988
-0.289345
-0.287768
-0.286274
-0.284857
-0.283483
-0.282092
-0.280595
-0.27888
-0.276806
-0.274233
-0.27095
-0.266921
-0.261806
-0.252402
-0.301619
-0.300894
-0.299747
-0.298238
-0.296481
-0.29459
-0.292662
-0.290765
-0.288944
-0.287215
-0.285569
-0.283965
-0.282335
-0.280586
-0.278606
-0.27627
-0.273478
-0.270094
-0.266425
-0.261902
-0.261284
-0.305094
-0.304138
-0.302746
-0.300969
-0.298931
-0.296759
-0.294555
-0.292394
-0.290319
-0.288343
-0.286448
-0.284585
-0.282677
-0.280626
-0.278321
-0.275656
-0.272569
-0.269021
-0.265301
-0.261359
-0.259762
-0.30898
-0.307747
-0.306077
-0.304008
-0.301668
-0.2992
-0.296711
-0.294275
-0.291934
-0.289692
-0.287521
-0.285359
-0.283118
-0.280695
-0.277987
-0.274905
-0.271419
-0.267538
-0.263509
-0.259314
-0.256292
-0.313327
-0.311763
-0.309781
-0.307394
-0.304734
-0.301955
-0.299169
-0.296447
-0.293822
-0.291287
-0.288799
-0.286282
-0.283636
-0.280758
-0.277553
-0.273956
-0.269965
-0.265611
-0.261096
-0.256377
-0.252269
-0.318182
-0.316229
-0.313898
-0.311168
-0.308168
-0.305064
-0.301967
-0.298942
-0.296008
-0.293141
-0.29028
-0.287333
-0.284195
-0.280764
-0.276965
-0.272763
-0.268178
-0.263265
-0.258192
-0.252906
-0.247928
-0.323583
-0.321182
-0.318465
-0.315366
-0.312008
-0.308563
-0.305139
-0.301787
-0.298506
-0.295252
-0.291943
-0.288474
-0.284741
-0.280658
-0.276175
-0.271292
-0.26606
-0.26055
-0.254916
-0.249095
-0.243551
-0.329563
-0.326653
-0.323515
-0.320024
-0.316289
-0.312487
-0.308713
-0.304997
-0.301316
-0.2976
-0.293747
-0.28965
-0.285215
-0.280382
-0.27514
-0.269528
-0.263624
-0.257517
-0.251347
-0.245065
-0.239073
-0.336148
-0.332669
-0.329077
-0.325173
-0.321043
-0.316861
-0.312705
-0.308576
-0.304421
-0.300146
-0.295637
-0.290794
-0.285549
-0.279882
-0.273829
-0.267463
-0.260888
-0.254206
-0.247541
-0.240856
-0.234511
-0.343353
-0.339249
-0.335173
-0.330837
-0.326293
-0.321704
-0.31712
-0.312508
-0.307783
-0.30283
-0.297538
-0.291829
-0.285677
-0.279113
-0.272217
-0.265096
-0.257871
-0.250645
-0.243521
-0.236481
-0.229817
-0.351181
-0.346402
-0.341819
-0.337033
-0.332052
-0.327017
-0.321943
-0.316755
-0.311339
-0.305573
-0.299363
-0.292675
-0.285536
-0.278033
-0.270285
-0.262426
-0.254579
-0.246843
-0.239296
-0.231933
-0.224973
-0.359621
-0.354124
-0.349014
-0.343765
-0.338318
-0.332786
-0.327136
-0.321254
-0.315005
-0.308277
-0.301018
-0.293251
-0.285068
-0.276606
-0.268018
-0.259448
-0.251012
-0.242799
-0.234858
-0.227196
-0.219949
-0.368644
-0.362397
-0.356748
-0.351018
-0.345069
-0.338967
-0.332632
-0.325913
-0.318672
-0.310832
-0.302403
-0.29348
-0.284219
-0.274801
-0.265397
-0.256149
-0.247161
-0.238499
-0.23019
-0.222247
-0.214723
-0.378201
-0.371181
-0.364985
-0.358757
-0.352255
-0.345491
-0.338336
-0.330616
-0.322216
-0.31312
-0.303419
-0.293288
-0.28294
-0.272585
-0.2624
-0.252512
-0.243005
-0.233922
-0.225269
-0.21706
-0.20927
-0.388219
-0.380417
-0.373672
-0.36692
-0.359797
-0.352255
-0.34412
-0.335222
-0.325497
-0.315018
-0.303971
-0.292607
-0.281184
-0.269926
-0.258999
-0.248511
-0.238518
-0.229041
-0.220067
-0.211607
-0.203565
-0.398598
-0.390019
-0.382724
-0.375414
-0.367584
-0.359122
-0.34983
-0.33957
-0.328368
-0.316405
-0.303967
-0.291372
-0.278905
-0.266786
-0.255162
-0.244112
-0.233667
-0.223823
-0.214552
-0.205859
-0.197584
-0.40921
-0.399873
-0.392028
-0.384115
-0.375469
-0.365924
-0.355287
-0.343491
-0.330681
-0.317165
-0.303323
-0.289521
-0.276054
-0.263125
-0.25085
-0.239279
-0.228415
-0.218233
-0.208692
-0.199785
-0.191302
-0.419895
-0.409834
-0.401439
-0.392862
-0.383273
-0.372467
-0.360295
-0.346806
-0.332291
-0.317187
-0.301955
-0.286991
-0.272581
-0.258897
-0.246021
-0.23397
-0.222723
-0.212235
-0.202455
-0.193356
-0.184695
-0.430466
-0.419728
-0.41078
-0.401462
-0.390784
-0.378532
-0.364648
-0.349338
-0.333057
-0.316366
-0.299787
-0.283723
-0.268434
-0.254054
-0.240628
-0.228143
-0.216552
-0.205792
-0.195807
-0.186544
-0.177739
-0.440708
-0.429352
-0.419841
-0.409692
-0.397768
-0.383888
-0.368138
-0.350915
-0.332848
-0.314605
-0.296744
-0.279655
-0.263558
-0.248547
-0.234626
-0.221753
-0.20986
-0.198869
-0.188716
-0.17932
-0.170414
-0.450378
-0.438474
-0.428385
-0.417303
-0.40397
-0.388297
-0.37056
-0.351377
-0.331544
-0.311813
-0.292755
-0.274726
-0.2579
-0.242324
-0.227967
-0.214758
-0.202609
-0.19143
-0.18115
-0.171657
-0.1627
-0.459214
-0.446841
-0.436153
-0.424025
-0.40913
-0.39152
-0.371718
-0.350573
-0.329032
-0.307906
-0.28775
-0.268877
-0.251405
-0.235336
-0.220604
-0.207114
-0.19476
-0.183441
-0.173079
-0.163529
-0.154575
-0.466939
-0.454182
-0.442866
-0.429581
-0.412981
-0.393331
-0.371432
-0.348367
-0.325213
-0.302805
-0.281667
-0.262051
-0.244022
-0.227536
-0.212495
-0.198783
-0.186279
-0.174872
-0.164474
-0.154913
-0.146022
-0.473267
-0.460212
-0.448239
-0.433687
-0.415268
-0.393515
-0.369538
-0.34464
-0.319996
-0.29644
-0.274444
-0.254195
-0.235702
-0.218879
-0.2036
-0.189729
-0.177131
-0.16569
-0.155309
-0.145789
-0.137026
-0.477909
-0.464646
-0.451984
-0.436069
-0.415749
-0.39188
-0.365892
-0.339287
-0.313304
-0.28875
-0.266028
-0.245261
-0.226402
-0.209327
-0.193883
-0.179917
-0.167285
-0.155862
-0.145549
-0.136131
-0.127563
-0.480583
-0.467201
-0.45382
-0.436467
-0.414205
-0.388258
-0.360373
-0.332222
-0.305072
-0.27968
-0.256375
-0.23521
-0.216088
-0.198849
-0.183317
-0.169325
-0.156714
-0.145356
-0.135151
-0.125885
-0.11756
-0.481018
-0.467604
-0.453482
-0.434642
-0.410442
-0.382507
-0.352883
-0.323375
-0.295247
-0.269188
-0.245447
-0.22401
-0.204731
-0.187421
-0.171884
-0.157936
-0.145405
-0.134157
-0.124089
-0.11498
-0.10685
-0.478968
-0.465604
-0.450729
-0.430385
-0.4043
-0.374513
-0.343345
-0.312693
-0.283791
-0.257243
-0.233218
-0.211638
-0.192315
-0.175031
-0.159574
-0.145746
-0.133363
-0.122287
-0.112411
-0.103429
-0.0952251
-0.474209
-0.460977
-0.445351
-0.423523
-0.395652
-0.364194
-0.331707
-0.300144
-0.270678
-0.243826
-0.219673
-0.198082
-0.178829
-0.161672
-0.146385
-0.132755
-0.120594
-0.109776
-0.100184
-0.0914011
-0.0828595
-0.466553
-0.45353
-0.437175
-0.413918
-0.384407
-0.351497
-0.317943
-0.285712
-0.255902
-0.228931
-0.204807
-0.183341
-0.164275
-0.147349
-0.132322
-0.118971
-0.107105
-0.0966276
-0.0873249
-0.0786397
-0.0707827
-0.455849
-0.443109
-0.426064
-0.401474
-0.370509
-0.336398
-0.302046
-0.269401
-0.239467
-0.212565
-0.18863
-0.167426
-0.148667
-0.132077
-0.117406
-0.10442
-0.0929365
-0.0828357
-0.0738662
-0.0654674
-0.0583529
-0.441989
-0.429602
-0.411929
-0.386137
-0.35394
-0.318904
-0.284036
-0.251233
-0.221397
-0.194751
-0.171164
-0.150357
-0.132032
-0.115883
-0.101657
-0.0891215
-0.0780913
-0.0684349
-0.0598717
-0.0518698
-0.0454283
-0.424905
-0.412941
-0.394723
-0.367893
-0.334717
-0.29905
-0.263953
-0.231251
-0.20173
-0.175526
-0.152447
-0.132178
-0.114396
-0.0987953
-0.0851102
-0.0731065
-0.0626006
-0.0534562
-0.0453665
-0.0378139
-0.0320149
-0.404579
-0.393104
-0.374445
-0.346769
-0.312889
-0.276897
-0.241863
-0.209513
-0.180522
-0.154946
-0.132527
-0.112928
-0.0958094
-0.0808595
-0.0678068
-0.0564149
-0.0465036
-0.0379347
-0.0303736
-0.0233065
-0.0181632
-0.381036
-0.370114
-0.351135
-0.322831
-0.288543
-0.252537
-0.217847
-0.186096
-0.157848
-0.13307
-0.111464
-0.0926672
-0.0763274
-0.0621297
-0.0497982
-0.0390959
-0.0298465
-0.0219109
-0.0149247
-0.00837854
-0.00391799
-0.354348
-0.344036
-0.32488
-0.296191
-0.261801
-0.226074
-0.192001
-0.161094
-0.133789
-0.10998
-0.0893327
-0.0714651
-0.0560167
-0.0426693
-0.0311453
-0.0212075
-0.0126849
-0.00543638
0.000931649
0.0069236
0.010692
-0.324626
-0.314983
-0.295811
-0.267002
-0.23279
-0.197609
-0.164455
-0.13462
-0.108448
-0.0857699
-0.0662204
-0.0494034
-0.0349535
-0.0225508
-0.011917
-0.0028167
0.00491572
0.0114231
0.0171297
0.0225425
0.0256427
-0.292019
-0.283112
-0.264107
-0.235414
-0.201587
-0.167351
-0.135353
-0.1068
-0.0819404
-0.0605454
-0.0422246
-0.0265729
-0.0132227
-0.00185403
0.00781064
0.0160034
0.022883
0.0285961
0.0336004
0.0384123
0.0408409
-0.256696
-0.248628
-0.229952
-0.20148
-0.168524
-0.135461
-0.104851
-0.0777784
-0.0543951
-0.0344233
-0.017453
-0.00307352
0.00908268
0.019334
0.0279559
0.0351754
0.0411456
0.0460234
0.0502988
0.0544637
0.0560677
-0.218858
-0.211761
-0.19344
-0.165616
-0.133774
-0.102125
-0.073121
-0.0477084
-0.0259513
-0.00753074
0.00797769
0.0209868
0.0318621
0.0409192
0.0484299
0.0546159
0.059632
0.0636576
0.0671927
0.0706152
0.0711659
-0.178726
-0.172775
-0.154917
-0.128059
-0.0975502
-0.067549
-0.0403469
-0.0167548
0.00324197
0.0199966
0.033943
0.0454933
0.0550088
0.0628007
0.0691354
0.0742311
0.0782558
0.0814182
0.0841781
0.086738
0.0864046
-0.136648
-0.131896
-0.114756
-0.0890284
-0.0600886
-0.031948
-0.00672187
0.0149083
0.0330273
0.0480155
0.0603122
0.0703258
0.0784116
0.084874
0.0899716
0.0939206
0.0969076
0.0991567
0.101031
0.102639
0.102099
-0.0931138
-0.0893264
-0.0731818
-0.0487962
-0.0216402
0.00445227
0.0275517
0.047099
0.0632402
0.0763769
0.0869495
0.0953605
0.101957
0.107035
0.110842
0.113593
0.115486
0.116725
0.117532
0.118073
0.117347
-0.0482658
-0.045496
-0.0304915
-0.00764732
0.0175332
0.0414176
0.0622641
0.0796287
0.0937105
0.104926
0.113715
0.120471
0.125531
0.129179
0.131656
0.133171
0.133926
0.134071
0.1336
0.132571
0.132196
-0.00243523
-0.000755289
0.0129939
0.0341222
0.0571629
0.0787073
0.0972
0.112304
0.124264
0.133506
0.140466
0.145527
0.149015
0.151203
0.152323
0.152579
0.15216
0.151161
0.149529
0.147541
0.146657
0.0440149
0.0445561
0.0569438
0.0762088
0.0969753
0.116077
0.13214
0.144927
0.154722
0.161956
0.167057
0.170397
0.172292
0.173002
0.172747
0.171726
0.170103
0.167937
0.165198
0.16232
0.160617
0.0907211
0.0900916
0.101025
0.118306
0.136694
0.153278
0.166863
0.1773
0.184905
0.190113
0.193341
0.194951
0.195243
0.194468
0.192836
0.190535
0.187708
0.184398
0.180612
0.176847
0.174221
0.137319
0.135499
0.144901
0.160106
0.176044
0.190066
0.201147
0.209223
0.214633
0.217814
0.219171
0.219053
0.217748
0.215494
0.212492
0.208915
0.204893
0.200459
0.19565
0.190984
0.187422
0.183444
0.180428
0.188242
0.201306
0.214752
0.226194
0.234773
0.240497
0.243727
0.244897
0.244401
0.242572
0.239688
0.235973
0.231618
0.226784
0.221588
0.216058
0.21025
0.204685
0.200179
0.228737
0.224528
0.230718
0.241605
0.252547
0.26142
0.267522
0.270926
0.27201
0.271202
0.268884
0.265377
0.260943
0.255796
0.250116
0.244053
0.237712
0.231116
0.224337
0.217884
0.212441
0.272844
0.267457
0.272008
0.280712
0.289167
0.29551
0.299183
0.300319
0.299308
0.296572
0.292479
0.287337
0.281396
0.274858
0.267891
0.260636
0.253185
0.245561
0.237844
0.230522
0.224155
0.315421
0.308882
0.311801
0.318344
0.324358
0.328234
0.32955
0.328489
0.325453
0.320853
0.315047
0.308328
0.300933
0.293055
0.284849
0.276447
0.267931
0.259322
0.250706
0.24254
0.23527
0.356135
0.348483
0.349799
0.354228
0.357874
0.359372
0.358423
0.355257
0.350281
0.343898
0.336453
0.328227
0.319444
0.310286
0.300899
0.291402
0.281872
0.272327
0.262858
0.253879
0.245737
0.394671
0.385954
0.385716
0.388105
0.389485
0.388716
0.385615
0.380451
0.373637
0.365566
0.35657
0.346918
0.336823
0.326455
0.315952
0.305423
0.294936
0.284512
0.274238
0.264486
0.255508
0.43073
0.421006
0.419283
0.419733
0.41897
0.416067
0.410946
0.40391
0.395374
0.385723
0.375277
0.364291
0.352969
0.341471
0.329925
0.318433
0.307054
0.29581
0.284787
0.274307
0.264539
0.464031
0.45337
0.450251
0.448885
0.446124
0.441241
0.43425
0.425483
0.415356
0.404246
0.392459
0.380242
0.367788
0.355248
0.342741
0.33036
0.31816
0.306164
0.294452
0.283293
0.27279
0.494318
0.482798
0.478389
0.475352
0.470761
0.46407
0.455373
0.445031
0.433456
0.421017
0.408012
0.394676
0.381193
0.367706
0.354327
0.34114
0.328195
0.315517
0.30318
0.291401
0.280222
0.521357
0.509064
0.503489
0.498944
0.492709
0.484398
0.474178
0.462426
0.449559
0.435934
0.421841
0.407507
0.393106
0.378774
0.364617
0.350711
0.337103
0.323818
0.310925
0.298589
0.286803
0.544939
0.531968
0.525364
0.519493
0.511818
0.50209
0.490538
0.477557
0.463562
0.448903
0.433862
0.418656
0.403455
0.388388
0.373553
0.35902
0.344835
0.331023
0.317645
0.304822
0.292502
0.564883
0.551336
0.543854
0.536853
0.527955
0.517026
0.504346
0.490325
0.475376
0.459842
0.443999
0.428057
0.41218
0.396491
0.381083
0.366021
0.351348
0.337092
0.323305
0.310067
0.297293
0.581036
0.56702
0.558822
0.550901
0.541008
0.529105
0.515511
0.500648
0.484925
0.468683
0.45219
0.435653
0.419228
0.403036
0.387163
0.371674
0.356607
0.341992
0.327874
0.314298
0.301156
0.593273
0.578901
0.570157
0.561537
0.550888
0.538246
0.523959
0.508457
0.492149
0.47537
0.458385
0.441396
0.424557
0.407983
0.39176
0.375947
0.360582
0.345695
0.331327
0.317495
0.304073
0.601501
0.58689
0.577777
0.568684
0.557527
0.544388
0.529635
0.513703
0.497
0.479861
0.462545
0.445253
0.428135
0.411305
0.394846
0.378816
0.36325
0.348181
0.333645
0.319641
0.306031
0.605657
0.590924
0.581625
0.572294
0.560879
0.547488
0.532499
0.516351
0.499449
0.482128
0.464645
0.447199
0.429941
0.412982
0.396404
0.380264
0.364597
0.349437
0.334816
0.320726
0.307021
0.605709
0.590974
0.581673
0.572338
0.560921
0.547526
0.532535
0.516383
0.499479
0.482155
0.464671
0.447223
0.429963
0.413003
0.396424
0.380283
0.364616
0.349454
0.334834
0.320743
0.307039
0.601656
0.58704
0.57792
0.568818
0.557652
0.544502
0.52974
0.5138
0.49709
0.479944
0.462623
0.445325
0.428202
0.411368
0.394906
0.378872
0.363305
0.348234
0.333697
0.319693
0.306085
0.59353
0.57915
0.570394
0.561759
0.551094
0.538436
0.524135
0.508619
0.492298
0.475508
0.458513
0.441515
0.424668
0.408088
0.391859
0.376041
0.360672
0.345783
0.331413
0.317582
0.304163
0.581392
0.567365
0.559151
0.551209
0.541294
0.529369
0.515755
0.500872
0.485132
0.468875
0.452368
0.435818
0.419383
0.403181
0.387301
0.371805
0.356733
0.342114
0.327994
0.314418
0.301281
0.565336
0.551774
0.544272
0.537245
0.528318
0.517362
0.504656
0.490611
0.475639
0.460086
0.444225
0.428268
0.412377
0.396675
0.381257
0.366188
0.351509
0.337248
0.323458
0.31022
0.297453
0.545484
0.532496
0.525867
0.519965
0.512256
0.502495
0.490911
0.477902
0.46388
0.449197
0.434134
0.41891
0.403692
0.388611
0.373763
0.359221
0.345028
0.331211
0.31783
0.305006
0.292695
0.521989
0.509676
0.504073
0.499492
0.493218
0.484869
0.474611
0.462827
0.449929
0.436276
0.422159
0.407802
0.393381
0.379033
0.364861
0.350944
0.337327
0.324037
0.31114
0.298804
0.287028
0.495031
0.483489
0.479049
0.475971
0.471336
0.464602
0.455864
0.445484
0.433875
0.421404
0.408371
0.39501
0.381505
0.367998
0.354603
0.341403
0.328449
0.315764
0.303423
0.291645
0.280478
0.464819
0.454134
0.45098
0.449571
0.446761
0.44183
0.434794
0.425985
0.41582
0.404674
0.392856
0.380611
0.368132
0.355571
0.343047
0.330652
0.318441
0.306438
0.294721
0.283563
0.273075
0.431585
0.421835
0.420076
0.420479
0.419663
0.416708
0.411538
0.404456
0.395879
0.38619
0.375709
0.364692
0.353343
0.341822
0.330257
0.318749
0.307359
0.296108
0.28508
0.2746
0.26485
0.395586
0.386841
0.386564
0.388904
0.390228
0.389404
0.38625
0.381037
0.374178
0.366066
0.357033
0.347348
0.337224
0.32683
0.316306
0.30576
0.295261
0.284829
0.27455
0.2648
0.255842
0.357101
0.34942
0.350696
0.355073
0.358662
0.360101
0.359096
0.355877
0.350853
0.344427
0.336943
0.328681
0.319867
0.310681
0.301271
0.291757
0.282213
0.27266
0.263186
0.254209
0.246089
0.316428
0.30986
0.312739
0.319228
0.325182
0.328997
0.330254
0.329138
0.326052
0.321406
0.315558
0.308801
0.301373
0.293465
0.285235
0.276813
0.268282
0.259665
0.251044
0.24288
0.235636
0.273885
0.268467
0.272977
0.281628
0.290021
0.296301
0.299913
0.300991
0.299928
0.297143
0.293006
0.287825
0.281848
0.275279
0.268285
0.261008
0.253542
0.245908
0.238186
0.230866
0.224528
0.229801
0.225561
0.23171
0.242544
0.253423
0.262232
0.268271
0.271616
0.272645
0.271786
0.269422
0.265872
0.261401
0.256221
0.250512
0.244425
0.238067
0.23146
0.224674
0.218223
0.212812
0.184522
0.181474
0.189249
0.20226
0.215643
0.227019
0.235534
0.241197
0.244371
0.245488
0.244943
0.24307
0.240146
0.236395
0.232009
0.227149
0.221934
0.21639
0.210573
0.205009
0.200538
0.138401
0.136551
0.145915
0.161067
0.176943
0.190898
0.201915
0.209927
0.215279
0.218405
0.219712
0.219548
0.2182
0.215908
0.212871
0.209265
0.205221
0.20077
0.195948
0.19128
0.187755
0.0917974
0.0911382
0.102035
0.119266
0.137593
0.154111
0.167629
0.178003
0.185547
0.190699
0.193875
0.195435
0.195683
0.194866
0.193197
0.190862
0.188008
0.184676
0.180872
0.177097
0.174511
0.0450767
0.0455895
0.0579431
0.07716
0.0978664
0.116902
0.132899
0.145622
0.155354
0.162531
0.167577
0.170867
0.172713
0.173377
0.173081
0.172021
0.170366
0.168171
0.165403
0.162503
0.160839
-0.00139651
0.000256634
0.0139741
0.035057
0.0580396
0.0795191
0.0979453
0.112984
0.124881
0.134064
0.140967
0.145974
0.149411
0.15155
0.152623
0.152835
0.152376
0.15134
0.149666
0.147633
0.146776
-0.0472584
-0.044513
-0.0295378
-0.00673585
0.018389
0.0422099
0.0629901
0.0802891
0.0943074
0.105462
0.114192
0.120891
0.125897
0.129492
0.131917
0.133381
0.134088
0.134185
0.133656
0.132546
0.132156
-0.0921454
-0.0883791
-0.0722615
-0.0479145
-0.0208113
0.00521941
0.0282533
0.0477348
0.0638117
0.0768859
0.087398
0.09575
0.102289
0.107309
0.111058
0.113751
0.115586
0.116766
0.117495
0.11792
0.117109
-0.135725
-0.130991
-0.113875
-0.0881822
-0.0592917
-0.0312108
-0.00604924
0.0155153
0.0335693
0.048494
0.0607283
0.0706805
0.0787052
0.0851061
0.0901409
0.0940245
0.0969436
0.0991214
0.100908
0.102386
0.101718
-0.177848
-0.171921
-0.154081
-0.127253
-0.09679
-0.0668459
-0.039707
-0.0161802
0.00375129
0.0204414
0.034324
0.0458107
0.0552624
0.0629893
0.0692567
0.0742815
0.078231
0.0813132
0.083979
0.0864125
0.0859462
-0.218035
-0.210959
-0.19265
-0.164854
-0.133054
-0.10146
-0.072517
-0.0471689
-0.0254771
-0.00712169
0.00832178
0.0212657
0.0320748
0.0410641
0.0485041
0.0546153
0.0595514
0.0634911
0.0669278
0.0702283
0.0706587
-0.255932
-0.24788
-0.229218
-0.200763
-0.167847
-0.134835
-0.104285
-0.0772761
-0.0539577
-0.0340513
-0.0171467
-0.00283363
0.00925481
0.0194362
0.0279851
0.0351271
0.0410144
0.0458031
0.0499777
0.0540221
0.0555124
-0.291315
-0.282421
-0.263426
-0.234752
-0.200953
-0.166767
-0.134827
-0.106336
-0.0815405
-0.0602107
-0.041956
-0.0263714
-0.01309
-0.00179254
0.00779758
0.0159114
0.0227066
0.0283292
0.0332322
0.0379247
0.0402397
-0.323983
-0.31435
-0.295184
-0.26639
-0.232208
-0.197068
-0.16397
-0.134194
-0.108086
-0.0854722
-0.0659887
-0.049239
-0.0348583
-0.0225274
-0.0119688
-0.00294804
0.00469963
0.0111165
0.0167228
0.022019
0.0250064
-0.353766
-0.343462
-0.324308
-0.295629
-0.261265
-0.225578
-0.191556
-0.160707
-0.133464
-0.109718
-0.0891363
-0.0713357
-0.0559564
-0.0426807
-0.0312316
-0.0213732
-0.0129347
-0.00577569
0.000494319
0.00637371
0.0100328
-0.380514
-0.369597
-0.350618
-0.322321
-0.288054
-0.252084
-0.217441
-0.185746
-0.157558
-0.132842
-0.1113
-0.0925702
-0.0762987
-0.0621719
-0.0499147
-0.0392905
-0.0301238
-0.0222758
-0.0153845
-0.00894624
-0.00459086
-0.404114
-0.392643
-0.373981
-0.346308
-0.312445
-0.276485
-0.241495
-0.209198
-0.180265
-0.15475
-0.132394
-0.112861
-0.0958087
-0.0809286
-0.0679486
-0.0566331
-0.0468023
-0.0383183
-0.0308483
-0.0238841
-0.018842
-0.424495
-0.412533
-0.394311
-0.367481
-0.334317
-0.298677
-0.263622
-0.230969
-0.201504
-0.175359
-0.152342
-0.132136
-0.11442
-0.0988867
-0.0852724
-0.0733428
-0.0629148
-0.0538518
-0.045849
-0.038394
-0.0326923
-0.441631
-0.429243
-0.411565
-0.38577
-0.353582
-0.31857
-0.283738
-0.250983
-0.221199
-0.19461
-0.171082
-0.150336
-0.132076
-0.115992
-0.101835
-0.0893707
-0.0784151
-0.0688362
-0.0603553
-0.0524455
-0.0460973
-0.455539
-0.442796
-0.425745
-0.40115
-0.37019
-0.336099
-0.30178
-0.269178
-0.239294
-0.212447
-0.188569
-0.167424
-0.148727
-0.132199
-0.117594
-0.104677
-0.0932647
-0.0832366
-0.0743446
-0.066032
-0.0590073
-0.466286
-0.453258
-0.436896
-0.413633
-0.384124
-0.35123
-0.317705
-0.285514
-0.255751
-0.228832
-0.204763
-0.183354
-0.164346
-0.147481
-0.132516
-0.11923
-0.107433
-0.0970218
-0.0877923
-0.0791869
-0.0714163
-0.47398
-0.460742
-0.445109
-0.423273
-0.395402
-0.363957
-0.331495
-0.299968
-0.270546
-0.243743
-0.219642
-0.198105
-0.178907
-0.161809
-0.14658
-0.133011
-0.120913
-0.11016
-0.100636
-0.091926
-0.0834635
-0.478773
-0.465402
-0.450519
-0.430167
-0.40408
-0.374302
-0.343155
-0.312536
-0.283674
-0.257172
-0.233197
-0.211667
-0.192397
-0.175168
-0.159767
-0.145995
-0.133671
-0.122656
-0.112842
-0.103924
-0.0957905
-0.480853
-0.46743
-0.453299
-0.434451
-0.410247
-0.382318
-0.352712
-0.323233
-0.295143
-0.269127
-0.245432
-0.224043
-0.204814
-0.187555
-0.17207
-0.158175
-0.145699
-0.134506
-0.124494
-0.115443
-0.107375
-0.480441
-0.46705
-0.453661
-0.436299
-0.414032
-0.38809
-0.36022
-0.332094
-0.304977
-0.279624
-0.256363
-0.235243
-0.216168
-0.198976
-0.183493
-0.16955
-0.156989
-0.145682
-0.135527
-0.126314
-0.118045
-0.477788
-0.464516
-0.451845
-0.435921
-0.415595
-0.391729
-0.365752
-0.339169
-0.313216
-0.288698
-0.266016
-0.245291
-0.226476
-0.209445
-0.194046
-0.180126
-0.167539
-0.156162
-0.145895
-0.136524
-0.128005
-0.473162
-0.460097
-0.448116
-0.433555
-0.41513
-0.393377
-0.369409
-0.34453
-0.319913
-0.296389
-0.274429
-0.254219
-0.235767
-0.218985
-0.203747
-0.189917
-0.177361
-0.165961
-0.155621
-0.146143
-0.137423
-0.466847
-0.454079
-0.442755
-0.429462
-0.412856
-0.393204
-0.371313
-0.348263
-0.325132
-0.302753
-0.281648
-0.262068
-0.244076
-0.227628
-0.212625
-0.19895
-0.186483
-0.175113
-0.164751
-0.155226
-0.146372
-0.459131
-0.446748
-0.436051
-0.423916
-0.409014
-0.391403
-0.371606
-0.350473
-0.328952
-0.307851
-0.287726
-0.268885
-0.251447
-0.235412
-0.220714
-0.207257
-0.194937
-0.183651
-0.173319
-0.163801
-0.154878
-0.450301
-0.438388
-0.428291
-0.417201
-0.403863
-0.388187
-0.370453
-0.35128
-0.331463
-0.311755
-0.292723
-0.274723
-0.257928
-0.242382
-0.228055
-0.214876
-0.202757
-0.191606
-0.181353
-0.171886
-0.162955
-0.440635
-0.42927
-0.419752
-0.409597
-0.397666
-0.383784
-0.368035
-0.35082
-0.332766
-0.314542
-0.296704
-0.27964
-0.263571
-0.248587
-0.234693
-0.221846
-0.209979
-0.199012
-0.188882
-0.179507
-0.170623
-0.430397
-0.41965
-0.410695
-0.401371
-0.390687
-0.378432
-0.364548
-0.349243
-0.332973
-0.316297
-0.299738
-0.283697
-0.268431
-0.254075
-0.240673
-0.22821
-0.216641
-0.205902
-0.195935
-0.186689
-0.177901
-0.419827
-0.409758
-0.401357
-0.392773
-0.383179
-0.37237
-0.360197
-0.346711
-0.332204
-0.317113
-0.301898
-0.286953
-0.272562
-0.258899
-0.246043
-0.234011
-0.222783
-0.212311
-0.202546
-0.19346
-0.184811
-0.409142
-0.399798
-0.391948
-0.384029
-0.375378
-0.365829
-0.35519
-0.343397
-0.330593
-0.317086
-0.303257
-0.28947
-0.27602
-0.263108
-0.25085
-0.239294
-0.228445
-0.218276
-0.208746
-0.199848
-0.191375
-0.398531
-0.389945
-0.382645
-0.37533
-0.367495
-0.359029
-0.349735
-0.339477
-0.328278
-0.316322
-0.303894
-0.29131
-0.278856
-0.266751
-0.25514
-0.244102
-0.233668
-0.223833
-0.21457
-0.205883
-0.197614
-0.388151
-0.380344
-0.373593
-0.366837
-0.35971
-0.352164
-0.344027
-0.335128
-0.325406
-0.314931
-0.303891
-0.292535
-0.281122
-0.269874
-0.258957
-0.248477
-0.238491
-0.229021
-0.22005
-0.211593
-0.203554
-0.378133
-0.371108
-0.364908
-0.358675
-0.352169
-0.345403
-0.338245
-0.330524
-0.322125
-0.313031
-0.303334
-0.293208
-0.282866
-0.272517
-0.262338
-0.252455
-0.242952
-0.233872
-0.225219
-0.217008
-0.209218
-0.368575
-0.362324
-0.356671
-0.350938
-0.344985
-0.338881
-0.332544
-0.325823
-0.318582
-0.310742
-0.302314
-0.293393
-0.284135
-0.274719
-0.265317
-0.256071
-0.247082
-0.238419
-0.230108
-0.222159
-0.214632
-0.359552
-0.354052
-0.348939
-0.343686
-0.338237
-0.332702
-0.32705
-0.321166
-0.314916
-0.308187
-0.300927
-0.29316
-0.284975
-0.276512
-0.267922
-0.259349
-0.25091
-0.242691
-0.234744
-0.227073
-0.21982
-0.351112
-0.34633
-0.341744
-0.336956
-0.331973
-0.326936
-0.32186
-0.316671
-0.311253
-0.305484
-0.299273
-0.292581
-0.285438
-0.277929
-0.270175
-0.26231
-0.254454
-0.246708
-0.239152
-0.231776
-0.224807
-0.343285
-0.339178
-0.3351
-0.330762
-0.326216
-0.321626
-0.317041
-0.312428
-0.307701
-0.302745
-0.297449
-0.291734
-0.285575
-0.279002
-0.272095
-0.264964
-0.257725
-0.250485
-0.243347
-0.23629
-0.229614
-0.33608
-0.332598
-0.329004
-0.325099
-0.320968
-0.316786
-0.31263
-0.308501
-0.304344
-0.300065
-0.295551
-0.290701
-0.285445
-0.279767
-0.273698
-0.267316
-0.260724
-0.254023
-0.247339
-0.240632
-0.234271
-0.329495
-0.326582
-0.323443
-0.319952
-0.316217
-0.312415
-0.308642
-0.304927
-0.301245
-0.297525
-0.293667
-0.289561
-0.285112
-0.280263
-0.275003
-0.26937
-0.263442
-0.257311
-0.251118
-0.244809
-0.238796
-0.323515
-0.321111
-0.318394
-0.315295
-0.311938
-0.308495
-0.305073
-0.301722
-0.29844
-0.295184
-0.291868
-0.288389
-0.284642
-0.280539
-0.276034
-0.271125
-0.265864
-0.260323
-0.254659
-0.248807
-0.243237
-0.318113
-0.316159
-0.313827
-0.311098
-0.3081
-0.304999
-0.301905
-0.298882
-0.295948
-0.293079
-0.290212
-0.287254
-0.2841
-0.280648
-0.276822
-0.272588
-0.26797
-0.26302
-0.25791
-0.252585
-0.247576
-0.313258
-0.311692
-0.30971
-0.307325
-0.304668
-0.301893
-0.299111
-0.296392
-0.293768
-0.291232
-0.288738
-0.286209
-0.283547
-0.280645
-0.27741
-0.273777
-0.269745
-0.265348
-0.260789
-0.256023
-0.251879
-0.308908
-0.307673