/*--------------------------------*- C++ -*----------------------------------*\
  =========                 |
  \\      /  F ield         | OpenFOAM: The Open Source CFD Toolbox
   \\    /   O peration     | Website:  https://openfoam.org
    \\  /    A nd           | Version:  7
     \\/     M anipulation  |
\*---------------------------------------------------------------------------*/
FoamFile
{
    version     2.0;
    format      ascii;
    class       surfaceScalarField;
    location    "25";
    object      phi;
}
// * * * * * * * * * * * * * * * * * * * * * * * * * * * * * * * * * * * * * //

dimensions      [0 3 -1 0 0 0 0];

internalField   nonuniform List<scalar> 
17388
(
-3.46388e-06
3.71955e-06
-2.55668e-07
-1.2551e-05
9.76802e-06
-6.80955e-07
-2.63729e-05
1.48696e-05
-1.04763e-06
-4.41356e-05
1.91235e-05
-1.3608e-06
-6.51233e-05
2.26138e-05
-1.6261e-06
-8.86908e-05
2.54178e-05
-1.85033e-06
-0.000114254
2.76039e-05
-2.04108e-06
-0.000141278
2.92302e-05
-2.20613e-06
-0.000169269
3.03447e-05
-2.35297e-06
-0.000197768
3.09865e-05
-2.48818e-06
-0.000226341
3.11902e-05
-2.61692e-06
-0.000254591
3.09925e-05
-2.7427e-06
-0.000282168
3.04439e-05
-2.86722e-06
-0.0003088
2.96231e-05
-2.99044e-06
-0.000334345
2.86554e-05
-3.11084e-06
-0.00035885
2.77311e-05
-3.22572e-06
-0.000382639
2.71207e-05
-3.33163e-06
-0.000406391
2.71771e-05
-3.42477e-06
-0.000431198
2.83073e-05
-3.50117e-06
-0.000458565
3.09232e-05
-3.55619e-06
3.54505e-05
-3.58409e-06
-0.000490431
-3.41627e-06
7.13582e-06
-1.23844e-05
1.87361e-05
-2.60313e-05
2.85165e-05
-4.35749e-05
3.66672e-05
-6.43086e-05
4.33475e-05
-8.75945e-05
4.87036e-05
-0.000112854
5.2863e-05
-0.000139556
5.59326e-05
-0.00016721
5.79991e-05
-0.000195356
5.91319e-05
-0.000223557
5.93912e-05
-0.000251405
5.8841e-05
-0.000278533
5.75715e-05
-0.000304638
5.5728e-05
-0.000329529
5.35471e-05
-0.000353194
5.1396e-05
-0.000375881
4.9807e-05
-0.000398192
4.9489e-05
-0.000421166
5.12805e-05
-0.000446296
5.60536e-05
6.4735e-05
-0.000475581
-3.3255e-06
1.04613e-05
-1.20661e-05
2.74767e-05
-2.53774e-05
4.18278e-05
-4.24991e-05
5.37888e-05
-6.27417e-05
6.35901e-05
-8.54805e-05
7.14424e-05
-0.000110147
7.75295e-05
-0.000136219
8.20044e-05
-0.00016321
8.49898e-05
-0.000190659
8.6581e-05
-0.000218124
8.68567e-05
-0.000245181
8.58974e-05
-0.000271425
8.38162e-05
-0.000296498
8.08009e-05
-0.000320121
7.71696e-05
-0.000342158
7.34332e-05
-0.000362709
7.03575e-05
-0.000382221
6.90013e-05
-0.000401609
7.06687e-05
-0.000422331
7.67756e-05
8.88919e-05
-0.000446488
-3.19365e-06
1.3655e-05
-1.16027e-05
3.58858e-05
-2.44227e-05
5.46477e-05
-4.09238e-05
7.029e-05
-6.04403e-05
8.31066e-05
-8.23656e-05
9.33677e-05
-0.000106145
0.000101309
-0.000131268
0.000107127
-0.000157254
0.000110976
-0.000183644
0.000112971
-0.00020999
0.000113202
-0.000235843
0.000111751
-0.000260759
0.000108731
-0.000284298
0.00010434
-0.000306062
9.89338e-05
-0.000325744
9.31145e-05
-0.000343219
8.78334e-05
-0.000358693
8.44753e-05
-0.00037287
8.48457e-05
-0.00038711
9.10155e-05
0.000105414
-0.000403632
-3.02381e-06
1.66788e-05
-1.10039e-05
4.38659e-05
-2.31848e-05
6.68285e-05
-3.88735e-05
8.59788e-05
-5.74324e-05
0.000101666
-7.82764e-05
0.000114212
-0.000100868
0.0001239
-0.000124707
0.000130966
-0.000149324
0.000135592
-0.000174262
0.00013791
-0.000199067
0.000138007
-0.00022327
0.000135954
-0.000246378
0.000131839
-0.000267868
0.00012583
-0.000287201
0.000118267
-0.00030386
0.000109774
-0.000317438
0.000101412
-0.000327801
9.4838e-05
-0.00033533
9.23754e-05
-0.000341179
9.6864e-05
0.000111872
-0.000347637
-2.82026e-06
1.9499e-05
-1.02832e-05
5.13288e-05
-2.16879e-05
7.82332e-05
-3.6382e-05
0.000100673
-5.37576e-05
0.000119041
-7.32521e-05
0.000133706
-9.43443e-05
0.000144993
-0.000116548
0.00015317
-0.000139401
0.000158445
-0.000162452
0.00016096
-0.000185241
0.000160797
-0.000207283
0.000157996
-0.000228041
0.000152598
-0.000246914
0.000144703
-0.000263219
0.000134572
-0.000276217
0.000122771
-0.000285174
0.000110368
-0.00028953
9.91947e-05
-0.000289219
9.20637e-05
-0.000285021
9.26658e-05
0.000105995
-0.000279144
-2.58845e-06
2.20875e-05
-9.45757e-06
5.8198e-05
-1.99633e-05
8.87389e-05
-3.34933e-05
0.000114203
-4.94685e-05
0.000135016
-6.73467e-05
0.000151584
-8.66209e-05
0.000164267
-0.000106815
0.000173364
-0.000127472
0.000179103
-0.000148144
0.000181632
-0.000168368
0.000181021
-0.000187646
0.000177273
-0.000205407
0.000170359
-0.000220983
0.000160278
-0.000233568
0.000147158
-0.000242212
0.000131415
-0.000245845
0.000114002
-0.000243432
9.67815e-05
-0.00023434
8.29715e-05
-0.00021883
7.71558e-05
8.57933e-05
-0.000198628
-2.33501e-06
2.44225e-05
-8.5481e-06
6.44111e-05
-1.80493e-05
9.82401e-05
-3.02624e-05
0.000126416
-4.46325e-05
0.000149387
-6.0632e-05
0.000167584
-7.77622e-05
0.000181397
-9.55498e-05
0.000191151
-0.000113539
0.000197092
-0.000131277
0.00019937
-0.000148295
0.000198039
-0.00016408
0.000193059
-0.00017804
0.000184319
-0.000189455
0.000171693
-0.000197426
0.00015513
-0.00020083
0.000134819
-0.000198299
0.000111471
-0.000188322
8.68045e-05
-0.000169638
6.42874e-05
-0.000142061
4.95786e-05
4.98633e-05
-0.000106131
-2.06773e-06
2.64902e-05
-7.57917e-06
6.99225e-05
-1.59909e-05
0.000106652
-2.67547e-05
0.00013718
-3.9331e-05
0.000161963
-5.31979e-05
0.000181451
-6.78549e-05
0.000196054
-8.2821e-05
0.000206117
-9.7628e-05
0.000211899
-0.000111808
0.00021355
-0.000124873
0.000211105
-0.000136291
0.000204476
-0.000145442
0.00019347
-0.00015157
0.000177821
-0.000153712
0.000157271
-0.000150617
0.000131724
-0.000140682
0.000101536
-0.000121951
6.80726e-05
-9.23363e-05
3.46731e-05
-5.10925e-05
8.33484e-06
2.29319e-06
-3.52244e-06
-1.79525e-06
2.82855e-05
-6.57792e-06
7.47052e-05
-1.38384e-05
0.000113912
-2.30438e-05
0.000146385
-3.36575e-05
0.000172577
-4.51506e-05
0.000192944
-5.70066e-05
0.00020791
-6.87212e-05
0.000217832
-7.97958e-05
0.000222974
-8.97266e-05
0.000223481
-9.79868e-05
0.000219365
-0.000104001
0.000210491
-0.000107109
0.000196578
-0.000106512
0.000177224
-0.000101194
0.000151954
-8.98173e-05
0.000120347
-7.05844e-05
8.23031e-05
-4.11119e-05
3.86001e-05
1.54032e-06
-7.97914e-06
6.02729e-05
-5.03977e-05
-7.1228e-05
0.000133794
-1.52673e-06
2.98122e-05
-5.57289e-06
7.87513e-05
-1.16446e-05
0.000119984
-1.92078e-05
0.000153948
-2.77128e-05
0.000181082
-3.6607e-05
0.000201838
-4.53403e-05
0.000216643
-5.33644e-05
0.000225856
-6.01266e-05
0.000229736
-6.50589e-05
0.000228413
-6.75627e-05
0.000221869
-6.69858e-05
0.000209914
-6.25906e-05
0.000192183
-5.35069e-05
0.00016814
-3.86598e-05
0.000137107
-1.66555e-05
9.83431e-05
1.43941e-05
5.12536e-05
5.71132e-05
-4.11902e-06
0.000114986
-6.58515e-05
0.000192052
-0.000127464
-0.000170207
0.000291031
-1.27123e-06
3.10835e-05
-4.59199e-06
8.20721e-05
-9.46124e-06
0.000124853
-1.53231e-05
0.00015981
-2.15955e-05
0.000187354
-2.76829e-05
0.000207925
-3.29799e-05
0.00022194
-3.68697e-05
0.000229746
-3.87161e-05
0.000231582
-3.78519e-05
0.000227549
-3.35645e-05
0.000217581
-2.5076e-05
0.000201425
-1.15178e-05
0.000178625
8.10581e-06
0.000148516
3.49739e-05
0.000110238
7.05376e-05
6.27795e-05
0.000116696
5.0948e-06
0.00017607
-6.34924e-05
0.000252388
-0.00014217
0.000350697
-0.000225773
-0.000296281
0.000476771
-1.03693e-06
3.21204e-05
-3.65989e-06
8.4695e-05
-7.33317e-06
0.000128527
-1.14554e-05
0.000163933
-1.539e-05
0.000191289
-1.84759e-05
0.000211011
-2.00282e-05
0.000223493
-1.93332e-05
0.000229051
-1.56374e-05
0.000227886
-8.13413e-06
0.000220046
4.05227e-06
0.000205395
2.18843e-05
0.000183593
4.64294e-05
0.00015408
7.88835e-05
0.000116062
0.000120601
6.85205e-05
0.000173152
1.02293e-05
0.000238415
-6.01681e-05
0.000318868
-0.000143945
0.000418041
-0.000241343
0.00054108
-0.000348812
-0.000452604
0.000697403
-8.30181e-07
3.29506e-05
-2.79492e-06
8.66598e-05
-5.29246e-06
0.000131024
-7.64955e-06
0.00016629
-9.15028e-06
0.000192789
-9.04309e-06
0.000210904
-6.53607e-06
0.000220986
-7.87292e-07
0.000223302
9.1112e-06
0.000217988
2.41502e-05
0.000205007
4.54211e-05
0.000184124
7.41319e-05
0.000154882
0.000111621
0.00011659
0.000159367
6.83167e-05
0.000218989
8.89806e-06
0.000292254
-6.30359e-05
0.000381094
-0.000149008
0.000487747
-0.000250598
0.000615224
-0.00036882
0.000767726
-0.000501314
-0.000643101
0.000958223
-6.54525e-07
3.36051e-05
-2.00564e-06
8.80109e-05
-3.35127e-06
0.00013237
-3.91777e-06
0.000166856
-2.88197e-06
0.000191754
6.25288e-07
0.000207397
7.53277e-06
0.000214078
1.88468e-05
0.000211988
3.56698e-05
0.000201165
5.92235e-05
0.000181453
9.08682e-05
0.000152479
0.000132118
0.000113633
0.000184646
6.40618e-05
0.00025028
2.6822e-06
0.000330977
-7.17989e-05
0.000428775
-0.000160834
0.000545722
-0.000265954
0.000683827
-0.000388704
0.000845395
-0.000530388
0.00103285
-0.000688773
-0.000871747
0.0012615
-5.09711e-07
3.41148e-05
-1.28784e-06
8.8789e-05
-1.49536e-06
0.000132577
-2.26145e-07
0.000165587
3.47377e-06
0.000188054
1.06277e-05
0.000200243
2.23362e-05
0.00020237
3.98062e-05
0.000194518
6.43793e-05
0.000176592
9.75561e-05
0.000148276
0.000141017
0.000109018
0.000196633
5.80169e-05
0.000266459
-5.76386e-06
0.000352706
-8.35655e-05
0.000457685
-0.000176777
0.000583702
-0.000286851
0.000732914
-0.000415167
0.000907104
-0.000562894
0.00110771
-0.00073099
0.00133522
-0.000916286
-0.00114112
0.0016046
-3.90896e-07
3.45057e-05
-6.22257e-07
8.90204e-05
3.21562e-07
0.000131633
3.50281e-06
0.000162406
1.00534e-05
0.000181503
2.11757e-05
0.000189121
3.8181e-05
0.000185364
6.25218e-05
0.000170177
9.58246e-05
0.000143289
0.000139917
0.000104184
0.000196844
5.20914e-05
0.000268866
-1.40047e-05
0.000358431
-9.53292e-05
0.000468114
-0.000193249
0.000600509
-0.000309172
0.000758064
-0.000444407
0.00094287
-0.000599973
0.00115636
-0.000776379
0.00139875
-0.000973382
0.00166938
-0.00118692
-0.00145026
0.00197851
-2.88112e-07
3.47938e-05
3.4187e-08
8.86981e-05
2.17479e-06
0.000129493
7.41429e-06
0.000157166
1.708e-05
0.000171837
3.25978e-05
0.000173603
5.55324e-05
0.00016243
8.76274e-05
0.000138082
0.000130841
0.000100075
0.000187369
4.76561e-05
0.000259647
-2.01868e-05
0.000350326
-0.000104684
0.000462207
-0.00020721
0.000598121
-0.000329163
0.000760759
-0.00047181
0.000952429
-0.000636077
0.00117476
-0.000822308
0.00142848
-0.00103009
0.00171206
-0.00125696
0.00202509
-0.00149995
-0.00179238
0.00236722
-1.88739e-07
3.49825e-05
7.13493e-07
8.77958e-05
4.17782e-06
0.000126028
1.1701e-05
0.000149643
2.4856e-05
0.000158682
4.53351e-05
0.000153124
7.50016e-05
0.000132763
0.000115936
9.7148e-05
0.000170468
4.55436e-05
0.000241184
-2.30602e-05
0.000330906
-0.000109909
0.000442618
-0.000216397
0.000579345
-0.000343936
0.000743958
-0.000493776
0.000938919
-0.000666771
0.00116595
-0.000863112
0.00142569
-0.00108205
0.00171747
-0.00132186
0.0020376
-0.0015771
0.0023868
-0.00184915
-0.00215391
0.00274833
-7.38155e-08
3.50564e-05
1.50201e-06
8.622e-05
6.47138e-06
0.000121059
1.66029e-05
0.000139511
3.3751e-05
0.000141534
5.99165e-05
0.000126958
9.7306e-05
9.53739e-05
0.000148375
4.60791e-05
0.000215845
-2.19265e-05
0.000302683
-0.000109899
0.00041203
-0.000219256
0.000547062
-0.000351428
0.000710782
-0.000507656
0.000905741
-0.000688735
0.0011337
-0.000894725
0.00139524
-0.00112466
0.00168947
-0.00137627
0.00201366
-0.00164605
0.00236227
-0.00192572
0.00273452
-0.00222139
-0.0025141
0.00309471
8.3014e-08
3.49733e-05
2.46787e-06
8.38352e-05
9.2131e-06
0.000114314
2.23902e-05
0.000126334
4.41746e-05
0.00011975
7.69177e-05
9.4215e-05
0.000123205
4.90868e-05
0.000185886
-1.66017e-05
0.00026806
-0.000104101
0.000373006
-0.000214845
0.000504031
-0.00035028
0.000664243
-0.00051164
0.000856241
-0.000699655
0.00108175
-0.000914241
0.00134122
-0.0011542
0.00163351
-0.00141696
0.00195574
-0.0016985
0.00230301
-0.00199332
0.0026699
-0.0022926
0.00304782
-0.00259932
-0.00283955
0.00337326
2.97333e-07
3.4676e-05
3.68968e-06
8.04428e-05
1.25683e-05
0.000105435
2.93415e-05
0.000109561
5.65428e-05
9.25485e-05
9.69064e-05
5.38514e-05
0.000153415
-7.42144e-06
0.000229297
-9.24846e-05
0.000327964
-0.000202768
0.00045285
-0.000339731
0.000607169
-0.0005046
0.000793574
-0.000698045
0.00101374
-0.000919825
0.00126797
-0.00116846
0.00155477
-0.001441
0.00187076
-0.00173294
0.00221068
-0.00203842
0.00256754
-0.00235019
0.0029365
-0.00266156
0.00330464
-0.00296745
-0.00324201
0.0037071
5.95457e-07
3.40806e-05
5.24544e-06
7.57928e-05
1.66967e-05
9.3984e-05
3.77215e-05
8.85364e-05
7.12387e-05
5.90313e-05
0.000120382
4.70854e-06
0.000188517
-7.55572e-05
0.000279192
-0.000183159
0.000395979
-0.000319555
0.00054222
-0.000485972
0.000720658
-0.000683037
0.000932983
-0.00091037
0.00117937
-0.00116621
0.00145807
-0.00144717
0.00176524
-0.00174817
0.00209497
-0.00206268
0.00243981
-0.00238326
0.00279157
-0.00270195
0.00314288
-0.00301287
0.00348436
-0.00330893
-0.0035879
0.00383025
9.96883e-07
3.30837e-05
7.20471e-06
6.9585e-05
2.17398e-05
7.9449e-05
4.77574e-05
6.25188e-05
8.85747e-05
1.8214e-05
0.000147714
-5.44309e-05
0.000228871
-0.000156714
0.000335777
-0.000290065
0.000471936
-0.000455714
0.000640239
-0.000654275
0.000842471
-0.000885269
0.0010788
-0.0011467
0.00134733
-0.00143474
0.00164389
-0.00174372
0.0019621
-0.00206638
0.00229389
-0.00239447
0.00263033
-0.00271969
0.00296273
-0.00303435
0.00328347
-0.00333362
0.00358671
-0.00361216
-0.00387418
0.00387299
1.51832e-06
3.15654e-05
9.62455e-06
6.14788e-05
2.781e-05
6.12635e-05
5.96196e-05
3.07091e-05
0.00010876
-3.09262e-05
0.000179095
-0.000124766
0.000274537
-0.000252156
0.000398792
-0.000414319
0.000554965
-0.000611887
0.00074504
-0.00084435
0.000969314
-0.00110954
0.0012259
-0.00140328
0.00151046
-0.0017193
0.00181631
-0.00204957
0.00213494
-0.00238501
0.00245695
-0.00271647
0.00277314
-0.00303588
0.00307573
-0.00333694
0.00335897
-0.00361686
0.00361953
-0.00387273
-0.00411305
0.00385841
2.17246e-06
2.93929e-05
1.25466e-05
5.11046e-05
3.49836e-05
3.88265e-05
7.34073e-05
-7.71459e-06
0.000131875
-8.93939e-05
0.0002145
-0.000207391
0.000325227
-0.000362883
0.000467445
-0.000556537
0.000643442
-0.000787885
0.000853792
-0.0010547
0.00109679
-0.00135254
0.00136813
-0.00167462
0.00166098
-0.00201215
0.00196654
-0.00235513
0.00227502
-0.0026935
0.00257692
-0.00301838
0.0028642
-0.00332316
0.00313125
-0.00360399
0.00337505
-0.00386066
0.0035956
-0.00409328
-0.004312
0.00379455
2.96779e-06
2.64251e-05
1.59957e-05
3.80767e-05
4.32966e-05
1.15257e-05
8.91399e-05
-5.35578e-05
0.000157858
-0.000158112
0.000253662
-0.000303195
0.000380278
-0.000489499
0.0005404
-0.000716659
0.000735031
-0.000982516
0.000962843
-0.00128251
0.00121976
-0.00160946
0.00149898
-0.00195385
0.00179154
-0.00230471
0.00208735
-0.00265093
0.00237655
-0.0029827
0.00265087
-0.00329269
0.00290451
-0.00357681
0.00313472
-0.00383419
0.00334142
-0.00406736
0.00352716
-0.00427902
-0.00447979
0.00369495
3.90891e-06
2.25162e-05
1.99803e-05
2.20053e-05
5.27437e-05
-2.12377e-05
0.000106752
-0.000107567
0.000186494
-0.000237853
0.000296065
-0.000412767
0.000438647
-0.000632081
0.00061581
-0.000893822
0.000826796
-0.0011935
0.00106799
-0.00152371
0.00133283
-0.0018743
0.00161233
-0.00223334
0.00189614
-0.00258852
0.00217404
-0.00292883
0.00243733
-0.003246
0.00267998
-0.00353533
0.00289902
-0.00379585
0.00309454
-0.00402971
0.00326884
-0.00424166
0.00342605
-0.00443623
-0.00462361
0.00356987
4.99699e-06
1.75192e-05
2.44925e-05
2.50987e-06
6.32776e-05
-6.00228e-05
0.000126094
-0.000170383
0.000217414
-0.000329173
0.000340947
-0.0005363
0.000498943
-0.000790076
0.000691399
-0.00108628
0.000915398
-0.0014175
0.00116486
-0.00177317
0.00143096
-0.0021404
0.00170319
-0.00250557
0.00197089
-0.00285622
0.00222486
-0.0031828
0.00245855
-0.00347969
0.00266866
-0.00374545
0.00285504
-0.00398223
0.00302003
-0.0041947
0.00316747
-0.0043891
0.00330212
-0.00457088
-0.00474918
0.0034277
6.23005e-06
1.12892e-05
2.95088e-05
-2.07688e-05
7.4809e-05
-0.000105323
0.000146928
-0.000242502
0.000250098
-0.000432344
0.000387311
-0.000673513
0.000559471
-0.000962236
0.000764595
-0.0012914
0.000997366
-0.00165027
0.00124935
-0.00202516
0.00151002
-0.00240107
0.00176828
-0.00276383
0.0020143
-0.00310223
0.00224083
-0.00340933
0.00244398
-0.00368285
0.00262318
-0.00392465
0.00278054
-0.00413959
0.0029199
-0.00433405
0.00304575
-0.00451495
0.00316275
-0.00468788
-0.00486061
0.00327418
7.60293e-06
3.68622e-06
3.49895e-05
-4.81554e-05
8.7206e-05
-0.00015754
0.000168929
-0.000324225
0.000283879
-0.000547294
0.000433959
-0.000823593
0.000618325
-0.0011466
0.000832713
-0.00150579
0.0010694
-0.00188696
0.00131803
-0.00227379
0.00156718
-0.00265021
0.00180625
-0.00300291
0.00202713
-0.00332311
0.00222509
-0.00360729
0.00239893
-0.00385668
0.00255035
-0.00407608
0.00268301
-0.00427224
0.00280144
-0.00445248
0.00291012
-0.00462364
0.00301317
-0.00479093
-0.00496063
0.00311319
9.10691e-06
-5.42069e-06
4.08778e-05
-7.99263e-05
0.000100292
-0.000216954
0.000191687
-0.000415621
0.000317958
-0.000673565
0.000479538
-0.000985172
0.000673495
-0.00134056
0.000893167
-0.00172546
0.00112869
-0.00212249
0.00136846
-0.00251356
0.00160114
-0.00288289
0.00181755
-0.00321931
0.00201188
-0.00351744
0.00218205
-0.00377746
0.00232918
-0.00400381
0.0024566
-0.0042035
0.00256877
-0.00438441
0.00267028
-0.00455399
0.00276519
-0.00471854
0.00285685
-0.00488259
-0.00505094
0.00294716
1.07291e-05
-1.61498e-05
4.7098e-05
-0.000116295
0.000113846
-0.000283701
0.000214715
-0.00051649
0.000351434
-0.000810284
0.000522613
-0.00115635
0.000723015
-0.00154096
0.000943684
-0.00194613
0.00117314
-0.00235194
0.00139938
-0.00273981
0.00161207
-0.00309558
0.00180408
-0.00341132
0.00197216
-0.00368552
0.00211659
-0.00392189
0.00224026
-0.00412747
0.00234744
-0.00431069
0.00244279
-0.00447976
0.00253053
-0.00464174
0.00261408
-0.00480208
0.00269602
-0.00496454
-0.00513255
0.00277763
1.24518e-05
-2.86016e-05
5.35551e-05
-0.000157399
0.000127602
-0.000357749
0.000237456
-0.000626344
0.000383337
-0.000956165
0.00056175
-0.00133476
0.000765107
-0.00174432
0.000982491
-0.00216352
0.00120151
-0.00257096
0.00141066
-0.00294895
0.00160129
-0.00328621
0.00176869
-0.00357872
0.00191201
-0.00382884
0.00203344
-0.00404332
0.00213698
-0.00423102
0.00222729
-0.004401
0.00230876
-0.00456123
0.00238504
-0.00471802
0.00245885
-0.00487589
0.0025321
-0.00503779
-0.00520597
0.00260553
1.42517e-05
-4.28532e-05
6.01341e-05
-0.000203281
0.00014126
-0.000438874
0.000259308
-0.000744392
0.000412684
-0.00110954
0.000595615
-0.0015177
0.000798312
-0.00194702
0.00100843
-0.00237364
0.00121348
-0.002776
0.00140317
-0.00313865
0.00157102
-0.00345406
0.00171472
-0.00372242
0.00183547
-0.00394959
0.00193681
-0.00414466
0.0020233
-0.00431751
0.00209951
-0.0044772
0.00216933
-0.00463105
0.00223576
-0.00478445
0.00230086
-0.00494099
0.00236598
-0.00510291
-0.00527147
0.00243148
1.61001e-05
-5.89533e-05
6.67027e-05
-0.000253884
0.000154487
-0.000526659
0.000279649
-0.000869555
0.000438532
-0.00126842
0.000623066
-0.00170223
0.000821595
-0.00214554
0.00102102
-0.00257307
0.00120949
-0.00296447
0.0013785
-0.00330766
0.0015239
-0.00359946
0.00164554
-0.00384406
0.00174621
-0.00405026
0.00183024
-0.00422869
0.0019023
-0.00438957
0.00196656
-0.00454146
0.00202633
-0.00469082
0.00208396
-0.00484208
0.00214096
-0.004998
0.00219826
-0.0051602
-0.00532913
0.00225592
1.79631e-05
-7.69164e-05
7.31142e-05
-0.000309035
0.000166936
-0.00062048
0.00029787
-0.00100049
0.000460044
-0.0014306
0.000643227
-0.00188541
0.000834389
-0.00233671
0.00102038
-0.00275906
0.00119062
-0.00313471
0.00133872
-0.00345576
0.00146274
-0.00372349
0.00156435
-0.00394567
0.00164741
-0.00413332
0.00171658
-0.00429786
0.0017763
-0.00444929
0.00183023
-0.00459539
0.00188104
-0.00474162
0.00193052
-0.00489156
0.00197977
-0.00504725
0.00202935
-0.00520978
-0.00537897
0.00207919
1.98026e-05
-9.67189e-05
7.9213e-05
-0.000368445
0.00017826
-0.000719527
0.000313408
-0.00113564
0.000476533
-0.00159372
0.000655533
-0.00206441
0.00083659
-0.00251776
0.00100716
-0.00292963
0.00115839
-0.00328593
0.00128606
-0.00358343
0.00139024
-0.00382767
0.00147396
-0.00402938
0.00154167
-0.00420103
0.00159802
-0.00435421
0.00164703
-0.0044983
0.00169175
-0.00464011
0.00173431
-0.00478418
0.00177603
-0.00493328
0.00181768
-0.0050889
0.00185959
-0.00525169
-0.00542095
0.00190158
2.15774e-05
-0.000118296
8.48413e-05
-0.000431709
0.00018813
-0.000822816
0.000325779
-0.00127329
0.000487505
-0.00175545
0.000659745
-0.00223665
0.000828508
-0.00268653
0.000982405
-0.00308353
0.00111454
-0.00341807
0.0012228
-0.0036917
0.00130889
-0.00391375
0.00137674
-0.00409724
0.00143106
-0.00425535
0.00147622
-0.00439937
0.00151571
-0.00453779
0.00155201
-0.00467642
0.00158676
-0.00481893
0.00162093
-0.00496745
0.00165504
-0.00512301
0.00168926
-0.00528591
-0.00545505
0.00172335
2.32448e-05
-0.000141541
8.98458e-05
-0.00049831
0.000196253
-0.000929222
0.000334607
-0.00141164
0.000492677
-0.00191352
0.000655932
-0.00239991
0.000810788
-0.00284138
0.000947397
-0.00322014
0.00106091
-0.00353157
0.00115106
-0.00378185
0.00122082
-0.00398351
0.00127466
-0.00415107
0.00131721
-0.00429791
0.00135243
-0.00443459
0.00138324
-0.00456861
0.00141163
-0.00470481
0.00143883
-0.00484613
0.00146554
-0.00499416
0.00149211
-0.00514958
0.0015186
-0.0053124
-0.00548122
0.00154477
2.47626e-05
-0.000166304
9.40851e-05
-0.000567633
0.000202382
-0.00103752
0.000339632
-0.00154889
0.000491972
-0.00206586
0.000644429
-0.00255236
0.00078431
-0.00298126
0.000903553
-0.00333938
0.000999266
-0.00362729
0.00107276
-0.00385535
0.00112787
-0.00403862
0.00116928
-0.00419248
0.00120136
-0.00432999
0.00122756
-0.00446079
0.00125029
-0.00459133
0.00127109
-0.0047256
0.00129086
-0.0048659
0.00131013
-0.00501342
0.00132913
-0.00516859
0.00134785
-0.00533112
-0.00549945
0.00136607
2.60904e-05
-0.000192394
9.74361e-05
-0.000638978
0.000206333
-0.00114642
0.000340727
-0.00168328
0.000485511
-0.00221064
0.000625777
-0.00269263
0.000750105
-0.00310559
0.000852306
-0.00344158
0.000931276
-0.00370626
0.000989557
-0.00391363
0.00103152
-0.00408058
0.00106183
-0.00422279
0.00108445
-0.00435261
0.00110231
-0.00447865
0.00111734
-0.00460637
0.00113072
-0.00473899
0.00114313
-0.00487831
0.00115494
-0.00502523
0.00116632
-0.00517996
0.00117722
-0.00534202
-0.0055097
0.00118747
2.71918e-05
-0.000219586
9.97988e-05
-0.000711585
0.000207988
-0.00125461
0.000337885
-0.00181318
0.000473574
-0.00234633
0.000600666
-0.00281972
0.000709267
-0.00321419
0.000795039
-0.00352736
0.000858418
-0.00376964
0.000902863
-0.00395807
0.000933004
-0.00411072
0.000953273
-0.00424306
0.000967186
-0.00436652
0.000977175
-0.00448864
0.000984762
-0.00461395
0.000990832
-0.00474506
0.000995886
-0.00488337
0.0010002
-0.00502955
0.0010039
-0.00518366
0.00100691
-0.00534503
-0.00551196
0.00100917
2.80352e-05
-0.000247621
0.0001011
-0.00078465
0.000207296
-0.0013608
0.000331215
-0.0019371
0.000456571
-0.00247169
0.000569873
-0.00293302
0.000662894
-0.00330721
0.000733028
-0.00359749
0.000781986
-0.00381859
0.000813845
-0.00398993
0.000833269
-0.00413015
0.000844349
-0.00425414
0.000850123
-0.00437229
0.000852571
-0.00449109
0.000852867
-0.00461425
0.000851669
-0.00474386
0.000849351
-0.00488105
0.00084612
-0.00502632
0.000842061
-0.0051796
0.000837136
-0.00534011
-0.00550615
0.000831332
2.85956e-05
-0.000276217
0.000101296
-0.000857351
0.000204271
-0.00146378
0.000320918
-0.00205375
0.000435001
-0.00258577
0.000534214
-0.00303224
0.000612037
-0.00338504
0.000667421
-0.00365287
0.000703084
-0.00385426
0.000723462
-0.00401031
0.000733083
-0.00413977
0.000735634
-0.00425669
0.000733685
-0.00437034
0.000728815
-0.00448622
0.000721915
-0.00460735
0.000713466
-0.00473541
0.00070374
-0.00487132
0.0006929
-0.00501548
0.00068102
-0.00516772
0.000668074
-0.00532716
-0.00549217
0.000654087
2.88547e-05
-0.000305071
0.000100371
-0.000928867
0.000198987
-0.00156239
0.000307271
-0.00216203
0.000409416
-0.00268791
0.000494499
-0.00311732
0.000557668
-0.00344821
0.000599225
-0.00369443
0.000622634
-0.00387767
0.000632486
-0.00402016
0.00063305
-0.00414033
0.00062758
-0.00425122
0.00061821
-0.00436097
0.000606181
-0.00447419
0.000592149
-0.00459332
0.000576453
-0.00471971
0.000559286
-0.00485416
0.000540765
-0.00499696
0.000520971
-0.00514793
0.000499918
-0.00530611
-0.0054698
0.000477555
2.88015e-05
-0.000333873
9.83364e-05
-0.000998402
0.000191565
-0.00165562
0.000290603
-0.00226107
0.000380391
-0.0027777
0.000451507
-0.00318844
0.000500666
-0.00349736
0.000529305
-0.00372307
0.000541402
-0.00388976
0.000541535
-0.0040203
0.000533642
-0.00413244
0.000520541
-0.00423812
0.000503978
-0.00434441
0.000484906
-0.00445511
0.000463795
-0.00457221
0.000440875
-0.00469679
0.000416262
-0.00482954
0.000390021
-0.00497072
0.000362189
-0.00512009
0.00033282
-0.00527674
-0.005439
0.000302015
2.84321e-05
-0.000362305
9.5229e-05
-0.0010652
0.000182167
-0.00174256
0.000271275
-0.00235018
0.000348497
-0.00285493
0.00040596
-0.0032459
0.000441808
-0.00353321
0.000458394
-0.00373965
0.000460014
-0.00389138
0.000451106
-0.00401139
0.000435235
-0.00411657
0.000414806
-0.00421769
0.000391221
-0.00432082
0.000365197
-0.00442909
0.000337062
-0.00454407
0.000306958
-0.00466669
0.000274955
-0.00479754
0.000241092
-0.00493685
0.000205291
-0.00508429
0.000167025
-0.00523847
-0.00539949
0.00012752
2.77498e-05
-0.000390055
9.11062e-05
-0.00112856
0.000170984
-0.00182244
0.000249662
-0.00242885
0.000314287
-0.00291955
0.000358516
-0.00329013
0.000381768
-0.00355646
0.000387104
-0.00374499
0.000378976
-0.00388326
0.000361592
-0.003994
0.000338128
-0.0040931
0.000310607
-0.00419017
0.000280138
-0.00429036
0.000247244
-0.0043962
0.000212135
-0.00450896
0.000174891
-0.00462945
0.000135567
-0.00475822
9.42059e-05
-0.00489549
5.10841e-05
-0.00504117
6.40233e-06
-0.00519379
-0.0053477
-4.53888e-05
2.67636e-05
-0.000416818
8.6042e-05
-0.00118783
0.000158223
-0.00189462
0.000226139
-0.00249677
0.000278274
-0.00297169
0.000309761
-0.00332161
0.000321121
-0.00356782
0.000315943
-0.00373981
0.000298699
-0.00386601
0.000273309
-0.00396861
0.000242563
-0.00406236
0.000208141
-0.00415575
0.000170904
-0.00425312
0.000131219
-0.00435651
8.91967e-05
-0.00446694
4.48482e-05
-0.0045851
-1.8311e-06
-0.00471154
-5.0624e-05
-0.0048467
-0.000101606
-0.00499019
-0.000155413
-0.00513998
-0.00529316
-0.000209955
2.54882e-05
-0.000442307
8.01228e-05
-0.00124247
0.000144099
-0.00195859
0.000201069
-0.00255374
0.000240931
-0.00301155
0.000260208
-0.00334089
0.000260355
-0.00356797
0.000245327
-0.00372479
0.000219511
-0.0038402
0.000186507
-0.00393561
0.000148737
-0.00402459
0.000107578
-0.00411459
6.36704e-05
-0.00420921
1.72654e-05
-0.00431011
-3.15814e-05
-0.00441809
-8.29129e-05
-0.00453377
-0.000136725
-0.00465772
-0.000193025
-0.0047904
-0.000251766
-0.00493145
-0.000312808
-0.00507894
-0.00523079
-0.000375175
2.39425e-05
-0.000466249
7.34438e-05
-0.00129197
0.000128832
-0.00201398
0.000174794
-0.0025997
0.000202683
-0.00303944
0.000210302
-0.00334851
0.000199878
-0.00355755
0.000175594
-0.0037005
0.000141677
-0.00380628
0.000101391
-0.00389532
5.68048e-05
-0.00398
9.02731e-06
-0.00406681
-4.1417e-05
-0.00415877
-9.44217e-05
-0.0042571
-0.000150017
-0.0043625
-0.000208271
-0.00447551
-0.000269236
-0.00459676
-0.000332899
-0.00472674
-0.000399133
-0.00486521
-0.000467634
-0.00501044
-0.00516026
-0.000538162
2.21491e-05
-0.000488398
6.61045e-05
-0.00133592
0.000112632
-0.00206051
0.000147632
-0.0026347
0.000163907
-0.00305571
0.000160423
-0.00334503
0.000140028
-0.00353715
0.000107019
-0.00366749
6.54096e-05
-0.00376467
1.8113e-05
-0.00384803
-3.3083e-05
-0.00392881
-8.72974e-05
-0.0040126
-0.00014421
-0.00410185
-0.000203743
-0.00419757
-0.000265979
-0.00430026
-0.000331047
-0.00441044
-0.00039905
-0.00452876
-0.000469989
-0.0046558
-0.000543701
-0.0047915
-0.000619877
-0.00493427
-0.00508177
-0.000698371
2.01334e-05
-0.000508532
5.82065e-05
-0.001374
9.57042e-05
-0.00209801
0.000119872
-0.00265887
0.000124934
-0.00306077
0.00011089
-0.00333098
8.10816e-05
-0.00350734
3.98221e-05
-0.00362623
-9.13429e-06
-0.00371571
-6.31623e-05
-0.003794
-0.000120805
-0.00387116
-0.000181366
-0.00395204
-0.000244616
-0.0040386
-0.000310558
-0.00413163
-0.000379315
-0.00423151
-0.000451063
-0.0043387
-0.000525967
-0.00445385
-0.000604067
-0.0045777
-0.000685202
-0.00471037
-0.000769035
-0.00485043
-0.00499545
-0.000855353
1.79232e-05
-0.000526455
4.98508e-05
-0.00140593
7.82393e-05
-0.0021264
9.17754e-05
-0.00267241
8.60473e-05
-0.00305504
6.19731e-05
-0.00330691
2.32711e-05
-0.00346864
-2.58125e-05
-0.00357715
-8.17779e-05
-0.00365975
-0.000142348
-0.00373343
-0.000206282
-0.00380723
-0.000273053
-0.00388526
-0.000342522
-0.00396913
-0.000414744
-0.0040594
-0.00048988
-0.00415637
-0.000568154
-0.00426042
-0.000649793
-0.00437221
-0.000734913
-0.00449258
-0.000823388
-0.00462189
-0.000914815
-0.00475901
-0.00490145
-0.00100882
1.55498e-05
-0.000542005
4.11367e-05
-0.00143151
6.0418e-05
-0.00214568
6.35752e-05
-0.00267556
4.74907e-05
-0.00303896
1.39339e-05
-0.00327335
-3.32184e-05
-0.00342149
-8.97494e-05
-0.00352062
-0.000152458
-0.00359704
-0.000219354
-0.00366653
-0.000289422
-0.00373716
-0.000362269
-0.00381242
-0.000437828
-0.00389358
-0.000516191
-0.00398104
-0.000597548
-0.00407501
-0.000682163
-0.00417581
-0.000770334
-0.00428404
-0.00086228
-0.00440063
-0.000957947
-0.00452622
-0.00105687
-0.00466009
-0.0047999
-0.00115841
1.30505e-05
-0.000555055
3.21642e-05
-0.00145063
4.24076e-05
-0.00215592
3.54769e-05
-0.00266863
9.59844e-06
-0.00301308
-3.31118e-05
-0.00323064
-8.8258e-05
-0.00336634
-0.000151884
-0.00345699
-0.000221075
-0.00352785
-0.000294105
-0.0035935
-0.000370153
-0.00366111
-0.000448937
-0.00373363
-0.000530447
-0.00381207
-0.000614801
-0.00389669
-0.000702206
-0.00398761
-0.000792957
-0.00408506
-0.000887417
-0.00418958
-0.000985929
-0.00430212
-0.00108856
-0.00442359
-0.00119481
-0.00455384
-0.00469097
-0.00130374
1.04604e-05
-0.000565516
2.30282e-05
-0.00146319
2.43606e-05
-0.00215725
7.84253e-06
-0.00265212
-2.77682e-05
-0.00297747
-7.90114e-05
-0.0031794
-0.00014173
-0.00330362
-0.000212127
-0.0033866
-0.000287558
-0.00345242
-0.000366538
-0.00351452
-0.000448412
-0.00357924
-0.00053299
-0.00364906
-0.000620304
-0.00372475
-0.000710492