/*--------------------------------*- C++ -*----------------------------------*\
  =========                 |
  \\      /  F ield         | OpenFOAM: The Open Source CFD Toolbox
   \\    /   O peration     | Website:  https://openfoam.org
    \\  /    A nd           | Version:  7
     \\/     M anipulation  |
\*---------------------------------------------------------------------------*/
FoamFile
{
    version     2.0;
    format      ascii;
    class       volVectorField;
    location    "25";
    object      U;
}
// * * * * * * * * * * * * * * * * * * * * * * * * * * * * * * * * * * * * * //

dimensions      [0 1 -1 0 0 0 0];

internalField   nonuniform List<vector> 
8820
(
(-0.000607738 0.000853337 -5.05123e-22)
(-0.00345157 0.00213084 -1.11116e-20)
(-0.00896364 0.00306231 -5.16292e-21)
(-0.0159735 0.00371582 -2.23759e-21)
(-0.0238905 0.00414135 6.83238e-22)
(-0.032317 0.00438054 -4.07372e-21)
(-0.0409101 0.0044692 -8.78872e-21)
(-0.0493964 0.00443723 -5.31499e-21)
(-0.0575628 0.00430927 1.23011e-20)
(-0.0652434 0.00410559 -2.18839e-21)
(-0.0723101 0.00384316 3.49981e-21)
(-0.0786671 0.00353717 5.04676e-21)
(-0.08425 0.00320262 -7.28718e-21)
(-0.0890268 0.00285624 -8.25119e-21)
(-0.0930042 0.00251823 3.83496e-21)
(-0.0962351 0.00221361 2.05193e-21)
(-0.0988372 0.00197245 5.02488e-22)
(-0.101019 0.00182813 1.38128e-20)
(-0.102992 0.00181421 -4.35995e-21)
(-0.104756 0.0019624 -2.86221e-20)
(-0.10714 0.00228409 1.86351e-22)
(-0.000714668 0.00232443 1.50117e-20)
(-0.00369524 0.00578974 -1.63383e-20)
(-0.00926752 0.00829597 3.20009e-21)
(-0.0162853 0.010035 1.76591e-20)
(-0.0241716 0.0111458 -7.3259e-21)
(-0.0325383 0.0117427 -8.80438e-21)
(-0.0410504 0.0119233 -1.38486e-20)
(-0.0494403 0.0117684 1.33661e-20)
(-0.0574996 0.0113443 1.94048e-20)
(-0.0650653 0.0107054 -1.57305e-20)
(-0.0720108 0.00989793 -1.90299e-20)
(-0.0782406 0.00896382 -3.01918e-20)
(-0.0836879 0.00794578 -1.35901e-20)
(-0.0883169 0.00689254 -2.60181e-20)
(-0.0921276 0.00586412 1.34704e-20)
(-0.095164 0.00493577 -2.05063e-21)
(-0.097534 0.00419904 -1.00245e-20)
(-0.0994378 0.00375681 -1.26619e-21)
(-0.101085 0.00371456 -2.74857e-20)
(-0.102467 0.00417457 -1.67902e-20)
(-0.104427 0.00517943 1.75511e-20)
(-0.000921946 0.00375733 4.36348e-20)
(-0.00416848 0.00935947 -9.53973e-21)
(-0.00985915 0.0134102 3.43907e-20)
(-0.0168938 0.0162189 2.31623e-20)
(-0.0247214 0.0180096 2.34547e-20)
(-0.0329719 0.0189668 1.06451e-20)
(-0.0413254 0.0192474 -1.74826e-20)
(-0.0495258 0.0189815 3.0294e-20)
(-0.0573734 0.0182756 4.57303e-20)
(-0.0647112 0.0172167 2.42014e-20)
(-0.0714158 0.0158783 -3.59429e-20)
(-0.0773919 0.0143269 6.0433e-20)
(-0.0825694 0.0126298 -5.02884e-21)
(-0.0869044 0.0108644 -1.10689e-19)
(-0.0903848 0.00912697 -7.51451e-20)
(-0.0930374 0.00754021 4.10996e-20)
(-0.0949502 0.00625677 -2.28415e-20)
(-0.0963068 0.00545318 -5.30108e-20)
(-0.0973092 0.0053173 8.675e-20)
(-0.0979355 0.00603987 -3.72705e-20)
(-0.0990471 0.00771568 -4.37098e-20)
(-0.00122372 0.00512878 -1.36623e-20)
(-0.00485841 0.0127854 9.11623e-20)
(-0.0107224 0.018331 -1.21787e-20)
(-0.0177815 0.0221829 -1.22684e-19)
(-0.0255216 0.0246442 -1.28134e-20)
(-0.0335987 0.0259647 -1.13642e-19)
(-0.0417145 0.0263577 5.84893e-20)
(-0.0496296 0.0259998 1.09619e-19)
(-0.0571572 0.0250353 -1.00035e-19)
(-0.0641492 0.0235814 -1.3255e-19)
(-0.0704874 0.0217361 7.56194e-20)
(-0.0760774 0.0195868 -7.1186e-20)
(-0.080845 0.0172209 8.66092e-20)
(-0.0847364 0.0147386 1.22918e-19)
(-0.0877222 0.0122662 2.40958e-20)
(-0.0898051 0.00996846 -9.50242e-21)
(-0.0910435 0.00805707 -9.34248e-20)
(-0.0915945 0.00678703 -1.88316e-20)
(-0.0916463 0.00644443 -2.11511e-20)
(-0.0911514 0.00733805 -5.49759e-21)
(-0.0909853 0.00965393 -1.21697e-20)
(-0.00161159 0.00641723 -6.0267e-20)
(-0.0057465 0.0160162 -8.81026e-20)
(-0.0118341 0.0229883 5.23979e-20)
(-0.0189231 0.0278459 -6.95956e-20)
(-0.0265458 0.0309629 7.86775e-20)
(-0.0343909 0.0326491 4.07502e-20)
(-0.0421874 0.0331698 8.38458e-20)
(-0.0497175 0.0327445 -7.00355e-21)
(-0.0568108 0.0315525 -8.34903e-20)
(-0.0633311 0.0297383 4.63492e-20)
(-0.0691677 0.0274211 9.60239e-21)
(-0.0742286 0.0247044 1.80668e-20)
(-0.0784359 0.0216899 -2.70002e-20)
(-0.081725 0.0184929 -2.61332e-20)
(-0.0840469 0.0152604 1.59923e-20)
(-0.0853748 0.0121904 -3.10351e-20)
(-0.085729 0.0095477 -5.01281e-21)
(-0.0852289 0.00766842 5.33199e-20)
(-0.0840411 0.00695494 2.67756e-20)
(-0.0820779 0.00787345 -3.40354e-20)
(-0.0801979 0.0107618 9.92898e-20)
(-0.00207499 0.00760345 1.23893e-20)
(-0.00680938 0.0190054 2.74855e-19)
(-0.0131649 0.0273174 -1.85321e-20)
(-0.0202866 0.0331312 1.80752e-19)
(-0.0277603 0.0368823 4.66949e-20)
(-0.0353128 0.0389341 -4.71403e-20)
(-0.0427049 0.0395983 -3.38373e-20)
(-0.0497444 0.0391343 6.29521e-20)
(-0.0562806 0.0377524 -2.08463e-20)
(-0.062192 0.0356219 1.99167e-19)
(-0.0673775 0.032879 -6.56433e-20)
(-0.0717496 0.0296391 2.51302e-19)
(-0.0752284 0.026011 2.95412e-21)
(-0.0777394 0.022116 1.06974e-20)
(-0.0792135 0.0181105 -1.04775e-19)
(-0.0795928 0.0142122 -6.62483e-20)
(-0.0788528 0.0107271 1.30736e-19)
(-0.0770649 0.0080689 -1.16266e-19)
(-0.0743666 0.00677062 -1.00909e-19)
(-0.0706169 0.00749689 -1.36777e-20)
(-0.0665773 0.0108178 2.99697e-20)
(-0.00260165 0.0086712 6.31263e-20)
(-0.00801982 0.0217128 -8.85998e-20)
(-0.0146806 0.0312602 -4.91861e-20)
(-0.0218342 0.0379679 -1.84848e-19)
(-0.029125 0.042323 -6.15153e-20)
(-0.0363214 0.044735 1.95137e-19)
(-0.0432194 0.0455573 3.67299e-20)
(-0.0496553 0.0450841 8.24588e-20)
(-0.0555005 0.0435547 -7.98871e-20)
(-0.0606505 0.0411592 3.50065e-20)
(-0.0650159 0.0380483 3.02207e-20)
(-0.0685156 0.0343443 -1.01194e-19)
(-0.07107 0.030157 1.6863e-19)
(-0.072597 0.0256042 -2.68534e-20)
(-0.0730105 0.0208381 1.77052e-19)
(-0.0722223 0.0160791 7.46628e-20)
(-0.0701612 0.0116557 -5.94554e-20)
(-0.0668421 0.00804477 -6.23121e-20)
(-0.0623739 0.00591162 -3.4186e-20)
(-0.0565671 0.00614503 -6.45214e-20)
(-0.0499044 0.00963895 6.68005e-20)
(-0.0031782 0.00960777 4.28511e-20)
(-0.00934793 0.0241051 6.5273e-20)
(-0.0163432 0.0347667 6.26566e-20)
(-0.0235239 0.0422926 -1.01154e-20)
(-0.0305948 0.0472107 2.39346e-19)
(-0.0373677 0.04997 -1.39664e-19)
(-0.0436758 0.0509598 1.65072e-19)
(-0.0493857 0.0505056 -2.1942e-19)
(-0.0543922 0.0488719 1.81728e-21)
(-0.058609 0.046268 -1.16529e-19)
(-0.0619598 0.042856 -1.38895e-20)
(-0.0643715 0.0387621 -2.92219e-20)
(-0.0657667 0.0340918 -2.31187e-19)
(-0.0660591 0.0289513 5.91745e-20)
(-0.0651494 0.0234754 4.9513e-20)
(-0.0629242 0.0178683 1.34512e-19)
(-0.0592688 0.0124567 -4.42093e-20)
(-0.0541385 0.00775554 1.82109e-20)
(-0.0476287 0.0045435 4.98481e-20)
(-0.0395653 0.00395063 -1.27846e-19)
(-0.0298152 0.00735809 -4.60029e-20)
(-0.00379086 0.0104045 -1.14185e-19)
(-0.0107625 0.0261574 1.08241e-19)
(-0.0181127 0.0377966 -1.06209e-19)
(-0.0253104 0.0460502 -4.56643e-20)
(-0.0321201 0.0514779 2.97188e-21)
(-0.038397 0.054561 -1.56803e-20)
(-0.0440119 0.0557194 -1.46698e-19)
(-0.0488616 0.0553065 -3.38229e-19)
(-0.0528652 0.0536095 -9.93001e-20)
(-0.0559541 0.0508547 -1.52304e-20)
(-0.0580652 0.0472144 -2.45593e-21)
(-0.0591332 0.0428168 2.57293e-19)
(-0.0590843 0.0377607 -1.10261e-20)
(-0.0578298 0.0321349 3.04126e-21)
(-0.0552615 0.0260469 1.8497e-20)
(-0.0512469 0.0196666 5.30711e-20)
(-0.0456343 0.0132924 -2.28084e-20)
(-0.0383206 0.00744202 -1.00508e-19)
(-0.0293935 0.002973 -8.55002e-20)
(-0.018818 0.00134303 3.06081e-19)
(-0.00570352 0.00505922 2.07528e-21)
(-0.00442617 0.011057 1.16333e-19)
(-0.0122323 0.0278538 8.66754e-21)
(-0.0199481 0.0403195 -2.78733e-19)
(-0.0271461 0.0491957 -8.11786e-20)
(-0.0336475 0.0550651 1.58107e-19)
(-0.0393489 0.0584349 -1.80489e-19)
(-0.0441574 0.0597518 7.92011e-20)
(-0.0479994 0.0593931 3.08581e-19)
(-0.0508163 0.0576666 1.45655e-19)
(-0.0525562 0.0548146 1.3453e-19)
(-0.0531668 0.0510191 -6.22797e-20)
(-0.0525891 0.0464109 2.14982e-20)
(-0.0507513 0.0410817 -1.38181e-19)
(-0.0475625 0.0351016 1.84214e-19)
(-0.0429072 0.0285452 3.00805e-21)
(-0.0366383 0.0215344 -2.94584e-20)
(-0.0285734 0.0143102 4.8944e-20)
(-0.0185505 0.00734202 3.36123e-20)
(-0.00655947 0.00150784 -6.88897e-20)
(0.00760142 -0.00137482 -1.21677e-19)
(0.0246415 0.00237674 -2.06333e-19)
(-0.00507175 0.0115657 -1.81056e-19)
(-0.0137276 0.0291877 3.15274e-19)
(-0.0218087 0.0423168 1.52377e-19)
(-0.0289817 0.0516954 -3.72499e-20)
(-0.0351193 0.0579224 -4.75774e-20)
(-0.0401559 0.0615268 -1.06087e-19)
(-0.0440325 0.0629773 -5.97776e-20)
(-0.0467024 0.0626726 9.93643e-20)
(-0.0481266 0.0609393 2.14626e-19)
(-0.0482664 0.0580349 9.93725e-20)
(-0.0470765 0.0541518 1.3754e-19)
(-0.0444998 0.0494251 1.33099e-19)
(-0.0404624 0.0439424 -2.16792e-19)
(-0.0348683 0.0377581 9.66662e-20)
(-0.0275947 0.0309151 -3.08343e-19)
(-0.018483 0.0234806 -3.21357e-19)
(-0.00733172 0.0156146 -2.52879e-19)
(0.00605644 0.00767988 9.82153e-20)
(0.0217595 0.000462268 6.28083e-19)
(0.0402657 -0.00405276 -1.57999e-19)
(0.0624488 -0.00129662 1.72079e-19)
(-0.00571692 0.011935 3.1473e-19)
(-0.0152206 0.0301618 -1.37406e-19)
(-0.0236545 0.0437807 4.61521e-20)
(-0.0307661 0.0535272 2.48755e-19)
(-0.0364724 0.0600119 -2.29883e-19)
(-0.0407414 0.0637818 8.58276e-20)
(-0.0435439 0.065325 -1.38209e-19)
(-0.0448564 0.0650588 -3.35053e-19)
(-0.0446554 0.0633271 4.74294e-19)
(-0.0429099 0.0604022 -2.18305e-20)
(-0.0395759 0.056488 1.30113e-19)
(-0.0345917 0.0517268 -5.9112e-20)
(-0.0278747 0.0462072 1.28729e-19)
(-0.0193176 0.0399754 -7.28841e-21)
(-0.00878634 0.0330504 1.63496e-19)
(0.00388626 0.0254526 -4.08993e-20)
(0.0189107 0.0172565 1.67654e-19)
(0.036498 0.00868547 -3.12782e-19)
(0.0567301 0.000342373 -3.35258e-19)
(0.0802335 -0.00583707 2.973e-19)
(0.108833 -0.00448701 -1.4832e-19)
(-0.00635325 0.0121736 -3.06074e-19)
(-0.0166867 0.0307872 1.91075e-19)
(-0.025446 0.044715 -1.51809e-19)
(-0.0324445 0.054682 8.35059e-20)
(-0.0376353 0.0613089 -7.21357e-20)
(-0.0410147 0.065159 3.34489e-19)
(-0.0425786 0.0667374 -2.80537e-20)
(-0.0423215 0.0664783 9.44792e-20)
(-0.0402295 0.0647415 -8.27665e-20)
(-0.0362733 0.0618134 2.15261e-19)
(-0.0304023 0.0579109 -4.304e-19)
(-0.0225423 0.0531867 -5.21132e-20)
(-0.0125929 0.0477364 -4.60268e-20)
(-0.000427619 0.0416075 1.98932e-19)
(0.0141048 0.03481 -2.59213e-19)
(0.031181 0.0273355 3.31499e-20)
(0.0510093 0.0191918 2.25068e-19)
(0.0737986 0.0104698 1.05653e-19)
(0.0995819 0.00152519 3.97489e-21)
(0.128835 -0.00603391 1.68216e-21)
(0.165414 -0.00606223 -1.84446e-19)
(-0.00697473 0.0122933 2.74458e-19)
(-0.0181039 0.0310825 -2.19072e-19)
(-0.0271435 0.0451337 1.38856e-19)
(-0.0339565 0.0551633 -3.95382e-20)
(-0.0385242 0.0618038 -2.73079e-19)
(-0.0408654 0.0656346 -3.12688e-19)
(-0.0409952 0.0671765 3.51544e-19)
(-0.0389201 0.0668793 -5.76357e-20)
(-0.0346291 0.0651173 4.00427e-19)
(-0.0280864 0.0621912 -2.48636e-20)
(-0.0192269 0.0583313 1.17729e-20)
(-0.00795401 0.0537039 1.68063e-19)
(0.00585881 0.0484177 1.80994e-19)
(0.0223652 0.0425313 2.57113e-19)
(0.0417391 0.0360618 1.09837e-19)
(0.064167 0.0289961 -6.65547e-22)
(0.0898435 0.0213114 -4.13275e-20)
(0.118955 0.0130114 7.77561e-20)
(0.151474 0.00421646 2.1258e-19)
(0.18725 -0.00409145 -1.68177e-19)
(0.233708 -0.00497726 2.13639e-19)
(-0.00757763 0.0123078 -5.44097e-20)
(-0.0194521 0.0310712 -3.45661e-19)
(-0.0287043 0.045059 -1.6136e-19)
(-0.0352321 0.054987 1.59731e-19)
(-0.0390372 0.0615032 -3.84128e-20)
(-0.0401549 0.0652049 -1.57842e-20)
(-0.0386133 0.0666288 -2.56416e-19)
(-0.0344232 0.0662395 6.79213e-20)
(-0.027569 0.0644251 -3.34468e-19)
(-0.0179998 0.0615002 -2.89278e-19)
(-0.00562635 0.0577098 -1.81212e-19)
(0.00967803 0.0532362 -1.88261e-19)
(0.0280735 0.048206 2.25011e-20)
(0.049745 0.0426979 1.54673e-19)
(0.0748892 0.0367496 3.07957e-19)
(0.103696 0.0303665 -4.73694e-20)
(0.136326 0.0235324 -2.29784e-19)
(0.172905 0.0162262 -1.92496e-19)
(0.213401 0.0084559 -1.84242e-20)
(0.256327 0.000252835 -1.17946e-19)
(0.314645 -0.000374893 5.36119e-20)
(-0.00815993 0.0122318 2.56875e-19)
(-0.0207113 0.0307797 2.84411e-19)
(-0.0300801 0.0445199 1.88281e-19)
(-0.0361872 0.0541798 1.58428e-19)
(-0.0390481 0.0604304 6.31924e-20)
(-0.038708 0.0638895 2.70824e-19)
(-0.0352014 0.0651112 3.79346e-19)
(-0.0285355 0.064575 -4.34428e-19)
(-0.0186804 0.0626831 3.87446e-19)
(-0.00556124 0.0597641 -1.7469e-20)
(0.0109433 0.0560791 -1.66287e-19)
(0.0309967 0.0518289 2.70039e-20)
(0.0547946 0.0471623 2.191e-19)
(0.0825494 0.042184 1.54947e-19)
(0.114468 0.0369623 -1.92891e-19)
(0.15072 0.031536 1.88807e-19)
(0.191397 0.0259202 -2.95606e-20)
(0.23649 0.0201155 -2.01097e-21)
(0.286065 0.0142363 5.0332e-20)
(0.336467 0.00697506 9.93227e-20)
(0.408153 0.00822727 -1.63365e-19)
(-0.00872023 0.012079 -5.73431e-19)
(-0.0218591 0.0302344 1.96752e-19)
(-0.0312131 0.0435487 -1.73694e-19)
(-0.0367182 0.0527787 -3.23349e-19)
(-0.0383987 0.0586253 -2.51447e-19)
(-0.0363042 0.0617323 -1.32504e-19)
(-0.0304667 0.0626742 -3.97166e-19)
(-0.0208815 0.0619467 4.43707e-20)
(-0.00749505 0.0599669 2.24614e-19)
(0.00980039 0.057079 1.72195e-20)
(0.031164 0.0535619 2.06999e-19)
(0.0567966 0.0496377 1.93162e-19)
(0.0869224 0.0454807 2.34141e-19)
(0.121763 0.0412259 3.69454e-19)
(0.161502 0.0369759 2.29585e-20)
(0.206241 0.0328087 -2.02769e-19)
(0.255938 0.0287781 -1.03284e-19)
(0.310333 0.0249032 -4.84578e-19)
(0.369652 0.0216615 -3.65229e-20)
(0.427505 0.0159504 -1.08877e-19)
(0.512743 0.0208626 1.69162e-19)
(-0.00925627 0.0118604 1.61335e-19)
(-0.0228666 0.029458 2.33429e-19)
(-0.0320315 0.0421803 -1.44332e-19)
(-0.0366967 0.0508276 1.14238e-19)
(-0.0368936 0.0561425 4.69334e-19)
(-0.0326696 0.0588023 1.3828e-19)
(-0.0240467 0.059405 1.85283e-19)
(-0.0109983 0.058465 1.80587e-19)
(0.00656132 0.0564165 -3.9255e-19)
(0.0287784 0.0536219 3.28247e-20)
(0.0558501 0.0503804 4.13342e-20)
(0.0880052 0.0469383 3.67823e-19)
(0.125473 0.0434976 -3.43567e-19)
(0.168445 0.0402238 5.43926e-20)
(0.217018 0.0372525 -2.70172e-19)
(0.271141 0.0346955 1.61235e-19)
(0.330536 0.0326362 1.45306e-19)
(0.394567 0.0310695 -2.34187e-20)
(0.463438 0.0309875 -2.10286e-19)
(0.528444 0.0271953 -1.59721e-19)
(0.625058 0.0372041 5.54359e-20)
(-0.00976389 0.0115838 -9.06239e-20)
(-0.023696 0.0284704 2.9779e-20)
(-0.0324432 0.0404469 -6.22341e-20)
(-0.0359647 0.0483741 -2.22258e-19)
(-0.0342944 0.0530507 -4.47901e-20)
(-0.0274738 0.0551932 1.6528e-19)
(-0.0155065 0.0554276 2.48008e-19)
(0.00166401 0.0542908 -4.67711e-20)
(0.0241614 0.0522378 3.11461e-20)
(0.0521695 0.0496522 3.28824e-19)
(0.0859122 0.0468567 -3.179e-19)
(0.125619 0.0441228 -1.01715e-19)
(0.171477 0.0416787 7.49702e-20)
(0.223574 0.0397154 -3.96229e-20)
(0.281824 0.0383904 2.45639e-19)
(0.345899 0.0378319 -7.20604e-20)
(0.415143 0.038127 3.12788e-20)
(0.488466 0.0392274 2.29887e-19)
(0.565446 0.0424539 2.58396e-19)
(0.637091 0.0410161 5.95663e-20)
(0.739455 0.0567982 1.01985e-19)
(-0.0102338 0.0112525 -3.45918e-20)
(-0.0242975 0.0272831 -2.39332e-19)
(-0.0323347 0.0383754 -8.47206e-20)
(-0.0343296 0.0454703 -3.59517e-20)
(-0.0303179 0.0494312 9.17867e-20)
(-0.0203298 0.0510214 -1.32112e-19)
(-0.0043444 0.050901 -1.78886e-19)
(0.0177294 0.0496338 -4.06592e-19)
(0.0460512 0.0476998 1.19556e-19)
(0.0808295 0.045507 -4.58531e-19)
(0.122284 0.0434021 3.69506e-19)
(0.17059 0.0416794 -5.47344e-20)
(0.225812 0.0405852 -4.19035e-21)
(0.287822 0.04032 -1.4072e-19)
(0.356217 0.0410375 -4.96438e-19)
(0.430244 0.0428483 2.66355e-19)
(0.508719 0.045794 1.35012e-20)
(0.590096 0.0498429 -1.04521e-20)
(0.672527 0.0559758 2.04717e-19)
(0.749992 0.0579314 9.77935e-20)
(0.848218 0.0788392 2.55997e-19)
(-0.0106505 0.010864 -2.12605e-20)
(-0.0246034 0.0258992 -6.57235e-20)
(-0.0315669 0.0359906 -2.99326e-19)
(-0.031565 0.0421699 -6.01728e-19)
(-0.0246375 0.0453753 1.84082e-19)
(-0.0108003 0.0464245 2.41859e-19)
(0.00999451 0.0460169 4.33135e-20)
(0.0378695 0.0447486 3.18141e-19)
(0.0730054 0.0431278 -2.53186e-19)
(0.115601 0.0415877 -3.93495e-19)
(0.165813 0.040496 -4.60689e-19)
(0.223673 0.0401594 7.79688e-20)
(0.288998 0.0408224 2.2643e-19)
(0.361297 0.0426634 -1.59733e-19)
(0.439683 0.0457884 2.16204e-19)
(0.522835 0.050236 -2.07226e-19)
(0.608937 0.0559301 1.30491e-19)
(0.696023 0.0629218 1.56319e-20)
(0.7807 0.0710626 1.011e-19)
(0.86251 0.0781726 -4.1884e-19)
(0.943799 0.0998882 -3.75052e-19)
(-0.0109901 0.0104118 -1.07719e-19)
(-0.024527 0.0243162 -3.15897e-19)
(-0.029973 0.0333122 4.71055e-20)
(-0.0274108 0.0385284 5.39441e-20)
(-0.016889 0.0409842 1.22079e-19)
(0.00158971 0.0415587 5.10356e-19)
(0.0280949 0.0409959 -2.19387e-19)
(0.0627645 0.0399276 1.12534e-19)
(0.105765 0.0388912 2.1463e-19)
(0.157222 0.0383418 -7.72479e-20)
(0.217133 0.0386562 2.18396e-19)
(0.285253 0.0401312 -4.70689e-19)
(0.360992 0.0429745 2.75865e-19)
(0.443316 0.0472936 1.86072e-20)
(0.530698 0.0530856 -1.952e-19)
(0.621131 0.0602474 -8.46273e-20)
(0.712173 0.0685219 9.62631e-20)
(0.801403 0.0779253 -3.82007e-19)
(0.885088 0.0872712 3.21301e-19)
(0.967135 0.0998525 -4.44843e-19)
(1.02141 0.111019 -2.16941e-20)
(-0.0112211 0.00988601 4.4163e-19)
(-0.023962 0.022526 3.40496e-20)
(-0.0273594 0.0303582 -1.40892e-20)
(-0.0215764 0.0346044 -3.25262e-19)
(-0.0066792 0.0363693 -1.47784e-19)
(0.017335 0.0365983 -2.39825e-19)
(0.05054 0.0360836 2.14446e-20)
(0.0930528 0.0354934 2.88587e-19)
(0.144961 0.0353904 -7.45277e-20)
(0.206219 0.0362386 1.08939e-20)
(0.276523 0.0384007 -2.49772e-19)
(0.355185 0.0421257 -4.17498e-19)
(0.44102 0.0475322 9.12958e-20)
(0.532287 0.0545933 -3.10158e-19)
(0.626704 0.0631299 2.77612e-19)
(0.721571 0.0728348 2.65039e-19)
(0.813952 0.0832473 2.33422e-19)
(0.901066 0.0941113 -1.10011e-20)
(0.980231 0.104265 -2.1982e-20)
(1.05124 0.115948 4.42514e-19)
(1.10572 0.121068 -4.94284e-20)
(-0.0113026 0.00927442 -1.44859e-19)
(-0.0227826 0.0205195 -4.66872e-19)
(-0.0235081 0.0271483 -1.43822e-19)
(-0.0137481 0.0304634 -8.79777e-20)
(0.00640032 0.0316547 3.38917e-19)
(0.0369267 0.0317365 -1.06533e-19)
(0.0778738 0.0315487 4.69769e-19)
(0.129274 0.0317913 -4.83445e-20)
(0.191035 0.0330394 -1.20819e-19)
(0.2628 0.0357415 5.75128e-20)
(0.34379 0.0402057 3.88959e-19)
(0.432677 0.0465779 -3.30687e-20)
(0.527509 0.0548206 6.64071e-19)
(0.625729 0.0647043 4.10172e-19)
(0.724307 0.0758177 2.44552e-19)
(0.819999 0.0876193 1.44415e-19)
(0.909652 0.0994506 2.47281e-19)
(0.990626 0.110838 1.13843e-19)
(1.06088 0.120733 -2.22962e-19)
(1.1201 0.130231 3.97061e-19)
(1.16573 0.134156 3.77102e-19)
(-0.0111851 0.00856507 -3.06936e-19)
(-0.0208447 0.0182906 3.45713e-19)
(-0.0181815 0.0237092 2.31155e-19)
(-0.0035974 0.0261826 -1.90717e-19)
(0.0227576 0.0269814 1.83535e-19)
(0.0608262 0.0271865 -7.31602e-20)
(0.110559 0.0276799 -2.51377e-19)
(0.171808 0.02918 4.00416e-19)
(0.244161 0.0322485 -1.25397e-19)
(0.326768 0.0372769 1.08812e-19)
(0.418178 0.0444601 3.0157e-19)
(0.516243 0.05377 2.14895e-19)
(0.618129 0.0649413 -2.93904e-19)
(0.720476 0.0774844 -2.19409e-19)
(0.819678 0.0907328 4.63643e-20)
(0.912273 0.103935 1.11803e-19)
(0.995325 0.116306 -2.45326e-19)
(1.0668 0.127311 1.15137e-19)
(1.12563 0.136052 9.14809e-20)
(1.17217 0.143467 -2.68481e-19)
(1.20615 0.145574 3.7469e-19)
(-0.0108114 0.00774855 1.89489e-19)
(-0.0179893 0.015841 2.1471e-19)
(-0.0111277 0.0200807 1.26308e-19)
(0.00920776 0.0218577 1.57781e-19)
(0.0427816 0.0225124 -2.21666e-19)
(0.0894348 0.0231848 -2.29599e-19)
(0.148936 0.0247845 4.18391e-20)
(0.220818 0.0280218 -1.44195e-19)
(0.304174 0.0334028 -4.602e-20)
(0.397456 0.0412008 3.1743e-19)
(0.498348 0.0514224 -3.71662e-19)
(0.603758 0.0637878 1.49612e-19)
(0.709983 0.0777422 -2.00103e-19)
(0.813035 0.0925131 -3.40864e-19)
(0.909081 0.107209 4.12316e-19)
(0.994906 0.12095 1.88127e-19)
(1.06827 0.132958 -6.70209e-20)
(1.12816 0.142785 -1.19368e-20)
(1.17464 0.149825 7.64719e-20)
(1.20894 0.155007 -1.81049e-19)
(1.23274 0.155462 -7.64826e-20)
(-0.0101177 0.0068202 -1.71415e-20)
(-0.0140462 0.0131856 -1.00269e-19)
(-0.0020887 0.0163226 4.16334e-19)
(0.0249904 0.017609 1.45992e-19)
(0.0668217 0.0184382 -5.39468e-21)
(0.123064 0.0199931 -5.00568e-20)
(0.193176 0.0231836 1.45784e-19)
(0.276201 0.0286693 1.04757e-19)
(0.370528 0.0368379 -3.50364e-19)
(0.473708 0.047765 -1.37558e-19)
(0.582421 0.0611847 -3.43999e-19)
(0.692624 0.0764965 -5.06313e-19)
(0.799916 0.0928284 5.10832e-19)
(0.900039 0.109155 -4.83645e-19)
(0.989413 0.124448 -2.65887e-19)
(1.06556 0.137836 1.58678e-19)
(1.12735 0.148686 -2.03841e-20)
(1.17495 0.15677 -1.97165e-19)
(1.20957 0.161817 7.7605e-20)
(1.2333 0.164899 7.1478e-21)
(1.2482 0.163759 1.0613e-19)
(-0.009036 0.00578209 -2.61209e-19)
(-0.00883897 0.0103571 -6.14816e-20)
(0.00919123 0.01252 -1.61189e-19)
(0.0440498 0.0135878 6.30775e-20)
(0.0951651 0.0149806 2.80119e-19)
(0.161901 0.0178969 1.034e-19)
(0.243246 0.0232041 1.07254e-19)
(0.337546 0.0314471 -4.97926e-19)
(0.442271 0.0428126 1.0438e-19)
(0.553913 0.0570867 8.0393e-20)
(0.66811 0.073652 -2.04673e-19)
(0.780021 0.0915503 7.76859e-20)
(0.884897 0.109617 3.0394e-19)
(0.978697 0.126666 1.04048e-19)
(1.0586 0.14167 4.15246e-19)
(1.12328 0.153912 2.64994e-19)
(1.17286 0.163027 -6.08038e-20)
(1.20871 0.169067 3.5147e-19)
(1.23293 0.172106 -6.41212e-20)
(1.24806 0.173282 -1.12036e-20)
(1.25644 0.170808 -5.53521e-20)
(-0.00749491 0.00464459 3.74047e-20)
(-0.00219062 0.00740975 1.87323e-19)
(0.0229551 0.00878871 -7.11454e-20)
(0.066645 0.00997973 -1.33938e-19)
(0.128013 0.0123936 2.16723e-20)
(0.205982 0.0172014 1.44168e-19)
(0.298872 0.0251648 -5.41187e-20)
(0.404114 0.0366292 1.35324e-20)
(0.518072 0.0514813 -1.12498e-19)
(0.636104 0.0691268 1.3184e-20)
(0.752925 0.0885454 1.11838e-19)
(0.863224 0.108436 -2.71475e-19)
(0.962386 0.12743 -7.56161e-20)
(1.04711 0.14432 1.22566e-19)
(1.11575 0.158238 -5.22174e-19)
(1.16833 0.168742 -4.04671e-20)
(1.20621 0.175801 1.70141e-19)
(1.23168 0.179745 -1.76373e-20)
(1.24738 0.180935 1.80897e-19)
(1.25601 0.180492 4.6254e-20)
(1.2597 0.176991 -3.25726e-20)
(-0.00542217 0.00342753 -5.49312e-20)
(0.00607031 0.00442191 3.7001e-20)
(0.0394216 0.00527746 2.0111e-19)
(0.092977 0.00700607 1.68923e-19)
(0.165455 0.0109593 -1.41141e-19)
(0.255159 0.0182196 -1.22463e-19)
(0.359521 0.0293573 2.09056e-19)
(0.474847 0.0444138 -9.05734e-20)
(0.596283 0.0628718 -6.55341e-20)
(0.718116 0.0836872 2.89333e-20)
(0.834425 0.105434 7.15611e-20)
(0.939901 0.126547 -3.24308e-19)
(1.0306 0.145596 -1.22157e-19)
(1.10441 0.161517 -6.21774e-20)
(1.16107 0.173731 -2.56603e-19)
(1.20193 0.182147 2.55753e-19)
(1.22936 0.187065 4.65963e-20)
(1.24623 0.189042 1.97998e-19)
(1.25537 0.18864 -5.07907e-20)
(1.25929 0.186869 6.30197e-20)
(1.25991 0.182635 -1.58761e-19)
(-0.00274649 0.00216089 2.88785e-19)
(0.0161025 0.00149736 6.75533e-21)
(0.0587724 0.00216818 -1.55062e-19)
(0.123169 0.0049202 1.07764e-19)
(0.207446 0.0109793 -2.70056e-19)
(0.30908 0.0212562 4.84498e-20)
(0.424394 0.0360226 -5.84305e-20)
(0.54841 0.0548998 4.66269e-19)
(0.675054 0.0768756 3.16799e-19)
(0.797776 0.100429 2.63161e-19)
(0.91046 0.123791 4.09839e-20)
(1.00834 0.14527 2.32446e-19)
(1.08863 0.163546 1.33804e-19)
(1.15065 0.177843 -8.26105e-20)
(1.19556 0.187957 -5.02846e-20)
(1.22581 0.194158 -1.4724e-19)
(1.24443 0.197024 9.74862e-20)
(1.25453 0.197266 2.15979e-19)
(1.25884 0.195551 4.73064e-20)
(1.25954 0.19272 9.90735e-20)
(1.25818 0.187995 1.231e-19)
(0.000600138 0.000885123 -3.10388e-19)
(0.0280444 -0.00123493 2.3975e-19)
(0.0811389 -0.000326616 -1.01053e-19)
(0.15725 0.00400066 -4.3121e-20)
(0.253787 0.0127611 -5.00711e-20)
(0.367181 0.0265875 -6.8914e-20)
(0.492449 0.0453282 -1.49222e-19)
(0.623263 0.068072 -7.79417e-20)
(0.752483 0.0932553 -9.45583e-20)
(0.873109 0.118916 -6.50128e-21)
(0.979373 0.143067 -4.81805e-20)
(1.06757 0.164066 2.94154e-19)
(1.13637 0.180866 5.45494e-20)
(1.18661 0.193084 9.01851e-20)
(1.22069 0.200915 2.63653e-19)
(1.24182 0.204946 -2.02969e-19)
(1.25338 0.205955 -1.83117e-20)
(1.25838 0.204726 -2.24276e-19)
(1.25927 0.201952 -2.1485e-19)
(1.25782 0.198279 -1.29318e-19)
(1.25527 0.193237 -1.64539e-19)
(0.0046798 -0.00034889 1.19262e-19)
(0.0420056 -0.00362246 -3.52615e-20)
(0.106588 -0.00196899 1.95178e-20)
(0.195135 0.00454041 -3.69068e-20)
(0.304113 0.0166006 9.93048e-20)
(0.428692 0.0344388 5.3465e-20)
(0.562452 0.0573497 -3.17048e-19)
(0.697775 0.0837994 1.62512e-19)
(0.826769 0.111672 -5.73509e-20)
(0.942502 0.138666 5.50216e-19)
(1.04009 0.162751 -2.38547e-19)
(1.11728 0.182516 3.03443e-20)
(1.17435 0.197312 1.98432e-19)
(1.21351 0.207195 -1.35646e-19)
(1.23809 0.21273 -1.9734e-19)
(1.25173 0.214747 1.24802e-19)
(1.25782 0.214137 4.08558e-21)
(1.25912 0.211689 -8.02004e-20)
(1.25768 0.208063 -3.21625e-19)
(1.25485 0.203715 3.52122e-21)
(1.25158 0.198467 -1.34814e-19)
(0.00954561 -0.00148026 3.05889e-20)
(0.0580587 -0.00549224 -3.13227e-20)
(0.135111 -0.00250321 2.46649e-19)
(0.236614 0.00683329 -1.07488e-20)
(0.357888 0.0227632 -1.75725e-19)
(0.49266 0.0449664 8.70969e-20)
(0.633041 0.072062 -3.30729e-20)
(0.770338 0.101848 -8.11861e-20)
(0.896362 0.131722 1.34051e-19)
(1.00481 0.159207 -2.14951e-19)
(1.09214 0.182424 -1.77384e-19)
(1.15778 0.200344 1.53621e-20)
(1.20354 0.212794 -1.40517e-19)
(1.23275 0.220255 1.36087e-19)
(1.24933 0.223598 1.84745e-20)
(1.25703 0.223811 3.28148e-20)
(1.25903 0.221818 -4.52802e-20)
(1.25772 0.218365 8.32978e-20)
(1.25472 0.214041 1.90438e-19)
(1.25104 0.209132 -1.03114e-19)
(1.24733 0.203739 1.10301e-19)
(0.0152385 -0.00243901 -2.78681e-20)
(0.0762308 -0.00665525 1.03566e-19)
(0.16661 -0.0016653 1.65194e-19)
(0.281347 0.0111589 -5.59536e-20)
(0.414421 0.031466 -1.1906e-19)
(0.558 0.0582431 1.01458e-19)
(0.702823 0.0893416 -3.77279e-20)
(0.839487 0.121908 -2.25914e-20)
(0.960052 0.152987 2.89164e-19)
(1.05936 0.180126 4.1567e-20)
(1.13556 0.201778 -7.58386e-20)
(1.18976 0.217409 -3.02403e-20)
(1.2251 0.227334 2.29789e-19)
(1.24571 0.232413 -4.65369e-20)
(1.25577 0.233735 1.36801e-19)
(1.25892 0.232365 -1.57228e-19)
(1.25795 0.229198 1.62891e-19)
(1.25483 0.224905 -8.82143e-20)
(1.25083 0.219986 4.185e-20)
(1.24662 0.214594 4.45338e-20)
(1.24265 0.209075 -5.27249e-20)
(0.0217839 -0.00314738 8.7905e-20)
(0.0964963 -0.00691212 3.59308e-20)
(0.200897 0.000805988 -3.21509e-20)
(0.328867 0.0177672 1.31727e-19)
(0.472885 0.0428627 1.65976e-19)
(0.623547 0.0742534 -2.28277e-19)
(0.770459 0.10898 -8.23708e-20)
(0.903992 0.143624 1.79447e-19)
(1.01702 0.175067 -1.97889e-19)
(1.10597 0.201086 -6.2245e-20)
(1.17078 0.220617 -7.91944e-20)
(1.21414 0.233674 -5.04362e-20)
(1.24023 0.241031 -4.55139e-21)
(1.25366 0.243849 2.38697e-20)
(1.25856 0.243347 -3.72931e-20)
(1.25828 0.240597 7.60136e-20)
(1.2552 0.236424 3.87695e-20)
(1.25088 0.23141 4.33256e-20)
(1.24624 0.225958 1.65506e-19)
(1.24172 0.220128 -3.05484e-21)
(1.23757 0.214476 -8.54212e-20)
(0.0291887 -0.00352174 -1.78463e-19)
(0.118771 -0.00605995 8.72583e-20)
(0.237684 0.00515738 -1.47807e-19)
(0.378587 0.0268643 5.22128e-20)
(0.532361 0.0570331 8.92502e-20)
(0.688128 0.0928963 6.91282e-20)
(0.834745 0.130706 -1.55393e-20)
(0.962914 0.166632 -1.079e-19)
(1.06684 0.197612 1.6123e-19)
(1.14477 0.221843 1.55625e-20)
(1.19847 0.238845 -1.18445e-19)
(1.23193 0.249179 5.82111e-21)
(1.25008 0.25402 1.08474e-19)
(1.25764 0.254739 -5.18722e-20)
(1.25857 0.252608 6.49988e-20)
(1.25578 0.248649 -8.13613e-20)
(1.25123 0.243596 2.75129e-20)
(1.24612 0.237938 4.19537e-22)
(1.24109 0.231984 1.23571e-19)
(1.23638 0.22574 -5.59413e-20)
(1.2321 0.21993 2.39361e-20)
(0.0374384 -0.00347498 4.19359e-20)
(0.142911 -0.00390002 3.38112e-21)
(0.276593 0.0116093 8.32639e-20)
(0.429824 0.0386003 -5.17486e-20)
(0.591873 0.0739788 -5.30454e-20)
(0.750625 0.113996 -1.76796e-20)
(0.894675 0.154208 -7.54761e-21)
(1.01562 0.190582 2.10657e-19)
(1.10939 0.220334 -2.48509e-20)
(1.17619 0.242236 -1.16157e-19)
(1.21943 0.256436 6.49452e-22)
(1.24413 0.26401 2.08695e-20)
(1.25561 0.266447 -7.23828e-20)
(1.25851 0.265241 -3.8097e-21)
(1.25643 0.261654 -8.04665e-20)
(1.25184 0.256621 -1.17951e-19)
(1.2463 0.250774 -7.07866e-20)
(1.24069 0.244514 -1.39015e-19)
(1.23543 0.238069 -3.59475e-20)
(1.23063 0.231422 2.70879e-20)
(1.22625 0.225414 1.2426e-20)
(0.046495 -0.00291942 -4.75092e-20)
(0.168706 -0.000246073 -6.39929e-20)
(0.31716 0.0203446 -1.75432e-19)
(0.481822 0.0530608 2.92889e-20)
(0.650441 0.0936247 1.09466e-19)
(0.810029 0.137317 5.1603e-20)
(0.949467 0.179161 -1.30753e-19)
(1.06176 0.215158 6.08374e-20)
(1.14483 0.243012 -1.4777e-20)
(1.20082 0.262171 -8.88677e-21)
(1.23451 0.273417 -4.55465e-20)
(1.25165 0.27827 6.03747e-20)
(1.25766 0.278445 -1.66037e-20)
(1.25694 0.275483 1.34717e-20)
(1.25263 0.270581 1.06313e-20)
(1.24678 0.264572 -1.5698e-21)
(1.24058 0.257985 -2.37819e-21)
(1.23467 0.251143 -6.4408e-20)
(1.22929 0.2442 -5.78408e-20)
(1.22445 0.237152 4.90735e-20)
(1.21999 0.230902 -3.9677e-20)
(0.0562963 -0.00177006 1.33265e-19)
(0.195891 0.00506729 6.00081e-20)
(0.358851 0.0314991 6.32559e-20)
(0.533783 0.070262 -2.18865e-20)
(0.707125 0.115825 9.71198e-20)
(0.865477 0.162583 -9.3715e-20)
(0.998573 0.205242 4.93319e-20)
(1.10124 0.240087 3.67697e-20)
(1.17351 0.26548 4.2876e-21)
(1.2193 0.281604 -3.0152e-20)
(1.2445 0.289838 -2.143e-20)
(1.25525 0.292061 2.77147e-20)
(1.25688 0.290126 -5.27547e-21)
(1.25339 0.285555 2.14055e-20)
(1.24747 0.279451 -3.02928e-20)
(1.24076 0.272532 -5.56642e-20)
(1.23415 0.265233 -1.75389e-20)
(1.22808 0.257809 3.76939e-20)
(1.22267 0.250357 -4.18608e-20)
(1.21784 0.242901 2.5378e-20)
(1.21332 0.23636 6.1366e-21)
(0.0667555 5.19499e-05 -3.85451e-20)
(0.224142 0.0121767 -5.40188e-20)
(0.401076 0.0451538 -5.3469e-20)
(0.584902 0.0901502 -3.63266e-20)
(0.761063 0.140375 -1.61406e-20)
(0.916278 0.189489 4.10773e-20)
(1.04166 0.232143 -1.24865e-20)
(1.13415 0.265139 2.17359e-20)
(1.19588 0.287623 -5.95683e-20)
(1.23231 0.300528 3.90462e-20)
(1.25012 0.305761 1.16187e-20)
(1.25559 0.305473 2.06214e-20)
(1.25378 0.301573 -1.74042e-20)
(1.24822 0.295518 2.07696e-20)
(1.24116 0.288293 1.1282e-20)
(1.23389 0.280503 5.62369e-21)
(1.22705 0.272502 -5.20406e-21)
(1.22093 0.264486 -3.456e-20)
(1.21554 0.256506 3.35135e-20)
(1.21076 0.248633 -1.01441e-20)
(1.20622 0.241753 -1.06654e-20)
(0.0777625 0.00261586 -8.77899e-22)
(0.253092 0.0211828 -1.82525e-20)