/*--------------------------------*- C++ -*----------------------------------*\
  =========                 |
  \\      /  F ield         | OpenFOAM: The Open Source CFD Toolbox
   \\    /   O peration     | Website:  https://openfoam.org
    \\  /    A nd           | Version:  7
     \\/     M anipulation  |
\*---------------------------------------------------------------------------*/
FoamFile
{
    version     2.0;
    format      ascii;
    class       surfaceScalarField;
    location    "55";
    object      phi;
}
// * * * * * * * * * * * * * * * * * * * * * * * * * * * * * * * * * * * * * //

dimensions      [0 3 -1 0 0 0 0];

internalField   nonuniform List<scalar> 
239
(
-0.00520224
-0.000654129
-0.000647356
-0.00484112
-0.000727474
-0.000809815
-0.000538607
-0.00439683
-0.000617752
-0.00450821
-0.000699932
-0.00057003
-0.00421382
-0.000652488
-0.000506691
-0.00395343
-0.000589288
-0.00403768
-0.000428023
-0.00372284
-0.000511119
-0.00379233
-0.000596812
-0.000418012
-0.00357495
-0.000504186
-0.00363667
-0.000397131
-0.00343023
-0.000486209
-0.00348587
-0.00027809
-0.00322009
-0.000365908
-0.00328509
-0.000457552
-0.000236918
-0.00304233
-0.000325162
-0.00313185
-0.000189702
-0.0028139
-0.000276213
-0.00295582
-0.00303764
-0.000139413
-0.00249751
-0.000221111
-0.0027322
-0.000313949
-0.00286298
-8.99119e-05
-0.00204707
-0.000162842
-0.00242458
-0.00025126
-0.00264378
-0.000105462
-0.00198756
-0.00018534
-0.0023447
-5.425e-05
-0.00137502
-0.000120416
-0.0019214
-1.60383e-05
-0.000552371
-6.22461e-05
-0.00132881
-0.00184891
-1.85787e-05
-0.000533792
-6.99148e-05
-0.00127748
-2.10206e-05
-0.000512772
-0.00122126
-2.33542e-05
-0.000489418
-0.000463847
0.000472978
0.000498478
-2.32718e-05
0.000521749
0.00124388
-2.0925e-05
0.000542674
0.0013
-1.84683e-05
0.000561143
-6.96951e-05
0.00135123
0.00188083
-1.59114e-05
-6.19848e-05
0.0013973
0.00195329
-5.39415e-05
-0.000120051
0.0020194
0.00238243
-0.000105016
0.00207882
-0.000184948
0.00246236
0.00268465
-8.93715e-05
-0.000162334
0.00253533
-0.000250909
0.00277322
0.00290532
-0.000138771
-0.000220613
0.00285506
-0.000313684
0.00299839
0.00308059
-0.000189031
-0.000275772
0.00308513
-0.000370272
0.00317509
0.00323479
-0.00023627
-0.000324806
0.00326362
-0.000418683
0.00332867
0.00338209
-0.000277492
-0.00036565
-0.000457675
0.00347412
0.00352972
-0.00039698
-0.000486494
0.00361923
0.00368098
-0.000417979
-0.000504659
0.00376766
0.00383724
-0.000428125
-0.000511809
-0.000598172
0.00399909
0.00408348
-0.000507631
-0.000591004
0.0042606
-0.000572139
-0.000655583
0.00455634
-0.000621364
-0.000704709
0.00489087
-0.0006527
-0.000734095
0.00525405
-0.000817753
-0.000661358
-0.0007595
-0.0204314
-0.000809531
-0.0203617
-0.000835909
-0.020366
-0.000839892
-0.0203438
-0.000830963
-0.0202707
-0.000805834
-0.020273
-0.000770122
-0.0202037
-0.000734138
-0.0201008
-0.000693689
-0.020063
-0.000642563
-0.0200515
-0.0199974
-0.000911349
-0.00095518
-0.000975004
-0.000972115
-0.00095647
-0.000923856
-0.000879578
-0.000835818
-0.000788472
-0.000729516
-0.000663043
-0.000597914
-0.000536138
-0.000473188
-0.00040763
-0.000336141
-0.00026787
-0.000203626
-0.000137495
-6.50854e-05
0.019656
-0.000923259
0.020632
-0.000969684
0.0205741
-0.000990763
0.0205716
-0.000988647
0.0205146
-0.000965136
0.0204711
-0.000928614
0.0203769
-0.000889434
0.0202463
-0.000844329
0.0201713
-0.000790047
-0.000736652
-0.000678831
-0.000621596
-0.00056161
-0.000494604
-0.000422504
-0.000352413
-0.000286476
-0.000217983
-0.000142638
-6.8195e-05
-0.000770788
-0.000823606
-0.000851338
-0.000855977
-0.00084023
-0.000812386
-0.000781204
)
;

boundaryField
{
    inlet
    {
        type            calculated;
        value           nonuniform 0();
    }
    outlet
    {
        type            calculated;
        value           nonuniform 0();
    }
    cylinder
    {
        type            calculated;
        value           uniform 0;
    }
    top
    {
        type            symmetryPlane;
        value           uniform 0;
    }
    bottom
    {
        type            symmetryPlane;
        value           uniform 0;
    }
    defaultFaces
    {
        type            empty;
        value           nonuniform 0();
    }
    procBoundary11to10
    {
        type            processor;
        value           nonuniform List<scalar> 
123
(
-0.00497843
-0.0051199
-0.00462799
-0.000784965
-0.00475608
-0.00431437
-0.000738178
-0.00442252
-0.000674766
-0.00412835
-0.00386774
-0.000685229
-0.00394926
-0.000592915
-0.0037036
-0.000577894
-0.00354498
-0.00333858
-0.000552061
-0.00339136
-0.000418705
-0.00319154
-0.000370424
-0.000413848
-0.00293774
-0.000350097
-0.00276415
-0.000280115
-0.002549
-0.00020687
-0.00225824
-0.000134737
-0.000148394
-0.00177043
-7.72327e-05
-8.4179e-05
-0.00116044
-2.55704e-05
-2.76609e-05
-0.000436186
-0.000445377
-2.76006e-05
-2.54997e-05
-0.00118312
-8.40275e-05
-7.70495e-05
-0.00180236
-0.000148162
-0.000134443
-0.00229591
-0.000206576
-0.00258971
-0.000279886
-0.00280625
-0.000349979
-0.0029804
-0.000413868
-0.00313543
-0.000469635
-0.00328466
-0.000516115
-0.00343478
-0.00055261
-0.0035888
-0.000578673
-0.00374794
-0.000593963
-0.00391273
-0.0039943
-0.000687348
-0.00417425
-0.000677354
-0.0043613
-0.00446957
-0.000742353
-0.00467632
-0.00480462
-0.000790968
-0.0050285
-0.0051704
-0.0203299
-0.0203179
-0.0203461
-0.0203467
-0.0202864
-0.0203057
-0.020248
-0.0201445
-0.0201103
-0.0201105
-0.0200639
-0.0199695
-0.0198853
-0.0198441
-0.0198056
-0.0198092
-0.019723
-0.0196839
-0.019657
-0.0197108
-0.0196278
-0.019731
-0.0205265
-0.0205277
-0.0205505
-0.0205167
-0.0204946
-0.0204134
-0.0202855
-0.0202164
-0.0201702
-0.020025
-0.0200055
-0.0198941
-0.0198724
-0.0198516
-0.0198348
-0.0197682
-0.0197076
-0.0197027
-0.0197359
7.50364e-05
-0.0197091
)
;
    }
    procBoundary11to12
    {
        type            processor;
        value           nonuniform List<scalar> 
116
(
0.00527691
0.00491891
0.000579467
0.00505854
0.00447295
0.00458735
0.000569558
0.00471017
0.000462482
0.00429326
0.00403334
0.000490593
0.00412027
0.00380336
0.00042678
0.00387543
0.000347505
0.00365843
0.00033453
0.00351626
0.00330208
0.000311096
0.0033729
0.000196103
0.00312218
0.000157073
0.0028885
0.000115095
0.00256312
7.38043e-05
0.0020996
3.73874e-05
4.59534e-05
0.00141586
1.34101e-05
0.000568409
0.000577054
1.32646e-05
0.00143798
4.55918e-05
3.69668e-05
0.00213123
7.31567e-05
0.00260094
0.000114297
0.0029298
0.000156202
0.0031652
0.000195214
0.0033459
0.00341683
0.000310557
0.00356054
0.000334053
0.00370316
0.000347094
0.00384869
0.00392093
0.000427039
0.00407968
0.00416685
0.000491815
0.00434093
0.00444475
0.000541131
0.00463658
0.00475966
0.000573671
0.0049699
0.00510989
0.000585355
0.00533006
0.0205368
0.0204117
0.0203924
0.0203478
0.0202618
0.0202479
0.020168
0.0200648
0.0200225
0.0200004
0.0199399
-0.000585062
0.0199044
0.0198236
0.0197812
0.0197401
0.0197378
0.0196547
0.0196196
0.0195909
0.0196384
0.0195628
0.0201159
0.0199716
0.0199476
0.0198369
0.0198124
0.0197846
0.0197627
0.0196981
0.0196416
0.0196342
0.0196605
0.0196346
0.0195878
0.0207414
0.0206269
0.0205993
0.0205192
0.0204553
0.020349
0.0202151
-0.000743654
0.0201337
)
;
    }
}


// ************************************************************************* //
