/*--------------------------------*- C++ -*----------------------------------*\
  =========                 |
  \\      /  F ield         | OpenFOAM: The Open Source CFD Toolbox
   \\    /   O peration     | Website:  https://openfoam.org
    \\  /    A nd           | Version:  7
     \\/     M anipulation  |
\*---------------------------------------------------------------------------*/
FoamFile
{
    version     2.0;
    format      ascii;
    class       volScalarField;
    location    "23";
    object      p;
}
// * * * * * * * * * * * * * * * * * * * * * * * * * * * * * * * * * * * * * //

dimensions      [0 2 -2 0 0 0 0];

internalField   nonuniform List<scalar> 
40000
(
-0.265295
-0.266184
-0.266852
-0.267401
-0.267895
-0.268338
-0.268735
-0.269097
-0.26943
-0.269743
-0.27004
-0.270326
-0.270603
-0.270872
-0.271133
-0.271386
-0.271628
-0.271857
-0.27207
-0.272264
-0.272437
-0.272584
-0.272705
-0.272799
-0.272866
-0.272908
-0.272928
-0.272932
-0.272921
-0.272915
-0.265401
-0.266283
-0.266947
-0.267492
-0.267983
-0.268423
-0.268817
-0.269176
-0.269507
-0.269818
-0.270113
-0.270397
-0.270671
-0.270939
-0.271198
-0.271449
-0.271689
-0.271917
-0.272128
-0.27232
-0.272489
-0.272634
-0.272752
-0.272842
-0.272905
-0.272943
-0.272959
-0.272957
-0.27294
-0.27293
-0.265611
-0.266481
-0.267136
-0.267673
-0.268157
-0.268591
-0.26898
-0.269334
-0.269661
-0.269967
-0.270258
-0.270537
-0.270808
-0.271071
-0.271327
-0.271575
-0.271811
-0.272035
-0.272242
-0.272429
-0.272594
-0.272734
-0.272845
-0.272928
-0.272983
-0.273011
-0.273018
-0.273007
-0.272977
-0.272959
-0.265923
-0.266775
-0.267416
-0.267943
-0.268417
-0.268842
-0.269223
-0.269569
-0.269889
-0.270188
-0.270472
-0.270746
-0.271011
-0.271268
-0.271519
-0.27176
-0.271991
-0.272209
-0.27241
-0.272591
-0.272749
-0.27288
-0.272982
-0.273055
-0.273097
-0.273112
-0.273104
-0.273079
-0.273028
-0.272999
-0.266335
-0.267162
-0.267786
-0.268298
-0.268759
-0.269172
-0.269543
-0.269879
-0.270188
-0.270479
-0.270754
-0.27102
-0.271277
-0.271527
-0.271769
-0.272004
-0.272227
-0.272438
-0.272631
-0.272803
-0.272951
-0.273071
-0.273161
-0.273218
-0.273244
-0.27324
-0.273213
-0.273169
-0.273091
-0.273044
-0.266842
-0.267639
-0.268241
-0.268736
-0.269181
-0.269579
-0.269936
-0.270259
-0.270557
-0.270836
-0.271101
-0.271356
-0.271603
-0.271843
-0.272076
-0.272301
-0.272516
-0.272716
-0.272899
-0.273061
-0.273197
-0.273303
-0.273377
-0.273416
-0.273421
-0.273393
-0.273341
-0.273271
-0.273158
-0.273087
-0.267438
-0.268201
-0.268778
-0.269252
-0.269678
-0.270059
-0.2704
-0.270708
-0.270991
-0.271257
-0.271509
-0.271751
-0.271985
-0.272214
-0.272436
-0.272649
-0.272852
-0.273041
-0.273212
-0.27336
-0.273482
-0.273572
-0.273627
-0.273644
-0.273622
-0.273565
-0.273483
-0.273382
-0.273225
-0.273121
-0.268119
-0.268843
-0.269391
-0.269842
-0.270246
-0.270607
-0.270929
-0.27122
-0.271487
-0.271736
-0.271972
-0.272199
-0.272419
-0.272634
-0.272842
-0.273042
-0.273231
-0.273407
-0.273563
-0.273697
-0.273801
-0.273872
-0.273905
-0.273896
-0.273844
-0.273752
-0.273632
-0.273493
-0.273285
-0.273134
-0.268877
-0.26956
-0.270076
-0.2705
-0.270881
-0.271219
-0.27152
-0.271791
-0.272038
-0.272269
-0.272487
-0.272697
-0.2729
-0.273098
-0.27329
-0.273474
-0.273648
-0.273808
-0.273948
-0.274064
-0.27415
-0.274199
-0.274206
-0.274168
-0.274081
-0.273948
-0.273783
-0.273599
-0.27333
-0.273112
-0.269707
-0.270344
-0.270827
-0.271223
-0.271577
-0.27189
-0.272167
-0.272415
-0.272641
-0.27285
-0.273048
-0.273237
-0.273421
-0.2736
-0.273773
-0.27394
-0.274096
-0.274238
-0.27436
-0.274456
-0.274521
-0.274546
-0.274525
-0.274454
-0.274327
-0.274147
-0.273929
-0.273693
-0.273356
-0.273036
-0.270601
-0.271191
-0.271638
-0.272003
-0.272329
-0.272615
-0.272866
-0.273089
-0.27329
-0.273475
-0.273649
-0.273816
-0.273977
-0.274134
-0.274287
-0.274433
-0.274568
-0.27469
-0.274792
-0.274867
-0.274908
-0.274907
-0.274856
-0.274748
-0.274578
-0.274344
-0.274063
-0.273767
-0.273359
-0.272869
-0.271553
-0.272094
-0.272503
-0.272837
-0.273131
-0.273388
-0.273611
-0.273806
-0.27398
-0.274138
-0.274286
-0.274426
-0.274562
-0.274695
-0.274823
-0.274946
-0.275059
-0.275158
-0.275237
-0.275289
-0.275305
-0.275276
-0.275192
-0.275045
-0.274827
-0.274535
-0.274181
-0.273818
-0.273349
-0.272534
-0.272556
-0.273048
-0.273418
-0.273718
-0.27398
-0.274206
-0.274397
-0.274562
-0.274705
-0.274833
-0.274951
-0.275063
-0.27517
-0.275275
-0.275376
-0.275472
-0.27556
-0.275634
-0.275688
-0.275714
-0.275703
-0.275645
-0.275527
-0.275339
-0.275071
-0.274714
-0.27428
-0.273841
-0.273341
-0.272015
-0.273604
-0.274046
-0.274378
-0.274643
-0.274871
-0.275063
-0.275221
-0.275352
-0.275462
-0.275557
-0.275641
-0.27572
-0.275795
-0.275868
-0.275939
-0.276005
-0.276064
-0.27611
-0.276137
-0.276136
-0.276097
-0.276007
-0.275854
-0.275624
-0.275303
-0.274878
-0.274359
-0.273815
-0.273149
-0.271812
-0.274691
-0.275084
-0.275377
-0.275607
-0.275799
-0.275955
-0.276077
-0.276172
-0.276245
-0.276303
-0.27635
-0.276392
-0.276431
-0.276469
-0.276505
-0.276538
-0.276565
-0.27658
-0.276577
-0.276546
-0.276476
-0.276355
-0.276165
-0.275892
-0.275517
-0.275023
-0.274415
-0.273758
-0.272898
-0.271463
-0.275813
-0.276159
-0.276413
-0.276606
-0.276762
-0.27688
-0.276963
-0.277018
-0.277051
-0.277068
-0.277074
-0.277075
-0.277073
-0.277071
-0.277068
-0.277064
-0.277055
-0.277036
-0.277
-0.276937
-0.276835
-0.27668
-0.276453
-0.276137
-0.275708
-0.275144
-0.274442
-0.273666
-0.272623
-0.270924
-0.276966
-0.277267
-0.277482
-0.277639
-0.277756
-0.277834
-0.277876
-0.277888
-0.277877
-0.277848
-0.277809
-0.277764
-0.277717
-0.27767
-0.277624
-0.277579
-0.27753
-0.277472
-0.2774
-0.277301
-0.277164
-0.276974
-0.27671
-0.27635
-0.275868
-0.275234
-0.274436
-0.273536
-0.272314
-0.270218
-0.278149
-0.278407
-0.278584
-0.278704
-0.278781
-0.278817
-0.278814
-0.27878
-0.27872
-0.278642
-0.278552
-0.278456
-0.278359
-0.278262
-0.278168
-0.278076
-0.277982
-0.277882
-0.277769
-0.277632
-0.277458
-0.277229
-0.276926
-0.276523
-0.275989
-0.275286
-0.274391
-0.273363
-0.271971
-0.269349
-0.27936
-0.279578
-0.279719
-0.2798
-0.279836
-0.279827
-0.279777
-0.279692
-0.27958
-0.279447
-0.279302
-0.27915
-0.278996
-0.278845
-0.278697
-0.278552
-0.278409
-0.278262
-0.278103
-0.277923
-0.277708
-0.27744
-0.277095
-0.276647
-0.276061
-0.275293
-0.274302
-0.273143
-0.271602
-0.268317
-0.280601
-0.280782
-0.280887
-0.28093
-0.280923
-0.280866
-0.280765
-0.280625
-0.280455
-0.280263
-0.280057
-0.279843
-0.279628
-0.279416
-0.279208
-0.279006
-0.278808
-0.278608
-0.278399
-0.278172
-0.277911
-0.277599
-0.277211
-0.276716
-0.276077
-0.275243
-0.274159
-0.272865
-0.271213
-0.26713
-0.281875
-0.282021
-0.28209
-0.282094
-0.282042
-0.281936
-0.281779
-0.281581
-0.281349
-0.281092
-0.280819
-0.280538
-0.280255
-0.279976
-0.279703
-0.279438
-0.279178
-0.27892
-0.278656
-0.278376
-0.278065
-0.277704
-0.277267
-0.276722
-0.276027
-0.275128
-0.273954
-0.272517
-0.27081
-0.265805
-0.283186
-0.283301
-0.283335
-0.283298
-0.283198
-0.283039
-0.282823
-0.282561
-0.282262
-0.281934
-0.281589
-0.281235
-0.280878
-0.280526
-0.280182
-0.279848
-0.279521
-0.279199
-0.278875
-0.278537
-0.27817
-0.277755
-0.277264
-0.276663
-0.275907
-0.27494
-0.273677
-0.272087
-0.27039
-0.264375
-0.284541
-0.284626
-0.284625
-0.284546
-0.284397
-0.28418
-0.283902
-0.283571
-0.283199
-0.282796
-0.282372
-0.281938
-0.281502
-0.281072
-0.28065
-0.280241
-0.279842
-0.27945
-0.279059
-0.278658
-0.27823
-0.277755
-0.277204
-0.276541
-0.275718
-0.274675
-0.273323
-0.271564
-0.26994
-0.262886
-0.285949
-0.286005
-0.285968
-0.285845
-0.285643
-0.285365
-0.28502
-0.284616
-0.284165
-0.28368
-0.283173
-0.282654
-0.282133
-0.281617
-0.281113
-0.280622
-0.280146
-0.27968
-0.279217
-0.278746
-0.278251
-0.27771
-0.277092
-0.27636
-0.275461
-0.274336
-0.272892
-0.270947
-0.269438
-0.2614
-0.287421
-0.287448
-0.287375
-0.287205
-0.286946
-0.286603
-0.286184
-0.285702
-0.285167
-0.284595
-0.283998
-0.283388
-0.282776
-0.282171
-0.281578
-0.281002
-0.280442
-0.279896
-0.279356
-0.278811
-0.278243
-0.277629
-0.276938
-0.276128
-0.275145
-0.273927
-0.272386
-0.270249
-0.268853
-0.26
-0.288969
-0.288967
-0.288853
-0.288633
-0.288314
-0.287901
-0.287404
-0.286837
-0.286214
-0.285548
-0.284856
-0.28415
-0.283442
-0.282741
-0.282056
-0.281389
-0.280741
-0.280111
-0.279489
-0.278864
-0.278217
-0.277524
-0.276752
-0.275855
-0.274779
-0.273457
-0.271809
-0.269493
-0.26815
-0.258781
-0.290607
-0.290573
-0.290417
-0.290142
-0.289757
-0.289269
-0.288689
-0.288032
-0.287314
-0.28655
-0.285757
-0.28495
-0.28414
-0.28334
-0.282557
-0.281795
-0.281056
-0.280336
-0.279628
-0.278918
-0.278186
-0.277407
-0.276544
-0.275552
-0.274373
-0.272938
-0.27116
-0.268703
-0.267257
-0.257779
-0.292352
-0.292281
-0.292078
-0.291744
-0.291287
-0.290718
-0.290049
-0.289296
-0.288477
-0.28761
-0.286712
-0.285798
-0.284884
-0.28398
-0.283096
-0.282235
-0.2814
-0.280587
-0.279787
-0.278985
-0.278162
-0.277288
-0.276325
-0.275228
-0.273935
-0.272383
-0.270456
-0.267919
-0.266053
-0.256876
-0.294219
-0.294106
-0.29385
-0.29345
-0.292917
-0.29226
-0.291496
-0.290642
-0.289717
-0.288741
-0.287732
-0.286709
-0.285685
-0.284674
-0.283685
-0.282722
-0.281787
-0.280876
-0.279979
-0.279079
-0.278155
-0.277176
-0.276102
-0.274887
-0.273473
-0.271804
-0.269739
-0.267245
-0.264565
-0.256273
-0.296227
-0.296064
-0.295748
-0.295276
-0.294658
-0.293908
-0.293042
-0.292081
-0.291044
-0.289955
-0.288832
-0.287694
-0.286558
-0.285436
-0.284338
-0.28327
-0.282232
-0.281217
-0.280216
-0.27921
-0.278174
-0.277075
-0.275875
-0.274526
-0.272977
-0.271193
-0.269033
-0.266748
-0.263335
-0.258156
-0.298393
-0.298171
-0.297787
-0.297236
-0.296526
-0.295675
-0.2947
-0.293626
-0.292473
-0.291265
-0.290023
-0.288768
-0.287515
-0.28628
-0.285071
-0.283894
-0.282746
-0.281622
-0.280509
-0.279384
-0.278222
-0.276986
-0.275638
-0.274133
-0.272426
-0.270504
-0.268257
-0.266158
-0.262892
-0.265194
-0.300736
-0.300444
-0.299982
-0.299343
-0.298534
-0.297574
-0.296485
-0.29529
-0.294016
-0.292685
-0.29132
-0.289944
-0.288573
-0.287221
-0.285897
-0.284605
-0.283343
-0.282101
-0.280863
-0.279606
-0.278299
-0.276903
-0.27538
-0.273688
-0.27179
-0.269686
-0.267311
-0.265127
-0.262092
-0.263594
-0.303274
-0.302899
-0.30235
-0.301613
-0.300696
-0.299619
-0.298408
-0.297088
-0.295686
-0.294228
-0.292738
-0.291237
-0.289744
-0.288272
-0.286829
-0.285417
-0.284032
-0.282661
-0.281285
-0.279875
-0.278399
-0.276816
-0.275086
-0.27317
-0.271038
-0.268697
-0.266111
-0.263643
-0.260484
-0.260367
-0.306025
-0.305553
-0.304905
-0.304061
-0.303026
-0.301824
-0.300484
-0.299033
-0.297499
-0.295909
-0.294289
-0.292661
-0.291042
-0.289445
-0.287877
-0.286338
-0.284819
-0.283305
-0.281772
-0.280187
-0.278514
-0.27671
-0.274736
-0.272556
-0.270147
-0.267516
-0.264643
-0.26179
-0.25834
-0.256865
-0.309005
-0.308422
-0.307662
-0.306701
-0.305538
-0.304204
-0.302727
-0.301138
-0.299466
-0.297741
-0.295988
-0.294228
-0.292479
-0.290753
-0.289053
-0.287376
-0.28571
-0.284034
-0.28232
-0.280532
-0.278629
-0.276569
-0.274312
-0.271829
-0.269101
-0.266138
-0.262929
-0.259657
-0.255865
-0.253281
-0.312231
-0.311519
-0.310636
-0.309546
-0.308247
-0.306771
-0.30515
-0.303417
-0.301604
-0.299738
-0.297847
-0.295952
-0.294068
-0.292205
-0.290363
-0.288535
-0.286704
-0.284844
-0.282922
-0.280897
-0.278728
-0.276372
-0.273796
-0.270973
-0.267893
-0.26457
-0.261
-0.257317
-0.253181
-0.249797
-0.315717
-0.31486
-0.313839
-0.31261
-0.311164
-0.309538
-0.307767
-0.305885
-0.303923
-0.301913
-0.29988
-0.297844
-0.295819
-0.29381
-0.291813
-0.289817
-0.287798
-0.285726
-0.283563
-0.281265
-0.278791
-0.276103
-0.27317
-0.269978
-0.266523
-0.262825
-0.25889
-0.254823
-0.250371
-0.246413
-0.319477
-0.318457
-0.317286
-0.315906
-0.314304
-0.312519
-0.310591
-0.308553
-0.306439
-0.304279
-0.302099
-0.299916
-0.29774
-0.295572
-0.293405
-0.291218
-0.288985
-0.286668
-0.284226
-0.281616
-0.278799
-0.275741
-0.272422
-0.268836
-0.264993
-0.260919
-0.256627
-0.252212
-0.247479
-0.243114
-0.323523
-0.322322
-0.320987
-0.319446
-0.317678
-0.315727
-0.313633
-0.311434
-0.309163
-0.306848
-0.304514
-0.302175
-0.299836
-0.297494
-0.295134
-0.292731
-0.29025
-0.287652
-0.284892
-0.28193
-0.27873
-0.27527
-0.27154
-0.267546
-0.263309
-0.258865
-0.254234
-0.249505
-0.244524
-0.239863
-0.327865
-0.326466
-0.324953
-0.323239
-0.321297
-0.319171
-0.316907
-0.314541
-0.312106
-0.309631
-0.307134
-0.304628
-0.302112
-0.299575
-0.296997
-0.294344
-0.291579
-0.288657
-0.285537
-0.282181
-0.278565
-0.274675
-0.270516
-0.266107
-0.261479
-0.256676
-0.251727
-0.246714
-0.241513
-0.236626
-0.332511
-0.330896
-0.329192
-0.327297
-0.32517
-0.322864
-0.320422
-0.317884
-0.315279
-0.312635
-0.309966
-0.307278
-0.304565
-0.301808
-0.298979
-0.29604
-0.292948
-0.289659
-0.286136
-0.282349
-0.278284
-0.273943
-0.269344
-0.264519
-0.259509
-0.254363
-0.249115
-0.243843
-0.238443
-0.233371
-0.337468
-0.335619
-0.333713
-0.331626
-0.329308
-0.326813
-0.324189
-0.321471
-0.318691
-0.315868
-0.313013
-0.310125
-0.30719
-0.304182
-0.301065
-0.297797
-0.294332
-0.290631
-0.286663
-0.282409
-0.277871
-0.273064
-0.268021
-0.262784
-0.257404
-0.25193
-0.246403
-0.240893
-0.23531
-0.230074
-0.342738
-0.340639
-0.338518
-0.336232
-0.333715
-0.331027
-0.328214
-0.325311
-0.322345
-0.319332
-0.316274
-0.313163
-0.309977
-0.306681
-0.303233
-0.299588
-0.295703
-0.291545
-0.287092
-0.282342
-0.277311
-0.272029
-0.266543
-0.260904
-0.255167
-0.249383
-0.243593
-0.237859
-0.232103
-0.226714
-0.348322
-0.345957
-0.343612
-0.341118
-0.338397
-0.335509
-0.332502
-0.329407
-0.326245
-0.323025
-0.319744
-0.316381
-0.312907
-0.30928
-0.305453
-0.301382
-0.297029
-0.292369
-0.287398
-0.282127
-0.27659
-0.270832
-0.264909
-0.258879
-0.2528
-0.246721
-0.240682
-0.234735
-0.228815
-0.223276
-0.354217
-0.351571
-0.348993
-0.346285
-0.343355
-0.340263
-0.337055
-0.333758
-0.330387
-0.326942
-0.32341
-0.319762
-0.315958
-0.311951
-0.307694
-0.303145
-0.298275
-0.293075
-0.287555
-0.281746
-0.275697
-0.269465
-0.263114
-0.256708
-0.250301
-0.243942
-0.237665
-0.231516
-0.225437
-0.219748
-0.360415
-0.357476
-0.354656
-0.35173
-0.348587
-0.345285
-0.34187
-0.338361
-0.334764
-0.33107
-0.327255
-0.32328
-0.319099
-0.31466
-0.309918
-0.304839
-0.299409
-0.293633
-0.287542
-0.281184
-0.274621
-0.267922
-0.261157
-0.254387
-0.247667
-0.24104
-0.234537
-0.228192
-0.221958
-0.21612
-0.366904
-0.36366
-0.360593
-0.357445
-0.354085
-0.350569
-0.346938
-0.343203
-0.33936
-0.335389
-0.331253
-0.326905
-0.322294
-0.317367
-0.312085
-0.306427
-0.300395
-0.294015
-0.287336
-0.280423
-0.273352
-0.266197
-0.25903
-0.251913
-0.244893
-0.23801
-0.231289
-0.224755
-0.218371
-0.212383
-0.373668
-0.370109
-0.36679
-0.363419
-0.359839
-0.356104
-0.352247
-0.34827
-0.344155
-0.339871
-0.335371
-0.330599
-0.3255
-0.320027
-0.314151
-0.307868
-0.301199
-0.294193
-0.286916
-0.279451
-0.271879
-0.264282
-0.256729
-0.249277
-0.241971
-0.234843
-0.227912
-0.221195
-0.214664
-0.208527
-0.380681
-0.376802
-0.373229
-0.369633
-0.36583
-0.36187
-0.357776
-0.353536
-0.34912
-0.344483
-0.339568
-0.334315
-0.328669
-0.322593
-0.316072
-0.309122
-0.301789
-0.294142
-0.286265
-0.278252
-0.270193
-0.262167
-0.254243
-0.246472
-0.238892
-0.231528
-0.224395
-0.217503
-0.21083
-0.204546
-0.387916
-0.383712
-0.379885
-0.376064
-0.372037
-0.367844
-0.363497
-0.358969
-0.354217
-0.349181
-0.343798
-0.338004
-0.331751
-0.325014
-0.317801
-0.310151
-0.302133
-0.293837
-0.285363
-0.276813
-0.268281
-0.259843
-0.251564
-0.243488
-0.235646
-0.228056
-0.22073
-0.213668
-0.206859
-0.200431
-0.395336
-0.390806
-0.386725
-0.382681
-0.378427
-0.373992
-0.369374
-0.36453
-0.359401
-0.353916
-0.348005
-0.341608
-0.334688
-0.327239
-0.319294
-0.310916
-0.3022
-0.293254
-0.284192
-0.27512
-0.266131
-0.257299
-0.24868
-0.240312
-0.23222
-0.224415
-0.216903
-0.209681
-0.202741
-0.196173
-0.402897
-0.398042
-0.393712
-0.389447
-0.384963
-0.380275
-0.375364
-0.37017
-0.364618
-0.358628
-0.352128
-0.345067
-0.337423
-0.329216
-0.320504
-0.311381
-0.301962
-0.292372
-0.282734
-0.273157
-0.26373
-0.254521
-0.245578
-0.236934
-0.228603
-0.220593
-0.212904
-0.20553
-0.198466
-0.191766
-0.41055
-0.405375
-0.400801
-0.396317
-0.391599
-0.386644
-0.381415
-0.375832
-0.369807
-0.363253
-0.356103
-0.348317
-0.339897
-0.330892
-0.321389
-0.31151
-0.30139
-0.291168
-0.280972
-0.270909
-0.261063
-0.251495
-0.242246
-0.233338
-0.224781
-0.216578
-0.208723
-0.201205
-0.194025
-0.187201
-0.418235
-0.412749
-0.407939
-0.403239
-0.398282
-0.393043
-0.387466
-0.381452
-0.3749
-0.367722
-0.35986
-0.351292
-0.342051
-0.332216
-0.321907
-0.311269
-0.300458
-0.28962
-0.278886
-0.268359
-0.258115
-0.248208
-0.238668
-0.229512
-0.220742
-0.212357
-0.204346
-0.196696
-0.18941
-0.18247
-0.425887
-0.420102
-0.415065
-0.410153
-0.404949
-0.399408
-0.393449
-0.386957
-0.379822
-0.37196
-0.363326
-0.353927
-0.343827
-0.33314
-0.322016
-0.310626
-0.299139
-0.287707
-0.276458
-0.26549
-0.25487
-0.244643
-0.23483
-0.225441
-0.216473
-0.207919
-0.199764
-0.191994
-0.18461
-0.177566
-0.433435
-0.427366
-0.422113
-0.41699
-0.411532
-0.405665
-0.399288
-0.392269
-0.384495
-0.375889
-0.366429
-0.356155
-0.345167
-0.333615
-0.321679
-0.309551
-0.297408
-0.285407
-0.27367
-0.262285
-0.251312
-0.240784
-0.230717
-0.221111
-0.21196
-0.203251
-0.194966
-0.187089
-0.179618
-0.172482
-0.4408
-0.434464
-0.429007
-0.423677
-0.417954
-0.411736
-0.404902
-0.397305
-0.388834
-0.379429
-0.369096
-0.357911
-0.346016
-0.333596
-0.320859
-0.308012
-0.295241
-0.282699
-0.270501
-0.258726
-0.247423
-0.236617
-0.226314
-0.216509
-0.207191
-0.198341
-0.189941
-0.181971
-0.174426
-0.167211
-0.447895
-0.441315
-0.435667
-0.430131
-0.42413
-0.417535
-0.410202
-0.401977
-0.392755
-0.382499
-0.371252
-0.359133
-0.346322
-0.333041
-0.319521
-0.305983
-0.292614
-0.279561
-0.266932
-0.254795
-0.243187
-0.232124
-0.221606
-0.21162
-0.202152
-0.193179
-0.184679
-0.176632
-0.169025
-0.161749
-0.454632
-0.447832
-0.442006
-0.436265
-0.429974
-0.422971
-0.415097
-0.406193
-0.39617
-0.385021
-0.372829
-0.35976
-0.346035
-0.331909
-0.317633
-0.303436
-0.289502
-0.275974
-0.262946
-0.250474
-0.238587
-0.227291
-0.216578
-0.206432
-0.196832
-0.187754
-0.179171
-0.171064
-0.16341
-0.15609
-0.460915
-0.453922
-0.447933
-0.441987
-0.435389
-0.427949
-0.419492
-0.409862
-0.398993
-0.386915
-0.373758
-0.359735
-0.345109
-0.330163
-0.315164
-0.300344
-0.285885
-0.271916
-0.258521
-0.245746
-0.233606
-0.222101
-0.211217
-0.200931
-0.19122
-0.182055
-0.173408
-0.165259
-0.157573
-0.15023
-0.466646
-0.459488
-0.453352
-0.4472
-0.44028
-0.432372
-0.423291
-0.412893
-0.401139
-0.388106
-0.373975
-0.359006
-0.343501
-0.327767
-0.312085
-0.296684
-0.28174
-0.267369
-0.253642
-0.240593
-0.228229
-0.216541
-0.205509
-0.195106
-0.185305
-0.176073
-0.167381
-0.159209
-0.151509
-0.144164
-0.471725
-0.464434
-0.458165
-0.451806
-0.444547
-0.43614
-0.426398
-0.415194
-0.402527
-0.388524
-0.37342
-0.357523
-0.34117
-0.32469
-0.308369
-0.292433
-0.277046
-0.262312
-0.248289
-0.235
-0.222441
-0.210598
-0.199443
-0.188946
-0.179076
-0.169799
-0.161083
-0.152907
-0.145211
-0.137886
-0.47605
-0.468658
-0.462272
-0.455705
-0.448088
-0.439155
-0.428719
-0.416679
-0.403079
-0.388102
-0.372038
-0.355241
-0.338081
-0.320902
-0.303991
-0.287568
-0.271784
-0.256729
-0.242448
-0.228951
-0.216229
-0.204258
-0.193006
-0.182441
-0.172526
-0.163226
-0.154507
-0.146347
-0.138674
-0.131392
-0.479521
-0.472061
-0.465573
-0.458794
-0.450805
-0.44132
-0.430161
-0.417263
-0.402721
-0.386778
-0.369778
-0.35212
-0.334201
-0.316376
-0.298929
-0.282071
-0.265937
-0.250603
-0.236102
-0.222434
-0.20958
-0.19751
-0.18619
-0.175581
-0.165645
-0.156345
-0.147645
-0.139523
-0.131893
-0.124678
-0.482037
-0.474544
-0.467969
-0.460977
-0.4526
-0.442541
-0.430638
-0.416869
-0.401387
-0.384496
-0.366596
-0.348125
-0.329503
-0.311089
-0.293163
-0.275923
-0.259488
-0.243921
-0.22924
-0.215436
-0.202483
-0.190346
-0.178985
-0.168359
-0.158428
-0.14915
-0.140492
-0.13243
-0.124866
-0.117744
-0.483502
-0.47601
-0.469363
-0.462156
-0.453379
-0.442728
-0.430067
-0.415425
-0.399015
-0.381206
-0.362451
-0.343224
-0.323959
-0.30502
-0.286676
-0.269109
-0.252423
-0.236668
-0.221848
-0.207947
-0.19493
-0.182757
-0.171385
-0.160769
-0.150867
-0.141636
-0.133041
-0.125058
-0.117587
-0.110586
-0.483822
-0.476366
-0.469661
-0.462238
-0.453052
-0.441797
-0.428374
-0.412864
-0.395552
-0.376867
-0.357312
-0.337391
-0.317551
-0.298152
-0.279452
-0.261615
-0.244732
-0.228834
-0.213919
-0.199958
-0.186913
-0.174737
-0.163384
-0.152807
-0.14296
-0.133798
-0.125284
-0.117398
-0.110039
-0.10317
-0.482911
-0.475525
-0.468778
-0.461139
-0.451536
-0.439672
-0.425489
-0.409131
-0.390951
-0.371441
-0.351149
-0.330604
-0.310261
-0.290471
-0.271479
-0.253432
-0.236403
-0.220412
-0.205444
-0.191464
-0.178427
-0.166282
-0.15498
-0.14447
-0.134705
-0.125636
-0.117222
-0.109446
-0.102199
-0.095414
-0.480688
-0.473404
-0.466629
-0.458777
-0.448755
-0.436285
-0.421354
-0.404176
-0.385173
-0.364898
-0.34394
-0.322847
-0.302076
-0.281967
-0.262748
-0.244551
-0.227431
-0.211395
-0.196419
-0.18246
-0.169469
-0.15739
-0.146171
-0.135759
-0.126103
-0.117151
-0.108863
-0.101223
-0.0940832
-0.0872433
-0.47708
-0.46993
-0.463143
-0.45508
-0.444642
-0.431573
-0.415917
-0.397957
-0.378188
-0.357217
-0.33567
-0.314109
-0.292987
-0.272632
-0.253255
-0.234967
-0.21781
-0.20178
-0.186841
-0.172945
-0.160038
-0.148061
-0.136958
-0.126674
-0.117156
-0.108349
-0.100216
-0.0927476
-0.0857487
-0.0788177
-0.47202
-0.465037
-0.458251
-0.449985
-0.439139
-0.425487
-0.409136
-0.390443
-0.369972
-0.348382
-0.326328
-0.304382
-0.28299
-0.262464
-0.242995
-0.224679
-0.207541
-0.191566
-0.17671
-0.16292
-0.150136
-0.138297
-0.127344
-0.11722
-0.107869
-0.099234
-0.0912868
-0.0839978
-0.0770818
-0.0704582
-0.465454
-0.458668
-0.451899
-0.443438
-0.432196
-0.417986
-0.40098
-0.381611
-0.36051
-0.338383
-0.31591
-0.293665
-0.272085
-0.251463
-0.231971
-0.213687
-0.196624
-0.180755
-0.166029
-0.152387
-0.139766
-0.128102
-0.117333
-0.107401
-0.0982473
-0.0898151
-0.0820766
-0.0749823
-0.0682164
-0.0619324
-0.457337
-0.450775
-0.444039
-0.435395
-0.423775
-0.409038
-0.391425
-0.371447
-0.349795
-0.32722
-0.304418
-0.281962
-0.260275
-0.239633
-0.220187
-0.201998
-0.185065
-0.169352
-0.154803
-0.141353
-0.128934
-0.117483
-0.106933
-0.0972248
-0.088298
-0.0800965
-0.072592
-0.0657196
-0.0591513
-0.0531908
-0.447632
-0.441322
-0.434635
-0.425823
-0.413848
-0.398622
-0.38046
-0.359944
-0.337828
-0.314896
-0.291858
-0.26928
-0.247571
-0.226983
-0.20765
-0.189617
-0.172871
-0.157366
-0.143039
-0.129826
-0.11765
-0.106447
-0.096151
-0.0866991
-0.0780295
-0.0700863
-0.0628419
-0.0562195
-0.0498766
-0.0442318
-0.436316
-0.430283
-0.423662
-0.414699
-0.402399
-0.38673
-0.36808
-0.347107
-0.324617
-0.301423
-0.278243
-0.255633
-0.233983
-0.213525
-0.194373
-0.176557
-0.160052
-0.144807
-0.130751
-0.117815
-0.105923
-0.0950064
-0.0849982
-0.0758344
-0.0674518
-0.0597944
-0.0528362
-0.0464888
-0.0403908
-0.0350673
-0.423374
-0.417643
-0.411104
-0.402012
-0.389421
-0.37336
-0.354294
-0.332948
-0.310177
-0.286819
-0.263591
-0.241039
-0.21953
-0.199276
-0.180371
-0.162832
-0.146625
-0.131688
-0.11795
-0.105334
-0.0937657
-0.0831727
-0.0734869
-0.064643
-0.0565765
-0.0492321
-0.0425855
-0.0365357
-0.0306998
-0.0257099
-0.408806
-0.403397
-0.39696
-0.387762
-0.374919
-0.358524
-0.339116
-0.317486
-0.294531
-0.271107
-0.247927
-0.225521
-0.204233
-0.184254
-0.165664
-0.148462
-0.132606
-0.118028
-0.104652
-0.0923995
-0.0811938
-0.0709609
-0.0616313
-0.0531387
-0.0454174
-0.0384127
-0.0321022
-0.0263712
-0.0208144
-0.0161725
-0.392621
-0.387555
-0.381236
-0.371961
-0.358908
-0.342242
-0.322572
-0.30075
-0.27771
-0.254318
-0.23128
-0.209105
-0.188117
-0.168487
-0.150274
-0.133466
-0.118014
-0.103844
-0.0908756
-0.0790288
-0.0682245
-0.0583877
-0.0494478
-0.0413373
-0.0339896
-0.027351
-0.0214006
-0.0160086
-0.0107484
-0.00646948
-0.374838
-0.370133
-0.363954
-0.354629
-0.341415
-0.324544
-0.304695
-0.282775
-0.259749
-0.236488
-0.213683
-0.191825
-0.171214
-0.152
-0.134226
-0.11787
-0.102874
-0.0891588
-0.0766426
-0.0652422
-0.0548774
-0.045472
-0.0369545
-0.0292565
-0.0223105
-0.0160638
-0.0104968
-0.00546409
-0.000518043
0.00338341
-0.355488
-0.351161
-0.345141
-0.3358
-0.322476
-0.305469
-0.285526
-0.263605
-0.240694
-0.217657
-0.195174
-0.173716
-0.153556
-0.134825
-0.117551
-0.101702
-0.0872111
-0.0739979
-0.0619765
-0.0510623
-0.0411739
-0.0322343
-0.0241713
-0.0169155
-0.0103987
-0.00456948
0.000590932
0.00524426
0.00985773
0.0133682
-0.334615
-0.33068
-0.32484
-0.315516
-0.302135
-0.285065
-0.265118
-0.243296
-0.220593
-0.197863
-0.175798
-0.154819
-0.135182
-0.116998
-0.100282
-0.0849917
-0.0710555
-0.0583886
-0.0469033
-0.0365136
-0.0271373
-0.0186969
-0.0111195
-0.00433492
0.00172554
0.00711185
0.0118426
0.0160961
0.0203573
0.0234627
-0.31227
-0.30874
-0.3031
-0.29383
-0.280448
-0.263392
-0.243533
-0.221905
-0.199472
-0.177173
-0.155603
-0.135178
-0.116132
-0.098557
-0.0824544
-0.067774
-0.0544386
-0.0423608
-0.0314511
-0.0216228
-0.0127929
-0.00488368
0.0021782
0.0084633
0.0140407
0.0189589
0.0232368
0.0270691
0.030955
0.0336371
-0.288514
-0.2854
-0.279982
-0.270803
-0.257479
-0.240516
-0.220827
-0.199449
-0.177443
-0.155638
-0.134641
-0.114844
-0.0964534
-0.0795449
-0.0641083
-0.0500855
-0.037395
-0.0259468
-0.0156505
-0.00641835
0.0018325
0.00918012
0.0156978
0.0214563
0.0265246
0.0309494
0.034751
0.0381388
0.0416207
0.0438555
-0.263421
-0.260728
-0.255554
-0.246506
-0.233302
-0.2165
-0.197045
-0.176059
-0.154541
-0.133315
-0.112969
-0.0938671
-0.0761935
-0.0600067
-0.0452857
-0.0319656
-0.0199615
-0.00918127
0.000466417
0.0090694
0.0167107
0.023468
0.0294144
0.0346206
0.0391547
0.0430614
0.0463624
0.0492798
0.0523226
0.0540871
-0.237069
-0.234801
-0.229893
-0.22102
-0.207985
-0.191405
-0.172308
-0.151782
-0.130835
-0.11027
-0.0906471
-0.0723042
-0.0554044
-0.0399904
-0.0260313
-0.0134564
-0.00217734
0.00789921
0.0168652
0.0248086
0.0318119
0.0379524
0.0433026
0.0479325
0.0519087
0.0552729
0.0580492
0.06047
0.0630363
0.0643087
-0.20953
-0.207708
-0.203086
-0.194419
-0.181607
-0.165351
-0.146678
-0.126695
-0.1064
-0.0865702
-0.0677378
-0.0502138
-0.0341407
-0.0195471
-0.00639286
0.00539787
0.015916
0.0252559
0.03351
0.0407657
0.0471051
0.0526048
0.0573361
0.0613681
0.064764
0.0675621
0.0697921
0.0716957
0.0737442
0.074457
-0.180877
-0.179553
-0.175225
-0.166796
-0.154283
-0.138411
-0.12024
-0.10088
-0.081313
-0.0622881
-0.0443078
-0.0276574
-0.0124599
0.00126979
0.0135798
0.0245506
0.034275
0.0428483
0.0503628
0.0569056
0.062558
0.0673955
0.0714884
0.0749034
0.0776986
0.0799088
0.0815766
0.0829463
0.0843976
0.0843722
-0.151192
-0.150473
-0.146403
-0.138258
-0.126097
-0.110679
-0.0930846
-0.0744233
-0.0556542
-0.0374979
-0.0204263
-0.00469953
0.00957827
0.0224045
0.0338347
0.0439531
0.0528543
0.0606341
0.0673844
0.073192
0.0781371
0.0822941
0.0857322
0.0885149
0.090693
0.0923004
0.0933997
0.0942049
0.0948822
0.0938836
-0.120723
-0.120463
-0.116729
-0.108909
-0.0971518
-0.0822531
-0.065306
-0.0474124
-0.0295063
-0.0122766
0.00383503
0.0185932
0.0319116
0.0437991
0.0543177
0.0635549
0.0716067
0.0785691
0.0845338
0.0895866
0.0938071
0.0972688
0.10004
0.102179
0.103732
0.104737
0.105282
0.10548
0.105141
0.103038
-0.0895067
-0.0896792
-0.0863147
-0.0788556
-0.0675526
-0.0532346
-0.0370008
-0.0199389
-0.00295446
0.0132963
0.0284023
0.0421521
0.0544761
0.0653938
0.074973
0.0833039
0.0904836
0.096608
0.101768
0.10605
0.109531
0.112286
0.114379
0.115869
0.116798
0.117222
0.117249
0.116826
0.115394
0.112386
-0.0576321
-0.0582552
-0.0552727
-0.0482086
-0.0374083
-0.0237287
-0.00826852
0.00790381
0.0239138
0.0391394
0.0531997
0.0659065
0.0772061
0.0871273
0.0957432
0.103147
0.109435
0.114704
0.119044
0.122541
0.125272
0.127308
0.128717
0.129553
0.129861
0.129724
0.129251
0.128187
0.125729
0.124003
-0.0252247
-0.0263076
-0.0237197
-0.0170826
-0.00683074
0.00615738
0.0207893
0.0360203
0.0510095
0.0651698
0.0781502
0.0897847
0.100034
0.108937
0.11657
0.123028
0.128409
0.132809
0.136317
0.139017
0.140988
0.142299
0.143017
0.143194
0.142884
0.142178
0.141156
0.139492
0.136698
0.135653
0.00758878
0.00604339
0.00822444
0.0144049
0.0240662
0.0363147
0.0500696
0.0643137
0.0782422
0.0913033
0.103175
0.113713
0.122893
0.130759
0.137394
0.142893
0.147354
0.150874
0.15354
0.155436
0.156639
0.157219
0.157241
0.156758
0.155828
0.154542
0.152949
0.150733
0.147661
0.146563
0.0406819
0.0386745
0.0404373
0.0461339
0.0551668
0.0666329
0.0794681
0.0926865
0.105521
0.117455
0.128196
0.137619
0.145713
0.152529
0.158154
0.162684
0.166218
0.168849
0.170667
0.171754
0.172185
0.17203
0.171353
0.170208
0.168655
0.166781
0.16462
0.161892
0.158512
0.157084
0.0739272
0.0714603
0.072795
0.0779835
0.0863545
0.0970007
0.10888
0.12104
0.132753
0.143539
0.153132
0.161427
0.168424
0.174183
0.17879
0.182345
0.184946
0.186686
0.187652
0.187927
0.187584
0.186692
0.185315
0.183508
0.181329
0.178862
0.176132
0.172895
0.169144
0.167283
0.107196
0.104274
0.105173
0.109832
0.117512
0.127307
0.1382
0.149277
0.159848
0.16947
0.177904
0.185063
0.190958
0.195654
0.199242
0.20182
0.203486
0.204333
0.204448
0.20391
0.202794
0.201167
0.199091
0.196621
0.193816
0.190755
0.187458
0.183706
0.179544
0.177204
0.140361
0.136989
0.137445
0.141557
0.148522
0.15744
0.167323
0.177297
0.186714
0.195163
0.202432
0.208452
0.213244
0.216878
0.219447
0.22105
0.221785
0.221742
0.221008
0.219661
0.217775
0.215416
0.212645
0.209515
0.206086
0.202431
0.198568
0.194296
0.189701
0.186857
0.173292
0.169478
0.169487
0.173038
0.179268
0.187289
0.196146
0.205005
0.21326
0.220533
0.226637
0.231521
0.235214
0.237791
0.239347
0.239981
0.239789
0.238862
0.237286
0.235137
0.232487
0.229401
0.225939
0.222155
0.218106
0.213862
0.209434
0.204643
0.199604
0.196243
0.205862
0.201615
0.201175
0.204154
0.209635
0.216745
0.224565
0.232304
0.239395
0.245495
0.250441
0.254196
0.256798
0.258328
0.25888
0.258554
0.257446
0.255646
0.253236
0.250293
0.246888
0.243085
0.238941
0.23451
0.229847
0.225019