/*--------------------------------*- C++ -*----------------------------------*\
  =========                 |
  \\      /  F ield         | OpenFOAM: The Open Source CFD Toolbox
   \\    /   O peration     | Website:  https://openfoam.org
    \\  /    A nd           | Version:  7
     \\/     M anipulation  |
\*---------------------------------------------------------------------------*/
FoamFile
{
    version     2.0;
    format      ascii;
    class       surfaceScalarField;
    location    "23";
    object      phi;
}
// * * * * * * * * * * * * * * * * * * * * * * * * * * * * * * * * * * * * * //

dimensions      [0 3 -1 0 0 0 0];

internalField   nonuniform List<scalar> 
79480
(
-7.55853e-07
7.55818e-07
3.48531e-11
-2.91033e-06
2.15423e-06
2.50153e-10
-6.41115e-06
3.5002e-06
6.15142e-10
-1.12043e-05
4.79199e-06
1.12673e-09
-1.72334e-05
6.02737e-06
1.77882e-09
-2.44406e-05
7.20464e-06
2.56351e-09
-3.27666e-05
8.32255e-06
3.4717e-09
-4.21515e-05
9.38033e-06
4.49392e-09
-5.25348e-05
1.03777e-05
5.62135e-09
-6.38565e-05
1.13149e-05
6.84699e-09
-7.60572e-05
1.21926e-05
8.16669e-09
-8.90787e-05
1.30119e-05
9.58012e-09
-0.000102864
1.37744e-05
1.10915e-08
-0.000117359
1.4482e-05
1.271e-08
-0.00013251
1.51367e-05
1.44501e-08
-0.000148267
1.5741e-05
1.63311e-08
-0.000164584
1.6298e-05
1.83766e-08
-0.000181416
1.68114e-05
2.0614e-08
-0.000198725
1.72863e-05
2.30731e-08
-0.00021648
1.77295e-05
2.57858e-08
-0.00023466
1.81509e-05
2.87845e-08
-0.000253256
1.85639e-05
3.21019e-08
-0.000272279
1.89869e-05
3.57706e-08
-0.000291763
1.94441e-05
3.98231e-08
-0.000311773
1.99657e-05
4.42918e-08
-0.00033241
2.05878e-05
4.92104e-08
-0.000353814
2.13501e-05
5.46137e-08
-0.000376164
2.22896e-05
6.05381e-08
-0.000399671
2.34396e-05
6.70223e-08
2.48556e-05
7.4114e-08
-0.000424601
-7.5025e-07
1.50607e-06
-2.88929e-06
4.29327e-06
-6.36562e-06
6.97653e-06
-1.11259e-05
9.55222e-06
-1.71143e-05
1.20158e-05
-2.42733e-05
1.43637e-05
-3.2544e-05
1.65933e-05
-4.18666e-05
1.87029e-05
-5.21807e-05
2.06918e-05
-6.34263e-05
2.25604e-05
-7.55437e-05
2.431e-05
-8.84743e-05
2.59425e-05
-0.000102161
2.74611e-05
-0.000116548
2.8869e-05
-0.000131582
3.01706e-05
-0.000147211
3.13704e-05
-0.000163387
3.24741e-05
-0.000180065
3.3489e-05
-0.000197203
3.44247e-05
-0.000214768
3.52943e-05
-0.000232734
3.61167e-05
-0.000251088
3.69183e-05
-0.000269837
3.7735e-05
-0.000289007
3.86147e-05
-0.000308659
3.96178e-05
-0.000328888
4.08166e-05
-0.00034983
4.22918e-05
-0.00037166
4.41197e-05
-0.000394589
4.63685e-05
4.91511e-05
-0.000418884
-7.39137e-07
2.24521e-06
-2.84755e-06
6.40168e-06
-6.27526e-06
1.04042e-05
-1.09702e-05
1.42471e-05
-1.68776e-05
1.79232e-05
-2.39409e-05
2.14269e-05
-3.21015e-05
2.47539e-05
-4.13001e-05
2.79015e-05
-5.14765e-05
3.08682e-05
-6.25702e-05
3.36542e-05
-7.45214e-05
3.62611e-05
-8.72706e-05
3.86918e-05
-0.00010076
4.09502e-05
-0.000114932
4.30411e-05
-0.000129731
4.49701e-05
-0.000145105
4.67438e-05
-0.000161001
4.83699e-05
-0.00017737
4.98581e-05
-0.000194167
5.12216e-05
-0.000211351
5.24787e-05
-0.00022889
5.3656e-05
-0.000246763
5.47909e-05
-0.000264963
5.59357e-05
-0.000283509
5.71606e-05
-0.000302447
5.85557e-05
-0.000321861
6.02305e-05
-0.000341878
6.23089e-05
-0.000362669
6.49102e-05
-0.000384442
6.8142e-05
7.21792e-05
-0.00040747
-7.22711e-07
2.96792e-06
-2.78581e-06
8.46477e-06
-6.14153e-06
1.376e-05
-1.07396e-05
1.88452e-05
-1.6527e-05
2.37106e-05
-2.34479e-05
2.83479e-05
-3.1445e-05
3.2751e-05
-4.04591e-05
3.69156e-05
-5.04301e-05
4.08392e-05
-6.12974e-05
4.45215e-05
-7.30004e-05
4.7964e-05
-8.54786e-05
5.117e-05
-9.86723e-05
5.41439e-05
-0.000112523
5.68913e-05
-0.000126971
5.9419e-05
-0.000141962
6.17342e-05
-0.000157438
6.38459e-05
-0.000173345
6.57653e-05
-0.000189631
6.75075e-05
-0.000206246
6.90943e-05
-0.000223148
7.05576e-05
-0.000240301
7.19439e-05
-0.000257685
7.33192e-05
-0.000275298
7.47741e-05
-0.00029317
7.64273e-05
-0.000311366
7.84265e-05
-0.000329999
8.09422e-05
-0.000349232
8.41434e-05
-0.000369274
8.81836e-05
9.33083e-05
-0.000390403
-7.01262e-07
3.66918e-06
-2.70511e-06
1.04686e-05
-5.96659e-06
1.70214e-05
-1.04378e-05
2.33164e-05
-1.60674e-05
2.93402e-05
-2.28014e-05
3.50819e-05
-3.05831e-05
4.05327e-05
-3.93539e-05
4.56864e-05
-4.90538e-05
5.05391e-05
-5.96216e-05
5.50894e-05
-7.09958e-05
5.93383e-05
-8.31146e-05
6.32887e-05
-9.59162e-05
6.69454e-05
-0.000109339
7.03141e-05
-0.000123321
7.34014e-05
-0.000137802
7.6215e-05
-0.00015272
7.87635e-05
-0.000168013
8.10581e-05
-0.000183619
8.31141e-05
-0.000199479
8.49544e-05
-0.000215535
8.66133e-05
-0.000231734
8.81431e-05
-0.000248035
8.96201e-05
-0.000264414
9.11525e-05
-0.000280872
9.28859e-05
-0.000297452
9.50066e-05
-0.000314247
9.77364e-05
-0.000331406
0.000101303
-0.000349139
0.000105917
0.000111907
-0.000367738
-6.75168e-07
4.34435e-06
-2.60682e-06
1.24003e-05
-5.75328e-06
2.01679e-05
-1.00693e-05
2.76325e-05
-1.55059e-05
3.47768e-05
-2.20103e-05
4.15863e-05
-2.95271e-05
4.80495e-05
-3.79982e-05
5.41574e-05
-4.73633e-05
5.99042e-05
-5.75607e-05
6.52868e-05
-6.85276e-05
7.03051e-05
-8.02002e-05
7.49614e-05
-9.25143e-05
7.92595e-05
-0.000105405
8.32047e-05
-0.000118806
8.68028e-05
-0.000132652
9.00604e-05
-0.000146873
9.29847e-05
-0.0001614
9.5585e-05
-0.00017616
9.78745e-05
-0.00019108
9.98741e-05
-0.000206084
0.000101617
-0.000221099
0.000103158
-0.000236057
0.000104578
-0.000250904
0.000106
-0.00026561
0.000107592
-0.000280182
0.000109579
-0.000294686
0.00011224
-0.000309256
0.000115874
-0.000324101
0.000120762
0.00012734
-0.000339535
-6.44894e-07
4.98924e-06
-2.4926e-06
1.4248e-05
-5.50505e-06
2.31804e-05
-9.63994e-06
3.17674e-05
-1.48505e-05
3.99873e-05
-2.10857e-05
4.78215e-05
-2.8291e-05
5.52548e-05
-3.64086e-05
6.2275e-05
-4.5378e-05
6.88736e-05
-5.51366e-05
7.50454e-05
-6.56198e-05
8.07883e-05
-7.67616e-05
8.61032e-05
-8.84945e-05
9.09924e-05
-0.00010075
9.54597e-05
-0.000113456
9.95093e-05
-0.000126541
0.000103145
-0.000139928
0.000106372
-0.000153538
0.000109195
-0.000167285
0.000111622
-0.000181081
0.00011367
-0.000194829
0.000115366
-0.000208433
0.000116761
-0.000221793
0.000117938
-0.000234818
0.000119025
-0.000247438
0.000120211
-0.000259617
0.000121758
-0.000271383
0.000124006
-0.000282849
0.000127339
-0.00029422
0.000132133
0.00013896
-0.00030584
-6.10978e-07
5.60022e-06
-2.36439e-06
1.60014e-05
-5.22594e-06
2.60419e-05
-9.15629e-06
3.56977e-05
-1.41109e-05
4.49419e-05
-2.00403e-05
5.3751e-05
-2.68908e-05
6.21053e-05
-3.46047e-05
6.99889e-05
-4.31208e-05
7.73897e-05
-5.2375e-05
8.42996e-05
-6.23008e-05
9.07141e-05
-7.28292e-05
9.66316e-05
-8.3889e-05
0.000102052
-9.54065e-05
0.000106977
-0.000107305
0.000111408
-0.000119505
0.000115345
-0.00013192
0.000118788
-0.000144461
0.000121735
-0.000157029
0.000124189
-0.000169516
0.000126157
-0.000181805
0.000127656
-0.000193771
0.000128727
-0.00020528
0.000129447
-0.000216199
0.000129944
-0.000226406
0.000130418
-0.000235813
0.000131165
-0.000244396
0.000132589
-0.000252239
0.000135182
-0.00025954
0.000139435
0.000146091
-0.000266671
-5.74024e-07
6.17424e-06
-2.22437e-06
1.76517e-05
-4.92046e-06
2.8738e-05
-8.62583e-06
3.94031e-05
-1.3298e-05
4.9614e-05
-1.88888e-05
5.93418e-05
-2.53449e-05
6.85615e-05
-3.26084e-05
7.72524e-05
-4.0617e-05
8.53983e-05
-4.93048e-05
9.29874e-05
-5.86024e-05
0.000100012
-6.84374e-05
0.000106467
-7.8734e-05
0.000112349
-8.9413e-05
0.000117656
-0.000100391
0.000122386
-0.00011158
0.000126534
-0.000122886
0.000130093
-0.000134204
0.000133054
-0.000145422
0.000135408
-0.000156414
0.000137148
-0.000167039
0.000138281
-0.00017714
0.000138829
-0.000186546
0.000138853
-0.000195075
0.000138473
-0.000202547
0.00013789
-0.000208806
0.000137424
-0.000213764
0.000137547
-0.00021746
0.000138877
-0.000220078
0.000142053
0.000148015
-0.000222002
-5.34692e-07
6.70893e-06
-2.07491e-06
1.9192e-05
-4.59356e-06
3.12566e-05
-8.05672e-06
4.28662e-05
-1.24236e-05
5.39809e-05
-1.76468e-05
6.4565e-05
-2.36731e-05
7.45878e-05
-3.04437e-05
8.40229e-05
-3.78946e-05
9.28492e-05
-4.59574e-05
0.00010105
-5.45593e-05
0.000108614
-6.36234e-05
0.000115531
-7.30688e-05
0.000121794
-8.28096e-05
0.000127397
-9.27551e-05
0.000132332
-0.000102808
0.000136587
-0.000112862
0.000140147
-0.000122801
0.000142993
-0.000132495
0.000145102
-0.0001418
0.000146453
-0.000150548
0.000147029
-0.000158552
0.000146832
-0.000165597
0.000145899
-0.000171449
0.000144325
-0.000175861
0.000142302
-0.000178598
0.000140162
-0.000179488
0.000138437
-0.000178505
0.000137894
-0.000175811
0.00013936
0.000143952
-0.000171748
-4.93686e-07
7.20262e-06
-1.91853e-06
2.06168e-05
-4.25049e-06
3.35886e-05
-7.45764e-06
4.60734e-05
-1.15003e-05
5.80235e-05
-1.63313e-05
6.93961e-05
-2.18968e-05
8.01533e-05
-2.81363e-05
9.02624e-05
-3.49835e-05
9.96964e-05
-4.23666e-05
0.000108433
-5.02085e-05
0.000116456
-5.84271e-05
0.000123749
-6.69348e-05
0.000130302
-7.56385e-05
0.000136101
-8.44383e-05
0.000141131
-9.32262e-05
0.000145374
-0.000101884
0.000148805
-0.000110282
0.00015139
-0.000118272
0.000153092
-0.000125687
0.000153869
-0.000132336
0.000153678
-0.000137996
0.000152492
-0.00014241
0.000150313
-0.000145286
0.000147201
-0.000146304
0.00014332
-0.000145139
0.000138996
-0.000141509
0.000134808
-0.000135303
0.000131688
-0.000126669
0.000130725
0.000133061
-0.000115778
-4.51737e-07
7.65436e-06
-1.75786e-06
2.19229e-05
-3.8967e-06
3.57274e-05
-6.83761e-06
4.90143e-05
-1.05412e-05
6.17271e-05
-1.49598e-05
7.38147e-05
-2.0038e-05
8.52314e-05
-2.57128e-05
9.59373e-05
-3.19146e-05
0.000105898
-3.85673e-05
0.000115086
-4.55884e-05
0.000123477
-5.28893e-05
0.00013105
-6.03748e-05
0.000137787
-6.79428e-05
0.000143669
-7.54829e-05
0.000148672
-8.28751e-05
0.000152767
-8.99874e-05
0.000155917
-9.66729e-05
0.000158076
-0.000102766
0.000159185
-0.000108077
0.000159179
-0.000112386
0.000157987
-0.000115436
0.000155542
-0.000116925
0.000151802
-0.000116504
0.00014678
-0.000113773
0.000140589
-0.000108303
0.000133526
-9.96846e-05
0.000126189
-8.76614e-05
0.000119664
-7.24727e-05
0.000115537
0.000114687
-5.40989e-05
-4.09588e-07
8.06395e-06
-1.59557e-06
2.31089e-05
-3.53774e-06
3.76696e-05
-6.20575e-06
5.16823e-05
-9.5596e-06
6.5081e-05
-1.355e-05
7.78051e-05
-1.81189e-05
8.98003e-05
-2.32e-05
0.000101018
-2.87192e-05
0.000111417
-3.45947e-05
0.000120961
-4.07375e-05
0.000129619
-4.70511e-05
0.000137364
-5.34311e-05
0.000144167
-5.97647e-05
0.000150002
-6.59292e-05
0.000154836
-7.17904e-05
0.000158628
-7.72003e-05
0.000161327
-8.19934e-05
0.000162869
-8.59827e-05
0.000163175
-8.8954e-05
0.000162151
-9.06582e-05
0.000159691
-9.08028e-05
0.000155687
-8.90412e-05
0.000150041
-8.49628e-05
0.000142701
-7.80871e-05
0.000133713
-6.78743e-05
0.000123313
-5.37678e-05
0.000112083
-3.52522e-05
0.000101149
-1.20454e-05
9.23297e-05
8.97831e-05
1.28589e-05
-3.67974e-07
8.43192e-06
-1.43429e-06
2.41752e-05
-3.17904e-06
3.94144e-05
-5.57106e-06
5.40743e-05
-8.56851e-06
6.80784e-05
-1.21193e-05
8.13559e-05
-1.61616e-05
9.38427e-05
-2.06245e-05
0.000105481
-2.54278e-05
0.000116221
-3.04832e-05
0.000126017
-3.56932e-05
0.00013483
-4.0952e-05
0.000142622
-4.61442e-05
0.00014936
-5.11439e-05
0.000155002
-5.5814e-05
0.000159506
-6.00035e-05
0.000162817
-6.35453e-05
0.000164869
-6.62524e-05
0.000165576
-6.79134e-05
0.000164836
-6.82862e-05
0.000162523
-6.70897e-05
0.000158495
-6.39939e-05
0.000152591
-5.8606e-05
0.000144653
-5.04561e-05
0.000134551
-3.89831e-05
0.00012224
-2.35323e-05
0.000107862
-3.38906e-06
9.19397e-05
2.21092e-05
7.56506e-05
5.3198e-05
6.1241e-05
5.37903e-05
8.91908e-05
-3.27604e-07
8.75952e-06
-1.27652e-06
2.51241e-05
-2.82582e-06
4.09637e-05
-4.94211e-06
5.61906e-05
-7.58033e-06
7.07166e-05
-1.06842e-05
8.44598e-05
-1.41869e-05
9.73453e-05
-1.8011e-05
0.000109305
-2.20693e-05
0.000120279
-2.62648e-05
0.000130212
-3.04904e-05
0.000139055
-3.46284e-05
0.000146761
-3.85503e-05
0.000153281
-4.21151e-05
0.000158567
-4.5168e-05
0.000162559
-4.7538e-05
0.000165187
-4.90353e-05
0.000166366
-4.94472e-05
0.000165988
-4.85334e-05
0.000163922
-4.60194e-05
0.000160009
-4.1588e-05
0.000154063
-3.48677e-05
0.00014587
-2.54178e-05
0.000135203
-1.27091e-05
0.000121843
3.89757e-06
0.000105634
2.51704e-05
8.65896e-05
5.19972e-05
6.51128e-05
8.52564e-05
4.23915e-05
0.000125461
2.10365e-05
6.94913e-06
0.000172302
-2.89136e-07
9.04866e-06
-1.12461e-06
2.59596e-05
-2.48286e-06
4.23219e-05
-4.32672e-06
5.80345e-05
-6.60636e-06
7.29963e-05
-9.25978e-06
8.71132e-05
-1.22133e-05
0.000100299
-1.53818e-05
0.000112474
-1.86691e-05
0.000123566
-2.19678e-05
0.000133511
-2.51588e-05
0.000142246
-2.81109e-05
0.000149713
-3.06794e-05
0.00015585
-3.27053e-05
0.000160593
-3.40126e-05
0.000163866
-3.44064e-05
0.000165581
-3.36697e-05
0.000165629
-3.15587e-05
0.000163877
-2.77985e-05
0.000160162
-2.2076e-05
0.000154287
-1.40312e-05
0.000146018
-3.24548e-06
0.000135085
1.07744e-05
0.000121183
2.86178e-05
0.000103999
5.0999e-05
8.32523e-05
7.87913e-05
5.87973e-05
0.000113048
3.08566e-05
0.000154909
5.30137e-07
0.00020528
-2.93341e-05
-5.18609e-05
0.000264089
-2.53153e-07
9.30181e-06
-9.80592e-07
2.66871e-05
-2.15433e-06
4.34956e-05
-3.73166e-06
5.96118e-05
-5.65625e-06
7.49208e-05
-7.85861e-06
8.93156e-05
-1.02566e-05
0.000102697
-1.27554e-05
0.000114973
-1.52481e-05
0.000126059
-1.76146e-05
0.000135877
-1.97217e-05
0.000144353
-2.14218e-05
0.000151413
-2.25514e-05
0.00015698
-2.29297e-05
0.000160971
-2.23558e-05
0.000163292
-2.06059e-05
0.000163831
-1.743e-05
0.000162453
-1.25472e-05
0.000158994
-5.64065e-06
0.000153255
3.64968e-06
0.000144997
1.57352e-05
0.000133933
3.10903e-05
0.00011973
5.02678e-05
0.000102006
7.39215e-05
8.03455e-05
0.000102838
5.43355e-05
0.000137984
2.36519e-05
0.000180557
-1.17163e-05
0.00023196
-5.08735e-05
0.000293508
-9.08815e-05
-0.00012399
0.000365637
-2.20136e-07
9.52195e-06
-8.46113e-07
2.7313e-05
-1.84354e-06
4.44931e-05
-3.16225e-06
6.09305e-05
-4.73748e-06
7.64961e-05
-6.4904e-06
9.10685e-05
-8.32838e-06
0.000104535
-1.01451e-05
0.000116789
-1.18205e-05
0.000127734
-1.32197e-05
0.000137277
-1.41927e-05
0.000145326
-1.45724e-05
0.000151792
-1.41733e-05
0.000156581
-1.27886e-05
0.000159586
-1.01877e-05
0.000160691
-6.11256e-06
0.000159756
-2.7391e-07
0.000156615
7.65405e-06
0.000151066
1.80389e-05
0.00014287
3.12972e-05
0.000131738
4.79026e-05
0.000117327
6.83964e-05
9.92357e-05
9.3402e-05
7.7e-05
0.000123645
5.01024e-05
0.000159985
1.79955e-05
0.000203466
-1.98287e-05
0.000255398
-6.36482e-05
0.000317411
-0.000112887
0.000391218
-0.000164689
-0.000210839
0.000478067
-1.9044e-07
9.71239e-06
-7.22347e-07
2.78449e-05
-1.55277e-06
4.53235e-05
-2.62199e-06
6.19997e-05
-3.8548e-06
7.77289e-05
-5.16092e-06
9.23746e-05
-6.43523e-06
0.000105809
-7.55759e-06
0.000117912
-8.3924e-06
0.000128569
-8.78758e-06
0.000137672
-8.5732e-06
0.000145112
-7.55956e-06
0.000150779
-5.53479e-06
0.000154556
-2.26185e-06
0.000156314
2.52493e-06
0.000155905
9.12405e-06
0.000153157
1.78716e-05
0.000147867
2.91464e-05
0.000139791
4.33769e-05
0.00012864
6.10471e-05
0.000114068
8.27052e-05
9.56693e-05
0.000108973
7.2968e-05
0.000140557
4.5416e-05
0.000178266
1.23937e-05
0.000223035
-2.67739e-05
0.000275975
-7.27685e-05
0.000338465
-0.000126138
0.000412292
-0.000186714
0.000499501
-0.000251898
-0.000313777
0.000602439
-1.64263e-07
9.87665e-06
-6.0988e-07
2.82906e-05
-1.28303e-06
4.59966e-05
-2.11223e-06
6.2829e-05
-3.00964e-06
7.86263e-05
-3.87134e-06
9.32363e-05
-4.57742e-06
0.000106515
-4.99153e-06
0.000118326
-4.96e-06
0.000128538
-4.31047e-06
0.000137022
-2.84988e-06
0.000143651
-3.62024e-07
0.000148291
3.39557e-06
0.000150798
8.69537e-06
0.000151014
1.58441e-05
0.000148756
2.51878e-05
0.000143813
3.71171e-05
0.000135938
5.20736e-05
0.000124835
7.05565e-05
0.000110157
9.31293e-05
9.14954e-05
0.000120428
6.8371e-05
0.000153167
4.02287e-05
0.000192151
6.43186e-06
0.000238283
-3.37382e-05
0.000292582
-8.10726e-05
0.000356214
-0.000136401
0.000430584
-0.000200509
0.00051754
-0.00027367
0.000619315
-0.000353673
-0.000434024
0.000739563
-1.41622e-07
1.00183e-05
-5.08624e-07
2.86576e-05
-1.03388e-06
4.65219e-05
-1.63181e-06
6.34269e-05
-2.19962e-06
7.91941e-05
-2.61742e-06
9.36541e-05
-2.74807e-06
0.000106646
-2.43636e-06
0.000118014
-1.50765e-06
0.000127609
2.33961e-07
0.000135281
3.00828e-06
0.000140877
7.06235e-06
0.000144237
1.26742e-05
0.000145186
2.01574e-05
0.000143531
2.98663e-05
0.000139047
4.2202e-05
0.000131478
5.76184e-05
0.000120521
7.66293e-05
0.000105824
9.98152e-05
8.69711e-05
0.000127831
6.34799e-05
0.000161411
3.4791e-05
0.000201376
2.62986e-07
0.00024864
-4.08317e-05
0.000304208
-8.93062e-05
0.000369186
-0.000146051
0.000444792
-0.000212007
0.00053241
-0.000288127
0.000633838
-0.000375097
0.000751295
-0.000471131
-0.000572517
0.000889788
-1.22334e-07
1.01406e-05
-4.17742e-07
2.8953e-05
-8.03256e-07
4.69074e-05
-1.17678e-06
6.38004e-05
-1.41812e-06
7.94354e-05
-1.38895e-06
9.3625e-05
-9.32203e-07
0.000106189
1.29055e-07
0.000116953
1.99345e-06
0.000125745
4.8842e-06
0.00013239
9.05209e-06
0.000136709
1.47796e-05
0.000138509
2.23859e-05
0.00013758
3.22318e-05
0.000133685
4.47266e-05
0.000126552
6.03343e-05
0.00011587
7.95809e-05
0.000101275
0.000103062
8.23428e-05
0.00013145
5.85835e-05
0.000165499
2.94306e-05
0.000206053
-5.76352e-06
0.000254048
-4.77315e-05
0.000310508
-9.72914e-05
0.000376544
-0.000155343
0.000453345
-0.000222852
0.000542165
-0.000300827
0.000644328
-0.00039029
0.000761459
-0.000492228
0.000895549
-0.00060522
-0.000729715
0.00105275
-1.05996e-07
1.02466e-05
-3.35585e-07
2.91826e-05
-5.87361e-07
4.71592e-05
-7.40192e-07
6.39532e-05
-6.53961e-07
7.93492e-05
-1.69197e-07
9.31402e-05
8.93763e-07
0.000105126
2.73678e-06
0.00011511
5.58629e-06
0.000122895
9.69653e-06
0.00012828
1.53539e-05
0.000131052
2.28816e-05
0.000130982
3.26459e-05
0.000127816
4.50619e-05
0.000121269
6.06011e-05
0.000111013
7.97988e-05
9.66723e-05
0.000103262
7.78116e-05
0.000131676
5.39284e-05
0.000165814
2.4446e-05
0.000206537
-1.1293e-05
0.000254804
-5.40299e-05
0.000311662
-0.000104589
0.000378244
-0.000163874
0.000455756
-0.000232854
0.000545444
-0.000312541
0.000648569
-0.000403951
0.000766353
-0.000508075
0.000900115
-0.000625989
0.00105145
-0.000756558
-0.000905376
0.00122711
-9.19785e-08
1.03386e-05
-2.59666e-07
2.93502e-05
-3.80588e-07
4.72801e-05
-3.11992e-07
6.38846e-05
1.08814e-07
7.89284e-05
1.06509e-06
9.21839e-05
2.76247e-06
0.000103429
5.43102e-06
0.000112441
9.32869e-06
0.000118997
1.47454e-05
0.000122863
2.20081e-05
0.000123789
3.14867e-05
0.000121503
4.36008e-05
0.000115702
5.8827e-05
0.000106042
7.77069e-05
9.21331e-05
0.000100855
7.35243e-05
0.000128967
4.96998e-05
0.000162826
2.00693e-05
0.000203309
-1.60374e-05
0.00025139
-5.93737e-05
0.000308135
-0.000110775
0.000374698
-0.000171152
0.000452302
-0.000241478
0.000542209
-0.000322761
0.000645684
-0.000416016
0.000763935
-0.000522202
0.000898028
-0.000642168
0.00104882
-0.000776786
0.0012175
-0.000925229
-0.00109829
0.00141041
-7.94223e-08
1.0418e-05
-1.86657e-07
2.94575e-05
-1.75543e-07
4.7269e-05
1.20939e-07
6.35882e-05
8.90683e-07
7.81587e-05
2.34399e-06
9.07306e-05
4.71546e-06
0.000101057
8.26721e-06
0.00010889
1.3293e-05
0.000113972
2.01231e-05
0.000116033
2.91308e-05
0.000114781
4.07387e-05
0.000109895
5.54266e-05
0.000101014
7.37398e-05
8.77292e-05
9.62974e-05
6.95755e-05
0.0001238
4.60213e-05
0.000157039
1.64609e-05
0.000196899
-1.97908e-05
0.000244364
-6.35017e-05
0.000300511
-0.000115521
0.000366506
-0.00017677
0.000443583
-0.00024823
0.000533018
-0.000330913
0.000636082
-0.000425824
0.00075398
-0.000533914
0.000887779
-0.000656001
0.00103831
-0.0007927
0.00120582
-0.000944297
0.00139118
-0.00111059
-0.00130597
0.00159886
-6.72519e-08
1.04853e-05
-1.12437e-07
2.95027e-05
3.69706e-08
4.71196e-05
5.74594e-07
6.30505e-05
1.71677e-06
7.70165e-05
3.70371e-06
8.87437e-05
6.80261e-06
9.79583e-05
1.13116e-05
0.000104381
1.75649e-05
0.000107718
2.59385e-05
0.000107659
3.68575e-05
0.000103862
5.08038e-05
9.59488e-05
6.83244e-05
8.34933e-05
9.00401e-05
6.60135e-05
0.000116654
4.29615e-05
0.00014896
1.37159e-05
0.000187845
-2.24244e-05
0.000234297
-6.62428e-05
0.000289398
-0.000118603
0.000354319
-0.000180441
0.000430297
-0.000252748
0.000518609
-0.000336542
0.000620526
-0.00043283
0.000737249
-0.000542547
0.000869828
-0.000666493
0.00101907
-0.000805239
0.00118545
-0.000959085
0.00136849
-0.00112733
0.00156899
-0.0013111
-0.00152442
0.00178745
-5.42053e-08
1.05395e-05
-3.21919e-08
2.94807e-05
2.67219e-07
4.68202e-05
1.06755e-06
6.22502e-05
2.61593e-06
7.54681e-05
5.18591e-06
8.61737e-05
9.08107e-06
9.40631e-05
1.46399e-05
9.88218e-05
2.22418e-05
0.000100117
3.23141e-05
9.7587e-05
4.53397e-05
9.08366e-05
6.18662e-05
7.94223e-05
8.25141e-05
6.28454e-05
0.000107986
4.05416e-05
0.000139074
1.18737e-05
0.000176665
-2.38753e-05
0.000221745
-6.75045e-05
0.000275395
-0.000119893
0.000338782
-0.00018199
0.000413141
-0.0002548
0.000499742
-0.000339349
0.000599846
-0.000436647
0.000714641
-0.000547625
0.00084516
-0.000673066
0.00099218
-0.000813513
0.0011561
-0.000969161
0.00133691
-0.00113989
0.00153335
-0.00132377
0.00174639
-0.00152414
-0.00174807
0.00197004
-3.88606e-08
1.05783e-05
5.94015e-08
2.93824e-05
5.27329e-07
4.63522e-05
1.62051e-06
6.1157e-05
3.62019e-06
7.34684e-05
6.83664e-06
8.29572e-05
1.16137e-05
8.9286e-05
1.83348e-05
9.21007e-05
2.74296e-05
9.10218e-05
3.9382e-05
8.56346e-05
5.47392e-05
7.54795e-05
7.41199e-05
6.00416e-05
9.82238e-05
3.87414e-05
0.000127839
1.09262e-05
0.000163849
-2.41361e-05
0.000207233
-6.72595e-05
0.000259066
-0.000119337
0.000320507
-0.000181334
0.000392781
-0.000254264
0.000477145
-0.000339164
0.000574845
-0.000437049
0.000687048
-0.000548849
0.000814762
-0.000675339
0.000958737
-0.000817041
0.00111935
-0.000974129
0.00129649
-0.0011463
0.00148944
-0.00133285
0.00169632
-0.00153064
0.00191788
-0.00174571
-0.0019699
0.00213972
-1.96665e-08
1.0598e-05
1.68236e-07
2.91945e-05
8.2986e-07
4.56906e-05
2.25558e-06
5.97313e-05
4.76376e-06
7.09602e-05
8.7049e-06
7.90161e-05
1.44672e-05
8.35237e-05
2.24835e-05
8.40844e-05
3.32389e-05
8.02664e-05
4.72795e-05
7.1594e-05
6.52215e-05
5.75374e-05
8.77603e-05
3.75028e-05
0.000115678
1.08234e-05
0.000149851
-2.32464e-05
0.000191249
-6.55346e-05
0.000240938
-0.000116948
0.000300064
-0.000178464
0.000369838
-0.000251108
0.000451502
-0.000335927
0.000546278
-0.00043394
0.000655309
-0.00054608
0.000779574
-0.000673114
0.00091979
-0.000815555
0.00107631
-0.000973558
0.00124899
-0.00114681
0.00143713
-0.00133444
0.00163926
-0.00153498
0.00185318
-0.00174455
0.00207761
-0.00197014
-0.00218157
0.00228927
4.97974e-09
1.0593e-05
3.00321e-07
2.88991e-05
1.18794e-06
4.4803e-05
2.99561e-06
5.79236e-05
6.08183e-06
6.7874e-05
1.08409e-05
7.4257e-05
1.77095e-05
7.66551e-05
2.71744e-05
7.46196e-05
3.97809e-05
6.76599e-05
5.61421e-05
5.52328e-05
7.6948e-05
3.67315e-05
0.000102973
1.14773e-05
0.000135085
-2.12878e-05
0.000174242
-6.24034e-05
0.000221496
-0.000112789
0.00027798
-0.000173432
0.000344887
-0.000245371
0.00042344
-0.000329661
0.00051484
-0.000427327
0.000620203
-0.000539303
0.000740475
-0.000666353
0.00087634
-0.000808978
0.0010281
-0.000967319
0.0011956
-0.00114105
0.00137809
-0.00132931
0.00157425
-0.0015306
0.00178201
-0.00174274
0.00199946
-0.00196201
0.00222116
-0.00219184
-0.00237472
0.00241431
3.66781e-08
1.05563e-05
4.61661e-07
2.84742e-05
1.61466e-06
4.365e-05
3.86335e-06
5.5675e-05
7.60936e-06
6.4128e-05
1.32943e-05
6.8572e-05
2.14073e-05
6.85421e-05
3.24933e-05
6.35336e-05
4.71621e-05
5.29911e-05
6.60978e-05
3.62971e-05
9.00668e-05
1.27625e-05
0.000119924
-1.83803e-05
0.000156617
-5.79809e-05
0.000201183
-0.000106969
0.000254737
-0.000166342
0.000318455
-0.00023715
0.000393539
-0.000320456
0.00048117
-0.000417292
0.000582439
-0.000528596
0.000698266
-0.00065513
0.0008293
-0.000797387
0.000975814
-0.000955492
0.0011376
-0.0011291
0.00131387
-0.00131733
0.00150323
-0.00151867
0.0017037
-0.00173106
0.00191268
-0.00195172
0.00212854
-0.00217787
0.00234553
-0.00240883
-0.00261655
0.00258737
7.69842e-08
1.04793e-05
6.58083e-07
2.78931e-05
2.12267e-06
4.21854e-05
4.8807e-06
5.29169e-05
9.37983e-06
5.96289e-05
1.61124e-05
6.18395e-05
2.56234e-05
5.9031e-05
3.85198e-05
5.06372e-05
5.54796e-05
3.60314e-05
7.72599e-05
1.45168e-05
0.000104704
-1.46818e-05
0.000138745
-5.24214e-05
0.000180404
-9.96394e-05
0.000230778
-0.000157343
0.000291026
-0.00022659
0.000362331
-0.000308455
0.000445852
-0.000403977
0.000542663
-0.000514103
0.000653662
-0.000639595
0.000779478
-0.000780946
0.000920358
-0.000938267
0.00107606
-0.0011112
0.00124578
-0.00129882
0.00142806
-0.00149961
0.00162085
-0.00171145
0.00182154
-0.00193176
0.00202718
-0.00215736
0.00223524
-0.00238593
0.002441
-0.00261459
-0.00283092
0.00265537
1.27342e-07
1.0352e-05
8.95004e-07
2.71254e-05
2.72371e-06
4.03567e-05
6.06791e-06
4.95727e-05
1.1424e-05
5.42728e-05
1.93379e-05
5.39256e-05
3.0414e-05
4.79549e-05
4.5324e-05
3.57271e-05
6.48159e-05
1.65395e-05
8.97205e-05
-1.03878e-05
0.000120956
-4.5917e-05
0.000159525
-9.09908e-05
0.000206509
-0.000146624
0.000263047
-0.000213881
0.000330304
-0.000293847
0.000409424
-0.000387574
0.000501464
-0.000496018
0.000607312
-0.000619951
0.000727587
-0.00075987
0.000862528
-0.000915887
0.00101189
-0.00108763
0.00117485
-0.00127415
0.00134994
-0.00147391
0.00153507
-0.00168475
0.0017276
-0.00190397
0.00192445
-0.0021286
0.00212241
-0.00235533
0.00231841
-0.00258192
0.00250882
-0.00280499
-0.00301924
0.00269715
1.89048e-07
1.0163e-05
1.17728e-06
2.61372e-05
3.42826e-06
3.81057e-05
7.44292e-06
4.55581e-05
1.37687e-05
4.7947e-05
2.30079e-05
4.46864e-05
3.58265e-05
3.51364e-05
5.29627e-05
1.85909e-05
7.52347e-05
-5.73252e-06
0.000103545
-3.8698e-05
0.000138879
-8.12512e-05
0.0001823
-0.000134411
0.000234927
-0.000199251
0.00029791
-0.000276864
0.00037238
-0.000368317
0.000459385
-0.000474579
0.000559809
-0.000596442
0.000674273
-0.000734415
0.000803025
-0.000888622
0.000945833
-0.00105869
0.00110189
-0.00124368
0.00126975
-0.00144201
0.00144732
-0.00165149
0.00163197
-0.00186939
0.0018206
-0.00209261
0.00200993
-0.00231793
0.00219674
-0.00254215
0.00237805
-0.00276323
0.002551
-0.00297795
-0.00318557
0.00271733
2.63221e-07
9.89973e-06
1.50909e-06
2.48913e-05
4.24525e-06
3.53696e-05
9.02085e-06
4.07825e-05
1.64364e-05
4.05315e-05
2.71523e-05
3.39705e-05
4.18974e-05
2.03913e-05
6.14769e-05
-9.88607e-07
8.67771e-05
-3.10327e-05
0.000118766
-7.06869e-05
0.000158487
-0.000120972
0.000207043
-0.000182967
0.000265568
-0.000257776
0.000335181
-0.000346478
0.000416928
-0.000450064
0.000511697
-0.000569348
0.000620123
-0.000704868
0.000742478
-0.00085677
0.000878561
-0.00102471
0.0010276
-0.00120774
0.00118821
-0.00140429
0.00135833
-0.00161214
0.00153536
-0.00182852
0.00171623
-0.00205027
0.00189768
-0.00227405
0.00207645
-0.0024967
0.00224966
-0.00271535
0.0024148
-0.00292837
0.00257003
-0.00313318
-0.0033319
0.00271635
3.50781e-07
9.54895e-06
1.89383e-06
2.33483e-05
5.18189e-06
3.20815e-05
1.08136e-05
3.51507e-05
1.94439e-05
3.19012e-05
3.17924e-05
2.1622e-05
4.86509e-05
3.53269e-06
7.08897e-05
-2.32274e-05
9.94583e-05
-5.96013e-05
0.000135381
-0.00010661
0.000179743
-0.000165334
0.000233664
-0.000236888
0.000298255
-0.000322367
0.000374561
-0.000422784
0.000463483
-0.000538986
0.00056568
-0.000671545
0.000681461
-0.000820649
0.000810677
-0.000985986
0.000952619
-0.00116665
0.00110595
-0.00136107
0.00126871
-0.00156704
0.00143834
-0.00178176
0.00161183
-0.00200201
0.00178594
-0.00222438
0.00195746
-0.00244558
0.00212348
-0.00266272
0.00228165
-0.00287352
0.00243024
-0.00307697
0.00256841
-0.00327134
-0.0034606
0.00269711
4.52451e-07
9.0965e-06
2.33412e-06
2.14666e-05
6.24351e-06
2.81721e-05
1.28296e-05
2.85646e-05
2.28025e-05
2.19283e-05
3.69407e-05
7.48381e-06
5.60977e-05
-1.56243e-05
8.12043e-05
-4.8334e-05
0.000113265
-9.16624e-05
0.000153348
-0.000146692
0.000202558
-0.000214544
0.000261999
-0.000296329
0.000332722
-0.000393089
0.000415641
-0.000505704
0.000511451
-0.000634795
0.000620508
-0.000780603
0.000742732
-0.000942872
0.000877492
-0.00112075
0.00102354
-0.0013127
0.00117901
-0.00151654
0.00134141
-0.00172945
0.00150782
-0.00194817
0.00167504
-0.00216923
0.00183989
-0.00238923
0.00199946
-0.00260515
0.00215139
-0.00281465
0.00229405
-0.00301619
0.00242657
-0.00320949
0.00254901
-0.00339378
-0.00357406
0.00266247
5.68762e-07
8.52774e-06
2.83178e-06
1.92036e-05
7.43361e-06
2.35703e-05
1.50739e-05
2.09244e-05
2.65173e-05
1.04849e-05
4.26003e-05
-8.59916e-06
6.42341e-05
-3.72581e-05
9.24035e-05
-7.65033e-05
0.000128157
-0.000127416
0.000172585
-0.000191121
0.000226788
-0.000268746
0.000291818
-0.00036136
0.000368614
-0.000469885
0.000457907
-0.000594997
0.000560116
-0.000737004
0.000675237
-0.000895724
0.000802739
-0.00107037
0.000941483
-0.00125949
0.0010897
-0.00146092
0.00124502
-0.00167185
0.00140459
-0.00188902
0.00156528
-0.00210886
0.00172393
-0.00232788
0.00187763
-0.00254293
0.00202399
-0.00275151
0.00216134
-0.002952
0.00228884
-0.00314369
0.0024064
-0.00332705
0.00251481
-0.00350219
-0.00367461
0.00261536
7.00069e-07
7.82767e-06
3.38788e-06
1.65158e-05
8.75383e-06
1.82043e-05
1.75476e-05
1.21305e-05
3.05875e-05
-2.55502e-06
4.87644e-05
-2.67761e-05
7.30418e-05
-6.15355e-05
0.000104448
-0.00010791
0.00014406
-0.000167027
0.000192969
-0.00024003
0.000252235
-0.000328012
0.000322819
-0.000431944
0.000405496
-0.000552562
0.000500752
-0.000690253
0.000608673
-0.000844926
0.00072884
-0.00101589
0.000860239
-0.00120177
0.00100123
-0.00140048
0.00114956
-0.00160925
0.00130248
-0.00182478
0.00145693
-0.00204346
0.00160977
-0.0022617
0.00175808
-0.00247619
0.00189942
-0.00268427
0.00203206
-0.00288415
0.00215506
-0.003075
0.00226832
-0.00325695
0.00237242
-0.00343115
0.00246866
-0.00359843
-0.00376438
0.00255844
8.46568e-07
6.9811e-06
4.00277e-06
1.33596e-05
1.0204e-05
1.20031e-05
2.02488e-05
2.08578e-06
3.50061e-05
-1.73123e-05
5.54165e-05
-4.71865e-05
8.24873e-05
-8.86063e-05
0.000117278
-0.0001427
0.000160872
-0.000210621
0.000214334
-0.000293492
0.000278649
-0.000392327
0.000354637
-0.000507932
0.000442856
-0.000640781
0.000543492
-0.000790889
0.000656248
-0.000957681
0.000780251
-0.00113989
0.000914006
-0.00133553
0.0010554
-0.00154188
0.00120181
-0.00175565
0.00135023
-0.0019732