/*--------------------------------*- C++ -*----------------------------------*\
  =========                 |
  \\      /  F ield         | OpenFOAM: The Open Source CFD Toolbox
   \\    /   O peration     | Website:  https://openfoam.org
    \\  /    A nd           | Version:  7
     \\/     M anipulation  |
\*---------------------------------------------------------------------------*/
FoamFile
{
    version     2.0;
    format      ascii;
    class       volScalarField;
    location    "5";
    object      p;
}
// * * * * * * * * * * * * * * * * * * * * * * * * * * * * * * * * * * * * * //

dimensions      [0 2 -2 0 0 0 0];

internalField   nonuniform List<scalar> 
40000
(
-0.321516
-0.324621
-0.326849
-0.328626
-0.330267
-0.331849
-0.333453
-0.335163
-0.33705
-0.339173
-0.341577
-0.344301
-0.34737
-0.350806
-0.354621
-0.358823
-0.363411
-0.368382
-0.373722
-0.379413
-0.385426
-0.391724
-0.398261
-0.404978
-0.411808
-0.418672
-0.425475
-0.432093
-0.438425
-0.444453
-0.322068
-0.325114
-0.327304
-0.329056
-0.330676
-0.332243
-0.333835
-0.335536
-0.337416
-0.339534
-0.341935
-0.344657
-0.347726
-0.351164
-0.354982
-0.359189
-0.363785
-0.368765
-0.374117
-0.379822
-0.385852
-0.39217
-0.39873
-0.405473
-0.412332
-0.419229
-0.426072
-0.432732
-0.439096
-0.445204
-0.323156
-0.326086
-0.328201
-0.329901
-0.331482
-0.333018
-0.334586
-0.336268
-0.338135
-0.340242
-0.342636
-0.345354
-0.348422
-0.351862
-0.355686
-0.359901
-0.36451
-0.369507
-0.374881
-0.380613
-0.386675
-0.39303
-0.399632
-0.406424
-0.413336
-0.420295
-0.427212
-0.43395
-0.44037
-0.446622
-0.324745
-0.327506
-0.329511
-0.331136
-0.332657
-0.334147
-0.335679
-0.337333
-0.339178
-0.341268
-0.343651
-0.346361
-0.349426
-0.352866
-0.356696
-0.360922
-0.365547
-0.370566
-0.375968
-0.381734
-0.387837
-0.394241
-0.4009
-0.407755
-0.414738
-0.421777
-0.42879
-0.435631
-0.442121
-0.448554
-0.326787
-0.329329
-0.331193
-0.33272
-0.334163
-0.335592
-0.337076
-0.338692
-0.340506
-0.342573
-0.344937
-0.347634
-0.350691
-0.354129
-0.357961
-0.362196
-0.366836
-0.371877
-0.377308
-0.383111
-0.389259
-0.395716
-0.402436
-0.409361
-0.416421
-0.423546
-0.430663
-0.437618
-0.444179
-0.45079
-0.329219
-0.331503
-0.333197
-0.334605
-0.335953
-0.337306
-0.338729
-0.340297
-0.342071
-0.344105
-0.346443
-0.34912
-0.352162
-0.35559
-0.359419
-0.363656
-0.368306
-0.373363
-0.378818
-0.384653
-0.390842
-0.397348
-0.404126
-0.411115
-0.418248
-0.425452
-0.432665
-0.439731
-0.446346
-0.453089
-0.331972
-0.333963
-0.335464
-0.336735
-0.337973
-0.339235
-0.340586
-0.342093
-0.343817
-0.345808
-0.34811
-0.350755
-0.353772
-0.357181
-0.360996
-0.365225
-0.369873
-0.374935
-0.380403
-0.386259
-0.392477
-0.399019
-0.40584
-0.41288
-0.420069
-0.427333
-0.434617
-0.441776
-0.448427
-0.455202
-0.334967
-0.336641
-0.337931
-0.33905
-0.340163
-0.341323
-0.342588
-0.344023
-0.345684
-0.34762
-0.349873
-0.352475
-0.355453
-0.358828
-0.362614
-0.36682
-0.37145
-0.376502
-0.381964
-0.387822
-0.394048
-0.400605
-0.407448
-0.414515
-0.421734
-0.429029
-0.436347
-0.443569
-0.450236
-0.456892
-0.338125
-0.339467
-0.340533
-0.341487
-0.342464
-0.343509
-0.344677
-0.346027
-0.347612
-0.349479
-0.351668
-0.35421
-0.357133
-0.360457
-0.364196
-0.368359
-0.37295
-0.377967
-0.383401
-0.389235
-0.395443
-0.401988
-0.408822
-0.415885
-0.423103
-0.430391
-0.437698
-0.444942
-0.451621
-0.457922
-0.341366
-0.342371
-0.343205
-0.343988
-0.344817
-0.345737
-0.346796
-0.348048
-0.349543
-0.351325
-0.353432
-0.355897
-0.358745
-0.361997
-0.365665
-0.369761
-0.374288
-0.379244
-0.384621
-0.390401
-0.396558
-0.403057
-0.409848
-0.416871
-0.424049
-0.431293
-0.43854
-0.445758
-0.452483
-0.458083
-0.344615
-0.345287
-0.345889
-0.346494
-0.34717
-0.347956
-0.348894
-0.350034
-0.351424
-0.353103
-0.355111
-0.357477
-0.360227
-0.363382
-0.366955
-0.370956
-0.375389
-0.380253
-0.385539
-0.391231
-0.397303
-0.403718
-0.410428
-0.417371
-0.42447
-0.431631
-0.438778
-0.445904
-0.452723
-0.457586
-0.347802
-0.348153
-0.348528
-0.348955
-0.349474
-0.350117
-0.350925
-0.351941
-0.353208
-0.354767
-0.356654
-0.358899
-0.361527
-0.364557
-0.368006
-0.371881
-0.376189
-0.380927
-0.386088
-0.391655
-0.397604
-0.403897
-0.410486
-0.41731
-0.42429
-0.431332
-0.438349
-0.445324
-0.451888
-0.456897
-0.350867
-0.350919
-0.351076
-0.35133
-0.35169
-0.352185
-0.352852
-0.353731
-0.354861
-0.35628
-0.358025
-0.360123
-0.362602
-0.36548
-0.368774
-0.372492
-0.37664
-0.381218
-0.386217
-0.391623
-0.39741
-0.403542
-0.409973
-0.416639
-0.423464
-0.430352
-0.437209
-0.444007
-0.450382
-0.455252
-0.353759
-0.353541
-0.353496
-0.353582
-0.353785
-0.35413
-0.354649
-0.355378
-0.356355
-0.357616
-0.359196
-0.361124
-0.363426
-0.366122
-0.369229
-0.372758
-0.376713
-0.381095
-0.385898
-0.391105
-0.396694
-0.402631
-0.408867
-0.415342
-0.421979
-0.428684
-0.435355
-0.441956
-0.448185
-0.452718
-0.356441
-0.355986
-0.355759
-0.355688
-0.355739
-0.355932
-0.356297
-0.356867
-0.357676
-0.35876
-0.360154
-0.361886
-0.363984
-0.36647
-0.36936
-0.372667
-0.376396
-0.38055
-0.385122
-0.390098
-0.395457
-0.401165
-0.407176
-0.41343
-0.419853
-0.426351
-0.432817
-0.439201
-0.4453
-0.44942
-0.358885
-0.358232
-0.357847
-0.357633
-0.357538
-0.357581
-0.357789
-0.35819
-0.358819
-0.359709
-0.360896
-0.36241
-0.364279
-0.366526
-0.36917
-0.372225
-0.375699
-0.379594
-0.383906
-0.388623
-0.393724
-0.399177
-0.404939
-0.41095
-0.417138
-0.423411
-0.429659
-0.435809
-0.441789
-0.44545
-0.361078
-0.36027
-0.359752
-0.35941
-0.359179
-0.359076
-0.359125
-0.359351
-0.359789
-0.360471
-0.361433
-0.362708
-0.364324
-0.366308
-0.368681
-0.371457
-0.374649
-0.37826
-0.382287
-0.386722
-0.391544
-0.396724
-0.402219
-0.407972
-0.413912
-0.41995
-0.425972
-0.431872
-0.437746
-0.440882
-0.363018
-0.362097
-0.361473
-0.361021
-0.360667
-0.360423
-0.360313
-0.360362
-0.360599
-0.361062
-0.361785
-0.362803
-0.364148
-0.365848
-0.367927
-0.370404
-0.373293
-0.376599
-0.380325
-0.384461
-0.38899
-0.393885
-0.399104
-0.404593
-0.41028
-0.416076
-0.421869
-0.427502
-0.433281
-0.435797
-0.364714
-0.363723
-0.363021
-0.362477
-0.362011
-0.361635
-0.36137
-0.361238
-0.361272
-0.361506
-0.361979
-0.362727
-0.363786
-0.365187
-0.366957
-0.369119
-0.37169
-0.37468
-0.378092
-0.381921
-0.386151
-0.390757
-0.3957
-0.400925
-0.406358
-0.41191
-0.417473
-0.422815
-0.42851
-0.430276
-0.366185
-0.365165
-0.364413
-0.363795
-0.363231
-0.362731
-0.362314
-0.362004
-0.361831
-0.361834
-0.36205
-0.362521
-0.363285
-0.364377
-0.365829
-0.367668
-0.369914
-0.372581
-0.375676
-0.379196
-0.383129
-0.38745
-0.39212
-0.397084
-0.402269
-0.407577
-0.412906
-0.417926
-0.423543
-0.424408
-0.367462
-0.366451
-0.365672
-0.364997
-0.364348
-0.363733
-0.363172
-0.362686
-0.362309
-0.362079
-0.362037
-0.362228
-0.362694
-0.363475
-0.364606
-0.36612
-0.368041
-0.370388
-0.373169
-0.376386
-0.380028
-0.384072
-0.388478
-0.39319
-0.39813
-0.40319
-0.408278
-0.412933
-0.418462
-0.418293
-0.368582
-0.367611
-0.366829
-0.366113
-0.36539
-0.36467
-0.36397
-0.363315
-0.362738
-0.362279
-0.361983
-0.361897
-0.362068
-0.36254
-0.363356
-0.364551
-0.366154
-0.368187
-0.370665
-0.37359
-0.376954
-0.380731
-0.384883
-0.389349
-0.394042
-0.398843
-0.403673
-0.407914
-0.413318
-0.412037
-0.369589
-0.368686
-0.367917
-0.367172
-0.366387
-0.365571
-0.364741
-0.363923
-0.363153
-0.362472
-0.361929
-0.361574
-0.36146
-0.361635
-0.362145
-0.363032
-0.36433
-0.366065
-0.368254
-0.370902
-0.374
-0.377523
-0.381427
-0.385647
-0.390086
-0.394607
-0.399145
-0.40292
-0.408119
-0.405742
-0.370536
-0.369719
-0.368976
-0.368213
-0.367374
-0.366468
-0.365516
-0.364544
-0.363589
-0.362697
-0.361918
-0.361308
-0.360922
-0.360815
-0.361037
-0.361634
-0.362645
-0.364099
-0.366016
-0.368402
-0.371247
-0.374524
-0.378182
-0.382147
-0.386312
-0.390519
-0.394713
-0.397975
-0.40284
-0.399493
-0.371475
-0.370756
-0.370048
-0.369272
-0.368384
-0.367397
-0.36633
-0.365213
-0.364085
-0.362994
-0.361994
-0.361145
-0.360506
-0.360136
-0.36009
-0.360418
-0.361163
-0.362356
-0.364019
-0.366157
-0.368758
-0.37179
-0.375195
-0.378885
-0.382742
-0.386588
-0.390365
-0.393081
-0.39744
-0.393346
-0.372465
-0.371847
-0.371175
-0.370388
-0.369456
-0.368392
-0.367217
-0.365964
-0.364674
-0.363399
-0.362197
-0.361128
-0.360257
-0.359646
-0.359355
-0.359437
-0.359936
-0.360889
-0.362313
-0.364214
-0.366575
-0.369355
-0.372486
-0.375869
-0.379368
-0.382793
-0.386065
-0.388218
-0.391877
-0.387318
-0.373564
-0.37304
-0.372401
-0.371602
-0.370627
-0.369488
-0.368212
-0.366832
-0.365394
-0.36395
-0.362562
-0.361294
-0.360214
-0.359386
-0.358873
-0.358732
-0.359008
-0.359736
-0.360934
-0.362601
-0.364715
-0.367225
-0.370052
-0.37308
-0.376158
-0.379092
-0.381759
-0.383346
-0.386103
-0.381372
-0.374826
-0.374383
-0.373768
-0.372953
-0.371931
-0.37072
-0.369347
-0.36785
-0.366274
-0.364678
-0.363123
-0.361677
-0.36041
-0.359388
-0.358677
-0.358333
-0.358403
-0.358918
-0.359894
-0.361324
-0.363176
-0.365387
-0.367864
-0.370478
-0.373062
-0.375426
-0.377387
-0.378406
-0.380027
-0.375406
-0.376304
-0.375921
-0.375317
-0.374477
-0.373405
-0.37212
-0.370654
-0.369046
-0.367346
-0.365611
-0.363908
-0.362304
-0.36087
-0.359676
-0.358786
-0.358256
-0.358132
-0.358441
-0.359192
-0.360371
-0.361934
-0.363806
-0.365879
-0.368011
-0.370024
-0.371735
-0.372905
-0.37332
-0.373512
-0.369442
-0.378044
-0.377694
-0.377084
-0.376208
-0.375078
-0.373718
-0.37216
-0.370448
-0.368632
-0.366773
-0.364935
-0.363191
-0.361609
-0.36026
-0.359207
-0.358504
-0.358191
-0.358292
-0.358808
-0.359712
-0.360951
-0.362435
-0.364042
-0.36562
-0.366986
-0.367968
-0.368296
-0.368019
-0.366576
-0.364002
-0.380085
-0.379737
-0.3791
-0.378175
-0.376978
-0.375538
-0.373888
-0.372075
-0.370152
-0.368178
-0.366221
-0.364349
-0.362635
-0.361144
-0.359938
-0.359066
-0.358565
-0.358448
-0.358708
-0.359308
-0.360178
-0.361217
-0.362294
-0.363249
-0.3639
-0.364086
-0.363558
-0.362479
-0.359812
-0.359057
-0.382459
-0.382078
-0.381392
-0.380402
-0.379128
-0.3776
-0.375857
-0.373945
-0.371918
-0.369838
-0.36777
-0.365782
-0.363944
-0.36232
-0.360965
-0.359925
-0.359226
-0.358875
-0.358852
-0.359107
-0.359558
-0.360095
-0.360577
-0.360846
-0.360727
-0.360075
-0.358681
-0.356674
-0.353262
-0.35102
-0.385188
-0.38474
-0.38398
-0.382908
-0.381544
-0.37992
-0.378079
-0.376067
-0.373939
-0.371757
-0.369583
-0.367486
-0.36553
-0.363774
-0.362269
-0.361053
-0.360142
-0.359532
-0.35919
-0.359056
-0.359036
-0.359011
-0.358841
-0.358371
-0.357446
-0.355938
-0.353677
-0.350767
-0.346564
-0.342924
-0.388288
-0.387737
-0.38688
-0.385709
-0.38424
-0.382511
-0.380564
-0.378449
-0.376219
-0.373935
-0.371659
-0.369453
-0.367379
-0.365489
-0.363827
-0.362419
-0.361274
-0.360374
-0.359674
-0.359101
-0.358556
-0.357915
-0.357042
-0.355799
-0.354049
-0.35169
-0.348591
-0.34484
-0.339917
-0.335262
-0.391766
-0.39108
-0.390102
-0.388813
-0.387225
-0.385379
-0.383319
-0.381094
-0.378759
-0.376371
-0.373989
-0.371673
-0.369476
-0.367444
-0.365611
-0.363993
-0.362585
-0.361356
-0.360252
-0.35919
-0.358066
-0.356761
-0.35515
-0.353112
-0.350539
-0.347357
-0.343471
-0.338965
-0.333421
-0.327985
-0.395627
-0.394775
-0.393653
-0.392229
-0.390507
-0.388531
-0.386347
-0.384005
-0.381558
-0.379061
-0.376569
-0.374136
-0.371807
-0.369619
-0.367595
-0.365739
-0.364033
-0.362434
-0.360877
-0.359274
-0.357524
-0.355515
-0.353141
-0.350305
-0.346929
-0.342968
-0.338358
-0.333188
-0.327114
-0.321121
-0.39987
-0.398824
-0.397537
-0.39596
-0.394089
-0.39197
-0.389652
-0.387184
-0.384617
-0.382003
-0.379393
-0.376832
-0.374357
-0.371994
-0.369753
-0.367625
-0.365579
-0.363562
-0.361501
-0.359309
-0.35689
-0.354149
-0.351002
-0.34738
-0.343235
-0.338547
-0.333282
-0.327534
-0.321015
-0.314596
-0.404491
-0.403227
-0.401756
-0.40001
-0.397975
-0.3957
-0.393237
-0.390632
-0.387936
-0.385196
-0.382456
-0.379752
-0.377112
-0.374549
-0.372059
-0.369618
-0.367185
-0.364699
-0.362083
-0.359256
-0.356135
-0.352645
-0.348727
-0.344343
-0.339471
-0.334115
-0.328264
-0.322011
-0.315113
-0.308364
-0.409487
-0.407983
-0.406311
-0.404382
-0.402169
-0.399726
-0.397106
-0.394355
-0.391518
-0.38864
-0.385755
-0.38289
-0.38006
-0.377263
-0.374484
-0.371684
-0.368813
-0.365804
-0.362584
-0.359083
-0.355235
-0.35099
-0.346317
-0.341203
-0.335654
-0.329688
-0.323313
-0.316618
-0.309395
-0.302372
-0.414852
-0.41309
-0.411202
-0.409076
-0.406673
-0.404051
-0.401263
-0.398355
-0.395367
-0.392335
-0.389286
-0.386236
-0.383184
-0.380116
-0.377
-0.373789
-0.370423
-0.366838
-0.36297
-0.358762
-0.354173
-0.349178
-0.343774
-0.337971
-0.331794
-0.325274
-0.31843
-0.311344
-0.303836
-0.296577
-0.420583
-0.418545
-0.416428
-0.414094
-0.411491
-0.40868
-0.405715
-0.402637
-0.399484
-0.396282
-0.393047
-0.38978
-0.386469
-0.383083
-0.379577
-0.375896
-0.371979
-0.367768
-0.363211
-0.358274
-0.352939
-0.347209
-0.341104
-0.334655
-0.327899
-0.320877
-0.313611
-0.306176
-0.298413
-0.290942
-0.426672
-0.424346
-0.421988
-0.419437
-0.416625
-0.413616
-0.410464
-0.407206
-0.403871
-0.400478
-0.397028
-0.39351
-0.389893
-0.386135
-0.38218
-0.377969
-0.373445
-0.36856
-0.363282
-0.357601
-0.351525
-0.345082
-0.338312
-0.33126
-0.323973
-0.316493
-0.308847
-0.301096
-0.293103
-0.285432
-0.433115
-0.430486
-0.427879
-0.425103
-0.422076
-0.418861
-0.415512
-0.412061
-0.408527
-0.404917
-0.401219
-0.397405
-0.39343
-0.38924
-0.384773
-0.37997
-0.374785
-0.369185
-0.363163
-0.356733
-0.349929
-0.3428
-0.335402
-0.32779
-0.320014
-0.312117
-0.304124
-0.296084
-0.287879
-0.28002
-0.439903
-0.43696
-0.434095
-0.43109
-0.427841
-0.424414
-0.420858
-0.417199
-0.413445
-0.409588
-0.405601
-0.40144
-0.397048
-0.392361
-0.387317
-0.381862
-0.375966
-0.369618
-0.362836
-0.35566
-0.348148
-0.340364
-0.332376
-0.324244
-0.316019
-0.307739
-0.299427
-0.291121
-0.28272
-0.274679
-0.447024
-0.443758
-0.44063
-0.437391
-0.433916
-0.43027
-0.426497
-0.422613
-0.418612
-0.414472
-0.410149
-0.405584
-0.40071
-0.395458
-0.38977
-0.383607
-0.376956
-0.369835
-0.362287
-0.354376
-0.346179
-0.337774
-0.329233
-0.320619
-0.311979
-0.303345
-0.294739
-0.286185
-0.277602
-0.269387
-0.454462
-0.450864
-0.44747
-0.443994
-0.44029
-0.436419
-0.432417
-0.428287
-0.424009
-0.419543
-0.41483
-0.409798
-0.404373
-0.398486
-0.392091
-0.385167
-0.377728
-0.369817
-0.361504
-0.352875
-0.344021
-0.335028
-0.32597
-0.316907
-0.307882
-0.298922
-0.290042
-0.281258
-0.272503
-0.264121
-0.462197
-0.45826
-0.454597
-0.450885
-0.446949
-0.442844
-0.438598
-0.434198
-0.429607
-0.424767
-0.419604
-0.414036
-0.407987
-0.401397
-0.394235
-0.386507
-0.378252
-0.369544
-0.360476
-0.35115
-0.341669
-0.332121
-0.32258
-0.3131
-0.303717
-0.294453
-0.285318
-0.276319
-0.267403
-0.258861
-0.4702
-0.465921
-0.461988
-0.458039
-0.453869
-0.449523
-0.445015
-0.440316
-0.435369
-0.4301
-0.424421
-0.418246
-0.411501
-0.404142
-0.396161
-0.387592
-0.378505
-0.369
-0.359191
-0.349195
-0.339117
-0.329047
-0.319053
-0.309183
-0.299468
-0.289921
-0.280548
-0.271348
-0.262283
-0.253587
-0.478438
-0.473814
-0.469614
-0.46543
-0.461021
-0.456423
-0.451633
-0.4466
-0.441249
-0.43549
-0.429226
-0.42237
-0.414859
-0.406671
-0.397825
-0.388388
-0.378462
-0.368168
-0.35764
-0.347
-0.336357
-0.325796
-0.315379
-0.305145
-0.295118
-0.285307
-0.275712
-0.266326
-0.257122
-0.248282
-0.486869
-0.481902
-0.477438
-0.473019
-0.468369
-0.463505
-0.458407
-0.453001
-0.447193
-0.440879
-0.433957
-0.426347
-0.418004
-0.408932
-0.399187
-0.388866
-0.378099
-0.367033
-0.355809
-0.344556
-0.333379
-0.322356
-0.311542
-0.300969
-0.290653
-0.280595
-0.270793
-0.261234
-0.251902
-0.242928
-0.495442
-0.490137
-0.485414
-0.480764
-0.475867
-0.470722
-0.465285
-0.459462
-0.453138
-0.4462
-0.438547
-0.430112
-0.420876
-0.410877
-0.400205
-0.388993
-0.377396
-0.365577
-0.353686
-0.34185
-0.330169
-0.318714
-0.307529
-0.296639
-0.286052
-0.275766
-0.265773
-0.256055
-0.246605
-0.237508
-0.504102
-0.498464
-0.493489
-0.488611
-0.48346
-0.478014
-0.472206
-0.465915
-0.459013
-0.45138
-0.442924
-0.433598
-0.423417
-0.412456
-0.400842
-0.38874
-0.37633
-0.363784
-0.351255
-0.338868
-0.326714
-0.314854
-0.303323
-0.292138
-0.2813
-0.270803
-0.260633
-0.250772
-0.241216
-0.232006
-0.512781
-0.506823
-0.501605
-0.496499
-0.491087
-0.485318
-0.479098
-0.472286
-0.464741
-0.456342
-0.447014
-0.436739
-0.425569
-0.413621
-0.40106
-0.38808
-0.374878
-0.361635
-0.348502
-0.335596
-0.322998
-0.310759
-0.298907
-0.287447
-0.276378
-0.265686
-0.255356
-0.245367
-0.235717
-0.226408
-0.521407
-0.515142
-0.509691
-0.50436
-0.498676
-0.492557
-0.485884
-0.478494
-0.470239
-0.461005
-0.450741
-0.439466
-0.427275
-0.414327
-0.400824
-0.386985
-0.37302
-0.359112
-0.345408
-0.332015
-0.319003
-0.306413
-0.294262
-0.28255
-0.271268
-0.260401
-0.249927
-0.239825
-0.230094
-0.220699
-0.529899
-0.523346
-0.517672
-0.512118
-0.506148
-0.499651
-0.492479
-0.484452
-0.47542
-0.465286
-0.45403
-0.441714
-0.428481
-0.414531
-0.4001
-0.385428
-0.370732
-0.356195
-0.341955
-0.328108
-0.314711
-0.301796
-0.289371
-0.277428
-0.265954
-0.254929
-0.244329
-0.23413
-0.224332
-0.214866
-0.538169
-0.531348
-0.525466
-0.519687
-0.513418
-0.50651
-0.49879
-0.490067
-0.480194
-0.469101
-0.456806
-0.44342
-0.429133
-0.41419
-0.398855
-0.383382
-0.367993
-0.352865
-0.338124
-0.323856
-0.310105
-0.296891
-0.284215
-0.272064
-0.260419
-0.249255
-0.238547
-0.228269
-0.218417
-0.208897
-0.546125
-0.53906
-0.532981
-0.526979
-0.520393
-0.513039
-0.504722
-0.495244
-0.484471
-0.472367
-0.458995
-0.444521
-0.429183
-0.413266
-0.397056
-0.380821
-0.364779
-0.349099
-0.333896
-0.319239
-0.305164
-0.291679
-0.278778
-0.266442
-0.254646
-0.243364
-0.232566
-0.222229
-0.212338
-0.202781
-0.553668
-0.546384
-0.540124
-0.533895
-0.526973
-0.519138
-0.510175
-0.499885
-0.48816
-0.475001
-0.460528
-0.444959
-0.428584
-0.41172
-0.394675
-0.37772
-0.361069
-0.344879
-0.32925
-0.31424
-0.299871
-0.286143
-0.273042
-0.260544
-0.24862
-0.237241
-0.226374
-0.215996
-0.206082
-0.196508
-0.560694
-0.553221
-0.546793
-0.540336
-0.533058
-0.524704
-0.515047
-0.503895
-0.49117
-0.476925
-0.461336
-0.44468
-0.427292
-0.409518
-0.391682
-0.374053
-0.356839
-0.340182
-0.324166
-0.308837
-0.294206
-0.280264
-0.26699
-0.254355
-0.242327
-0.230873
-0.219958
-0.209559
-0.199639
-0.190071
-0.567098
-0.559467
-0.552885
-0.546196
-0.538541
-0.529633
-0.519236
-0.507175
-0.493415
-0.478062
-0.461358
-0.443633
-0.425265
-0.406626
-0.388049
-0.369798
-0.352069
-0.334988
-0.318626
-0.303014
-0.288153
-0.274026
-0.260606
-0.24786
-0.235752
-0.224246
-0.213306
-0.202907
-0.193
-0.18346
-0.572773
-0.565016
-0.558295
-0.55137
-0.543315
-0.533818
-0.52264
-0.509634
-0.494811
-0.478343
-0.460534
-0.44177
-0.422466
-0.403015
-0.383751
-0.364931
-0.346736
-0.329277
-0.31261
-0.296752
-0.281694
-0.267414
-0.253877
-0.241046
-0.228884
-0.217349
-0.206406
-0.196028
-0.186154
-0.176667
-0.57761
-0.569761
-0.562915
-0.555748
-0.547274
-0.537156
-0.525161
-0.51118
-0.49528
-0.477701
-0.458811
-0.439049
-0.418862
-0.398656
-0.378763
-0.359431
-0.340822
-0.323031
-0.3061
-0.290034
-0.274815
-0.260412
-0.246788
-0.233901
-0.221709
-0.210171
-0.199248
-0.188914
-0.179093
-0.169684
-0.581503
-0.573595
-0.566639
-0.559226
-0.550312
-0.539544
-0.526705
-0.511728
-0.494749
-0.476076
-0.456141
-0.435432
-0.414421
-0.393523
-0.373064
-0.353277
-0.334307
-0.316233
-0.299081
-0.282846
-0.267501
-0.253009
-0.239327
-0.226412
-0.214218
-0.202702
-0.191823
-0.181555
-0.17181
-0.162504
-0.584345
-0.576414
-0.569361
-0.561697
-0.552327
-0.540885
-0.527181
-0.511201
-0.493151
-0.473413
-0.452481
-0.430883
-0.409115
-0.387593
-0.366633
-0.346451
-0.327175
-0.308866
-0.291538
-0.275173
-0.259739
-0.245191
-0.231484
-0.21857
-0.206401
-0.194932
-0.184121
-0.173943
-0.164299
-0.155123
-0.586036
-0.578117
-0.570981
-0.563062
-0.55322
-0.541087
-0.526506
-0.509526
-0.490427
-0.469665
-0.447793
-0.425375
-0.402922
-0.380847
-0.359453
-0.338938
-0.319411
-0.300917
-0.283457
-0.267004
-0.251518
-0.23695
-0.22325
-0.210366
-0.19825
-0.186852
-0.176132
-0.166066
-0.156552
-0.147529
-0.586479
-0.578606
-0.571401
-0.563225
-0.5529
-0.540064
-0.524604
-0.506638
-0.486524
-0.464792
-0.442046
-0.418882
-0.39582
-0.373266
-0.351508
-0.330723
-0.311002
-0.292374
-0.274828
-0.25833
-0.24283
-0.228278
-0.214617
-0.201795
-0.189759
-0.178457
-0.167848
-0.157913
-0.148543
-0.139667
-0.585583
-0.57779
-0.57053
-0.562095
-0.551281
-0.537739
-0.521408
-0.502482
-0.481399
-0.458758
-0.435213
-0.411384
-0.387794
-0.364839
-0.342786
-0.321795
-0.301937
-0.283227
-0.265643
-0.249142
-0.233669
-0.219168
-0.205581
-0.192852
-0.180925
-0.169744
-0.159268
-0.14948
-0.140243
-0.131427
-0.583265
-0.575586
-0.568284
-0.559591
-0.548286
-0.534042
-0.516858
-0.497008
-0.475013
-0.451535
-0.427274
-0.402865
-0.378831
-0.355553
-0.333279
-0.312146
-0.292209
-0.27347
-0.255895
-0.239435
-0.224029
-0.209618
-0.19614
-0.183535
-0.171746
-0.160714
-0.150398
-0.140783
-0.131664
-0.122778
-0.579451
-0.571917
-0.564587
-0.55564
-0.543847
-0.528913
-0.510905
-0.49018
-0.467338
-0.443105
-0.418214
-0.393316
-0.368924
-0.345402
-0.322978
-0.301769
-0.281813
-0.263098
-0.245581
-0.229206
-0.213909
-0.199625
-0.186291
-0.173844
-0.162223
-0.15137
-0.141244
-0.131824
-0.122847
-0.114136
-0.574072
-0.566715
-0.559372
-0.550177
-0.537905
-0.522302
-0.503508
-0.481966
-0.458353
-0.433452
-0.408026
-0.38273
-0.358067
-0.334384
-0.311883
-0.290663
-0.270747
-0.252109
-0.234699
-0.218455
-0.203308
-0.189191
-0.176036
-0.16378
-0.152359
-0.141716
-0.131809
-0.1226
-0.113783
-0.10542
-0.567075
-0.559924
-0.552582
-0.543148
-0.530413
-0.51417
-0.494638
-0.472346
-0.448046
-0.42257
-0.396705
-0.371106
-0.346263
-0.322497
-0.299993
-0.278829
-0.259011
-0.240505
-0.223252
-0.207184
-0.192229
-0.178317
-0.165378
-0.153348
-0.142159
-0.131753
-0.122093
-0.11312
-0.104512
-0.0965072
-0.558413
-0.551495
-0.544171
-0.534511
-0.521333
-0.504488
-0.484274
-0.461308
-0.436411
-0.410459
-0.384255
-0.358449
-0.333514
-0.309748
-0.287314
-0.26627
-0.246611
-0.22829
-0.211243
-0.195397
-0.180678
-0.16701
-0.154324
-0.142552
-0.131627
-0.121488
-0.112101
-0.103392
-0.0950265
-0.0873713
-0.548051
-0.541393
-0.534102
-0.524232
-0.51064
-0.493237
-0.472407
-0.44885
-0.423452
-0.397126
-0.370684
-0.344768
-0.319829
-0.296144
-0.273852
-0.252994
-0.233552
-0.215471
-0.198681
-0.183104
-0.168661
-0.155277
-0.14288
-0.1314
-0.120769
-0.110926
-0.101839
-0.0934213
-0.0853207
-0.0780167
-0.535966
-0.529593
-0.522352
-0.512292
-0.498318
-0.480409
-0.459036
-0.434977
-0.409179
-0.382583
-0.356006
-0.330077
-0.305223
-0.281698
-0.259619
-0.239012
-0.219845
-0.202061
-0.185575
-0.170311
-0.156187
-0.143126
-0.131054
-0.1199
-0.109594
-0.100076
-0.0913147
-0.0832127
-0.0753954
-0.0684538
-0.522146
-0.516081
-0.508907
-0.49868
-0.484364
-0.466009
-0.44417
-0.419704
-0.39361
-0.36685
-0.340242
-0.314395
-0.289713
-0.266426
-0.244631
-0.22434
-0.205508
-0.188068
-0.171938
-0.157032
-0.14327
-0.13057
-0.118859
-0.108063
-0.0981126
-0.0889468
-0.080538
-0.0727736
-0.065257
-0.0586933
-0.50659
-0.500855
-0.493768
-0.4834
-0.468785
-0.450048
-0.427828
-0.403054
-0.376769
-0.349953
-0.323415
-0.297744
-0.273321
-0.250349
-0.228908
-0.208994
-0.190554
-0.173513
-0.157785
-0.143283
-0.129923
-0.117623
-0.106307
-0.0959025
-0.086337
-0.0775513
-0.0695194
-0.0621138
-0.0549155
-0.048746
-0.489311
-0.483925
-0.476943
-0.466465
-0.4516
-0.43255
-0.410037
-0.385057
-0.358689
-0.331924
-0.305557
-0.280155
-0.256072
-0.233491
-0.212471
-0.192996
-0.175003
-0.158412
-0.143135
-0.12908
-0.116163
-0.1043
-0.093415
-0.0834331
-0.0742818
-0.0659028
-0.0582719
-0.0512456
-0.0443828
-0.0386237
-0.47033
-0.46531
-0.458455
-0.447899
-0.432837
-0.413549
-0.390835
-0.36575
-0.339407
-0.312801
-0.286703
-0.261658
-0.237998
-0.21588
-0.195348
-0.17637
-0.15888
-0.14279
-0.128009
-0.114445
-0.10201
-0.090621
-0.0801999
-0.0706719
-0.0619632
-0.054017
-0.0468106
-0.0401834
-0.0336735
-0.0283401
-0.449681
-0.445044
-0.438336
-0.427739
-0.412535
-0.393086
-0.370266
-0.345183
-0.318979
-0.292619
-0.266888
-0.242292
-0.219132
-0.197549
-0.177567
-0.159146
-0.14221
-0.12667
-0.11243
-0.0993978
-0.0874842
-0.076605
-0.0666813
-0.0576375
-0.0493993
-0.0419115
-0.0351524
-0.0289439
-0.0228044
-0.0179107
-0.427408
-0.423169
-0.41663
-0.406028
-0.390742
-0.371214
-0.348385
-0.323419
-0.297475
-0.271397
-0.246154
-0.222096
-0.199514
-0.178533
-0.159162
-0.141353
-0.125023
-0.110079
-0.0964246
-0.0839647
-0.0726097
-0.0622747
-0.0528804
-0.0443504
-0.03661
-0.0296057
-0.0233164
-0.0175462
-0.0117948
-0.00735337
-0.403566
-0.399737
-0.393391
-0.382823
-0.367517
-0.347992
-0.325256
-0.300497
-0.27484
-0.249286
-0.224567
-0.201118
-0.179186
-0.158871
-0.140171
-0.123027
-0.107352
-0.0930493
-0.0800212
-0.0681721
-0.0574115
-0.0476541
-0.0388201
-0.0308327
-0.0236168
-0.0171207
-0.0113235
-0.00601114
-0.000666825
0.00330968
-0.378222
-0.374811
-0.36868
-0.358189
-0.342928
-0.323494
-0.300938
-0.276455
-0.251256
-0.226264
-0.202172
-0.179408
-0.158194
-0.138607
-0.120632
-0.104203
-0.0892298
-0.0756119
-0.0632501
-0.0520486
-0.0419166
-0.0327686
-0.0245247
-0.0171076
-0.0104423
-0.00447898
0.000803975
0.00563812
0.0105535
0.0140487
-0.351448
-0.348462
-0.34257
-0.3322
-0.317053
-0.297783
-0.275473
-0.25142
-0.226754
-0.202403
-0.179024
-0.15702
-0.136587
-0.117785
-0.100589
-0.0849236
-0.070695
-0.0578019
-0.0461439
-0.0356248
-0.0261536
-0.0176452
-0.0100196
-0.00319942
0.0028899
0.00829624
0.0130426
0.0173763
0.021835
0.0248277
-0.323326
-0.32077
-0.315142
-0.30494
-0.289963
-0.270914
-0.248995
-0.225443
-0.201401
-0.177774
-0.155186
-0.134008
-0.114418
-0.096456
-0.0800864
-0.0652293
-0.0517869
-0.0396565
-0.0287373
-0.0189329
-0.0101527
-0.00231199
0.00466887
0.010867
0.0163559
0.0211814
0.0253682
0.0291766
0.0331451
0.0356163
-0.29393
-0.291829
-0.286483
-0.276488
-0.261727
-0.243027
-0.221565
-0.198602
-0.175272
-0.152447
-0.13072
-0.110434
-0.0917414
-0.0746699
-0.0591728
-0.0451654
-0.0325473
-0.0212147
-0.0110665
-0.00200677
0.00605463
0.0132018
0.0195136
0.0250664
0.029932
0.0341531
0.0377575
0.0410156
0.0444582
0.0463898
-0.263342
-0.261743
-0.25669
-0.24693
-0.232482
-0.21419
-0.193268
-0.170983
-0.148445
-0.126496
-0.105697
-0.0863594
-0.0686165
-0.0524813
-0.0378986
-0.024779
-0.01302
-0.00251724
0.00683035
0.0151183
0.0224358
0.028866
0.0344869
0.0393735
0.0435942
0.0471883
0.0501898
0.0528784
0.0557548
0.0570822
-0.231648
-0.230643
-0.225859
-0.216386
-0.202307
-0.184499
-0.164199
-0.142672
-0.121001
-0.0999973
-0.080185
-0.0618498
-0.0451038
-0.029947
-0.0163166
-0.00411929
0.00674901
0.0163931
0.0249136
0.0324054
0.0389568
0.0446497
0.0495608
0.0537629
0.057319
0.0602654
0.0626499
0.064754
0.0669866
0.0675364
-0.199054
-0.198567
-0.194104
-0.184963
-0.171309
-0.154055
-0.134454
-0.113759
-0.0930263
-0.0730289
-0.0542583
-0.0369732
-0.0212663
-0.00712562
0.00551856
0.0167627
0.0267123
0.035472
0.0431421
0.0498166
0.0555826
0.060521
0.0647069
0.0682098
0.0710853
0.07337
0.0751339
0.0766262
0.0780417
0.0775912
-0.165673
-0.165624
-0.161536
-0.152769
-0.139594
-0.122963
-0.104133
-0.0843394
-0.0646069
-0.0456719
-0.027992
-0.0117996
0.00283085
0.0159222
0.0275503
0.0378143
0.0468205
0.0546735
0.0614731
0.0673121
0.0722768
0.0764467
0.0798958
0.0826891
0.0848759
0.0865003
0.0876589
0.0884973
0.0888522
0.0872773
-0.131567
-0.131969
-0.128274
-0.119919
-0.107277
-0.0913312
-0.0733366
-0.0545075
-0.0358324
-0.0180095
-0.00146321
0.0135995
0.0271209
0.0391343
0.0497205
0.0589812
0.0670231
0.0739506
0.0798626
0.0848512
0.0890014
0.092392
0.0950954
0.0971732
0.0986722
0.0996564
0.100244
0.100402
0.0995863
0.097073
-0.0968586
-0.0977254
-0.0944375
-0.0865292
-0.0744711
-0.0592687
-0.0421698
-0.0243613
-0.00679369
0.00987362
0.0252494
0.0391506
0.0515356
0.0624468
0.0719697
0.0802078
0.0872682
0.0932547
0.0982654
0.102391
0.105717
0.10832
0.110271
0.111629
0.112446
0.112808
0.112837
0.112272
0.110281
0.109035
-0.0616802
-0.0630167
-0.0601496
-0.0527217
-0.0412936
-0.0268878
-0.010738
0.00600016
0.0224168
0.0378916
0.0520657
0.0647793
0.0760055
0.085795
0.0942374
0.101438
0.107503
0.112536
0.116635
0.11989
0.122383
0.124191
0.125385
0.126022
0.126158
0.125893
0.125313
0.12407
0.121645
0.121019
-0.026162
-0.0279693
-0.0255361
-0.0186192
-0.00786358
0.00569819
0.0208517
0.0364768
0.0517056
0.0659576
0.078905
0.0904103
0.10046
0.109113
0.116462
0.122613
0.127674
0.131746
0.134925
0.137302
0.138957
0.139968
0.140401
0.140316
0.139773
0.138871
0.13766
0.135797
0.133029
0.132306
0.00956474
0.00728807
0.00927546
0.0156537
0.0256991
0.0383751
0.0524918
0.0669679
0.0809791
0.093984
0.105686
0.115967
0.124829
0.132335
0.138582
0.143677
0.147726
0.150831
0.153088
0.154583
0.155399
0.155609
0.155282
0.154476
0.153253
0.151707
0.149871
0.147441
0.144314
0.143226
0.0453679
0.042625
0.0441565
0.0499718
0.0592739
0.0710283
0.0840744
0.0973726
0.110143
0.121883
0.132326
0.141375
0.14904
0.155394
0.160535
0.164571
0.167606
0.169743
0.171075
0.171689
0.171665
0.171076
0.169989
0.168463
0.16656
0.164368
0.161912
0.158922
0.155383
0.153833
0.0811151
0.0779107
0.0789781
0.0842093
0.0927402
0.103543
0.115492
0.12759
0.139103
0.149568
0.158745
0.166556
0.173023
0.178224
0.182259
0.185236
0.187259
0.18843
0.18884
0.188575
0.187714
0.186329
0.184486
0.182242
0.179661
0.176825
0.173753
0.170204
0.166219
0.16416
0.116674
0.113014
0.113611
0.118241
0.125978
0.135807
0.146637
0.15752
0.167767
0.17695
0.18486
0.191434
0.196707
0.200758
0.203692
0.205615
0.206631
0.206841
0.206335
0.205197
0.203504
0.201329
0.198735
0.19578
0.192524
0.189048
0.185364
0.181255
0.176804
0.174213
0.151913
0.147805
0.147928
0.151943
0.158868
0.167705
0.177404
0.187064
0.196041
0.203945
0.210591
0.215936
0.22002
0.222931
0.224772
0.225649
0.225668
0.224926
0.223512
0.221509
0.218995
0.216038
0.212701
0.20904
0.205117
0.201006
0.196716
0.192049
0.187125
0.183987
0.186701
0.182155
0.181802
0.185192
0.191293
0.199127
0.207688
0.216124
0.223834
0.230465
0.235859
0.239985
0.242895
0.244677
0.245438
0.245283
0.244317
0.242634
0.240325
0.23747
0.234144
0.230416
0.226347
0.221992
0.21741
0.212673
0.207784
0.202566