/*--------------------------------*- C++ -*----------------------------------*\
  =========                 |
  \\      /  F ield         | OpenFOAM: The Open Source CFD Toolbox
   \\    /   O peration     | Website:  https://openfoam.org
    \\  /    A nd           | Version:  7
     \\/     M anipulation  |
\*---------------------------------------------------------------------------*/
FoamFile
{
    version     2.0;
    format      ascii;
    class       surfaceScalarField;
    location    "43";
    object      phi;
}
// * * * * * * * * * * * * * * * * * * * * * * * * * * * * * * * * * * * * * //

dimensions      [0 3 -1 0 0 0 0];

internalField   nonuniform List<scalar> 
79480
(
-7.45407e-07
7.11068e-07
3.43385e-08
-2.8709e-06
2.02827e-06
9.72183e-08
-6.32548e-06
3.29777e-06
1.56813e-07
-1.10562e-05
4.5179e-06
2.12866e-07
-1.70079e-05
5.6865e-06
2.65169e-07
-2.41234e-05
6.80185e-06
3.13605e-07
-3.23441e-05
7.86256e-06
3.58151e-07
-4.16106e-05
8.86762e-06
3.98889e-07
-5.1863e-05
9.81638e-06
4.36001e-07
-6.30414e-05
1.07086e-05
4.69768e-07
-7.50865e-05
1.15445e-05
5.00554e-07
-8.79399e-05
1.23246e-05
5.28791e-07
-0.000101545
1.30497e-05
5.5495e-07
-0.000115845
1.37211e-05
5.79511e-07
-0.000130788
1.43402e-05
6.0293e-07
-0.000146323
1.4909e-05
6.25607e-07
-0.000162401
1.54299e-05
6.47849e-07
-0.000178977
1.59065e-05
6.69848e-07
-0.000196012
1.63435e-05
6.91653e-07
-0.000213473
1.67476e-05
7.13154e-07
-0.000231336
1.71287e-05
7.34068e-07
-0.00024959
1.75002e-05
7.53931e-07
-0.000268243
1.78806e-05
7.7209e-07
-0.000287324
1.82941e-05
7.87689e-07
-0.000306895
1.87709e-05
7.9966e-07
-0.000327048
1.93468e-05
8.06698e-07
-0.000347917
2.00612e-05
8.07229e-07
-0.000369667
2.09512e-05
7.99377e-07
-0.000392498
2.20497e-05
7.8081e-07
2.34109e-05
7.48369e-07
-0.000416657
-7.4016e-07
1.45123e-06
-2.85117e-06
4.13928e-06
-6.28275e-06
6.72935e-06
-1.09826e-05
9.21772e-06
-1.68959e-05
1.15998e-05
-2.39659e-05
1.38719e-05
-3.21344e-05
1.6031e-05
-4.1342e-05
1.80752e-05
-5.15289e-05
2.00033e-05
-6.26351e-05
2.18148e-05
-7.46011e-05
2.35105e-05
-8.73682e-05
2.50917e-05
-0.000100879
2.65605e-05
-0.000115077
2.79194e-05
-0.000129909
2.91719e-05
-0.000145322
3.03219e-05
-0.000161266
3.13744e-05
-0.000177696
3.23362e-05
-0.000194569
3.32162e-05
-0.000211849
3.40275e-05
-0.000229508
3.47885e-05
-0.000247533
3.55252e-05
-0.000265926
3.6273e-05
-0.000284711
3.70789e-05
-0.000303942
3.80024e-05
-0.000323709
3.91142e-05
-0.000344141
4.04927e-05
-0.000365402
4.2212e-05
-0.00038769
4.43377e-05
4.69773e-05
-0.000411256
-7.29583e-07
2.18081e-06
-2.8114e-06
6.2211e-06
-6.1966e-06
1.01145e-05
-1.0834e-05
1.38552e-05
-1.66699e-05
1.74357e-05
-2.36483e-05
2.08502e-05
-3.17114e-05
2.40941e-05
-4.08003e-05
2.71641e-05
-5.0855e-05
3.0058e-05
-6.18157e-05
3.27755e-05
-7.36222e-05
3.53171e-05
-8.62154e-05
3.76849e-05
-9.95366e-05
3.98817e-05
-0.000113529
4.19116e-05
-0.000128136
4.37791e-05
-0.000143304
4.54898e-05
-0.00015898
4.70507e-05
-0.000175115
4.84708e-05
-0.000191661
4.97627e-05
-0.000208578
5.09443e-05
-0.000225831
5.20414e-05
-0.000243396
5.30908e-05
-0.000261267
5.4144e-05
-0.000279458
5.52696e-05
-0.000298011
5.65556e-05
-0.000317006
5.81089e-05
-0.000336563
6.00493e-05
-0.000356843
6.24921e-05
-0.000378045
6.55397e-05
6.93575e-05
-0.000400425
-7.13859e-07
2.89467e-06
-2.75225e-06
8.2595e-06
-6.06839e-06
1.34307e-05
-1.06129e-05
1.83997e-05
-1.63334e-05
2.31562e-05
-2.3175e-05
2.76918e-05
-3.10807e-05
3.19999e-05
-3.9992e-05
3.60754e-05
-4.98491e-05
3.99152e-05
-6.05918e-05
4.35181e-05
-7.21594e-05
4.68847e-05
-8.44916e-05
5.00171e-05
-9.75286e-05
5.29188e-05
-0.000111211
5.55943e-05
-0.000125481
5.80491e-05
-0.000140281
6.02897e-05
-0.000155555
6.2324e-05
-0.000171246
6.41625e-05
-0.000187303
6.58197e-05
-0.000203676
6.73166e-05
-0.000220319
6.86846e-05
-0.000237197
6.99692e-05
-0.000254288
7.12352e-05
-0.00027159
7.25715e-05
-0.000289129
7.4094e-05
-0.000306966
7.59464e-05
-0.000325211
7.82941e-05
-0.000344018
8.12997e-05
-0.000363588
8.51096e-05
8.99563e-05
-0.000384187
-6.93261e-07
3.58793e-06
-2.67469e-06
1.02409e-05
-5.90015e-06
1.66561e-05
-1.03225e-05
2.2822e-05
-1.58911e-05
2.87248e-05
-2.25524e-05
3.43532e-05
-3.02504e-05
3.96979e-05
-3.89269e-05
4.47519e-05
-4.85224e-05
4.95106e-05
-5.89761e-05
5.39717e-05
-7.02265e-05
5.81351e-05
-8.2212e-05
6.20026e-05
-9.48709e-05
6.55777e-05
-0.000108142
6.8865e-05
-0.000121962
7.187e-05
-0.000136272
7.45992e-05
-0.000151008
7.70605e-05
-0.00016611
7.92641e-05
-0.000181515
8.12247e-05
-0.000197163
8.29645e-05
-0.000212996
8.45173e-05
-0.000228961
8.59345e-05
-0.000245017
8.72913e-05
-0.000261139
8.86937e-05
-0.00027733
9.02843e-05
-0.000293628
9.22448e-05
-0.000310125
9.47906e-05
-0.000326966
9.81411e-05
-0.000344354
0.000102497
0.000108174
-0.000362571
-6.68147e-07
4.25608e-06
-2.58002e-06
1.21528e-05
-5.69458e-06
1.97707e-05
-9.9672e-06
2.70946e-05
-1.53493e-05
3.41069e-05
-2.1789e-05
4.07928e-05
-2.9231e-05
4.71399e-05
-3.76179e-05
5.31388e-05
-4.68898e-05
5.87825e-05
-5.69853e-05
6.40673e-05
-6.7842e-05
6.89918e-05
-7.93965e-05
7.35571e-05
-9.15845e-05
7.77658e-05
-0.000104341
8.16219e-05
-0.000117602
8.51303e-05
-0.000131299
8.82962e-05
-0.000145364
9.11261e-05
-0.000159729
9.36284e-05
-0.00017432
9.58159e-05
-0.000189064
9.77088e-05
-0.000203887
9.93405e-05
-0.000218717
0.000100764
-0.000233486
0.00010206
-0.000248142
0.00010335
-0.000262656
0.000104798
-0.000277036
0.000106625
-0.000291349
0.000109103
-0.000305727
0.000112519
-0.000320375
0.000117145
0.000123399
-0.0003356
-6.38954e-07
4.89503e-06
-2.4698e-06
1.39836e-05
-5.45492e-06
2.27558e-05
-9.55246e-06
3.11921e-05
-1.4716e-05
3.92705e-05
-2.08952e-05
4.69719e-05
-2.80358e-05
5.42805e-05
-3.60805e-05
6.11835e-05
-4.49694e-05
6.76714e-05
-5.46401e-05
7.3738e-05
-6.50286e-05
7.93803e-05
-7.60692e-05
8.45977e-05
-8.7695e-05
8.93916e-05
-9.98375e-05
9.37644e-05
-0.000112426
9.77191e-05
-0.000125389
0.000101259
-0.00013865
0.000104387
-0.00015213
0.000107108
-0.000165745
0.000109431
-0.000179407
0.000111371
-0.000193023
0.000112956
-0.000206495
0.000114236
-0.000219729
0.000115294
-0.000232636
0.000116257
-0.000245148
0.000117311
-0.000257236
0.000118713
-0.000268928
0.000120795
-0.000280341
0.000123932
-0.000291679
0.000128484
0.000135003
-0.000303283
-6.06193e-07
5.50123e-06
-2.34588e-06
1.57233e-05
-5.18501e-06
2.5595e-05
-9.08455e-06
3.50917e-05
-1.40003e-05
4.41862e-05
-1.98832e-05
5.28548e-05
-2.66799e-05
6.10773e-05
-3.43332e-05
6.88368e-05
-4.27825e-05
7.61207e-05
-5.19642e-05
8.29197e-05
-6.18124e-05
8.92284e-05
-7.22586e-05
9.50439e-05
-8.32322e-05
0.000100365
-9.46604e-05
0.000105193
-0.000106467
0.000109526
-0.000118573
0.000113365
-0.000130895
0.000116709
-0.000143343
0.000119556
-0.000155819
0.000121907
-0.000168219
0.000123771
-0.000180427
0.000125165
-0.000192322
0.000126131
-0.000203773
0.000126745
-0.000214651
0.000127136
-0.000224842
0.000127502
-0.000234264
0.000128134
-0.000242899
0.000129431
-0.000250837
0.000131869
-0.000258278
0.000135926
0.000142322
-0.000265598
-5.70438e-07
6.07166e-06
-2.21032e-06
1.73632e-05
-4.88913e-06
2.82738e-05
-8.57054e-06
3.87731e-05
-1.32123e-05
4.8828e-05
-1.87666e-05
5.84092e-05
-2.51806e-05
6.74912e-05
-3.23967e-05
7.60529e-05
-4.03532e-05
8.40772e-05
-4.89849e-05
9.15515e-05
-5.82232e-05
9.84667e-05
-6.79963e-05
0.000104817
-7.82294e-05
0.000110598
-8.88444e-05
0.000115807
-9.97589e-05
0.000120441
-0.000110886
0.000124492
-0.000122132
0.000127955
-0.000133397
0.00013082
-0.000144568
0.000133078
-0.000155522
0.000134725
-0.000166122
0.000135764
-0.000176215
0.000136224
-0.000185634
0.000136164
-0.000194205
0.000135706
-0.000201755
0.000135052
-0.000208139
0.000134518
-0.000213278
0.00013457
-0.000217221
0.000135812
-0.000220158
0.000138863
0.000144644
-0.000222479
-5.32318e-07
6.60398e-06
-2.06537e-06
1.88963e-05
-4.57198e-06
3.07804e-05
-8.01821e-06
4.22193e-05
-1.23634e-05
5.31732e-05
-1.75606e-05
6.36063e-05
-2.35567e-05
7.34874e-05
-3.02936e-05
8.27898e-05
-3.77079e-05
9.14915e-05
-4.57319e-05
9.95754e-05
-5.42936e-05
0.000107028
-6.33174e-05
0.000113841
-7.27231e-05
0.000120004
-8.24264e-05
0.000125511
-9.23379e-05
0.000130352
-0.000102362
0.000134516
-0.000112394
0.000137987
-0.00012232
0.000140747
-0.000132014
0.000142773
-0.000141334
0.000144044
-0.000150116
0.000144547
-0.000158177
0.000144285
-0.00016531
0.000143298
-0.000171288
0.000141684
-0.000175874
0.000139638
-0.000178848
0.000137492
-0.000180049
0.000135771
-0.000179465
0.000135227
-0.000177265
0.000136663
0.000141188
-0.000173809
-4.92503e-07
7.09648e-06
-1.91346e-06
2.03172e-05
-4.23857e-06
3.31055e-05
-7.43582e-06
4.54166e-05
-1.14656e-05
5.7203e-05
-1.6281e-05
6.84218e-05
-2.18285e-05
7.90349e-05
-2.80483e-05
8.90095e-05
-3.48747e-05
9.83179e-05
-4.22367e-05
0.000106937
-5.00583e-05
0.00011485
-5.82587e-05
0.000122041
-6.67516e-05
0.000128497
-7.54455e-05
0.000134205
-8.42422e-05
0.000139149
-9.30358e-05
0.000143309
-0.000101711
0.000146662
-0.000110139
0.000149175
-0.000118177
0.000150811
-0.000125661
0.000151528
-0.000132405
0.00015129
-0.00013819
0.00015007
-0.000142769
0.000147876
-0.000145857
0.000144773
-0.000147148
0.000140929
-0.000146329
0.000136673
-0.000143139
0.000132582
-0.000137482
0.00012957
-0.000129508
0.000128688
0.000131094
-0.000119414
-4.51695e-07
7.54818e-06
-1.75709e-06
2.16226e-05
-3.89413e-06
3.52425e-05
-6.83199e-06
4.83544e-05
-1.05313e-05
6.09023e-05
-1.49447e-05
7.28351e-05
-2.0017e-05
8.41072e-05
-2.5686e-05
9.46785e-05
-3.18829e-05
0.000104515
-3.85324e-05
0.000113587
-4.55534e-05
0.000121871
-5.28586e-05
0.000129346
-6.03546e-05
0.000135993
-6.79411e-05
0.000141791
-7.55098e-05
0.000146717
-8.29433e-05
0.000150743
-9.01124e-05
0.000153831
-9.68735e-05
0.000155936
-0.000103065
0.000157002
-0.0001085
0.000156964
-0.000112966
0.000155756
-0.000116212
0.000153316
-0.000117944
0.000149608
-0.000117823
0.000144651
-0.000115461
0.000138568
-0.000110449
0.000131661
-0.0001024
0.000124532
-9.10805e-05
0.000118251
-7.67162e-05
0.000114324
0.000113587
-5.92095e-05
-4.10606e-07
7.95878e-06
-1.59882e-06
2.28108e-05
-3.54396e-06
3.71877e-05
-6.21547e-06
5.1026e-05
-9.57335e-06
6.42602e-05
-1.35685e-05
7.68303e-05
-1.81434e-05
8.86821e-05
-2.32324e-05
9.97675e-05
-2.87622e-05
0.000110045
-3.46523e-05
0.000119477
-4.08151e-05
0.000128034
-4.71556e-05
0.000135687
-5.35715e-05
0.000142409
-5.99521e-05
0.000148172
-6.61774e-05
0.000152943
-7.2116e-05
0.000156682
-7.76232e-05
0.000159338
-8.25375e-05
0.00016085
-8.66761e-05
0.00016114
-8.98299e-05
0.000160118
-9.17556e-05
0.000157682
-9.21678e-05
0.000153728
-9.07286e-05
0.000148169
-8.70383e-05
0.000140961
-8.06314e-05
0.000132161
-7.09878e-05
0.000122017
-5.75777e-05
0.000111122
-3.9927e-05
0.000100601
-1.79097e-05
9.23066e-05
9.00811e-05
5.59641e-06
-3.69946e-07
8.32873e-06
-1.44119e-06
2.38821e-05
-3.19331e-06
3.89398e-05
-5.59491e-06
5.34276e-05
-8.60416e-06
6.72694e-05
-1.21692e-05
8.03954e-05
-1.62288e-05
9.27417e-05
-2.07127e-05
0.000104251
-2.55419e-05
0.000114874
-3.06292e-05
0.000124564
-3.58789e-05
0.000133284
-4.11869e-05
0.000140995
-4.64401e-05
0.000147662
-5.15153e-05
0.000153247
-5.62782e-05
0.000157706
-6.05813e-05
0.000160985
-6.42614e-05
0.000163018
-6.71358e-05
0.000163725
-6.89981e-05
0.000163003
-6.9612e-05
0.000160732
-6.8703e-05
0.000156773
-6.59486e-05
0.000150974
-6.09653e-05
0.000143186
-5.32947e-05
0.00013329
-4.23907e-05
0.000121257
-2.76182e-05
0.000107245
-8.29174e-06
9.17952e-05
1.62121e-05
7.60967e-05
4.61691e-05
6.23496e-05
5.55478e-05
8.07025e-05
-3.30402e-07
8.65913e-06
-1.28663e-06
2.48383e-05
-2.84722e-06
4.05004e-05
-4.97858e-06
5.55589e-05
-7.63572e-06
6.99266e-05
-1.07627e-05
8.35224e-05
-1.42932e-05
9.62722e-05
-1.81507e-05
0.000108109
-2.22494e-05
0.000118972
-2.64935e-05
0.000128808
-3.07777e-05
0.000137568
-3.49867e-05
0.000145204
-3.89943e-05
0.00015167
-4.26625e-05
0.000156915
-4.584e-05
0.000160883
-4.83596e-05
0.000163504
-5.0036e-05
0.000164695
-5.06616e-05
0.00016435
-5.00019e-05
0.000162343
-4.77888e-05
0.000158519
-4.37125e-05
0.000152696
-3.74099e-05
0.000144671
-2.84501e-05
0.000134226
-1.63156e-05
0.000121156
-3.81542e-07
0.000105323
2.00988e-05
8.67646e-05
4.59855e-05
6.59085e-05
7.81224e-05
4.39598e-05
0.000116966
2.3506e-05
1.03378e-05
0.000162176
-2.92613e-07
8.95175e-06
-1.1374e-06
2.56831e-05
-2.51033e-06
4.18733e-05
-4.37408e-06
5.74227e-05
-6.67897e-06
7.22315e-05
-9.36341e-06
8.62068e-05
-1.23544e-05
9.92632e-05
-1.55679e-05
0.000111322
-1.89091e-05
0.000122314
-2.22721e-05
0.000132171
-2.554e-05
0.000140836
-2.85838e-05
0.000148248
-3.12619e-05
0.000154348
-3.34185e-05
0.000159072
-3.48816e-05
0.000162346
-3.54607e-05
0.000164083
-3.49437e-05
0.000164178
-3.3093e-05
0.0001625
-2.96401e-05
0.00015889
-2.42793e-05
0.000153158
-1.66591e-05
0.000145076
-6.3703e-06
0.000134382
7.0697e-06
0.000120786
2.42381e-05
0.000103987
4.58344e-05
8.37263e-05
7.27134e-05
5.98856e-05
0.0001059
3.27218e-05
0.000146494
3.36626e-06
0.00019534
-2.53399e-05
-4.66283e-05
0.000252306
-2.57152e-07
9.2089e-06
-9.95505e-07
2.64214e-05
-2.1867e-06
4.30645e-05
-3.78801e-06
5.9024e-05
-5.74332e-06
7.41868e-05
-7.98372e-06
8.84472e-05
-1.04278e-05
0.000101707
-1.29822e-05
0.000113877
-1.55412e-05
0.000124873
-1.79867e-05
0.000134617
-2.01878e-05
0.000143037
-2.19996e-05
0.000150059
-2.32618e-05
0.00015561
-2.37972e-05
0.000159607
-2.34094e-05
0.000161958
-2.18798e-05
0.000162554
-1.89642e-05
0.000161262
-1.43882e-05
0.000157924
-7.84261e-06
0.000152344
1.02393e-06
0.000144291
1.26133e-05
0.000133487
2.73889e-05
0.000119607
4.58919e-05
0.000102283
6.8763e-05
8.11161e-05
9.67742e-05
5.57151e-05
0.000130873
2.57864e-05
0.000172235
-8.63941e-06
0.00022222
-4.66195e-05
0.000282079
-8.51988e-05
-0.000116699
0.00035215
-2.24493e-07
9.43339e-06
-8.6257e-07
2.70595e-05
-1.87962e-06
4.40816e-05
-3.22559e-06
6.037e-05
-4.83613e-06
7.57973e-05
-6.63308e-06
9.02441e-05
-8.52486e-06
0.000103599
-1.04065e-05
0.000115758
-1.21595e-05
0.000126626
-1.36513e-05
0.000136109
-1.47343e-05
0.00014412
-1.52446e-05
0.00015057
-1.5e-05
0.000155365
-1.3798e-05
0.000158405
-1.1413e-05
0.000159573
-7.59273e-06
0.000158734
-2.05441e-06
0.000155724
5.52003e-06
0.000150349
1.54895e-05
0.000142375
2.82607e-05
0.00013152
4.4296e-05
0.000117452
6.41244e-05
9.97783e-05
8.83556e-05
7.80515e-05
0.000117701
5.17709e-05
0.000153004
2.0412e-05
0.000195292
-1.65018e-05
0.000245855
-5.92026e-05
0.000306287
-0.000107052
0.00037824
-0.000157151
-0.000201279
0.00046282
-1.9499e-07
9.62838e-06
-7.39768e-07
2.76043e-05
-1.59136e-06
4.49331e-05
-2.69035e-06
6.1469e-05
-3.96213e-06
7.70691e-05
-5.3173e-06
9.15993e-05
-6.65194e-06
0.000104934
-7.84749e-06
0.000116954
-8.77024e-06
0.000127548
-9.27047e-06
0.000136609
-9.18107e-06
0.00014403
-8.31571e-06
0.000149704
-6.46651e-06
0.000153516
-3.40116e-06
0.00015534
1.14052e-06
0.000155032
7.45056e-06
0.000152424
1.58575e-05
0.000147317
2.67318e-05
0.000139475
4.04915e-05
0.000128615
5.76095e-05
0.000114402
7.86211e-05
9.64399e-05
0.000104134
7.42657e-05
0.000134838
4.7347e-05
0.000171527
1.50825e-05
0.000215118
-2.31793e-05
0.000266706
-6.80897e-05
0.000327654
-0.000120151
0.000399722
-0.00017912
0.000484906
-0.000242334
-0.000301747
0.000585373
-1.68851e-07
9.79723e-06
-6.27715e-07
2.80632e-05
-1.32299e-06
4.56284e-05
-2.18374e-06
6.23297e-05
-3.12291e-06
7.80083e-05
-4.03772e-06
9.25141e-05
-4.80968e-06
0.000105706
-5.30422e-06
0.000117449
-5.36985e-06
0.000127614
-4.83683e-06
0.000136076
-3.51525e-06
0.000142709
-1.19266e-06
0.000147382
2.36897e-06
0.000149955
7.43684e-06
0.000150272
1.43115e-05
0.000148157
2.33318e-05
0.000143403
3.48798e-05
0.000135769
4.93875e-05
0.000124967
6.73427e-05
0.00011066
8.9296e-05
9.24489e-05
0.000115868
6.98674e-05
0.000147759
4.2375e-05
0.000185754
9.35201e-06
0.000230738
-2.99009e-05
0.00028371
-7.61515e-05
0.000345821
-0.000130201
0.000418464
-0.000192793
0.00050347
-0.000264126
0.000603047
-0.000341911
-0.000419344
0.000720644
-1.46108e-07
9.94334e-06
-5.26377e-07
2.84434e-05
-1.07419e-06
4.61762e-05
-1.70477e-06
6.29603e-05
-2.31639e-06
7.86199e-05
-2.79052e-06
9.29883e-05
-2.99171e-06
0.000105907
-2.7668e-06
0.000117224
-1.94362e-06
0.000126791
-3.29197e-07
0.000134462
2.29277e-06
0.000140087
6.16511e-06
0.000143509
1.15609e-05
0.000144559
1.87879e-05
0.000143045
2.81935e-05
0.000138751
4.01706e-05
0.000131426
5.51638e-05
0.000120776
7.36759e-05
0.000106455
9.62748e-05
8.80612e-05
0.000123601
6.51232e-05
0.000156372
3.70963e-05
0.000195391
3.35534e-06
0.000241552
-3.68086e-05
0.00029584
-8.41886e-05
0.00035934
-0.000139652
0.000433253
-0.000204114
0.000518956
-0.000278496
0.000618241
-0.000363412
0.000733334
-0.000457003
-0.00055504
0.00086903
-1.266e-07
1.00699e-05
-4.34994e-07
2.87518e-05
-8.43055e-07
4.65843e-05
-1.24979e-06
6.3367e-05
-1.53636e-06
7.89065e-05
-1.56607e-06
9.3018e-05
-1.18386e-06
0.000105525
-2.15139e-07
0.000116255
1.53598e-06
0.00012504
4.28936e-06
0.000131708
8.29185e-06
0.000136084
1.38213e-05
0.00013798
2.11912e-05
0.000137189
3.0756e-05
0.00013348
4.29171e-05
0.00012659
5.81297e-05
0.000116214
7.69091e-05
0.000101996
9.98387e-05
8.35256e-05
0.000127577
6.03234e-05
0.000160862
3.18377e-05
0.000200521
-2.56256e-06
0.000247468
-4.35921e-05
0.000302709
-9.20493e-05
0.000367333
-0.000148812
0.000442507
-0.000214827
0.00052947
-0.000291077
0.00062954
-0.000378566
0.000744352
-0.000478223
0.000875934
-0.000588585
-0.000709353
0.00103025
-1.0995e-07
1.01799e-05
-3.5202e-07
2.89939e-05
-6.26001e-07
4.68583e-05
-8.1219e-07
6.35532e-05
-7.72235e-07
7.88665e-05
-3.48411e-07
9.25941e-05
6.36476e-07
0.00010454
2.38162e-06
0.00011451
5.11029e-06
0.000122311
9.07304e-06
0.000127745
1.45518e-05
0.000130606
2.18646e-05
0.000130667
3.13714e-05
0.000127682
4.34801e-05
0.000121372
5.86535e-05
0.000111417
7.7417e-05
9.74502e-05
0.000100366
7.90475e-05
0.000128172
5.57191e-05
0.000161593
2.69024e-05
0.000201474
-8.04362e-06
0.000248754
-4.98424e-05
0.000304461
-9.92991e-05
0.000369708
-0.000157296
0.000445678
-0.000224782
0.000533602
-0.00030275
0.000634724
-0.0003922
0.000750268
-0.00049411
0.000881574
-0.000609529
0.00103031
-0.000737319
-0.000882123
0.00120308
-9.55618e-08
1.02755e-05
-2.75086e-07
2.91734e-05
-4.17683e-07
4.70009e-05
-3.82314e-07
6.35178e-05
-8.23389e-09
7.84924e-05
8.84921e-07
9.1701e-05
2.50069e-06
0.000102924
5.066e-06
0.000111944
8.83514e-06
0.000118542
1.40938e-05
0.000122487
2.1164e-05
0.000123535
3.04098e-05
0.000121421
4.22438e-05
0.000115848
5.71344e-05
0.000106481
7.56136e-05
9.29375e-05
9.8285e-05
7.47788e-05
0.000125831
5.15012e-05
0.000159022
2.25286e-05
0.000198717
-1.2793e-05
0.000245873
-5.51994e-05
0.000301538
-0.000105507
0.000366845
-0.000164606
0.000442999
-0.00023345
0.000531246
-0.000313029
0.000632838
-0.000404342
0.000748975
-0.000508337
0.00088073
-0.000625865
0.001029
-0.0007578
0.00119505
-0.000903365
-0.00107225
0.00138517
-8.26094e-08
1.03581e-05
-2.00993e-07
2.92918e-05
-2.1108e-07
4.7011e-05
5.23286e-08
6.32544e-05
7.7426e-07
7.77705e-05
2.16269e-06
9.03126e-05
4.44895e-06
0.000100638
7.8917e-06
0.000108502
1.27806e-05
0.000113653
1.94413e-05
0.000115826
2.82413e-05
0.000114735
3.95967e-05
0.000110066
5.39795e-05
0.000101465
7.19261e-05
8.85345e-05
9.40448e-05
7.08188e-05
0.000121025
4.77988e-05
0.000153643
1.88832e-05
0.000192769
-1.65974e-05
0.000239369
-5.93936e-05
0.000294505
-0.000110335
0.000359324
-0.000170326
0.000435044
-0.000240326
0.000522925
-0.000321331
0.000624228
-0.000414332
0.000740155
-0.000520269
0.000871777
-0.000639959
0.00101994
-0.000774031
0.00118495
-0.00092281
0.00136777
-0.00108618
-0.00127738
0.00157291
-7.00481e-08
1.04281e-05
-1.25664e-07
2.93474e-05
3.43213e-09
4.68819e-05
5.07426e-07
6.27504e-05
1.60071e-06
7.66772e-05
3.52026e-06
8.8393e-05
6.5297e-06
9.76283e-05
1.09232e-05
0.000104108
1.70302e-05
0.000107546
2.52215e-05
0.000107635
3.59158e-05
0.000104041
4.95876e-05
9.63941e-05
6.67753e-05
8.42776e-05
8.80898e-05
6.72201e-05
0.000114223
4.46858e-05
0.000145954
1.60673e-05
0.000184158
-1.93211e-05
0.000229807
-6.22457e-05
0.000283966
-0.000113552
0.000347788
-0.000174158
0.000422498
-0.000245036
0.00050936
-0.000327188
0.000609636
-0.000421607
0.000724526
-0.000529222
0.00085509
-0.000650833
0.00100215
-0.000787023
0.00116623
-0.000938111
0.00134691
-0.00110348
0.00154509
-0.00128436
-0.00149366
0.00176137
-5.67055e-08
1.04848e-05
-4.4769e-08
2.93355e-05
2.34099e-07
4.6603e-05
1.00074e-06
6.19838e-05
2.49872e-06
7.51792e-05
4.99816e-06
8.58936e-05
8.79866e-06
9.38278e-05
1.42342e-05
9.86727e-05
2.16789e-05
0.000100101
3.1554e-05
9.77597e-05
4.43355e-05
9.12595e-05
6.05627e-05
8.0167e-05
8.08465e-05
6.39938e-05
0.000105879
4.2188e-05
0.000136439
1.41256e-05
0.000173401
-2.0895e-05
0.000217736
-6.36563e-05
0.00027051
-0.00011502
0.000332875
-0.000175917
0.000406053
-0.000247335
0.000491302
-0.000330286
0.000589879
-0.000425765
0.000702974
-0.000534702
0.000831632
-0.000657879
0.000976653
-0.000795855
0.00113848
-0.000948852
0.00131716
-0.00111678
0.00151149
-0.00129781
0.00172256
-0.00149543
-0.00171562
0.00194452
-4.11405e-08
1.0526e-05
4.72692e-08
2.92471e-05
4.9449e-07
4.61558e-05
1.55278e-06
6.09255e-05
3.49967e-06
7.32323e-05
6.64142e-06
8.27518e-05
1.13174e-05
8.91519e-05
1.79058e-05
9.20843e-05
2.68305e-05
9.11764e-05
3.85687e-05
8.60215e-05
5.36595e-05
7.61687e-05
7.27128e-05
6.11137e-05
9.64178e-05
4.02887e-05
0.000125551
1.30544e-05
0.000160983
-2.13064e-05
0.00020368
-6.35918e-05
0.000254702
-0.000114678
0.000315195
-0.000175512
0.000386371
-0.000247093
0.000469479
-0.000330444
0.00056576
-0.000426567
0.000676386
-0.000536391
0.00080238
-0.000660696
0.000944521
-0.00080002
0.00110323
-0.000954564
0.00127844
-0.00112407
0.00146954
-0.00130788
0.00167469
-0.00150296
0.00189476
-0.00171551
-0.00193633
0.00211547
-2.18509e-08
1.05478e-05
1.56046e-07
2.90692e-05
7.96189e-07
4.55156e-05
2.18514e-06
5.95366e-05
4.63712e-06
7.07803e-05
8.49811e-06
7.88908e-05
1.41513e-05
8.34987e-05
2.20237e-05
8.42119e-05
3.25939e-05
8.06063e-05
4.64004e-05
7.22149e-05
6.4051e-05
5.85182e-05
8.6231e-05
3.89337e-05
0.000113712
1.28079e-05
0.000147357
-2.05906e-05
0.000188124
-6.2074e-05
0.000237065
-0.000112533
0.000295315
-0.000172928
0.000364072
-0.000244269
0.00044457
-0.000327591
0.000538031
-0.000423904
0.000645602
-0.000534138
0.000768278
-0.000659067
0.000906806
-0.000799224
0.00106158
-0.000954794
0.00123253
-0.00112551
0.00141902
-0.00131056
0.00161968
-0.00150854
0.00183235
-0.00171564
0.00205588
-0.00193904
-0.00214742
0.00226697
2.7365e-09
1.05451e-05
2.87511e-07
2.87844e-05
1.15218e-06
4.4651e-05
2.92028e-06
5.77685e-05
5.94571e-06
6.77549e-05
1.06178e-05
7.42188e-05
1.73675e-05
7.6749e-05
2.66751e-05
7.49042e-05
3.90789e-05
6.82025e-05
5.51836e-05
5.61102e-05
7.56698e-05
3.8032e-05
0.000101302
1.33016e-05
0.000132935
-1.88248e-05
0.000171516
-5.91718e-05
0.000218084
-0.000108643
0.000273761
-0.00016821
0.00033973
-0.000238896
0.000417206
-0.000321745
0.000507388
-0.000417774
0.0006114
-0.000527916
0.000730205
-0.000652943
0.000864514
-0.000793377
0.00101468
-0.000949392
0.0011806
-0.00112071
0.00136162
-0.00130653
0.00155648
-0.00150542
0.00176323
-0.00171528
0.00198004
-0.00193245
0.00220151
-0.00216051
-0.00234042
0.00239451
3.42007e-08
1.05109e-05
4.47579e-07
2.8371e-05
1.57541e-06
4.35231e-05
3.78071e-06
5.55632e-05
7.46005e-06
6.40756e-05
1.30495e-05
6.86293e-05
2.10319e-05
6.87666e-05
3.19452e-05
6.3991e-05
4.63913e-05
5.37564e-05
6.50453e-05
3.74562e-05
8.86637e-05
1.44136e-05
0.000118091
-1.61256e-05
0.000154262
-5.49962e-05
0.000198203
-0.000103112
0.000251017
-0.000161457
0.000313872
-0.000231065
0.000387964
-0.000312988
0.000474471
-0.000408252
0.000574492
-0.000517795
0.000688963
-0.000642387
0.000818564
-0.000782543
0.00096361
-0.000938423
0.00112395
-0.00110973
0.00129888
-0.00129564
0.00148709
-0.00149473
0.00168669
-0.00170502
0.00189518
-0.00192378
0.00211101
-0.00214829
0.00232856
-0.00237806
-0.00258399
0.00257213
7.40856e-08
1.04368e-05
6.42038e-07
2.78031e-05
2.07844e-06
4.20867e-05
4.78818e-06
5.28534e-05
9.21339e-06
5.96504e-05
1.58403e-05
6.20024e-05
2.52072e-05
5.93997e-05
3.79133e-05
5.12849e-05
5.4628e-05
3.70417e-05
7.60991e-05
1.59851e-05
0.00010316
-1.26469e-05
0.000136731
-4.96974e-05
0.000177824
-9.60888e-05
0.000227525
-0.000152814
0.000286984
-0.000220916
0.000357377
-0.000301458
0.000439865
-0.000395475
0.000535525
-0.000503912
0.000645273
-0.000627543
0.000769766
-0.00076688
0.000909293
-0.000922071
0.00106367
-0.0010928
0.00123217
-0.00127822
0.0014134
-0.00147688
0.00160541
-0.00168674
0.00180569
-0.00190529
0.00201134
-0.00212943
0.00221992
-0.00235686
0.0024267
-0.00258484
-0.00280018
0.00264289
1.23832e-07
1.0313e-05
8.76294e-07
2.70506e-05
2.67299e-06
4.029e-05
5.9629e-06
4.95635e-05
1.12364e-05
5.43768e-05
1.9033e-05
5.42059e-05
2.99495e-05
4.84832e-05
4.46497e-05
3.65847e-05
6.38722e-05
1.78192e-05
8.84382e-05
-8.58091e-06
0.000119255
-4.34639e-05
0.000157316
-8.77582e-05
0.000203691
-0.000142464
0.000259511
-0.000208633
0.000325935
-0.00028734
0.000404106
-0.000379629
0.000495088
-0.000486457
0.000599784
-0.000608608
0.000718838
-0.000746597
0.000852531
-0.000900573
0.00100067
-0.00107021
0.0011625
-0.00125463
0.00133664
-0.00145236
0.00152107
-0.00166132
0.00171322
-0.00187889
0.0019101
-0.00210217
0.00210854
-0.00232787
0.00230547
-0.00255379
0.00249724
-0.00277661
-0.00299043
0.0026875
1.84743e-07
1.01282e-05
1.15522e-06
2.60801e-05
3.36958e-06
3.80757e-05
7.32292e-06
4.56102e-05
1.35563e-05
4.81434e-05
2.26649e-05
4.50972e-05
3.53069e-05
3.58412e-05
5.22119e-05
1.96797e-05
7.41888e-05
-4.15768e-06
0.00010213
-3.65219e-05
0.000137011
-7.83448e-05
0.000179884
-0.000130632
0.000231862
-0.000194442
0.000294088
-0.000270859
0.000367692
-0.000360943
0.000453726
-0.000465664
0.00055309
-0.000585821
0.000666428
-0.000721946
0.000794027
-0.000874196
0.000935704
-0.00104225
0.00109071
-0.00122522
0.00125769
-0.00142161
0.00143462
-0.00162929
0.00161892
-0.00184562
0.00180759
-0.00206756
0.00199735
-0.00229193
0.00218501
-0.00251554
0.00236757
-0.00273635
0.00254209
-0.00295113
-0.0031587
0.00271035
2.57948e-07
9.87026e-06
1.48304e-06
2.4855e-05
4.17724e-06
3.53815e-05
8.88352e-06
4.09039e-05
1.61956e-05
4.08314e-05
2.67664e-05
3.45265e-05
4.13166e-05
2.1291e-05
6.06423e-05
3.53905e-07
8.56205e-05
-2.91359e-05
0.000117209
-6.81108e-05
0.000156443
-0.000117578
0.000204416
-0.000178604
0.000262256
-0.000252282
0.000331082
-0.000339685
0.000411942
-0.000441803
0.000505738
-0.00055946
0.000613127
-0.00069321
0.000734415
-0.000843235
0.000869449
-0.00100923
0.00101752
-0.00119032
0.0011773
-0.001385
0.00134681
-0.00159112
0.00152352
-0.001806
0.00170441
-0.00202652
0.00188625
-0.0022494
0.00206581
-0.00247148
0.00224015
-0.00268988
0.00240674
-0.00290294
0.00256361
-0.00310801
-0.00330687
0.00271179
3.44386e-07
9.52587e-06
1.86322e-06
2.33362e-05
5.10332e-06
3.21414e-05
1.06569e-05
3.53504e-05
1.91717e-05
3.23166e-05
3.13594e-05
2.23387e-05
4.80037e-05
4.64672e-06
6.99655e-05
-2.16078e-05
9.8185e-05
-5.73554e-05
0.000133678
-0.000103603
0.00017752
-0.000161421
0.000230826
-0.00023191
0.000294705
-0.000316161
0.000370205
-0.000415185
0.000458236
-0.000529835
0.000559479
-0.000660702
0.000674273
-0.000808004
0.000802513
-0.000971475
0.000943547
-0.00115026
0.0010961
-0.00134288
0.00125828
-0.00154718
0.00142759
-0.00176043
0.00160108
-0.00197949
0.00177555
-0.00220098
0.00194777
-0.00242163
0.00211483
-0.00263854
0.00227432
-0.00284937
0.00242443
-0.00305305
0.00256423
-0.0032478
-0.00343729
0.00269464
4.44802e-07
9.08107e-06
2.29846e-06
2.14825e-05
6.15335e-06
2.82865e-05
1.26518e-05
2.8852e-05
2.24963e-05
2.24721e-05
3.64575e-05
8.37742e-06
5.53803e-05
-1.42761e-05
8.01865e-05
-4.6414e-05
0.000111872
-8.90411e-05
0.000151496
-0.000143228
0.000200158
-0.000210083
0.00025896
-0.000290712
0.000328951
-0.000386153
0.000411059
-0.000497293
0.000505992
-0.000624768
0.000614138
-0.000768848
0.000735453
-0.000929319
0.00086936
-0.00110538
0.00101467
-0.00129558
0.00116958
-0.00149778
0.00133166
-0.00170926
0.00149805
-0.00192681
0.00166557
-0.00214701
0.00183105
-0.00236646
0.00199156
-0.00258214
0.0021447
-0.00279167
0.00228877
-0.00299344
0.0024228
-0.00318709
0.00254677
-0.00337177
-0.00355228
0.00266176
5.59747e-07
8.52133e-06
2.79066e-06
1.92516e-05
7.33101e-06
2.37461e-05
1.48735e-05
2.13095e-05
2.61752e-05
1.11703e-05
4.20645e-05
-7.51185e-06
6.34441e-05
-3.56556e-05
9.129e-05
-7.426e-05
0.000126643
-0.000124394
0.000170587
-0.000187172
0.000224219
-0.000263714
0.000288591
-0.000355085
0.00036465
-0.000462211
0.000453141
-0.000585784
0.000554509
-0.000726135
0.000668784
-0.000883123
0.000795483
-0.00105602
0.000933524
-0.00124342
0.0010812
-0.00144325
0.00123619
-0.00165278
0.0013957
-0.00186877
0.00155664
-0.00208775
0.00171584
-0.00230621
0.00187039
-0.00252101
0.00201786
-0.00272961
0.0021565
-0.00293032
0.0022854
-0.00312234
0.0024044
-0.00330608
0.0025142
-0.00348158
-0.00365416
0.00261609
6.89601e-07
7.83172e-06
3.341e-06
1.66002e-05
8.63815e-06
1.8449e-05
1.73237e-05
1.26239e-05
3.02083e-05
-1.71431e-06
4.81748e-05
-2.54783e-05
7.21782e-05
-5.96591e-05
0.000103239
-0.000105321
0.000142428
-0.000163582
0.000190832
-0.000235576
0.00024951
-0.000322392
0.000319428
-0.000425003
0.000401374
-0.000544157
0.000495855
-0.000680265
0.00060299
-0.00083327
0.0007224
-0.00100253
0.000853126
-0.00118674
0.000993582
-0.00138388
0.00114158
-0.00159124
0.00129441
-0.00180561
0.00144904
-0.00202341
0.00160236
-0.00224107
0.00175143
-0.00245528
0.00189378
-0.00266336
0.0020276
-0.00286343
0.0021519
-0.00305461
0.0022665
-0.00323694
0.00237191
-0.0034115
0.00246939
-0.00357905
-0.00374509
0.00256032
8.3458e-07
6.99714e-06
3.94989e-06
1.34849e-05
1.00748e-05
1.2324e-05
2.00008e-05
2.69795e-06
3.45891e-05
-1.63027e-05
5.47727e-05
-4.56618e-05
8.15509e-05
-8.64373e-05
0.000115976
-0.000139747
0.000159128
-0.000206734
0.000212069
-0.000288517
0.000275787
-0.00038611
0.000351111
-0.000500328
0.00043862
-0.000631666
0.000538525
-0.00078017
0.000650569
-0.000945313
0.000773926
-0.00112589
0.000907155
-0.00131997
0.0010482
-0.00152492
0.00119448
-0.00173752
0.00134303
-0.00195416