/*--------------------------------*- C++ -*----------------------------------*\
  =========                 |
  \\      /  F ield         | OpenFOAM: The Open Source CFD Toolbox
   \\    /   O peration     | Website:  https://openfoam.org
    \\  /    A nd           | Version:  7
     \\/     M anipulation  |
\*---------------------------------------------------------------------------*/
FoamFile
{
    version     2.0;
    format      ascii;
    class       volVectorField;
    location    "43";
    object      U;
}
// * * * * * * * * * * * * * * * * * * * * * * * * * * * * * * * * * * * * * //

dimensions      [0 1 -1 0 0 0 0];

internalField   nonuniform List<vector> 
40000
(
(-0.000176574 0.000263081 -1.87713e-21)
(-0.00111028 0.000714615 5.81475e-21)
(-0.0031087 0.00110117 -3.71125e-21)
(-0.00592888 0.00142919 -3.93239e-24)
(-0.00943695 0.00170336 -8.55772e-25)
(-0.0135426 0.00192779 2.87819e-24)
(-0.0181523 0.00210654 -6.16903e-21)
(-0.023175 0.00224361 1.46687e-21)
(-0.0285258 0.00234282 -4.18772e-21)
(-0.0341262 0.00240784 -1.32512e-21)
(-0.0399037 0.00244221 0)
(-0.0457917 0.00244926 -4.77296e-21)
(-0.0517299 0.00243217 0)
(-0.0576639 0.00239396 0)
(-0.0635454 0.00233746 -4.04651e-21)
(-0.0693314 0.00226538 3.82346e-21)
(-0.0749848 0.00218032 -1.80553e-21)
(-0.0804738 0.00208485 -1.51839e-24)
(-0.085772 0.00198154 1.60424e-21)
(-0.0908588 0.0018731 0)
(-0.0957197 0.00176244 -1.42337e-21)
(-0.100347 0.00165275 -4.01607e-21)
(-0.104741 0.00154757 5.03224e-21)
(-0.10891 0.00145079 -2.36331e-21)
(-0.112872 0.00136653 6.65399e-21)
(-0.116656 0.00129898 4.1612e-21)
(-0.120301 0.00125193 -7.80166e-21)
(-0.123853 0.00122802 7.30933e-21)
(-0.127361 0.00122876 -1.71097e-21)
(-0.130894 0.00125776 -3.20785e-21)
(-0.000205011 0.000840479 0)
(-0.00118372 0.00228381 3.87967e-21)
(-0.00321363 0.00352135 7.43489e-21)
(-0.00605418 0.00457283 -7.09543e-21)
(-0.00957291 0.00545284 -3.39999e-21)
(-0.0136805 0.00617427 1.29464e-20)
(-0.0182844 0.00675012 -3.09041e-21)
(-0.0232943 0.00719311 -5.88433e-21)
(-0.0286262 0.0075156 -8.29851e-24)
(-0.0342021 0.00772953 -1.59232e-20)
(-0.03995 0.00784637 5.03175e-21)
(-0.0458039 0.00787704 1.90991e-20)
(-0.0517038 0.00783193 -9.04344e-21)
(-0.0575956 0.00772078 -4.63631e-24)
(-0.0634312 0.00755277 -4.05382e-21)
(-0.0691677 0.00733651 -1.54713e-24)
(-0.0747679 0.00708017 0)
(-0.0802 0.00679163 0)
(-0.0854372 0.00647871 1.28451e-20)
(-0.0904587 0.00614946 0)
(-0.0952493 0.00581239 5.6945e-21)
(-0.0998007 0.00547683 -5.35462e-21)
(-0.104112 0.00515307 -7.40626e-25)
(-0.108191 0.00485238 0)
(-0.112056 0.00458679 8.87471e-21)
(-0.115734 0.00436849 -8.32239e-21)
(-0.119266 0.00420853 7.80165e-21)
(-0.122698 0.00411447 -7.30932e-21)
(-0.126075 0.00409038 6.84392e-21)
(-0.12947 0.0041462 -1.92484e-20)
(-0.000262098 0.00141005 -7.52321e-21)
(-0.00133116 0.00383258 -7.75463e-21)
(-0.00342428 0.00591126 0)
(-0.00630567 0.00767863 0)
(-0.00984574 0.00915879 0)
(-0.0139571 0.0103732 6.48855e-21)
(-0.0185492 0.0113434 0)
(-0.0235332 0.0120907 5.8758e-21)
(-0.0288268 0.0126358 1.11742e-20)
(-0.0343532 0.0129987 1.06144e-20)
(-0.0400415 0.0131986 0)
(-0.0458266 0.013254 6.76103e-24)
(-0.0516493 0.0131822 -1.81046e-20)
(-0.0574561 0.0129997 1.71344e-20)
(-0.0631991 0.0127219 8.09608e-21)
(-0.0688358 0.0123631 7.6552e-21)
(-0.074329 0.011937 -7.2204e-21)
(-0.0796465 0.0114566 1.36344e-20)
(-0.0847612 0.0109349 -2.56972e-20)
(-0.0896512 0.010385 -8.44784e-26)
(-0.0943005 0.00982102 -2.27806e-20)
(-0.0986994 0.00925826 2.14323e-20)
(-0.102846 0.00871372 0)
(-0.106745 0.00820619 0)
(-0.110415 0.00775587 8.8805e-21)
(-0.113881 0.00738346 0)
(-0.117185 0.007108 0)
(-0.120374 0.00694282 0)
(-0.123489 0.00689569 -1.36912e-20)
(-0.126608 0.00698329 1.28317e-20)
(-0.000346948 0.00196663 7.52321e-21)
(-0.00155042 0.00534744 8.14607e-24)
(-0.00373765 0.0082509 3.69976e-23)
(-0.00667992 0.0107215 -1.42144e-20)
(-0.0102518 0.0127923 -1.35832e-20)
(-0.0143689 0.0144929 1.68924e-23)
(-0.0189432 0.0158528 -2.47219e-20)
(-0.0238886 0.0169017 1.17742e-20)
(-0.0291248 0.0176682 -2.23901e-20)
(-0.0345769 0.01818 2.1267e-20)
(-0.0401758 0.018464 -1.00901e-20)
(-0.0458575 0.0185458 1.91307e-20)
(-0.0515641 0.0184497 1.81046e-20)
(-0.057243 0.0181985 1.58724e-23)
(-0.0628468 0.0178137 -1.62171e-20)
(-0.0683334 0.0173151 0)
(-0.0736654 0.0167218 7.37846e-25)
(-0.0788105 0.0160517 1.36431e-20)
(-0.0837407 0.0153226 9.56638e-25)
(-0.088433 0.0145526 -7.48169e-24)
(-0.0928698 0.013761 2.27877e-20)
(-0.0970394 0.012969 -2.14322e-20)
(-0.100937 0.0122002 0)
(-0.104567 0.011481 1.89281e-20)
(-0.107943 0.0108403 3.7307e-24)
(-0.11109 0.0103081 -4.99699e-20)
(-0.11405 0.00991259 1.56125e-20)
(-0.116873 0.00967453 2.92542e-20)
(-0.119593 0.00960732 1.36911e-20)
(-0.122296 0.00973543 1.28369e-20)
(-0.000458251 0.00250532 3.02065e-20)
(-0.00183825 0.0068155 -1.55645e-20)
(-0.00414932 0.0105211 1.48846e-20)
(-0.00717186 0.0136773 1.42446e-20)
(-0.0107858 0.0163256 0)
(-0.0149104 0.0185026 -2.60027e-20)
(-0.0194613 0.0202459 -1.24067e-20)
(-0.0243556 0.0215924 -2.35671e-20)
(-0.0295156 0.0225783 1.11955e-20)
(-0.0348692 0.0232389 2.84254e-23)
(-0.040349 0.0236082 2.02068e-20)
(-0.0458931 0.0237187 1.91767e-20)
(-0.0514449 0.0236013 -3.62627e-20)
(-0.056953 0.023285 1.71704e-20)
(-0.0623708 0.022797 -1.84542e-23)
(-0.0676566 0.0221626 0)
(-0.0727731 0.0214057 -1.44651e-20)
(-0.0776873 0.020549 -2.73187e-20)
(-0.0823706 0.0196147 3.86216e-20)
(-0.0867984 0.0186256 1.21364e-20)
(-0.090951 0.0176058 0)
(-0.0948139 0.0165819 -2.14644e-20)
(-0.0983795 0.0155842 0)
(-0.101648 0.0146467 -5.68037e-20)
(-0.104631 0.0138076 3.55357e-20)
(-0.107351 0.0131072 -4.8196e-24)
(-0.10985 0.0125849 3.12433e-20)
(-0.112182 0.012271 -4.38803e-20)
(-0.114371 0.0121877 2.73982e-20)
(-0.116512 0.0123693 1.28366e-20)
(-0.000594313 0.00302152 -1.51234e-20)
(-0.00219047 0.00822471 1.55638e-20)
(-0.00465356 0.0127037 -1.46267e-24)
(-0.00777487 0.0165233 -4.2859e-20)
(-0.0114407 0.0197319 0)
(-0.0155748 0.0223731 2.60027e-20)
(-0.0200969 0.024491 -2.48575e-20)
(-0.0249279 0.0261297 4.71663e-20)
(-0.0299936 0.0273325 0)
(-0.0352245 0.0281414 -2.12954e-20)
(-0.0405561 0.0285972 -2.02068e-20)
(-0.0459285 0.028739 -1.9156e-20)
(-0.0512869 0.028604 -5.4505e-20)
(-0.0565813 0.028227 2.49172e-24)
(-0.061766 0.0276407 -1.73858e-23)
(-0.0667999 0.0268755 -1.35753e-23)
(-0.0716458 0.0259598 4.34804e-20)
(-0.0762703 0.0249207 -3.34818e-23)
(-0.0806434 0.0237844 3.03127e-23)
(-0.0847389 0.0225778 -2.42432e-20)
(-0.0885346 0.0213294 -1.91495e-23)
(-0.0920127 0.0200709 4.2941e-20)
(-0.0951616 0.0188387 -6.05554e-20)
(-0.0979775 0.0176747 1.89413e-20)
(-0.100467 0.0166267 0)
(-0.10265 0.015747 0)
(-0.104568 0.0150883 -3.12431e-20)
(-0.10628 0.0146938 2.92758e-20)
(-0.107797 0.0145989 -2.7393e-20)
(-0.109226 0.0148516 0)
(-0.000753106 0.00351108 -1.51738e-20)
(-0.00260205 0.00956402 0)
(-0.00524347 0.0147821 1.49499e-20)
(-0.00848102 0.0192381 8.59011e-20)
(-0.0122082 0.0229866 -2.73121e-20)
(-0.0163536 0.0260765 0)
(-0.0208417 0.0285584 -5.11708e-23)
(-0.0255977 0.0304825 2.36581e-20)
(-0.0305512 0.0318983 -2.24647e-20)
(-0.0356361 0.0328544 0)
(-0.0407907 0.0333977 0)
(-0.0459575 0.0335736 -3.84363e-20)
(-0.0510839 0.0334251 5.45329e-20)
(-0.0561214 0.0329926 -1.71993e-20)
(-0.0610256 0.0323137 0)
(-0.0657559 0.0314237 3.07522e-20)
(-0.0702753 0.0303552 -2.8975e-20)
(-0.0745498 0.029139 2.73713e-20)
(-0.0785482 0.027805 -5.15667e-20)
(-0.0822424 0.0263835 -7.28994e-20)
(-0.085607 0.0249069 2.28482e-20)
(-0.0886206 0.0234113 2.1499e-20)
(-0.0912666 0.0219387 2.01808e-20)
(-0.093536 0.0205386 0)
(-0.0954294 0.019269 -3.5605e-20)
(-0.0969624 0.0181957 0)
(-0.0981763 0.0173874 0)
(-0.0991344 0.0169049 -5.85634e-20)
(-0.0998351 0.0168027 -1.02036e-23)
(-0.100389 0.0171493 -7.70272e-20)
(-0.000932316 0.00397034 1.51738e-20)
(-0.00306725 0.0108236 3.1386e-20)
(-0.00591115 0.0167413 3.00528e-20)
(-0.00928116 0.0218026 -2.8659e-20)
(-0.0130785 0.0260666 0)
(-0.017237 0.0295872 0)
(-0.0216862 0.03242 2.48719e-20)
(-0.026356 0.0346207 -2.37074e-20)
(-0.03118 0.0362446 -3.85133e-23)
(-0.0360958 0.0373459 4.28277e-20)
(-0.0410448 0.0379774 0)
(-0.0459724 0.0381901 3.84361e-20)
(-0.0508281 0.0380324 0)
(-0.0555652 0.0375498 0)
(-0.0601406 0.036785 1.72344e-23)
(-0.0645147 0.0357771 3.07767e-20)
(-0.0686503 0.0345628 -2.90721e-20)
(-0.0725131 0.0331761 5.4834e-20)
(-0.0760705 0.0316501 -2.5839e-20)
(-0.0792921 0.0300178 7.29405e-20)
(-0.0821493 0.0283146 0)
(-0.0846162 0.0265802 0)
(-0.0866708 0.0248615 4.0468e-20)
(-0.0882975 0.023215 0)
(-0.0894899 0.0217091 3.55798e-20)
(-0.0902569 0.0204244 -3.3401e-20)
(-0.0906383 0.0194493 3.12754e-20)
(-0.0907034 0.0188673 -2.92965e-20)
(-0.0904344 0.0187607 5.48267e-20)
(-0.0899356 0.0192285 7.70583e-20)
(-0.00112942 0.00439618 0)
(-0.00357977 0.0119949 -3.1386e-20)
(-0.0066479 0.0185683 8.99673e-23)
(-0.0101652 0.0241995 0)
(-0.0140408 0.0289515 -5.50073e-20)
(-0.0182141 0.0328817 -3.5161e-23)
(-0.0226197 0.0360499 2.49441e-20)
(-0.0271923 0.0385167 0)
(-0.0318699 0.040342 2.255e-20)
(-0.036594 0.0415854 -4.28275e-20)
(-0.0413091 0.0423049 0)
(-0.0459637 0.0425565 0)
(-0.0505097 0.0423939 -3.65198e-20)
(-0.0549023 0.0418671 3.45256e-20)
(-0.0590999 0.0410232 -3.26227e-20)
(-0.0630635 0.0399054 0)
(-0.0667563 0.0385534 -2.91563e-20)
(-0.0701433 0.0370044 -8.23419e-20)
(-0.0731905 0.0352936 -1.25614e-23)
(-0.0758652 0.0334563 -8.95568e-24)
(-0.0781353 0.0315299 2.29194e-20)
(-0.0799699 0.0295566 4.31021e-20)
(-0.0813408 0.027587 -8.09605e-20)
(-0.0822247 0.025684 3.80325e-20)
(-0.0826067 0.0239259 -6.08868e-24)
(-0.082487 0.022409 2.30541e-23)
(-0.0819011 0.0212448 2.50898e-23)
(-0.0809266 0.0205469 2.93182e-20)
(-0.0795274 0.020435 0)
(-0.0777733 0.0210534 0)
(-0.00134173 0.00478611 3.06338e-20)
(-0.00413291 0.0130711 9.90763e-23)
(-0.00744446 0.0202519 9.80078e-23)
(-0.0111223 0.0264143 -5.77867e-20)
(-0.0150835 0.0316232 5.50466e-20)
(-0.0192729 0.035939 0)
(-0.0236302 0.0394247 0)
(-0.028095 0.0421445 4.76456e-20)
(-0.0326096 0.0441629 -4.52421e-20)
(-0.0371194 0.0455437 3.84236e-23)
(-0.0415724 0.0463499 8.15691e-20)
(-0.0459201 0.046642 3.86501e-20)
(-0.0501169 0.0464781 -7.31663e-20)
(-0.0541199 0.045913 3.45981e-20)
(-0.057889 0.0449974 3.27278e-20)
(-0.061386 0.043778 -3.0892e-20)
(-0.0645744 0.0422976 5.82763e-20)
(-0.0674184 0.0405957 8.25673e-20)
(-0.0698828 0.0387093 5.18889e-20)
(-0.071932 0.036675 2.4411e-20)
(-0.0735303 0.0345311 -4.59097e-20)
(-0.0746417 0.0323214 0)
(-0.0752309 0.0300986 3.44455e-23)
(-0.0752662 0.0279303 3.81059e-20)
(-0.0747224 0.0259039 3.56746e-20)
(-0.0735885 0.0241317 -6.69469e-20)
(-0.0718926 0.0227514 -3.13372e-20)
(-0.0697221 0.0219144 5.86404e-20)
(-0.0670266 0.021789 0)
(-0.0637763 0.0225819 -5.12984e-20)
(-0.00156652 0.00513826 3.07077e-20)
(-0.00471976 0.0140467 -6.32679e-20)
(-0.00829118 0.0217834 2.17982e-23)
(-0.0121411 0.0284346 -9.68296e-23)
(-0.0161943 0.0340665 0)
(-0.0204006 0.0387409 0)
(-0.0247048 0.0425232 0)
(-0.0290512 0.0454808 -4.77758e-20)
(-0.0333863 0.0476817 4.53657e-20)
(-0.0376593 0.0491936 -4.30328e-20)
(-0.0418219 0.0500836 -8.17003e-20)
(-0.0458282 0.0504164 -2.57082e-23)
(-0.0496352 0.0502545 7.33665e-20)
(-0.0532021 0.0496563 3.47267e-20)
(-0.0564902 0.0486762 0)
(-0.0594619 0.0473642 -6.19946e-20)
(-0.0620809 0.0457655 8.77289e-20)
(-0.0643106 0.0439216 -8.26049e-20)
(-0.0661142 0.0418707 -5.19186e-20)
(-0.0674536 0.0396499 -1.46692e-19)
(-0.068289 0.0372976 -1.31099e-24)
(-0.0685789 0.0348574 7.13237e-24)
(-0.0682806 0.0323828 3.29642e-23)
(-0.0673528 0.0299438 -7.6161e-20)
(-0.065759 0.0276349 1.07224e-19)
(-0.0634741 0.0255837 -5.24881e-23)
(-0.0605142 0.0239562 0)
(-0.0569802 0.0229497 -5.86393e-20)
(-0.0528241 0.0227911 5.48258e-20)
(-0.0477783 0.02377 5.15346e-20)
(-0.00180103 0.00545145 0)
(-0.00533334 0.014918 -3.17928e-20)
(-0.00917828 0.0231562 3.03738e-20)
(-0.0132099 0.0302512 5.80736e-20)
(-0.0173604 0.0362689 2.77781e-20)
(-0.0215838 0.041272 -5.28479e-20)
(-0.0258298 0.0453274 -6.18084e-23)
(-0.0300469 0.0485048 -4.78779e-20)
(-0.0341858 0.0508752 0)
(-0.0381993 0.0525096 4.32677e-20)
(-0.0420422 0.0534787 0)
(-0.0456718 0.0538512 0)
(-0.0490473 0.053693 -7.35126e-20)
(-0.0521296 0.0530663 -6.95015e-20)
(-0.0548814 0.0520288 9.86408e-20)
(-0.0572657 0.0506332 6.19941e-20)
(-0.0592459 0.0489271 6.93308e-23)
(-0.0607848 0.0469533 -5.52031e-20)
(-0.0618434 0.044751 1.03992e-19)
(-0.062381 0.0423571 4.35435e-24)
(-0.0623534 0.0398091 9.21592e-20)
(-0.0617135 0.037149 0)
(-0.0604107 0.0344291 0)
(-0.0583935 0.0317194 7.63352e-20)
(-0.0556128 0.0291185 -1.07222e-19)
(-0.0520272 0.0267669 1.00486e-19)
(-0.0476342 0.0248597 -6.2717e-20)
(-0.0425511 0.0236436 5.86614e-20)
(-0.0367836 0.0234193 -1.09645e-19)
(-0.0295943 0.0246429 5.15824e-20)
(-0.0020426 0.00572516 -3.10252e-20)
(-0.00596684 0.0156829 0)
(-0.0100961 0.0243661 0)
(-0.0143172 0.0318572 -5.84292e-20)
(-0.0185687 0.038221 1.11443e-19)
(-0.0228086 0.0435199 -5.30298e-20)
(-0.0269904 0.0478219 -9.85163e-23)
(-0.0310669 0.0511984 4.80301e-20)
(-0.0349922 0.0537226 0)
(-0.0387226 0.0554686 7.20158e-23)
(-0.0422159 0.05651 1.90221e-23)
(-0.0454319 0.056919 -7.78526e-20)
(-0.048332 0.0567649 -1.48663e-22)
(-0.0508787 0.0561132 -3.48558e-20)
(-0.0530355 0.0550245 -9.88059e-20)
(-0.0547659 0.0535542 6.22029e-20)
(-0.0560326 0.0517519 -5.86696e-20)
(-0.0567972 0.0496617 1.10701e-19)
(-0.0570186 0.047323 -1.0427e-19)
(-0.0566526 0.0447724 -9.81065e-20)
(-0.0556507 0.0420455 3.09091e-23)
(-0.0539595 0.0391817 -4.33623e-20)
(-0.0515205 0.0362298 4.06919e-20)
(-0.0482714 0.0332573 5.22246e-23)
(-0.0441494 0.0303628 -1.07441e-19)
(-0.0390949 0.0276956 -6.70635e-20)
(-0.0330816 0.0254768 1.25454e-19)
(-0.0262316 0.0239966 -1.1732e-19)
(-0.0186606 0.0236518 5.48193e-20)
(-0.00910892 0.0254213 7.98243e-23)
(-0.00228874 0.00595954 9.32381e-20)
(-0.00661371 0.016341 -3.19929e-20)
(-0.0110351 0.0254112 -6.13065e-20)
(-0.0154513 0.0332488 1.75593e-19)
(-0.019806 0.0399162 2.08816e-22)
(-0.0240604 0.0454754 0)
(-0.0281713 0.0499946 0)
(-0.0320947 0.0535464 4.82136e-20)
(-0.035788 0.0562059 -4.57163e-20)
(-0.0392104 0.0580496 4.34496e-20)
(-0.0423224 0.059154 -4.12104e-20)
(-0.0450858 0.0595942 -7.81829e-20)
(-0.0474639 0.0594428 1.47671e-19)
(-0.0494205 0.0587681 -3.49289e-20)
(-0.0509193 0.0576335 6.58718e-20)
(-0.0519237 0.0560969 -1.24656e-19)
(-0.0523955 0.0542096 -1.05533e-23)
(-0.0522942 0.0520171 4.99481e-23)
(-0.051576 0.049559 1.04369e-19)
(-0.0501928 0.0468709 -4.39216e-23)
(-0.048091 0.0439864 0)
(-0.0452107 0.0409412 0)
(-0.0414849 0.0377792 -4.08353e-20)
(-0.0368402 0.034562 -1.52885e-19)
(-0.0311994 0.031384 1.07477e-19)
(-0.0244839 0.0283971 -4.26861e-23)
(-0.0166451 0.0258408 -1.25491e-19)
(-0.00779063 0.0240461 1.17233e-19)
(0.0020086 0.0235623 -5.4856e-20)
(0.0139329 0.025901 5.10529e-20)
(-0.00253715 0.00615535 0)
(-0.00726786 0.0168933 0)
(-0.0119864 0.0262919 6.16564e-20)
(-0.0166009 0.0344245 -1.17452e-19)
(-0.0210593 0.0413511 8.35217e-23)
(-0.0253245 0.0471323 -5.3451e-20)
(-0.0293559 0.0518363 1.52687e-19)
(-0.0331122 0.0555367 -1.45177e-19)
(-0.0365533 0.0583099 -4.05747e-24)
(-0.0396408 0.0602347 -4.35859e-20)
(-0.0423373 0.06139 -1.24098e-19)
(-0.0446063 0.0618538 1.17307e-19)
(-0.0464123 0.0617013 0)
(-0.0477196 0.0610038 0)
(-0.048492 0.0598273 6.60932e-20)
(-0.0486918 0.0582318 1.24999e-19)
(-0.0482789 0.0562707 -5.89186e-20)
(-0.0472102 0.0539904 0)
(-0.045438 0.0514311 -5.22986e-20)
(-0.0429095 0.0486276 1.26124e-23)
(-0.0395652 0.0456111 -4.63419e-20)
(-0.0353377 0.0424135 0)
(-0.0301511 0.0390722 -4.08918e-20)
(-0.0239207 0.0356409 3.82989e-20)
(-0.0165545 0.032205 -7.16456e-20)
(-0.00795384 0.0289117 2.01338e-19)
(0.00195212 0.0260085 -9.03387e-23)
(0.013069 0.023866 5.86285e-20)
(0.0254302 0.0232011 0)
(0.0402259 0.0259129 -5.14443e-20)
(-0.00278582 0.00631394 -6.2797e-20)
(-0.00792375 0.0173424 6.45572e-20)
(-0.0129416 0.0270105 1.55304e-22)
(-0.0177553 0.0353856 -5.89892e-20)
(-0.0223153 0.0425247 0)
(-0.0265854 0.0484872 -1.07394e-19)
(-0.0305267 0.053341 8.32054e-23)
(-0.0340995 0.0571601 4.83658e-20)
(-0.0372658 0.0600225 3.63818e-24)
(-0.0399886 0.0620087 -2.00778e-24)
(-0.0422321 0.0632002 1.24216e-19)
(-0.0439609 0.0636772 3.92482e-20)
(-0.04514 0.0635177 3.72328e-20)
(-0.0457334 0.0627955 -7.02113e-20)
(-0.045704 0.0615793 6.63238e-20)
(-0.0450122 0.0599314 -6.25317e-20)
(-0.043615 0.0579069 5.9036e-20)
(-0.0414654 0.0555537 -5.56421e-20)
(-0.0385107 0.0529127 0)
(-0.0346918 0.0500181 -4.93847e-20)
(-0.0299421 0.0468994 9.26026e-20)
(-0.0241859 0.0435844 4.35768e-20)
(-0.0173371 0.0401044 -4.09277e-20)
(-0.00929942 0.0365032 1.53282e-19)
(3.39226e-05 0.0328535 -3.59211e-20)
(0.0107814 0.0292894 6.71685e-20)
(0.0230394 0.0260536 -6.26654e-20)
(0.0367256 0.0235438 8.76359e-23)
(0.0519455 0.0226345 0)
(0.0701763 0.0256754 -1.01536e-19)
(-0.00303306 0.00643717 -1.1356e-22)
(-0.00857648 0.0176922 -6.48567e-20)
(-0.0138929 0.0275712 0)
(-0.0189038 0.0361356 -5.93916e-20)
(-0.0235607 0.0434392 5.65342e-20)
(-0.0278272 0.04954 -9.55313e-23)
(-0.0316647 0.0545057 0)
(-0.0350346 0.0584109 -8.53178e-23)
(-0.0378998 0.0613349 -4.61647e-20)
(-0.0402242 0.06336 4.38697e-20)
(-0.0419728 0.0645698 0)
(-0.0431105 0.0650471 -7.87105e-20)
(-0.0436017 0.0648722 7.46694e-20)
(-0.0434095 0.0641216 0)
(-0.0424946 0.0628664 0)
(-0.0408143 0.0611711 0)
(-0.0383214 0.059093 0)
(-0.0349634 0.0566818 5.57291e-20)
(-0.0306809 0.0539793 -5.24886e-20)
(-0.0254071 0.0510199 1.48028e-19)
(-0.0190663 0.0478323 -9.28191e-20)
(-0.0115727 0.0444412 -8.70863e-20)
(-0.00282917 0.0408721 1.22696e-19)
(0.00727304 0.037159 6.25816e-23)
(0.0188549 0.0333597 -7.18401e-20)
(0.0320537 0.029588 -6.71667e-20)
(0.046993 0.0260673 -6.27576e-20)
(0.0636018 0.0231958 1.17124e-19)
(0.0820096 0.0219666 -1.09084e-19)
(0.104266 0.0253598 2.02721e-19)
(-0.00327751 0.0065273 1.26712e-19)
(-0.00922181 0.0179476 -1.31631e-22)
(-0.0148333 0.02798 -1.24793e-19)
(-0.0200364 0.0366801 1.19044e-19)
(-0.0247823 0.0440987 -5.68828e-20)
(-0.029033 0.0502929 -5.40651e-20)
(-0.0327493 0.0553304 5.1437e-20)
(-0.0358926 0.0592864 4.88766e-20)
(-0.0384258 0.0622416 -9.28969e-20)
(-0.0403131 0.0642804 -1.32164e-19)
(-0.0415191 0.0654882 -4.16731e-20)
(-0.042008 0.0659503 1.57882e-19)
(-0.0417429 0.0657495 -2.23886e-19)
(-0.0406845 0.0649648 7.05695e-20)
(-0.0387901 0.0636696 0)
(-0.0360124 0.061931 0)
(-0.0322983 0.0598087 0)
(-0.027588 0.0573542 1.11694e-19)
(-0.0218135 0.0546111 -5.25726e-20)
(-0.0148979 0.0516152 -4.95184e-20)
(-0.00675444 0.0483952 -9.29312e-20)
(0.00271477 0.0449744 8.7269e-20)
(0.0136195 0.0413742 -4.09692e-20)
(0.0260818 0.0376203 -7.68263e-20)
(0.0402364 0.0337555 -1.02404e-22)
(0.056236 0.0298691 -1.34265e-19)
(0.0742315 0.0261525 1.88245e-19)
(0.0941621 0.0229705 -1.7579e-19)
(0.116117 0.0213675 5.48694e-20)
(0.14306 0.0251335 -5.03989e-20)
(-0.00351818 0.00658692 -6.35105e-20)
(-0.00985616 0.0181142 6.53558e-20)
(-0.015756 0.0282439 6.24804e-20)
(-0.021143 0.0370262 -1.79365e-19)
(-0.0259661 0.0445097 5.68786e-20)
(-0.0301845 0.050751 5.42875e-20)
(-0.0337574 0.055818 0)
(-0.0366451 0.0597873 0)
(-0.0388098 0.0627411 4.6486e-20)
(-0.0402145 0.0647658 8.8162e-20)
(-0.0408228 0.065949 -1.674e-19)
(-0.040597 0.0663785 -8.69407e-23)
(-0.0394975 0.0661394 0)
(-0.0374814 0.0653132 0)
(-0.034501 0.0639761 -6.67458e-20)
(-0.0305027 0.0621977 3.82532e-23)
(-0.0254254 0.0600401 5.9386e-20)
(-0.0191998 0.0575576 -5.58751e-20)
(-0.0117472 0.0547964 -1.05328e-19)
(-0.0029781 0.0517942 9.89377e-20)
(0.00720769 0.0485815 4.64897e-20)
(0.0189223 0.0451822 -1.31082e-19)
(0.0322899 0.0416163 -8.18647e-20)
(0.0474468 0.0379041 7.69356e-20)
(0.0645402 0.0340757 7.19699e-20)
(0.0837344 0.0301963 6.71931e-20)
(0.105203 0.0264167 0)
(0.128897 0.0230368 0)
(0.154767 0.0210492 1.0874e-19)
(0.187127 0.0252141 0)
(-0.00375437 0.00661881 6.41516e-20)
(-0.0104766 0.0181984 -6.58448e-20)
(-0.0166551 0.0283711 1.25979e-19)
(-0.0222137 0.0371826 -2.77618e-22)
(-0.0270974 0.0446803 0)
(-0.0312617 0.0509212 0)
(-0.0346631 0.0559742 0)
(-0.0372596 0.0599175 -4.92327e-20)
(-0.0390116 0.0628354 4.67487e-20)
(-0.0398803 0.0648164 0)
(-0.0398265 0.0659508 8.37763e-20)
(-0.0388098 0.0663286 7.94212e-20)
(-0.0367863 0.0660377 -7.50785e-20)
(-0.0337078 0.0651621 7.09189e-20)
(-0.0295198 0.0637808 -9.52413e-23)
(-0.0241604 0.061966 -6.31257e-20)
(-0.0175584 0.0597831 -5.95102e-20)
(-0.00963268 0.0572895 1.68045e-19)
(-0.000291051 0.0545344 5.26066e-20)
(0.0105706 0.0515592 -9.9143e-20)
(0.0230685 0.0483977 -4.65249e-20)
(0.037331 0.0450764 4.36834e-20)
(0.0534982 0.041617 0)
(0.0717205 0.0380382 -7.68131e-20)
(0.092156 0.0343627 -7.18773e-20)
(0.114975 0.0306354 0)
(0.140364 0.0269663 6.25221e-20)
(0.168295 0.0235701 -1.17112e-19)
(0.198428 0.0212453 -1.63255e-19)
(0.236979 0.0258716 0)
(-0.0039857 0.00662582 -1.28468e-19)
(-0.0110804 0.0182066 6.63296e-20)
(-0.0175245 0.0283699 -1.26456e-19)
(-0.0232378 0.0371586 -2.86759e-22)
(-0.0281604 0.0446202 0)
(-0.0322425 0.0508127 0)
(-0.0354369 0.0558072 5.21662e-20)
(-0.0376985 0.0596841 9.90731e-20)
(-0.0389847 0.0625304 0)
(-0.0392536 0.0644372 0)
(-0.0384623 0.0654975 -1.68413e-19)
(-0.0365657 0.0658041 7.97248e-20)
(-0.0335144 0.0654476 -1.39921e-22)
(-0.0292528 0.0645149 0)
(-0.0237178 0.0630878 -3.23419e-23)
(-0.0168366 0.0612419 6.32452e-20)
(-0.00852586 0.0590458 -1.61616e-22)
(0.00130985 0.0565607 -2.24336e-19)
(0.0127786 0.0538401 -5.27814e-20)
(0.0260016 0.05093 9.91408e-20)
(0.0411129 0.0478689 9.31006e-20)
(0.0582583 0.0446886 -8.90434e-23)
(0.0775938 0.0414152 8.20016e-20)
(0.0992829 0.0380703 1.53616e-19)
(0.123491 0.034675 7.18746e-20)
(0.150384 0.0312614 6.71247e-20)
(0.180149 0.0279057 6.24502e-20)
(0.212795 0.0247405 1.16355e-19)
(0.247487 0.0221908 -7.56347e-22)
(0.292984 0.0274095 4.8887e-20)
(-0.00421196 0.00661071 1.29501e-19)
(-0.0116654 0.0181452 -1.99488e-19)
(-0.0183581 0.0282492 1.27089e-19)
(-0.0242043 0.0369643 1.21269e-19)
(-0.0291372 0.0443397 5.77629e-20)
(-0.0331014 0.050436 -4.00973e-23)
(-0.0360447 0.0553273 -5.20757e-20)
(-0.037918 0.0590972 -9.90728e-20)
(-0.0386744 0.061836 2.37055e-22)
(-0.0382676 0.0636379 1.78396e-19)
(-0.0366497 0.0645992 -8.47504e-20)
(-0.0337694 0.0648156 1.59729e-19)
(-0.0295695 0.0643809 -1.07563e-22)
(-0.0239854 0.063385 -1.4242e-19)
(-0.0169428 0.061913 -1.63692e-23)
(-0.008356 0.0600442 0)
(0.00187318 0.0578511 2.98149e-19)
(0.0138567 0.0553994 5.60313e-20)
(0.0277207 0.0527478 0)
(0.043605 0.0499479 4.95879e-20)
(0.0616623 0.0470448 -4.66422e-20)
(0.0820557 0.0440774 1.74847e-19)
(0.104955 0.0410786 -2.45985e-19)
(0.130533 0.0380771 7.68699e-20)
(0.158955 0.035098 0)
(0.190371 0.0321687 6.70027e-20)
(0.224941 0.0293433 -1.25036e-19)
(0.262742 0.0267069 1.16327e-19)
(0.302188 0.0241026 -1.0816e-19)
(0.355279 0.0301348 -9.91593e-20)
(-0.00443306 0.00657604 -1.30018e-19)
(-0.0122292 0.0180203 -3.59439e-22)
(-0.0191493 0.0280171 -6.37051e-20)
(-0.0251002 0.0366095 -6.07832e-20)
(-0.0300077 0.0438498 -1.16234e-19)
(-0.0338093 0.0498028 5.52677e-20)
(-0.0364472 0.054547 7.96144e-23)
(-0.0378671 0.05817 -9.96674e-20)
(-0.0380169 0.0607662 -1.41467e-19)
(-0.0368444 0.0624337 1.46711e-22)
(-0.0342949 0.0632723 8.44956e-20)
(-0.0303092 0.0633815 -1.59943e-19)
(-0.0248204 0.0628584 7.56875e-20)
(-0.0177524 0.0617966 7.14449e-20)
(-0.00901755 0.060285 -9.81329e-24)
(0.00148507 0.0584068 6.34713e-20)
(0.0138709 0.0562394 -1.19355e-19)
(0.0282703 0.0538537 0)
(0.0448288 0.0513145 -1.05714e-19)
(0.0637055 0.0486804 9.93194e-20)
(0.0850707 0.0460042 -9.32402e-20)
(0.109102 0.0433333 -8.74652e-20)
(0.135978 0.04071 0)
(0.165872 0.038172 -2.30132e-19)
(0.198936 0.0357528 1.6363e-22)
(0.235288 0.033482 -3.34913e-19)
(0.275027 0.0314012 1.87682e-19)
(0.318324 0.0296167 -2.3237e-19)
(0.362581 0.027165 1.08153e-19)
(0.42366 0.0343239 -9.78931e-20)
(-0.00464891 0.006524 6.51876e-20)
(-0.0127691 0.017837 6.7035e-20)
(-0.0198903 0.0276814 6.43886e-20)
(-0.0259108 0.0361037 -1.88002e-22)
(-0.0307483 0.0431615 -1.67316e-22)
(-0.0343325 0.0489258 0)
(-0.036599 0.0534804 0)
(-0.0374872 0.0569183 0)
(-0.0369386 0.0593387 0)
(-0.0348937 0.0608446 0)
(-0.0312893 0.0615401 8.48284e-20)
(-0.026056 0.0615287 -8.02116e-20)
(-0.0191154 0.0609116 7.58929e-20)
(-0.0103775 0.0597865 8.39549e-24)
(0.000261034 0.0582467 -6.73663e-20)
(0.0129187 0.0563805 1.51962e-23)
(0.0277297 0.0542705 -1.19655e-19)
(0.0448444 0.051994 1.12542e-19)
(0.0644275 0.0496228 1.05711e-19)
(0.086656 0.0472233 -9.92025e-20)
(0.111714 0.0448574 1.86578e-19)
(0.139789 0.0425819 0)
(0.171056 0.0404494 -1.63739e-19)
(0.205674 0.0385078 3.23362e-22)
(0.243767 0.0368003 3.85191e-22)
(0.285393 0.0353622 5.61755e-22)
(0.330547 0.0342243 -6.20344e-20)
(0.379505 0.0336068 1.16042e-19)
(0.428469 0.0315247 1.07691e-19)
(0.497498 0.0401893 5.11282e-20)
(-0.0048592 0.00645634 0)
(-0.0132815 0.0175997 6.7593e-20)
(-0.0205718 0.0272484 -6.42098e-20)
(-0.0266189 0.0354553 -1.34673e-22)
(-0.0313317 0.0422858 1.17284e-19)
(-0.0346319 0.0478181 -5.5815e-20)
(-0.0364474 0.0521431 0)
(-0.0367106 0.0553604 0)
(-0.0353549 0.0575755 -9.51416e-20)
(-0.032312 0.0588966 9.02568e-20)
(-0.0275085 0.0594329 8.53915e-20)
(-0.0208629 0.0592928 0)
(-0.0122825 0.0585823 7.611e-20)
(-0.00166156 0.0574041 0)
(0.0111212 0.0558567 -1.34963e-19)
(0.0262035 0.0540339 1.90796e-19)
(0.0437394 0.052025 1.79519e-19)
(0.0638987 0.0499142 -5.63047e-20)
(0.0868639 0.0477814 -1.17791e-22)
(0.112826 0.0457018 -1.49085e-19)
(0.141975 0.0437465 0)
(0.174496 0.0419824 0)
(0.210548 0.0404718 8.19149e-20)
(0.250253 0.0392721 1.53134e-19)
(0.293676 0.038435 -1.06161e-22)
(0.340789 0.0380001 1.33741e-19)
(0.391437 0.0379795 1.2458e-19)
(0.445956 0.0387949 0)
(0.499367 0.0372884 -1.07684e-19)
(0.575655 0.0478458 1.47579e-19)
(-0.00506331 0.00637421 6.63626e-20)
(-0.0137619 0.0173113 0)
(-0.0211822 0.0267232 1.60981e-22)
(-0.0272038 0.034672 -6.19515e-20)
(-0.031726 0.0412327 5.91286e-20)
(-0.0346622 0.0464927 5.60097e-20)
(-0.0359322 0.0505518 -1.09904e-22)
(-0.0354599 0.0535174 5.06655e-20)
(-0.0331697 0.055502 0)
(-0.0289826 0.0566204 -1.81048e-19)
(-0.0228129 0.0569879 2.65614e-22)
(-0.0145649 0.0567184 0)
(-0.00412985 0.0559238 7.63156e-20)
(0.0086161 0.0547124 -2.15634e-19)
(0.0238136 0.0531889 6.77768e-20)
(0.0416202 0.051454 -6.36311e-20)
(0.0622097 0.0496041 -1.19867e-19)
(0.085769 0.0477315 -1.69156e-19)
(0.112494 0.0459247 0)
(0.14258 0.0442681 0)
(0.176214 0.0428419 9.32233e-20)
(0.21356 0.0417221 8.72461e-20)
(0.254737 0.040979 -8.19614e-20)
(0.299802 0.0406763 0)
(0.348728 0.0408697 0)
(0.40136 0.0415978 0)
(0.45736 0.042843 1.23987e-19)
(0.516987 0.0452594 -5.74286e-20)
(0.574479 0.0445218 1.08248e-19)
(0.656447 0.0572834 9.53837e-20)
(-0.00526016 0.00627812 -1.32933e-19)
(-0.0142042 0.0169734 6.84365e-20)
(-0.0217074 0.0261094 -6.55502e-20)
(-0.0276407 0.0337599 6.24842e-20)
(-0.031894 0.0400113 -5.91286e-20)
(-0.0343717 0.0449627 5.63017e-20)
(-0.034985 0.0487241 -5.35645e-20)
(-0.0336483 0.0514122 -1.01207e-19)
(-0.0302754 0.0531475 9.62767e-20)
(-0.0247751 0.0540526 1.81717e-19)
(-0.0170474 0.0542496 8.57096e-20)
(-0.00698058 0.0538593 -8.11636e-20)
(0.00555219 0.0530003 2.199e-22)
(0.0206942 0.0517876 2.32377e-23)
(0.0386059 0.0503333 6.7926e-20)
(0.0594644 0.0487456 0)
(0.0834603 0.0471291 1.19943e-19)
(0.110793 0.0455848 2.81896e-19)
(0.141662 0.04421 -5.30386e-20)
(0.176256 0.0430977 0)
(0.21474 0.0423361 -1.8643e-19)
(0.257231 0.0420074 -8.73184e-20)
(0.303781 0.0421864 -8.15909e-20)
(0.354348 0.0429372 7.66041e-20)
(0.408766 0.0443129 -7.11689e-20)
(0.466708 0.0463401 6.67464e-20)
(0.527649 0.0489765 -3.41361e-22)
(0.591506 0.0530114 1.1462e-19)
(0.65266 0.0532769 -1.07031e-19)
(0.737568 0.068393 -1.92069e-19)
(-0.00544792 0.00616795 6.72665e-20)
(-0.0146002 0.0165864 6.88604e-20)
(-0.0221302 0.025409 -2.36611e-22)
(-0.0279006 0.0327232 4.00563e-22)
(-0.0317926 0.0386298 0)
(-0.0337014 0.0432411 -2.40708e-22)
(-0.0335287 0.0466787 -1.61736e-19)
(-0.0311787 0.0490698 0)
(-0.026553 0.0505447 -9.66689e-20)
(-0.0195465 0.0512344 -3.64944e-19)
(-0.0100435 0.0512693 8.63215e-20)
(0.00208585 0.050778 -8.14501e-20)
(0.0169873 0.0498868 -1.5305e-19)
(0.0348241 0.0487188 1.44636e-19)
(0.0557759 0.0473942 0)
(0.080036 0.0460298 6.38228e-20)
(0.107807 0.0447391 -1.80473e-19)
(0.13929 0.0436316 -5.64815e-20)
(0.174677 0.0428127 -1.59108e-19)
(0.214131 0.0423824 0)
(0.257767 0.0424338 1.86408e-19)
(0.30563 0.0430509 8.73139e-20)
(0.357664 0.0443058 0)
(0.413686 0.0462552 7.62864e-20)
(0.473354 0.0489402 0)
(0.536119 0.0523605 -6.61248e-20)
(0.601283 0.056485 -1.84918e-19)
(0.668074 0.0619652 -2.28882e-19)
(0.732414 0.0636806 -1.05962e-19)
(0.815947 0.0810517 -3.42296e-21)
(-0.00562396 0.00604286 -6.72665e-20)
(-0.0149395 0.0161487 2.92642e-22)
(-0.0224293 0.0246217 6.62433e-20)
(-0.0279495 0.0315651 -6.28847e-20)
(-0.0313727 0.0370955 -5.99512e-20)
(-0.0325849 0.0413405 1.13683e-19)
(-0.0314779 0.0444347 5.42026e-20)
(-0.0279444 0.0465175 1.02654e-19)
(-0.0218728 0.0477296 9.67293e-20)
(-0.0131427 0.0482122 9.18269e-20)
(-0.00162091 0.0481048 1.73384e-19)
(0.012841 0.0475452 -3.04495e-22)
(0.0304084 0.0466684 0)
(0.0512632 0.0456068 -7.23001e-20)
(0.0756008 0.0444895 -2.16191e-22)
(0.103626 0.0434424 1.30946e-22)
(0.135542 0.0425877 1.80573e-19)
(0.17154 0.0420429 0)
(0.211784 0.0419196 1.06023e-19)
(0.256385 0.0423213 0)
(0.305379 0.0433406 3.25494e-24)
(0.358699 0.0450558 -8.70622e-20)
(0.416143 0.047527 1.6319e-19)
(0.477343 0.0507914 -7.65333e-20)
(0.541745 0.0548657 -1.42081e-19)
(0.608548 0.059706 6.6346e-20)
(0.676907 0.0653478 2.46309e-19)
(0.745112 0.0719137 5.68983e-20)
(0.812028 0.0759964 2.63193e-19)
(0.887922 0.0947817 5.01445e-20)
(-0.00578464 0.00590138 6.80062e-20)
(-0.0152092 0.0156579 -1.39543e-19)
(-0.0225798 0.0237462 0)
(-0.027748 0.030287 0)
(-0.0305787 0.0354147 6.03424e-20)
(-0.0309484 0.0392733 -2.64861e-22)
(-0.0287386 0.0420123 -1.08503e-19)
(-0.0238299 0.0437842 -1.02853e-19)
(-0.0160961 0.0447417 3.98933e-22)
(-0.00540033 0.045037 4.1594e-22)
(0.00840847 0.0448204 -8.66972e-20)
(0.0254977 0.0442395 1.63485e-19)
(0.0460507 0.0434397 -1.54319e-19)