/*--------------------------------*- C++ -*----------------------------------*\
  =========                 |
  \\      /  F ield         | OpenFOAM: The Open Source CFD Toolbox
   \\    /   O peration     | Website:  https://openfoam.org
    \\  /    A nd           | Version:  7
     \\/     M anipulation  |
\*---------------------------------------------------------------------------*/
FoamFile
{
    version     2.0;
    format      ascii;
    class       volVectorField;
    location    "35";
    object      U;
}
// * * * * * * * * * * * * * * * * * * * * * * * * * * * * * * * * * * * * * //

dimensions      [0 1 -1 0 0 0 0];

internalField   nonuniform List<vector> 
8820
(
(-0.000592124 0.000358447 -4.94634e-22)
(-0.00339476 0.000953434 -1.08784e-20)
(-0.00884438 0.00143334 -5.05417e-21)
(-0.0157811 0.00181971 -2.19106e-21)
(-0.0236188 0.00212147 6.68448e-22)
(-0.0319615 0.00234491 -3.988e-21)
(-0.0404683 0.00249678 -8.60544e-21)
(-0.0488662 0.00258449 -5.20229e-21)
(-0.0569427 0.00261639 1.20422e-20)
(-0.0645318 0.00260207 -2.14187e-21)
(-0.0715052 0.00255238 3.42598e-21)
(-0.0777671 0.00247968 4.93895e-21)
(-0.0832524 0.00239835 -7.13435e-21)
(-0.0879294 0.00232558 -8.07858e-21)
(-0.0918042 0.00228247 3.75612e-21)
(-0.0949294 0.00229493 2.00843e-21)
(-0.097422 0.00239398 4.91437e-22)
(-0.0994898 0.00261425 1.35158e-20)
(-0.101344 0.00299156 -4.26555e-21)
(-0.102976 0.00356171 -2.80063e-20)
(-0.105209 0.00434437 1.86111e-22)
(-0.000681048 0.00181623 1.46885e-20)
(-0.0035988 0.00457993 -1.59872e-20)
(-0.00909917 0.00662055 3.13387e-21)
(-0.0160418 0.00808193 1.72814e-20)
(-0.0238513 0.00906095 -7.17268e-21)
(-0.0321392 0.0096359 -8.61419e-21)
(-0.0405707 0.00987465 -1.35562e-20)
(-0.0488777 0.00983509 1.30861e-20)
(-0.0568514 0.00956683 1.89844e-20)
(-0.0643283 0.0091134 -1.53945e-20)
(-0.0711816 0.00851466 -1.86242e-20)
(-0.0773151 0.0078097 -2.9545e-20)
(-0.082662 0.00704057 -1.32985e-20)
(-0.0871864 0.0062565 -2.54567e-20)
(-0.0908883 0.00551837 1.31827e-20)
(-0.0938119 0.00490222 -2.00873e-21)
(-0.0960647 0.00450019 -9.80719e-21)
(-0.0978471 0.00441589 -1.25386e-21)
(-0.0993681 0.00475625 -2.6866e-20)
(-0.100611 0.00562679 -1.64091e-20)
(-0.102412 0.00707694 1.71641e-20)
(-0.000869853 0.00323962 4.2684e-20)
(-0.00403187 0.00812532 -9.32685e-21)
(-0.00964213 0.011698 3.36459e-20)
(-0.0166013 0.0142185 2.26539e-20)
(-0.0243565 0.0158683 2.29462e-20)
(-0.0325355 0.0167954 1.04161e-20)
(-0.0408168 0.0171268 -1.71047e-20)
(-0.0489427 0.0169694 2.96394e-20)
(-0.0567123 0.0164127 4.47409e-20)
(-0.0639678 0.0155326 2.36786e-20)
(-0.0705851 0.0143963 -3.5156e-20)
(-0.0764683 0.0130673 5.91107e-20)
(-0.0815472 0.0116124 -4.91588e-21)
(-0.0857783 0.0101096 -1.08248e-19)
(-0.0891498 0.00865597 -7.34702e-20)
(-0.0916893 0.00737522 4.0173e-20)
(-0.0934853 0.00642027 -2.23284e-20)
(-0.0947225 0.00596773 -5.18096e-20)
(-0.0956032 0.00620583 8.47823e-20)
(-0.0960977 0.0073272 -3.64158e-20)
(-0.097058 0.00943134 -4.26986e-20)
(-0.00115314 0.00460595 -1.33693e-20)
(-0.00468206 0.0115363 8.91625e-20)
(-0.0104584 0.0165937 -1.1915e-20)
(-0.0174433 0.020147 -1.20011e-19)
(-0.0251177 0.0224571 -1.25407e-20)
(-0.0331332 0.0237375 -1.11159e-19)
(-0.0411881 0.0241717 5.72049e-20)
(-0.0490404 0.0239129 1.0721e-19)
(-0.0565014 0.0230883 -9.78444e-20)
(-0.0634216 0.0218041 -1.29619e-19)
(-0.0696819 0.0201516 7.39496e-20)
(-0.0751875 0.0182154 -6.96034e-20)
(-0.0798641 0.0160826 8.46592e-20)
(-0.0836583 0.0138541 1.20144e-19)
(-0.0865417 0.0116574 2.35781e-20)
(-0.0885186 0.00965849 -9.28016e-21)
(-0.0896489 0.0080692 -9.1265e-20)
(-0.0900918 0.00714406 -1.83442e-20)
(-0.0900376 0.00716825 -2.06566e-20)
(-0.0894326 0.00845045 -5.36866e-21)
(-0.0891402 0.0111784 -1.18581e-20)
(-0.00152303 0.00589421 -5.89264e-20)
(-0.00553196 0.0147628 -8.61436e-20)
(-0.0115263 0.021239 5.12455e-20)
(-0.0185443 0.0257882 -6.80551e-20)
(-0.0261102 0.0287429 7.69414e-20)
(-0.0339061 0.0303775 3.98554e-20)
(-0.0416559 0.0309275 8.1979e-20)
(-0.0491385 0.0305897 -6.85841e-21)
(-0.0561805 0.0295258 -8.16192e-20)
(-0.0626441 0.0278696 4.53342e-20)
(-0.0684174 0.0257333 9.37695e-21)
(-0.073408 0.023218 1.76803e-20)
(-0.077538 0.0204249 -2.6402e-20)
(-0.0807435 0.0174706 -2.55455e-20)
(-0.0829769 0.0145039 1.56394e-20)
(-0.0842136 0.0117244 -3.02661e-20)
(-0.0844765 0.00939734 -4.87099e-21)
(-0.0838888 0.00785812 5.20862e-20)
(-0.0826211 0.00750686 2.61359e-20)
(-0.0805825 0.00880706 -3.31986e-20)
(-0.0786172 0.0120939 9.68398e-20)
(-0.00196952 0.00708561 1.21002e-20)
(-0.00655934 0.0177594 2.68669e-19)
(-0.0128177 0.0255709 -1.81249e-20)
(-0.0198734 0.0310672 1.76687e-19)
(-0.0273013 0.0346445 4.56396e-20)
(-0.0348194 0.0366316 -4.60747e-20)
(-0.0421823 0.0373117 -3.30796e-20)
(-0.049193 0.0369211 6.15353e-20)
(-0.0556974 0.0356536 -2.03616e-20)
(-0.061572 0.0336668 1.94638e-19)
(-0.0667144 0.0310908 -6.41507e-20)
(-0.0710365 0.0280378 2.45481e-19)
(-0.0744587 0.024617 2.85904e-21)
(-0.076907 0.0209512 1.04437e-20)
(-0.0783144 0.0171992 -1.02254e-19)
(-0.0786256 0.0135812 -6.45957e-20)
(-0.0778197 0.0104048 1.27559e-19)
(-0.0759732 0.00808297 -1.13339e-19)
(-0.0732304 0.00714567 -9.83931e-20)
(-0.0694514 0.00825202 -1.33478e-20)
(-0.0653828 0.0119642 2.92073e-20)
(-0.00248092 0.00816418 6.16969e-20)
(-0.00773813 0.0204866 -8.65991e-20)
(-0.0142996 0.0295323 -4.80795e-20)
(-0.0213941 0.0359149 -1.80671e-19)
(-0.028652 0.0400845 -6.01209e-20)
(-0.0358312 0.042418 1.90717e-19)
(-0.0427201 0.043241 3.59107e-20)
(-0.0491493 0.0428257 8.05673e-20)
(-0.0549864 0.0413946 -7.80388e-20)
(-0.0601244 0.0391269 3.41653e-20)
(-0.0644726 0.0361664 2.95103e-20)
(-0.0679493 0.0326327 -9.88482e-20)
(-0.0704751 0.0286359 1.64587e-19)
(-0.0719689 0.0242959 -2.62434e-20)
(-0.0723462 0.0197681 1.72768e-19)
(-0.071522 0.0152767 7.28572e-20)
(-0.0694295 0.011153 -5.80208e-20)
(-0.0660897 0.00787484 -6.06812e-20)
(-0.0616203 0.00610466 -3.33005e-20)
(-0.0558387 0.00672525 -6.28818e-20)
(-0.0492191 0.0106189 6.5068e-20)
(-0.00304443 0.00911729 4.18668e-20)
(-0.00903955 0.0229115 6.37708e-20)
(-0.0159352 0.0330743 6.12068e-20)
(-0.0230652 0.0402691 -9.88218e-21)
(-0.0301176 0.0449906 2.33878e-19)
(-0.0368924 0.047657 -1.36466e-19)
(-0.043214 0.0486314 1.61284e-19)
(-0.0489424 0.0482182 -2.1435e-19)
(-0.0539684 0.0466656 1.79087e-21)
(-0.0582028 0.0441717 -1.1382e-19)
(-0.0615681 0.040892 -1.35457e-20)
(-0.0639906 0.0369499 -2.85083e-20)
(-0.0653933 0.032451 -2.2564e-19)
(-0.0656907 0.0275039 5.77216e-20)
(-0.0647853 0.0222478 4.82695e-20)
(-0.0625666 0.0168914 1.31158e-19)
(-0.0589245 0.0117665 -4.30994e-20)
(-0.0538207 0.00739149 1.77504e-20)
(-0.0473592 0.00454502 4.85341e-20)
(-0.0393753 0.00435472 -1.24425e-19)
(-0.0297571 0.00818827 -4.47744e-20)
(-0.00364679 0.00993609 -1.11516e-19)
(-0.0104334 0.0250091 1.05729e-19)
(-0.0176855 0.0361564 -1.03766e-19)
(-0.0248419 0.0440756 -4.46149e-20)
(-0.0316488 0.0492966 2.90364e-21)
(-0.0379481 0.0522725 -1.5312e-20)
(-0.0436008 0.0533992 -1.43297e-19)
(-0.048497 0.0530097 -3.3034e-19)
(-0.0525509 0.0513757 -9.69627e-20)
(-0.0556915 0.0487124 -1.48735e-20)
(-0.0578541 0.0451854 -2.36295e-21)
(-0.0589734 0.0409197 2.51107e-19)
(-0.0589759 0.0360142 -1.07328e-20)
(-0.0577741 0.0305601 2.97682e-21)
(-0.0552614 0.0246696 1.8093e-20)
(-0.0513078 0.0185183 5.16552e-20)
(-0.0457658 0.0124113 -2.22428e-20)
(-0.0385377 0.00687298 -9.78652e-20)
(-0.0297162 0.00276437 -8.31635e-20)
(-0.0192652 0.00153577 2.97719e-19)
(-0.00635873 0.00562485 1.97586e-21)
(-0.00427494 0.0106159 1.13602e-19)
(-0.0118891 0.0267627 8.4706e-21)
(-0.01951 0.0387482 -2.7224e-19)
(-0.0266771 0.0472896 -7.92932e-20)
(-0.0331918 0.0529437 1.54427e-19)
(-0.0389367 0.0561932 -1.7629e-19)
(-0.0438088 0.0574624 7.73447e-20)
(-0.0477269 0.0571097 3.01339e-19)
(-0.0506277 0.0554282 1.42242e-19)
(-0.0524568 0.0526492 1.3135e-19)
(-0.0531608 0.0489479 -6.07904e-20)
(-0.0526807 0.0444516 2.09883e-20)
(-0.0509457 0.0392517 -1.34761e-19)
(-0.0478662 0.0334204 1.79557e-19)
(-0.0433289 0.0270367 2.9122e-21)
(-0.0371888 0.0202287 -2.87288e-20)
(-0.0292672 0.0132458 4.76375e-20)
(-0.0194078 0.00656704 3.27507e-20)
(-0.0076113 0.00107693 -6.68997e-20)
(0.00629456 -0.00142296 -1.18253e-19)
(0.023031 0.00269892 -2.00371e-19)
(-0.00491677 0.0111562 -1.76789e-19)
(-0.0133774 0.0281648 3.0786e-19)
(-0.0213682 0.0408299 1.48811e-19)
(-0.0285211 0.0498765 -3.63757e-20)
(-0.0346881 0.0558824 -4.64764e-20)
(-0.0397896 0.059355 -1.03594e-19)
(-0.0437557 0.0607431 -5.83751e-20)
(-0.0465323 0.0604282 9.69987e-20)
(-0.0480758 0.0587228 2.09505e-19)
(-0.0483448 0.0558739 9.69602e-20)
(-0.0472934 0.0520671 1.342e-19)
(-0.0448654 0.0474335 1.29813e-19)
(-0.0409882 0.0420599 -2.1141e-19)
(-0.0355678 0.036002 9.4199e-20)
(-0.0284841 0.0293068 -3.00408e-19)
(-0.0195809 0.0220468 -3.12928e-19)
(-0.0086596 0.0143915 -2.46105e-19)
(0.004472 0.00671672 9.55825e-20)
(0.0198824 -0.000177328 6.10472e-19)
(0.038033 -0.00429814 -1.53536e-19)
(0.0597627 -0.00108754 1.67074e-19)
(-0.0055617 0.0115608 3.07266e-19)
(-0.0148707 0.0292162 -1.34169e-19)
(-0.0232202 0.0423921 4.50611e-20)
(-0.0303223 0.0518133 2.42914e-19)
(-0.0360736 0.0580741 -2.24491e-19)
(-0.040428 0.0617033 8.38272e-20)
(-0.0433457 0.0631716 -1.34949e-19)
(-0.0447955 0.0628808 -3.27101e-19)
(-0.0447494 0.0611619 4.62962e-19)
(-0.0431744 0.0582771 -2.12974e-20)
(-0.0400262 0.0544235 1.26923e-19)
(-0.0352446 0.0497394 -5.7659e-20)
(-0.0287493 0.0443116 1.25464e-19)
(-0.0204353 0.0381869 -7.08443e-21)
(-0.0101728 0.0313869 1.59225e-19)
(0.00220241 0.0239364 -3.99237e-20)
(0.0168987 0.0159188 1.63062e-19)
(0.0341229 0.00757049 -3.04194e-19)
(0.0539515 -0.000484506 -3.25757e-19)
(0.0770011 -0.00628179 2.88552e-19)
(0.104992 -0.00445823 -1.43819e-19)
(-0.00620116 0.0118371 -2.98798e-19)
(-0.016344 0.029926 1.86559e-19)
(-0.0250258 0.0434363 -1.48235e-19)
(-0.032025 0.0530888 8.15313e-20)
(-0.0372754 0.0594928 -7.04373e-20)
(-0.0407596 0.0631965 3.26602e-19)
(-0.042463 0.0646905 -2.74013e-20)
(-0.0423728 0.0643953 9.22397e-20)
(-0.040471 0.0626589 -8.07804e-20)
(-0.0367264 0.0597585 2.10038e-19)
(-0.0310888 0.0559044 -4.19863e-19)
(-0.0234861 0.0512448 -5.08288e-20)
(-0.0138214 0.0458734 -4.48766e-20)
(-0.00197172 0.0398375 1.93849e-19)
(0.0122096 0.0331477 -2.52406e-19)
(0.028895 0.0257991 3.23286e-20)
(0.04829 0.0178049 2.18954e-19)
(0.0706 0.00926659 1.02762e-19)
(0.0958545 0.000561571 3.97604e-21)
(0.124548 -0.00665366 1.59574e-21)
(0.160343 -0.00622249 -1.78917e-19)
(-0.00682883 0.0119957 2.67934e-19)
(-0.0177748 0.0303102 -2.13883e-19)
(-0.0267443 0.0439734 1.35577e-19)
(-0.0335677 0.0537039 -3.86085e-20)
(-0.0382082 0.0601266 -2.66637e-19)
(-0.0406718 0.0638092 -3.05304e-19)
(-0.0409638 0.0652608 3.43199e-19)
(-0.0390836 0.0649193 -5.62509e-20)
(-0.0350166 0.0631489 3.90798e-19)
(-0.0287256 0.0602416 -2.425e-20)
(-0.0201463 0.0564218 1.14844e-20)
(-0.00918494 0.0518511 1.63875e-19)
(0.00428063 0.0466362 1.76431e-19)
(0.0203992 0.0408349 2.50474e-19)
(0.0393395 0.034464 1.07018e-19)
(0.0612823 0.0275115 -6.00136e-22)
(0.0864194 0.0199569 -4.01749e-20)
(0.114934 0.0118093 7.55418e-20)
(0.146791 0.00320338 2.06361e-19)
(0.181906 -0.00481366 -1.63126e-19)
(0.227387 -0.00528272 2.07073e-19)
(-0.00744048 0.0120492 -5.31193e-20)
(-0.0191419 0.0303898 -3.37481e-19)
(-0.0283321 0.0440229 -1.57556e-19)
(-0.0348792 0.0536711 1.55968e-19)
(-0.0387689 0.059979 -3.75086e-20)
(-0.0400249 0.0635351 -1.54104e-20)
(-0.0386661 0.0648669 -2.5033e-19)
(-0.0346973 0.0644292 6.63131e-20)
(-0.0280991 0.0626012 -3.26448e-19)
(-0.0188199 0.0596901 -2.8226e-19)
(-0.00677218 0.0559354 -1.76793e-19)
(0.00816755 0.0515153 -1.83569e-19)
(0.0261544 0.0465543 2.19259e-20)
(0.0473676 0.0411296 1.50644e-19)
(0.0719974 0.0352786 2.99947e-19)
(0.100228 0.029006 -4.61388e-20)
(0.132216 0.0222953 -2.23462e-19)
(0.168088 0.0151261 -1.87157e-19)
(0.207791 0.00750466 -1.80153e-20)
(0.249973 -0.000457636 -1.14423e-19)
(0.307137 -0.000736697 5.19763e-20)
(-0.00803343 0.0120108 2.50786e-19)
(-0.0204242 0.0301885 2.77695e-19)
(-0.0297396 0.0436101 1.83848e-19)
(-0.0358743 0.0530136 1.54698e-19)
(-0.0388303 0.0590696 6.17006e-20)
(-0.0386431 0.0623901 2.64429e-19)
(-0.0353384 0.0635222 3.70356e-19)
(-0.0289182 0.0629375 -4.24099e-19)
(-0.0193498 0.0610308 3.7815e-19)
(-0.00655804 0.0581244 -1.70347e-20)
(0.00957632 0.0544745 -1.62211e-19)
(0.0292126 0.0502785 2.63384e-20)
(0.0525413 0.045683 2.13547e-19)
(0.0797684 0.0407916 1.50981e-19)
(0.111095 0.0356716 -1.87837e-19)
(0.146685 0.0303611 1.83684e-19)
(0.186627 0.0248736 -2.88374e-20)
(0.230919 0.0192083 -1.96266e-21)
(0.279588 0.0134568 4.88189e-20)
(0.329192 0.00640705 9.61802e-20)
(0.399604 0.00793561 -1.58342e-19)
(-0.00860554 0.0118932 -5.59869e-19)
(-0.0215978 0.0297302 1.921e-19)
(-0.0309076 0.0427642 -1.69606e-19)
(-0.0364489 0.0517643 -3.1576e-19)
(-0.0382344 0.0574341 -2.45536e-19)
(-0.0363062 0.0604138 -1.29388e-19)
(-0.030689 0.0612729 -3.87782e-19)
(-0.0213734 0.0605007 4.33077e-20)
(-0.00830393 0.0585084 2.19247e-19)
(0.00862668 0.055635 1.67963e-20)
(0.029575 0.0521553 2.01947e-19)
(0.0547375 0.0482885 1.88374e-19)
(0.084333 0.0442073 2.28268e-19)
(0.118577 0.0400454 3.59942e-19)
(0.157649 0.0359051 2.23366e-20)
(0.201648 0.0318634 -1.97294e-19)
(0.250531 0.0279723 -1.0057e-19)
(0.304053 0.0242533 -4.70913e-19)
(0.362392 0.0211386 -3.56118e-20)
(0.419427 0.0156366 -1.05735e-19)
(0.503384 0.0207816 1.63719e-19)
(-0.00915394 0.0117067 1.5752e-19)
(-0.0226332 0.0290361 2.2796e-19)
(-0.031763 0.0415165 -1.40967e-19)
(-0.0364739 0.0499632 1.11562e-19)
(-0.0367863 0.0551227 4.58334e-19)
(-0.0327424 0.0576704 1.35039e-19)
(-0.0243585 0.0582006 1.80901e-19)
(-0.0116046 0.0572229 1.76298e-19)
(0.00560629 0.0551671 -3.83191e-19)
(0.0274192 0.0523913 3.20175e-20)
(0.0540282 0.0491914 4.03741e-20)
(0.0856578 0.0458113 3.58727e-19)
(0.122533 0.0424516 -3.34879e-19)
(0.16484 0.0392774 5.31093e-20)
(0.212676 0.036424 -2.63134e-19)
(0.265992 0.0340032 1.56953e-19)
(0.324516 0.0320971 1.41436e-19)
(0.387639 0.0307096 -2.27266e-20)
(0.455518 0.0307739 -2.04172e-19)
(0.519726 0.0272065 -1.54778e-19)
(0.615201 0.0374646 5.37783e-20)
(-0.0096734 0.0114584 -8.85203e-20)
(-0.0234914 0.0281233 2.9103e-20)
(-0.0322142 0.0398964 -6.07555e-20)
(-0.0357913 0.0476546 -2.17077e-19)
(-0.034249 0.0521999 -4.37394e-20)
(-0.0276244 0.0542481 1.61416e-19)
(-0.0159173 0.0544231 2.42178e-19)
(0.000931157 0.0532582 -4.56692e-20)
(0.0230446 0.051205 3.04208e-20)
(0.0506052 0.0486438 3.20947e-19)
(0.0838337 0.0458945 -3.10187e-19)
(0.122956 0.0432269 -9.92333e-20)
(0.168159 0.0408683 7.31041e-20)
(0.219527 0.0390098 -3.85979e-20)
(0.276982 0.0378097 2.39283e-19)
(0.340206 0.0373973 -7.0132e-20)
(0.408559 0.0378604 3.03798e-20)
(0.480987 0.0391646 2.23559e-19)
(0.557046 0.042579 2.51028e-19)
(0.627965 0.0413879 5.77831e-20)
(0.72947 0.0575189 9.87866e-20)
(-0.0101543 0.0111511 -3.38181e-20)
(-0.0241211 0.0270025 -2.33769e-19)
(-0.0321472 0.0379299 -8.27302e-20)
(-0.0342104 0.0448876 -3.51011e-20)
(-0.0303419 0.0487425 8.96457e-20)
(-0.0205694 0.0502583 -1.29025e-19)
(-0.00486958 0.0500932 -1.74699e-19)
(0.0168495 0.048809 -3.97034e-19)
(0.0447467 0.0468828 1.16729e-19)
(0.0790287 0.0447198 -4.47572e-19)
(0.119913 0.042665 3.60558e-19)
(0.167575 0.0410114 -5.33614e-20)
(0.22208 0.0400051 -4.05013e-21)
(0.28331 0.0398476 -1.37207e-19)
(0.350873 0.0406949 -4.836e-19)
(0.424043 0.0426608 2.59335e-19)
(0.501663 0.045791 1.31123e-20)
(0.582229 0.0500681 -1.02188e-20)
(0.663901 0.05645 1.98798e-19)
(0.740798 0.0586843 9.48732e-20)
(0.838489 0.0801326 2.4794e-19)
(-0.0105807 0.0107824 -2.0754e-20)
(-0.024455 0.0256771 -6.42259e-20)
(-0.0314231 0.0356398 -2.92425e-19)
(-0.0315062 0.0417132 -5.87843e-19)
(-0.024742 0.0448384 1.79824e-19)
(-0.0111452 0.0458334 2.36257e-19)
(0.00933251 0.0453968 4.22956e-20)
(0.0368136 0.0441226 3.10666e-19)
(0.0714778 0.042517 -2.47217e-19)
(0.113523 0.0410113 -3.84094e-19)
(0.163106 0.0399719 -4.49545e-19)
(0.220263 0.0397049 7.60987e-20)
(0.284823 0.0404559 2.20743e-19)
(0.35631 0.0424054 -1.55779e-19)
(0.433866 0.0456639 2.1069e-19)
(0.516205 0.0502753 -2.01711e-19)
(0.601558 0.056172 1.26937e-19)
(0.688003 0.0634165 1.5276e-20)
(0.772168 0.0718694 9.82728e-20)
(0.853712 0.0793206 -4.06542e-19)
(0.934693 0.10179 -3.63449e-19)
(-0.0109289 0.0103466 -1.05274e-19)
(-0.0244064 0.0241445 -3.08658e-19)
(-0.0298764 0.0330453 4.60031e-20)
(-0.0274208 0.0381852 5.27078e-20)
(-0.0170882 0.0405858 1.19279e-19)
(0.00111814 0.0411258 4.98587e-19)
(0.0272673 0.0405487 -2.14295e-19)
(0.0614964 0.0394848 1.09895e-19)
(0.103971 0.0384699 2.09546e-19)
(0.154821 0.0379575 -7.54277e-20)
(0.214046 0.0383242 2.1318e-19)
(0.281415 0.0398674 -4.59235e-19)
(0.35636 0.0427972 2.68982e-19)
(0.437877 0.0472252 1.81523e-20)
(0.524478 0.0531549 -1.9023e-19)
(0.614207 0.060491 -8.23745e-20)
(0.704672 0.0689865 9.37003e-20)
(0.7935 0.0786678 -3.71556e-19)
(0.876973 0.0883651 3.12349e-19)
(0.959177 0.101386 -4.32369e-19)
(1.01328 0.113303 -2.10963e-20)
(-0.0111677 0.00983421 4.31591e-19)
(-0.0238699 0.0223974 3.32892e-20)
(-0.0273149 0.0301644 -1.37591e-20)
(-0.0216661 0.0343616 -3.17842e-19)
(-0.00699124 0.0360942 -1.44418e-19)
(0.0167109 0.0363069 -2.34313e-19)
(0.0495132 0.0357909 2.09611e-20)
(0.0915321 0.0352134 2.81875e-19)
(0.142857 0.0351358 -7.2785e-20)
(0.20345 0.0360217 1.06359e-20)
(0.273022 0.0382344 -2.43793e-19)
(0.350905 0.0420252 -4.07373e-19)
(0.43595 0.0475171 8.90591e-20)
(0.526459 0.0546897 -3.02409e-19)
(0.620203 0.0633721 2.70599e-19)
(0.714534 0.0732656 2.58154e-19)
(0.806563 0.0839189 2.27229e-19)
(0.893545 0.0950829 -1.06961e-20)
(0.972797 0.105599 -2.14298e-20)
(1.04421 0.117721 4.30419e-19)
(1.09899 0.123331 -4.80356e-20)
(-0.0112567 0.00923354 -1.41598e-19)
(-0.022721 0.0204276 -4.56364e-19)
(-0.0235226 0.0270176 -1.40607e-19)
(-0.013931 0.0303077 -8.59749e-20)
(0.00595444 0.0314869 3.31206e-19)
(0.0361214 0.0315677 -1.04091e-19)
(0.0766118 0.0313891 4.58983e-19)
(0.12746 0.0316502 -4.72334e-20)
(0.188581 0.0329255 -1.18001e-19)
(0.259632 0.0356641 5.61516e-20)
(0.339859 0.0401766 3.79653e-19)
(0.42797 0.0466132 -3.22895e-20)
(0.52206 0.0549434 6.47703e-19)
(0.619625 0.0649461 3.99984e-19)
(0.717691 0.0762191 2.38336e-19)
(0.813059 0.0882288 1.40707e-19)
(0.902607 0.100322 2.40817e-19)
(0.983705 0.112025 1.1086e-19)
(1.0543 0.122288 -2.17005e-19)
(1.11407 0.132179 3.86352e-19)
(1.16024 0.136542 3.67089e-19)
(-0.0111469 0.00853344 -3.00123e-19)
(-0.0208171 0.0182304 3.38013e-19)
(-0.0182638 0.0236329 2.25966e-19)
(-0.00388913 0.0261016 -1.86439e-19)
(0.0221549 0.0269047 1.79365e-19)
(0.0598095 0.0271209 -7.14988e-20)
(0.109027 0.027631 -2.45602e-19)
(0.169665 0.0291526 3.91177e-19)
(0.241327 0.032248 -1.22486e-19)
(0.323187 0.037311 1.06246e-19)
(0.413832 0.0445412 2.94392e-19)
(0.511162 0.0539176 2.0975e-19)
(0.612401 0.065184 -2.86721e-19)
(0.714244 0.0778605 -2.13914e-19)
(0.813134 0.091289 4.51578e-20)
(0.905635 0.104722 1.0889e-19)
(0.988816 0.117376 -2.38915e-19)
(1.06062 0.128703 1.12126e-19)
(1.11995 0.137804 8.90369e-20)
(1.1671 0.145569 -2.61343e-19)
(1.20167 0.148067 3.64799e-19)
(-0.0107821 0.00772522 1.85323e-19)
(-0.0180006 0.0158088 2.09935e-19)
(-0.0112884 0.0200513 1.23532e-19)
(0.00879011 0.0218399 1.54219e-19)
(0.0419984 0.0225115 -2.16701e-19)
(0.0881782 0.0232034 -2.24386e-19)
(0.147103 0.0248238 4.08797e-20)
(0.218321 0.0280832 -1.40881e-19)
(0.300947 0.0334897 -4.49311e-20)
(0.393473 0.0413211 3.09982e-19)
(0.493632 0.0515916 -3.62817e-19)
(0.598392 0.064031 1.46054e-19)
(0.70411 0.0780952 -1.9522e-19)
(0.806844 0.0930207 -3.3243e-19)
(0.902792 0.107921 4.01946e-19)
(0.988739 0.121916 1.83388e-19)
(1.06242 0.134219 -6.52563e-20)
(1.12277 0.144367 -1.16474e-20)
(1.16981 0.151743 7.44608e-20)
(1.20471 0.157232 -1.76293e-19)
(1.22906 0.158025 -7.44595e-20)
(-0.0100992 0.0068048 -1.67238e-20)
(-0.0141028 0.0131787 -9.8106e-20)
(-0.00233978 0.0163336 4.07205e-19)
(0.024429 0.017644 1.42748e-19)
(0.0658353 0.0184987 -5.28716e-21)
(0.121542 0.0200777 -4.89328e-20)
(0.19102 0.02329 1.42495e-19)
(0.273336 0.0287964 1.02395e-19)
(0.366915 0.0369891 -3.42305e-19)
(0.469361 0.0479511 -1.34359e-19)
(0.577413 0.0614265 -3.35853e-19)
(0.687092 0.0768267 -4.94169e-19)
(0.794047 0.0932898 4.98459e-19)
(0.894052 0.109796 -4.71738e-19)
(0.983528 0.125318 -2.59303e-19)
(1.05997 0.138975 1.54706e-19)
(1.12219 0.150122 -1.98873e-20)
(1.17031 0.158512 -1.92081e-19)
(1.20548 0.163861 7.56063e-20)
(1.22974 0.167205 6.94534e-21)
(1.2451 0.16635 1.03325e-19)
(-0.00903087 0.00577459 -2.55576e-19)
(-0.00894856 0.0103736 -6.01944e-20)
(0.00883695 0.0125662 -1.57633e-19)
(0.0433271 0.0136663 6.16906e-20)
(0.093955 0.0150893 2.73916e-19)
(0.160095 0.0180307 1.01059e-19)
(0.240755 0.0233581 1.04817e-19)
(0.334318 0.0316199 -4.86623e-19)
(0.438304 0.0430096 1.02006e-19)
(0.549267 0.057324 7.85098e-20)
(0.662912 0.0739582 -1.99858e-19)
(0.774454 0.0919656 7.58713e-20)
(0.879178 0.11019 2.96624e-19)
(0.973048 0.127444 1.01496e-19)
(1.05322 0.142695 4.04958e-19)
(1.1183 0.155212 2.58322e-19)
(1.16838 0.164613 -5.92307e-20)
(1.20474 0.170931 3.42452e-19)
(1.22944 0.174232 -6.2433e-20)
(1.245 0.175626 -1.09013e-20)
(1.25375 0.173385 -5.39071e-20)
(-0.00750631 0.00464511 3.6613e-20)
(-0.00236156 0.00744793 1.83293e-19)
(0.0224845 0.00886527 -6.96115e-20)
(0.0657445 0.0100932 -1.31074e-19)
(0.126562 0.0125381 2.1176e-20)
(0.203879 0.0173691 1.41004e-19)
(0.296047 0.0253496 -5.29178e-20)
(0.400546 0.0368311 1.32064e-20)
(0.513803 0.0517107 -1.09896e-19)
(0.631246 0.0694074 1.28985e-20)
(0.747652 0.088914 1.09234e-19)
(0.857751 0.108939 -2.65043e-19)
(0.956938 0.128116 -7.37769e-20)
(1.04189 0.145233 1.19627e-19)
(1.11091 0.159407 -5.0932e-19)
(1.16394 0.170179 -3.9429e-20)
(1.20231 0.177502 1.65851e-19)
(1.22824 0.181691 -1.71821e-20)
(1.24436 0.1831 1.7619e-19)
(1.25333 0.182835 4.50157e-20)
(1.25729 0.179523 -3.16953e-20)
(-0.00545364 0.00343614 -5.37862e-20)
(0.00582913 0.00448015 3.62187e-20)
(0.0388218 0.00537968 1.96837e-19)
(0.0918845 0.0071462 1.65257e-19)
(0.163752 0.011128 -1.38083e-19)
(0.252757 0.0184071 -1.19729e-19)
(0.356376 0.0295583 2.04421e-19)
(0.470979 0.0446323 -8.86078e-20)
(0.591781 0.0631254 -6.39876e-20)
(0.713142 0.0840083 2.83039e-20)
(0.82919 0.105867 6.99278e-20)
(0.934633 0.127141 -3.16671e-19)
(1.02551 0.146396 -1.19244e-19)
(1.09965 0.162556 -6.0655e-20)
(1.15675 0.175024 -2.50281e-19)
(1.19807 0.183691 2.49384e-19)
(1.22595 0.188843 4.54429e-20)
(1.24321 0.191029 1.92919e-19)
(1.25268 0.190807 -4.94629e-20)
(1.25688 0.189181 6.13229e-20)
(1.2577 0.185099 -1.54551e-19)
(-0.00280175 0.00217746 2.82847e-19)
(0.0157822 0.0015736 6.60115e-21)
(0.0580319 0.00229098 -1.51818e-19)
(0.121874 0.00507868 1.05458e-19)
(0.205485 0.0111612 -2.64271e-19)
(0.306386 0.0214511 4.7435e-20)
(0.420957 0.0362279 -5.71243e-20)
(0.544295 0.0551262 4.55919e-19)
(0.670402 0.0771497 3.09665e-19)
(0.792787 0.100792 2.57198e-19)
(0.905365 0.124292 4.00537e-20)
(1.00336 0.145957 2.26987e-19)
(1.08394 0.164454 1.30594e-19)
(1.14635 0.178992 -8.063e-20)
(1.19171 0.189348 -4.90567e-20)
(1.22239 0.195775 -1.43574e-19)
(1.24141 0.198843 9.50072e-20)
(1.25183 0.199259 2.10384e-19)
(1.25641 0.197689 4.611e-20)
(1.25731 0.194977 9.64819e-20)
(1.25611 0.190376 1.19803e-19)
(0.000517326 0.000909174 -3.04049e-19)
(0.0276366 -0.00114346 2.34853e-19)
(0.0802474 -0.000188967 -9.89568e-20)
(0.155744 0.00416877 -4.21824e-20)
(0.25157 0.0129453 -4.90041e-20)
(0.364213 0.0267785 -6.74075e-20)
(0.488761 0.0455288 -1.45982e-19)
(0.618968 0.0683014 -7.6174e-20)
(0.747764 0.0935498 -9.24409e-20)
(0.868195 0.119324 -6.4073e-21)
(0.974495 0.143637 -4.70702e-20)
(1.06292 0.16484 2.87331e-19)
(1.13208 0.181869 5.32848e-20)
(1.18274 0.19432 8.80423e-20)
(1.21725 0.202373 2.57237e-19)
(1.23877 0.206602 -1.97898e-19)
(1.25065 0.207782 -1.78433e-20)
(1.25591 0.206696 -2.18495e-19)
(1.25701 0.204041 -2.09207e-19)
(1.25572 0.200467 -1.25843e-19)
(1.2533 0.195527 -1.60102e-19)
(0.0045658 -0.000318228 1.16896e-19)
(0.0415026 -0.00351935 -3.45697e-20)
(0.105538 -0.00182308 1.91122e-20)
(0.193414 0.00470898 -3.61498e-20)
(0.301648 0.0167765 9.72465e-20)
(0.425475 0.0346163 5.23275e-20)
(0.55856 0.0575391 -3.10226e-19)
(0.693368 0.0840298 1.58981e-19)
(0.822065 0.111988 -5.60812e-20)
(0.937739 0.13912 5.37919e-19)
(1.03548 0.16339 -2.33128e-19)
(1.11298 0.183369 2.96611e-20)
(1.17045 0.198392 1.93743e-19)
(1.21002 0.208494 -1.32423e-19)
(1.23498 0.214226 -1.92521e-19)
(1.24896 0.216413 1.21708e-19)
(1.25531 0.215945 3.97891e-21)
(1.25682 0.213615 -7.81339e-20)
(1.25554 0.210087 -3.13127e-19)
(1.25285 0.205822 3.42291e-21)
(1.24969 0.200661 -1.31121e-19)
(0.00939706 -0.00144428 2.99827e-20)
(0.0574541 -0.00538198 -3.07389e-20)
(0.133897 -0.0023565 2.41734e-19)
(0.234681 0.00699275 -1.05341e-20)
(0.35519 0.022921 -1.72081e-19)
(0.48923 0.0451225 8.52639e-20)
(0.629002 0.0722361 -3.23953e-20)
(0.765889 0.10208 -7.94246e-20)
(0.891742 0.132063 1.31114e-19)
(1.00025 0.159709 -2.1021e-19)
(1.08783 0.183125 -1.7342e-19)
(1.15383 0.201263 1.49824e-20)
(1.19998 0.213929 -1.37226e-19)
(1.22958 0.22159 1.32863e-19)
(1.24649 0.225105 1.80367e-20)
(1.25447 0.225462 3.19664e-20)
(1.25669 0.223587 -4.41448e-20)
(1.25554 0.220231 8.11188e-20)
(1.25269 0.21599 1.85363e-19)
(1.24912 0.211153 -1.00314e-19)
(1.24552 0.205835 1.07192e-19)
(0.0150524 -0.00239942 -2.73472e-20)
(0.0755197 -0.00654315 1.01513e-19)
(0.165231 -0.00152598 1.61918e-19)
(0.279211 0.0112996 -5.48329e-20)
(0.411512 0.0315967 -1.16651e-19)
(0.554397 0.0583716 9.93637e-20)
(0.698694 0.0894984 -3.69565e-20)
(0.835059 0.122142 -2.2087e-20)
(0.955573 0.153353 2.8293e-19)
(1.05504 0.180671 4.0622e-20)
(1.13155 0.202531 -7.41332e-20)
(1.18612 0.218376 -2.95365e-20)
(1.22184 0.228503 2.24402e-19)
(1.2428 0.23376 -4.54489e-20)
(1.25315 0.23523 1.33414e-19)
(1.25652 0.233981 -1.53275e-19)
(1.25573 0.230912 1.58709e-19)
(1.25275 0.226701 -8.58548e-20)
(1.24887 0.221854 4.07481e-20)
(1.24476 0.216525 4.32963e-20)
(1.2409 0.211073 -5.12041e-20)
(0.0215579 -0.00310629 8.62652e-20)
(0.0956759 -0.00680422 3.52401e-20)
(0.199354 0.000929223 -3.15038e-20)
(0.326538 0.0178796 1.29119e-19)
(0.469795 0.0429583 1.62596e-19)
(0.619817 0.0743499 -2.23683e-19)
(0.766294 0.109119 -8.06543e-20)
(0.899641 0.143861 1.75668e-19)
(1.01272 0.175458 -1.93684e-19)
(1.1019 0.201669 -6.09201e-20)
(1.16705 0.22141 -7.74487e-20)
(1.21078 0.234671 -4.9307e-20)
(1.23723 0.242212 -4.48524e-21)
(1.25095 0.245186 2.3266e-20)
(1.2561 0.244811 -3.63534e-20)
(1.25601 0.242162 7.41205e-20)
(1.25308 0.238073 3.77733e-20)
(1.24888 0.233129 4.21968e-20)
(1.24435 0.22774 1.60971e-19)
(1.23992 0.221968 -2.95625e-21)
(1.23588 0.216377 -8.29622e-20)
(0.0289208 -0.00348156 -1.75144e-19)
(0.117841 -0.00596279 8.55895e-20)
(0.235983 0.00525566 -1.44978e-19)
(0.376084 0.0269394 5.121e-20)
(0.529121 0.057087 8.74861e-20)
(0.684316 0.0929581 6.77344e-20)
(0.830596 0.130827 -1.52348e-20)
(0.958681 0.166873 -1.0567e-19)
(1.06274 0.198023 1.578e-19)
(1.14095 0.222455 1.5201e-20)
(1.195 0.239662 -1.15834e-19)
(1.22882 0.250188 5.68973e-21)
(1.24728 0.255194 1.05936e-19)
(1.2551 0.256048 -5.06141e-20)
(1.25623 0.254026 6.33796e-20)
(1.2536 0.250154 -7.92496e-20)
(1.24918 0.245172 2.68188e-20)
(1.24418 0.239575 4.25995e-22)
(1.23925 0.233679 1.2016e-19)
(1.23464 0.227489 -5.43461e-20)
(1.23046 0.221735 2.32379e-20)
(0.0371275 -0.00343839 4.11871e-20)
(0.141871 -0.00382046 3.34558e-21)
(0.274743 0.0116739 8.17074e-20)
(0.427168 0.0386302 -5.07603e-20)
(0.588518 0.0739859 -5.2009e-20)
(0.746775 0.114022 -1.7343e-20)
(0.890584 0.154312 -7.4158e-21)
(1.01153 0.190825 2.06342e-19)
(1.1055 0.220761 -2.43357e-20)
(1.17262 0.242865 -1.13632e-19)
(1.2162 0.257263 6.53628e-22)
(1.24123 0.265014 2.03641e-20)
(1.25298 0.267597 -7.07013e-20)
(1.25611 0.266509 -3.72635e-21)
(1.2542 0.263014 -7.84492e-20)
(1.24975 0.258056 -1.14877e-19)
(1.24432 0.252272 -6.8874e-20)
(1.23881 0.246069 -1.35182e-19)
(1.23364 0.239676 -3.49213e-20)
(1.22894 0.23308 2.6283e-20)
(1.22466 0.227124 1.20243e-20)
(0.0461409 -0.00288927 -4.66609e-20)
(0.167561 -0.000191015 -6.28296e-20)
(0.315173 0.0203674 -1.722e-19)
(0.479036 0.0530386 2.87624e-20)
(0.647007 0.0935815 1.07371e-19)
(0.806181 0.137306 5.05869e-20)
(0.945468 0.179247 -1.28172e-19)
(1.05784 0.215401 5.96096e-20)
(1.14115 0.243446 -1.44543e-20)
(1.19746 0.262806 -8.67946e-21)
(1.23148 0.274239 -4.45278e-20)
(1.24892 0.279252 5.89822e-20)
(1.25517 0.279557 -1.6225e-20)
(1.25464 0.276697 1.31351e-20)
(1.25048 0.271876 1.03703e-20)
(1.24475 0.265933 -1.51443e-21)
(1.23866 0.259403 -2.29077e-21)
(1.23284 0.252613 -6.25909e-20)
(1.22755 0.24572 -5.61453e-20)
(1.22281 0.23872 4.75978e-20)
(1.21845 0.232519 -3.84272e-20)
(0.0558993 -0.00174929 1.30942e-19)
(0.194646 0.00509116 5.89332e-20)
(0.356742 0.0314726 6.21098e-20)
(0.530895 0.0701823 -2.1465e-20)
(0.703648 0.11573 9.52921e-20)
(0.861666 0.162534 -9.19242e-20)
(0.994692 0.20531 4.83701e-20)
(1.0975 0.240325 3.60199e-20)
(1.17004 0.265914 4.18158e-21)
(1.21615 0.282234 -2.95099e-20)
(1.24165 0.290642 -2.09405e-20)
(1.25267 0.293009 2.71053e-20)
(1.25451 0.291188 -5.13833e-21)
(1.25118 0.286708 2.08785e-20)
(1.24539 0.280675 -2.95265e-20)
(1.23878 0.273815 -5.4173e-20)
(1.23228 0.266569 -1.70374e-20)
(1.2263 0.259195 3.65851e-20)
(1.22097 0.25179 -4.06242e-20)
(1.21624 0.24438 2.46081e-20)
(1.21182 0.237886 5.93944e-21)
(0.066317 6.04362e-05 -3.7884e-20)
(0.222806 0.0121631 -5.30759e-20)
(0.398863 0.0450718 -5.25141e-20)
(0.581938 0.0900091 -3.56642e-20)
(0.757573 0.140226 -1.58376e-20)
(0.912533 0.189403 4.03056e-20)
(1.03792 0.232191 -1.22342e-20)
(1.13059 0.265367 2.13048e-20)
(1.1926 0.288048 -5.83413e-20)
(1.22934 0.30114 3.82078e-20)
(1.24742 0.306534 1.1356e-20)
(1.25313 0.306376 2.01428e-20)
(1.2515 0.302579 -1.69781e-20)
(1.24608 0.296603 2.02525e-20)
(1.23914 0.289442 1.09818e-20)
(1.23197 0.281708 5.47111e-21)
(1.22522 0.273756 -5.05706e-21)
(1.21919 0.265788 -3.35291e-20)
(1.21389 0.257854 3.2499e-20)
(1.20921 0.250025 -9.8145e-21)
(1.20476 0.24319 -1.03092e-20)
(0.0772845 0.00260927 -8.63323e-22)
(0.251673 0.0211262 -1.79367e-20)