/*--------------------------------*- C++ -*----------------------------------*\
  =========                 |
  \\      /  F ield         | OpenFOAM: The Open Source CFD Toolbox
   \\    /   O peration     | Website:  https://openfoam.org
    \\  /    A nd           | Version:  7
     \\/     M anipulation  |
\*---------------------------------------------------------------------------*/
FoamFile
{
    version     2.0;
    format      ascii;
    class       surfaceScalarField;
    location    "20";
    object      phi;
}
// * * * * * * * * * * * * * * * * * * * * * * * * * * * * * * * * * * * * * //

dimensions      [0 3 -1 0 0 0 0];

internalField   nonuniform List<scalar> 
17388
(
-3.49584e-06
3.34136e-06
1.54482e-07
-1.26639e-05
8.78114e-06
3.86931e-07
-2.66095e-05
1.33848e-05
5.60721e-07
-4.45357e-05
1.72444e-05
6.81816e-07
-6.57268e-05
2.04343e-05
7.56776e-07
-8.95403e-05
2.30211e-05
7.92394e-07
-0.000115397
2.50617e-05
7.95164e-07
-0.000142771
2.66032e-05
7.70804e-07
-0.000171179
2.76844e-05
7.23908e-07
-0.000200175
2.83375e-05
6.57762e-07
-0.000229342
2.85929e-05
5.74363e-07
-0.000258303
2.84864e-05
4.74612e-07
-0.000286731
2.80697e-05
3.58642e-07
-0.000314383
2.74254e-05
2.26182e-07
-0.000341144
2.6684e-05
7.68832e-08
-0.000367097
2.60428e-05
-8.94954e-08
-0.000392604
2.57804e-05
-2.73168e-07
-0.00041839
2.62607e-05
-4.74717e-07
-0.000445599
2.79043e-05
-6.95792e-07
-0.000475798
3.11387e-05
-9.40013e-07
3.64268e-05
-1.21494e-06
-0.000511009
-3.45042e-06
6.79178e-06
-1.25047e-05
1.78354e-05
-2.6282e-05
2.71622e-05
-4.39961e-05
3.49585e-05
-6.49393e-05
4.13775e-05
-8.84751e-05
4.65569e-05
-0.000114029
5.06154e-05
-0.000141077
5.36517e-05
-0.000169139
5.5746e-05
-0.000197765
5.69635e-05
-0.000226535
5.73631e-05
-0.00025506
5.70109e-05
-0.000282992
5.60016e-05
-0.000310053
5.44872e-05
-0.000336082
5.27129e-05
-0.000361095
5.10561e-05
-0.000385376
5.0061e-05
-0.000409568
5.0453e-05
-0.000434755
5.30908e-05
-0.000462483
5.8867e-05
6.87644e-05
-0.000494821
-3.36021e-06
1.0152e-05
-1.21883e-05
2.66635e-05
-2.56309e-05
4.06048e-05
-4.29225e-05
5.22502e-05
-6.33712e-05
6.18262e-05
-8.63523e-05
6.9538e-05
-0.0001113
7.5563e-05
-0.000137697
8.00485e-05
-0.000165064
8.3113e-05
-0.000192951
8.48503e-05
-0.000220928
8.53404e-05
-0.000248585
8.46682e-05
-0.000275537
8.29539e-05
-0.000301445
8.03949e-05
-0.000326052
7.73202e-05
-0.000349249
7.42529e-05
-0.000371162
7.19733e-05
-0.000392268
7.15599e-05
-0.000413519
7.43417e-05
-0.000436408
8.17556e-05
9.54377e-05
-0.000463081
-3.22751e-06
1.33795e-05
-1.17219e-05
3.51579e-05
-2.46692e-05
5.35521e-05
-4.13334e-05
6.89143e-05
-6.10446e-05
8.15373e-05
-8.31946e-05
9.1688e-05
-0.00010723
9.95982e-05
-0.000132642
0.00010546
-0.000158955
0.000109427
-0.000185718
0.000111614
-0.000212492
0.000112114
-0.000238838
0.000111015
-0.000264325
0.000108441
-0.00028853
0.000104599
-0.000311068
9.98591e-05
-0.000331652
9.4836e-05
-0.000350174
9.04956e-05
-0.000366857
8.8243e-05
-0.000382426
8.99106e-05
-0.000398255
9.75847e-05
0.000113758
-0.000416575
-3.05579e-06
1.64353e-05
-1.11166e-05
4.32187e-05
-2.34171e-05
6.58526e-05
-3.92569e-05
8.47542e-05
-5.7993e-05
0.000100273
-7.90369e-05
0.000112732
-0.000101849
0.000122411
-0.000125931
0.000129542
-0.000150814
0.000134309
-0.000176045
0.000136845
-0.000201175
0.000137243
-0.000225741
0.000135581
-0.000249257
0.000131957
-0.00027121
0.000126552
-0.00029107
0.000119719
-0.000308329
0.000112096
-0.000322589
0.000104755
-0.000333718
9.93722e-05
-0.000342103
9.82959e-05
-0.000348887
0.000104368
0.000121194
-0.000356324
-2.84972e-06
1.9285e-05
-1.03871e-05
5.0756e-05
-2.19012e-05
7.73667e-05
-3.67313e-05
9.95843e-05
-5.42628e-05
0.000117805
-7.39278e-05
0.000132397
-9.52014e-05
0.000143684
-0.000117595
0.000151936
-0.000140645
0.000157359
-0.000163899
0.000160099
-0.0001869
0.000160244
-0.000209162
0.000157843
-0.000230153
0.000152947
-0.000249271
0.000145671
-0.000265841
0.000136289
-0.000279122
0.000125377
-0.00028838
0.000114013
-0.00029305
0.000104042
-0.000293052
9.82981e-05
-0.000289138
0.000100455
0.000115472
-0.000283416
-2.61517e-06
2.19002e-05
-9.55187e-06
5.76927e-05
-2.01558e-05
8.79707e-05
-3.38055e-05
0.000113234
-4.99138e-05
0.000133913
-6.79314e-05
0.000150414
-8.73453e-05
0.000163098
-0.000107674
0.000172265
-0.000128458
0.000178143
-0.000149243
0.000180885
-0.000169564
0.000180565
-0.000188919
0.000177197
-0.000206735
0.000170764
-0.000222342
0.000161277
-0.000234931
0.000148878
-0.000243549
0.000133994
-0.000247119
0.000117584
-0.000244592
0.000101515
-0.000235319
8.90251e-05
-0.00021953
8.46651e-05
9.46999e-05
-0.000198758
-2.3592e-06
2.42594e-05
-8.63328e-06
6.39668e-05
-1.82219e-05
9.75593e-05
-3.05388e-05
0.000125551
-4.50197e-05
0.000148394
-6.11285e-05
0.000166523
-7.83584e-05
0.000180328
-9.62287e-05
0.000190135
-0.000114276
0.00019619
-0.000132041
0.00019865
-0.000149048
0.000197572
-0.000164776
0.000192925
-0.000178624
0.000184613
-0.000189867
0.000172521
-0.000197601
0.000156611
-0.000200692
0.000137086
-0.000197766
0.000114658
-0.000187296
9.10446e-05
-0.000167999
6.97285e-05
-0.00013972
5.63854e-05
5.77533e-05
-0.000102773
-2.0899e-06
2.63493e-05
-7.65681e-06
6.95337e-05
-1.61466e-05
0.000106049
-2.70001e-05
0.000136405
-3.96674e-05
0.000161061
-5.36166e-05
0.000180472
-6.83373e-05
0.000195049
-8.33393e-05
0.000205137
-9.81444e-05
0.000210995
-0.000112275
0.00021278
-0.000125232
0.000210529
-0.000136472
0.000204165
-0.000145364
0.000193505
-0.00015114
0.000178297
-0.000152827
0.000158298
-0.000149163
0.000133421
-0.000138534
0.000104029
-0.000118969
7.14796e-05
-8.83295e-05
3.90894e-05
-4.58023e-05
1.38582e-05
9.80395e-06
2.14705e-06
-1.81614e-06
2.81654e-05
-6.65032e-06
7.43679e-05
-1.39816e-05
0.00011338
-2.32656e-05
0.000145688
-3.39542e-05
0.00017175
-4.55071e-05
0.000192025
-5.73969e-05
0.000206939
-6.91078e-05
0.000216848
-8.01297e-05
0.000222017
-8.99461e-05
0.000222596
-9.80164e-05
0.000218599
-0.000103751
0.000209899
-0.000106474
0.000196227
-0.000105369
0.000177192
-9.94063e-05
0.000152335
-8.72317e-05
0.000121247
-6.70325e-05
8.38299e-05
-3.64054e-05
4.08526e-05
7.61454e-06
-4.93055e-06
6.79429e-05
-4.64702e-05
-6.61202e-05
0.000143867
-1.54716e-06
2.97126e-05
-5.64263e-06
7.84634e-05
-1.17805e-05
0.000119518
-1.94143e-05
0.000153322
-2.79819e-05
0.000180318
-3.69187e-05
0.000200962
-4.56621e-05
0.000215682
-5.36513e-05
0.000224837
-6.03198e-05
0.000228686
-6.50853e-05
0.000227361
-6.73326e-05
0.000220847
-6.63916e-05
0.000208958
-6.15049e-05
0.000191341
-5.17811e-05
0.000167469
-3.61232e-05
0.000136677
-1.31151e-05
9.82387e-05
1.9154e-05
5.15608e-05
6.33381e-05
-3.33154e-06
0.000122959
-6.45517e-05
0.000202155
-0.000125666
-0.000167947
0.000303982
-1.29197e-06
3.10045e-05
-4.6615e-06
8.18329e-05
-9.59454e-06
0.000124451
-1.5522e-05
0.00015925
-2.18486e-05
0.000186644
-2.79657e-05
0.000207079
-3.32549e-05
0.000220971
-3.70851e-05
0.000228667
-3.88052e-05
0.000230406
-3.77314e-05
0.000226288
-3.31322e-05
0.000216247
-2.42084e-05
0.000200035
-1.00672e-05
0.0001772
1.03141e-05
0.000147087
3.81433e-05
0.000108848
7.49023e-05
6.14797e-05
0.000122522
3.94085e-06
0.000183654
-6.44629e-05
0.000262073
-0.000142972
0.000362904
-0.000226496
-0.000297296
0.000492253
-1.05856e-06
3.20631e-05
-3.73098e-06
8.45053e-05
-7.46735e-06
0.000128188
-1.16522e-05
0.000163435
-1.56351e-05
0.000190627
-1.8741e-05
0.000210185
-2.02707e-05
0.000222501
-1.94954e-05
0.000227892
-1.5645e-05
0.000226556
-7.89397e-06
0.000218537
4.65477e-06
0.000203699
2.29886e-05
0.000181701
4.82038e-05
0.000151984
8.15293e-05
0.000113762
0.000124357
6.60204e-05
0.000178295
7.54177e-06
0.000245262
-6.30259e-05
0.000327772
-0.000146973
0.000429395
-0.000244594
0.000555302
-0.000352404
-0.000457316
0.000715321
-8.52993e-07
3.29161e-05
-2.86839e-06
8.65207e-05
-5.42892e-06
0.000130748
-7.84628e-06
0.000165852
-9.38994e-06
0.000192171
-9.29343e-06
0.000210088
-6.74925e-06
0.000219957
-8.98982e-07
0.000222042
9.18389e-06
0.000216473
2.45114e-05
0.000203209
4.61996e-05
0.00018201
7.54854e-05
0.000152415
0.000113741
0.000113728
0.000162484
6.50193e-05
0.000223379
5.12544e-06
0.00029824
-6.73191e-05
0.000389047
-0.000153833
0.000498078
-0.000256004
0.000628378
-0.000374894
0.000784105
-0.000508131
-0.000651945
0.000978734
-6.78427e-07
3.35945e-05
-2.08104e-06
8.79233e-05
-3.48885e-06
0.000132156
-4.1119e-06
0.000166475
-3.1119e-06
0.000191171
3.97045e-07
0.000206579
7.36009e-06
0.000212994
1.88025e-05
0.000210599
3.58479e-05
0.000199427
5.97421e-05
0.000179315
9.18738e-05
0.000149879
0.000133791
0.000110498
0.000187205
6.03139e-05
0.00025399
-1.76518e-06
0.00033615
-7.70355e-05
0.000435781
-0.00016695
0.000554982
-0.000273035
0.000695808
-0.00039683
0.00086059
-0.000539676
0.00105164
-0.000699185
-0.000885152
0.00128485
-5.34189e-07
3.41287e-05
-1.36326e-06
8.87524e-05
-1.63016e-06
0.000132423
-4.11204e-07
0.000165256
3.26541e-06
0.000187494
1.04393e-05
0.000199406
2.22307e-05
0.000201202
3.98677e-05
0.000192962
6.4716e-05
0.000174579
9.83048e-05
0.000145726
0.000142347
0.000105836
0.000198752
5.40934e-05
0.000269618
-1.05517e-05
0.000357204
-8.9352e-05
0.000463873
-0.000183705
0.000591987
-0.000295063
0.000743754
-0.000424802
0.000920995
-0.000574071
0.00112517
-0.000743846
0.0013566
-0.000930616
-0.00115941
0.00163086
-4.15008e-07
3.45437e-05
-6.94432e-07
8.90318e-05
1.98102e-07
0.00013153
3.34101e-06
0.000162113
9.88644e-06
0.000180949
2.10567e-05
0.000188235
3.81846e-05
0.000184074
6.27472e-05
0.0001684
9.63992e-05
0.000140927
0.000141001
0.000101125
0.000198634
4.82027e-05
0.000271602
-1.88738e-05
0.000362397
-0.000101347
0.000473644
-0.000200598
0.000607981
-0.000318042
0.000767903
-0.000454986
0.000955537
-0.000612435
0.00117233
-0.000790869
0.00141851
-0.000990025
0.00169323
-0.00120533
-0.00147348
0.0020073
-3.10599e-07
3.48543e-05
-2.96265e-08
8.87508e-05
2.06987e-06
0.000129431
7.29075e-06
0.000156892
1.698e-05
0.00017126
3.25863e-05
0.000172629
5.56992e-05
0.000160962
8.80908e-05
0.000136008
0.000131752
9.72658e-05
0.000188915
4.39616e-05
0.000262056
-2.49389e-05
0.000353871
-0.000110688
0.0004672
-0.000214677
0.000604919
-0.000338317
0.000769749
-0.000482872
0.000964018
-0.000649255
0.00118937
-0.000837782
0.00144649
-0.001048
0.00173384
-0.00127737
0.00205086
-0.00152235
-0.00182014
0.00239751
-2.08333e-07
3.50626e-05
6.61655e-07
8.78809e-05
4.10333e-06
0.000125989
1.16351e-05
0.00014936
2.48532e-05
0.000158041
4.54751e-05
0.000152007
7.53932e-05
0.000131043
0.00011672
9.46808e-05
0.000171822
4.21638e-05
0.000243326
-2.75424e-05
0.000334094
-0.000115707
0.00044715
-0.000223744
0.000585553
-0.000353079
0.000752195
-0.000504959
0.000949544
-0.000680221
0.00117931
-0.000879021
0.00144208
-0.00110055
0.00173712
-0.00134304
0.00206068
-0.00160092
0.00241337
-0.00187505
-0.00218522
0.00277845
-8.87344e-08
3.51514e-05
1.46843e-06
8.63237e-05
6.43897e-06
0.000121019
1.66151e-05
0.000139184
3.3877e-05
0.00014078
6.02542e-05
0.00012563
9.79858e-05
9.33119e-05
0.000149563
4.31035e-05
0.000217747
-2.60201e-05
0.000305544
-0.00011534
0.000416132
-0.000226294
0.000552715
-0.000360327
0.000718311
-0.000518676
0.000915464
-0.000702112
0.00114589
-0.000910652
0.00141013
-0.00114326
0.00170717
-0.00139758
0.00203415
-0.00167003
0.00238546
-0.00195223
0.00276032
-0.0022499
-0.00254743
0.00312253
7.40899e-08
3.50773e-05
2.45774e-06
8.394e-05
9.23405e-06
0.000114242
2.25001e-05
0.000125918
4.44599e-05
0.00011882
7.74967e-05
9.2593e-05
0.000124231
4.65773e-05
0.000187552
-2.02169e-05
0.000270596
-0.000109065
0.000376678
-0.000221421
0.00050913
-0.000358746
0.00067107
-0.000522267
0.000865082
-0.000712688
0.00109284
-0.00092987
0.00135471
-0.00117253
0.00164944
-0.00143799
0.00197398
-0.00172212
0.00232326
-0.00201931
0.00269173
-0.0023207
0.00307086
-0.00262904
-0.00287319
0.00339663
2.95523e-07
3.47818e-05
3.70752e-06
8.0528e-05
1.26525e-05
0.000105297
2.95665e-05
0.000109004
5.7014e-05
9.13723e-05
9.77636e-05
5.18433e-05
0.000154835
-1.04943e-05
0.000231496
-9.68781e-05
0.000331191
-0.000208759
0.000457378
-0.000347608
0.000613279
-0.000514648
0.000801528
-0.000710515
0.00102375
-0.000934909
0.00128013
-0.00118625
0.00156908
-0.00146148
0.00188702
-0.00175593
0.00222853
-0.00206363
0.00258644
-0.00237722
0.00295575
-0.00269001
0.00332335
-0.00299663
-0.00327275
0.00372291
6.01824e-07
3.41799e-05
5.29482e-06
7.58351e-05
1.6852e-05
9.37402e-05
3.80751e-05
8.77811e-05
7.1916e-05
5.75314e-05
0.000121544
2.2153e-06
0.000190363
-7.93137e-05
0.000281954
-0.000188468
0.000399914
-0.000326719
0.000547592
-0.000495287
0.00072771
-0.000694765
0.000941902
-0.000924708
0.00119024
-0.00118325
0.00147086
-0.00146687
0.00177971
-0.00177033
0.00211075
-0.00208696
0.00245632
-0.00240921
0.00280814
-0.00272903
0.00315869
-0.00304057
0.00349869
-0.00333664
-0.00361583
0.00384178
1.012e-06
3.31679e-05
7.28802e-06
6.9559e-05
2.19715e-05
7.90567e-05
4.82487e-05
6.15039e-05
8.9471e-05
1.63092e-05
0.000149197
-5.75105e-05
0.000231155
-0.000161272
0.000339103
-0.000296416
0.000476553
-0.000464169
0.000646377
-0.000665111
0.000850307
-0.000898696
0.00108841
-0.00116281
0.00135866
-0.0014535
0.00165672
-0.00176492
0.00197602
-0.00208964
0.00230835
-0.0024193
0.00264466
-0.00274552
0.00297623
-0.0030606
0.00329548
-0.00335981
0.00359669
-0.00363784
-0.00389941
0.00388027
1.54246e-06
3.16255e-05
9.74305e-06
6.13584e-05
2.8121e-05
6.06787e-05
6.02532e-05
2.93718e-05
0.00010988
-3.33178e-05
0.0001809
-0.00012853
0.00027725
-0.000257622
0.00040265
-0.000421815
0.00056019
-0.000621709
0.000751805
-0.000856726
0.000977698
-0.00112459
0.00123585
-0.00142096
0.00152176
-0.00173941
0.00182856
-0.00207172
0.00214761
-0.00240869
0.0024694
-0.00274108
0.00278472
-0.00306084
0.00308585
-0.00336173
0.00336715
-0.00364112
0.00362552
-0.00389621
-0.00413588
0.00386198
2.20564e-06
2.94198e-05
1.27006e-05
5.08635e-05
3.53746e-05
3.80048e-05
7.41834e-05
-9.43698e-06
0.000133217
-9.23511e-05
0.000216616
-0.000211929
0.000328341
-0.000369348
0.000471772
-0.000565247
0.000649158
-0.000799094
0.000860986
-0.00106855
0.00110543
-0.00136903
0.00137801
-0.00169355
0.00167173
-0.00203313
0.00197764
-0.00237763
0.00228587
-0.00271692
0.00258691
-0.00304212
0.00287278
-0.0033467
0.003138
-0.00362696
0.00337974
-0.00388286
0.00359821
-0.00411467
-0.0043328
0.00379514
3.0099e-06
2.641e-05
1.6185e-05
3.76884e-05
4.37665e-05
1.04232e-05
9.00549e-05
-5.57253e-05
0.000159411
-0.000161707
0.000256065
-0.000308584
0.000383742
-0.000497025
0.000545105
-0.00072661
0.000741082
-0.000995071
0.000970224
-0.0012977
0.0012283
-0.00162711
0.00150835
-0.0019736
0.00180125
-0.00232603
0.00209683
-0.00267321
0.00238522
-0.00300531
0.0026582
-0.0033151
0.00291013
-0.00359864
0.00313842
-0.00385524
0.00334318
-0.00408762
0.00352709
-0.00429858
-0.00449896
0.00369324
3.9598e-06
2.24502e-05
2.02039e-05
2.14443e-05
5.329e-05
-2.26629e-05
0.0001078
-0.000110235
0.000188242
-0.000242149
0.000298721
-0.000419063
0.000442395
-0.000640699
0.000620774
-0.000904988
0.000832992
-0.00120729
0.00107529
-0.00153999
0.00134094
-0.00189276
0.00162081
-0.00225346
0.00190444
-0.00260967
0.00218161
-0.00295037
0.00244368
-0.00326738
0.00268473
-0.00355615
0.00290198
-0.00381589
0.00309567
-0.00404894
0.00326825
-0.0042602
0.00342394
-0.00445427
-0.00464148
0.00356647
5.05651e-06
1.73936e-05
2.47495e-05
1.75126e-06
6.38965e-05
-6.18098e-05
0.000127263
-0.000173602
0.000219334
-0.00033422
0.000343808
-0.000543537
0.000502888
-0.000799779
0.00069648
-0.00109858
0.000921533
-0.00143234
0.00117181
-0.00179027
0.00143833
-0.00215928
0.00171046
-0.0025256
0.00197754
-0.00287674
0.0022304
-0.00320324
0.00246263
-0.00349961
0.00267108
-0.0037646
0.00285574
-0.00400055
0.0030191
-0.0042123
0.00316509
-0.00440619
0.00329851
-0.00458768
-0.00476602
0.00342304
6.2981e-06
1.10955e-05
2.97979e-05
-2.17485e-05
7.54956e-05
-0.000107508
0.000148205
-0.000246312
0.00025216
-0.000438175
0.000390319
-0.000681695
0.000563513
-0.000972973
0.000769639
-0.00130471
0.00100323
-0.00166593
0.0012557
-0.00204274
0.00151638
-0.00241996
0.00177415
-0.00278337
0.0020192
-0.0031218
0.0022444
-0.00342843
0.00244601
-0.00370121
0.00262361
-0.00394219
0.00277942
-0.00415637
0.00291739
-0.00435027
0.00304205
-0.00453084
0.00315803
-0.00470367
-0.00487658
0.00326859
7.67939e-06
3.41615e-06
3.53089e-05
-4.9378e-05
8.79536e-05
-0.000160152
0.000170298
-0.000328656
0.000286046
-0.000553922
0.000437045
-0.000832695
0.000622351
-0.00115828
0.000837561
-0.00151992
0.00107479
-0.00190317
0.00132356
-0.0022915
0.00157236
-0.00266876
0.00181063
-0.00302164
0.00203032
-0.00334149
0.00222687
-0.00362498
0.0023992
-0.00387355
0.00254916
-0.00409216
0.00268049
-0.0042877
0.00279775
-0.00446754
0.00290544
-0.00463853
0.00300764
-0.00480587
-0.00497582
0.00310689
9.19155e-06
-5.77541e-06
4.12251e-05
-8.14116e-05
0.000101092
-0.000220019
0.000193126
-0.00042069
0.000320187
-0.000680983
0.000482627
-0.000995135
0.000677391
-0.00135304
0.000897665
-0.00174019
0.00113344
-0.00213894
0.00137303
-0.00253109
0.00160507
-0.0029008
0.00182045
-0.00323702
0.0020135
-0.00353454
0.00218227
-0.00379374
0.002328
-0.00401928
0.00245414
-0.0042183
0.00256518
-0.00439873
0.00266572
-0.00456808
0.00275978
-0.00473259
0.0028507
-0.00489678
-0.00506543
0.0029403
1.08215e-05
-1.6597e-05
4.74701e-05
-0.00011806
0.000114688
-0.000287237
0.000216199
-0.000522201
0.000353675
-0.000818459
0.000525623
-0.00116708
0.000726667
-0.00155409
0.0009477
-0.00196122
0.00117713
-0.00236837
0.00140291
-0.00275687
0.00161474
-0.00311263
0.0018056
-0.00342788
0.00197239
-0.00370132
0.00211551
-0.00393686
0.00223793
-0.00414171
0.00234402
-0.00432438
0.0024384
-0.00449312
0.00252532
-0.00465499
0.00260813
-0.0048154
0.00268939
-0.00497805
-0.00514636
0.00277032
1.25513e-05
-2.91483e-05
5.39475e-05
-0.000159456
0.000128473
-0.000361763
0.000238956
-0.000632684
0.000385538
-0.00096504
0.000564601
-0.00134615
0.000768411
-0.0017579
0.00098592
-0.00217873
0.00120466
-0.00258711
0.00141314
-0.00296535
0.00160278
-0.00330228
0.00176899
-0.0035941
0.00191107
-0.0038434
0.00203131
-0.0040571
0.00213377
-0.00424417
0.00222313
-0.00441374
0.00230378
-0.00457377
0.00237934
-0.00473055
0.00245248
-0.00488854
0.00252509
-0.00505065
-0.00521912
0.00259785
1.43574e-05
-4.35057e-05
6.05415e-05
-0.00020564
0.000142145
-0.000443366
0.000260792
-0.000751331
0.00041479
-0.00111904
0.000598231
-0.00152959
0.000801185
-0.00196085
0.00101121
-0.00238875
0.00121576
-0.00279167
0.00140463
-0.00315421
0.00157143
-0.00346908
0.00171397
-0.00373664
0.00183358
-0.00396301
0.00193386
-0.00415738
0.00201942
-0.00432973
0.00209481
-0.00448913
0.00216391
-0.00464287
0.00222968
-0.00479633
0.00229416
-0.00495302
0.00235866
-0.00511515
-0.00528395
0.0024235
1.62107e-05
-5.97164e-05
6.71187e-05
-0.000256548
0.000155368
-0.000531615
0.000281083
-0.000877046
0.000440492
-0.00127845
0.000625383
-0.00171448
0.000823975
-0.00215944
0.00102311
-0.00258788
0.00121093
-0.00297949
0.00137903
-0.00332232
0.00152337
-0.00361342
0.00164393
-0.0038572
0.00174357
-0.00406264
0.00182667
-0.00424048
0.00189791
-0.00440098
0.00196146
-0.00455268
0.00202059
-0.004702
0.00207761
-0.00485334
0.00213401
-0.00500943
0.00219069
-0.00517183
-0.00534095
0.00224769
1.8077e-05
-7.77933e-05
7.35313e-05
-0.000312003
0.000167795
-0.000625879
0.000299222
-0.00100847
0.00046181
-0.00144104
0.000645194
-0.00189786
0.000836241
-0.00235049
0.00102178
-0.00277342
0.00119126
-0.00314898
0.00133842
-0.00346947
0.00146142
-0.00373642
0.00156203
-0.00395781
0.00164417
-0.00414479
0.00171253
-0.00430884
0.00177154
-0.00445999
0.00182483
-0.00460596
0.00187505
-0.00475221
0.00192395
-0.00490225
0.00197262
-0.00505809
0.00202159
-0.0052208
-0.00539013
0.00207077
1.99179e-05
-9.77113e-05
7.96235e-05
-0.000371708
0.00017908
-0.000725335
0.000314646
-0.00114404
0.000478068
-0.00160446
0.000657116
-0.00207691
0.000837904
-0.00253128
0.0010079
-0.00294342
0.00115831
-0.00329939
0.00128505
-0.00359621
0.00138828
-0.00383965
0.00147108
-0.00404062
0.00153798
-0.00421168
0.00159362
-0.00436448
0.00164199
-0.00450836
0.00168614
-0.00465011
0.00172814
-0.00479421
0.0017693
-0.00494342
0.00181038
-0.00509917
0.00185169
-0.0052621
-0.00543146
0.00189302
2.16921e-05
-0.000119403
8.5237e-05
-0.000435253
0.000188893
-0.000828991
0.000326879
-0.00128203
0.00048878
-0.00176636
0.000660928
-0.00224906
0.000829297
-0.00269965
0.000982536
-0.00309666
0.00111384
-0.00343069
0.0012212
-0.00370357
0.0013064
-0.00392485
0.00137344
-0.00410766
0.00142705
-0.00426529
0.00147157
-0.004409
0.00151048
-0.00454727
0.00154624
-0.00468587
0.00158046
-0.00482843
0.00161409
-0.00497704
0.00164763
-0.00513272
0.00168125
-0.00529572
-0.00546491
0.0017147
2.33569e-05
-0.00014276
9.02189e-05
-0.000502115
0.000196942
-0.000935715
0.000335546
-0.00142063
0.000493673
-0.00192448
0.000656716
-0.0024121
0.000811081
-0.00285401
0.000946984
-0.00323256
0.00105967
-0.00354338
0.00114898
-0.00379288
0.00121793
-0.0039938
0.00127104
-0.00416078
0.00131296
-0.0043072
0.0013476
-0.00444364
0.00137788
-0.00457756
0.00140576
-0.00471375
0.00143244
-0.00485511
0.00145862
-0.00500322
0.00148463
-0.00515873
0.00151053
-0.00532162
-0.00549045
0.00153607
2.48699e-05
-0.00016763
9.44284e-05
-0.000571674
0.000202986
-0.00104427
0.000340396
-0.00155804
0.000492685
-0.00207677
0.000644826
-0.00256424
0.00078415
-0.00299334
0.000902667
-0.00335108
0.000997584
-0.00363829
0.00107029
-0.00386559
0.00112467
-0.00404818
0.00116543
-0.00420154
0.00119694
-0.00433871
0.00122262
-0.00446932
0.00124485
-0.00459979
0.00126515
-0.00473405
0.00128442
-0.00487438
0.00130317
-0.00502196
0.00132162
-0.00517719
0.00133975
-0.00533975
-0.00550806
0.00135736
2.61909e-05
-0.000193821
9.7743e-05
-0.000643226
0.000206841
-0.00115337
0.000341307
-0.00169251
0.000485943
-0.00222141
0.000625814
-0.00270411
0.000749541
-0.00311706
0.000851021
-0.00345256
0.000929234
-0.00371651
0.000986793
-0.00392315
0.0010281
-0.00408949
0.00105783
-0.00423126
0.00107992
-0.0043608
0.00109729
-0.00448669
0.00111185
-0.00461434
0.00112475
-0.00474695
0.00113667
-0.0048863
0.00114797
-0.00503326
0.00115881
-0.00518802
0.00116913
-0.00535008
-0.00551772
0.00117879
2.72836e-05
-0.000221105
0.000100064
-0.000716007
0.000208392
-0.0012617
0.00033828
-0.00182239
0.000473738
-0.00235687
0.000600375
-0.00283075
0.000708355
-0.00322504
0.000793423
-0.00353762
0.000856094
-0.00377918
0.000899879
-0.00396693
0.000929427
-0.00411904
0.000949168
-0.004251
0.000962597
-0.00437423
0.000972127
-0.00449622
0.00097926
-0.00462148
0.000984867
-0.00475256
0.000989443
-0.00489088
0.000993256
-0.00503708
0.000996418
-0.00519119
0.000998874
-0.00535253
-0.0055194
0.00100055
2.81169e-05
-0.000249222
0.00010132
-0.00078921
0.000207594
-0.00136797
0.000331428
-0.00194623
0.000456485
-0.00248192
0.000569292
-0.00294356
0.000661688
-0.00331744
0.000731147
-0.00360708
0.000779449
-0.00382748
0.000810706
-0.00399819
0.000829591
-0.00413793
0.000840188
-0.0042616
0.000845511
-0.00437955
0.000847523
-0.00449823
0.000847381
-0.00462134
0.000845735
-0.00475092
0.000842948
-0.00488809
0.000839226
-0.00503336
0.000834646
-0.00518661
0.000829168
-0.00534705
-0.00551304
0.000822806
2.86659e-05
-0.000277887
0.000101468
-0.000862012
0.000204463
-0.00147097
0.000320958
-0.00206272
0.000434689
-0.00259566
0.000533382
-0.00304225
0.000610589
-0.00339465
0.000665334
-0.00366183
0.00070039
-0.00386253
0.00072022
-0.00401802
0.00072935
-0.00414706
0.000731454
-0.0042637
0.000729081
-0.00437718
0.000723795
-0.00449295
0.000716472
-0.00461401
0.000707586
-0.00474203
0.000697404
-0.00487791
0.000686085
-0.00502204
0.000673696
-0.00517422
0.000660209
-0.00533356
-0.00549851
0.00064568
2.89125e-05
-0.0003068
0.000100494
-0.000933593
0.000199074
-0.00156955
0.000307151
-0.0021708
0.000408904
-0.00269741
0.000493457
-0.0031268
0.000556027
-0.00345722
0.000596984
-0.00370279
0.000619835
-0.00388538
0.000629184
-0.00402737
0.000629297
-0.00414717
0.00062341
-0.00425782
0.000613641
-0.00436741
0.000601213
-0.00448052
0.000586774
-0.00459957
0.000570655
-0.00472591
0.000553042
-0.0048603
0.000534052
-0.00500305
0.000513762
-0.00515393
0.000492191
-0.00531199
-0.00547561
0.000469293
2.88463e-05
-0.000335646
9.84103e-05
-0.00100316
0.000191554
-0.00166269
0.000290338
-0.00226958
0.000379706
-0.00278678
0.000450291
-0.00319739
0.000498877
-0.0035058
0.000526955
-0.00373086
0.000538538
-0.00389697
0.00053821
-0.00402704
0.000529899
-0.00413886
0.000516408
-0.00424432
0.000499465
-0.00435047
0.000480011
-0.00446106
0.00045851
-0.00457807
0.000435184
-0.00470258
0.000410146
-0.00483526
0.00038345
-0.00497635
0.000355117
-0.00512559
0.000325227
-0.0052821
-0.0054443
0.000293921
2.84638e-05
-0.00036411
9.52557e-05
-0.00106995
0.000182066
-0.0017495
0.000270881
-0.0023584
0.000347668
-0.00286356
0.000404607
-0.00325433
0.000439909
-0.0035411
0.000455973
-0.00374693
0.000457119
-0.00389811
0.000447786
-0.00401771
0.000431526
-0.0041226
0.000410729
-0.00422353
0.000386782
-0.00432652
0.000360394
-0.00443468
0.000331885
-0.00454956
0.000301396
-0.0046721
0.000268998
-0.00480286
0.000234724
-0.00494208
0.000198458
-0.00508933
0.000159462
-0.00524311
-0.0054044
0.000119562
2.77684e-05
-0.000391879
9.1088e-05
-0.00113327
0.0001708
-0.00182921
0.000249158
-0.00243676
0.000313339
-0.00292775
0.000357058
-0.00329805
0.000379793
-0.00356384
0.000384645
-0.00375178
0.000376079
-0.00388955
0.000358301
-0.00399993
0.000334473
-0.00409877
0.000306603
-0.00419566
0.000275788
-0.00429571
0.000242545
-0.00440143
0.00020708
-0.0045141
0.000169468
-0.00463448
0.000129759
-0.00476315
8.80397e-05
-0.00490036
4.46603e-05
-0.00504595
2.20439e-07
-0.00519867
-0.00535159
-5.25915e-05
2.67695e-05
-0.000418648
8.59821e-05
-0.00119248
0.000157965
-0.0019012
0.000225541
-0.00250433
0.000277231
-0.00297944
0.000308227
-0.00332904
0.0003191
-0.00357471
0.000313472
-0.00374615
0.000295822
-0.0038719
0.000270065
-0.00397417
0.000238977
-0.00406768
0.000204223
-0.0041609
0.000166656
-0.00425814
0.000126638
-0.00436142
8.42725e-05
-0.00447173
3.95791e-05
-0.00458979
-7.43071e-06
-0.00471614
-5.66097e-05
-0.00485118
-0.000107962
-0.0049946
-0.000162413
-0.00514422
-0.00529703
-0.000216975
2.5482e-05
-0.00044413
8.00252e-05
-0.00124702
0.000143778
-0.00196495
0.000200395
-0.00256095
0.000239817
-0.00301886
0.000258623
-0.00334785
0.000258313
-0.0035744
0.000242866
-0.0037307
0.000216673
-0.00384571
0.000183325
-0.00394082
0.000145231
-0.00402959
0.00010376
-0.00411943
5.95323e-05
-0.00421391
1.28037e-05
-0.00431469
-3.63661e-05
-0.00442256
-8.8033e-05
-0.00453812
-0.0001422
-0.00466198
-0.000198836
-0.00479454
-0.000257969
-0.00493546
-0.000319433
-0.00508276
-0.0052344
-0.000382063
2.3925e-05
-0.000468055
7.33126e-05
-0.00129641
0.000128457
-0.00202009
0.00017406
-0.00260655
0.000201517
-0.00304632
0.000208688
-0.00335502
0.000197836
-0.00356355
0.000173162
-0.00370603
0.000138893
-0.00381144
9.82828e-05
-0.00390021
5.33867e-05
-0.00398469
5.29915e-06
-0.00407134
-4.54366e-05
-0.00416317
-9.87433e-05
-0.00426138
-0.000154653
-0.00436665
-0.000213228
-0.00447955
-0.000274524
-0.00460068
-0.000338524
-0.00473054
-0.000405111
-0.00486888
-0.000473948
-0.00501392
-0.00516354
-0.000544811
2.21213e-05
-0.000490176
6.59441e-05
-0.00134023
0.000112214
-0.00206636
0.000146851
-0.00264119
0.000162708
-0.00306217
0.000158798
-0.00335111
0.000138002
-0.00354275
0.000104629
-0.00367266
6.26892e-05
-0.0037695
1.50869e-05
-0.00385261
-3.63982e-05
-0.00393321
-9.08952e-05
-0.00401685
-0.000148099
-0.00410597
-0.000207923
-0.00420156
-0.000270457
-0.00430412
-0.000335829
-0.00441418
-0.000404145
-0.00453236
-0.000475405
-0.00465928
-0.000549443
-0.00479484
-0.000625941
-0.00493742
-0.00508471
-0.000704765
2.00963e-05
-0.000510273
5.80213e-05
-0.00137816
9.52505e-05
-0.00210359
0.000119058
-0.002665
0.000123716
-0.00306683
0.00010927
-0.00333666
7.90855e-05
-0.00351257
3.74866e-05
-0.00363106
-1.17767e-05
-0.00372023
-6.60936e-05
-0.00379829
-0.000124014
-0.00387529
-0.000184847
-0.00395601
-0.000248372
-0.00404245
-0.000314591
-0.00413534
-0.000383628
-0.00423508
-0.000455665
-0.00434214
-0.000530863
-0.00445717
-0.000609264
-0.00458088
-0.000690702
-0.0047134
-0.000774837
-0.00485329
-0.00499808
-0.000861465
1.78782e-05
-0.000528151
4.96452e-05
-0.00140993
7.77591e-05
-0.00213171
9.09406e-05
-0.00267818
8.48248e-05
-0.00306071
6.03694e-05
-0.00331221
2.13164e-05
-0.00347352
-2.80855e-05
-0.00358166
-8.43422e-05
-0.00366398
-0.000145183
-0.00373745
-0.00020938
-0.00381109
-0.000276411
-0.00388898
-0.00034614
-0.00397272
-0.000418624
-0.00406285
-0.000494025
-0.00415968
-0.000572569
-0.0042636
-0.000654483
-0.00437525
-0.000739885
-0.00449548
-0.000828643
-0.00462464
-0.000920354
-0.00476158
-0.00490379
-0.00101465
1.54982e-05
-0.000543649
4.09152e-05
-0.00143534
5.99194e-05
-0.00215071
6.27298e-05
-0.00268099
4.6273e-05
-0.00304426
1.23627e-05
-0.0032783
-3.51223e-05
-0.00342603
-9.19531e-05
-0.00352483
-0.000154936
-0.00360099
-0.00022209
-0.0036703
-0.000292408
-0.00374077
-0.000365501
-0.00381589
-0.000441305
-0.00389691
-0.000519915
-0.00398424
-0.00060152
-0.00407808
-0.000686387
-0.00417873
-0.000774815
-0.00428682
-0.000867021
-0.00440327
-0.000962952
-0.00452871
-0.00106213
-0.00466239
-0.00480199
-0.00116394
1.29944e-05
-0.000556643
3.19315e-05
-0.00145428
4.18983e-05
-0.00216068
3.46298e-05
-0.00267372
8.41237e-06
-0.00301804
-3.46486e-05
-0.00323524
-9.01065e-05
-0.00337057
-0.000154014
-0.00346092
-0.000223463
-0.00353154
-0.000296738
-0.00359702
-0.000373024
-0.00366449
-0.000452041
-0.00373687
-0.000533782
-0.00381517
-0.000618367
-0.00389966
-0.000706004
-0.00399044
-0.000796988
-0.00408774
-0.000891685
-0.00419213
-0.000990438
-0.00430452
-0.00109331
-0.00442584
-0.0011998
-0.00455591
-0.00469281
-0.00130897
1.04001e-05
-0.000567044
2.27879e-05
-0.00146667
2.38473e-05
-0.00216174
7.02246e-06
-0.0026569
-2.89467e-05
-0.00298207
-8.05086e-05
-0.00318367
-0.000143519
-0.00330756
-0.000214181
-0.00339026
-0.000289856
-0.00345587
-0.000369068
-0.00351781
-0.000451167
-0.00358239
-0.000535965
-0.00365207
-0.000623497
-0.00372764