/*--------------------------------*- C++ -*----------------------------------*\
  =========                 |
  \\      /  F ield         | OpenFOAM: The Open Source CFD Toolbox
   \\    /   O peration     | Website:  https://openfoam.org
    \\  /    A nd           | Version:  7
     \\/     M anipulation  |
\*---------------------------------------------------------------------------*/
FoamFile
{
    version     2.0;
    format      ascii;
    class       volVectorField;
    location    "20";
    object      U;
}
// * * * * * * * * * * * * * * * * * * * * * * * * * * * * * * * * * * * * * //

dimensions      [0 1 -1 0 0 0 0];

internalField   nonuniform List<vector> 
8820
(
(-0.000610208 0.000682009 -5.12678e-22)
(-0.00347452 0.00169922 -1.12765e-20)
(-0.00903158 0.00243418 -5.23941e-21)
(-0.0161018 0.00294585 -2.27085e-21)
(-0.0240915 0.00327525 6.93229e-22)
(-0.0326019 0.00345536 -4.13389e-21)
(-0.0412901 0.00351403 -8.91908e-21)
(-0.0498831 0.00347424 -5.39346e-21)
(-0.0581698 0.00335492 1.24837e-20)
(-0.0659861 0.00317198 -2.22085e-21)
(-0.0732067 0.00293938 3.55225e-21)
(-0.0797393 0.00267039 5.12301e-21)
(-0.0855225 0.00237908 -7.39788e-21)
(-0.0905286 0.00208185 -8.37857e-21)
(-0.094768 0.00179904 3.89457e-21)
(-0.0982972 0.00155601 2.0846e-21)
(-0.101239 0.00138337 5.10929e-22)
(-0.103811 0.00131516 1.40356e-20)
(-0.106223 0.00138621 -4.43099e-21)
(-0.108415 0.00163081 -2.91006e-20)
(-0.111308 0.00206287 1.92377e-22)
(-0.000711947 0.00216758 1.52328e-20)
(-0.00370615 0.0053928 -1.65788e-20)
(-0.00931992 0.00771733 3.24776e-21)
(-0.0163966 0.00932618 1.79184e-20)
(-0.0243553 0.0103508 -7.43436e-21)
(-0.0328061 0.0108981 -8.93314e-21)
(-0.0414132 0.0110585 -1.40532e-20)
(-0.0499094 0.0109068 1.35639e-20)
(-0.0580872 0.0105041 1.96905e-20)
(-0.0657856 0.00990123 -1.59628e-20)
(-0.0728804 0.0091417 -1.93131e-20)
(-0.0792789 0.00826602 -3.06434e-20)
(-0.0849176 0.00731624 -1.37956e-20)
(-0.0897643 0.00634105 -2.64125e-20)
(-0.0938225 0.00540074 1.36793e-20)
(-0.0971397 0.00457113 -2.08133e-21)
(-0.0998282 0.00394449 -1.01822e-20)
(-0.102098 0.00362479 -1.29422e-21)
(-0.104154 0.00371979 -2.79222e-20)
(-0.105929 0.00433713 -1.70637e-20)
(-0.10835 0.00552247 1.78475e-20)
(-0.000914866 0.0036157 4.42744e-20)
(-0.00416854 0.00899891 -9.6783e-21)
(-0.00989608 0.0128831 3.4894e-20)
(-0.0169862 0.0155731 2.34988e-20)
(-0.0248833 0.0172871 2.3797e-20)
(-0.0332148 0.0182031 1.08009e-20)
(-0.0416595 0.0184721 -1.77379e-20)
(-0.0499611 0.018219 3.07389e-20)
(-0.0579204 0.0175456 4.64027e-20)
(-0.0653817 0.016536 2.4558e-20)
(-0.0722237 0.0152616 -3.6474e-20)
(-0.0783534 0.0137876 6.13314e-20)
(-0.0837033 0.0121813 -5.10019e-21)
(-0.088233 0.0105201 -1.12354e-19)
(-0.091933 0.00890068 -7.62811e-20)
(-0.094833 0.00744646 4.17249e-20)
(-0.0970245 0.00631094 -2.31999e-20)
(-0.0986996 0.0056719 -5.38503e-20)
(-0.100057 0.00572033 8.81459e-20)
(-0.10101 0.00665488 -3.78682e-20)
(-0.102492 0.00857378 -4.44704e-20)
(-0.00121314 0.00500239 -1.38639e-20)
(-0.00484898 0.0124613 9.24906e-20)
(-0.0107444 0.0178555 -1.23567e-20)
(-0.0178539 0.0215998 -1.24471e-19)
(-0.0256582 0.0239928 -1.30021e-20)
(-0.0338105 0.0252793 -1.15295e-19)
(-0.0420104 0.0256678 5.93394e-20)
(-0.0500178 0.0253302 1.11213e-19)
(-0.0576457 0.0244071 -1.01496e-19)
(-0.0647469 0.0230133 -1.34486e-19)
(-0.0712045 0.0212451 7.67285e-20)
(-0.0769259 0.0191892 -7.22329e-20)
(-0.081839 0.016933 8.78888e-20)
(-0.0858925 0.0145771 1.24751e-19)
(-0.0890591 0.0122482 2.44585e-20)
(-0.0913436 0.0101119 -9.64373e-21)
(-0.0928065 0.00838061 -9.48518e-20)
(-0.0936122 0.00731045 -1.91072e-20)
(-0.0939453 0.00719116 -2.14824e-20)
(-0.0936891 0.00834159 -5.58351e-21)
(-0.0937692 0.0109517 -1.23422e-20)
(-0.00159835 0.00630554 -6.11423e-20)
(-0.00572906 0.0157275 -8.93779e-20)
(-0.0118422 0.0225626 5.31587e-20)
(-0.0189753 0.0273228 -7.06024e-20)
(-0.0266553 0.0303789 7.98165e-20)
(-0.0345674 0.032037 4.13412e-20)
(-0.0424383 0.0325582 8.50557e-20)
(-0.0500486 0.0321587 -7.1085e-21)
(-0.0572274 0.0310143 -8.46988e-20)
(-0.0638385 0.029268 4.70297e-20)
(-0.0697719 0.0270375 9.74019e-21)
(-0.0749368 0.0244262 1.83364e-20)
(-0.0792568 0.0215359 -2.74024e-20)
(-0.0826689 0.0184826 -2.65199e-20)
(-0.0851255 0.0154138 1.62331e-20)
(-0.086601 0.012528 -3.14842e-20)
(-0.0871164 0.0100906 -5.07936e-21)
(-0.086797 0.00843813 5.41523e-20)
(-0.0858066 0.00797672 2.71877e-20)
(-0.083984 0.00918389 -3.45713e-20)
(-0.0822025 0.0124021 1.00865e-19)
(-0.00205986 0.00750551 1.25654e-20)
(-0.00678547 0.01875 2.78807e-19)
(-0.0131605 0.0269385 -1.88029e-20)
(-0.0203193 0.032664 1.83343e-19)
(-0.0278422 0.0363603 4.73619e-20)
(-0.035452 0.038388 -4.78138e-20)
(-0.0429069 0.039056 -3.43225e-20)
(-0.0500125 0.0386204 6.38555e-20)
(-0.0566169 0.0372896 -2.114e-20)
(-0.062598 0.0352312 2.02033e-19)
(-0.067855 0.0325808 -6.65899e-20)
(-0.0723005 0.0294537 2.54921e-19)
(-0.0758556 0.0259595 2.98923e-21)
(-0.0784467 0.0222201 1.08495e-20)
(-0.0800058 0.0183924 -1.06287e-19)
(-0.0804751 0.0146945 -6.71974e-20)
(-0.0798298 0.0114322 1.3266e-19)
(-0.0781453 0.00901885 -1.17979e-19)
(-0.0755593 0.00799023 -1.02413e-19)
(-0.0718563 0.00902165 -1.38964e-20)
(-0.0677565 0.0126876 3.04311e-20)
(-0.00258531 0.00858584 6.4034e-20)
(-0.00799101 0.021488 -8.98706e-20)
(-0.0146656 0.0309242 -4.98919e-20)
(-0.0218492 0.0375514 -1.87491e-19)
(-0.0291804 0.0418562 -6.2392e-20)
(-0.0364237 0.0442464 1.97922e-19)
(-0.0433718 0.0450732 3.72588e-20)
(-0.0498584 0.0446289 8.36325e-20)
(-0.0557533 0.0431507 -8.10201e-20)
(-0.0609506 0.040828 3.54943e-20)
(-0.0653607 0.037811 3.06507e-20)
(-0.068902 0.0342227 -1.02653e-19)
(-0.0714953 0.0301736 1.71021e-19)
(-0.0730589 0.0257824 -2.7246e-20)
(-0.073507 0.0212022 1.79599e-19)
(-0.0727516 0.0166532 7.57668e-20)
(-0.0707203 0.012463 -6.03249e-20)
(-0.0674303 0.00910699 -6.31948e-20)
(-0.0629959 0.0072513 -3.46696e-20)
(-0.0571622 0.00779097 -6.54939e-20)
(-0.0502822 0.0116217 6.78219e-20)
(-0.0031613 0.00953379 4.34617e-20)
(-0.00931582 0.023908 6.61995e-20)
(-0.0163198 0.0344694 6.35393e-20)
(-0.0235236 0.0419211 -1.02582e-20)
(-0.0306262 0.0467919 2.42742e-19)
(-0.0374353 0.0495297 -1.41645e-19)
(-0.0437806 0.0505225 1.6741e-19)
(-0.0495255 0.0500946 -2.22522e-19)
(-0.0545628 0.0485092 1.84748e-21)
(-0.0588046 0.045975 -1.18186e-19)
(-0.0621733 0.0426542 -1.40808e-20)
(-0.0645952 0.0386738 -2.96271e-20)
(-0.0659927 0.0341407 -2.34459e-19)
(-0.0662793 0.0291622 5.99976e-20)
(-0.065356 0.0238742 5.01966e-20)
(-0.0631093 0.0184805 1.36422e-19)
(-0.0594232 0.0133066 -4.48387e-20)
(-0.0542534 0.00886476 1.84643e-20)
(-0.0477084 0.00593116 5.05476e-20)
(-0.0395788 0.00563506 -1.29686e-19)
(-0.0294739 0.0093711 -4.67264e-20)
(-0.00377401 0.0103408 -1.15792e-19)
(-0.0107288 0.0259853 1.09767e-19)
(-0.0180834 0.0375336 -1.07714e-19)
(-0.0252979 0.045718 -4.63093e-20)
(-0.0321312 0.0510996 3.01419e-21)
(-0.0384339 0.0541595 -1.58976e-20)
(-0.0440732 0.0553174 -1.48761e-19)
(-0.0489427 0.0549256 -3.42976e-19)
(-0.0529588 0.0532707 -1.00683e-19)
(-0.056051 0.0505788 -1.54397e-20)
(-0.0581544 0.0470228 -2.48234e-21)
(-0.0592028 0.042732 2.60887e-19)
(-0.0591215 0.0378069 -1.11774e-20)
(-0.0578215 0.0323377 3.07652e-21)
(-0.0551943 0.0264336 1.87698e-20)
(-0.0511076 0.0202644 5.37948e-20)
(-0.0454081 0.0141272 -2.3127e-20)
(-0.0379911 0.00853613 -1.01912e-19)
(-0.028962 0.00433992 -8.66623e-20)
(-0.0182957 0.00299176 3.10368e-19)
(-0.00474472 0.00712259 2.18039e-21)
(-0.00441001 0.0110028 1.17967e-19)
(-0.0121987 0.0277044 8.7879e-21)
(-0.0199158 0.0400873 -2.82634e-19)
(-0.0271252 0.0488976 -8.23169e-20)
(-0.0336425 0.0547202 1.60317e-19)
(-0.03936 0.0580636 -1.83016e-19)
(-0.0441809 0.059374 8.03059e-20)
(-0.0480281 0.0590287 3.12887e-19)
(-0.0508402 0.0573353 1.47691e-19)
(-0.0525629 0.0545362 1.36403e-19)
(-0.0531418 0.0508142 -6.31475e-20)
(-0.0525165 0.0463016 2.17973e-20)
(-0.0506139 0.0410921 -1.40069e-19)
(-0.0473424 0.035258 1.86715e-19)
(-0.042586 0.0288757 3.03996e-21)
(-0.0361971 0.022068 -2.98795e-20)
(-0.0279918 0.0150747 4.95781e-20)
(-0.0178064 0.00836092 3.40853e-20)
(-0.00564418 0.00279163 -6.97767e-20)
(0.00871248 0.00019492 -1.23328e-19)
(0.0262712 0.00443586 -2.09148e-19)
(-0.00505696 0.0115203 -1.83578e-19)
(-0.0136959 0.0290592 3.1966e-19)
(-0.0217763 0.042112 1.545e-19)
(-0.0289563 0.0514267 -3.77642e-20)
(-0.035103 0.0576051 -4.82485e-20)
(-0.0401466 0.0611778 -1.07555e-19)
(-0.0440241 0.0626141 -6.06105e-20)
(-0.0466853 0.062313 1.0073e-19)
(-0.0480883 0.0606013 2.1758e-19)
(-0.0481914 0.0577368 1.00729e-19)
(-0.046947 0.0539131 1.39416e-19)
(-0.0442963 0.0492669 1.34907e-19)
(-0.0401634 0.0438881 -2.19744e-19)
(-0.0344511 0.0378341 9.7954e-20)
(-0.0270353 0.0311498 -3.12485e-19)
(-0.0177564 0.0239046 -3.25641e-19)
(-0.00641062 0.0162578 -2.56254e-19)
(0.00720198 0.00856737 9.95055e-20)
(0.0231502 0.00160458 6.36434e-19)
(0.0419533 -0.00263589 -1.60112e-19)
(0.064785 0.000568322 1.74362e-19)
(-0.00570428 0.0118982 3.19083e-19)
(-0.0151929 0.030053 -1.39314e-19)
(-0.023625 0.0436012 4.67858e-20)
(-0.0307398 0.0532845 2.52193e-19)
(-0.0364489 0.0597173 -2.33068e-19)
(-0.0407162 0.0634489 8.70279e-20)
(-0.0435085 0.0649685 -1.40112e-19)
(-0.0447988 0.0646944 -3.39668e-19)
(-0.0445602 0.0629708 4.80804e-19)
(-0.0427588 0.0600706 -2.21297e-20)
(-0.0393479 0.056199 1.31869e-19)
(-0.0342633 0.0515001 -5.991e-20)
(-0.0274199 0.0460651 1.30439e-19)
(-0.0187084 0.0399432 -7.38184e-21)
(-0.00799273 0.0331568 1.65654e-19)
(0.00489651 0.0257287 -4.1464e-20)
(0.0201729 0.0177342 1.69841e-19)
(0.0380515 0.00939124 -3.16851e-19)
(0.0586067 0.00128573 -3.39634e-19)
(0.0824875 -0.00465168 3.01166e-19)
(0.11189 -0.00291143 -1.50284e-19)
(-0.00634361 0.0121453 -3.10285e-19)
(-0.0166648 0.0306976 1.93701e-19)
(-0.0254221 0.0445593 -1.53897e-19)
(-0.0324203 0.0544627 8.46453e-20)
(-0.0376078 0.0610334 -7.31272e-20)
(-0.0409766 0.0648375 3.39085e-19)
(-0.0425188 0.066382 -2.84472e-20)
(-0.0422252 0.0661022 9.57721e-20)
(-0.0400785 0.0643586 -8.38938e-20)
(-0.0360459 0.0614386 2.18176e-19)
(-0.0300739 0.0575602 -4.36205e-19)
(-0.0220848 0.052878 -5.28093e-20)
(-0.0119752 0.0474904 -4.66449e-20)
(0.000384381 0.0414482 2.01548e-19)
(0.0151485 0.0347653 -2.62573e-19)
(0.0324969 0.0274366 3.35878e-20)
(0.0526416 0.0194717 2.27951e-19)
(0.0757972 0.0109581 1.07004e-19)
(0.101991 0.00223353 4.03261e-21)
(0.131685 -0.00511972 1.6779e-21)
(0.169249 -0.00479932 -1.86673e-19)
(-0.00696899 0.0122736 2.78218e-19)
(-0.0180897 0.0310116 -2.22077e-19)
(-0.0271272 0.0450006 1.40752e-19)
(-0.0339364 0.0549657 -4.00814e-20)
(-0.038494 0.0615451 -2.7681e-19)
(-0.0408147 0.0653215 -3.16971e-19)
(-0.0409098 0.0668185 3.56336e-19)
(-0.0387819 0.0664873 -5.84158e-20)
(-0.0344165 0.0647032 4.05851e-19)
(-0.0277738 0.0617678 -2.51939e-20)
(-0.0187847 0.0579129 1.19321e-20)
(-0.0073489 0.0533066 1.70292e-19)
(0.00666439 0.0480602 1.83379e-19)
(0.0234129 0.0422359 2.60456e-19)
(0.0430749 0.035855 1.11279e-19)
(0.0658408 0.0289085 -6.68569e-22)
(0.0919095 0.0213768 -4.18569e-20)
(0.121473 0.0132635 7.87115e-20)
(0.154506 0.00467538 2.15273e-19)
(0.190773 -0.00346049 -1.70298e-19)
(0.238436 -0.00401901 2.1623e-19)
(-0.00757669 0.0122969 -5.5154e-20)
(-0.019447 0.0310188 -3.50367e-19)
(-0.028697 0.044948 -1.63562e-19)
(-0.0352165 0.0548101 1.61909e-19)
(-0.0390031 0.0612599 -3.89282e-20)
(-0.0400883 0.0648988 -1.59995e-20)
(-0.0384961 0.0662669 -2.59906e-19)
(-0.0342335 0.0658303 6.88385e-20)
(-0.0272804 0.0639787 -3.3899e-19)
(-0.0175816 0.0610277 -2.93163e-19)
(-0.00504303 0.0572236 -1.83632e-19)
(0.0104669 0.0527507 -1.90748e-19)
(0.0291133 0.0477382 2.2786e-20)
(0.0510864 0.0422682 1.56658e-19)
(0.0765878 0.0363828 3.11919e-19)
(0.105812 0.0300919 -4.79759e-20)
(0.138922 0.0233837 -2.32663e-19)
(0.17605 0.0162402 -1.94908e-19)
(0.217178 0.00866883 -1.86363e-20)
(0.260628 0.000603895 -1.19418e-19)
(0.320407 0.000302077 5.44135e-20)
(-0.00816458 0.0122297 2.60344e-19)
(-0.0207164 0.0307455 2.88267e-19)
(-0.030082 0.0444302 1.90832e-19)
(-0.0361745 0.0540228 1.6058e-19)
(-0.0390059 0.0602019 6.40541e-20)
(-0.0386179 0.0635901 2.74495e-19)
(-0.0350405 0.0647456 3.84484e-19)
(-0.0282766 0.0641497 -4.40306e-19)
(-0.0182914 0.0622065 3.92666e-19)
(-0.00500456 0.0592459 -1.77001e-20)
(0.0117108 0.0555303 -1.68498e-19)
(0.0320239 0.0512624 2.73602e-20)
(0.0561365 0.0465936 2.21954e-19)
(0.0842664 0.041632 1.56951e-19)
(0.116625 0.0364498 -1.95347e-19)
(0.153387 0.0310907 1.91172e-19)
(0.194644 0.0255747 -2.99401e-20)
(0.240384 0.0199054 -2.03878e-21)
(0.290716 0.0142213 5.09648e-20)
(0.341647 0.00705735 1.00579e-19)
(0.415053 0.00864505 -1.65468e-19)
(-0.008731 0.0120853 -5.81167e-19)
(-0.0218747 0.0302174 1.99416e-19)
(-0.0312227 0.0434791 -1.76048e-19)
(-0.0367045 0.0526407 -3.27722e-19)
(-0.0383408 0.0584112 -2.54851e-19)
(-0.036178 0.0614401 -1.34302e-19)
(-0.0302435 0.0623064 -4.02531e-19)
(-0.0205275 0.0615084 4.49702e-20)
(-0.00697058 0.059465 2.27636e-19)
(0.0105411 0.0565221 1.74442e-20)
(0.0321734 0.0529599 2.0975e-19)
(0.0581336 0.0490027 1.95701e-19)
(0.088652 0.0448273 2.37196e-19)
(0.123955 0.0405715 3.74195e-19)
(0.16423 0.036342 2.32435e-20)
(0.209578 0.0322207 -2.05307e-19)
(0.259956 0.0282661 -1.04585e-19)
(0.315085 0.0244956 -4.90594e-19)
(0.375268 0.0214443 -3.69444e-20)
(0.433624 0.0157793 -1.10248e-19)
(0.520777 0.0210247 1.71382e-19)
(-0.00927338 0.0118746 1.63511e-19)
(-0.0228919 0.0294565 2.36572e-19)
(-0.0320455 0.0421292 -1.46273e-19)
(-0.0366751 0.0507073 1.15782e-19)
(-0.0368085 0.055942 4.75672e-19)
(-0.0324899 0.0585178 1.40147e-19)
(-0.0237362 0.0590372 1.87786e-19)
(-0.0105152 0.0580176 1.83017e-19)
(0.00726571 0.0558956 -3.97827e-19)
(0.0297597 0.0530353 3.32603e-20)
(0.0571712 0.0497378 4.18956e-20)
(0.0897352 0.0462513 3.72664e-19)
(0.127686 0.04278 -3.48024e-19)
(0.171217 0.0394923 5.51261e-20)
(0.220425 0.0365267 -2.73614e-19)
(0.275252 0.0339982 1.63268e-19)
(0.335412 0.0319935 1.47128e-19)
(0.400236 0.0304969 -2.37159e-20)
(0.470019 0.0305894 -2.1292e-19)
(0.535476 0.0267871 -1.61783e-19)
(0.634053 0.0370846 5.61803e-20)
(-0.00978715 0.0116046 -9.18332e-20)
(-0.0237289 0.0284822 3.01728e-20)
(-0.0324566 0.0404118 -6.30801e-20)
(-0.0359255 0.0482691 -2.25249e-19)
(-0.0341668 0.0528627 -4.53952e-20)
(-0.0272182 0.0549164 1.67507e-19)
(-0.015078 0.0550616 2.51352e-19)
(0.0023171 0.0538386 -4.74015e-20)
(0.0250979 0.051705 3.15686e-20)
(0.0534559 0.0490464 3.33229e-19)
(0.0876213 0.0461876 -3.2213e-19)
(0.127829 0.0434018 -1.03065e-19)
(0.174267 0.0409194 7.59536e-20)
(0.22702 0.0389335 -4.01304e-20)
(0.285994 0.0376031 2.48788e-19)
(0.350846 0.0370576 -7.29673e-20)
(0.4209 0.0373857 3.16709e-20)
(0.495022 0.0385198 2.32761e-19)
(0.57287 0.0418774 2.61613e-19)
(0.644897 0.0403799 6.03252e-20)
(0.749055 0.0563351 1.03389e-19)
(-0.0102625 0.0112786 -3.50467e-20)
(-0.0243347 0.027305 -2.42537e-19)
(-0.0323401 0.0383524 -8.58632e-20)
(-0.0342604 0.0453771 -3.6439e-20)
(-0.0301289 0.0492532 9.30236e-20)
(-0.0199717 0.0507518 -1.33892e-19)
(-0.003762 0.0505383 -1.81295e-19)
(0.0185984 0.0491807 -4.12067e-19)
(0.0472768 0.0471619 1.21165e-19)
(0.0824881 0.0448921 -4.64678e-19)
(0.124457 0.0427202 3.74431e-19)
(0.17336 0.0409422 -5.54525e-20)
(0.229256 0.0398057 -4.23318e-21)
(0.292007 0.0395121 -1.42565e-19)
(0.361187 0.0402149 -5.02809e-19)
(0.436019 0.042023 2.69746e-19)
(0.515285 0.0449757 1.36695e-20)
(0.597393 0.0490204 -1.05858e-20)
(0.680532 0.0552037 2.07344e-19)
(0.758293 0.0570618 9.90907e-20)
(0.857918 0.077933 2.59332e-19)
(-0.0106831 0.0108934 -2.1546e-20)
(-0.0246402 0.0259271 -6.65982e-20)
(-0.0315549 0.0359749 -3.03329e-19)
(-0.0314509 0.0420842 -6.09791e-19)
(-0.0243653 0.0452039 1.86551e-19)
(-0.0103097 0.0461599 2.4511e-19)
(0.0107698 0.0456576 4.38985e-20)
(0.0390031 0.0442973 3.22425e-19)
(0.0745775 0.0425905 -2.56594e-19)
(0.117697 0.0409727 -3.98772e-19)
(0.168517 0.0398138 -4.66833e-19)
(0.227065 0.0394215 7.90168e-20)
(0.293143 0.0400406 2.29391e-19)
(0.366236 0.0418488 -1.61834e-19)
(0.445426 0.0449491 2.19006e-19)
(0.529347 0.0493754 -2.09854e-19)
(0.616143 0.0550443 1.3213e-19)
(0.703801 0.0619901 1.58244e-20)
(0.788924 0.0700797 1.02375e-19)
(0.87087 0.0770504 -4.24282e-19)
(0.952983 0.0984622 -3.80183e-19)
(-0.0110247 0.0104425 -1.09145e-19)
(-0.0245572 0.0243454 -3.20103e-19)
(-0.0299325 0.0332983 4.77406e-20)
(-0.0272343 0.0384446 5.46631e-20)
(-0.0165091 0.0408147 1.23708e-19)
(0.00224503 0.041296 5.17207e-19)
(0.0291037 0.0406389 -2.2234e-19)
(0.0642109 0.0394796 1.1405e-19)
(0.107737 0.0383589 2.17518e-19)
(0.15981 0.037734 -7.8288e-20)
(0.220417 0.0379835 2.21331e-19)
(0.2893 0.0394044 -4.76959e-19)
(0.365842 0.0422029 2.79491e-19)
(0.44897 0.0464833 1.88558e-20)
(0.537111 0.0522373 -1.97735e-19)
(0.628206 0.0593539 -8.57016e-20)
(0.719767 0.0675658 9.74905e-20)
(0.809329 0.0768754 -3.86795e-19)
(0.893154 0.0860869 3.25332e-19)
(0.975049 0.0984437 -4.50373e-19)
(1.02933 0.109207 -2.19791e-20)
(-0.0112553 0.00991579 4.47485e-19)
(-0.0239782 0.0225516 3.44972e-20)
(-0.0272775 0.0303399 -1.428e-20)
(-0.0213185 0.0345162 -3.29601e-19)
(-0.00616553 0.0361962 -1.49758e-19)
(0.0181884 0.0363336 -2.43042e-19)
(0.0518224 0.035727 2.17307e-20)
(0.0948571 0.0350491 2.92474e-19)
(0.14738 0.0348658 -7.55313e-20)
(0.209339 0.0356433 1.10412e-20)
(0.280413 0.0377445 -2.53124e-19)
(0.359885 0.0414171 -4.23072e-19)
(0.446528 0.046776 9.25085e-20)
(0.538551 0.0537885 -3.1423e-19)
(0.633616 0.0622675 2.81228e-19)
(0.72897 0.0718961 2.68433e-19)
(0.821636 0.0822038 2.36373e-19)
(0.908805 0.0929228 -1.11513e-20)
(0.987819 0.102893 -2.22333e-20)
(1.05837 0.114305 4.47901e-19)
(1.11259 0.119167 -5.00586e-20)
(-0.0113335 0.00930103 -1.46772e-19)
(-0.0227763 0.0205365 -4.73044e-19)
(-0.0233704 0.0271193 -1.45718e-19)
(-0.0133881 0.0303644 -8.91489e-20)
(0.0070748 0.0314723 3.43439e-19)
(0.0380114 0.0314654 -1.07963e-19)
(0.0794673 0.0311899 4.76075e-19)
(0.131474 0.0313504 -4.8994e-20)
(0.193934 0.0325245 -1.22447e-19)
(0.266472 0.0351619 5.82876e-20)
(0.348278 0.0395693 3.94179e-19)
(0.437982 0.0458889 -3.35143e-20)
(0.533576 0.054077 6.72852e-19)
(0.632443 0.0638955 4.15575e-19)
(0.731497 0.0749234 2.47723e-19)
(0.82745 0.0866105 1.46264e-19)
(0.917126 0.0982912 2.50384e-19)
(0.997893 0.109489 1.15259e-19)
(1.06774 0.119159 -2.25704e-19)
(1.12638 0.12839 4.01823e-19)
(1.17146 0.13207 3.81437e-19)
(-0.0112094 0.00858644 -3.10968e-19)
(-0.0208066 0.0182942 3.50262e-19)
(-0.0179725 0.0236637 2.34209e-19)
(-0.00311383 0.026067 -1.93242e-19)
(0.0236201 0.0267844 1.85985e-19)
(0.0621738 0.0269051 -7.41389e-20)
(0.112497 0.0273171 -2.54753e-19)
(0.174434 0.0287424 4.058e-19)
(0.247558 0.0317447 -1.27086e-19)
(0.330986 0.0367146 1.10275e-19)
(0.423224 0.0438434 3.05622e-19)
(0.522063 0.0530965 2.17769e-19)
(0.624609 0.0641991 -2.97806e-19)
(0.727438 0.0766519 -2.22273e-19)
(0.826899 0.0897794 4.69384e-20)
(0.919508 0.102824 1.13215e-19)
(1.00234 0.115001 -2.4838e-19)
(1.0734 0.125779 1.16574e-19)
(1.13167 0.134272 9.26011e-20)
(1.17756 0.141431 -2.71663e-19)
(1.21094 0.143295 3.79046e-19)
(-0.0108255 0.00776294 1.91967e-19)
(-0.0179093 0.0158274 2.17534e-19)
(-0.0108313 0.0200139 1.27959e-19)
(0.00983685 0.0217205 1.59877e-19)
(0.0438589 0.0222968 -2.24602e-19)
(0.0910743 0.0228907 -2.32667e-19)
(0.151245 0.0244168 4.24009e-20)
(0.223888 0.0275882 -1.46131e-19)
(0.308067 0.0329112 -4.66426e-20)
(0.402188 0.0406556 3.21697e-19)
(0.503874 0.0508215 -3.76642e-19)
(0.609966 0.0631191 1.51601e-19)
(0.716696 0.0769828 -2.02746e-19)
(0.820025 0.0916306 -3.4532e-19)
(0.916097 0.106165 4.17632e-19)
(1.00171 0.119707 1.90552e-19)
(1.07466 0.131485 -6.78457e-20)
(1.13399 0.141064 -1.20931e-20)
(1.17985 0.147849 7.73774e-20)
(1.21353 0.152794 -1.8321e-19)
(1.23677 0.153023 -7.73895e-20)
(-0.010118 0.00682623 -1.73783e-20)
(-0.0139138 0.0131518 -1.01567e-19)
(-0.00168826 0.0162308 4.21771e-19)
(0.0257868 0.0174471 1.47914e-19)
(0.0681389 0.0182021 -5.46188e-21)
(0.12502 0.0196857 -5.07213e-20)
(0.195875 0.0228121 1.47725e-19)
(0.279718 0.0282416 1.06152e-19)
(0.374892 0.0363595 -3.5506e-19)
(0.47889 0.0472348 -1.39405e-19)
(0.588318 0.0605912 -3.48601e-19)
(0.699063 0.0758166 -5.1305e-19)
(0.806669 0.0920279 5.17558e-19)
(0.906849 0.108193 -4.8993e-19)
(0.996031 0.123285 -2.69316e-19)
(1.07178 0.13644 1.60695e-19)
(1.13303 0.147038 -2.06516e-20)
(1.18002 0.154868 -1.99593e-19)
(1.21404 0.159672 7.85608e-20)
(1.23722 0.162544 7.21119e-21)
(1.25168 0.161204 1.07365e-19)
(-0.00901846 0.00577884 -2.64591e-19)
(-0.00864338 0.0103012 -6.22628e-20)
(0.00971248 0.0124016 -1.63303e-19)
(0.0450347 0.0134002 6.39029e-20)
(0.0967447 0.0147245 2.83805e-19)
(0.164193 0.0175785 1.0478e-19)
(0.246342 0.022832 1.08684e-19)
(0.341495 0.0310282 -5.04565e-19)
(0.447061 0.0423478 1.05764e-19)
(0.559458 0.0565664 8.14706e-20)
(0.674246 0.0730535 -2.07396e-19)
(0.786524 0.0908388 7.87253e-20)
(0.891506 0.10875 3.07943e-19)
(0.985155 0.125599 1.05393e-19)
(1.06469 0.14037 4.20556e-19)
(1.12885 0.152357 2.68331e-19)
(1.17785 0.161215 -6.15457e-20)
(1.21311 0.16701 3.55783e-19)
(1.2368 0.16983 -6.48864e-20)
(1.25148 0.170824 -1.13325e-20)
(1.25953 0.168181 -5.60177e-20)
(-0.00745563 0.00463157 3.78839e-20)
(-0.00192087 0.00733128 1.89743e-19)
(0.0236136 0.00864379 -7.20652e-20)
(0.067838 0.00976815 -1.35662e-19)
(0.129874 0.0121207 2.1964e-20)
(0.208621 0.0168766 1.46055e-19)
(0.30236 0.0247971 -5.48347e-20)
(0.408463 0.0362224 1.37177e-20)
(0.523218 0.0510287 -1.14005e-19)
(0.641902 0.0686082 1.33527e-20)
(0.759157 0.087926 1.13312e-19)
(0.869628 0.107671 -2.75036e-19)
(0.968698 0.126473 -7.65884e-20)
(1.0531 0.143132 1.24161e-19)
(1.12126 0.156794 -5.28824e-19)
(1.17327 0.167037 -4.09653e-20)
(1.21057 0.173848 1.72257e-19)
(1.23552 0.17757 -1.78557e-20)
(1.25078 0.17857 1.83085e-19)
(1.25906 0.177974 4.68024e-20)
(1.26252 0.174331 -3.29546e-20)
(-0.00535708 0.00340473 -5.56278e-20)
(0.00642507 0.0043216 3.74739e-20)
(0.0402329 0.00510829 2.03688e-19)
(0.0943953 0.00677456 1.71118e-19)
(0.16761 0.0106755 -1.42973e-19)
(0.258147 0.0178952 -1.24083e-19)
(0.363381 0.029 2.11804e-19)
(0.479546 0.0440215 -9.1752e-20)
(0.601698 0.0624279 -6.64089e-20)
(0.724045 0.0831588 2.93179e-20)
(0.84061 0.104776 7.24881e-20)
(0.946069 0.125708 -3.28536e-19)
(1.03651 0.144533 -1.23732e-19)
(1.10987 0.160201 -6.29708e-20)
(1.166 0.172152 -2.59847e-19)
(1.20629 0.180314 2.58954e-19)
(1.2332 0.185004 4.718e-20)
(1.24963 0.186786 2.00425e-19)
(1.25842 0.186224 -5.14073e-20)
(1.26209 0.184325 6.37756e-20)
(1.26254 0.179974 -1.60667e-19)
(-0.00265148 0.00212874 2.92414e-19)
(0.0165528 0.0013773 6.84559e-21)
(0.0597508 0.00197899 -1.5703e-19)
(0.124827 0.00467524 1.09151e-19)
(0.209903 0.0106929 -2.73537e-19)
(0.312408 0.0209406 4.90656e-20)
(0.428593 0.0356817 -5.92e-20)
(0.553391 0.0545228 4.7238e-19)
(0.680638 0.0764338 3.20947e-19)
(0.803714 0.099878 2.66602e-19)
(0.916475 0.123078 4.14994e-20)
(1.01417 0.144344 2.35449e-19)
(1.09407 0.162372 1.35517e-19)
(1.15558 0.176405 -8.36669e-20)
(1.19995 0.186261 -5.09168e-20)
(1.22967 0.192227 -1.49073e-19)
(1.24785 0.194891 9.86879e-20)
(1.2576 0.194966 2.1862e-19)
(1.26165 0.193117 4.78883e-20)
(1.26216 0.190178 1.00273e-19)
(1.26068 0.185355 1.24584e-19)
(0.000729176 0.000844501 -3.14269e-19)
(0.0286 -0.00137139 2.42746e-19)
(0.0822964 -0.000529749 -1.02328e-19)
(0.159156 0.00375069 -4.36829e-20)
(0.256545 0.0124816 -5.07144e-20)
(0.370829 0.0262893 -6.98118e-20)
(0.496938 0.0450085 -1.5115e-19)
(0.628448 0.0677087 -7.8971e-20)
(0.758132 0.0928069 -9.57899e-20)
(0.878944 0.118328 -6.57169e-21)
(0.985118 0.142284 -4.87962e-20)
(1.07299 0.163045 2.97932e-19)
(1.14133 0.179583 5.52467e-20)
(1.19104 0.191539 9.13203e-20)
(1.22461 0.199127 2.66965e-19)
(1.24529 0.202947 -2.0549e-19)
(1.25648 0.203782 -1.85378e-20)
(1.2612 0.202412 -2.27031e-19)
(1.2619 0.199526 -2.17478e-19)
(1.26031 0.195762 -1.30886e-19)
(1.25767 0.190634 -1.66543e-19)
(0.00484687 -0.000396664 1.20722e-19)
(0.0426754 -0.00377076 -3.56912e-20)
(0.107934 -0.00217844 1.97641e-20)
(0.197292 0.00429533 -3.73691e-20)
(0.307161 0.0163383 1.00557e-19)
(0.432626 0.0341661 5.41509e-20)
(0.567171 0.057054 -3.21123e-19)
(0.703077 0.0834456 1.64609e-19)
(0.832385 0.111207 -5.80785e-20)
(0.948142 0.13803 5.57271e-19)
(1.0455 0.161892 -2.41599e-19)
(1.12228 0.181401 3.07332e-20)
(1.17885 0.195933 2.00933e-19)
(1.2175 0.205566 -1.37343e-19)
(1.24162 0.210879 -1.99804e-19)
(1.25488 0.212712 1.26355e-19)
(1.26068 0.211953 4.13658e-21)
(1.26176 0.209386 -8.1188e-20)
(1.26017 0.205665 -3.25573e-19)
(1.25724 0.201235 3.56264e-21)
(1.2539 0.195911 -1.36453e-19)
(0.00975446 -0.00153343 3.09638e-20)
(0.05885 -0.00564675 -3.16892e-20)
(0.136651 -0.00271009 2.49676e-19)
(0.23902 0.00660384 -1.08814e-20)
(0.361207 0.0225284 -1.77939e-19)
(0.496839 0.0447257 8.82034e-20)
(0.637922 0.0717908 -3.34813e-20)
(0.775671 0.101498 -8.22201e-20)
(0.901856 0.131231 1.35759e-19)
(1.01018 0.158516 -2.17651e-19)
(1.09719 0.181488 -1.79622e-19)
(1.16236 0.199145 1.55552e-20)
(1.20762 0.211337 -1.42276e-19)
(1.23636 0.218566 1.37789e-19)
(1.25254 0.221712 1.87051e-20)
(1.25994 0.221766 3.32208e-20)
(1.26171 0.219646 -4.58427e-20)
(1.26023 0.216092 8.43292e-20)
(1.25712 0.211684 1.92782e-19)
(1.25335 0.206702 -1.0439e-19)
(1.24959 0.201238 1.11656e-19)
(0.0154925 -0.00249538 -2.81951e-20)
(0.077149 -0.00680942 1.04833e-19)
(0.168346 -0.00185986 1.67214e-19)
(0.283994 0.010956 -5.66413e-20)
(0.417982 0.031268 -1.2053e-19)
(0.562372 0.0580391 1.02723e-19)
(0.707794 0.0890931 -3.81903e-20)
(0.844773 0.121555 -2.28791e-20)
(0.965357 0.152463 2.92789e-19)
(1.06443 0.179376 4.21014e-20)
(1.14023 0.20077 -7.67919e-20)
(1.19395 0.216139 -3.06216e-20)
(1.22882 0.225821 2.3264e-19)
(1.24901 0.23069 -4.71177e-20)
(1.25874 0.23184 1.385e-19)
(1.26163 0.230332 -1.5918e-19)
(1.26048 0.227057 1.64915e-19)
(1.25724 0.222676 -8.93133e-20)
(1.25315 0.217682 4.23679e-20)
(1.24887 0.212221 4.508e-20)
(1.24484 0.206635 -5.33764e-20)
(0.0220859 -0.00320438 8.89334e-20)
(0.0975446 -0.00705866 3.6361e-20)
(0.202826 0.000633947 -3.25484e-20)
(0.331738 0.0176015 1.33333e-19)
(0.476655 0.0427092 1.68034e-19)
(0.628056 0.0740883 -2.3107e-19)
(0.775451 0.108751 -8.33905e-20)
(0.909164 0.143262 1.81672e-19)
(1.02209 0.174507 -2.0032e-19)
(1.11071 0.20028 -6.30077e-20)
(1.17509 0.219549 -8.01677e-20)
(1.21798 0.232352 -5.10604e-20)
(1.24364 0.239484 -4.61377e-21)
(1.25671 0.242114 2.41672e-20)
(1.26134 0.241463 -3.77565e-20)
(1.26085 0.238595 7.69574e-20)
(1.25763 0.234328 3.92502e-20)
(1.25321 0.229235 4.3865e-20)
(1.24849 0.223713 1.67577e-19)
(1.2439 0.217817 -3.09889e-21)
(1.2397 0.212101 -8.64905e-20)
(0.0295406 -0.00357643 -1.80544e-19)
(0.11995 -0.00619106 8.82975e-20)
(0.239799 0.00501811 -1.49566e-19)
(0.381659 0.0267454 5.28354e-20)
(0.536297 0.0569299 9.03329e-20)
(0.692717 0.0927706 6.99766e-20)
(0.839696 0.130492 -1.57151e-20)
(0.967918 0.166257 -1.09207e-19)
(1.07163 0.197014 1.63208e-19)
(1.14919 0.220989 1.57461e-20)
(1.20244 0.23773 -1.19898e-19)
(1.23547 0.247824 5.89018e-21)
(1.25323 0.252461 1.09809e-19)
(1.26049 0.253014 -5.25138e-20)
(1.26119 0.250753 6.58064e-20)
(1.25823 0.246692 -8.238e-20)
(1.25357 0.241554 2.78531e-20)
(1.24838 0.235824 4.25522e-22)
(1.24327 0.229804 1.25127e-19)
(1.23851 0.223497 -5.66456e-20)
(1.23417 0.217622 2.42409e-20)
(0.0378414 -0.00352416 4.24085e-20)
(0.144218 -0.00400764 3.40575e-21)
(0.278881 0.0115126 8.42351e-20)
(0.43307 0.0385365 -5.23591e-20)
(0.59593 0.0739299 -5.36765e-20)
(0.755238 0.113909 -1.78911e-20)
(0.89953 0.154007 -7.62537e-21)
(1.02042 0.190192 2.13192e-19)
(1.1139 0.219703 -2.51462e-20)
(1.1803 0.241343 -1.17563e-19)
(1.2231 0.25529 6.58245e-22)
(1.2474 0.262642 2.11244e-20)
(1.25855 0.264894 -7.32676e-20)
(1.2612 0.263543 -3.85557e-21)
(1.25893 0.259842 -8.14677e-20)
(1.25421 0.254718 -1.19432e-19)
(1.24857 0.248794 -7.16818e-20)
(1.24289 0.242467 -1.40783e-19)
(1.23756 0.235957 -3.64079e-20)
(1.2327 0.229249 2.74367e-20)
(1.22825 0.223177 1.25907e-20)
(0.0469493 -0.0029597 -4.80441e-20)
(0.170137 -0.00032221 -6.47234e-20)
(0.319605 0.0202996 -1.77452e-19)
(0.48521 0.0530587 2.96209e-20)
(0.654574 0.0936321 1.10756e-19)
(0.814614 0.137266 5.22106e-20)
(0.954183 0.178968 -1.32297e-19)
(1.06633 0.214753 6.15618e-20)
(1.14907 0.242353 -1.49557e-20)
(1.20464 0.261251 -8.99466e-21)
(1.23792 0.272256 -4.60974e-20)
(1.2547 0.276905 6.11058e-20)
(1.26042 0.276916 -1.68043e-20)
(1.25949 0.273825 1.36394e-20)
(1.25502 0.268823 1.07622e-20)
(1.24906 0.262731 -1.59273e-21)
(1.24278 0.256073 -2.41157e-21)
(1.2368 0.249165 -6.52349e-20)
(1.23136 0.24216 -5.85917e-20)
(1.22647 0.235051 4.97124e-20)
(1.22193 0.228737 -4.02025e-20)
(0.056801 -0.00179799 1.34733e-19)
(0.197436 0.00503029 6.06831e-20)
(0.361432 0.0315136 6.39733e-20)
(0.537278 0.0703264 -2.21472e-20)
(0.71129 0.115889 9.82424e-20)
(0.86999 0.162565 -9.47992e-20)
(1.00312 0.205056 4.99061e-20)
(1.10557 0.23967 3.71986e-20)
(1.17748 0.264802 4.33777e-21)
(1.22286 0.280672 -3.0508e-20)
(1.24767 0.288679 -2.16871e-20)
(1.25811 0.290716 2.80465e-20)
(1.2595 0.288634 -5.34235e-21)
(1.25583 0.283949 2.16704e-20)
(1.24978 0.277754 -3.0671e-20)
(1.24297 0.270758 -5.63737e-20)
(1.23629 0.263391 -1.77673e-20)
(1.23016 0.255904 3.8191e-20)
(1.22468 0.24839 -4.24122e-20)
(1.21979 0.240874 2.57131e-20)
(1.2152 0.234269 6.21892e-21)
(0.0673086 3.97618e-05 -3.89633e-20)
(0.225792 0.0121858 -5.46125e-20)
(0.403771 0.0452342 -5.40671e-20)
(0.588468 0.0902841 -3.67381e-20)
(0.765216 0.140495 -1.63252e-20)
(0.920683 0.189503 4.15452e-20)
(1.04601 0.231965 -1.2632e-20)
(1.13824 0.264715 2.19868e-20)
(1.1996 0.286937 -6.02604e-20)
(1.23564 0.299595 3.95042e-20)
(1.2531 0.304618 1.17579e-20)
(1.2583 0.304161 2.08712e-20)
(1.25627 0.30013 -1.76188e-20)
(1.25056 0.293972 2.10275e-20)
(1.24339 0.286663 1.14257e-20)
(1.23604 0.278801 5.69509e-21)
(1.22913 0.270734 -5.27194e-21)
(1.22295 0.262656 -3.50193e-20)
(1.2175 0.254614 3.39593e-20)
(1.21266 0.246681 -1.02839e-20)
(1.20804 0.239737 -1.08134e-20)
(0.0783608 0.00262262 -8.87096e-22)
(0.254833 0.0212441 -1.8451e-20)
(0.445998 0.0614812 6.01562e-21)