/*--------------------------------*- C++ -*----------------------------------*\
  =========                 |
  \\      /  F ield         | OpenFOAM: The Open Source CFD Toolbox
   \\    /   O peration     | Website:  https://openfoam.org
    \\  /    A nd           | Version:  7
     \\/     M anipulation  |
\*---------------------------------------------------------------------------*/
FoamFile
{
    version     2.0;
    format      ascii;
    class       volVectorField;
    location    "15";
    object      U;
}
// * * * * * * * * * * * * * * * * * * * * * * * * * * * * * * * * * * * * * //

dimensions      [0 1 -1 0 0 0 0];

internalField   nonuniform List<vector> 
928
(
(0.00280384 -0.00169089 2.51021e-21)
(0.00774672 -0.00174424 -2.90946e-21)
(0.0128368 -0.00179164 8.54525e-22)
(0.0180576 -0.00183351 1.34132e-21)
(0.023394 -0.00187026 -1.89599e-21)
(0.00435184 -0.00506943 -7.61394e-22)
(0.00929592 -0.00522898 4.17013e-21)
(0.0143854 -0.00537074 -3.2344e-22)
(0.019604 -0.00549596 -8.1042e-22)
(0.0249367 -0.00560585 -2.43242e-21)
(0.00744475 -0.00844224 3.6545e-21)
(0.012391 -0.0087066 2.67272e-21)
(0.0174791 -0.00894146 6.32807e-21)
(0.0226931 -0.0091489 2.4187e-21)
(0.0280183 -0.00933094 -4.34567e-21)
(0.0120765 -0.0118053 9.66553e-21)
(0.0170254 -0.0121722 -4.71631e-21)
(0.0221109 -0.0124981 1.87339e-21)
(0.0273176 -0.0127859 -1.31875e-20)
(0.0326311 -0.0130384 2.89294e-21)
(0.0380383 -0.0132584 7.87392e-21)
(0.0182378 -0.0151544 -3.20078e-20)
(0.0231893 -0.0156205 1.97621e-20)
(0.0282703 -0.0160346 -2.21027e-20)
(0.0334662 -0.0164002 5.35803e-21)
(0.0387634 -0.016721 3.11522e-21)
(0.0441491 -0.0170004 -1.32078e-21)
(0.0259165 -0.0184849 1.6111e-20)
(0.0308694 -0.0190462 -5.14562e-21)
(0.0359434 -0.0195447 -9.20526e-21)
(0.0411244 -0.0199849 -7.37563e-21)
(0.0463998 -0.0203711 -9.40109e-21)
(0.0517576 -0.0207075 1.23121e-20)
(0.0350973 -0.0217915 -5.75024e-23)
(0.0400495 -0.0224431 1.51486e-20)
(0.0451126 -0.0230218 -6.81099e-21)
(0.0502738 -0.0235328 -3.03765e-21)
(0.0555212 -0.023981 -7.44227e-21)
(0.0608438 -0.0243714 1.26762e-20)
(0.045762 -0.0250685 -1.89974e-20)
(0.0507098 -0.0258049 5.5498e-21)
(0.0557572 -0.0264588 1.43568e-20)
(0.0608924 -0.0270361 6.83589e-21)
(0.0661046 -0.0275425 -3.47439e-20)
(0.0713839 -0.0279834 5.98135e-21)
(0.0578893 -0.0283094 -5.85312e-21)
(0.0628276 -0.0291243 1.66968e-20)
(0.0678528 -0.0298479 -4.50424e-20)
(0.0729546 -0.0304866 5.03614e-20)
(0.0781232 -0.0310469 -4.21406e-20)
(0.08335 -0.0315348 2.18295e-20)
(0.0763767 -0.0323936 -3.18489e-21)
(0.0813718 -0.0331808 7.95659e-21)
(0.0864312 -0.0338757 -2.97374e-20)
(0.0915467 -0.0344853 3.17036e-20)
(0.0967107 -0.035016 -2.48224e-20)
(0.0913277 -0.0356042 -1.12441e-20)
(0.0962828 -0.0364486 -3.86801e-20)
(0.101289 -0.0371941 7.03673e-20)
(0.106341 -0.037848 -3.79864e-20)
(0.11143 -0.0384175 -7.58149e-22)
(0.107648 -0.0387464 3.74695e-20)
(0.112551 -0.0396415 -1.01751e-20)
(0.117493 -0.0404317 -2.21638e-20)
(0.122467 -0.0411251 1.32553e-20)
(0.12747 -0.0417291 1.48964e-20)
(0.125301 -0.0418102 7.67047e-21)
(0.130139 -0.042749 -1.33573e-20)
(0.135002 -0.0435782 2.34467e-20)
(0.139885 -0.044306 1.02564e-21)
(0.144787 -0.0449402 -1.06708e-20)
(0.149703 -0.045488 2.30815e-20)
(0.144247 -0.0447841 1.96058e-20)
(0.149004 -0.0457599 1.1964e-20)
(0.153772 -0.0466223 -4.34097e-20)
(0.158549 -0.0473796 -7.78597e-21)
(0.163334 -0.0480398 2.30771e-20)
(0.168124 -0.0486104 2.47804e-20)
(0.1691 -0.0486623 3.36236e-20)
(0.173756 -0.0495522 -1.88175e-20)
(0.178409 -0.0503343 2.71769e-20)
(0.18306 -0.0510166 -2.9524e-20)
(0.187708 -0.0516068 -2.17804e-20)
(0.190378 -0.0514434 2.46143e-20)
(0.194902 -0.0523556 -1.93508e-20)
(0.199412 -0.0531581 3.30052e-21)
(0.203911 -0.053859 -1.84713e-20)
(0.2084 -0.0544658 3.39032e-20)
(0.212785 -0.0540898 -4.17556e-20)
(0.217155 -0.0550195 -1.74362e-20)
(0.221502 -0.0558386 1.46008e-20)
(0.22583 -0.0565549 -4.0802e-22)
(0.23014 -0.057176 2.57692e-20)
(0.234434 -0.0577089 -1.45158e-20)
(0.236261 -0.0565875 5.45336e-20)
(0.240455 -0.0575308 3.05286e-20)
(0.244618 -0.0583631 -6.02305e-20)
(0.248753 -0.0590923 -2.23999e-20)
(0.252866 -0.0597257 1.33878e-20)
(0.256957 -0.0602703 -8.37077e-21)
(0.264739 -0.0598757 9.05321e-20)
(0.268694 -0.0607188 -6.26878e-20)
(0.272616 -0.061459 5.05099e-20)
(0.27651 -0.0621036 6.01478e-20)
(0.28038 -0.0626591 -8.66391e-20)
(0.289938 -0.0620407 4.16515e-20)
(0.293662 -0.0628929 -2.76588e-20)
(0.297348 -0.0636431 -4.67989e-21)
(0.301004 -0.0642982 -2.45191e-20)
(0.304632 -0.0648645 7.32547e-20)
(0.315981 -0.0640121 4.07098e-20)
(0.319449 -0.0648727 -2.56483e-20)
(0.322877 -0.0656327 -7.23454e-21)
(0.326273 -0.0662986 2.18436e-20)
(0.329641 -0.0668763 2.68621e-21)
(0.332985 -0.0673715 5.45767e-21)
(0.345978 -0.0666458 4.28481e-20)
(0.349125 -0.0674164 2.8376e-20)
(0.35224 -0.0680942 -9.35281e-20)
(0.355329 -0.0686847 4.52177e-20)
(0.358395 -0.0691933 -1.99151e-21)
(0.373169 -0.0682006 -4.79148e-20)
(0.376014 -0.0689836 -1.80703e-20)
(0.378828 -0.0696752 7.90174e-20)
(0.381617 -0.0702807 -7.00304e-20)
(0.384387 -0.0708049 -6.31539e-21)
(0.400939 -0.0695261 2.19462e-20)
(0.403459 -0.0703242 -3.11845e-20)
(0.405952 -0.0710326 -9.58427e-20)
(0.408424 -0.071656 8.49932e-20)
(0.410881 -0.072199 -7.68581e-20)
(0.413327 -0.0726659 1.10106e-19)
(0.431374 -0.0714296 7.53889e-21)
(0.433528 -0.0721586 7.15583e-20)
(0.435667 -0.0728038 -7.42411e-20)
(0.437796 -0.0733692 -9.76424e-21)
(0.439919 -0.073859 -5.48678e-20)
(0.459673 -0.0722917 6.90408e-20)
(0.46147 -0.0730459 -4.91286e-20)
(0.46326 -0.0737173 -9.64003e-20)
(0.465046 -0.0743097 5.42558e-20)
(0.466834 -0.0748267 -1.82039e-20)
(0.488265 -0.0729012 2.40229e-20)
(0.48969 -0.0736861 -1.15969e-20)
(0.491116 -0.074389 -5.933e-20)
(0.492548 -0.0750132 6.35374e-20)
(0.493989 -0.0755622 4.338e-20)
(0.495441 -0.0760393 -3.20661e-20)
(0.518099 -0.0740789 1.77608e-20)
(0.51915 -0.074819 -4.0015e-21)
(0.520217 -0.0754805 -8.47783e-21)
(0.521301 -0.0760667 2.01544e-20)
(0.522405 -0.0765806 1.05036e-21)
(0.546608 -0.0742509 4.18433e-20)
(0.547275 -0.0750351 -2.17772e-20)
(0.547967 -0.0757407 -8.4336e-21)
(0.548688 -0.0763703 -4.62747e-21)
(0.549437 -0.076927 5.12024e-20)
(0.550217 -0.0774137 3.29573e-20)
(0.575403 -0.0750083 -8.53699e-21)
(0.575716 -0.0757667 1.26673e-19)
(0.576067 -0.0764482 -1.13615e-19)
(0.576457 -0.0770556 7.56976e-20)
(0.576888 -0.0775916 -2.67808e-20)
(0.617779 -0.0743348 0)
(0.617571 -0.0751737 0)
(0.617417 -0.0759348 0)
(0.617316 -0.0766208 0)
(0.617269 -0.0772342 2.21065e-28)
(0.680196 -0.0737408 0)
(0.679211 -0.074655 0)
(0.678304 -0.0754902 0)
(0.677473 -0.0762488 0)
(0.676715 -0.0769336 -8.76759e-28)
(0.74269 -0.0717519 0)
(0.740946 -0.0727953 0)
(0.739301 -0.0737548 0)
(0.737753 -0.0746334 0)
(0.736297 -0.075434 2.03659e-27)
(0.804184 -0.0686527 0)
(0.801734 -0.069857 0)
(0.799401 -0.0709707 0)
(0.797182 -0.0719971 0)
(0.79507 -0.0729396 -2.01642e-27)
(0.863676 -0.0646121 0)
(0.860606 -0.0659982 0)
(0.857664 -0.0672858 0)
(0.854848 -0.0684789 0)
(0.85215 -0.0695814 -9.25975e-28)
(0.920269 -0.0597573 0)
(0.916688 -0.0613371 0)
(0.913241 -0.0628106 0)
(0.909924 -0.0641822 0)
(0.906731 -0.0654564 1.15324e-27)
(0.973212 -0.0542633 0)
(0.969246 -0.0560379 0)
(0.965412 -0.0576992 0)
(0.961706 -0.0592522 0)
(0.958124 -0.0607014 -2.98687e-27)
(1.02193 -0.0483212 0)
(1.01771 -0.0502816 0)
(1.01361 -0.0521234 0)
(1.00963 -0.0538517 0)
(1.00577 -0.0554712 0)
(1.06602 -0.0421206 0)
(1.06167 -0.0442496 0)
(1.05743 -0.0462567 0)
(1.0533 -0.0481469 0)
(1.04928 -0.0499249 0)
(1.10527 -0.0358391 0)
(1.10091 -0.0381135 0)
(1.09664 -0.040265 0)
(1.09247 -0.042298 0)
(1.08839 -0.0442171 0)
(1.13963 -0.0296336 0)
(1.13536 -0.0320271 0)
(1.13117 -0.0342981 0)
(1.12705 -0.036451 0)
(1.12301 -0.03849 0)
(1.1692 -0.0236356 0)
(1.1651 -0.0261201 0)
(1.16106 -0.0284845 0)
(1.15708 -0.0307326 0)
(1.15316 -0.0328682 0)
(1.19419 -0.0179486 0)
(1.19033 -0.0204966 0)
(1.18651 -0.022928 0)
(1.18273 -0.0252462 0)
(1.17899 -0.0274547 -4.25471e-28)
(1.21491 -0.0126486 0)
(1.21133 -0.0152341 0)
(1.20777 -0.0177075 0)
(1.20424 -0.0200718 0)
(1.20073 -0.0223298 0)
(1.23171 -0.00778604 0)
(1.22845 -0.0103854 0)
(1.22518 -0.0128778 0)
(1.22193 -0.0152658 0)
(1.21869 -0.017552 0)
(1.24502 -0.00338833 0)
(1.24207 -0.00598088 0)
(1.23912 -0.00847199 0)
(1.23617 -0.0108638 0)
(1.23321 -0.0131587 0)
(1.25523 0.000536179 0)
(1.25261 -0.00203193 0)
(1.24998 -0.00450433 0)
(1.24732 -0.00688287 0)
(1.24466 -0.00916945 0)
(1.26277 0.00399469 0)
(1.26048 0.00146553 0)
(1.25815 -0.000973703 0)
(1.25579 -0.00332454 0)
(1.25342 -0.00558857 0)
(1.26804 0.00700616 0)
(1.26605 0.00452748 0)
(1.26401 0.00213307 0)
(1.26194 -0.000178352 0)
(1.25985 -0.00240811 0)
(1.27141 0.00959785 0)
(1.26969 0.00717852 0)
(1.26793 0.00483796 0)
(1.26614 0.00257516 0)
(1.26431 0.000389011 0)
(1.2732 0.0118023 0)
(1.27174 0.00944879 0)
(1.27024 0.00716884 0)
(1.26869 0.00496162 0)
(1.26711 0.00282624 3.52746e-28)
(1.27371 0.0136546 0)
(1.27249 0.0113715 0)
(1.27122 0.00915692 0)
(1.26991 0.00701033 0)
(1.26855 0.00493099 2.16963e-27)
(1.27322 0.0151906 0)
(1.2722 0.0129807 0)
(1.27114 0.0108347 0)
(1.27003 0.00875219 0)
(1.26888 0.00673261 1.71163e-27)
(1.27192 0.0164451 0)
(1.2711 0.01431 0)
(1.27022 0.0122344 0)
(1.2693 0.0102182 0)
(1.26833 0.00826076 0)
(1.27002 0.0174508 0)
(1.26936 0.0153911 0)
(1.26864 0.0133869 0)
(1.26788 0.011438 0)
(1.26708 0.00954422 0)
(1.26765 0.0182378 0)
(1.26714 0.0162533 0)
(1.26657 0.0143206 0)
(1.26595 0.0124396 0)
(1.26529 0.0106101 6.86985e-28)
(1.26495 0.0188331 0)
(1.26456 0.0169232 0)
(1.26413 0.0150617 0)
(1.26364 0.0132484 0)
(1.2631 0.0114832 0)
(1.26202 0.0192604 0)
(1.26174 0.0174242 0)
(1.26142 0.0156331 0)
(1.26104 0.013887 0)
(1.26062 0.0121859 0)
(1.25893 0.0195406 0)
(1.25875 0.017777 0)
(1.25853 0.0160553 0)
(1.25825 0.0143757 0)
(1.25793 0.0127381 0)
(1.25575 0.0196916 0)
(1.25566 0.0179993 0)
(1.25552 0.0163461 0)
(1.25533 0.014732 0)
(1.2551 0.0131573 0)
(1.25253 0.0197289 0)
(1.25252 0.0181066 0)
(1.25245 0.0165206 0)
(1.25234 0.0149712 0)
(1.25219 0.0134584 0)
(1.24931 0.0196657 0)
(1.24936 0.018112 0)
(1.24936 0.0165921 0)
(1.24932 0.0151063 0)
(1.24924 0.0136547 0)
(1.24611 0.0195132 0)
(1.24622 0.0180269 0)
(1.24629 0.0165719 0)
(1.24631 0.0151487 0)
(1.24628 0.0137575 0)
(1.24296 0.0192812 0)
(1.24313 0.0178609 0)
(1.24325 0.0164698 0)
(1.24332 0.0151082 0)
(1.24336 0.0137763 0)
(1.23988 0.018978 0)
(1.24009 0.0176225 0)
(1.24026 0.0162941 0)
(1.24039 0.0149931 0)
(1.24047 0.0137198 -5.57157e-28)
(1.23688 0.0186108 0)
(1.23713 0.0173189 0)
(1.23735 0.0160521 0)
(1.23752 0.0148108 0)
(1.23765 0.0135952 0)
(1.23397 0.0181858 0)
(1.23426 0.0169564 0)
(1.23452 0.0157502 0)
(1.23473 0.0145675 0)
(1.2349 0.0134088 -2.42323e-28)
(1.23115 0.0177087 0)
(1.23149 0.0165406 0)
(1.23177 0.0153939 0)
(1.23202 0.0142691 0)
(1.23223 0.0131664 -5.23876e-28)
(1.22845 0.0171843 0)
(1.22881 0.0160764 0)
(1.22913 0.0149882 0)
(1.22942 0.0139203 0)
(1.22966 0.0128729 -2.32989e-28)
(1.22585 0.0166169 0)
(1.22624 0.0155681 0)
(1.2266 0.0145376 0)
(1.22691 0.0135257 0)
(1.22718 0.0125328 0)
(1.22337 0.0160105 0)
(1.22379 0.0150198 0)
(1.22417 0.0140459 0)
(1.22451 0.0130892 0)
(1.22481 0.0121501 -4.95343e-28)
(1.221 0.0153685 0)
(1.22144 0.014435 0)
(1.22185 0.0135168 0)
(1.22221 0.0126145 0)
(1.22254 0.0117284 0)
(1.21875 0.0146943 0)
(1.21922 0.0138169 0)
(1.21964 0.0129536 0)
(1.22003 0.0121049 0)
(1.22038 0.0112711 -2.17125e-28)
(1.21662 0.0139906 0)
(1.21711 0.0131685 0)
(1.21756 0.0123593 0)
(1.21797 0.0115634 0)
(1.21834 0.0107812 0)
(1.21461 0.0132603 0)
(1.21512 0.0124925 0)
(1.21559 0.0117365 0)
(1.21602 0.0109928 0)
(1.21641 0.0102616 0)
(1.21273 0.0125057 0)
(1.21325 0.0117915 0)
(1.21374 0.011088 0)
(1.21418 0.0103957 0)
(1.2146 0.00971476 0)
(1.21097 0.0117292 0)
(1.21151 0.0110677 0)
(1.21201 0.0104161 0)
(1.21247 0.00977447 0)
(1.2129 0.00914327 0)
(1.20933 0.0109329 0)
(1.20988 0.0103235 0)
(1.2104 0.00972288 0)
(1.21088 0.00913142 0)
(1.21132 0.00854938 2.0227e-28)
(1.20782 0.0101188 0)
(1.20839 0.00956071 0)
(1.20891 0.00901056 0)
(1.2094 0.00846865 0)
(1.20986 0.00793522 0)
(1.20644 0.00928874 0)
(1.20701 0.00878134 0)
(1.20755 0.00828106 0)
(1.20805 0.00778814 0)
(1.20852 0.00730283 0)
(1.20518 0.00844445 0)
(1.20576 0.00798717 0)
(1.20631 0.00753621 0)
(1.20682 0.00709179 0)
(1.2073 0.00665413 0)
(1.20404 0.00758758 0)
(1.20463 0.00717989 0)
(1.20519 0.00677775 0)
(1.20571 0.00638137 0)
(1.2062 0.00599095 -1.30014e-27)
(1.20303 0.0067197 0)
(1.20363 0.00636112 0)
(1.2042 0.00600736 0)
(1.20473 0.00565861 0)
(1.20522 0.00531504 -4.2476e-28)
(1.20215 0.00584228 0)
(1.20276 0.00553239 0)
(1.20333 0.00522662 0)
(1.20386 0.00492513 0)
(1.20437 0.00462807 0)
(1.2014 0.00495677 0)
(1.20201 0.00469519 0)
(1.20258 0.00443706 0)
(1.20313 0.0041825 0)
(1.20364 0.00393166 -1.90111e-28)
(1.20077 0.00406451 0)
(1.20138 0.00385093 0)
(1.20196 0.00364014 0)
(1.20251 0.00343225 0)
(1.20302 0.00322737 -4.1718e-28)
(1.20026 0.00316681 0)
(1.20088 0.00300097 0)
(1.20146 0.00283728 0)
(1.20202 0.00267583 0)
(1.20254 0.00251669 -1.88398e-28)
(1.19988 0.00226494 0)
(1.2005 0.00214663 0)
(1.20109 0.00202985 0)
(1.20165 0.00191465 0)
(1.20217 0.00180111 0)
(1.19963 0.00136018 0)
(1.20025 0.00128926 0)
(1.20084 0.00121924 0)
(1.2014 0.00115018 0)
(1.20192 0.0010821 0)
(1.19951 0.000453624 0)
(1.20013 0.000429991 0)
(1.20072 0.000406662 0)
(1.20128 0.000383648 0)
(1.2018 0.000360962 0)
(0.61778 0.074334 0)
(0.680197 0.0737401 0)
(0.742691 0.0717512 0)
(0.804185 0.0686521 0)
(0.863677 0.0646116 0)
(0.920269 0.0597568 0)
(0.973212 0.0542629 0)
(1.02193 0.0483208 0)
(1.06602 0.0421203 0)
(1.10527 0.0358389 0)
(1.13963 0.0296334 0)
(1.1692 0.0236354 0)
(1.19419 0.0179485 0)
(1.21491 0.0126485 0)
(1.23171 0.00778596 0)
(1.24502 0.00338828 0)
(1.25523 -0.000536206 0)
(1.26277 -0.0039947 0)
(1.26804 -0.00700615 0)
(1.27141 -0.00959782 0)
(1.2732 -0.0118022 0)
(1.27371 -0.0136546 0)
(1.27322 -0.0151906 0)
(1.27192 -0.016445 0)
(1.27002 -0.0174508 0)
(1.26765 -0.0182377 0)
(1.26495 -0.018833 0)
(1.26202 -0.0192603 0)
(1.25893 -0.0195405 0)
(1.25575 -0.0196915 0)
(1.25253 -0.0197288 0)
(1.24931 -0.0196656 0)
(1.24611 -0.0195131 0)
(1.24296 -0.0192811 0)
(1.23988 -0.0189779 0)
(1.23688 -0.0186107 0)
(1.23397 -0.0181858 0)
(1.23115 -0.0177086 0)
(1.22845 -0.0171842 0)
(1.22585 -0.0166168 0)
(1.22337 -0.0160104 0)
(1.221 -0.0153685 0)
(1.21875 -0.0146942 0)
(1.21662 -0.0139905 0)
(1.21461 -0.0132602 0)
(1.21273 -0.0125056 0)
(1.21097 -0.0117292 0)
(1.20933 -0.0109329 0)
(1.20782 -0.0101188 0)
(1.20644 -0.00928869 0)
(1.20518 -0.0084444 0)
(1.20404 -0.00758754 0)
(1.20303 -0.00671966 0)
(1.20215 -0.00584225 0)
(1.2014 -0.00495674 0)
(1.20077 -0.00406449 0)
(1.20026 -0.00316679 0)
(1.19988 -0.00226493 0)
(1.19963 -0.00136018 0)
(1.19951 -0.000453622 0)
(0.617571 0.0751729 0)
(0.679212 0.0746543 0)
(0.740946 0.0727946 0)
(0.801734 0.0698565 0)
(0.860606 0.0659977 0)
(0.916688 0.0613367 0)
(0.969246 0.0560375 0)
(1.01771 0.0502812 0)
(1.06167 0.0442493 0)
(1.10091 0.0381133 0)
(1.13536 0.0320269 0)
(1.1651 0.02612 0)
(1.19033 0.0204965 0)
(1.21133 0.0152341 0)
(1.22845 0.0103854 0)
(1.24207 0.00598085 0)
(1.25261 0.00203191 0)
(1.26048 -0.00146552 0)
(1.26605 -0.00452746 0)
(1.26969 -0.00717848 0)
(1.27174 -0.00944874 0)
(1.27249 -0.0113714 0)
(1.27221 -0.0129806 0)
(1.2711 -0.0143099 0)
(1.26936 -0.015391 0)
(1.26714 -0.0162532 0)
(1.26456 -0.0169231 0)
(1.26174 -0.0174241 0)
(1.25875 -0.0177769 0)
(1.25566 -0.0179992 0)
(1.25252 -0.0181065 0)
(1.24936 -0.0181119 0)
(1.24622 -0.0180268 0)
(1.24313 -0.0178608 0)
(1.24009 -0.0176224 0)
(1.23713 -0.0173188 0)
(1.23426 -0.0169563 0)
(1.23149 -0.0165405 0)
(1.22881 -0.0160763 0)
(1.22624 -0.015568 0)
(1.22379 -0.0150197 0)
(1.22144 -0.0144349 0)
(1.21922 -0.0138168 0)
(1.21711 -0.0131684 0)
(1.21512 -0.0124924 0)
(1.21325 -0.0117914 0)
(1.21151 -0.0110677 0)
(1.20988 -0.0103234 0)
(1.20839 -0.00956066 0)
(1.20701 -0.00878129 0)
(1.20576 -0.00798712 0)
(1.20463 -0.00717985 0)
(1.20363 -0.00636108 0)
(1.20276 -0.00553236 0)
(1.20201 -0.00469516 0)
(1.20138 -0.00385091 0)
(1.20088 -0.00300095 0)
(1.2005 -0.00214662 0)
(1.20025 -0.00128925 0)
(1.20013 -0.000429989 0)
(0.617417 0.0759341 0)
(0.678305 0.0754895 0)
(0.739302 0.0737541 0)
(0.799402 0.0709701 0)
(0.857665 0.0672853 0)
(0.913242 0.0628102 0)
(0.965413 0.0576989 0)
(1.01361 0.0521231 0)
(1.05743 0.0462564 0)
(1.09664 0.0402647 0)
(1.13117 0.0342979 0)
(1.16106 0.0284844 0)
(1.18651 0.0229279 0)
(1.20777 0.0177075 0)
(1.22519 0.0128778 0)
(1.23912 0.00847197 0)
(1.24998 0.00450433 0)
(1.25815 0.000973725 0)
(1.26401 -0.00213303 0)
(1.26793 -0.00483791 0)
(1.27024 -0.00716878 0)
(1.27122 -0.00915684 0)
(1.27114 -0.0108346 0)
(1.27022 -0.0122343 0)
(1.26864 -0.0133868 0)
(1.26657 -0.0143205 0)
(1.26413 -0.0150616 0)
(1.26142 -0.015633 0)
(1.25853 -0.0160552 0)
(1.25552 -0.0163459 0)
(1.25245 -0.0165205 0)
(1.24936 -0.016592 0)
(1.24629 -0.0165718 0)
(1.24325 -0.0164697 0)
(1.24026 -0.016294 0)
(1.23735 -0.016052 0)
(1.23452 -0.0157501 0)
(1.23178 -0.0153938 0)
(1.22913 -0.0149881 0)
(1.2266 -0.0145375 0)
(1.22417 -0.0140458 0)
(1.22185 -0.0135167 0)
(1.21964 -0.0129535 0)
(1.21756 -0.0123592 0)
(1.21559 -0.0117365 0)
(1.21374 -0.0110879 0)
(1.21201 -0.010416 0)
(1.2104 -0.00972282 0)
(1.20891 -0.00901051 0)
(1.20755 -0.00828101 0)
(1.20631 -0.00753616 0)
(1.20519 -0.00677771 0)
(1.2042 -0.00600732 0)
(1.20333 -0.00522659 0)
(1.20258 -0.00443703 0)
(1.20196 -0.00364012 0)
(1.20146 -0.00283726 0)
(1.20109 -0.00202984 0)
(1.20084 -0.00121923 0)
(1.20072 -0.000406659 0)
(0.617317 0.07662 0)
(0.677473 0.0762481 0)
(0.737753 0.0746327 0)
(0.797182 0.0719965 0)
(0.854848 0.0684784 0)
(0.909925 0.0641818 0)
(0.961707 0.0592518 0)
(1.00963 0.0538514 0)
(1.0533 0.0481467 0)
(1.09247 0.0422978 0)
(1.12705 0.0364509 0)
(1.15708 0.0307325 0)
(1.18273 0.0252462 0)
(1.20424 0.0200717 0)
(1.22193 0.0152658 0)
(1.23617 0.0108638 0)
(1.24732 0.00688289 0)
(1.25579 0.00332457 0)
(1.26195 0.000178407 0)
(1.26614 -0.00257509 0)
(1.26869 -0.00496154 0)
(1.26991 -0.00701023 0)
(1.27003 -0.00875209 0)
(1.2693 -0.0102181 0)
(1.26788 -0.0114379 0)
(1.26595 -0.0124395 0)
(1.26364 -0.0132482 0)
(1.26104 -0.0138869 0)
(1.25825 -0.0143756 0)
(1.25533 -0.0147319 0)
(1.25234 -0.014971 0)
(1.24932 -0.0151062 0)
(1.24631 -0.0151486 0)
(1.24332 -0.0151081 0)
(1.24039 -0.014993 0)
(1.23752 -0.0148106 0)
(1.23473 -0.0145674 0)
(1.23202 -0.014269 0)
(1.22942 -0.0139202 0)
(1.22691 -0.0135256 0)
(1.22451 -0.0130891 0)
(1.22221 -0.0126144 0)
(1.22003 -0.0121048 0)
(1.21797 -0.0115633 0)
(1.21602 -0.0109927 0)
(1.21418 -0.0103956 0)
(1.21247 -0.0097744 0)
(1.21088 -0.00913135 0)
(1.2094 -0.00846859 0)
(1.20805 -0.00778809 0)
(1.20682 -0.00709174 0)
(1.20571 -0.00638133 0)
(1.20473 -0.00565857 0)
(1.20386 -0.00492509 0)
(1.20313 -0.00418247 0)
(1.20251 -0.00343222 0)
(1.20202 -0.00267581 0)
(1.20165 -0.00191464 0)
(1.2014 -0.00115017 0)
(1.20128 -0.000383645 0)
(0.61727 0.0772334 0)
(0.676715 0.0769329 0)
(0.736297 0.0754333 0)
(0.795071 0.072939 0)
(0.852151 0.0695809 -8.3871e-11)
(0.906732 0.065456 -8.28276e-11)
(0.958125 0.060701 2.98687e-27)
(1.00578 0.055471 0)
(1.04928 0.0499247 0)
(1.08839 0.0442169 0)
(1.12301 0.0384899 0)
(1.15316 0.0328681 4.34308e-28)
(1.17899 0.0274546 0)
(1.20073 0.0223298 0)
(1.21869 0.0175519 0)
(1.23321 0.0131587 0)
(1.24466 0.00916949 0)
(1.25342 0.00558863 0)
(1.25985 0.00240818 0)
(1.26431 -0.000388925 0)
(1.26711 -0.00282614 -3.52746e-28)
(1.26855 -0.00493088 0)
(1.26888 -0.00673249 0)
(1.26833 -0.00826063 0)
(1.26708 -0.00954409 3.19295e-28)
(1.26529 -0.0106099 0)
(1.2631 -0.011483 0)
(1.26062 -0.0121858 0)
(1.25793 -0.012738 0)
(1.2551 -0.0131571 0)
(1.25219 -0.0134583 0)
(1.24924 -0.0136546 0)
(1.24629 -0.0137573 0)
(1.24336 -0.0137762 0)
(1.24047 -0.0137197 5.57158e-28)
(1.23765 -0.013595 0)
(1.2349 -0.0134087 2.42323e-28)
(1.23223 -0.0131663 0)
(1.22966 -0.0128728 0)
(1.22718 -0.0125327 0)
(1.22481 -0.01215 0)
(1.22254 -0.0117283 -2.2075e-28)
(1.22038 -0.011271 2.17125e-28)
(1.21834 -0.0107811 0)
(1.21641 -0.0102615 0)
(1.2146 -0.00971468 0)
(1.2129 -0.0091432 0)
(1.21132 -0.00854931 -2.0227e-28)
(1.20986 -0.00793515 0)
(1.20852 -0.00730277 -4.36231e-28)
(1.2073 -0.00665407 0)
(1.2062 -0.0059909 0)
(1.20522 -0.00531499 0)
(1.20437 -0.00462803 0)
(1.20364 -0.00393163 0)
(1.20302 -0.00322734 4.1718e-28)
(1.20254 -0.00251667 0)
(1.20217 -0.00180109 1.87828e-28)
(1.20192 -0.00108209 0)
(1.2018 -0.000360959 0)
(0.575403 0.0750074 8.44415e-21)
(0.575716 0.0757658 -1.26462e-19)
(0.576067 0.0764473 1.13587e-19)
(0.576458 0.0770547 -7.58499e-20)
(0.576888 0.0775908 2.70428e-20)
(0.546608 0.07425 -4.1672e-20)
(0.547275 0.0750343 2.20364e-20)
(0.547967 0.0757398 8.34569e-21)
(0.548688 0.0763695 4.70961e-21)
(0.549438 0.0769261 -5.0899e-20)
(0.550218 0.0774128 -3.31986e-20)
(0.518099 0.074078 -1.87007e-20)
(0.51915 0.0748181 2.95075e-21)
(0.520217 0.0754796 7.63275e-21)
(0.521301 0.0760658 -2.1084e-20)
(0.522406 0.0765797 -1.89366e-21)
(0.488265 0.0729003 -2.29589e-20)
(0.48969 0.0736852 1.31935e-20)
(0.491116 0.074388 6.12249e-20)
(0.492548 0.0750123 -6.19251e-20)
(0.493989 0.0755613 -4.17407e-20)
(0.495441 0.0760384 3.27428e-20)
(0.459673 0.0722907 -7.01349e-20)
(0.46147 0.0730449 4.83618e-20)
(0.46326 0.0737164 9.47643e-20)
(0.465047 0.0743087 -5.57304e-20)
(0.466834 0.0748257 1.74028e-20)
(0.431375 0.0714287 -7.7213e-21)
(0.433528 0.0721577 -7.19049e-20)
(0.435667 0.0728028 -1.4866e-21)
(0.437796 0.0733682 8.64133e-20)
(0.439919 0.073858 -1.83831e-20)
(0.400939 0.0695251 -2.3625e-20)
(0.403459 0.0703232 2.91667e-20)
(0.405952 0.0710316 9.77823e-20)
(0.408424 0.071655 -8.33748e-20)
(0.410882 0.072198 7.75141e-20)
(0.413328 0.0726649 -1.09915e-19)
(0.373169 0.0681996 4.746e-20)
(0.376014 0.0689826 1.83419e-20)
(0.378828 0.0696742 -8.27028e-20)
(0.381617 0.0702796 6.67472e-20)
(0.384387 0.0708039 3.75239e-21)
(0.345978 0.0666448 -4.27422e-20)
(0.349126 0.0674154 -2.65351e-20)
(0.352241 0.0680931 9.50305e-20)
(0.355329 0.0686836 -4.52346e-20)
(0.358395 0.0691922 -6.99963e-20)
(0.315981 0.064011 -4.00963e-20)
(0.319449 0.0648716 3.0074e-20)
(0.322877 0.0656316 -6.94119e-20)
(0.326273 0.0662975 5.5706e-20)
(0.329641 0.0668752 -1.88226e-21)
(0.332986 0.0673704 -3.90393e-21)
(0.289938 0.0620396 -4.32951e-20)
(0.293662 0.0628918 2.7138e-20)
(0.297348 0.063642 2.99248e-21)
(0.301004 0.064297 2.40703e-20)
(0.304632 0.0648633 -7.17258e-20)
(0.264739 0.0598746 -1.19235e-20)
(0.268694 0.0607176 6.03586e-20)
(0.272616 0.0614579 -4.73076e-20)
(0.27651 0.0621024 -6.08085e-20)
(0.28038 0.0626579 8.44074e-20)
(0.236261 0.0565864 2.71103e-20)
(0.240455 0.0575296 -2.88272e-20)
(0.244618 0.0583619 6.07175e-20)
(0.248753 0.0590911 2.05579e-20)
(0.252866 0.0597245 -1.30619e-20)
(0.256957 0.0602691 8.83851e-21)
(0.212785 0.0540886 4.20121e-20)
(0.217155 0.0550184 1.74436e-20)
(0.221502 0.0558374 -1.25076e-20)
(0.22583 0.0565537 2.38936e-21)
(0.23014 0.0571747 -2.8003e-20)
(0.234435 0.0577077 1.581e-20)
(0.190378 0.0514422 -2.52994e-20)
(0.194902 0.0523544 1.97332e-20)
(0.199412 0.0531569 -4.68862e-21)
(0.203912 0.0538577 1.58915e-20)
(0.2084 0.0544646 -3.15567e-20)
(0.1691 0.0486611 -3.21488e-20)
(0.173756 0.049551 1.85261e-20)
(0.178409 0.0503331 -2.82576e-20)
(0.18306 0.0510154 3.08594e-20)
(0.187708 0.0516055 -1.40442e-20)
(0.144247 0.0447829 -1.8838e-20)
(0.149004 0.0457587 -1.56305e-20)
(0.153772 0.0466211 4.28752e-20)
(0.158549 0.0473783 8.84757e-21)
(0.163334 0.0480385 -2.24308e-20)
(0.168124 0.0486091 1.03735e-20)
(0.125301 0.0418089 -8.98496e-21)
(0.130139 0.0427477 -2.17985e-20)
(0.135002 0.0435769 1.46707e-20)
(0.139885 0.0443047 -2.29918e-21)
(0.144787 0.0449389 9.59482e-21)
(0.149703 0.0454866 -2.2821e-20)
(0.107648 0.0387452 2.58384e-21)
(0.112551 0.0396402 -2.81001e-20)
(0.117493 0.0404305 2.30258e-20)
(0.122468 0.0411238 -1.49013e-20)
(0.12747 0.0417278 -1.44489e-20)
(0.0913277 0.0356029 1.0159e-20)
(0.0962829 0.0364473 3.75667e-20)
(0.10129 0.0371928 -6.96993e-20)
(0.106341 0.0378467 4.07763e-20)
(0.111431 0.0384162 7.14574e-22)
(0.0763767 0.0323923 2.38784e-21)
(0.0813718 0.0331795 -9.24049e-21)
(0.0864312 0.0338744 2.94763e-20)
(0.0915468 0.0344839 -3.13877e-20)
(0.0967108 0.0350147 -1.07431e-20)
(0.0578894 0.0283081 5.30042e-21)
(0.0628276 0.029123 -1.59076e-20)
(0.0678529 0.0298466 4.57113e-20)
(0.0729546 0.0304853 -5.12105e-20)
(0.0781233 0.0310455 4.12372e-20)
(0.0833501 0.0315334 -2.14805e-20)
(0.045762 0.0250672 1.934e-20)
(0.0507099 0.0258036 -5.60251e-21)
(0.0557572 0.0264575 -1.40618e-20)
(0.0608925 0.0270347 -6.82319e-21)
(0.0661047 0.0275411 1.68322e-20)
(0.071384 0.027982 1.17789e-20)
(0.0350973 0.0217902 -3.5727e-22)
(0.0400495 0.0224418 -1.54649e-20)
(0.0451126 0.0230205 6.87933e-21)
(0.0502739 0.0235314 2.58404e-21)
(0.0555213 0.0239796 7.90049e-21)
(0.0608439 0.0243699 -1.19549e-20)
(0.0259165 0.0184835 -1.5666e-20)
(0.0308694 0.0190448 5.27891e-21)
(0.0359434 0.0195433 9.23803e-21)
(0.0411245 0.0199835 7.54235e-21)
(0.0463999 0.0203697 8.67509e-21)
(0.0517577 0.0207061 -1.23244e-20)
(0.0182378 0.0151531 3.16637e-20)
(0.0231893 0.0156192 -1.92545e-20)
(0.0282704 0.0160332 3.02582e-21)
(0.0334663 0.0163988 1.31968e-20)
(0.0387634 0.0167196 -2.60362e-21)
(0.0441492 0.016999 3.36331e-22)
(0.0120765 0.011804 -8.93919e-21)
(0.0170254 0.0121708 4.41784e-21)
(0.0221109 0.0124967 -1.99491e-21)
(0.0273176 0.0127844 1.32432e-20)
(0.0326311 0.013037 -3.01337e-21)
(0.0380383 0.013257 -7.40859e-21)
(0.00744476 0.00844091 5.78904e-21)
(0.012391 0.00870523 -2.56177e-21)
(0.0174791 0.00894006 -5.8834e-21)
(0.0226931 0.00914748 -2.2964e-21)
(0.0280184 0.0093295 4.54718e-21)
(0.00435184 0.00506808 8.67997e-22)
(0.00929593 0.00522761 5.93139e-22)
(0.0143854 0.00536934 -4.22067e-21)
(0.019604 0.00549453 9.10911e-22)
(0.0249367 0.00560441 2.09779e-21)
(0.00280385 0.00168954 -2.56596e-21)
(0.00774673 0.00174286 5.43019e-22)
(0.0128368 0.00179024 1.34926e-21)
(0.0180576 0.00183209 -1.39388e-21)
(0.023394 0.00186882 2.00211e-21)
)
;

boundaryField
{
    inlet
    {
        type            uniformFixedValue;
        uniformValue    constant (1 0 0);
        value           nonuniform 0();
    }
    outlet
    {
        type            pressureInletOutletVelocity;
        value           nonuniform 0();
    }
    cylinder
    {
        type            fixedValue;
        value           nonuniform 0();
    }
    top
    {
        type            symmetryPlane;
    }
    bottom
    {
        type            symmetryPlane;
    }
    defaultFaces
    {
        type            empty;
    }
    procBoundary22to21
    {
        type            processor;
        value           nonuniform List<vector> 
194
(
(-0.00197428 -0.00163117 1.03128e-21)
(-0.00042945 -0.00489082 1.28666e-21)
(0.00265738 -0.00814631 3.81371e-21)
(0.00728058 -0.0113946 -1.91538e-21)
(0.0134317 -0.0146325 4.03328e-21)
(0.0210995 -0.0178562 6.32966e-21)
(0.03027 -0.0210615 6.60159e-21)
(0.0409265 -0.0242435 -1.28666e-20)
(0.0530494 -0.0273963 -1.34615e-20)
(0.071455 -0.031507 1.68459e-20)
(0.071455 -0.031507 1.68459e-20)
(0.0864314 -0.034653 7.75397e-21)
(0.102788 -0.0377385 6.62738e-20)
(0.120491 -0.0407531 1.28696e-20)
(0.139503 -0.0436858 3.74679e-20)
(0.164443 -0.047656 7.05077e-21)
(0.164443 -0.047656 7.05077e-21)
(0.185841 -0.0504128 -1.1765e-20)
(0.208389 -0.0530407 -4.09475e-20)
(0.232032 -0.055525 -7.15197e-20)
(0.260746 -0.0589223 -7.45549e-20)
(0.260746 -0.0589223 -7.45549e-20)
(0.286172 -0.0610795 1.95083e-20)
(0.312468 -0.0630443 5.5395e-20)
(0.342791 -0.0657765 8.57598e-20)
(0.342791 -0.0657765 8.57598e-20)
(0.370288 -0.067321 -6.13996e-20)
(0.398387 -0.0686336 -7.95066e-20)
(0.429201 -0.0706126 -1.61154e-20)
(0.429201 -0.0706126 -1.61154e-20)
(0.457864 -0.0714509 -1.79424e-20)
(0.486838 -0.072031 3.05977e-20)
(0.51706 -0.0732574 3.16581e-20)
(0.51706 -0.0732574 3.16581e-20)
(0.545966 -0.0733851 6.75801e-21)
(0.575129 -0.0741704 2.66864e-20)
(0.575129 -0.0741704 2.66864e-20)
(0.618043 -0.0734159 0)
(0.681262 -0.0727451 0)
(0.744539 -0.0706218 0)
(0.806758 -0.0673541 0)
(0.866882 -0.0631232 0)
(0.92399 -0.0580663 0)
(0.977314 -0.0523702 0)
(1.02627 -0.0462371 0)
(1.07048 -0.0398649 0)
(1.10972 -0.0334369 0)
(1.14397 -0.0271135 0)
(1.17335 -0.0210271 0)
(1.19808 -0.0152806 0)
(1.2185 -0.00994806 0)
(1.23498 -0.00507715 0)
(1.24794 -0.000692219 0)
(1.25782 0.00320176 0)
(1.26504 0.00661524 0)
(1.27 0.00957026 0)
(1.27307 0.0120969 0)
(1.2746 0.01423 0)
(1.27488 0.0160069 0)
(1.27417 0.0174649 0)
(1.27269 0.0186401 0)
(1.27062 0.0195663 0)
(1.26811 0.0202741 0)
(1.26529 0.0207911 0)
(1.26224 0.0211414 0)
(1.25906 0.0213459 0)
(1.25579 0.0214227 0)
(1.2525 0.0213872 0)
(1.24921 0.0212528 0)
(1.24595 0.0210306 0)
(1.24275 0.0207302 0)
(1.23962 0.0203601 0)
(1.23657 0.0199273 0)
(1.23363 0.019438 0)
(1.23078 0.0188979 0)
(1.22804 0.0183116 0)
(1.22541 0.0176835 0)
(1.22291 0.0170176 0)
(1.22051 0.0163171 0)
(1.21824 0.0155854 0)
(1.2161 0.0148253 0)
(1.21407 0.0140395 0)
(1.21217 0.0132304 0)
(1.2104 0.0124001 0)
(1.20875 0.0115509 0)
(1.20723 0.0106846 0)
(1.20583 0.00980297 0)
(1.20456 0.00890778 0)
(1.20342 0.00800059 0)
(1.2024 0.00708289 0)
(1.20151 0.00615612 0)
(1.20075 0.00522164 0)
(1.20012 0.00428075 0)
(1.19961 0.00333471 0)
(1.19923 0.00238471 0)
(1.19898 0.00143198 0)
(1.19885 0.000477546 0)
(0.618043 0.0734151 0)
(0.681262 0.0727444 0)
(0.74454 0.0706211 0)
(0.806759 0.0673536 0)
(0.866883 0.0631226 0)
(0.92399 0.0580658 0)
(0.977314 0.0523698 0)
(1.02627 0.0462367 0)
(1.07048 0.0398646 0)
(1.10972 0.0334366 0)
(1.14397 0.0271133 0)
(1.17335 0.0210269 0)
(1.19808 0.0152804 0)
(1.2185 0.00994795 0)
(1.23498 0.00507706 0)
(1.24795 0.000692155 0)
(1.25782 -0.0032018 0)
(1.26504 -0.00661526 0)
(1.27 -0.00957027 0)
(1.27307 -0.0120969 0)
(1.2746 -0.01423 0)
(1.27488 -0.0160069 0)
(1.27417 -0.0174649 0)
(1.27269 -0.0186401 0)
(1.27062 -0.0195662 0)
(1.26811 -0.0202741 0)
(1.26529 -0.020791 0)
(1.26224 -0.0211413 0)
(1.25906 -0.0213458 0)
(1.25579 -0.0214226 0)
(1.2525 -0.0213872 0)
(1.24921 -0.0212527 0)