/*--------------------------------*- C++ -*----------------------------------*\
  =========                 |
  \\      /  F ield         | OpenFOAM: The Open Source CFD Toolbox
   \\    /   O peration     | Website:  https://openfoam.org
    \\  /    A nd           | Version:  7
     \\/     M anipulation  |
\*---------------------------------------------------------------------------*/
FoamFile
{
    version     2.0;
    format      ascii;
    class       volScalarField;
    location    "10";
    object      p;
}
// * * * * * * * * * * * * * * * * * * * * * * * * * * * * * * * * * * * * * //

dimensions      [0 2 -2 0 0 0 0];

internalField   nonuniform List<scalar> 
928
(
-0.00422858
-0.00393372
-0.00364671
-0.0033671
-0.00309439
-0.0028284
-0.00394241
-0.00365527
-0.00337549
-0.00310263
-0.00283652
-0.0039598
-0.00367232
-0.0033922
-0.00311907
-0.0028527
-0.00398568
-0.00369778
-0.00341723
-0.00314369
-0.00287694
-0.00402005
-0.0037316
-0.00345048
-0.00317641
-0.00290914
-0.00406277
-0.00377366
-0.00349186
-0.00321714
-0.00294923
-0.00411373
-0.00382384
-0.00354127
-0.00326577
-0.0029971
-0.0041728
-0.00388202
-0.00359855
-0.00332216
-0.00305261
-0.00423981
-0.00394804
-0.00366355
-0.00338616
-0.00311562
-0.00431459
-0.0040217
-0.0037361
-0.0034576
-0.00318594
-0.00439694
-0.00410283
-0.003816
-0.00353628
-0.00326341
-0.00448663
-0.00419119
-0.00390304
-0.00362199
-0.0033478
-0.00458344
-0.00428657
-0.00399699
-0.00371452
-0.00343892
-0.00468712
-0.00438871
-0.00409761
-0.00381363
-0.00353653
-0.0047974
-0.00449736
-0.00420465
-0.00391908
-0.00364039
-0.00491403
-0.00461227
-0.00431786
-0.00403061
-0.00375026
-0.00503671
-0.00473314
-0.00443696
-0.00414796
-0.0038659
-0.00516518
-0.0048597
-0.00456168
-0.00427086
-0.003987
-0.00529915
-0.00499165
-0.00469172
-0.00439902
-0.00411332
-0.00543835
-0.00512876
-0.00482679
-0.00453213
-0.0042445
-0.00396333
-0.00558243
-0.00527073
-0.00496667
-0.00466995
-0.00438029
-0.00409716
-0.0054173
-0.00511106
-0.00481221
-0.00452045
-0.00423531
-0.00556817
-0.00525971
-0.00495865
-0.0046647
-0.00437749
-0.00572299
-0.00541231
-0.00510901
-0.00481284
-0.00452347
-0.00588154
-0.00556859
-0.00526302
-0.00496459
-0.00467303
-0.00604337
-0.00572814
-0.00542027
-0.00511956
-0.00482577
-0.00620761
-0.0058901
-0.00557993
-0.00527694
-0.00498094
-0.00637489
-0.0060551
-0.00574265
-0.00543741
-0.0051392
-0.00655264
-0.00623034
-0.00591537
-0.00560766
-0.00530704
-0.00673941
-0.00641397
-0.00609583
-0.00578496
-0.00548123
-0.00518414
-0.00663886
-0.00631656
-0.00600148
-0.00569349
-0.00539239
-0.00699729
-0.00667208
-0.00635398
-0.00604293
-0.00573882
-0.0073492
-0.00702097
-0.00669977
-0.00638557
-0.00607832
-0.00770172
-0.00737038
-0.00704604
-0.00672864
-0.00641815
-0.00805425
-0.00771993
-0.00739254
-0.00707206
-0.00675845
-0.00840454
-0.00806733
-0.00773702
-0.00741355
-0.00709691
-0.00875118
-0.0084112
-0.00807805
-0.00775171
-0.00743214
-0.00909302
-0.00875038
-0.00841452
-0.00808541
-0.00776302
-0.0094291
-0.00908391
-0.00874544
-0.00841369
-0.0080886
-0.00975864
-0.00941101
-0.00907007
-0.00873578
-0.00840811
-0.0100811
-0.00973112
-0.00938781
-0.00905109
-0.00872095
-0.0103959
-0.0100438
-0.00969823
-0.00935921
-0.0090267
-0.010703
-0.0103488
-0.010001
-0.00965983
-0.00932507
-0.0110021
-0.0106459
-0.0102961
-0.00995279
-0.00961588
-0.0112933
-0.0109351
-0.0105834
-0.010238
-0.00989906
-0.0115764
-0.0112164
-0.0108628
-0.0105156
-0.0101746
-0.0118517
-0.01149
-0.0111346
-0.0107855
-0.0104426
-0.0121193
-0.0117559
-0.0113987
-0.0110479
-0.0107032
-0.0123793
-0.0120143
-0.0116555
-0.0113029
-0.0109565
-0.012632
-0.0122655
-0.011905
-0.0115508
-0.0112027
-0.0128776
-0.0125095
-0.0121475
-0.0117917
-0.0114419
-0.0131162
-0.0127467
-0.0123832
-0.0120258
-0.0116744
-0.0133481
-0.0129771
-0.0126122
-0.0122533
-0.0119003
-0.0135734
-0.0132011
-0.0128347
-0.0124743
-0.0121198
-0.0137923
-0.0134186
-0.0130509
-0.012689
-0.0123331
-0.0140049
-0.0136299
-0.0132608
-0.0128976
-0.0125402
-0.0142113
-0.0138351
-0.0134647
-0.0131001
-0.0127413
-0.0144117
-0.0140342
-0.0136625
-0.0132966
-0.0129364
-0.0146061
-0.0142274
-0.0138544
-0.0134872
-0.0131257
-0.0147945
-0.0144146
-0.0140405
-0.013672
-0.0133092
-0.014977
-0.0145961
-0.0142207
-0.013851
-0.013487
-0.0151537
-0.0147716
-0.0143952
-0.0140243
-0.013659
-0.0153245
-0.0149414
-0.0145638
-0.0141918
-0.0138253
-0.0154895
-0.0151053
-0.0147267
-0.0143535
-0.0139859
-0.0156486
-0.0152634
-0.0148837
-0.0145095
-0.0141407
-0.0158018
-0.0154157
-0.015035
-0.0146597
-0.0142899
-0.0159491
-0.0155621
-0.0151805
-0.0148042
-0.0144333
-0.0160905
-0.0157026
-0.0153201
-0.0149428
-0.0145709
-0.016226
-0.0158372
-0.0154538
-0.0150757
-0.0147028
-0.0163554
-0.0159659
-0.0155816
-0.0152026
-0.0148288
-0.0164789
-0.0160886
-0.0157036
-0.0153237
-0.014949
-0.0165964
-0.0162054
-0.0158195
-0.0154389
-0.0150634
-0.0167078
-0.0163161
-0.0159295
-0.0155481
-0.0151718
-0.0168131
-0.0164208
-0.0160335
-0.0156514
-0.0152744
-0.0169123
-0.0165194
-0.0161315
-0.0157488
-0.015371
-0.0170054
-0.0166119
-0.0162235
-0.0158401
-0.0154617
-0.0170924
-0.0166984
-0.0163094
-0.0159254
-0.0155464
-0.0171732
-0.0167787
-0.0163892
-0.0160047
-0.0156251
-0.0172478
-0.0168529
-0.0164629
-0.0160779
-0.0156978
-0.0173163
-0.0169209
-0.0165305
-0.0161451
-0.0157645
-0.0173786
-0.0169828
-0.016592
-0.0162061
-0.0158251
-0.0174346
-0.0170386
-0.0166474
-0.0162612
-0.0158797
-0.0174845
-0.0170881
-0.0166967
-0.0163101
-0.0159283
-0.0175281
-0.0171315
-0.0167398
-0.0163529
-0.0159708
-0.0175655
-0.0171687
-0.0167767
-0.0163896
-0.0160073
-0.0175967
-0.0171997
-0.0168075
-0.0164202
-0.0160376
-0.0176216
-0.0172245
-0.0168322
-0.0164447
-0.016062
-0.0176403
-0.0172431
-0.0168507
-0.016463
-0.0160802
-0.0176528
-0.0172555
-0.016863
-0.0164753
-0.0160924
-0.017659
-0.0172617
-0.0168691
-0.0164814
-0.0160984
-0.00696818
-0.00732945
-0.00768433
-0.00803989
-0.00839537
-0.00874849
-0.00909786
-0.00944232
-0.0097809
-0.0101128
-0.0104375
-0.0107546
-0.0110637
-0.0113648
-0.0116577
-0.0119427
-0.0122197
-0.0124889
-0.0127505
-0.0130047
-0.0132518
-0.0134918
-0.0137251
-0.0139517
-0.0141719
-0.0143857
-0.0145934
-0.0147949
-0.0149905
-0.01518
-0.0153637
-0.0155414
-0.0157132
-0.0158792
-0.0160392
-0.0161933
-0.0163415
-0.0164838
-0.01662
-0.0167503
-0.0168745
-0.0169926
-0.0171046
-0.0172106
-0.0173103
-0.017404
-0.0174914
-0.0175727
-0.0176478
-0.0177166
-0.0177792
-0.0178356
-0.0178857
-0.0179296
-0.0179672
-0.0179985
-0.0180236
-0.0180424
-0.0180549
-0.0180612
-0.00663865
-0.0069971
-0.00734902
-0.00770154
-0.00805408
-0.00840437
-0.00875101
-0.00909286
-0.00942894
-0.00975848
-0.0100809
-0.0103958
-0.0107029
-0.011002
-0.0112931
-0.0115763
-0.0118516
-0.0121192
-0.0123792
-0.0126319
-0.0128775
-0.0131161
-0.013348
-0.0135733
-0.0137922
-0.0140048
-0.0142112
-0.0144116
-0.014606
-0.0147944
-0.014977
-0.0151537
-0.0153245
-0.0154894
-0.0156485
-0.0158018
-0.0159491
-0.0160905
-0.0162259
-0.0163554
-0.0164789
-0.0165963
-0.0167077
-0.0168131
-0.0169123
-0.0170054
-0.0170924
-0.0171732
-0.0172478
-0.0173163
-0.0173785
-0.0174346
-0.0174844
-0.0175281
-0.0175655
-0.0175966
-0.0176216
-0.0176403
-0.0176528
-0.017659
-0.00631634
-0.00667189
-0.00702078
-0.0073702
-0.00771975
-0.00806716
-0.00841103
-0.00875021
-0.00908374
-0.00941085
-0.00973095
-0.0100436
-0.0103486
-0.0106457
-0.0109349
-0.0112163
-0.0114898
-0.0117557
-0.0120142
-0.0122653
-0.0125094
-0.0127466
-0.012977
-0.0132009
-0.0134185
-0.0136298
-0.013835
-0.0140341
-0.0142273
-0.0144146
-0.014596
-0.0147716
-0.0149413
-0.0151052
-0.0152634
-0.0154156
-0.015562
-0.0157026
-0.0158372
-0.0159659
-0.0160886
-0.0162053
-0.016316
-0.0164207
-0.0165194
-0.0166119
-0.0166983
-0.0167787
-0.0168529
-0.0169209
-0.0169828
-0.0170385
-0.0170881
-0.0171315
-0.0171687
-0.0171997
-0.0172245
-0.0172431
-0.0172555
-0.0172617
-0.00600121
-0.00635377
-0.00669958
-0.00704586
-0.00739237
-0.00773684
-0.00807788
-0.00841435
-0.00874528
-0.0090699
-0.00938764
-0.00969806
-0.0100009
-0.010296
-0.0105832
-0.0108627
-0.0111344
-0.0113986
-0.0116554
-0.0119049
-0.0121474
-0.0123831
-0.0126121
-0.0128346
-0.0130507
-0.0132607
-0.0134646
-0.0136624
-0.0138543
-0.0140404
-0.0142206
-0.0143951
-0.0145637
-0.0147266
-0.0148837
-0.0150349
-0.0151804
-0.01532
-0.0154537
-0.0155816
-0.0157035
-0.0158195
-0.0159295
-0.0160335
-0.0161315
-0.0162235
-0.0163093
-0.0163892
-0.0164629
-0.0165305
-0.016592
-0.0166474
-0.0166966
-0.0167397
-0.0167767
-0.0168075
-0.0168321
-0.0168506
-0.016863
-0.0168691
-0.00569317
-0.0060427
-0.00638538
-0.00672846
-0.00707189
-0.00741338
-0.00775154
-0.00808524
-0.00841352
-0.00873561
-0.00905093
-0.00935904
-0.00965966
-0.00995263
-0.0102379
-0.0105154
-0.0107853
-0.0110477
-0.0113028
-0.0115507
-0.0117916
-0.0120257
-0.0122532
-0.0124742
-0.0126889
-0.0128975
-0.0131
-0.0132965
-0.0134871
-0.0136719
-0.013851
-0.0140242
-0.0141917
-0.0143535
-0.0145094
-0.0146597
-0.0148041
-0.0149428
-0.0150756
-0.0152026
-0.0153237
-0.0154388
-0.0155481
-0.0156514
-0.0157487
-0.01584
-0.0159254
-0.0160046
-0.0160779
-0.016145
-0.0162061
-0.0162611
-0.01631
-0.0163528
-0.0163896
-0.0164202
-0.0164446
-0.016463
-0.0164753
-0.0164814
-0.00539213
-0.00573862
-0.00607814
-0.00641798
-0.00675828
-0.00709674
-0.00743197
-0.00776285
-0.00808843
-0.00840794
-0.00872078
-0.00902654
-0.00932491
-0.00961572
-0.0098989
-0.0101745
-0.0104425
-0.010703
-0.0109563
-0.0112025
-0.0114418
-0.00673923
-0.00641382
-0.00609567
-0.00578472
-0.00548083
-0.00655248
-0.00623021
-0.00591522
-0.00560742
-0.00530664
-0.00637475
-0.00605497
-0.00574249
-0.0054372
-0.00513889
-0.00620748
-0.00588996
-0.00557977
-0.00527676
-0.00498069
-0.00604325
-0.00572801
-0.00542012
-0.0051194
-0.0048256
-0.00588142
-0.00556847
-0.00526288
-0.00496446
-0.0046729
-0.00572287
-0.00541218
-0.00510888
-0.00481272
-0.00452337
-0.00556806
-0.00525959
-0.00495854
-0.00466461
-0.00437742
-0.00541719
-0.00511095
-0.00481211
-0.00452038
-0.00423525
-0.00558235
-0.00527064
-0.00496657
-0.00466987
-0.00438023
-0.00409712
-0.00543826
-0.00512866
-0.0048267
-0.00453207
-0.00424447
-0.00396329
-0.00529907
-0.00499157
-0.00469165
-0.00439897
-0.00411327
-0.00516511
-0.00485962
-0.00456162
-0.00427082
-0.00398696
-0.00503665
-0.00473307
-0.00443691
-0.00414792
-0.00386585
-0.00491397
-0.00461221
-0.00431781
-0.00403057
-0.00375022
-0.00479735
-0.00449731
-0.00420461
-0.00391904
-0.00364035
-0.00468707
-0.00438866
-0.00409756
-0.00381359
-0.00353649
-0.0045834
-0.00428652
-0.00399694
-0.00371448
-0.00343888
-0.0044866
-0.00419115
-0.003903
-0.00362195
-0.00334777
-0.0043969
-0.00410279
-0.00381596
-0.00353624
-0.00326337
-0.00431456
-0.00402167
-0.00373607
-0.00345757
-0.00318591
-0.00423978
-0.003948
-0.00366352
-0.00338613
-0.00311559
-0.00417277
-0.00388199
-0.00359852
-0.00332214
-0.00305259
-0.0041137
-0.00382381
-0.00354124
-0.00326575
-0.00299708
-0.00406274
-0.00377363
-0.00349184
-0.00321712
-0.00294922
-0.00402002
-0.00373157
-0.00345046
-0.0031764
-0.00290913
-0.00398564
-0.00369775
-0.00341722
-0.00314368
-0.00287692
-0.00395975
-0.00367227
-0.00339219
-0.00311907
-0.0028527
-0.00394237
-0.00365523
-0.00337547
-0.00310262
-0.0028365
-0.00422858
-0.0039337
-0.00364669
-0.0033671
-0.00309439
-0.00282841
)
;

boundaryField
{
    inlet
    {
        type            zeroGradient;
    }
    outlet
    {
        type            fixedValue;
        value           nonuniform 0();
    }
    cylinder
    {
        type            zeroGradient;
    }
    top
    {
        type            symmetryPlane;
    }
    bottom
    {
        type            symmetryPlane;
    }
    defaultFaces
    {
        type            empty;
    }
    procBoundary52to51
    {
        type            processor;
        value           nonuniform List<scalar> 
185
(
-0.00453008
-0.00423734
-0.00423734
-0.00425483
-0.00428102
-0.00431581
-0.00435911
-0.00441081
-0.00447074
-0.00453874
-0.00461462
-0.00469819
-0.00478922
-0.00488746
-0.00499268
-0.00510459
-0.00522294
-0.00534744
-0.0054778
-0.00561374
-0.00575493
-0.00590107
-0.00573116
-0.00573116
-0.00588411
-0.00604107
-0.00620178
-0.00636584
-0.00653232
-0.00670184
-0.00688205
-0.00707198
-0.0069684
-0.0069684
-0.00732964
-0.00768451
-0.00804006
-0.00839553
-0.00874865
-0.00909802
-0.00944248
-0.00978106
-0.010113
-0.0104377
-0.0107547
-0.0110638
-0.0113649
-0.0116579
-0.0119428
-0.0122198
-0.012489
-0.0127506
-0.0130048
-0.0132519
-0.0134919
-0.0137252
-0.0139518
-0.014172
-0.0143858
-0.0145935
-0.014795
-0.0149906
-0.0151801
-0.0153637
-0.0155415
-0.0157133
-0.0158792
-0.0160393
-0.0161934
-0.0163416
-0.0164838
-0.0166201
-0.0167503
-0.0168745
-0.0169926
-0.0171047
-0.0172106
-0.0173104
-0.017404
-0.0174915
-0.0175727
-0.0176478
-0.0177166
-0.0177792
-0.0178356
-0.0178857
-0.0179296
-0.0179672
-0.0179985
-0.0180236
-0.0180424
-0.018055
-0.0180612
-0.0073049
-0.00766893
-0.00802673
-0.00838529
-0.00874365
-0.00909956
-0.00945161
-0.00979863
-0.0101397
-0.0104739
-0.0108008
-0.01112
-0.0114311
-0.0117341
-0.0120289
-0.0123155
-0.0125942
-0.012865
-0.0131281
-0.0133838
-0.0136322
-0.0138736
-0.0141082
-0.0143361
-0.0145576
-0.0147726
-0.0149815
-0.0151842
-0.0153808
-0.0155714
-0.0157561
-0.0159348
-0.0161076
-0.0162745
-0.0164355
-0.0165904
-0.0167395
-0.0168825
-0.0170195
-0.0171504
-0.0172753
-0.0173941
-0.0175067
-0.0176132
-0.0177135
-0.0178077
-0.0178956
-0.0179773
-0.0180527
-0.0181219
-0.0181848
-0.0182415
-0.0182919
-0.0183359
-0.0183737
-0.0184052
-0.0184304
-0.0184494
-0.018462
-0.0184683
-0.0070718
-0.00688188
-0.00670169
-0.00653218
-0.00636571
-0.00620167
-0.00604097
-0.00588402
-0.00573106
-0.00573106
-0.00590099
-0.00575486
-0.00561367
-0.00547773
-0.00534738
-0.00522289
-0.00510454
-0.00499263
-0.00488742
-0.00478918
-0.00469816
-0.0046146
-0.00453872
-0.00447072
-0.00441079
-0.00435911
-0.00431581
-0.00428103
-0.00425484
-0.00423736
-0.00423736
-0.0045301
)
;
    }
    procBoundary52to53
    {
        type            processor;
        value           nonuniform List<scalar> 
185
(
-0.00256904
-0.00257701
-0.00259297
-0.00261682
-0.00264853
-0.00268799
-0.00273511
-0.00278975
-0.00285176
-0.00292098
-0.00299723
-0.00308031
-0.00317
-0.00326609
-0.00336833
-0.00347649
-0.00359033
-0.00370962
-0.00383402
-0.00383402
-0.00368877
-0.00382065
-0.00395677
-0.00409689
-0.00424074
-0.0043881
-0.00453859
-0.00469149
-0.00484754
-0.00501294
-0.00501294
-0.0048938
-0.00509823
-0.00544166
-0.00577798
-0.00611455
-0.00645167
-0.00678705
-0.00711931
-0.00744732
-0.00777015
-0.00808702
-0.00839735
-0.00870069
-0.00899676
-0.00928536
-0.00956643
-0.00983996
-0.010106
-0.0103647
-0.0106162
-0.0108606
-0.0110982
-0.011329
-0.0115534
-0.0117713
-0.011983
-0.0121886
-0.0123883
-0.012582
-0.0127699
-0.0129521
-0.0131285
-0.0132992
-0.0134643
-0.0136236
-0.0137774
-0.0139254
-0.0140677
-0.0142043
-0.0143351
-0.0144602
-0.0145795
-0.014693
-0.0148006
-0.0149024
-0.0149983
-0.0150883
-0.0151723
-0.0152504
-0.0153226
-0.0153888
-0.015449
-0.0155032
-0.0155514
-0.0155936
-0.0156297
-0.0156599
-0.015684
-0.0157021
-0.0157142
-0.0157202
-0.0116743
-0.0119002
-0.0121197
-0.012333
-0.0125401
-0.0127412
-0.0129363
-0.0131256
-0.0133091
-0.0134869
-0.0136589
-0.0138252
-0.0139858
-0.0141407
-0.0142898
-0.0144332
-0.0145709
-0.0147027
-0.0148288
-0.014949
-0.0150633
-0.0151718
-0.0152744
-0.015371
-0.0154616
-0.0155463
-0.0156251
-0.0156978
-0.0157644
-0.0158251
-0.0158797
-0.0159283
-0.0159708
-0.0160072
-0.0160376
-0.0160619
-0.0160802
-0.0160923
-0.0160984
-0.0050981
-0.00518383
-0.00544152
-0.00577783
-0.00611439
-0.00645151
-0.00678689
-0.00711914
-0.00744715
-0.00776998
-0.00808685
-0.00839718
-0.00870052
-0.00899659
-0.0092852
-0.00956627
-0.0098398
-0.0101059
-0.0103646
-0.0106161
-0.0108605
-0.0116743
-0.011098
-0.00518383
-0.00501269
-0.00484737
-0.0046914
-0.00453853
-0.00438805
-0.00424069
-0.00409684
-0.00395672
-0.0038206
-0.00368872
-0.00383398
-0.00383398
-0.00370957
-0.00359029
-0.00347645
-0.00336829
-0.00326604
-0.00316996
-0.00308027
-0.0029972
-0.00292095
-0.00285174
-0.00278973
-0.00273509
-0.00268798
-0.00264851
-0.00261681
-0.00259295
-0.00257702
-0.00256903
)
;
    }
}


// ************************************************************************* //
