/*--------------------------------*- C++ -*----------------------------------*\
  =========                 |
  \\      /  F ield         | OpenFOAM: The Open Source CFD Toolbox
   \\    /   O peration     | Website:  https://openfoam.org
    \\  /    A nd           | Version:  7
     \\/     M anipulation  |
\*---------------------------------------------------------------------------*/
FoamFile
{
    version     2.0;
    format      ascii;
    class       volScalarField;
    location    "55";
    object      p;
}
// * * * * * * * * * * * * * * * * * * * * * * * * * * * * * * * * * * * * * //

dimensions      [0 2 -2 0 0 0 0];

internalField   nonuniform List<scalar> 
183
(
-0.469981
-0.462014
-0.480395
-0.47164
-0.464107
-0.456392
-0.447878
-0.491046
-0.481519
-0.4734
-0.465007
-0.455551
-0.444756
-0.432347
-0.418231
-0.402585
-0.501774
-0.491505
-0.482795
-0.473654
-0.463117
-0.450872
-0.436709
-0.420679
-0.403136
-0.384617
-0.365694
-0.34686
-0.328475
-0.456479
-0.440387
-0.422329
-0.402851
-0.382633
-0.362309
-0.342375
-0.323154
-0.304824
-0.287453
-0.271039
-0.255544
-0.337165
-0.317189
-0.298306
-0.280538
-0.26385
-0.248177
-0.233442
-0.219583
-0.206528
-0.194022
-0.198631
-0.186199
-0.215519
-0.203097
-0.191247
-0.357139
-0.33667
-0.317227
-0.298926
-0.28178
-0.265745
-0.250747
-0.236699
-0.22353
-0.21116
-0.199318
-0.466488
-0.452826
-0.437021
-0.419299
-0.400208
-0.380432
-0.360615
-0.341252
-0.322664
-0.305019
-0.288375
-0.27272
-0.258006
-0.496978
-0.486472
-0.477641
-0.468505
-0.458098
-0.446095
-0.43226
-0.416626
-0.399542
-0.381549
-0.363223
-0.345059
-0.485142
-0.475394
-0.46715
-0.458747
-0.44941
-0.438857
-0.426797
-0.41312
-0.473424
-0.464469
-0.456807
-0.449064
-0.440644
-0.461988
-0.453845
-0.166781
-0.13411
-0.107538
-0.0897277
-0.0738044
-0.0623485
-0.0523239
-0.0441634
-0.0374947
-0.0319619
-0.0271355
-0.0228109
-0.0192981
-0.0161567
-0.0137337
-0.0116419
-0.00982875
-0.0083747
-0.00731221
-0.00688181
-0.00627064
-0.159808
-0.1287
-0.103057
-0.0860626
-0.0706923
-0.0597473
-0.050091
-0.0422056
-0.0357984
-0.0304959
-0.0258277
-0.0216029
-0.0181821
-0.166268
-0.136804
-0.111605
-0.0946272
-0.0788662
-0.0671109
-0.0562417
-0.0478279
-0.0404794
-0.0340594
-0.0290697
-0.0246532
-0.021108
-0.0184318
-0.0159228
-0.0140038
-0.0122362
-0.0111432
-0.010383
-0.00974081
-0.00931543
-0.173668
-0.142734
-0.116558
-0.0986939
-0.0822982
-0.0700092
-0.0587601
-0.0499946
-0.0423712
-0.0357505
-0.03056
-0.0259897
-0.0222988
-0.0194749
-0.0168686
-0.014881
-0.0130721
-0.0119169
-0.0110984
-0.0104411
-0.010025
)
;

boundaryField
{
    inlet
    {
        type            zeroGradient;
    }
    outlet
    {
        type            fixedValue;
        value           nonuniform 0();
    }
    cylinder
    {
        type            zeroGradient;
    }
    top
    {
        type            symmetryPlane;
    }
    bottom
    {
        type            symmetryPlane;
    }
    defaultFaces
    {
        type            empty;
    }
    procBoundary19to18
    {
        type            processor;
        value           nonuniform List<scalar> 
91
(
-0.512392
-0.501425
-0.492113
-0.482138
-0.470364
-0.470364
-0.461347
-0.443178
-0.423017
-0.401609
-0.379749
-0.35811
-0.35811
-0.331165
-0.310516
-0.291148
-0.273038
-0.256122
-0.240309
-0.225509
-0.211651
-0.211651
-0.190295
-0.177982
-0.207054
-0.194622
-0.18282
-0.352726
-0.331251
-0.311041
-0.29216
-0.274576
-0.258216
-0.242983
-0.228777
-0.228777
-0.474333
-0.458808
-0.440868
-0.420971
-0.399866
-0.378362
-0.378362
-0.508738
-0.497521
-0.488093
-0.478132
-0.478132
-0.0151126
-0.0127743
-0.0107446
-0.00895825
-0.00751218
-0.00648123
-0.00609371
-0.00545657
-0.152576
-0.12311
-0.0984589
-0.0823163
-0.0675248
-0.0571016
-0.0478266
-0.0402189
-0.0340794
-0.0290146
-0.0245087
-0.0203813
-0.0151126
-0.0170491
-0.158672
-0.130755
-0.106582
-0.0905148
-0.0754109
-0.0641875
-0.0537025
-0.0456376
-0.0385649
-0.0323443
-0.0275534
-0.0232914
-0.0198942
-0.0173717
-0.014963
-0.0131103
-0.011381
-0.010353
-0.00965625
-0.00902824
-0.0085886
)
;
    }
    procBoundary19to20
    {
        type            processor;
        value           nonuniform List<scalar> 
94
(
-0.459933
-0.452755
-0.455061
-0.455061
-0.44797
-0.440277
-0.438344
-0.438344
-0.4275
-0.415154
-0.401329
-0.385794
-0.385794
-0.368338
-0.350685
-0.333211
-0.310764
-0.310764
-0.293841
-0.277743
-0.26246
-0.240909
-0.240909
-0.227081
-0.214016
-0.201474
-0.244163
-0.231126
-0.218844
-0.207059
-0.32741
-0.310494
-0.294413
-0.279192
-0.244163
-0.264808
-0.397993
-0.381803
-0.365033
-0.32741
-0.348147
-0.431337
-0.420841
-0.397993
-0.408954
-0.446763
-0.439622
-0.431337
-0.431993
-0.450966
-0.446763
-0.443641
-0.173496
-0.139351
-0.11191
-0.0933159
-0.0768641
-0.0649077
-0.054527
-0.0460934
-0.0391692
-0.0334132
-0.0284315
-0.0240045
-0.020397
-0.0171835
-0.0146784
-0.0125267
-0.0106844
-0.00921863
-0.00812665
-0.00765649
-0.00706678
-0.180883
-0.148562
-0.121452
-0.102721
-0.0857108
-0.0728848
-0.061258
-0.052139
-0.0442415
-0.0374179
-0.032025
-0.0273016
-0.0234672
-0.0205003
-0.0177993
-0.0157411
-0.013889
-0.012674
-0.0118011
-0.0111282
-0.0107176
)
;
    }
}


// ************************************************************************* //
