/*--------------------------------*- C++ -*----------------------------------*\
  =========                 |
  \\      /  F ield         | OpenFOAM: The Open Source CFD Toolbox
   \\    /   O peration     | Website:  https://openfoam.org
    \\  /    A nd           | Version:  7
     \\/     M anipulation  |
\*---------------------------------------------------------------------------*/
FoamFile
{
    version     2.0;
    format      ascii;
    class       volVectorField;
    location    "55";
    object      U;
}
// * * * * * * * * * * * * * * * * * * * * * * * * * * * * * * * * * * * * * //

dimensions      [0 1 -1 0 0 0 0];

internalField   nonuniform List<vector> 
183
(
(0.0173632 -0.00370431 3.81364e-20)
(0.082788 -0.0114484 -3.8504e-20)
(0.0240254 -0.00460799 -3.4305e-20)
(0.103495 -0.0123068 1.28881e-19)
(0.213647 -0.00941204 2.05389e-19)
(0.348286 0.00200483 -6.94754e-20)
(0.499606 0.0210782 -1.47751e-19)
(0.031565 -0.00520103 1.08091e-19)
(0.12627 -0.0121004 4.44577e-20)
(0.251393 -0.00608792 -4.00685e-20)
(0.399423 0.00978296 1.63301e-19)
(0.560837 0.0337747 2.06193e-19)
(0.724099 0.0634448 -2.82027e-19)
(0.877313 0.0953541 -1.01586e-19)
(1.01057 0.12593 2.20951e-19)
(1.11777 0.152291 -2.41927e-19)
(0.0399719 -0.00539552 -2.19133e-19)
(0.150975 -0.0106241 1.07679e-19)
(0.291359 -0.000682889 -1.82217e-19)
(0.45218 0.0202298 6.43505e-20)
(0.622173 0.0493502 1.10234e-19)
(0.788472 0.0832752 8.55107e-20)
(0.9389 0.117863 -1.84775e-20)
(1.06452 0.149305 -1.31686e-19)
(1.16109 0.174949 1.96844e-19)
(1.22897 0.193595 1.81737e-20)
(1.27189 0.205339 -1.43411e-19)
(1.29529 0.211141 6.86285e-21)
(1.30482 0.212353 1.29314e-19)
(0.849755 0.105548 -2.18359e-20)
(0.995307 0.142113 -8.78651e-21)
(1.11185 0.17364 2.56693e-19)
(1.19727 0.197903 -3.00028e-20)
(1.25393 0.214322 -1.40051e-19)
(1.28703 0.223579 1.09463e-21)
(1.3027 0.227052 2.44695e-20)
(1.3067 0.226306 -8.60836e-20)
(1.30365 0.222752 -4.58698e-21)
(1.29686 0.217486 -9.41082e-20)
(1.28845 0.21127 -1.36535e-19)
(1.27965 0.204589 -8.09455e-20)
(1.30625 0.242642 7.15585e-20)
(1.30581 0.240028 -1.97264e-20)
(1.3 0.235037 1.57875e-20)
(1.29163 0.228685 1.24418e-20)
(1.2824 0.221634 -1.75165e-21)
(1.27325 0.214289 -2.47212e-21)
(1.26461 0.206888 -7.29432e-20)
(1.25657 0.199523 -6.47532e-20)
(1.24908 0.192207 5.42679e-20)
(1.24185 0.185712 -4.3267e-20)
(1.2422 0.200359 2.82881e-20)
(1.23501 0.193549 6.69007e-21)
(1.26606 -0.210508 -1.67332e-21)
(1.25855 -0.202153 3.58314e-20)
(1.25121 -0.194721 -8.59785e-22)
(1.31375 -0.247529 1.42184e-19)
(1.3229 -0.248384 -9.92266e-20)
(1.32245 -0.245417 1.13221e-19)
(1.31667 -0.240046 -4.23333e-20)
(1.30838 -0.233284 1.06672e-19)
(1.29927 -0.225787 4.92112e-20)
(1.29022 -0.217946 2.89075e-20)
(1.28164 -0.209997 7.40012e-20)
(1.27362 -0.202028 2.58544e-20)
(1.26606 -0.194055 -6.46419e-20)
(1.25872 -0.186886 3.84587e-20)
(0.687131 -0.0717973 1.93999e-19)
(0.858178 -0.110591 -1.29028e-19)
(1.00709 -0.147965 2.19254e-19)
(1.1261 -0.180014 1.41652e-20)
(1.21306 -0.204499 1.93403e-19)
(1.27052 -0.220893 -9.06874e-20)
(1.30394 -0.229951 -2.27619e-19)
(1.3197 -0.233119 -7.12914e-20)
(1.32372 -0.232012 3.37291e-20)
(1.32073 -0.228061 -4.41563e-20)
(1.31405 -0.222364 -9.53109e-20)
(1.30579 -0.215676 3.14095e-20)
(1.29714 -0.208471 5.55056e-20)
(0.0375206 0.00482769 -2.57622e-21)
(0.14684 0.00929013 -5.19066e-21)
(0.288032 -0.00148834 3.38064e-20)
(0.451475 -0.0233301 -1.19963e-19)
(0.625173 -0.053454 1.1928e-19)
(0.795492 -0.0883672 2.01141e-19)
(0.949582 -0.123799 -3.11512e-20)
(1.07807 -0.155839 -1.5499e-19)
(1.17658 -0.181794 3.09609e-20)
(1.24558 -0.200491 8.84235e-20)
(1.28904 -0.212084 1.96556e-19)
(1.31265 -0.217604 8.93016e-20)
(0.0289643 0.00451122 2.28041e-19)
(0.121591 0.0105239 -9.60787e-20)
(0.247091 0.00366715 8.51068e-20)
(0.39737 -0.0130773 -1.11039e-19)
(0.562272 -0.0380046 4.71087e-21)
(0.729567 -0.0686265 1.76363e-20)
(0.886683 -0.101399 -6.03178e-20)
(1.0232 -0.132641 -2.01576e-19)
(0.0213066 0.00379148 -7.47254e-20)
(0.098343 0.0104658 2.10828e-19)
(0.208449 0.00670188 -1.01399e-19)
(0.344927 -0.00554554 -3.08006e-20)
(0.499445 -0.0254873 -1.96572e-19)
(0.0145582 0.00275992 -4.42295e-20)
(0.0772395 0.00933053 -3.48275e-19)
(1.22275 0.165478 1.13887e-20)
(1.18919 0.150233 -5.11493e-21)
(1.1726 0.124274 -2.45343e-21)
(1.15704 0.113672 1.72698e-21)
(1.14496 0.0974237 -2.53065e-21)
(1.13569 0.0869781 1.17257e-21)
(1.12648 0.0767327 1.87259e-21)
(1.11825 0.0676546 -1.14929e-21)
(1.11204 0.0596018 2.97082e-22)
(1.10643 0.0526444 -1.19005e-21)
(1.10066 0.0464827 -8.15183e-22)
(1.09499 0.0408087 -2.72265e-22)
(1.09008 0.0351741 -8.97798e-22)
(1.0863 0.0306426 -3.0737e-22)
(1.0828 0.0254549 -1.92419e-22)
(1.08045 0.021726 -2.17604e-22)
(1.07674 0.0173092 1.02357e-22)
(1.07511 0.0134411 2.03288e-22)
(1.07306 0.00944912 -1.41441e-22)
(1.07324 0.0052919 2.03023e-22)
(1.07147 0.00263077 7.2479e-23)
(1.2162 0.170693 -3.80064e-21)
(1.18379 0.154628 5.90039e-21)
(1.16842 0.12718 -2.77735e-21)
(1.15344 0.116157 -2.29508e-22)
(1.14189 0.0992536 -3.79386e-22)
(1.13307 0.0885031 8.32385e-22)
(1.12415 0.0780286 6.97897e-22)
(1.11618 0.0687191 -9.1224e-22)
(1.11024 0.0604876 5.25301e-22)
(1.10485 0.0534225 6.60636e-22)
(1.09922 0.0471991 7.53991e-22)
(1.09366 0.0414381 -4.05245e-23)
(1.08886 0.0357037 1.02734e-21)
(1.23187 -0.170184 5.76305e-21)
(1.19895 -0.152096 -3.70305e-21)
(1.18227 -0.123062 -1.5757e-21)
(1.16435 -0.110591 2.14107e-21)
(1.15151 -0.0932122 1.4664e-22)
(1.139 -0.0824642 -9.23121e-23)
(1.12805 -0.0717247 -9.84186e-22)
(1.11905 -0.0620232 -4.84163e-23)
(1.11166 -0.0551436 1.7335e-22)
(1.10292 -0.0475169 -3.62015e-22)
(1.09813 -0.0411522 3.45149e-22)
(1.09143 -0.0361945 -3.85589e-23)
(1.0877 -0.0300763 -3.58481e-22)
(1.08357 -0.0264307 -2.46927e-22)
(1.08048 -0.0216942 2.09333e-22)
(1.07698 -0.0184131 -1.39887e-22)
(1.0743 -0.0144362 1.72236e-22)
(1.07271 -0.0109782 1.45233e-23)
(1.07211 -0.0077066 -1.53275e-22)
(1.07087 -0.00488837 7.93327e-23)
(1.0697 -0.00156504 1.94499e-23)
(1.23909 -0.164867 -1.35377e-20)
(1.2049 -0.147381 2.82449e-21)
(1.18685 -0.119676 3.00965e-21)
(1.16821 -0.107598 3.80768e-22)
(1.15468 -0.0908324 3.08465e-21)
(1.14172 -0.0803799 -2.15917e-21)
(1.1304 -0.0699785 -1.90862e-21)
(1.12106 -0.0606003 1.46541e-21)
(1.1134 -0.0538664 -1.83347e-22)
(1.10453 -0.0464996 9.60788e-22)
(1.09949 -0.0403128 -2.78258e-22)
(1.09272 -0.0354731 3.95863e-22)
(1.08881 -0.0295566 2.04419e-22)
(1.08457 -0.0259646 4.4324e-22)
(1.08138 -0.0213284 -2.01129e-22)
(1.07784 -0.0180897 -8.24969e-23)
(1.07511 -0.0142026 -6.29147e-22)
(1.07347 -0.0108283 -5.69916e-22)
(1.0728 -0.00759651 2.30629e-22)
(1.07156 -0.00479467 -5.55357e-22)
(1.07041 -0.00153355 -4.8589e-22)
)
;

boundaryField
{
    inlet
    {
        type            uniformFixedValue;
        uniformValue    constant (1 0 0);
        value           nonuniform 0();
    }
    outlet
    {
        type            pressureInletOutletVelocity;
        value           nonuniform 0();
    }
    cylinder
    {
        type            fixedValue;
        value           uniform (0 0 0);
    }
    top
    {
        type            symmetryPlane;
    }
    bottom
    {
        type            symmetryPlane;
    }
    defaultFaces
    {
        type            empty;
    }
    procBoundary19to18
    {
        type            processor;
        value           nonuniform List<vector> 
91
(
(0.0492129 -0.00510174 5.10094e-20)
(0.177413 -0.007682 3.6718e-21)
(0.333091 0.00700565 1.01979e-19)
(0.505801 0.0334601 -6.33941e-20)
(0.682629 0.0677638 -6.48999e-20)
(0.682629 0.0677638 -6.48999e-20)
(0.90708 0.130011 6.26999e-20)
(1.04598 0.167792 -1.59031e-19)
(1.15247 0.198652 7.39737e-20)
(1.22665 0.22096 -1.77907e-20)
(1.27276 0.234821 -1.05254e-20)
(1.29711 0.241474 -5.44726e-20)
(1.29711 0.241474 -5.44726e-20)
(1.30658 0.257965 3.31212e-20)
(1.30265 0.253578 -6.16342e-21)
(1.29476 0.247231 2.51209e-20)
(1.28528 0.239842 -3.53873e-20)
(1.27554 0.231976 -6.43669e-20)
(1.26621 0.223963 -1.99653e-20)
(1.25756 0.215989 4.27205e-20)
(1.24961 0.208103 -4.72717e-20)
(1.24961 0.208103 -4.72717e-20)
(1.23485 0.208397 -1.12895e-20)
(1.22771 0.201219 -1.17139e-20)
(1.25802 -0.218931 1.84305e-20)
(1.25061 -0.210176 -1.92968e-20)
(1.2433 -0.202423 2.70557e-21)
(1.31921 -0.26484 4.53326e-20)
(1.3229 -0.263447 -9.53275e-20)
(1.31893 -0.258717 4.90134e-21)
(1.31106 -0.252008 -5.36515e-20)
(1.30164 -0.24423 2.61475e-20)
(1.29197 -0.235938 1.7745e-20)
(1.28269 -0.227454 1.9484e-20)
(1.27405 -0.218962 1.64081e-21)
(1.27405 -0.218962 1.64081e-21)
(0.747169 -0.0929204 -1.45347e-19)
(0.916742 -0.135043 7.9871e-21)
(1.05867 -0.173584 8.91923e-20)
(1.16723 -0.204886 -3.93687e-20)
(1.24259 -0.227336 1.02329e-20)
(1.28924 -0.24111 3.32366e-20)
(1.28924 -0.24111 3.32366e-20)
(0.0469409 0.00464797 4.89594e-20)
(0.173884 0.0065607 1.61431e-19)
(0.330796 -0.00897666 8.06758e-20)
(0.506459 -0.0364258 1.23481e-20)
(0.506459 -0.0364258 1.23481e-20)
(1.08518 0.0311109 3.38884e-22)
(1.08175 0.0258194 -1.67843e-22)
(1.0795 0.0220692 1.06428e-22)
(1.07578 0.0175902 -1.29126e-22)
(1.0742 0.013663 -1.57127e-23)
(1.07217 0.00957429 9.3247e-23)
(1.07243 0.00536615 -5.18543e-23)
(1.07059 0.00271579 -1.90607e-23)
(1.20938 0.175717 6.9625e-22)
(1.17823 0.158951 -3.92777e-21)
(1.16414 0.130037 2.37836e-21)
(1.14978 0.118614 -1.37155e-21)
(1.13877 0.101068 -1.51828e-21)
(1.13042 0.0900112 4.52217e-22)
(1.12181 0.0793221 1.17494e-21)
(1.11409 0.0697785 -3.79328e-22)
(1.10843 0.0613623 -3.33793e-22)
(1.10327 0.0541926 6.08272e-22)
(1.09779 0.0479159 2.21593e-22)
(1.09232 0.0420705 -2.87144e-22)
(1.08518 0.0311109 3.38884e-22)
(1.08762 0.0362326 9.35329e-23)
(1.22445 -0.175338 -1.47663e-21)
(1.19291 -0.156734 3.5574e-21)
(1.17763 -0.126383 -3.77331e-21)
(1.16044 -0.113532 -2.4731e-22)
(1.14832 -0.0955606 8.68331e-22)
(1.13627 -0.0845257 -8.93945e-22)
(1.12569 -0.0734579 -1.50536e-21)
(1.11703 -0.0634295 1.46344e-22)
(1.1099 -0.0564152 -1.26715e-23)
(1.10129 -0.0485289 -1.31982e-21)
(1.09674 -0.0419837 -5.60036e-22)
(1.09012 -0.0369114 -1.34643e-22)
(1.08658 -0.0305845 -3.64861e-22)
(1.08255 -0.0268884 -5.19917e-22)
(1.07957 -0.0220565 -1.39007e-22)
(1.07611 -0.0187372 -2.52878e-22)
(1.07346 -0.0146683 3.28842e-23)
(1.07194 -0.0111218 -2.8743e-22)
(1.07141 -0.00781359 -2.30139e-22)
(1.07018 -0.00498536 8.44365e-24)
(1.06898 -0.0015992 -2.05222e-22)
)
;
    }
    procBoundary19to20
    {
        type            processor;
        value           nonuniform List<vector> 
94
(
(0.0115668 -0.00257318 1.48572e-19)
(0.0642211 -0.00973094 -4.39277e-20)
(0.178492 -0.0108911 3.07011e-19)
(0.178492 -0.0108911 3.07011e-19)
(0.299448 -0.00328068 -1.34809e-20)
(0.43946 0.0112252 -2.19949e-19)
(0.657654 0.0462609 1.26034e-19)
(0.657654 0.0462609 1.26034e-19)
(0.811328 0.0748931 -4.64462e-20)
(0.950336 0.103829 -2.78796e-20)
(1.06714 0.130171 3.56426e-19)
(1.19721 0.172724 -7.59439e-20)
(1.19721 0.172724 -7.59439e-20)
(1.25091 0.186747 -9.59864e-20)
(1.28326 0.194853 -6.11507e-20)
(1.29954 0.198096 -6.5553e-21)
(1.3054 0.210333 -6.12342e-20)
(1.3054 0.210333 -6.12342e-20)
(1.3008 0.206226 7.61401e-20)
(1.29358 0.200882 -9.41325e-20)
(1.28537 0.194875 3.19327e-20)
(1.2711 0.197742 -1.58089e-19)
(1.2711 0.197742 -1.58089e-19)
(1.26305 0.190875 -4.03389e-20)
(1.25549 0.183974 2.98483e-20)
(1.24826 0.177741 1.33283e-20)
(1.28871 -0.201042 5.5674e-20)
(1.28073 -0.19353 3.46677e-20)
(1.27316 -0.185922 -5.25639e-20)
(1.26586 -0.178956 -1.70598e-20)
(1.32226 -0.218454 -9.63541e-20)
(1.32293 -0.216021 -5.50042e-21)
(1.31846 -0.211459 -8.70015e-21)
(1.31143 -0.205615 8.63656e-20)
(1.28871 -0.201042 5.5674e-20)
(1.30342 -0.199052 8.1187e-20)
(1.13278 -0.159407 2.19979e-20)
(1.21372 -0.179981 -1.13935e-20)
(1.26824 -0.193923 6.00038e-20)
(1.32226 -0.218454 -9.63541e-20)
(1.30097 -0.201784 4.94002e-20)
(0.661442 -0.051574 -1.96992e-20)
(0.819175 -0.0810718 5.44019e-20)
(1.13278 -0.159407 2.19979e-20)
(0.961799 -0.110733 1.5989e-19)
(0.17249 0.00786471 -4.09062e-19)
(0.294855 -0.000546528 1.29581e-19)
(0.661442 -0.051574 -1.96992e-20)
(0.437706 -0.0158592 -2.64327e-19)
(0.0087088 0.00150392 -3.25629e-19)
(0.17249 0.00786471 -4.09062e-19)
(0.0583596 0.00733587 8.19614e-21)
(1.22902 0.16008 -6.93654e-21)
(1.19446 0.145773 -5.19113e-21)
(1.17668 0.121323 1.26628e-20)
(1.16056 0.111162 -6.20356e-21)
(1.14799 0.0955797 6.29834e-21)
(1.13828 0.0854383 -2.90794e-21)
(1.12879 0.0754351 -1.78194e-21)
(1.12031 0.0665855 -3.18613e-22)
(1.11382 0.0587063 -1.84461e-21)
(1.108 0.0518596 -8.86948e-23)
(1.1021 0.0457666 -7.27952e-22)
(1.09632 0.0401815 -3.08272e-22)
(1.0913 0.0346435 -7.01989e-22)
(1.08742 0.030173 -1.85795e-22)
(1.08384 0.025087 -6.37016e-22)
(1.0814 0.0213829 -7.29252e-23)
(1.07768 0.0170319 1.29772e-22)
(1.076 0.0132208 3.23057e-22)
(1.07395 0.00932038 -3.34755e-22)
(1.07404 0.00521778 2.66399e-22)
(1.07232 0.00255125 8.66554e-23)
(1.24611 -0.1594 7.26067e-21)
(1.21076 -0.142597 5.66145e-21)
(1.19138 -0.116225 -8.77275e-21)
(1.17203 -0.104556 4.85746e-21)
(1.15783 -0.0884212 -5.08064e-21)
(1.14441 -0.0782724 -4.01443e-22)
(1.13272 -0.0682186 1.27188e-21)
(1.12304 -0.0591608 3.50199e-22)
(1.11513 -0.0525832 -1.60784e-22)
(1.10612 -0.0454763 -3.54901e-22)
(1.10083 -0.0394653 1.95562e-22)
(1.09398 -0.0347472 -1.2069e-21)
(1.08991 -0.0290264 3.43111e-22)
(1.08556 -0.0254912 -2.92917e-23)
(1.08227 -0.0209592 1.97397e-22)
(1.07868 -0.0177664 -2.89235e-22)
(1.07592 -0.0139674 -2.92932e-22)
(1.07421 -0.0106727 -4.62498e-22)
(1.07348 -0.0074837 -4.31962e-23)
(1.07224 -0.00470364 -4.04422e-22)
(1.0711 -0.0015042 -4.91079e-22)
)
;
    }
}


// ************************************************************************* //
