/*--------------------------------*- C++ -*----------------------------------*\
  =========                 |
  \\      /  F ield         | OpenFOAM: The Open Source CFD Toolbox
   \\    /   O peration     | Website:  https://openfoam.org
    \\  /    A nd           | Version:  7
     \\/     M anipulation  |
\*---------------------------------------------------------------------------*/
FoamFile
{
    version     2.0;
    format      ascii;
    class       volVectorField;
    location    "55";
    object      U;
}
// * * * * * * * * * * * * * * * * * * * * * * * * * * * * * * * * * * * * * //

dimensions      [0 1 -1 0 0 0 0];

internalField   nonuniform List<vector> 
183
(
(0.910475 -0.498172 -1.47331e-22)
(0.922109 -0.392353 -8.291e-23)
(0.916661 -0.497417 -1.17331e-22)
(0.926271 -0.394938 5.14735e-22)
(0.922695 -0.496457 9.51148e-22)
(0.930059 -0.397542 -1.29836e-21)
(0.928578 -0.495267 -6.55691e-22)
(0.933481 -0.400142 7.81609e-22)
(0.934311 -0.493824 -8.25623e-22)
(0.936551 -0.402715 5.3055e-22)
(0.939895 -0.492109 -1.31317e-21)
(0.939292 -0.405234 -1.82466e-21)
(0.945331 -0.490107 4.455e-21)
(0.941729 -0.407672 -8.84468e-22)
(0.95062 -0.487806 -1.72841e-21)
(0.943895 -0.410005 1.0516e-21)
(0.955764 -0.485198 2.2754e-21)
(0.945823 -0.412206 -5.07979e-21)
(0.960764 -0.482279 4.02079e-22)
(0.947552 -0.41425 1.31433e-21)
(0.96562 -0.479046 3.20364e-21)
(0.949116 -0.416115 -1.5776e-21)
(0.970331 -0.475503 -4.88298e-21)
(0.95055 -0.417779 -1.07858e-21)
(0.974895 -0.471653 2.50858e-21)
(0.951885 -0.419225 -7.92981e-22)
(0.979306 -0.467502 -2.53375e-21)
(0.953145 -0.420434 7.96076e-22)
(0.983562 -0.463059 1.42726e-21)
(0.954348 -0.421389 5.4166e-21)
(0.98766 -0.458334 -3.12872e-21)
(0.955504 -0.422084 -3.42261e-21)
(0.991599 -0.453331 1.54397e-21)
(0.956619 -0.422538 -3.30507e-22)
(0.995378 -0.448049 1.72395e-22)
(0.957696 -0.422759 -2.61686e-21)
(0.999003 -0.442511 -1.95703e-21)
(0.958729 -0.422652 1.30001e-21)
(1.0025 -0.436775 -1.31227e-22)
(0.959716 -0.42201 -1.14778e-21)
(1.00593 -0.430811 -2.48498e-21)
(0.960669 -0.420939 2.18949e-21)
(0.963566 -0.417869 0)
(0.928358 -0.277781 0)
(0.955418 -0.384489 0)
(0.916288 -0.239099 0)
(0.944371 -0.364419 0)
(0.896927 -0.227365 0)
(0.932902 -0.326855 0)
(0.872256 -0.196704 0)
(0.922821 -0.289492 0)
(0.844613 -0.169793 0)
(0.917434 -0.243044 0)
(0.819889 -0.13293 0)
(0.916928 -0.194971 0)
(0.807595 -0.0913135 0)
(0.921421 -0.147909 0)
(0.815619 -0.0463297 0)
(0.927789 -0.106489 0)
(0.840913 -0.00749829 0)
(0.936694 -0.0726565 0)
(0.874193 0.0191027 0)
(0.948971 -0.0467358 0)
(0.908554 0.0320519 0)
(0.963904 -0.0280778 0)
(0.940398 0.0348903 0)
(0.979284 -0.0155636 0)
(0.967313 0.0324863 0)
(0.993108 -0.0076395 0)
(0.988296 0.0282133 0)
(1.00445 -0.00288875 0)
(1.00385 0.0236339 0)
(1.01325 -0.000247322 0)
(1.0151 0.0192698 0)
(1.01981 0.00105533 0)
(1.02311 0.01524 0)
(1.02456 0.00149023 0)
(1.02868 0.0115184 0)
(1.02785 0.00137696 0)
(1.03242 0.00804595 0)
(1.02992 0.000940546 0)
(1.03472 0.00475512 0)
(1.03092 0.000332539 0)
(1.0358 0.00157338 0)
(1.10444 -0.141443 0)
(1.17227 -0.096467 0)
(1.1911 -0.0709308 0)
(1.17987 -0.0558891 0)
(1.15892 -0.0452068 0)
(1.13827 -0.0364011 0)
(1.12078 -0.029017 0)
(1.10659 -0.0228932 0)
(1.09523 -0.0178638 0)
(1.08623 -0.0137313 0)
(1.07925 -0.0103188 0)
(1.07402 -0.00746488 0)
(1.07032 -0.00503675 0)
(1.06793 -0.00290687 0)
(1.06675 -0.000949676 0)
(0.79902 -0.340578 0)
(0.822969 -0.280165 0)
(0.880935 -0.214516 0)
(0.959921 -0.144034 0)
(1.04845 -0.0761402 0)
(1.13027 -0.0219439 0)
(1.1872 0.0106557 0)
(1.2092 0.0227595 0)
(1.2026 0.0231738 0)
(1.18279 0.0190954 0)
(1.16042 0.0146684 0)
(1.13989 0.0113109 0)
(1.12248 0.00897395 0)
(1.10826 0.00733636 0)
(1.09691 0.00606976 0)
(1.08794 0.00498464 0)
(1.08098 0.00399014 0)
(1.07574 0.00305324 0)
(1.07199 0.002154 0)
(1.06956 0.00128176 0)
(1.06835 0.00042635 0)
(0.915194 -0.114792 0)
(0.953136 -0.0500738 0)
(1.00635 0.000696504 0)
(1.06764 0.0474065 0)
(1.12434 0.0794173 0)
(1.16841 0.0944408 0)
(1.19032 0.0944463 0)
(1.19024 0.083539 0)
(1.17581 0.0695361 0)
(1.15674 0.0558409 0)
(1.13854 0.0441469 0)
(1.12306 0.0344429 0)
(1.11004 0.0265333 0)
(1.0989 0.0202693 0)
(1.0894 0.0153921 0)
(1.08149 0.011614 0)
(1.07514 0.00864727 0)
(1.07031 0.00625003 0)
(1.06684 0.00423065 0)
(1.06459 0.00244974 0)
(1.06347 0.000802283 0)
(0.752116 -0.505625 2.95615e-21)
(0.800097 -0.355547 -2.49224e-21)
(0.759903 -0.505132 8.26536e-22)
(0.80361 -0.356411 -7.11034e-23)
(0.767561 -0.504505 1.2437e-21)
(0.808104 -0.357506 1.11909e-21)
(0.775373 -0.503899 -4.27213e-21)
(0.813123 -0.35879 9.97645e-22)
(0.783317 -0.503307 4.09207e-21)
(0.818539 -0.360109 -8.60295e-22)
(0.791363 -0.502745 1.89714e-21)
(0.824291 -0.361458 2.48212e-22)
(0.799475 -0.502224 1.99331e-21)
(0.830334 -0.362847 1.58584e-21)
(0.807616 -0.501754 -9.70948e-22)
(0.836623 -0.364281 -2.36163e-21)
(0.81575 -0.501342 1.36414e-21)
(0.843112 -0.365767 2.49775e-21)
(0.823841 -0.500991 -1.11269e-21)
(0.849752 -0.367311 -1.45042e-21)
(0.831858 -0.500702 -1.40286e-22)
(0.856491 -0.36892 1.8997e-21)
(0.839772 -0.500472 3.11176e-21)
(0.863274 -0.370602 7.71838e-22)
(0.84756 -0.500294 -2.98583e-21)
(0.870045 -0.372364 6.91334e-22)
(0.855206 -0.500159 -4.5745e-21)
(0.876746 -0.374215 1.5879e-21)
(0.862695 -0.50005 1.77901e-21)
(0.883323 -0.376159 1.12905e-21)
(0.870019 -0.499951 -1.12167e-21)
(0.889722 -0.3782 -1.17876e-21)
(0.877176 -0.499839 -9.54704e-22)
(0.895895 -0.38034 1.1565e-21)
(0.884163 -0.49969 5.31961e-22)
(0.901799 -0.382578 1.82843e-22)
(0.890983 -0.499477 5.42818e-22)
(0.907398 -0.384907 -3.55403e-22)
(0.897639 -0.499173 4.83596e-22)
(0.912663 -0.387322 -1.42741e-22)
(0.904135 -0.498747 6.67778e-23)
(0.917571 -0.389809 -1.21911e-22)
)
;

boundaryField
{
    inlet
    {
        type            uniformFixedValue;
        uniformValue    constant (1 0 0);
        value           nonuniform 0();
    }
    outlet
    {
        type            pressureInletOutletVelocity;
        value           nonuniform 0();
    }
    cylinder
    {
        type            fixedValue;
        value           nonuniform 0();
    }
    top
    {
        type            symmetryPlane;
    }
    bottom
    {
        type            symmetryPlane;
    }
    defaultFaces
    {
        type            empty;
    }
    procBoundary41to40
    {
        type            processor;
        value           nonuniform List<vector> 
87
(
(0.938113 -0.4518 -3.39264e-22)
(0.94645 -0.448388 4.00009e-23)
(0.95468 -0.444737 -6.17643e-22)
(0.962775 -0.440851 3.27175e-22)
(0.970706 -0.436733 2.27304e-22)
(0.978446 -0.432389 -2.06575e-21)
(0.985972 -0.427824 -2.65873e-22)
(0.993264 -0.423046 5.80768e-21)
(1.0003 -0.418059 1.06181e-22)
(1.00708 -0.412873 -2.36146e-21)
(1.0136 -0.407495 5.00509e-23)
(1.01985 -0.401933 -2.89606e-21)
(1.02585 -0.396197 1.19798e-21)
(1.03161 -0.390298 -2.4318e-21)
(1.03715 -0.384247 3.34112e-21)
(1.0425 -0.378047 -1.62946e-21)
(1.04768 -0.37169 -3.92321e-21)
(1.0527 -0.365196 -1.67519e-21)
(1.0576 -0.3587 -4.03233e-21)
(1.0624 -0.352371 -4.62874e-21)
(1.06711 -0.345833 4.5998e-23)
(1.01622 -0.411813 0)
(1.01622 -0.411813 0)
(1.01212 -0.387871 0)
(1.0177 -0.349544 0)
(1.01451 -0.314729 0)
(1.01319 -0.274559 0)
(1.00769 -0.238305 0)
(1.00041 -0.202418 0)
(0.993785 -0.170225 0)
(0.990032 -0.139427 0)
(0.990821 -0.111204 0)
(0.994979 -0.0860136 0)
(1.00081 -0.0649151 0)
(1.00711 -0.0481288 0)
(1.01318 -0.0352794 0)
(1.01863 -0.0256403 0)
(1.0232 -0.0184509 0)
(1.02683 -0.0130687 0)
(1.0296 -0.00899368 0)
(1.03159 -0.00583403 0)
(1.03288 -0.00327319 0)
(1.0335 -0.00105307 0)
(0.941233 -0.272295 0)
(1.05749 -0.205898 0)
(1.11436 -0.154232 0)
(1.12456 -0.116728 0)
(1.11507 -0.0890701 0)
(1.10219 -0.0678987 0)
(1.09122 -0.0515097 0)
(1.08274 -0.0388456 0)
(1.07624 -0.0290701 0)
(1.07118 -0.0215216 0)
(1.06726 -0.0156551 0)
(1.06432 -0.0110328 0)
(1.06222 -0.00729746 0)
(1.06085 -0.00415182 0)
(1.06015 -0.0013456 0)
(0.730498 -0.506786 0)
(0.730498 -0.506786 0)
(0.710954 -0.486187 0)
(0.726441 -0.443015 0)
(0.782521 -0.378952 0)
(0.877095 -0.295643 0)
(0.99487 -0.210051 0)
(0.99487 -0.210051 0)
(0.770514 -0.468286 -3.88654e-22)
(0.777793 -0.470737 4.86633e-21)
(0.784949 -0.471972 7.08709e-21)
(0.792235 -0.472989 4.64662e-21)
(0.799637 -0.473751 -3.92352e-21)
(0.807148 -0.474272 7.40508e-21)
(0.814763 -0.474562 2.42596e-21)
(0.822476 -0.474627 -6.27524e-22)
(0.830283 -0.474471 -5.20082e-22)
(0.838182 -0.474097 -1.67589e-21)
(0.84617 -0.473504 1.71783e-21)
(0.854246 -0.472691 -1.67488e-21)
(0.862406 -0.471656 2.6174e-21)
(0.870646 -0.470396 1.04682e-21)
(0.878961 -0.468905 -1.68669e-21)
(0.88734 -0.467182 -3.50649e-21)
(0.895774 -0.465222 1.56047e-21)
(0.904246 -0.463022 2.09903e-21)
(0.912738 -0.460581 -1.39772e-21)
(0.92123 -0.457897 5.75785e-22)
(0.929697 -0.45497 -1.96681e-23)
)
;
    }
    procBoundary41to42
    {
        type            processor;
        value           nonuniform List<vector> 
86
(
(0.954023 -0.203878 -8.29053e-23)
(0.956162 -0.206885 6.57805e-22)
(0.957928 -0.20994 -1.27536e-22)
(0.959297 -0.213049 5.13358e-22)
(0.960253 -0.216219 1.12615e-23)
(0.960789 -0.219454 -1.86971e-21)
(0.960906 -0.222755 7.51468e-22)
(0.960615 -0.226121 2.45823e-21)
(0.959936 -0.229548 -3.33558e-21)
(0.958896 -0.233032 2.90547e-21)
(0.957526 -0.236566 3.29726e-21)
(0.955866 -0.240141 1.11583e-21)
(0.953957 -0.243747 -3.60094e-21)
(0.951842 -0.247376 -1.64645e-21)
(0.949565 -0.251014 3.0005e-21)
(0.94717 -0.254645 -1.464e-21)
(0.944704 -0.258256 -4.58649e-22)
(0.942222 -0.261886 -4.62048e-22)
(0.939778 -0.265584 1.97326e-22)
(0.937413 -0.269132 -3.98592e-21)
(0.935148 -0.271937 -2.7952e-23)
(0.935148 -0.271937 -2.7952e-23)
(0.891722 -0.00856209 0)
(0.871308 0.0268884 0)
(0.850936 0.0428893 0)
(0.82262 0.0688549 0)
(0.790175 0.0927751 0)
(0.75612 0.118633 0)
(0.732637 0.142753 0)
(0.737706 0.163223 0)
(0.779552 0.173747 0)
(0.844445 0.169496 0)
(0.909049 0.150958 0)
(0.958322 0.125178 0)
(0.990219 0.0996332 0)
(1.00966 0.0778138 0)
(1.02182 0.0601523 0)
(1.02984 0.0459937 0)
(1.03527 0.0345221 0)
(1.03896 0.0250312 0)
(1.0414 0.0169501 0)
(1.04288 0.00981012 0)
(1.04357 0.00321154 0)
(1.02183 0.0783136 0)
(0.906171 -0.136435 -1.6429e-22)
(1.05549 0.121913 0)
(1.08682 0.145961 0)
(1.12036 0.166061 0)
(1.14564 0.171441 0)
(1.1616 0.165887 0)
(1.16557 0.151011 0)
(1.16022 0.131645 0)
(1.14957 0.112239 0)
(1.13627 0.0947374 0)
(1.12217 0.0798613 0)
(1.10888 0.0670514 0)
(1.09754 0.0558788 0)
(1.08845 0.0459719 0)
(1.08127 0.0371802 0)
(1.07554 0.0294337 0)
(1.07096 0.02265 0)
(1.06739 0.0167046 0)
(1.06477 0.0114362 0)
(1.06303 0.00665996 0)
(1.06215 0.00218586 0)
(0.906171 -0.136435 -1.6429e-22)
(0.904845 -0.139828 2.15724e-21)
(0.904566 -0.14307 -7.63205e-22)
(0.904977 -0.146631 -9.63829e-23)
(0.905903 -0.150223 1.19076e-21)
(0.907254 -0.153768 3.72508e-22)
(0.908977 -0.15727 1.39521e-21)
(0.911036 -0.160728 -7.99393e-22)
(0.9134 -0.164132 1.84103e-22)
(0.916041 -0.167473 -2.77431e-22)
(0.918928 -0.17075 4.95072e-22)
(0.922026 -0.173962 3.15748e-22)
(0.925296 -0.177111 -1.98976e-21)
(0.928693 -0.1802 2.11856e-21)
(0.932167 -0.183235 -1.03543e-21)
(0.935666 -0.186226 -1.55534e-21)
(0.939132 -0.189183 2.20099e-22)
(0.942509 -0.192118 1.17491e-22)
(0.945739 -0.195042 -3.23826e-22)
(0.948769 -0.197969 -1.04407e-22)
(0.951545 -0.20091 -1.44235e-22)
)
;
    }
}


// ************************************************************************* //
