/*--------------------------------*- C++ -*----------------------------------*\
  =========                 |
  \\      /  F ield         | OpenFOAM: The Open Source CFD Toolbox
   \\    /   O peration     | Website:  https://openfoam.org
    \\  /    A nd           | Version:  7
     \\/     M anipulation  |
\*---------------------------------------------------------------------------*/
FoamFile
{
    version     2.0;
    format      ascii;
    class       surfaceScalarField;
    location    "15";
    object      phi;
}
// * * * * * * * * * * * * * * * * * * * * * * * * * * * * * * * * * * * * * //

dimensions      [0 3 -1 0 0 0 0];

internalField   nonuniform List<scalar> 
278
(
0.00362058
-4.26695e-05
1.74795e-06
-3.95116e-05
1.07606e-06
0.00362582
-8.27805e-05
-7.72127e-05
0.00363604
-0.000121334
-0.000113495
0.00365076
-0.000157673
-0.000147752
0.00366929
-0.00019127
-0.000179487
0.00369075
-0.000221748
-0.000208338
0.00371417
-0.000248903
0.00373992
-0.000234094
-0.000231769
0.0037385
-0.000272703
0.0037611
-0.000256695
-0.000254777
0.00376269
-0.000293282
0.00378223
-0.000276236
-0.000274855
0.00378572
-0.000310927
0.00380244
-0.000292949
-0.00029219
0.00380666
-0.000326048
0.0038209
-0.000307188
-0.000307083
0.00382467
-0.000339155
0.00383689
-0.000319403
-0.000319932
0.00383907
0.00384979
-0.00033012
-0.000331208
0.00385912
-0.000339909
-0.000341437
0.00386453
-0.000349364
-0.000351171
0.00386577
-0.000359081
-0.000360976
0.00386273
-0.000369638
-0.00037141
0.00385542
-0.000381582
-0.000383011
0.00384392
-0.000395421
-0.000396284
0.00382838
-0.000411617
-0.000411696
0.00380897
-0.000430609
-0.000429685
0.0199946
-0.000394009
-0.000388352
0.0200933
-0.000359427
-0.000348644
0.0201165
-0.000328222
-0.000313474
0.0201182
-0.000299633
-0.000282132
0.0201142
-0.000273101
-0.0002537
0.0201078
-0.000248143
-0.000227469
0.0200995
-0.000224488
-0.000203065
0.0200895
-0.00020201
-0.00018032
0.0200781
-0.00018068
-0.000159179
0.0200661
-0.00016051
-0.000139623
0.0200541
-0.000141511
-0.000121611
0.0200424
-0.000123671
-0.000105074
0.0200316
-0.000106943
-8.99054e-05
0.0200218
-9.12453e-05
-7.59736e-05
0.0200131
-7.64711e-05
-6.31286e-05
0.0200057
-6.24982e-05
-5.12119e-05
0.0199995
-4.91968e-05
-4.00629e-05
0.0199946
-3.64326e-05
-2.95222e-05
0.0199909
-2.40708e-05
-1.94336e-05
0.0199884
-1.19765e-05
-9.64438e-06
0.0199872
-0.000393217
0.0199952
0.000429753
-0.000358632
0.0200938
-0.000327393
0.020117
-0.000298753
0.0201186
-0.000272176
0.0201145
-0.000247193
0.0201081
-0.00022354
0.0200997
-0.000201086
0.0200896
-0.000179794
0.0200783
-0.000159677
0.0200662
-0.000140746
0.0200541
-0.000122982
0.0200424
-0.00010633
0.0200316
-9.07056e-05
0.0200217
-7.60031e-05
0.020013
-6.21031e-05
0.0200056
-4.88769e-05
0.0199994
-3.61906e-05
0.0199944
-2.39082e-05
0.0199907
-1.18948e-05
0.0199882
0.0199871
-0.000387774
0.000429103
-0.00034804
-0.000312835
-0.000281454
-0.00025299
-0.000226741
-0.000202335
-0.000179602
-0.000158485
-0.000138962
-0.000120995
-0.000104509
-8.93958e-05
-7.55212e-05
-6.27348e-05
-5.08789e-05
-3.97932e-05
-2.9318e-05
-1.92965e-05
-9.57551e-06
0.0038091
0.000410742
0.000411111
0.00382851
0.000394522
0.000395691
0.00384405
0.00038065
0.000382407
0.00385555
0.000368665
0.000370791
0.00386287
0.00035806
0.000360336
0.0038659
0.000348286
0.000350506
0.00386466
0.000338765
0.000340742
0.00384939
0.000348927
0.00385925
0.000328902
0.000330479
0.00383911
0.000337114
0.00384991
0.000318104
0.000319164
0.0038247
0.000323856
0.003837
0.0003058
0.000306273
0.00380667
0.000308577
0.00382101
0.000291468
0.000291335
0.00378573
0.000290769
0.00380254
0.000274659
0.000273954
0.00376269
0.000270025
0.00378233
0.000255021
0.000253829
0.00373849
0.000246063
0.00376119
0.000232325
0.000230774
0.00371415
0.000218754
0.00374
0.000206479
0.00369073
0.000188135
0.000177545
0.00366927
0.000154415
0.000145738
0.00365075
0.000117975
0.000111422
0.00363603
7.93465e-05
7.50965e-05
0.00362581
3.91892e-05
3.73685e-05
0.00362058
)
;

boundaryField
{
    inlet
    {
        type            calculated;
        value           nonuniform 0();
    }
    outlet
    {
        type            calculated;
        value           nonuniform 0();
    }
    cylinder
    {
        type            calculated;
        value           nonuniform 0();
    }
    top
    {
        type            symmetryPlane;
        value           uniform 0;
    }
    bottom
    {
        type            symmetryPlane;
        value           uniform 0;
    }
    defaultFaces
    {
        type            empty;
        value           nonuniform 0();
    }
    procBoundary43to42
    {
        type            processor;
        value           nonuniform List<scalar> 
86
(
-0.00357966
-0.00358571
-0.00359749
-0.00361442
-0.00363569
-0.00366027
-0.00368701
-0.0037147
-0.00374211
-0.00376808
-0.00379154
-0.00381156
-0.0038274
-0.000350829
-0.00384934
-0.00385507
-0.00385605
-0.00385218
-0.00384347
-0.00383008
-0.00381218
-0.00378997
-0.0200312
-0.0201278
-0.0201477
-0.0201468
-0.0201407
-0.0201328
-0.0201232
-0.0201119
-0.0200995
-0.0200863
-0.0200731
-0.0200603
-0.0200483
-0.0200375
-0.0200279
-0.0200197
-0.0200128
-0.0200073
-0.0200032
-0.0200005
-0.0199992
-0.0200317
-0.0201284
-0.0201482
-0.0201473
-0.0201411
-0.0201331
-0.0201234
-0.0201121
-0.0200995
-0.0200863
-0.020073
-0.0200602
-0.0200482
-0.0200373
-0.0200277
-0.0200195
-0.0200126
-0.0200071
-0.020003
-0.0200002
-0.019999
-0.00379009
-0.00381229
-0.00383018
-0.00384357
-0.00385226
-0.00385612
-0.00385513
-0.000359911
-0.0038384
-0.0038273
-0.00381144
-0.00379139
-0.00376792
-0.00374194
-0.00371453
-0.00368684
-0.00366011
-0.00363555
-0.00361431
-0.0035974
-0.00358565
-0.00357964
)
;
    }
    procBoundary43to44
    {
        type            processor;
        value           nonuniform List<scalar> 
86
(
0.00365901
0.00366352
0.00367232
0.00368502
0.00370102
0.0037196
0.000205771
0.00376592
0.00378411
0.00380231
0.00381977
0.00383579
0.00384974
0.00386107
0.00386935
0.00387426
0.00387557
0.00387317
0.00386702
0.00385719
0.00384379
0.00382696
0.0199533
0.0200535
0.0200813
0.0200869
0.0200857
0.0200816
0.0200751
0.0200667
0.020057
0.0200466
0.0200361
0.0200259
0.0200164
0.0200079
0.0200003
0.0199938
0.0199884
0.019984
0.0199808
0.0199786
0.0199776
0.0199539
0.020054
0.0200818
0.0200872
0.020086
0.0200819
0.0200753
0.0200669
0.0200571
0.0200467
0.0200361
0.0200259
0.0200165
0.0200079
0.0200003
0.0199937
0.0199883
0.0199839
0.0199807
0.0199785
0.0199775
0.00382709
0.00384393
0.00385733
0.00386717
0.00387332
0.00387573
0.00387442
0.00386951
0.00386123
0.00384989
0.00383594
0.00381992
0.00380245
0.00378424
0.00376604
0.000204733
0.00371966
0.00370108
0.00368506
0.00367236
0.00366354
0.00365902
)
;
    }
}


// ************************************************************************* //
