/*--------------------------------*- C++ -*----------------------------------*\
  =========                 |
  \\      /  F ield         | OpenFOAM: The Open Source CFD Toolbox
   \\    /   O peration     | Website:  https://openfoam.org
    \\  /    A nd           | Version:  7
     \\/     M anipulation  |
\*---------------------------------------------------------------------------*/
FoamFile
{
    version     2.0;
    format      ascii;
    class       volVectorField;
    location    "10";
    object      U;
}
// * * * * * * * * * * * * * * * * * * * * * * * * * * * * * * * * * * * * * //

dimensions      [0 1 -1 0 0 0 0];

internalField   nonuniform List<vector> 
183
(
(1.21892 0.282082 -3.37092e-21)
(1.21247 0.271721 -3.14307e-21)
(1.20682 0.261595 2.10311e-20)
(1.20166 0.251962 9.87249e-21)
(1.19647 0.243388 1.00255e-20)
(0.797093 0.197087 -7.74724e-20)
(0.969416 0.259631 1.3189e-20)
(1.09812 0.308815 3.88532e-20)
(1.18419 0.342125 7.8987e-21)
(1.23446 0.360511 -6.69354e-20)
(1.25831 0.366961 2.20461e-21)
(1.26492 0.365033 -3.82096e-20)
(1.26162 0.357885 5.85755e-20)
(1.25349 0.347865 -6.21493e-20)
(1.24359 0.33649 4.0524e-21)
(1.23358 0.324629 -1.8378e-20)
(1.22425 0.312739 2.60571e-20)
(1.21592 0.301046 4.9118e-20)
(1.20868 0.289665 1.45107e-20)
(1.20247 0.278634 1.00327e-21)
(1.19709 0.267902 -1.47962e-20)
(1.19218 0.257772 2.0639e-20)
(1.18723 0.248716 5.04206e-22)
(0.130807 0.0221143 -4.27019e-20)
(0.384669 0.079401 -8.76775e-20)
(0.623804 0.153607 2.85438e-20)
(0.83289 0.228055 1.55202e-19)
(0.999592 0.291935 -1.3585e-19)
(1.11943 0.339528 8.97868e-21)
(1.19596 0.369539 7.85397e-20)
(1.23785 0.384063 -3.30274e-20)
(1.25537 0.386866 7.08545e-21)
(1.25776 0.38188 2.61043e-20)
(1.25198 0.372329 2.78974e-21)
(1.24257 0.360461 1.3742e-20)
(1.23216 0.347642 4.66447e-20)
(1.22204 0.334612 6.75515e-21)
(0.142458 0.0291412 4.89631e-20)
(0.410915 0.098412 1.62562e-19)
(0.6562 0.181244 7.90987e-20)
(0.864036 0.26019 1.09531e-20)
(1.02423 0.32468 -5.33756e-20)
(1.13507 0.370072 -9.11377e-20)
(1.20255 0.396422 9.87742e-20)
(1.23693 0.40696 1.55589e-19)
(0.153624 0.0369781 -2.35384e-20)
(0.435199 0.118961 -2.48038e-19)
(0.685005 0.210288 1.29645e-19)
(0.890275 0.293125 -7.33614e-20)
(0.153148 -0.036875 3.64881e-21)
(0.434062 -0.118715 2.58313e-19)
(0.683491 -0.209999 -3.42542e-20)
(0.888656 -0.292907 1.50418e-20)
(0.141987 -0.0290555 7.04243e-20)
(0.409762 -0.0981977 2.4416e-19)
(0.654633 -0.180977 4.69049e-21)
(0.862324 -0.259974 -1.03183e-19)
(1.02259 -0.324604 -5.82174e-20)
(1.13363 -0.370185 1.1707e-19)
(1.20136 -0.39673 -4.76254e-20)
(1.23595 -0.40744 -9.04756e-21)
(1.24822 -0.406768 -4.9634e-20)
(0.130345 -0.0220462 -5.68023e-20)
(0.383514 -0.0792206 -7.66633e-20)
(0.622199 -0.153369 -2.07421e-19)
(0.831096 -0.227849 3.48074e-20)
(0.997837 -0.291847 1.25121e-19)
(1.11786 -0.339614 2.87814e-20)
(1.19464 -0.369814 -4.84898e-20)
(1.23677 -0.38451 -8.4224e-20)
(1.25447 -0.38745 4.69402e-20)
(1.25698 -0.382563 -7.66489e-21)
(1.25126 -0.373079 -4.02567e-20)
(1.24189 -0.361252 7.50365e-20)
(1.23147 -0.348459 -2.50692e-20)
(1.22134 -0.335443 -2.23811e-20)
(1.2121 -0.322574 -3.15085e-20)
(0.967554 -0.259537 8.71472e-20)
(1.09643 -0.308878 -1.02554e-19)
(1.18274 -0.342367 5.27963e-20)
(1.23326 -0.360925 3.76829e-20)
(1.25733 -0.367517 3.99457e-21)
(1.26408 -0.365694 -2.98392e-20)
(1.26087 -0.358618 -2.10486e-20)
(1.25277 -0.348644 -6.40027e-20)
(1.24289 -0.337295 3.28073e-20)
(1.23287 -0.325451 -2.07039e-20)
(1.22353 -0.31357 3.95525e-20)
(1.21519 -0.301881 -4.90339e-20)
(1.20794 -0.290502 -1.50612e-20)
(1.20172 -0.279472 3.38071e-20)
(1.19635 -0.268741 -3.57563e-20)
(1.19146 -0.258608 -2.60116e-20)
(1.18653 -0.249543 7.92452e-22)
(1.21818 -0.282911 3.94535e-21)
(1.21172 -0.272551 -3.16679e-20)
(1.20608 -0.262425 2.95284e-20)
(1.20094 -0.25279 -4.42462e-21)
(1.19578 -0.244207 -1.12924e-20)
(1.1843 0.209859 -6.03869e-22)
(1.16103 0.19111 3.51932e-21)
(1.15351 0.156271 -2.25521e-21)
(1.14373 0.141792 1.47667e-21)
(1.13601 0.120572 1.82375e-21)
(1.13023 0.106686 -5.01494e-22)
(1.12363 0.0937001 -1.56717e-21)
(1.117 0.0820834 5.76266e-22)
(1.11229 0.0718685 5.96234e-22)
(1.10802 0.063198 -1.05642e-21)
(1.10312 0.0558959 -4.28781e-22)
(1.09754 0.0488375 6.80173e-22)
(1.09279 0.0420397 -1.70058e-22)
(1.08913 0.0364611 -1.07375e-21)
(1.08633 0.0302552 -1.06705e-22)
(1.08438 0.0257785 -5.94033e-22)
(1.08054 0.0206929 -1.38924e-22)
(1.07815 0.0160898 -3.28219e-22)
(1.07656 0.0109721 -3.28752e-22)
(1.07728 0.00647902 1.58135e-22)
(1.07507 0.00311496 -5.50855e-22)
(1.17611 0.212873 3.92362e-21)
(1.15447 0.194195 -7.13183e-21)
(1.14809 0.158272 1.73368e-21)
(1.13932 0.143654 1.86564e-21)
(1.1321 0.122065 -9.32744e-24)
(1.12706 0.107964 -8.95886e-23)
(1.12084 0.0949109 1.11381e-21)
(1.1145 0.0831083 -2.68826e-22)
(1.11013 0.0726839 2.48299e-22)
(1.10619 0.0639212 1.29454e-21)
(1.10149 0.0566447 2.323e-21)
(1.096 0.0495332 -1.47651e-22)
(1.09138 0.0426265 8.08399e-22)
(1.08781 0.0369585 9.28836e-22)
(1.08511 0.0306159 9.45947e-22)
(1.08329 0.0261413 9.95768e-22)
(1.07943 0.0210243 4.91735e-22)
(1.07706 0.0163477 1.30109e-21)
(1.07549 0.0110824 6.43317e-22)
(1.07636 0.00657878 2.74262e-22)
(1.07401 0.00324486 1.26564e-21)
(1.17549 -0.213796 -4.28114e-21)
(1.15389 -0.194806 2.79803e-21)
(1.14744 -0.159336 -1.99164e-21)
(1.1386 -0.144539 1.72417e-21)
(1.13244 -0.123724 -1.59827e-22)
(1.12623 -0.109777 1.12586e-22)
(1.11937 -0.0966962 1.14724e-21)
(1.11347 -0.083449 -1.06604e-21)
(1.10912 -0.0747909 9.17805e-22)
(1.10145 -0.0645496 5.61958e-22)
(1.09882 -0.0558691 -4.94699e-22)
(1.09285 -0.0492054 -8.78728e-25)
(1.09046 -0.0407359 7.45173e-22)
(1.08725 -0.0357656 5.69938e-22)
(1.08499 -0.0292746 -4.86065e-22)
(1.08169 -0.0250021 4.09356e-22)
(1.07875 -0.0194698 -4.67026e-22)
(1.07805 -0.0146233 1.33921e-23)
(1.07816 -0.0104013 5.38775e-22)
(1.07684 -0.00663275 -2.64459e-22)
(1.07524 -0.00224343 9.99565e-25)
(1.18369 -0.210777 9.72897e-22)
(1.16044 -0.191742 7.95133e-22)
(1.15283 -0.157341 -1.01909e-21)
(1.14296 -0.142679 -1.50359e-21)
(1.13625 -0.122147 -1.64486e-21)
(1.12941 -0.108338 4.77721e-22)
(1.12225 -0.0953792 -7.02374e-22)
(1.11596 -0.0824182 -3.6879e-22)
(1.11127 -0.0737598 -5.91378e-22)
(1.10353 -0.0637033 -7.78589e-22)
(1.10057 -0.0551863 -1.2761e-21)
(1.09453 -0.0485848 -5.08134e-22)
(1.09195 -0.0403472 -1.35455e-21)
(1.08857 -0.0354002 -4.29733e-22)
(1.08619 -0.0289613 -3.33746e-22)
(1.08282 -0.0246681 -1.00492e-21)
(1.07987 -0.0192265 3.26532e-22)
(1.07907 -0.0145056 -9.94901e-22)
(1.07907 -0.0103036 -8.59973e-22)
(1.07776 -0.00651134 -1.73934e-22)
(1.07621 -0.0021853 -7.36861e-22)
)
;

boundaryField
{
    inlet
    {
        type            uniformFixedValue;
        uniformValue    constant (1 0 0);
        value           nonuniform 0();
    }
    outlet
    {
        type            pressureInletOutletVelocity;
        value           nonuniform 0();
    }
    cylinder
    {
        type            fixedValue;
        value           uniform (0 0 0);
    }
    top
    {
        type            symmetryPlane;
    }
    bottom
    {
        type            symmetryPlane;
    }
    defaultFaces
    {
        type            empty;
    }
    procBoundary16to15
    {
        type            processor;
        value           nonuniform List<vector> 
90
(
(1.21281 0.321733 9.12631e-20)
(1.20469 0.30918 3.259e-20)
(1.19772 0.297036 1.8805e-20)
(1.19181 0.285314 4.73354e-20)
(1.18674 0.27395 4.33975e-20)
(1.18214 0.263287 -3.56488e-20)
(1.17748 0.253754 3.04681e-20)
(1.24904 0.406155 1.37567e-19)
(1.24804 0.39822 -7.15323e-20)
(1.24041 0.386378 -3.93479e-20)
(1.23018 0.372743 -8.39586e-20)
(1.21954 0.358526 3.37174e-20)
(1.21281 0.321733 9.12631e-20)
(1.2095 0.344343 3.91068e-21)
(1.04332 0.357526 7.26786e-20)
(1.14523 0.400183 1.57347e-19)
(1.20429 0.422595 8.94705e-21)
(1.24904 0.406155 1.37567e-19)
(1.23203 0.429093 9.22649e-20)
(0.164131 0.0455598 9.67649e-21)
(0.457173 0.140826 -2.48263e-19)
(0.709885 0.2404 -6.28976e-20)
(1.04332 0.357526 7.26786e-20)
(0.91144 0.326485 -6.00902e-20)
(0.163654 -0.04544 1.10935e-19)
(0.456062 -0.140553 4.5893e-20)
(0.708438 -0.240095 -3.96454e-20)
(0.909925 -0.326272 1.57737e-19)
(1.0418 -0.357468 1.49743e-19)
(1.0418 -0.357468 1.49743e-19)
(1.14392 -0.400327 7.56297e-20)
(1.20321 -0.422938 -1.56344e-20)
(1.23115 -0.429606 -1.0537e-19)
(1.2389 -0.425396 1.45532e-19)
(1.24732 -0.398925 -1.99067e-19)
(1.24732 -0.398925 -1.99067e-19)
(1.23974 -0.387145 6.24019e-22)
(1.22952 -0.373548 1.79743e-20)
(1.21887 -0.359354 -5.93854e-20)
(1.20881 -0.345187 8.34212e-22)
(1.19978 -0.331332 -1.0699e-19)
(1.20396 -0.310026 -2.12556e-20)
(1.20396 -0.310026 -2.12556e-20)
(1.19697 -0.297885 -1.80236e-21)
(1.19105 -0.286165 5.75424e-20)
(1.186 -0.274802 -2.19761e-20)
(1.18142 -0.264136 3.0352e-20)
(1.17678 -0.254589 -3.03731e-20)
(1.16757 0.215689 -7.67458e-21)
(1.14789 0.197198 3.55042e-21)
(1.1425 0.160221 1.78536e-21)
(1.13494 0.145453 -1.69583e-21)
(1.12811 0.123537 2.31581e-21)
(1.12392 0.109193 -1.12804e-21)
(1.11807 0.0961207 -2.22479e-21)
(1.11199 0.0841275 1.28939e-21)
(1.10795 0.0734705 -5.71159e-22)
(1.10437 0.064613 1.69582e-21)
(1.09987 0.0573894 1.37724e-21)
(1.09447 0.0502353 4.41213e-22)
(1.08995 0.0432147 1.93632e-21)
(1.08647 0.0374522 7.89974e-22)
(1.08388 0.0309618 5.56118e-22)
(1.0822 0.026501 6.91635e-22)
(1.07832 0.0213676 -2.7976e-22)
(1.07596 0.0166124 -7.049e-22)
(1.0744 0.01118 5.82644e-22)
(1.07542 0.00668099 -8.53062e-22)
(1.07292 0.00339155 -2.3836e-22)
(1.16693 -0.216619 7.65005e-21)
(1.14732 -0.197782 -3.5355e-21)
(1.14189 -0.161268 -1.77799e-21)
(1.13428 -0.146321 1.69759e-21)
(1.12859 -0.12528 -1.31471e-21)
(1.1231 -0.111191 -1.99173e-21)
(1.11648 -0.0980195 1.78735e-21)
(1.11097 -0.0844599 -2.35111e-23)
(1.10698 -0.0758221 9.84392e-22)
(1.09937 -0.0653978 -5.46679e-22)
(1.09705 -0.0565411 -1.13652e-21)
(1.09115 -0.0498236 5.44233e-22)
(1.08894 -0.0411029 -1.12655e-21)
(1.08592 -0.0361093 -2.03657e-22)
(1.0838 -0.0295808 1.26626e-21)
(1.08056 -0.0253408 -3.33234e-22)
(1.07761 -0.0197136 -1.45926e-21)
(1.07701 -0.0147246 -1.88645e-21)
(1.07725 -0.0104899 7.97357e-22)
(1.07591 -0.00676318 -1.72497e-21)
(1.07425 -0.00231 -1.73082e-21)
)
;
    }
    procBoundary16to17
    {
        type            processor;
        value           nonuniform List<vector> 
88
(
(1.22847 0.274344 -2.50244e-22)
(1.22182 0.26463 8.00622e-21)
(1.21597 0.255086 2.00395e-21)
(1.21061 0.245921 1.71161e-20)
(1.20527 0.237807 -2.57154e-22)
(0.756999 0.167637 -3.04971e-20)
(0.933816 0.228113 4.80697e-21)
(1.071 0.278209 3.42973e-20)
(1.16693 0.314364 2.23452e-20)
(1.22636 0.336416 -5.17884e-20)
(1.25751 0.346506 -2.89655e-20)
(1.26925 0.347725 1.8543e-20)
(1.26917 0.343092 2.07467e-20)
(1.26283 0.33501 1.4383e-20)
(1.25379 0.32513 1.23243e-20)
(1.24411 0.314461 2.66948e-21)
(1.23481 0.30356 -1.07072e-20)
(1.22636 0.292717 1.22591e-20)
(1.22636 0.292717 1.22591e-20)
(0.11885 0.015942 -1.73186e-20)
(0.356852 0.0621118 8.20761e-20)
(0.588225 0.127689 1.58189e-19)
(0.588225 0.127689 1.58189e-19)
(0.118403 -0.0158912 9.16279e-20)
(0.355707 -0.061967 -1.12567e-20)
(0.586597 -0.127484 -5.72744e-20)
(0.795231 -0.196897 1.15111e-19)
(0.795231 -0.196897 1.15111e-19)
(0.931858 -0.228019 5.39739e-21)
(1.06918 -0.278252 -1.0155e-20)
(1.16535 -0.314576 5.52235e-21)
(1.22504 -0.336796 1.87719e-20)
(1.25643 -0.347032 1.24483e-20)
(1.26834 -0.348363 7.0272e-20)
(1.26837 -0.343808 -1.12258e-20)
(1.26208 -0.335775 5.87637e-21)
(1.25307 -0.325926 -1.82358e-20)
(1.24339 -0.315274 -2.90876e-21)
(1.23408 -0.304383 3.10808e-21)
(1.22562 -0.293544 -3.29125e-20)
(1.22562 -0.293544 -3.29125e-20)
(1.22772 -0.275166 2.49524e-22)
(1.22108 -0.265452 -7.9896e-21)
(1.21523 -0.255909 -1.99943e-21)
(1.2099 -0.246741 -1.7074e-20)
(1.20459 -0.238619 2.56728e-22)
(1.19223 0.206672 2.01576e-21)
(1.16753 0.187958 4.39349e-23)
(1.15877 0.15422 -6.83975e-22)
(1.14816 0.139878 1.20213e-21)
(1.13985 0.119056 7.37843e-22)
(1.13343 0.105369 -3.01468e-22)
(1.12642 0.0924823 5.32862e-22)
(1.11948 0.0810483 -1.64766e-22)
(1.11444 0.0710259 6.37827e-22)
(1.10986 0.0624474 2.25119e-22)
(1.10478 0.0551425 4.74582e-22)
(1.09908 0.0481461 5.61255e-22)
(1.09419 0.0414529 3.29422e-22)
(1.09044 0.0359595 -6.20341e-23)
(1.08754 0.0298818 1.78097e-22)
(1.08547 0.0254132 -5.48577e-23)
(1.08164 0.0203707 -1.53797e-23)
(1.07922 0.0158375 2.89292e-22)
(1.07762 0.0108509 2.95909e-22)
(1.0782 0.00638105 5.09521e-23)
(1.07611 0.00299999 1.25785e-22)
(1.19162 -0.207584 -2.00943e-21)
(1.16693 -0.188605 -4.39057e-23)
(1.15806 -0.155288 6.81844e-22)
(1.14733 -0.140754 -1.19928e-21)
(1.14 -0.120549 -7.34146e-22)
(1.13261 -0.106879 2.98313e-22)
(1.12512 -0.0940624 -5.22164e-22)
(1.11846 -0.0813701 1.60532e-22)
(1.11343 -0.0727269 -6.16268e-22)
(1.10559 -0.062856 -2.10579e-22)
(1.10232 -0.0544921 -4.48736e-22)
(1.0962 -0.0479596 -5.32338e-22)
(1.09343 -0.0399377 -3.15609e-22)
(1.0899 -0.0350153 5.93916e-23)
(1.08739 -0.0286408 -1.74033e-22)
(1.08395 -0.0243373 5.40434e-23)
(1.08098 -0.0189825 1.51743e-23)
(1.08008 -0.0143733 -2.91438e-22)
(1.07998 -0.010198 -3.01477e-22)
(1.07868 -0.00639735 -5.1556e-23)
(1.07717 -0.0021343 -1.28475e-22)
)
;
    }
}


// ************************************************************************* //
