/*--------------------------------*- C++ -*----------------------------------*\
  =========                 |
  \\      /  F ield         | OpenFOAM: The Open Source CFD Toolbox
   \\    /   O peration     | Website:  https://openfoam.org
    \\  /    A nd           | Version:  7
     \\/     M anipulation  |
\*---------------------------------------------------------------------------*/
FoamFile
{
    version     2.0;
    format      ascii;
    class       volScalarField;
    location    "15";
    object      p;
}
// * * * * * * * * * * * * * * * * * * * * * * * * * * * * * * * * * * * * * //

dimensions      [0 2 -2 0 0 0 0];

internalField   nonuniform List<scalar> 
183
(
-0.286053
-0.286129
-0.28674
-0.285994
-0.28602
-0.286584
-0.285879
-0.28581
-0.286282
-0.28571
-0.285499
-0.285828
-0.285489
-0.28509
-0.285213
-0.285219
-0.284591
-0.284426
-0.28491
-0.284015
-0.283426
-0.283399
-0.282125
-0.282838
-0.280633
-0.281991
-0.279631
-0.278296
-0.276647
-0.276758
-0.278422
-0.282063
-0.279763
-0.282934
-0.280755
-0.283486
-0.28225
-0.284955
-0.284099
-0.28355
-0.285265
-0.28467
-0.284542
-0.285531
-0.28516
-0.285315
-0.285747
-0.285557
-0.285911
-0.285907
-0.285853
-0.286344
-0.286011
-0.286047
-0.286622
-0.286059
-0.286138
-0.286753
-0.299045
-0.299093
-0.299206
-0.29935
-0.299483
-0.305885
-0.299559
-0.305862
-0.299541
-0.305733
-0.299408
-0.305461
-0.299122
-0.305026
-0.298635
-0.304504
-0.298115
-0.303808
-0.297607
-0.302962
-0.297142
-0.301999
-0.296736
-0.30094
-0.29636
-0.299802
-0.295924
-0.298589
-0.295282
-0.297288
-0.294263
-0.295881
-0.292731
-0.294355
-0.290434
-0.292527
-0.286799
-0.29003
-0.282239
-0.264801
-0.243289
-0.22224
-0.202992
-0.185612
-0.170003
-0.156124
-0.143881
-0.133156
-0.123821
-0.115733
-0.108794
-0.102883
-0.0979109
-0.0937911
-0.0904529
-0.0878487
-0.0859251
-0.0846671
-0.0840365
-0.092647
-0.0882412
-0.0846434
-0.0817388
-0.0794942
-0.0778475
-0.076768
-0.0762284
-0.283184
-0.265504
-0.243711
-0.222465
-0.203061
-0.185566
-0.169859
-0.155901
-0.143603
-0.132828
-0.123467
-0.115387
-0.108463
-0.102597
-0.0976681
-0.0936085
-0.0903278
-0.0877787
-0.0859059
-0.0846761
-0.084064
-0.287018
-0.291149
-0.290689
-0.293716
-0.293021
-0.295598
-0.294587
-0.297164
-0.295639
-0.298599
-0.296312
-0.299915
-0.296777
-0.301129
-0.297178
-0.302254
-0.297604
-0.303287
-0.29808
-0.304211
-0.298589
-0.305005
-0.299104
-0.305636
-0.299574
-0.306081
-0.299836
-0.306426
-0.299933
-0.306598
-0.299907
-0.306615
-0.29978
-0.299588
-0.29938
-0.299199
-0.29908
)
;

boundaryField
{
    inlet
    {
        type            zeroGradient;
    }
    outlet
    {
        type            fixedValue;
        value           nonuniform 0();
    }
    cylinder
    {
        type            zeroGradient;
    }
    top
    {
        type            symmetryPlane;
    }
    bottom
    {
        type            symmetryPlane;
    }
    defaultFaces
    {
        type            empty;
    }
    procBoundary32to30
    {
        type            processor;
        value           nonuniform List<scalar> 
12
(
-0.261402
-0.262884
-0.262788
-0.2613
-0.0843552
-0.0806836
-0.0777567
-0.0753364
-0.0735114
-0.0721541
-0.0712624
-0.0707944
)
;
    }
    procBoundary32to31
    {
        type            processor;
        value           nonuniform List<scalar> 
81
(
-0.285911
-0.285892
-0.285857
-0.285805
-0.28574
-0.285665
-0.285589
-0.284584
-0.284584
-0.284285
-0.283996
-0.281224
-0.281224
-0.280533
-0.274723
-0.274723
-0.272537
-0.27015
-0.267718
-0.265491
-0.263705
-0.262341
-0.262253
-0.263642
-0.265461
-0.267721
-0.270186
-0.272603
-0.274814
-0.274814
-0.280568
-0.281279
-0.281279
-0.284012
-0.284317
-0.284624
-0.284624
-0.285602
-0.285682
-0.285759
-0.285823
-0.285871
-0.285901
-0.285914
-0.275274
-0.275274
-0.255244
-0.233829
-0.211592
-0.190897
-0.172635
-0.15669
-0.142913
-0.131054
-0.120883
-0.112187
-0.10474
-0.0984126
-0.0930439
-0.0885508
-0.0848355
-0.0818257
-0.0794804
-0.0777414
-0.0766159
-0.0760388
-0.275405
-0.275405
-0.255397
-0.233962
-0.211668
-0.190882
-0.172536
-0.156478
-0.142592
-0.130652
-0.120399
-0.111657
-0.10422
-0.0979206
-0.0979206
)
;
    }
    procBoundary32to33
    {
        type            processor;
        value           nonuniform List<scalar> 
86
(
-0.305742
-0.305735
-0.30578
-0.305843
-0.305843
-0.330792
-0.330853
-0.330776
-0.330521
-0.330064
-0.329343
-0.328407
-0.327262
-0.325919
-0.324392
-0.322693
-0.320823
-0.318771
-0.316524
-0.3141
-0.311382
-0.308067
-0.298931
-0.277811
-0.252761
-0.230159
-0.20991
-0.19191
-0.17598
-0.161963
-0.149679
-0.138953
-0.129624
-0.121536
-0.114587
-0.108651
-0.103646
-0.0994863
-0.0961083
-0.0934725
-0.0915218
-0.0902475
-0.0896013
-0.300305
-0.278737
-0.253303
-0.230438
-0.210005
-0.19189
-0.175867
-0.161787
-0.149464
-0.138701
-0.129364
-0.121291
-0.11435
-0.108444
-0.103454
-0.0993266
-0.0959775
-0.093369
-0.0914458
-0.0901805
-0.0895481
-0.30953
-0.312866
-0.315585
-0.317998
-0.320221
-0.322238
-0.324063
-0.325707
-0.32717
-0.328442
-0.32951
-0.330363
-0.330995
-0.331359
-0.331515
-0.331487
-0.306516
-0.306516
-0.306344
-0.306143
-0.305956
-0.305816
)
;
    }
}


// ************************************************************************* //
