/*--------------------------------*- C++ -*----------------------------------*\
  =========                 |
  \\      /  F ield         | OpenFOAM: The Open Source CFD Toolbox
   \\    /   O peration     | Website:  https://openfoam.org
    \\  /    A nd           | Version:  7
     \\/     M anipulation  |
\*---------------------------------------------------------------------------*/
FoamFile
{
    version     2.0;
    format      ascii;
    class       volVectorField;
    location    "20";
    object      U;
}
// * * * * * * * * * * * * * * * * * * * * * * * * * * * * * * * * * * * * * //

dimensions      [0 1 -1 0 0 0 0];

internalField   nonuniform List<vector> 
183
(
(1.20367 0.292558 -3.16323e-21)
(1.19779 0.282593 -2.93396e-21)
(1.19277 0.272854 1.97232e-20)
(1.18832 0.263561 9.27478e-21)
(1.18394 0.255334 9.42066e-21)
(0.769649 0.193687 -7.29623e-20)
(0.939849 0.256815 1.24578e-20)
(1.0688 0.30738 3.65684e-20)
(1.15662 0.342516 7.4602e-21)
(1.20926 0.362807 -6.30597e-20)
(1.23548 0.370978 2.09704e-21)
(1.24409 0.370463 -3.59589e-20)
(1.24234 0.364417 5.50887e-20)
(1.23536 0.355244 -5.84292e-20)
(1.22634 0.344536 3.79171e-21)
(1.21703 0.33323 -1.72383e-20)
(1.20829 0.321827 2.44294e-20)
(1.20051 0.310577 4.60466e-20)
(1.19381 0.29961 1.35976e-20)
(1.18816 0.288974 9.32436e-22)
(1.18339 0.278631 -1.39024e-20)
(1.17917 0.26883 1.93382e-20)
(1.17501 0.260113 4.69928e-22)
(0.125121 0.0212746 -4.0366e-20)
(0.369481 0.0769675 -8.2757e-20)
(0.601348 0.149984 2.68329e-20)
(0.805981 0.22415 1.46284e-19)
(0.971049 0.288764 -1.2802e-19)
(1.09145 0.337864 8.44079e-21)
(1.16984 0.369757 7.40898e-20)
(1.21403 0.386166 -3.11678e-20)
(1.23372 0.390622 6.66694e-21)
(1.23788 0.386967 2.45565e-20)
(1.23346 0.378445 2.60228e-21)
(1.22507 0.367372 1.29379e-20)
(1.21543 0.355191 4.37702e-20)
(1.20595 0.342702 6.3108e-21)
(0.136611 0.0280751 4.62509e-20)
(0.395605 0.0954734 1.53498e-19)
(0.63396 0.177058 7.4584e-20)
(0.837821 0.255816 1.03423e-20)
(0.996809 0.321182 -5.03422e-20)
(1.10845 0.368187 -8.60278e-20)
(1.17783 0.396451 9.32518e-20)
(1.21438 0.408841 1.46751e-19)
(0.147667 0.0356823 -2.23462e-20)
(0.419896 0.115529 -2.3435e-19)
(0.663138 0.205571 1.22442e-19)
(0.864885 0.288321 -6.93055e-20)
(0.147866 -0.0357292 3.53072e-21)
(0.420386 -0.115654 2.44687e-19)
(0.663805 -0.205745 -3.24318e-20)
(0.86561 -0.288495 1.42202e-20)
(0.1368 -0.0281131 6.66804e-20)
(0.396083 -0.0955812 2.30988e-19)
(0.634626 -0.177217 4.37197e-21)
(0.838563 -0.255987 -9.75491e-20)
(0.997531 -0.321322 -5.50177e-20)
(1.10909 -0.36827 1.10673e-19)
(1.17837 -0.396466 -4.49934e-20)
(1.21483 -0.408794 -8.56306e-21)
(1.22886 -0.409524 -4.68608e-20)
(0.125298 -0.0213042 -5.37425e-20)
(0.369941 -0.0770577 -7.24736e-20)
(0.602006 -0.150127 -1.95962e-19)
(0.806733 -0.224314 3.28549e-20)
(0.971797 -0.28891 1.18241e-19)
(1.09213 -0.337964 2.71736e-20)
(1.17041 -0.369797 -4.57846e-20)
(1.21451 -0.386148 -7.95522e-20)
(1.23413 -0.390557 4.43252e-20)
(1.23825 -0.386872 -7.21857e-21)
(1.23381 -0.378335 -3.79372e-20)
(1.22543 -0.367259 7.0696e-20)
(1.2158 -0.355083 -2.36196e-20)
(1.20635 -0.342605 -2.10521e-20)
(1.19771 -0.330225 -2.9648e-20)
(0.940617 -0.256963 8.22669e-20)
(1.06951 -0.307493 -9.67988e-20)
(1.15723 -0.342577 4.9845e-20)
(1.20978 -0.362815 3.55637e-20)
(1.23592 -0.370942 3.75528e-21)
(1.24447 -0.370396 -2.81514e-20)
(1.2427 -0.364333 -1.98435e-20)
(1.23572 -0.355156 -6.03109e-20)
(1.2267 -0.344453 3.09106e-20)
(1.21741 -0.333158 -1.94964e-20)
(1.2087 -0.321772 3.72335e-20)
(1.20095 -0.310542 -4.6179e-20)
(1.19428 -0.299598 -1.41944e-20)
(1.18865 -0.288989 3.18901e-20)
(1.1839 -0.278677 -3.37155e-20)
(1.1797 -0.268912 -2.45568e-20)
(1.17556 -0.260222 7.53248e-22)
(1.20412 -0.292569 3.71876e-21)
(1.19826 -0.282631 -2.98773e-20)
(1.19326 -0.272923 2.78684e-20)
(1.18882 -0.263664 -4.18634e-21)
(1.18445 -0.255464 -1.06894e-20)
(1.17382 0.222996 -5.71662e-22)
(1.15321 0.204763 3.35331e-21)
(1.14836 0.170933 -2.18717e-21)
(1.14056 0.157046 1.44668e-21)
(1.13481 0.136154 1.85113e-21)
(1.1308 0.122482 -5.00386e-22)
(1.12603 0.109173 -1.66495e-21)
(1.121 0.0974451 6.27507e-22)
(1.11709 0.0863987 6.7434e-22)
(1.11449 0.0770202 -1.21378e-21)
(1.11038 0.0690915 -5.11628e-22)
(1.10603 0.0610049 8.19012e-22)
(1.10221 0.0532048 -2.07528e-22)
(1.09928 0.0463587 -1.35455e-21)
(1.09688 0.0387821 -1.40141e-22)
(1.09542 0.0332499 -7.8115e-22)
(1.09191 0.0267537 -1.86188e-22)
(1.0906 0.0207885 -4.48114e-22)
(1.0888 0.014412 -4.52078e-22)
(1.0897 0.00833598 2.17403e-22)
(1.08745 0.00402927 -7.65307e-22)
(1.16587 0.225498 3.70652e-21)
(1.14675 0.207306 -6.79807e-21)
(1.14306 0.1724 1.62925e-21)
(1.13618 0.158382 1.81361e-21)
(1.13093 0.137113 -5.84195e-24)
(1.12755 0.12326 -9.33275e-23)
(1.12313 0.10991 1.17814e-21)
(1.11835 0.0980635 -3.00677e-22)
(1.11473 0.0868469 2.75736e-22)
(1.11248 0.0774147 1.49285e-21)
(1.10854 0.0695585 2.75018e-21)
(1.10425 0.0614433 -1.59976e-22)
(1.10052 0.0535766 1.00875e-21)
(1.09766 0.0466708 1.17336e-21)
(1.09538 0.0389842 1.22586e-21)
(1.09404 0.0334969 1.31114e-21)
(1.09049 0.0269921 6.56307e-22)
(1.0892 0.0209701 1.76741e-21)
(1.0874 0.0144592 8.82681e-22)
(1.0885 0.00839192 3.80292e-22)
(1.08608 0.00415567 1.76127e-21)
(1.16646 -0.225821 -4.08801e-21)
(1.14737 -0.207609 2.6978e-21)
(1.14398 -0.173531 -1.93156e-21)
(1.136 -0.159061 1.70708e-21)
(1.13185 -0.138567 -1.66316e-22)
(1.12684 -0.125051 1.17632e-22)
(1.12159 -0.111617 1.23607e-21)
(1.11705 -0.0981686 -1.18519e-21)
(1.11428 -0.0887464 1.02501e-21)
(1.10788 -0.0779058 6.51531e-22)
(1.10627 -0.0681715 -6.09118e-22)
(1.10139 -0.0606332 -1.9915e-23)
(1.0998 -0.0509799 9.32854e-22)
(1.09763 -0.0449834 7.36902e-22)
(1.09567 -0.0376194 -6.45073e-22)
(1.09319 -0.0319555 5.41504e-22)
(1.09073 -0.0254079 -6.39426e-22)
(1.08999 -0.0190631 1.6158e-23)
(1.09022 -0.0135937 7.45589e-22)
(1.08914 -0.00865064 -3.70809e-22)
(1.0877 -0.00288531 -1.99437e-24)
(1.17436 -0.223331 9.28358e-22)
(1.15376 -0.205062 7.68559e-22)
(1.14921 -0.172018 -9.93215e-22)
(1.14033 -0.15771 -1.48588e-21)
(1.1356 -0.13752 -1.68362e-21)
(1.13008 -0.124092 4.79951e-22)
(1.12458 -0.110761 -7.55024e-22)
(1.11971 -0.0975463 -4.03746e-22)
(1.11661 -0.0880954 -6.75995e-22)
(1.11017 -0.0773996 -9.10372e-22)
(1.10828 -0.0677936 -1.52271e-21)
(1.10334 -0.0602756 -6.22622e-22)
(1.10157 -0.0508179 -1.71395e-21)
(1.0992 -0.044804 -5.58229e-22)
(1.09713 -0.0374514 -4.3618e-22)
(1.0946 -0.0317606 -1.3434e-21)
(1.09215 -0.0252765 4.42243e-22)
(1.09132 -0.0190417 -1.36503e-21)
(1.09141 -0.0135601 -1.19045e-21)
(1.09034 -0.00855786 -2.41842e-22)
(1.08897 -0.00283877 -1.03257e-21)
)
;

boundaryField
{
    inlet
    {
        type            uniformFixedValue;
        uniformValue    constant (1 0 0);
        value           nonuniform 0();
    }
    outlet
    {
        type            pressureInletOutletVelocity;
        value           nonuniform 0();
    }
    cylinder
    {
        type            fixedValue;
        value           uniform (0 0 0);
    }
    top
    {
        type            symmetryPlane;
    }
    bottom
    {
        type            symmetryPlane;
    }
    defaultFaces
    {
        type            empty;
    }
    procBoundary16to15
    {
        type            processor;
        value           nonuniform List<vector> 
90
(
(1.19728 0.330306 8.55003e-20)
(1.18969 0.318195 3.04748e-20)
(1.18323 0.306463 1.7576e-20)
(1.17785 0.295138 4.42204e-20)
(1.17337 0.284166 4.05793e-20)
(1.16944 0.273814 -3.33416e-20)
(1.16559 0.264606 2.85516e-20)
(1.22847 0.409617 1.29598e-19)
(1.22904 0.402936 -6.7429e-20)
(1.22261 0.392061 -3.70164e-20)
(1.21327 0.37918 -7.87981e-20)
(1.20332 0.36558 3.16648e-20)
(1.19728 0.330306 8.55003e-20)
(1.19387 0.351932 3.68381e-21)
(1.01708 0.353729 6.86848e-20)
(1.11997 0.398084 1.48669e-19)
(1.18091 0.422423 8.45931e-21)
(1.22847 0.409617 1.29598e-19)
(1.21068 0.430727 8.70207e-20)
(0.158114 0.0440358 9.20746e-21)
(0.441996 0.136922 -2.34791e-19)
(0.688531 0.235192 -5.94649e-20)
(1.01708 0.353729 6.86848e-20)
(0.886981 0.321293 -5.68112e-20)
(0.158322 -0.0440918 1.05228e-19)
(0.442492 -0.137063 4.35404e-20)
(0.68919 -0.235377 -3.7581e-20)
(0.887682 -0.321468 1.49369e-19)
(1.01777 -0.35386 1.41693e-19)
(1.01777 -0.35386 1.41693e-19)
(1.12057 -0.398146 7.15637e-20)
(1.18141 -0.42241 -1.47474e-20)
(1.2111 -0.430651 -9.954e-20)
(1.22044 -0.427778 1.37341e-19)
(1.2294 -0.402814 -1.87791e-19)
(1.2294 -0.402814 -1.87791e-19)
(1.22295 -0.391924 6.05833e-22)
(1.21363 -0.379041 1.69201e-20)
(1.20371 -0.365446 -5.58875e-20)
(1.19428 -0.351808 7.67098e-22)
(1.18584 -0.338441 -1.0049e-19)
(1.19014 -0.318134 -2.00317e-20)
(1.19014 -0.318134 -2.00317e-20)
(1.18372 -0.306426 -1.70645e-21)
(1.17837 -0.295127 5.4095e-20)
(1.17392 -0.284186 -2.07295e-20)
(1.17002 -0.273871 2.86359e-20)
(1.16618 -0.264688 -2.87224e-20)
(1.15757 0.227825 -7.19992e-21)
(1.14024 0.209793 3.34455e-21)
(1.13754 0.173832 1.69452e-21)
(1.13186 0.159673 -1.70241e-21)
(1.12699 0.138073 2.31857e-21)
(1.1243 0.124015 -1.16275e-21)
(1.12025 0.110659 -2.39294e-21)
(1.1157 0.098693 1.37243e-21)
(1.11237 0.0872838 -6.80896e-22)
(1.11049 0.0777939 1.91962e-21)
(1.10673 0.0700355 1.60513e-21)
(1.10248 0.0619001 5.19082e-22)
(1.09882 0.0539614 2.39875e-21)
(1.09602 0.0469879 1.0162e-21)
(1.09387 0.0391785 7.29953e-22)
(1.09268 0.0337476 9.08117e-22)
(1.08908 0.0272473 -3.79018e-22)
(1.08778 0.0211618 -9.68436e-22)
(1.086 0.0144934 8.03785e-22)
(1.08729 0.00845051 -1.18621e-21)
(1.08469 0.00430118 -3.38517e-22)
(1.1582 -0.228132 7.24947e-21)
(1.14094 -0.210094 -3.37962e-21)
(1.13855 -0.175009 -1.713e-21)
(1.13171 -0.160358 1.71708e-21)
(1.12806 -0.139611 -1.31812e-21)
(1.12364 -0.126011 -2.08522e-21)
(1.11857 -0.1125 1.93997e-21)
(1.11437 -0.0987868 1.66442e-23)
(1.11197 -0.0894119 1.16315e-21)
(1.10558 -0.078432 -5.96459e-22)
(1.10427 -0.0685536 -1.34495e-21)
(1.09943 -0.0610015 6.92502e-22)
(1.09802 -0.0511303 -1.42374e-21)
(1.09607 -0.0451498 -2.75174e-22)
(1.09421 -0.0377891 1.66729e-21)
(1.09177 -0.0321611 -4.4454e-22)
(1.08929 -0.0255452 -1.99775e-21)
(1.08864 -0.0190706 -2.60741e-21)
(1.08902 -0.0136201 1.11227e-21)
(1.08793 -0.00875578 -2.41656e-21)
(1.08641 -0.00294153 -2.44036e-21)
)
;
    }
    procBoundary16to17
    {
        type            processor;
        value           nonuniform List<vector> 
88
(
(1.21283 0.285361 -2.34799e-22)
(1.20678 0.276046 7.51597e-21)
(1.20157 0.266891 1.88049e-21)
(1.19694 0.258075 1.6086e-20)
(1.19241 0.250314 -2.44368e-22)
(0.729205 0.16477 -2.87029e-20)
(0.903353 0.225678 4.5149e-21)
(1.04037 0.277008 3.22838e-20)
(1.13786 0.31491 2.10237e-20)
(1.1997 0.338869 -4.87417e-20)
(1.2334 0.350741 -2.72716e-20)
(1.24737 0.353462 1.74463e-20)
(1.24905 0.350014 1.95152e-20)
(1.24403 0.342842 1.35215e-20)
(1.23599 0.333671 1.15773e-20)
(1.22708 0.323578 2.50107e-21)
(1.21842 0.313173 -1.00508e-20)
(1.21055 0.302777 1.14932e-20)
(1.21055 0.302777 1.14932e-20)
(0.113375 0.0153206 -1.63218e-20)
(0.341915 0.0601847 7.73469e-20)
(0.565726 0.124652 1.4897e-19)
(0.565726 0.124652 1.4897e-19)
(0.113539 -0.0153425 8.65666e-20)
(0.342353 -0.0602576 -1.06844e-20)
(0.566368 -0.124778 -5.41121e-20)
(0.770401 -0.193841 1.08639e-19)
(0.770401 -0.193841 1.08639e-19)
(0.904133 -0.225824 5.08972e-21)
(1.04111 -0.277131 -9.59687e-21)
(1.13851 -0.314991 5.20369e-21)
(1.20025 -0.338902 1.7712e-20)
(1.23386 -0.350731 1.17533e-20)
(1.24777 -0.353421 6.62781e-20)
(1.24941 -0.349955 -1.05871e-20)
(1.24438 -0.342778 5.53853e-21)
(1.23635 -0.333611 -1.71863e-20)
(1.22745 -0.323529 -2.73798e-21)
(1.21881 -0.31314 2.93002e-21)
(1.21097 -0.302764 -3.10144e-20)
(1.21097 -0.302764 -3.10144e-20)
(1.21325 -0.285391 2.36057e-22)
(1.20722 -0.276102 -7.54082e-21)
(1.20203 -0.266978 -1.8877e-21)
(1.19741 -0.258195 -1.6153e-20)
(1.19289 -0.250461 2.44152e-22)
(1.18151 0.220339 1.90813e-21)
(1.15958 0.202172 5.50771e-23)
(1.15348 0.169436 -6.57376e-22)
(1.14492 0.155678 1.18426e-21)
(1.13863 0.135192 7.4928e-22)
(1.13405 0.121687 -3.10198e-22)
(1.12892 0.108446 5.66101e-22)
(1.12363 0.096836 -1.78549e-22)
(1.11943 0.0859428 7.14286e-22)
(1.11652 0.0766147 2.59553e-22)
(1.11225 0.0686335 5.56569e-22)
(1.10782 0.0605824 6.78956e-22)
(1.10391 0.0528441 4.09935e-22)
(1.1009 0.0460511 -7.68104e-23)
(1.09839 0.0385746 2.29183e-22)
(1.0968 0.0330069 -7.25229e-23)
(1.09332 0.0265294 -2.16119e-23)
(1.09198 0.0206155 3.91401e-22)
(1.09017 0.0143552 4.03964e-22)
(1.09092 0.00828236 7.00624e-23)
(1.0888 0.00391842 1.74032e-22)
(1.18201 -0.22068 -1.91874e-21)
(1.16007 -0.202462 -5.62438e-23)
(1.15426 -0.170472 6.6137e-22)
(1.14465 -0.156322 -1.19096e-21)
(1.13932 -0.136471 -7.51266e-22)
(1.13334 -0.123135 3.09105e-22)
(1.12755 -0.109924 -5.58632e-22)
(1.12237 -0.0969265 1.75325e-22)
(1.11896 -0.0874593 -6.96807e-22)
(1.11246 -0.0769096 -2.4642e-22)
(1.11028 -0.0674201 -5.34589e-22)
(1.10528 -0.059926 -6.56215e-22)
(1.10332 -0.0506462 -4.00462e-22)
(1.10078 -0.0446146 7.48783e-23)
(1.0986 -0.037285 -2.28047e-22)
(1.09601 -0.0315744 7.28256e-23)
(1.09356 -0.0251496 2.20219e-23)
(1.09265 -0.019009 -3.99214e-22)
(1.09262 -0.0135208 -4.16473e-22)
(1.09155 -0.00847509 -7.16914e-23)
(1.09023 -0.00280009 -1.79484e-22)
)
;
    }
}


// ************************************************************************* //
