/*--------------------------------*- C++ -*----------------------------------*\
  =========                 |
  \\      /  F ield         | OpenFOAM: The Open Source CFD Toolbox
   \\    /   O peration     | Website:  https://openfoam.org
    \\  /    A nd           | Version:  7
     \\/     M anipulation  |
\*---------------------------------------------------------------------------*/
FoamFile
{
    version     2.0;
    format      ascii;
    class       surfaceScalarField;
    location    "15";
    object      phi;
}
// * * * * * * * * * * * * * * * * * * * * * * * * * * * * * * * * * * * * * //

dimensions      [0 3 -1 0 0 0 0];

internalField   nonuniform List<scalar> 
607
(
-0.000252669
-0.00394946
-0.00414309
-0.00030748
-0.000228534
-0.00351332
-0.000282257
-0.00370198
-0.000339841
-0.00389188
-0.00040068
-0.000196264
-0.00309448
-0.000246448
-0.00327563
-0.000301958
-0.00345781
-0.000362108
-0.000161781
-0.00269403
-0.000205765
-0.0028695
-0.000255924
-0.00304432
-0.000312122
-0.000129557
-0.00230822
-0.000166334
-0.00248058
-0.000209167
-0.0026512
-0.000258325
-0.00282034
-0.0001311
-0.00210428
-0.000166508
-0.00227281
-0.000207767
-0.00243932
-0.000255237
-0.00260373
-0.000100393
-0.00173897
-0.000129164
-0.00190536
-0.000163111
-0.00207034
-0.000202626
-0.0022333
-0.000248081
-9.66714e-05
-0.00154891
-0.000124238
-0.0017114
-0.000156719
-0.00187288
-0.000194483
-0.00203257
-6.83889e-05
-0.00120634
-9.03953e-05
-0.00136426
-0.000116722
-0.00152258
-0.000147743
-0.00168038
-0.000183804
-0.00183682
-6.11382e-05
-0.00103273
-8.19787e-05
-0.0011855
-0.000106987
-0.00133925
-0.000136518
-0.00149305
-0.000170901
-5.23708e-05
-0.000866071
-7.18702e-05
-0.00101323
-9.54257e-05
-0.00116195
-0.000123378
-0.0013113
-2.83464e-05
-0.000568922
-4.26367e-05
-0.000707061
-6.05695e-05
-0.000848138
-8.24831e-05
-0.000991319
-0.000108705
-0.00113573
-2.00529e-05
-0.000425299
-3.25363e-05
-0.000556439
-4.86335e-05
-0.000690964
-6.86666e-05
-0.000828105
-9.29512e-05
-0.000967035
-1.23677e-05
-0.000291197
-2.27146e-05
-0.000414952
-3.66711e-05
-0.000542482
-5.45442e-05
-0.000673091
-7.66377e-05
-0.000806012
-5.99137e-06
-0.000167311
-1.38508e-05
-0.000283338
-2.53345e-05
-0.000403468
-4.07361e-05
-0.000527081
-6.03481e-05
-0.000653479
-1.63434e-06
-5.42751e-05
-6.64412e-06
-0.000162301
-1.53059e-05
-0.000274676
-2.79021e-05
-0.000390872
-4.47153e-05
-0.000510267
-1.79771e-06
-5.24774e-05
-7.28222e-06
-0.000156816
-1.67268e-05
-0.000265231
-3.04066e-05
-0.000377192
-1.95679e-06
-5.05206e-05
-7.90277e-06
-0.00015087
-1.81073e-05
-0.000255027
-0.000362462
-2.1108e-06
-4.84098e-05
-8.50292e-06
-0.000144478
-1.9441e-05
-0.000244089
-2.25901e-06
-4.61508e-05
-9.07995e-06
-0.000137657
-2.40077e-06
-4.375e-05
-4.12146e-05
4.12146e-05
4.375e-05
-2.40076e-06
4.61508e-05
0.000137657
-2.25901e-06
4.84098e-05
-9.07995e-06
0.000144478
0.000244089
-2.1108e-06
5.05206e-05
-8.50292e-06
0.00015087
-1.9441e-05
0.000255027
0.000362462
-1.95679e-06
5.24774e-05
-7.90277e-06
0.000156816
-1.81073e-05
0.000265231
0.000377192
-1.79771e-06
5.42751e-05
-7.28222e-06
0.000162301
-1.67268e-05
0.000274676
-3.04066e-05
0.000390872
0.000510268
-1.63434e-06
-6.64411e-06
0.000167311
-1.53059e-05
0.000283338
-2.79021e-05
0.000403468
-4.47153e-05
0.000527081
0.000653479
-5.99137e-06
-1.38508e-05
0.000291197
-2.53345e-05
0.000414952
-4.07361e-05
0.000542482
-6.03481e-05
0.000673091
0.000806012
-1.23677e-05
-2.27146e-05
0.000425299
-3.66711e-05
0.000556439
-5.45442e-05
0.000690964
-7.66376e-05
0.000828105
0.000967035
-2.00529e-05
-3.25363e-05
0.000568922
-4.86335e-05
0.000707061
-6.86666e-05
0.000848138
-9.29511e-05
0.000991319
0.00113573
-2.83464e-05
-4.26366e-05
-6.05695e-05
0.000866071
-8.24831e-05
0.00101323
-0.000108705
0.00116195
0.0013113
-5.23708e-05
-7.18701e-05
0.00103273
-9.54256e-05
0.0011855
-0.000123378
0.00133925
-0.000156044
0.00149305
0.001646
-6.11382e-05
-8.19787e-05
0.00120634
-0.000106987
0.00136426
-0.000136518
0.00152258
-0.0001709
0.00168038
0.00183682
-6.83889e-05
-9.03952e-05
-0.000116722
0.00154891
-0.000147743
0.0017114
-0.000183804
0.00187288
0.00203257
-9.66713e-05
-0.000124238
0.00173897
-0.000156719
0.00190536
-0.000194483
0.00207034
0.0022333
-0.000100393
-0.000129164
-0.000163111
0.00210428
-0.000202626
0.00227281
-0.000248081
0.00243932
0.00260373
-0.0001311
-0.000166508
-0.000207767
0.00248058
-0.000255237
0.0026512
0.00282034
-0.000166333
-0.000209167
0.00269403
-0.000258324
0.0028695
-0.000313944
0.00304432
0.00321943
-0.000161781
-0.000205765
-0.000255924
0.00309448
-0.000312122
0.00327563
0.00345781
-0.000196264
-0.000246448
-0.000301958
0.00351332
-0.000362108
0.00370198
0.00389188
-0.000228533
-0.000282257
-0.000339841
0.00394946
0.00414309
-0.00040068
-0.000252669
-0.000307479
-0.000292678
-0.00889006
-0.00036027
-0.00892407
-0.00893852
-0.000388636
-0.0088089
-0.000456708
-0.008856
-0.000510532
-0.0088847
-0.000551826
-0.00890787
-0.000582312
-0.00892864
-0.000603838
-0.00894593
-0.000618029
-0.00895845
-0.000626232
-0.00896568
-0.000629519
-0.0089678
-0.000628722
-0.0089654
-0.000624497
-0.00895926
-0.000617363
-0.00895014
-0.00060774
-0.00893875
-0.00059597
-0.00892569
-0.000582337
-0.00891143
-0.00056708
-0.00889637
-0.0005504
-0.00888081
-0.000532473
-0.008865
-0.00051345
-0.00884912
-0.00049346
-0.00883335
-0.00047262
-0.00881781
-0.000451028
-0.00880261
-0.000428775
-0.00878785
-0.000405936
-0.00877362
-0.000382583
-0.00875998
-0.000358774
-0.00874699
-0.000334566
-0.00873472
-0.000310005
-0.0087232
-0.000285135
-0.00871248
-0.000259995
-0.00870259
-0.000234619
-0.00869357
-0.000209039
-0.00868545
-0.000183284
-0.00867824
-0.000157379
-0.00867197
-0.000131349
-0.00866665
-0.000105214
-0.0086623
-7.8995e-05
-0.00865892
-5.27088e-05
-0.00865652
-2.63719e-05
-0.00865507
-0.00865455
-0.000483327
-0.000551633
-0.000604786
-0.000644855
-0.000673748
-0.000693401
-0.000705508
-0.000711463
-0.000712367
-0.000709082
-0.000702286
-0.000692519
-0.000680214
-0.000665727
-0.000649353
-0.000631338
-0.00061189
-0.000591191
-0.000569394
-0.000546633
-0.000523027
-0.000498677
-0.000473674
-0.000448097
-0.000422015
-0.000395491
-0.000368578
-0.000341326
-0.000313778
-0.000285973
-0.000257945
-0.000229726
-0.000201344
-0.00870662
-0.000172825
-0.00870049
-0.000144192
-0.00869528
-0.000115467
-0.00869102
-8.66689e-05
-0.00868772
-5.78152e-05
-0.00868537
-2.89208e-05
-0.00868396
-0.00868347
-0.000219057
-0.00018797
-0.000156783
-0.000125517
-9.41893e-05
-6.28181e-05
-3.14177e-05
-0.00046074
0.00878606
-0.000431543
0.00877352
-0.00040197
0.00876163
-0.000372072
0.00875045
-0.000341891
0.00874003
-0.000311465
0.0087304
-0.000280831
0.0087216
-0.000250019
0.00871367
-0.000219057
0.00870662
-0.00018797
0.00870049
-0.000156783
0.00869528
-0.000125517
0.00869102
-9.41893e-05
0.00868772
-6.28181e-05
0.00868537
-3.14177e-05
0.00868396
0.00868347
-0.000483327
0.0088089
-0.000551633
0.008856
-0.000604786
0.0088847
-0.000644855
0.00890787
-0.000673748
0.00892864
-0.000693401
0.00894593
-0.000705508
0.00895845
-0.000711463
0.00896568
-0.000712367
0.0089678
-0.000709082
0.0089654
-0.000702286
0.00895926
-0.000692519
0.00895014
-0.000680214
0.00893875
-0.000665727
0.00892569
-0.000649353
0.00891143
-0.000631337
0.00889637
-0.00061189
0.00888081
-0.000591191
0.008865
-0.000569394
0.00884912
-0.000546633
0.00883335
-0.000523027
0.00881781
-0.000498677
0.00880261
-0.000473674
0.00878785
-0.000448097
0.00877362
-0.000422015
0.00875998
-0.000395491
0.00874699
-0.000368578
0.00873472
-0.000341326
0.0087232
-0.000313778
0.00871248
-0.000285973
0.00870259
-0.000257945
0.00869357
-0.000229726
0.00868545
-0.000201344
0.00867824
-0.000172825
0.00867197
-0.000144192
0.00866665
-0.000115467
0.0086623
-8.66689e-05
-5.78152e-05
-2.89208e-05
-0.000388636
-0.000456708
-0.000510532
-0.000551826
-0.000582312
-0.000603838
-0.000618029
-0.000626232
-0.000629519
-0.000628722
-0.000624497
-0.000617363
-0.00060774
-0.00059597
-0.000582337
-0.00056708
-0.0005504
-0.000532473
-0.00051345
-0.00049346
-0.00047262
-0.000451028
-0.000428775
-0.000405936
-0.000382583
-0.000358774
-0.000334566
-0.000310005
-0.000285135
-0.000259995
-0.000234619
-0.000209039
-0.000183284
-0.000157379
-0.000131349
)
;

boundaryField
{
    inlet
    {
        type            calculated;
        value           nonuniform 0();
    }
    outlet
    {
        type            calculated;
        value           nonuniform 0();
    }
    cylinder
    {
        type            calculated;
        value           uniform 0;
    }
    top
    {
        type            symmetryPlane;
        value           uniform 0;
    }
    bottom
    {
        type            symmetryPlane;
        value           uniform 0;
    }
    defaultFaces
    {
        type            empty;
        value           nonuniform 0();
    }
    procBoundary8to7
    {
        type            processor;
        value           nonuniform List<scalar> 
172
(
-0.00408225
-0.00364183
-0.000426025
-0.00382796
-0.00321943
-0.000373932
-0.00339601
-0.000313944
-0.0029887
-0.000309224
-0.00276636
-0.00239387
-0.000299834
-0.00255198
-0.000237876
-0.0021899
-0.00022522
-0.00199116
-0.001646
-0.000210428
-0.00179729
-0.000156044
-0.00146038
-0.000139544
-0.00128046
-0.000121788
-0.00110689
-0.000103244
-0.000940428
-8.44555e-05
-0.000781904
-6.60231e-05
-0.000632171
-4.85926e-05
-0.000492081
-3.28372e-05
-3.51834e-05
-0.00034672
-2.07223e-05
-0.000232446
-9.63132e-06
-0.000130427
-2.53543e-06
-2.66245e-06
-3.85521e-05
-3.85521e-05
-2.66245e-06
-2.53543e-06
-0.000130427
-9.63132e-06
-0.000232446
-2.07223e-05
-0.00034672
-3.51834e-05
-3.28372e-05
-0.000492082
-4.85925e-05
-0.000632171
-6.60231e-05
-0.000781904
-8.44554e-05
-0.000940428
-0.000103244
-0.00110689
-0.000121788
-0.00128046
-0.000139544
-0.00146039
-0.00160834
-0.000193706
-0.00179729
-0.000210428
-0.00199116
-0.00022522
-0.0021899
-0.000237876
-0.00239387
-0.00255198
-0.000299834
-0.00276636
-0.000309224
-0.0029887
-0.00315741
-0.000375962
-0.00339601
-0.000373932
-0.00364183
-0.00382796
-0.000426025
-0.00408225
-0.00872626
-0.00878769
-0.00883154
-0.0088678
-0.00889975
-0.00892628
-0.00894634
-0.00895972
-0.0089669
-0.00896869
-0.00896605
-0.00895991
-0.00895106
-0.00894017
-0.00892781
-0.00891439
-0.00890026
-0.0088857
-0.00887092
-0.00885611
-0.00884141
-0.00882696
-0.00881286
-0.0087992
-0.00878606
-0.00877352
-0.00876163
-0.00875045
-0.00874003
-0.0087304
-0.0087216
-0.00871367
0.000250019
-0.00873758
-0.00873157
-0.00872647
-0.00872229
-0.00871905
-0.00871674
-0.00871537
-0.00871489
-0.00881483
-0.00880271
-0.0087912
-0.00878035
-0.00877021
-0.00876082
-0.00875224
-0.00874448
-0.00873758
-0.00873157
-0.00872647
-0.00872229
-0.00871905
-0.00871674
-0.00871537
-0.00871489
-0.00872626
-0.00878769
-0.00883154
-0.0088678
-0.00889975
-0.00892628
-0.00894634
-0.00895972
-0.0089669
-0.00896869
-0.00896605
-0.00895991
-0.00895106
-0.00894017
-0.00892781
-0.00891439
-0.00890026
-0.0088857
-0.00887092
-0.00885611
-0.00884141
-0.00882696
-0.00881286
0.000489506
-0.0087992
)
;
    }
    procBoundary8to9
    {
        type            processor;
        value           nonuniform List<scalar> 
161
(
0.00400077
0.0041979
0.000213466
0.00356249
0.000201363
0.0037557
0.00313892
0.000179365
0.00332581
0.00273192
0.000151825
0.00291348
0.00233929
0.000123892
0.00251736
9.84871e-05
0.00213424
0.00176298
0.00010115
0.00193413
7.63827e-05
0.00157196
0.00122442
7.36234e-05
0.00138627
5.03097e-05
0.00104978
4.4092e-05
0.000881869
0.000579909
3.65726e-05
0.000721351
1.73593e-05
0.000434489
1.08628e-05
0.000298238
5.32689e-06
0.000171835
1.46743e-06
5.59094e-05
5.59094e-05
1.46743e-06
0.000171835
5.32689e-06
0.000298238
1.08628e-05
0.000434489
1.73593e-05
0.000579909
0.000721351
3.65726e-05
0.000881869
4.40919e-05
0.00104978
5.03097e-05
0.00122442
0.00138627
7.36233e-05
0.00157196
7.63826e-05
0.00176298
0.00193413
0.00010115
0.00213424
0.00230822
0.000129557
0.00251736
0.000123892
0.00273192
0.00291348
0.000151825
0.00313892
0.00332581
0.000179365
0.00356249
0.0037557
0.000201363
0.00400077
0.0041979
0.00896927
0.00899167
0.00899292
-0.000414672
0.00894916
0.00895913
0.00896746
0.00897264
0.00897388
0.00897109
0.00896461
0.00895503
0.00894301
0.00892913
0.00891392
0.0088978
0.00888112
0.00886413
0.00884707
0.0088301
0.00881336
0.00879697
0.00878102
0.0087656
0.00875078
0.00873662
0.00872318
0.00871051
0.00869864
0.00868761
0.00867745
0.0086682
0.00865987
0.00865248
0.00864606
0.00864062
0.00863616
0.0086327
0.00863023
0.00862873
0.00862818
0.00865892
0.00865652
0.00865507
0.00865455
0.00889006
0.00892407
0.00893852
0.00894916
0.00895913
0.00896746
0.00897264
0.00897388
0.00897109
0.00896461
0.00895503
0.00894301
0.00892913
0.00891392
0.0088978
0.00888112
0.00886413
0.00884707
0.0088301
0.00881336
0.00879697
0.00878102
0.0087656
0.00875078
0.00873662
0.00872318
0.00871051
0.00869864
0.00868761
0.00867745
0.0086682
0.00865987
0.00865248
0.00864606
0.00864062
-0.000105214
0.00863616
)
;
    }
}


// ************************************************************************* //
