/*--------------------------------*- C++ -*----------------------------------*\
  =========                 |
  \\      /  F ield         | OpenFOAM: The Open Source CFD Toolbox
   \\    /   O peration     | Website:  https://openfoam.org
    \\  /    A nd           | Version:  7
     \\/     M anipulation  |
\*---------------------------------------------------------------------------*/
FoamFile
{
    version     2.0;
    format      ascii;
    class       volVectorField;
    location    "54";
    object      U;
}
// * * * * * * * * * * * * * * * * * * * * * * * * * * * * * * * * * * * * * //

dimensions      [0 1 -1 0 0 0 0];

internalField   nonuniform List<vector> 
40000
(
(-0.000178862 0.000473571 -1.84202e-21)
(-0.00111497 0.00128916 5.70671e-21)
(-0.00311264 0.0019945 -3.64222e-21)
(-0.00592969 0.00259816 -3.92394e-24)
(-0.00943268 0.0031072 -1.11341e-24)
(-0.0135316 0.00352844 2.87259e-24)
(-0.0181333 0.00386905 -6.05534e-21)
(-0.0231467 0.00413638 1.4398e-21)
(-0.0284875 0.00433783 -4.111e-21)
(-0.0340773 0.00448076 -1.30073e-21)
(-0.0398435 0.00457242 0)
(-0.0457199 0.00461977 -4.68573e-21)
(-0.0516462 0.0046294 0)
(-0.0575681 0.00460738 0)
(-0.0634373 0.00455922 -3.97282e-21)
(-0.0692109 0.00448977 3.75392e-21)
(-0.0748518 0.00440323 -1.77258e-21)
(-0.0803281 0.0043032 -1.52199e-24)
(-0.0856136 0.00419276 1.57499e-21)
(-0.0906875 0.00407457 0)
(-0.0955355 0.00395103 -1.3975e-21)
(-0.10015 0.00382444 -3.9438e-21)
(-0.10453 0.00369707 4.94159e-21)
(-0.108685 0.00357126 -2.32047e-21)
(-0.112634 0.00344934 6.53413e-21)
(-0.116404 0.00333344 4.08661e-21)
(-0.120034 0.0032251 -7.66209e-21)
(-0.123572 0.00312447 7.17884e-21)
(-0.127065 0.00303005 -1.68009e-21)
(-0.130582 0.00294139 -3.15174e-21)
(-0.000212385 0.00104879 0)
(-0.0012012 0.00285268 3.80902e-21)
(-0.00323516 0.00440628 7.29797e-21)
(-0.00607507 0.00573131 -6.96476e-21)
(-0.00958933 0.00684462 -3.33791e-21)
(-0.0136892 0.00776179 1.27094e-20)
(-0.0182828 0.00849878 -3.03413e-21)
(-0.0232802 0.00907163 -5.77731e-21)
(-0.028598 0.0094962 -9.51265e-24)
(-0.0341585 0.00978806 -1.56336e-20)
(-0.0398901 0.00996234 4.94001e-21)
(-0.045727 0.0100336 1.8752e-20)
(-0.0516095 0.0100154 -8.87909e-21)
(-0.0574838 0.00992082 -4.65818e-24)
(-0.0633016 0.00976147 -3.98149e-21)
(-0.0690203 0.00954816 -1.23059e-24)
(-0.0746029 0.00929065 0)
(-0.0800173 0.00899786 0)
(-0.085237 0.0086781 1.26151e-20)
(-0.0902411 0.00833937 0)
(-0.0950145 0.00798971 5.59241e-21)
(-0.0995487 0.00763752 -5.25942e-21)
(-0.103843 0.00729183 -1.14636e-25)
(-0.107905 0.00696238 0)
(-0.111753 0.00665939 8.71919e-21)
(-0.115415 0.006393 -8.17389e-21)
(-0.118929 0.00617205 7.66208e-21)
(-0.122344 0.00600159 -7.17882e-21)
(-0.125705 0.00588279 6.72396e-21)
(-0.129084 0.00582163 -1.89169e-20)
(-0.000274386 0.00161498 -7.38592e-21)
(-0.00136102 0.00439271 -7.61206e-21)
(-0.00346283 0.00678331 0)
(-0.00634602 0.00882111 0)
(-0.00988222 0.0105323 0)
(-0.013985 0.011941 6.37217e-21)
(-0.0185645 0.0130715 0)
(-0.0235329 0.0139482 5.7688e-21)
(-0.0288084 0.0145954 1.0971e-20)
(-0.0343149 0.0150365 1.04216e-20)
(-0.0399819 0.0152943 0)
(-0.0457448 0.0153909 8.16898e-24)
(-0.0515448 0.0153468 -1.778e-20)
(-0.0573286 0.0151816 1.68277e-20)
(-0.0630485 0.0149131 7.95004e-21)
(-0.0686623 0.014558 7.51817e-21)
(-0.0741327 0.0141315 -7.09115e-21)
(-0.0794277 0.0136475 1.33925e-20)
(-0.0845202 0.0131197 -2.52398e-20)
(-0.0893884 0.012561 -1.1331e-24)
(-0.0940163 0.0119852 -2.23784e-20)
(-0.0983941 0.0114065 2.10567e-20)
(-0.10252 0.0108408 0)
(-0.106399 0.0103053 0)
(-0.110048 0.00981837 8.72991e-21)
(-0.113495 0.00939876 0)
(-0.116779 0.00906329 0)
(-0.119949 0.00882289 0)
(-0.123047 0.00868249 -1.34607e-20)
(-0.12615 0.00865513 1.26107e-20)
(-0.000363895 0.00216703 7.38592e-21)
(-0.00159203 0.00589588 6.82045e-24)
(-0.00379239 0.00910573 3.67374e-23)
(-0.0067388 0.0118427 -1.39585e-20)
(-0.0103074 0.0141417 -1.3338e-20)
(-0.014415 0.0160345 1.77769e-23)
(-0.0189747 0.0175537 -2.42779e-20)
(-0.0239014 0.0187317 1.15635e-20)
(-0.0291156 0.0196004 -2.19899e-20)
(-0.0345435 0.0201909 2.08874e-20)
(-0.0401163 0.0205337 -9.90959e-21)
(-0.0457708 0.0206576 1.87908e-20)
(-0.0514495 0.0205902 1.778e-20)
(-0.0571001 0.0203574 1.84501e-23)
(-0.0626756 0.0199831 -1.59301e-20)
(-0.0681341 0.0194894 0)
(-0.0734384 0.0188967 1.71711e-24)
(-0.0785562 0.0182242 1.34037e-20)
(-0.0834595 0.01749 -4.53879e-26)
(-0.0881257 0.0167124 -9.08627e-24)
(-0.0925369 0.0159101 2.23879e-20)
(-0.0966815 0.0151033 -2.10567e-20)
(-0.100555 0.0143146 0)
(-0.104161 0.0135687 1.86048e-20)
(-0.107513 0.0128928 7.5443e-24)
(-0.110638 0.0123148 -4.91227e-20)
(-0.113576 0.011861 1.53478e-20)
(-0.116378 0.0115497 2.87703e-20)
(-0.119079 0.0113916 1.34606e-20)
(-0.121764 0.011408 1.26272e-20)
(-0.000479528 0.00270009 2.96654e-20)
(-0.00189081 0.00734943 -1.52867e-20)
(-0.00421917 0.0113546 1.46178e-20)
(-0.00724803 0.0147721 1.39885e-20)
(-0.0108592 0.0176449 0)
(-0.0149736 0.020012 -2.55406e-20)
(-0.0195078 0.0219132 -1.21884e-20)
(-0.0243805 0.0233884 -2.3148e-20)
(-0.029515 0.0244768 1.09947e-20)
(-0.03484 0.0252169 3.12611e-23)
(-0.0402892 0.0256459 1.98498e-20)
(-0.0458012 0.0257999 1.88403e-20)
(-0.0513201 0.0257126 -3.56214e-20)
(-0.0567948 0.0254162 1.68698e-20)
(-0.0621792 0.0249403 -2.08786e-23)
(-0.0674319 0.0243122 0)
(-0.0725157 0.0235575 -1.42105e-20)
(-0.0773979 0.0226998 -2.68445e-20)
(-0.0820498 0.0217619 3.79531e-20)
(-0.0864469 0.0207667 1.19293e-20)
(-0.0905696 0.0197376 0)
(-0.0944036 0.0187007 -2.1099e-20)
(-0.0979411 0.0176847 0)
(-0.101183 0.0167223 -5.58432e-20)
(-0.104139 0.0158499 3.49387e-20)
(-0.106833 0.0151058 -6.45676e-24)
(-0.109308 0.0145275 3.07334e-20)
(-0.111616 0.014143 -4.3159e-20)
(-0.113784 0.013972 2.69595e-20)
(-0.115905 0.0140463 1.26308e-20)
(-0.000619522 0.00320965 -1.48532e-20)
(-0.00225301 0.00874148 1.52873e-20)
(-0.00473718 0.013512 -2.6038e-24)
(-0.00786683 0.0175868 -4.21016e-20)
(-0.0115305 0.0210159 0)
(-0.0156535 0.0238443 2.55406e-20)
(-0.0201571 0.0261187 -2.44222e-20)
(-0.0249637 0.0278857 4.63314e-20)
(-0.0300004 0.0291912 0)
(-0.0351989 0.0300805 -2.09186e-20)
(-0.0404954 0.0305974 -1.98498e-20)
(-0.0458311 0.0307842 -1.88182e-20)
(-0.0511517 0.0306811 -5.3553e-20)
(-0.0564077 0.0303259 3.50257e-24)
(-0.0615541 0.0297535 -1.88556e-23)
(-0.06655 0.0289965 -1.41895e-23)
(-0.0713583 0.0280848 4.27289e-20)
(-0.0759459 0.0270465 -3.7986e-23)
(-0.080283 0.0259084 3.48402e-23)
(-0.0843435 0.0246975 -2.38247e-20)
(-0.088105 0.0234419 -2.24211e-23)
(-0.0915499 0.0221723 4.2214e-20)
(-0.0946667 0.020924 -5.95431e-20)
(-0.0974516 0.0197374 1.86233e-20)
(-0.0999108 0.0186585 0)
(-0.102065 0.0177377 0)
(-0.103955 0.0170258 -3.07331e-20)
(-0.105639 0.0165639 2.88152e-20)
(-0.107133 0.0163852 -2.69572e-20)
(-0.108538 0.016536 0)
(-0.000781786 0.00369163 -1.49083e-20)
(-0.00267344 0.0100612 0)
(-0.00533932 0.0155615 1.46859e-20)
(-0.00858701 0.020266 8.43931e-20)
(-0.0123124 0.0242299 -2.68327e-20)
(-0.016446 0.0275041 0)
(-0.020914 0.0301407 -5.41398e-23)
(-0.0256431 0.0321925 2.32443e-20)
(-0.0305644 0.0337114 -2.20717e-20)
(-0.0356131 0.0347489 0)
(-0.0407284 0.0353549 0)
(-0.0458541 0.0355777 -3.77701e-20)
(-0.050938 0.0354631 5.35833e-20)
(-0.0559324 0.0350544 -1.69009e-20)
(-0.0607934 0.0343917 0)
(-0.0654808 0.033512 3.02236e-20)
(-0.0699579 0.0324496 -2.84734e-20)
(-0.0741908 0.0312363 2.69035e-20)
(-0.0781486 0.0299027 -5.06867e-20)
(-0.081803 0.0284792 -7.16697e-20)
(-0.0851291 0.0269976 2.24621e-20)
(-0.0881051 0.0254934 2.11421e-20)
(-0.0907149 0.0240072 1.98436e-20)
(-0.0929491 0.0225872 0)
(-0.0948085 0.0212896 -3.50331e-20)
(-0.0963084 0.0201782 0)
(-0.0974903 0.01932 0)
(-0.0984173 0.0187738 -5.76529e-20)
(-0.0990897 0.0185923 -1.14008e-23)
(-0.0996158 0.0188428 -7.58817e-20)
(-0.000963956 0.00414246 1.49083e-20)
(-0.00314623 0.0112989 3.08424e-20)
(-0.00601752 0.0174886 2.95324e-20)
(-0.00939923 0.0227906 -2.81582e-20)
(-0.0131952 0.0272646 0)
(-0.0173412 0.0309659 0)
(-0.0217687 0.0339515 2.44381e-20)
(-0.0264093 0.0362792 -2.32963e-20)
(-0.0311982 0.0380066 -3.96758e-23)
(-0.0360743 0.0391904 4.20893e-20)
(-0.0409802 0.0398862 0)
(-0.0458623 0.0401478 3.777e-20)
(-0.0506712 0.0400263 0)
(-0.0553606 0.03957 0)
(-0.0598882 0.0388237 1.8381e-23)
(-0.0642146 0.0378286 3.02506e-20)
(-0.0683032 0.0366227 -2.85793e-20)
(-0.0721196 0.0352415 5.3908e-20)
(-0.0756317 0.0337183 -2.54059e-20)
(-0.0788089 0.0320864 7.17159e-20)
(-0.0816229 0.0303808 0)
(-0.0840478 0.0286405 0)
(-0.0860616 0.0269111 3.98132e-20)
(-0.0876486 0.0252479 0)
(-0.0888026 0.0237172 3.50076e-20)
(-0.0895322 0.022398 -3.28727e-20)
(-0.0898768 0.0213766 3.07961e-20)
(-0.0899061 0.0207351 -2.88573e-20)
(-0.0896038 0.0205538 5.40016e-20)
(-0.0890711 0.0209315 7.59325e-20)
(-0.00116346 0.00455913 0)
(-0.00366497 0.0124465 -3.08424e-20)
(-0.00676293 0.0192805 9.32636e-23)
(-0.0102932 0.0251439 0)
(-0.0141678 0.0300999 -5.40617e-20)
(-0.018328 0.0342068 -3.47498e-23)
(-0.0227105 0.0375256 2.45146e-20)
(-0.0272518 0.0401185 0)
(-0.0318916 0.0420475 2.21607e-20)
(-0.0365727 0.0433746 -4.20891e-20)
(-0.0412412 0.0441601 0)
(-0.0458465 0.0444628 0)
(-0.0503415 0.0443389 -3.5897e-20)
(-0.0546821 0.043841 3.39368e-20)
(-0.0588274 0.0430182 -3.20665e-20)
(-0.0627388 0.0419157 0)
(-0.0663798 0.0405749 -2.86685e-20)
(-0.0697158 0.0390339 -8.09611e-20)
(-0.072713 0.0373286 -1.51733e-23)
(-0.0753386 0.0354945 -1.18367e-23)
(-0.0775607 0.0335685 2.25422e-20)
(-0.0793485 0.0315923 4.24056e-20)
(-0.0806738 0.0296154 -7.96513e-20)
(-0.0815132 0.027699 3.74327e-20)
(-0.0818519 0.0259198 -1.47855e-23)
(-0.0816897 0.0243722 1.41411e-23)
(-0.0810619 0.0231658 1.56945e-23)
(-0.0800459 0.0224125 2.88783e-20)
(-0.0786077 0.0222307 0)
(-0.0768122 0.0227646 0)
(-0.00137759 0.00493925 3.0111e-20)
(-0.00422289 0.0134972 9.96809e-23)
(-0.00756617 0.0209264 1.01007e-22)
(-0.011258 0.0273118 -5.68018e-20)
(-0.0152184 0.0327181 5.41044e-20)
(-0.0193942 0.0372061 0)
(-0.0237272 0.0408398 0)
(-0.0281589 0.0436847 4.6833e-20)
(-0.0326333 0.045807 -4.44704e-20)
(-0.0370974 0.0472726 4.00621e-23)
(-0.0415006 0.0481466 8.01838e-20)
(-0.0457954 0.048492 3.79947e-20)
(-0.0499372 0.0483695 -7.19271e-20)
(-0.0538842 0.0478358 3.40129e-20)
(-0.0575967 0.0469441 3.2178e-20)
(-0.0610372 0.0457429 -3.0373e-20)
(-0.0641693 0.0442764 5.72997e-20)
(-0.0669577 0.0425853 8.12027e-20)
(-0.0693672 0.0407072 5.10404e-20)
(-0.0713626 0.0386789 2.40166e-20)
(-0.0729081 0.0365386 -4.5162e-20)
(-0.0739677 0.0343292 0)
(-0.0745063 0.0321026 3.35155e-23)
(-0.0744919 0.0299247 3.75129e-20)
(-0.0738995 0.0278812 3.51287e-20)
(-0.0727177 0.0260825 -6.59298e-20)
(-0.070974 0.0246641 -3.08663e-20)
(-0.0687559 0.0237763 5.77954e-20)
(-0.0660153 0.023586 0)
(-0.0627156 0.0242989 -5.05997e-20)
(-0.00160359 0.00528108 3.01888e-20)
(-0.00481302 0.014446 -6.2195e-20)
(-0.00841753 0.0224181 2.38772e-23)
(-0.0122822 0.0292824 -9.93464e-23)
(-0.0163347 0.0351045 0)
(-0.020527 0.0399462 0)
(-0.0248059 0.0438737 0)
(-0.0291176 0.0469551 -4.69672e-20)
(-0.0334106 0.0492599 4.45979e-20)
(-0.0376355 0.0508576 -4.23026e-20)
(-0.0417452 0.0518171 -8.03191e-20)
(-0.0456955 0.0522055 -2.65896e-23)
(-0.0494441 0.0520874 7.21345e-20)
(-0.0529513 0.0515235 3.41466e-20)
(-0.0561788 0.0505702 0)
(-0.0590898 0.0492792 -6.0967e-20)
(-0.0616482 0.0476973 8.62818e-20)
(-0.0638178 0.045867 -8.12406e-20)
(-0.065562 0.0438273 -5.10666e-20)
(-0.0668428 0.0416155 -1.44318e-19)
(-0.0676205 0.03927 -8.71498e-24)
(-0.0678536 0.0368335 -9.1325e-25)
(-0.0674995 0.0343586 3.20882e-23)
(-0.0665167 0.0319139 -7.49839e-20)
(-0.0648686 0.0295922 1.05594e-19)
(-0.0625299 0.0275189 -6.61954e-23)
(-0.0595159 0.0258581 0)
(-0.0559271 0.0248059 -5.77944e-20)
(-0.0517208 0.0245894 5.40723e-20)
(-0.0466212 0.0254927 5.08403e-20)
(-0.00183869 0.00558356 0)
(-0.00542837 0.0152893 -3.12594e-20)
(-0.00930719 0.0237493 2.98643e-20)
(-0.013354 0.031047 5.70962e-20)
(-0.0175039 0.0372472 2.73112e-20)
(-0.021713 0.0424123 -5.19599e-20)
(-0.0259328 0.0466095 -6.37641e-23)
(-0.0301141 0.0499092 -4.70733e-20)
(-0.0342092 0.0523833 0)
(-0.0381725 0.0541043 4.25441e-20)
(-0.0419603 0.0551445 0)
(-0.0455311 0.0555748 0)
(-0.0488451 0.0554629 -7.2285e-20)
(-0.0518643 0.0548733 -6.83434e-20)
(-0.0545519 0.0538654 9.70069e-20)
(-0.0568716 0.0524937 6.09665e-20)
(-0.0587873 0.0508073 7.46462e-23)
(-0.0602618 0.04885 -5.42988e-20)
(-0.0612567 0.0466618 1.02307e-19)
(-0.0617311 0.0442799 3.5295e-24)
(-0.0616411 0.0417418 9.06918e-20)
(-0.0609393 0.0390888 0)
(-0.0595755 0.0363723 0)
(-0.0574978 0.0336609 7.51735e-20)
(-0.054657 0.0310515 -1.05609e-19)
(-0.0510113 0.0286823 9.89932e-20)
(-0.0465571 0.0267467 -6.18194e-20)
(-0.0414096 0.0254908 5.7844e-20)
(-0.0355861 0.0252174 -1.08153e-19)
(-0.0283562 0.0263745 5.09001e-20)
(-0.00208025 0.0058463 -3.05123e-20)
(-0.00606212 0.0160255 0)
(-0.0102255 0.0249164 0)
(-0.014462 0.0325993 -5.74593e-20)
(-0.0187129 0.0391373 1.09588e-19)
(-0.0229382 0.0445925 -5.21455e-20)
(-0.0270935 0.0490327 -9.99356e-23)
(-0.0311332 0.0525295 4.72288e-20)
(-0.0350136 0.0551568 0)
(-0.0386922 0.0569899 7.36297e-23)
(-0.0421284 0.0581039 1.96077e-23)
(-0.0452833 0.0585727 -7.65585e-20)
(-0.0481193 0.0584674 -1.52364e-22)
(-0.0505999 0.0578554 -3.42802e-20)
(-0.0526894 0.0567992 -9.71778e-20)
(-0.0543518 0.0553556 6.11848e-20)
(-0.0555504 0.0535757 -5.77093e-20)
(-0.0562468 0.0515048 1.08911e-19)
(-0.0564004 0.0491831 -1.02591e-19)
(-0.055967 0.0466474 -9.65408e-20)
(-0.0548982 0.0439334 3.74886e-23)
(-0.0531405 0.0410799 -4.26816e-20)
(-0.0506354 0.0381351 4.00706e-20)
(-0.0473205 0.0351648 7.16882e-23)
(-0.0431325 0.032266 -1.05843e-19)
(-0.0380116 0.0295855 -6.60917e-20)
(-0.0319293 0.0273424 1.23669e-19)
(-0.0250021 0.0258256 -1.15696e-19)
(-0.0173552 0.0254261 5.40809e-20)
(-0.00779458 0.0271271 6.47668e-23)
(-0.00232579 0.00606958 9.17006e-20)
(-0.0067078 0.0166544 -3.14657e-20)
(-0.0111631 0.0259179 -6.02932e-20)
(-0.0155945 0.0339358 1.72689e-19)
(-0.0199487 0.0407689 2.11852e-22)
(-0.0241884 0.0464783 0)
(-0.0282724 0.0511315 0)
(-0.0321586 0.0548013 4.74146e-20)
(-0.0358061 0.057563 -4.49566e-20)
(-0.0391756 0.0594941 4.27296e-20)
(-0.0422291 0.0606722 -4.05289e-20)
(-0.0449297 0.0611741 -7.68953e-20)
(-0.0472417 0.0610736 1.45232e-19)
(-0.0491298 0.0604411 -3.43535e-20)
(-0.0505587 0.0593416 6.47887e-20)
(-0.0514923 0.0578344 -1.22622e-19)
(-0.0518928 0.0559723 -1.60544e-23)
(-0.0517201 0.0538017 4.87342e-23)
(-0.0509306 0.0513632 1.027e-19)
(-0.0494762 0.0486927 -4.19807e-23)
(-0.0473035 0.0458239 0)
(-0.0443524 0.0427921 0)
(-0.040556 0.0396404 -4.02104e-20)
(-0.0358406 0.0364292 -1.50584e-19)
(-0.0301288 0.0332508 1.05883e-19)
(-0.0233413 0.0302547 -5.06833e-23)
(-0.0154283 0.0276773 -1.23726e-19)
(-0.00649441 0.0258452 1.15638e-19)
(0.0033999 0.0253041 -5.41178e-20)
(0.015376 0.0275716 5.04048e-20)
(-0.00257303 0.0062543 0)
(-0.00735936 0.0171775 0)
(-0.012111 0.0267546 6.06485e-20)
(-0.0167405 0.0350558 -1.1552e-19)
(-0.0211982 0.0421391 8.57792e-23)
(-0.0254487 0.0480638 -5.25713e-20)
(-0.0294533 0.0528974 1.50176e-19)
(-0.0331723 0.0567129 -1.42788e-19)
(-0.0365673 0.0595871 -3.66602e-24)
(-0.0396014 0.0615992 -4.28679e-20)
(-0.0422385 0.0628291 -1.22059e-19)
(-0.0444436 0.063356 1.15374e-19)
(-0.0461821 0.0632565 0)
(-0.0474193 0.0626034 0)
(-0.0481198 0.0614643 6.50125e-20)
(-0.0482465 0.0599007 1.22974e-19)
(-0.0477599 0.0579671 -5.79642e-20)
(-0.0466171 0.0557113 0)
(-0.0447708 0.053174 -5.14696e-20)
(-0.0421681 0.0503904 4.5837e-24)
(-0.0387496 0.0473922 -4.56256e-20)
(-0.0344479 0.0442106 0)
(-0.029187 0.0408826 -4.02826e-20)
(-0.0228819 0.0374605 3.77223e-20)
(-0.0154403 0.034028 -7.06086e-20)
(-0.00676311 0.0307294 1.98455e-19)
(0.00322143 0.0278089 -8.11318e-23)
(0.0144216 0.0256329 5.78382e-20)
(0.0268795 0.0249194 0)
(0.04176 0.0275547 -5.08165e-20)
(-0.00282003 0.00640193 -6.17771e-20)
(-0.00801139 0.0175976 6.35087e-20)
(-0.0130612 0.0274293 1.55454e-22)
(-0.0178893 0.0359612 -5.80275e-20)
(-0.0224485 0.0432477 0)
(-0.0267042 0.0493467 -1.0564e-19)
(-0.0306189 0.0543251 8.46915e-23)
(-0.0341548 0.0582561 4.75692e-20)
(-0.0372751 0.0612177 3.2562e-24)
(-0.0399445 0.0632907 -2.12975e-24)
(-0.0421284 0.0645571 1.22178e-19)
(-0.0437928 0.0650983 3.86065e-20)
(-0.0449036 0.0649933 3.66274e-20)
(-0.045426 0.0643176 -6.90688e-20)
(-0.0453235 0.0631409 6.52446e-20)
(-0.0445571 0.061527 -6.15181e-20)
(-0.0430847 0.0595322 5.8089e-20)
(-0.0408592 0.0572055 -5.47496e-20)
(-0.0378283 0.0545885 0)
(-0.0339332 0.0517159 -4.86065e-20)
(-0.0291071 0.0486174 9.11691e-20)
(-0.0232742 0.0453207 4.29145e-20)
(-0.0163485 0.0418564 -4.03189e-20)
(-0.00823335 0.0382672 1.51007e-19)
(0.00117845 0.0346241 -3.53928e-20)
(0.0120059 0.0310584 6.6215e-20)
(0.0243461 0.0278091 -6.18104e-20)
(0.0381196 0.02527 7.67566e-23)
(0.0534364 0.0243137 0)
(0.0717679 0.0272816 -1.00273e-19)
(-0.00306513 0.00651447 -1.16106e-22)
(-0.00865912 0.017919 -6.38101e-20)
(-0.0140059 0.0279469 0)
(-0.0190306 0.0366559 -5.84312e-20)
(-0.0236866 0.0440973 5.56156e-20)
(-0.027939 0.0503273 -9.70451e-23)
(-0.0317506 0.0554121 0)
(-0.0350842 0.0594255 -8.57488e-23)
(-0.0379042 0.0624465 -4.54098e-20)
(-0.0401758 0.0645574 4.31543e-20)
(-0.0418652 0.065842 0)
(-0.0429387 0.0663841 -7.74287e-20)
(-0.0433617 0.066265 7.34577e-20)
(-0.0430982 0.0655624 0)
(-0.0421099 0.0643484 0)
(-0.0403546 0.0626889 0)
(-0.0377857 0.0606423 0)
(-0.034351 0.0582593 5.48439e-20)
(-0.0299916 0.0555823 -5.16549e-20)
(-0.0246406 0.0526465 1.4571e-19)
(-0.0182223 0.0494806 -9.13807e-20)
(-0.0106509 0.0461094 -8.57614e-20)
(-0.0018292 0.0425577 1.2084e-19)
(0.00835191 0.0388587 6.42893e-23)
(0.0200138 0.0350684 -7.07988e-20)
(0.0332943 0.0312981 -6.62132e-20)
(0.0483181 0.0277674 -6.18931e-20)
(0.0650168 0.0248698 1.1556e-19)
(0.0835222 0.0235935 -1.07679e-19)
(0.105889 0.0269158 2.00203e-19)
(-0.00330706 0.0065943 1.24682e-19)
(-0.00929849 0.0181467 -1.33426e-22)
(-0.0149383 0.0283135 -1.22788e-19)
(-0.0201544 0.0371461 1.17125e-19)
(-0.0248995 0.0446928 -5.59665e-20)
(-0.0291366 0.0510085 -5.319e-20)
(-0.0328279 0.0561592 5.06044e-20)
(-0.0359361 0.0602193 4.80836e-20)
(-0.0384254 0.0632688 -9.13909e-20)
(-0.0402611 0.0653917 -1.3002e-19)
(-0.041409 0.0666738 -4.09964e-20)
(-0.0418347 0.0672009 1.55319e-19)
(-0.0415022 0.0670566 -2.20252e-19)
(-0.0403732 0.0663208 6.94258e-20)
(-0.0384059 0.0650681 0)
(-0.0355537 0.0633667 0)
(-0.0317641 0.0612772 0)
(-0.0269774 0.0588521 1.09921e-19)
(-0.0211263 0.0561358 -5.17391e-20)
(-0.0141338 0.0531645 -4.87397e-20)
(-0.00591329 0.0499671 -9.14932e-20)
(0.00363327 0.046567 8.59361e-20)
(0.0146158 0.0429852 -4.03478e-20)
(0.0271568 0.0392465 -7.56785e-20)
(0.0413913 0.0353922 -9.06725e-23)
(0.0574728 0.0315095 -1.32379e-19)
(0.0755533 0.0277856 1.85654e-19)
(0.0955749 0.0245803 -1.73431e-19)
(0.117627 0.0229303 5.4149e-20)
(0.144686 0.0266241 -4.97857e-20)
(-0.0035449 0.00664412 -6.24958e-20)
(-0.00992612 0.0182869 6.43088e-20)
(-0.0158522 0.0285368 6.14774e-20)
(-0.0212512 0.0374396 -1.76487e-19)
(-0.0260735 0.0450412 5.59639e-20)
(-0.0302791 0.051396 5.34144e-20)
(-0.0338283 0.0565701 0)
(-0.0366825 0.0606388 0)
(-0.0388049 0.0636836 4.5733e-20)
(-0.0401599 0.0657902 8.67328e-20)
(-0.040712 0.0670466 -1.64692e-19)
(-0.0404247 0.0675406 -8.71543e-23)
(-0.0392596 0.0673582 0)
(-0.0371745 0.0665815 0)
(-0.0341228 0.0652877 -6.56717e-20)
(-0.0300514 0.0635473 3.3666e-23)
(-0.0249 0.0614235 5.84341e-20)
(-0.0185998 0.0589712 -5.49863e-20)
(-0.0110721 0.0562373 -1.03666e-19)
(-0.00222795 0.0532602 9.73898e-20)
(0.00803302 0.0500704 4.57748e-20)
(0.019823 0.046692 -1.29074e-19)
(0.0332665 0.0431445 -8.06434e-20)
(0.0485 0.0394476 7.57766e-20)
(0.0656715 0.0356302 7.09165e-20)
(0.084946 0.0317554 6.62428e-20)
(0.106498 0.0279705 0)
(0.130284 0.0245699 0)
(0.156249 0.0225356 1.0734e-19)
(0.18873 0.0266248 0)
(-0.00377804 0.00666682 6.3137e-20)
(-0.0105392 0.0183461 -6.4797e-20)
(-0.0167416 0.0286251 1.23975e-19)
(-0.0223112 0.0375454 -2.77728e-22)
(-0.0271943 0.0451513 0)
(-0.0313469 0.0514975 0)
(-0.0347261 0.056651 0)
(-0.0372911 0.0606886 -4.84403e-20)
(-0.0390031 0.0636936 4.59963e-20)
(-0.0398244 0.0657539 0)
(-0.039717 0.0669597 8.2422e-20)
(-0.0386413 0.067401 7.81382e-20)
(-0.0365547 0.0671664 -7.38681e-20)
(-0.0334098 0.0663403 6.97745e-20)
(-0.0291531 0.0650026 -9.25515e-23)
(-0.0237232 0.0632263 -6.2111e-20)
(-0.0170498 0.0610775 -5.8559e-20)
(-0.00905227 0.0586143 1.65376e-19)
(0.000361349 0.0558867 5.17793e-20)
(0.0112949 0.0529365 -9.75905e-20)
(0.0238646 0.0497976 -4.58088e-20)
(0.038199 0.0464966 4.3013e-20)
(0.0544384 0.0430549 0)
(0.0727338 0.0394906 -7.56745e-20)
(0.093244 0.0358254 -7.08332e-20)
(0.11614 0.0321024 0)
(0.14161 0.0284285 6.16728e-20)
(0.169631 0.0250137 -1.15517e-19)
(0.199858 0.0226428 -1.61138e-19)
(0.238531 0.0271892 0)
(-0.00400618 0.00666533 -1.26438e-19)
(-0.0111354 0.018331 6.52824e-20)
(-0.0176009 0.0285875 -1.24451e-19)
(-0.0233244 0.0374735 -2.8649e-22)
(-0.0282465 0.0450332 0)
(-0.032318 0.0513226 0)
(-0.0354921 0.0564107 5.13336e-20)
(-0.0377246 0.0603764 9.74885e-20)
(-0.0389736 0.0633054 0)
(-0.0391981 0.0652883 0)
(-0.0383563 0.0664177 -1.65702e-19)
(-0.0364041 0.0667863 7.84418e-20)
(-0.033293 0.0664851 -1.38789e-22)
(-0.0289685 0.0656014 0)
(-0.0233683 0.0642176 -3.35373e-23)
(-0.0164204 0.06241 6.22291e-20)
(-0.0080421 0.0602479 -1.55983e-22)
(0.00186145 0.0577931 -2.20762e-19)
(0.013398 0.0550996 -5.19446e-20)
(0.0266885 0.0522139 9.75882e-20)
(0.0418669 0.0491746 9.16651e-20)
(0.0590792 0.0460134 -7.78636e-23)
(0.0784821 0.0427563 8.07615e-20)
(0.100239 0.0394242 1.51336e-19)
(0.124518 0.0360376 7.08306e-20)
(0.151484 0.0326268 6.61686e-20)
(0.181327 0.0292655 6.15986e-20)
(0.214061 0.0260827 1.14822e-19)
(0.248843 0.0234878 -7.2376e-22)
(0.294466 0.0286224 4.82748e-20)
(-0.00422923 0.0066425 1.27467e-19)
(-0.0117127 0.0182482 -1.96347e-19)
(-0.0184244 0.0284329 1.25082e-19)
(-0.0242797 0.0372341 1.19351e-19)
(-0.0292126 0.0446979 5.6846e-20)
(-0.0331675 0.0508826 -4.1503e-23)
(-0.0360927 0.0558604 -5.12441e-20)
(-0.0379395 0.0597131 -9.74882e-20)
(-0.0386619 0.0625298 2.36973e-22)
(-0.0382143 0.0644041 1.75535e-19)
(-0.0365497 0.0654315 -8.3393e-20)
(-0.0336177 0.0657078 1.5716e-19)
(-0.0293623 0.0653268 -1.06217e-22)
(-0.0237195 0.0643788 -1.40128e-19)
(-0.0166162 0.0629493 -1.66357e-23)
(-0.00796734 0.0611182 0)
(0.00232454 0.0589585 2.93382e-19)
(0.0143709 0.0565365 5.51422e-20)
(0.0282973 0.0539112 0)
(0.0442436 0.0511347 4.8813e-20)
(0.0623623 0.0482521 -4.59134e-20)
(0.0828169 0.0453022 1.72167e-19)
(0.105778 0.0423178 -2.42262e-19)
(0.131419 0.039327 7.57106e-20)
(0.159905 0.036354 0)
(0.19139 0.033425 6.60391e-20)
(0.226036 0.030592 -1.23292e-19)
(0.263923 0.0279381 1.14751e-19)
(0.303456 0.0252897 -1.06746e-19)
(0.356675 0.031234 -9.79051e-20)
(-0.00444718 0.00660093 -1.27983e-19)
(-0.0122688 0.0181039 -3.58193e-22)
(-0.0192055 0.0281698 -6.27016e-20)
(-0.0251648 0.0368376 -5.98236e-20)
(-0.0300727 0.0441567 -1.144e-19)
(-0.0338666 0.0501897 5.43939e-20)
(-0.0364887 0.0550129 7.87537e-23)
(-0.0378852 0.0587125 -9.80813e-20)
(-0.0380045 0.0613814 -1.39204e-19)
(-0.0367951 0.063117 1.47735e-22)
(-0.0342033 0.0640184 8.31397e-20)
(-0.0301705 0.0641848 -1.57372e-19)
(-0.0246309 0.0637133 7.44711e-20)
(-0.0175093 0.0626978 7.02957e-20)
(-0.00871901 0.0612273 -1.0443e-23)
(0.00184022 0.0593857 6.24514e-20)
(0.0142831 0.0572507 -1.17444e-19)
(0.0287394 0.0548937 0)
(0.0453543 0.0523797 -1.04036e-19)
(0.0642868 0.0497677 9.7754e-20)
(0.0857072 0.0471104 -9.1784e-20)
(0.109794 0.0444552 -8.61192e-20)
(0.136726 0.0418441 0)
(0.166676 0.0393142 -2.26701e-19)
(0.199801 0.0368983 1.53527e-22)
(0.236218 0.0346248 -3.30118e-19)
(0.276029 0.0325335 1.8505e-19)
(0.319412 0.0307308 -2.29209e-19)
(0.363754 0.028236 1.0674e-19)
(0.424966 0.0353045 -9.66235e-20)
(-0.00466001 0.00654287 6.41696e-20)
(-0.0128014 0.0179034 6.59857e-20)
(-0.0199369 0.027806 6.33828e-20)
(-0.0259653 0.0362936 -1.88253e-22)
(-0.0308036 0.0434211 -1.6768e-22)
(-0.0343817 0.0492569 0)
(-0.0366349 0.0538831 0)
(-0.037503 0.057391 0)
(-0.0369278 0.0598787 0)
(-0.0348503 0.061448 0)
(-0.0312082 0.0622024 8.34696e-20)
(-0.025933 0.062245 -7.8924e-20)
(-0.0189469 0.0616769 7.46747e-20)
(-0.0101611 0.060596 8.40504e-24)
(0.000527165 0.0590957 -6.62835e-20)
(0.0132354 0.0572646 1.4849e-23)
(0.0280973 0.0551857 -1.17735e-19)
(0.0452625 0.0529365 1.10742e-19)
(0.0648957 0.0505891 1.04033e-19)
(0.0871735 0.0482102 -9.76479e-20)
(0.112281 0.0458614 1.83655e-19)
(0.140404 0.0435997 0)
(0.171722 0.0414772 -1.61246e-19)
(0.206393 0.0395412 3.04251e-22)
(0.244542 0.0378342 3.64118e-22)
(0.286231 0.0363904 5.43413e-22)
(0.331456 0.0352388 -6.11654e-20)
(0.380501 0.0346015 1.14458e-19)
(0.429549 0.0324773 1.06259e-19)
(0.498715 0.0410503 5.05125e-20)
(-0.00486754 0.00647006 0)
(-0.0133071 0.017651 6.65405e-20)
(-0.0206095 0.0273482 -6.32057e-20)
(-0.026664 0.035611 -1.33342e-22)
(-0.0313784 0.0425021 1.15447e-19)
(-0.034674 0.0480977 -5.49394e-20)
(-0.0364789 0.0524869 0)
(-0.0367253 0.0557677 0)
(-0.035347 0.0580441 -9.36294e-20)
(-0.0322762 0.0594236 8.88222e-20)
(-0.02744 0.0600146 8.4029e-20)
(-0.0207577 0.059925 0)
(-0.0121376 0.0592606 7.48888e-20)
(-0.00147458 0.0581241 0)
(0.0113517 0.056614 -1.32792e-19)
(0.0264783 0.0548246 1.87729e-19)
(0.0440586 0.0528451 1.76638e-19)
(0.0642621 0.0507601 -5.54032e-20)
(0.087271 0.0486496 -1.11257e-22)
(0.113276 0.0465889 -1.46725e-19)
(0.142469 0.0446492 0)
(0.175033 0.042897 0)
(0.211131 0.0413944 8.06615e-20)
(0.250886 0.040198 1.50834e-19)
(0.294363 0.0393588 -9.17267e-23)
(0.341539 0.0389156 1.31805e-19)
(0.392258 0.0388782 1.22819e-19)
(0.446866 0.0396722 0)
(0.500363 0.0381241 -1.06252e-19)
(0.576793 0.0485904 1.45666e-19)
(-0.0050692 0.00638366 6.53388e-20)
(-0.0137814 0.0173499 0)
(-0.0212121 0.0268015 1.59572e-22)
(-0.0272404 0.0347974 -6.09889e-20)
(-0.0317651 0.0414101 5.82083e-20)
(-0.0346986 0.0467255 5.51318e-20)
(-0.0359606 0.0508414 -1.11175e-22)
(-0.0354749 0.0538639 4.98682e-20)
(-0.0331661 0.055904 0)
(-0.0289556 0.0570755 -1.78172e-19)
(-0.0227583 0.0574931 2.65271e-22)
(-0.0144792 0.0572703 0)
(-0.00401013 0.0565185 7.50917e-20)
(0.00877188 0.055346 -2.12169e-19)
(0.0240067 0.0538576 6.66869e-20)
(0.0418514 0.0521539 -6.26076e-20)
(0.0624791 0.0503316 -1.1794e-19)
(0.0860765 0.0484833 -1.66442e-19)
(0.112839 0.0466973 0)
(0.142963 0.0450581 0)
(0.176636 0.0436459 9.1753e-20)
(0.214022 0.0425365 8.58939e-20)
(0.255242 0.0417996 -8.06911e-20)
(0.300356 0.0414984 0)
(0.349336 0.0416878 0)
(0.402031 0.0424054 0)
(0.458104 0.0436313 1.22207e-19)
(0.517822 0.0460244 -5.66389e-20)
(0.575403 0.045246 1.06763e-19)
(0.657517 0.0579182 9.40523e-20)
(-0.00526394 0.00628415 -1.30884e-19)
(-0.0142185 0.0170014 6.73822e-20)
(-0.0217306 0.0261693 -6.454e-20)
(-0.0276703 0.0338588 6.1519e-20)
(-0.0319267 0.0401544 -5.82082e-20)
(-0.0344035 0.0451537 5.54227e-20)
(-0.0350113 0.0489648 -5.27282e-20)
(-0.0336646 0.051703 -9.96148e-20)
(-0.0302771 0.0534879 9.47607e-20)
(-0.0247579 0.0544408 1.78838e-19)
(-0.0170077 0.0546833 8.43438e-20)
(-0.006915 0.0543356 -7.98703e-20)
(0.00564613 0.0535159 2.17995e-22)
(0.0208183 0.0523392 2.34815e-23)
(0.0387616 0.0509174 6.68341e-20)
(0.0596523 0.0493588 0)
(0.0836807 0.0477681 1.18014e-19)
(0.111046 0.0462465 2.77371e-19)
(0.141948 0.044891 -5.21884e-20)
(0.176576 0.0437948 0)
(0.215095 0.043046 -1.83485e-19)
(0.257624 0.0427265 -8.59498e-20)
(0.304217 0.0429104 -8.03375e-20)
(0.354831 0.0436614 7.54273e-20)
(0.409306 0.0450317 -7.01107e-20)
(0.467313 0.0470468 6.57539e-20)
(0.528331 0.0496622 -3.51557e-22)
(0.592281 0.0536719 1.12994e-19)
(0.653528 0.0538969 -1.05576e-19)
(0.738581 0.068926 -1.89442e-19)
(-0.00544999 0.00617134 6.62386e-20)
(-0.0146102 0.0166057 6.78028e-20)
(-0.0221477 0.0254534 -2.36453e-22)
(-0.0279244 0.0327996 3.99261e-22)
(-0.0318204 0.0387432 0)
(-0.0337298 0.0433952 -2.40848e-22)
(-0.0335541 0.0468757 -1.59222e-19)
(-0.0311972 0.0493106 0)
(-0.0265606 0.0508291 -9.51532e-20)
(-0.0195396 0.0515613 -3.59181e-19)
(-0.0100186 0.0516369 8.49552e-20)
(0.00213148 0.0511841 -8.01538e-20)
(0.0170561 0.0503287 -1.50599e-19)
(0.0349178 0.0491937 1.42318e-19)
(0.0558957 0.047899 0)
(0.0801828 0.0465617 6.27953e-20)
(0.107981 0.0452949 -1.77568e-19)
(0.139493 0.0442085 -5.55732e-20)
(0.174909 0.0434078 -1.56556e-19)
(0.214394 0.0429926 0)
(0.258064 0.0430559 1.83455e-19)
(0.305964 0.0436813 8.59454e-20)
(0.358041 0.0449404 0)
(0.414112 0.0468891 7.51147e-20)
(0.473839 0.0495677 0)
(0.536673 0.0529748 -6.51533e-20)
(0.601917 0.0570772 -1.82237e-19)
(0.668802 0.0625298 -2.25619e-19)
(0.733238 0.064205 -1.0448e-19)
(0.816912 0.08149 -3.43414e-21)
(-0.00562474 0.00604434 -6.62386e-20)
(-0.0149462 0.0161614 2.92327e-22)
(-0.0224426 0.0246537 6.52313e-20)
(-0.0279688 0.0316227 -6.19181e-20)
(-0.0313967 0.0371836 -5.90274e-20)
(-0.032611 0.0414626 1.11923e-19)
(-0.0315032 0.0445933 5.33645e-20)
(-0.0279656 0.0467138 1.01059e-19)
(-0.0218866 0.0479639 9.52117e-20)
(-0.0131458 0.0484838 9.03854e-20)
(-0.00161035 0.0484125 1.70647e-19)
(0.0128679 0.0478873 -3.03137e-22)
(0.0304538 0.0470429 0)
(0.0513287 0.0460112 -7.11409e-20)
(0.0756881 0.0449213 -2.14444e-22)
(0.103736 0.0438992 1.29212e-22)
(0.135676 0.0430669 1.77666e-19)
(0.1717 0.0425419 0)
(0.211971 0.0424358 1.04323e-19)
(0.256601 0.0428518 0)
(0.305629 0.0438824 2.92541e-25)
(0.358987 0.0456055 -8.56983e-20)
(0.416476 0.0480804 1.60648e-19)
(0.477727 0.0513437 -7.53529e-20)
(0.542191 0.0554111 -1.39918e-19)
(0.609065 0.0602372 6.53396e-20)
(0.677505 0.0658562 2.42702e-19)
(0.745803 0.0723913 5.60951e-20)
(0.812819 0.0764329 2.59482e-19)
(0.888844 0.095129 4.95035e-20)
(-0.00578456 0.00590158 6.69751e-20)
(-0.0152134 0.0156657 -1.37424e-19)
(-0.0225899 0.0237685 0)
(-0.0277642 0.0303294 0)
(-0.0306001 0.0354817 5.94176e-20)
(-0.0309732 0.0393683 -2.64973e-22)
(-0.0287646 0.0421379 -1.06824e-19)
(-0.0238541 0.0439417 -1.01254e-19)
(-0.0161158 0.0449319 4.01035e-22)
(-0.00541271 0.0452596 4.16288e-22)
(0.00840614 0.0450747 -8.5328e-20)
(0.0255078 0.0445243 1.60889e-19)
(0.0460755 0.0437534 -1.51862e-19)