/*--------------------------------*- C++ -*----------------------------------*\
  =========                 |
  \\      /  F ield         | OpenFOAM: The Open Source CFD Toolbox
   \\    /   O peration     | Website:  https://openfoam.org
    \\  /    A nd           | Version:  7
     \\/     M anipulation  |
\*---------------------------------------------------------------------------*/
FoamFile
{
    version     2.0;
    format      ascii;
    class       volScalarField;
    location    "15";
    object      p;
}
// * * * * * * * * * * * * * * * * * * * * * * * * * * * * * * * * * * * * * //

dimensions      [0 2 -2 0 0 0 0];

internalField   nonuniform List<scalar> 
183
(
-0.305742
-0.330324
-0.348805
-0.305735
-0.330368
-0.349126
-0.30578
-0.330492
-0.34972
-0.305843
-0.330652
-0.350496
-0.330792
-0.351335
-0.330853
-0.35211
-0.330776
-0.352705
-0.330521
-0.353005
-0.330064
-0.35292
-0.329343
-0.352512
-0.328407
-0.351647
-0.327262
-0.350335
-0.325919
-0.348611
-0.324392
-0.346501
-0.322693
-0.344037
-0.320823
-0.341245
-0.318771
-0.338142
-0.316524
-0.334744
-0.3141
-0.331092
-0.311382
-0.327102
-0.308067
-0.322554
-0.298931
-0.312916
-0.277811
-0.286192
-0.252761
-0.258308
-0.230159
-0.234022
-0.20991
-0.212374
-0.19191
-0.193689
-0.17598
-0.177427
-0.161963
-0.163318
-0.149679
-0.151074
-0.138953
-0.140466
-0.129624
-0.131306
-0.121536
-0.123408
-0.114587
-0.116663
-0.108651
-0.110919
-0.103646
-0.106093
-0.0994863
-0.102088
-0.10175
-0.0961083
-0.0988349
-0.098734
-0.0934725
-0.096308
-0.0963831
-0.0915218
-0.0944248
-0.0946474
-0.0902475
-0.0932143
-0.0935119
-0.0896013
-0.0925777
-0.0929433
-0.300305
-0.278737
-0.253303
-0.230438
-0.210005
-0.19189
-0.175867
-0.161787
-0.149464
-0.138701
-0.129364
-0.121291
-0.11435
-0.108444
-0.103454
-0.0993266
-0.0959775
-0.093369
-0.0914458
-0.0901805
-0.0895481
-0.313778
-0.287004
-0.258336
-0.234051
-0.212345
-0.193612
-0.177291
-0.163148
-0.150884
-0.140248
-0.131087
-0.123208
-0.116464
-0.11075
-0.105921
-0.101943
-0.0987047
-0.0961908
-0.094328
-0.0931079
-0.0924951
-0.30953
-0.32332
-0.312866
-0.327826
-0.315585
-0.331756
-0.317998
-0.335354
-0.320221
-0.338695
-0.322238
-0.341739
-0.324063
-0.344472
-0.325707
-0.346878
-0.32717
-0.348931
-0.328442
-0.350601
-0.32951
-0.351862
-0.330363
-0.352682
-0.330995
-0.353051
-0.331359
-0.3531
-0.331515
-0.352771
-0.331487
-0.352154
-0.306516
-0.331318
-0.351363
-0.306344
-0.331066
-0.350515
-0.306143
-0.33079
-0.349735
-0.305956
-0.330548
-0.349136
-0.305816
-0.330385
-0.34881
)
;

boundaryField
{
    inlet
    {
        type            zeroGradient;
    }
    outlet
    {
        type            fixedValue;
        value           nonuniform 0();
    }
    cylinder
    {
        type            zeroGradient;
    }
    top
    {
        type            symmetryPlane;
    }
    bottom
    {
        type            symmetryPlane;
    }
    defaultFaces
    {
        type            empty;
    }
    procBoundary33to32
    {
        type            processor;
        value           nonuniform List<scalar> 
86
(
-0.299045
-0.299093
-0.299206
-0.29935
-0.305885
-0.305885
-0.305862
-0.305733
-0.305461
-0.305026
-0.304504
-0.303808
-0.302962
-0.301999
-0.30094
-0.299802
-0.298589
-0.297288
-0.295881
-0.294355
-0.292527
-0.29003
-0.282239
-0.264801
-0.243289
-0.22224
-0.202992
-0.185612
-0.170003
-0.156124
-0.143881
-0.133156
-0.123821
-0.115733
-0.108794
-0.102883
-0.0979109
-0.0937911
-0.0904529
-0.0878487
-0.0859251
-0.0846671
-0.0840365
-0.283184
-0.265504
-0.243711
-0.222465
-0.203061
-0.185566
-0.169859
-0.155901
-0.143603
-0.132828
-0.123467
-0.115387
-0.108463
-0.102597
-0.0976681
-0.0936085
-0.0903278
-0.0877787
-0.0859059
-0.0846761
-0.084064
-0.291149
-0.293716
-0.295598
-0.297164
-0.298599
-0.299915
-0.301129
-0.302254
-0.303287
-0.304211
-0.305005
-0.305636
-0.306081
-0.306426
-0.306598
-0.306615
-0.306615
-0.29978
-0.299588
-0.29938
-0.299199
-0.29908
)
;
    }
    procBoundary33to34
    {
        type            processor;
        value           nonuniform List<scalar> 
85
(
-0.36106
-0.361949
-0.36361
-0.365873
-0.368468
-0.371132
-0.374302
-0.37678
-0.378942
-0.380413
-0.38132
-0.381574
-0.381141
-0.380018
-0.378212
-0.375735
-0.372606
-0.368865
-0.364541
-0.359463
-0.353648
-0.338177
-0.296868
-0.261386
-0.232374
-0.208641
-0.189196
-0.172967
-0.159283
-0.147626
-0.137627
-0.12903
-0.121643
-0.115334
-0.109975
-0.105476
-0.105476
-0.0986089
-0.0959548
-0.0938813
-0.0923517
-0.0913473
-0.0908477
-0.337745
-0.296553
-0.261087
-0.232104
-0.208412
-0.188982
-0.172751
-0.15907
-0.147413
-0.137409
-0.12882
-0.121448
-0.115149
-0.109807
-0.105314
-0.101604
-0.0985996
-0.0962596
-0.0945349
-0.0934021
-0.0928392
-0.35319
-0.35896
-0.363974
-0.368249
-0.371948
-0.375039
-0.377482
-0.379259
-0.38036
-0.380777
-0.380515
-0.379608
-0.378138
-0.375994
-0.373497
-0.370739
-0.367961
-0.365434
-0.363426
-0.361823
-0.361004
)
;
    }
}


// ************************************************************************* //
