/*--------------------------------*- C++ -*----------------------------------*\
  =========                 |
  \\      /  F ield         | OpenFOAM: The Open Source CFD Toolbox
   \\    /   O peration     | Website:  https://openfoam.org
    \\  /    A nd           | Version:  7
     \\/     M anipulation  |
\*---------------------------------------------------------------------------*/
FoamFile
{
    version     2.0;
    format      ascii;
    class       volScalarField;
    location    "86";
    object      p;
}
// * * * * * * * * * * * * * * * * * * * * * * * * * * * * * * * * * * * * * //

dimensions      [0 2 -2 0 0 0 0];

internalField   nonuniform List<scalar> 
40000
(
-0.329388
-0.33017
-0.330756
-0.331225
-0.331636
-0.332001
-0.33234
-0.332677
-0.333037
-0.333441
-0.333907
-0.334449
-0.335081
-0.335809
-0.336643
-0.337588
-0.338651
-0.339839
-0.341159
-0.342621
-0.344237
-0.346021
-0.347988
-0.350157
-0.35255
-0.35519
-0.358104
-0.361316
-0.364847
-0.368735
-0.331579
-0.332229
-0.332722
-0.33312
-0.333473
-0.333793
-0.334097
-0.334413
-0.334762
-0.335169
-0.335652
-0.336228
-0.33691
-0.337711
-0.338638
-0.339702
-0.340912
-0.342278
-0.343812
-0.345528
-0.347442
-0.349574
-0.351946
-0.354582
-0.35751
-0.360762
-0.364372
-0.368374
-0.372796
-0.377674
-0.3338
-0.334312
-0.334708
-0.335033
-0.335325
-0.335595
-0.335863
-0.336152
-0.336488
-0.336893
-0.337389
-0.337993
-0.338721
-0.339585
-0.340599
-0.341774
-0.343121
-0.344654
-0.346389
-0.348344
-0.350539
-0.352998
-0.35575
-0.358823
-0.362252
-0.366074
-0.37033
-0.375063
-0.3803
-0.386091
-0.336023
-0.336395
-0.336692
-0.336942
-0.337169
-0.337387
-0.337614
-0.337873
-0.338191
-0.33859
-0.339092
-0.339718
-0.340484
-0.341405
-0.342496
-0.34377
-0.345243
-0.34693
-0.34885
-0.351026
-0.353481
-0.356243
-0.359345
-0.36282
-0.366709
-0.371052
-0.375897
-0.381293
-0.387258
-0.393863
-0.338225
-0.338456
-0.338652
-0.338823
-0.338985
-0.339148
-0.33933
-0.339556
-0.339849
-0.340236
-0.340739
-0.341379
-0.342174
-0.343142
-0.344299
-0.345661
-0.347245
-0.34907
-0.351158
-0.353533
-0.356223
-0.35926
-0.362679
-0.366518
-0.37082
-0.375629
-0.380999
-0.386983
-0.393582
-0.400875
-0.340379
-0.340471
-0.340567
-0.340659
-0.340753
-0.340857
-0.340992
-0.341179
-0.341444
-0.341812
-0.342307
-0.342952
-0.343767
-0.34477
-0.345981
-0.347416
-0.349095
-0.35104
-0.353275
-0.355826
-0.358724
-0.362005
-0.365704
-0.369865
-0.374531
-0.379748
-0.385572
-0.392063
-0.399203
-0.407021
-0.342466
-0.342422
-0.342418
-0.342432
-0.342455
-0.3425
-0.342583
-0.342726
-0.342956
-0.343298
-0.343777
-0.344417
-0.34524
-0.346266
-0.347515
-0.349007
-0.350764
-0.352809
-0.355167
-0.357869
-0.360947
-0.364437
-0.368379
-0.372817
-0.377794
-0.383358
-0.389564
-0.396475
-0.404058
-0.412309
-0.344464
-0.34429
-0.34419
-0.344125
-0.344078
-0.34406
-0.344088
-0.344183
-0.344372
-0.344679
-0.345132
-0.345756
-0.346573
-0.347607
-0.348879
-0.350411
-0.352226
-0.354348
-0.356806
-0.359631
-0.362857
-0.366522
-0.370666
-0.375335
-0.380571
-0.38642
-0.392936
-0.400182
-0.408102
-0.416697
-0.346358
-0.346061
-0.345868
-0.345726
-0.34561
-0.345527
-0.345496
-0.345538
-0.345677
-0.345942
-0.346358
-0.346953
-0.347752
-0.348778
-0.350056
-0.351607
-0.353458
-0.355635
-0.358167
-0.361086
-0.364427
-0.368231
-0.372537
-0.37739
-0.382832
-0.388906
-0.395662
-0.403163
-0.411331
-0.420138
-0.348132
-0.347722
-0.347442
-0.347226
-0.34704
-0.346892
-0.346799
-0.346781
-0.346865
-0.347076
-0.347445
-0.347998
-0.348763
-0.349764
-0.351028
-0.35258
-0.354445
-0.356651
-0.359229
-0.362213
-0.365637
-0.369543
-0.37397
-0.378961
-0.384557
-0.390797
-0.397726
-0.405405
-0.413737
-0.422626
-0.349775
-0.349265
-0.348904
-0.348618
-0.348363
-0.348149
-0.34799
-0.347908
-0.347928
-0.348077
-0.348386
-0.348883
-0.349598
-0.350557
-0.351788
-0.353317
-0.355173
-0.357383
-0.35998
-0.362998
-0.366473
-0.370444
-0.374951
-0.380036
-0.385736
-0.392087
-0.399126
-0.40691
-0.415331
-0.424177
-0.351282
-0.350683
-0.35025
-0.349898
-0.349577
-0.349296
-0.349069
-0.348917
-0.348865
-0.348942
-0.349179
-0.349606
-0.350254
-0.351152
-0.352329
-0.353815
-0.355637
-0.357826
-0.360414
-0.363436
-0.366928
-0.370929
-0.375478
-0.380613
-0.386371
-0.392781
-0.39987
-0.407693
-0.416135
-0.424824
-0.352648
-0.351975
-0.351479
-0.351066
-0.350682
-0.350334
-0.350037
-0.34981
-0.349679
-0.349673
-0.349825
-0.350167
-0.350732
-0.35155
-0.352654
-0.354073
-0.355837
-0.357979
-0.360531
-0.363527
-0.367004
-0.371001
-0.375554
-0.380701
-0.386472
-0.392892
-0.39998
-0.40778
-0.416188
-0.424608
-0.353873
-0.353143
-0.352593
-0.352126
-0.351682
-0.351267
-0.350897
-0.350591
-0.350373
-0.350275
-0.35033
-0.350573
-0.351038
-0.351758
-0.352767
-0.354098
-0.355781
-0.35785
-0.360339
-0.363282
-0.366715
-0.370675
-0.375198
-0.380318
-0.386062
-0.39245
-0.399488
-0.40721
-0.415538
-0.42358
-0.354963
-0.354191
-0.353599
-0.353083
-0.352583
-0.352103
-0.351659
-0.351268
-0.350957
-0.350758
-0.350704
-0.350834
-0.351182
-0.351787
-0.352682
-0.353903
-0.355483
-0.357456
-0.359856
-0.362718
-0.366079
-0.369973
-0.374435
-0.379495
-0.385176
-0.391492
-0.398438
-0.406032
-0.414244
-0.421792
-0.355924
-0.355129
-0.354505
-0.353948
-0.353395
-0.352852
-0.352332
-0.351853
-0.351443
-0.351133
-0.35096
-0.350963
-0.351181
-0.351653
-0.352416
-0.353508
-0.354963
-0.356818
-0.359107
-0.361865
-0.365128
-0.36893
-0.373303
-0.378273
-0.38386
-0.39007
-0.396887
-0.404303
-0.412373
-0.419306
-0.35677
-0.355969
-0.355324
-0.354733
-0.354132
-0.353527
-0.35293
-0.35236
-0.351844
-0.351417
-0.351115
-0.35098
-0.351054
-0.351378
-0.351993
-0.352938
-0.35425
-0.355967
-0.358124
-0.360757
-0.363901
-0.367589
-0.371849
-0.376705
-0.382171
-0.388245
-0.394901
-0.402091
-0.410004
-0.416184
-0.357517
-0.356726
-0.356071
-0.355453
-0.354809
-0.354143
-0.353469
-0.352805
-0.35218
-0.351627
-0.351188
-0.350906
-0.350824
-0.350988
-0.351441
-0.352224
-0.353377
-0.35494
-0.356949
-0.35944
-0.362447
-0.366002
-0.370131
-0.374853
-0.380174
-0.386086
-0.392554
-0.399469
-0.407215
-0.412495
-0.358185
-0.35742
-0.356766
-0.356127
-0.355443
-0.354719
-0.353967
-0.353208
-0.352468
-0.351786
-0.351203
-0.350765
-0.350519
-0.350513
-0.350792
-0.351401
-0.352384
-0.35378
-0.355628
-0.357964
-0.360821
-0.36423
-0.368213
-0.372786
-0.377943
-0.383671
-0.389925
-0.396513
-0.404085
-0.408313
-0.358798
-0.358074
-0.357429
-0.356774
-0.356054
-0.355274
-0.354445
-0.353588
-0.352732
-0.351917
-0.351186
-0.350587
-0.35017
-0.349986
-0.350084
-0.350512
-0.351315
-0.352536
-0.354214
-0.356386
-0.359085
-0.362338
-0.366164
-0.37057
-0.375552
-0.381073
-0.38709
-0.393293
-0.400682
-0.403722
-0.359384
-0.358713
-0.358086
-0.357419
-0.356666
-0.35583
-0.354923
-0.353968
-0.352995
-0.352045
-0.351162
-0.350399
-0.349809
-0.349444
-0.349357
-0.3496
-0.350219
-0.35126
-0.352764
-0.354768
-0.357303
-0.360394
-0.364056
-0.368289
-0.373076
-0.378365
-0.384117
-0.389874
-0.397055
-0.398816
-0.359975
-0.359367
-0.358761
-0.358087
-0.357302
-0.356411
-0.355427
-0.354374
-0.353283
-0.352197
-0.351163
-0.350236
-0.349471
-0.348925
-0.348653
-0.34871
-0.349145
-0.350007
-0.351336
-0.35317
-0.355539
-0.358464
-0.361955
-0.366004
-0.370578
-0.375607
-0.381059
-0.386308
-0.393223
-0.393686
-0.360604
-0.360065
-0.359485
-0.358804
-0.357988
-0.357042
-0.355982
-0.35483
-0.353622
-0.352401
-0.351218
-0.350129
-0.349193
-0.348468
-0.348015
-0.34789
-0.348145
-0.34883
-0.349987
-0.351653
-0.353856
-0.356612
-0.359923
-0.363771
-0.36811
-0.372842
-0.377947
-0.382629
-0.38918
-0.388415
-0.36131
-0.360841
-0.360287
-0.359599
-0.358752
-0.357751
-0.356613
-0.355364
-0.354041
-0.352689
-0.35136
-0.350114
-0.349011
-0.348115
-0.347487
-0.347187
-0.347268
-0.347782
-0.348772
-0.350272
-0.352308
-0.354889
-0.358008
-0.361634
-0.365703
-0.370093
-0.374789
-0.378855
-0.3849
-0.383062
-0.362129
-0.361728
-0.361198
-0.360501
-0.35962
-0.358563
-0.357348
-0.356004
-0.354568
-0.353088
-0.351619
-0.350223
-0.348963
-0.347904
-0.347111
-0.346644
-0.34656
-0.346911
-0.347739
-0.349075
-0.35094
-0.353336
-0.356244
-0.359616
-0.363371
-0.367363
-0.37157
-0.374986
-0.380349
-0.377662
-0.363102
-0.362763
-0.362251
-0.36154
-0.360622
-0.359507
-0.358215
-0.356776
-0.35523
-0.353629
-0.352028
-0.35049
-0.349082
-0.347871
-0.346923
-0.346301
-0.346062
-0.346257
-0.346926
-0.348098
-0.349784
-0.351977
-0.354643
-0.357719
-0.361103
-0.364632
-0.368255
-0.371006
-0.3755
-0.372222
-0.364267
-0.363978
-0.363476
-0.362745
-0.361785
-0.360609
-0.359238
-0.357707
-0.356056
-0.354339
-0.352613
-0.350944
-0.3494
-0.348049
-0.346958
-0.346192
-0.345806
-0.345851
-0.346362
-0.347362
-0.348854
-0.350817
-0.353202
-0.355927
-0.35887
-0.361861
-0.364798
-0.366881
-0.37032
-0.366716
-0.365662
-0.365407
-0.364904
-0.364144
-0.363136
-0.361895
-0.360445
-0.358822
-0.35707
-0.355244
-0.353403
-0.351613
-0.349943
-0.348464
-0.347242
-0.34634
-0.345815
-0.345711
-0.34606
-0.346875
-0.348148
-0.349844
-0.351896
-0.354204
-0.356627
-0.358997
-0.361146
-0.362558
-0.364729
-0.361067
-0.367321
-0.367081
-0.366561
-0.365763
-0.364699
-0.363388
-0.361857
-0.360144
-0.358295
-0.356366
-0.354417
-0.352517
-0.350733
-0.349136
-0.347792
-0.346763
-0.3461
-0.345845
-0.346019
-0.346628
-0.347648
-0.349029
-0.350687
-0.352504
-0.354325
-0.355988
-0.357264
-0.357962
-0.358587
-0.355302
-0.369277
-0.369027
-0.368475
-0.367626
-0.366497
-0.36511
-0.363496
-0.361693
-0.35975
-0.357723
-0.355675
-0.353672
-0.351783
-0.350076
-0.348617
-0.347463
-0.346661
-0.346244
-0.346226
-0.346598
-0.347322
-0.348332
-0.349528
-0.350777
-0.351917
-0.352793
-0.353145
-0.353035
-0.351902
-0.349877
-0.371555
-0.371268
-0.370666
-0.369753
-0.368549
-0.367079
-0.365377
-0.363484
-0.361449
-0.359329
-0.357186
-0.355088
-0.3531
-0.35129
-0.349718
-0.348437
-0.347487
-0.346892
-0.346654
-0.34675
-0.347127
-0.347704
-0.348366
-0.348973
-0.349361
-0.349384
-0.3488
-0.34778
-0.345285
-0.344703
-0.374177
-0.373824
-0.373152
-0.372161
-0.370871
-0.36931
-0.367515
-0.365529
-0.363402
-0.361191
-0.358958
-0.356768
-0.354686
-0.352773
-0.351086
-0.34967
-0.348557
-0.34776
-0.347267
-0.34704
-0.347014
-0.347092
-0.347151
-0.347049
-0.34663
-0.345761
-0.344238
-0.342196
-0.338835
-0.336657
-0.377157
-0.376713
-0.375949
-0.374864
-0.373475
-0.371814
-0.36992
-0.367837
-0.365617
-0.363316
-0.360993
-0.358713
-0.356535
-0.354516
-0.352707
-0.351143
-0.349845
-0.348813
-0.348022
-0.347421
-0.346931
-0.346445
-0.345839
-0.344975
-0.343712
-0.341936
-0.339482
-0.336459
-0.33221
-0.328559
-0.380509
-0.379943
-0.379068
-0.377872
-0.376371
-0.3746
-0.372599
-0.370414
-0.368097
-0.365703
-0.36329
-0.360916
-0.358638
-0.356506
-0.354561
-0.352828
-0.351316
-0.350011
-0.348875
-0.347843
-0.346827
-0.345718
-0.344394
-0.342732
-0.34061
-0.337938
-0.334591
-0.330662
-0.325614
-0.320886
-0.384238
-0.383523
-0.382516
-0.381194
-0.379567
-0.377673
-0.375556
-0.373263
-0.370844
-0.368352
-0.365844
-0.363371
-0.360985
-0.358726
-0.356626
-0.354697
-0.352935
-0.351312
-0.349777
-0.348257
-0.346657
-0.344872
-0.342792
-0.340311
-0.337336
-0.333803
-0.329622
-0.324884
-0.319152
-0.313589
-0.388348
-0.387457
-0.386298
-0.384834
-0.383067
-0.381039
-0.378797
-0.376387
-0.373858
-0.371262
-0.36865
-0.36607
-0.363562
-0.361158
-0.358876
-0.356718
-0.354663
-0.352672
-0.350683
-0.348617
-0.34638
-0.343878
-0.341017
-0.337716
-0.333911
-0.329566
-0.324623
-0.319178
-0.312864
-0.306695
-0.39284
-0.391749
-0.390419
-0.388797
-0.386876
-0.384702
-0.382323
-0.379787
-0.37714
-0.374431
-0.371706
-0.369003
-0.366355
-0.363782
-0.361287
-0.358859
-0.356464
-0.35405
-0.351549
-0.348882
-0.345964
-0.342714
-0.339063
-0.334956
-0.330359
-0.325261
-0.319633
-0.313571
-0.30677
-0.300132
-0.397712
-0.396398
-0.39488
-0.393085
-0.390997
-0.388665
-0.386139
-0.383466
-0.380691
-0.377858
-0.375005
-0.372163
-0.369352
-0.366578
-0.363832
-0.361086
-0.358296
-0.355403
-0.352334
-0.349018
-0.345383
-0.341368
-0.336931
-0.332045
-0.326703
-0.320915
-0.314674
-0.308076
-0.300861
-0.293855
-0.402962
-0.401405
-0.399683
-0.397701
-0.395433
-0.392931
-0.390248
-0.387428
-0.384514
-0.381543
-0.378545
-0.375541
-0.372537
-0.369525
-0.366481
-0.363366
-0.360124
-0.356692
-0.353003
-0.348996
-0.344618
-0.339834
-0.334628
-0.328999
-0.322964
-0.316548
-0.309761
-0.302695
-0.295125
-0.287811
-0.408586
-0.406768
-0.404827
-0.402647
-0.400187
-0.397505
-0.394654
-0.391676
-0.388609
-0.385484
-0.38232
-0.379126
-0.375893
-0.372599
-0.369206
-0.365662
-0.361907
-0.35788
-0.353524
-0.348793
-0.343658
-0.338112
-0.332162
-0.325833
-0.319158
-0.312173
-0.304899
-0.29742
-0.289539
-0.28196
-0.41458
-0.412485
-0.410313
-0.407923
-0.405262
-0.40239
-0.39936
-0.396212
-0.392978
-0.38968
-0.386324
-0.382906
-0.379402
-0.375775
-0.371973
-0.367939
-0.363611
-0.358935
-0.35387
-0.348392
-0.342498
-0.336204
-0.329545
-0.322561
-0.315297
-0.307797
-0.300086
-0.292238
-0.284082
-0.276263
-0.42094
-0.418553
-0.416138
-0.41353
-0.410659
-0.407588
-0.40437
-0.40104
-0.397622
-0.394126
-0.390548
-0.386866
-0.383041
-0.379022
-0.374748
-0.370159
-0.365199
-0.359826
-0.35402
-0.347781
-0.341133
-0.334117
-0.326785
-0.31919
-0.311387
-0.30342
-0.295315
-0.287134
-0.27873
-0.27069
-0.427659
-0.424967
-0.4223
-0.419467
-0.416378
-0.413101
-0.409684
-0.406158
-0.402536
-0.398816
-0.394978
-0.390984
-0.38678
-0.382306
-0.377494
-0.372286
-0.366638
-0.360527
-0.353956
-0.346953
-0.339566
-0.331856
-0.323889
-0.315729
-0.307431
-0.299037
-0.290574
-0.282091
-0.273459
-0.265211
-0.434728
-0.431719
-0.428793
-0.425728
-0.422417
-0.418925
-0.4153
-0.411562
-0.407712
-0.403734
-0.399592
-0.395232
-0.390588
-0.385589
-0.380171
-0.374282
-0.367895
-0.361013
-0.353664
-0.345902
-0.337796
-0.329425
-0.320864
-0.312179
-0.303425
-0.294641
-0.28585
-0.277088
-0.268247
-0.259801
-0.442135
-0.438798
-0.435608
-0.432307
-0.428769
-0.425056
-0.421211
-0.417241
-0.413136
-0.408861
-0.404365
-0.399578
-0.394424
-0.388831
-0.382737
-0.37611
-0.368943
-0.361265
-0.353132
-0.344623
-0.335825
-0.326827
-0.31771
-0.308538
-0.299364
-0.29022
-0.281126
-0.272107
-0.263072
-0.254437
-0.449863
-0.446191
-0.442731
-0.439193
-0.435423
-0.431482
-0.427403
-0.42318
-0.418785
-0.414169
-0.409261
-0.40398
-0.398245
-0.391985
-0.385152
-0.377734
-0.369753
-0.361264
-0.352352
-0.343114
-0.333653
-0.324063
-0.314425
-0.304801
-0.295238
-0.285762
-0.276387
-0.267128
-0.257913
-0.249098
-0.457889
-0.453875
-0.450144
-0.446367
-0.442364
-0.438186
-0.433856
-0.429353
-0.424631
-0.419621
-0.414238
-0.408393
-0.402002
-0.395004
-0.387373
-0.379121
-0.3703
-0.360995
-0.351314
-0.341371
-0.331277
-0.321128
-0.311003
-0.30096
-0.291035
-0.28125
-0.271614
-0.262132
-0.252749
-0.243763
-0.466185
-0.461825
-0.457824
-0.453808
-0.449566
-0.445142
-0.440543
-0.435729
-0.430634
-0.425172
-0.419246
-0.412762
-0.405641
-0.39784
-0.389358
-0.380237
-0.370561
-0.360443
-0.350009
-0.339387
-0.328692
-0.318018
-0.307438
-0.297002
-0.286741
-0.276668
-0.266789
-0.2571
-0.247561
-0.238413
-0.474716
-0.470009
-0.465738
-0.461484
-0.457001
-0.452319
-0.447427
-0.442265
-0.436747
-0.430771
-0.424229
-0.41703
-0.409108
-0.400443
-0.391065
-0.38105
-0.370513
-0.359591
-0.348428
-0.337156
-0.325891
-0.314724
-0.303718
-0.292916
-0.282341
-0.272
-0.261894
-0.252013
-0.242329
-0.23303
-0.483439
-0.478386
-0.473848
-0.469358
-0.46463
-0.459675
-0.454464
-0.448912
-0.442915
-0.436355
-0.429124
-0.421134
-0.412344
-0.402763
-0.392454
-0.381531
-0.370135
-0.358427
-0.346559
-0.334668
-0.322866
-0.311234
-0.29983
-0.288686
-0.277818
-0.267228
-0.256911
-0.246853
-0.237036
-0.227596
-0.492303
-0.486909
-0.48211
-0.477386
-0.472405
-0.46716
-0.461598
-0.45561
-0.449072
-0.441859
-0.433861
-0.425011
-0.415292
-0.40475
-0.393487
-0.381649
-0.369407
-0.356934
-0.34439
-0.331912
-0.319603
-0.307537
-0.29576
-0.284297
-0.273156
-0.262334
-0.251822
-0.241602
-0.231664
-0.222094
-0.501249
-0.495521
-0.490469
-0.485512
-0.480273
-0.474717
-0.468767
-0.462291
-0.455148
-0.447207
-0.438371
-0.428593
-0.417894
-0.406357
-0.394126
-0.381378
-0.368306
-0.355096
-0.341908
-0.328875
-0.316089
-0.303616
-0.291491
-0.279731
-0.268337
-0.257302
-0.246611
-0.236243
-0.226196
-0.216509
-0.510211
-0.50416
-0.498863
-0.493676
-0.488168
-0.482278
-0.4759
-0.46888
-0.461063
-0.452322
-0.442577
-0.431814
-0.420091
-0.407538
-0.394335
-0.38069
-0.366813
-0.352895
-0.339097
-0.325541
-0.312309
-0.299456
-0.287007
-0.274972
-0.263344
-0.252112
-0.241259
-0.23076
-0.220617
-0.210827
-0.519114
-0.512755
-0.507222
-0.501807
-0.496019
-0.489766
-0.482916
-0.475292
-0.466734
-0.457123
-0.446405
-0.434605
-0.421828
-0.408247
-0.394079
-0.379557
-0.364905
-0.350315
-0.335941
-0.321893
-0.308246
-0.295039
-0.28229
-0.270001
-0.25816
-0.24675
-0.23575
-0.225137
-0.214911
-0.205032
-0.527875
-0.521227
-0.51547
-0.509826
-0.503745
-0.497099
-0.489729
-0.481441
-0.472073
-0.461526
-0.449779
-0.436902
-0.42305
-0.408441
-0.393324
-0.377955
-0.362561
-0.347335
-0.33242
-0.317915
-0.303881
-0.290347
-0.277323
-0.264801
-0.252766
-0.241198
-0.23007
-0.219359
-0.209063
-0.199111
-0.536407
-0.529489
-0.523522
-0.517649
-0.511258
-0.504186
-0.496245
-0.487232
-0.47699
-0.465446
-0.452623
-0.438642
-0.423707
-0.40808
-0.39204
-0.375855
-0.359759
-0.343936
-0.328516
-0.313587
-0.299196
-0.285363
-0.272087
-0.259355
-0.247148
-0.23544
-0.224203
-0.213412
-0.203061
-0.193053
-0.544614
-0.537452
-0.531286
-0.525184
-0.518465
-0.51093
-0.502368
-0.492569
-0.481392
-0.4688
-0.454865
-0.439762
-0.423748
-0.407124
-0.390193
-0.373234
-0.356477
-0.340096
-0.32421
-0.30889
-0.294173
-0.280067
-0.266564
-0.253647
-0.241288
-0.229461
-0.218134
-0.207283
-0.196892
-0.186846
-0.552397
-0.545016
-0.538666
-0.532332
-0.525265
-0.51723
-0.507996
-0.497354
-0.485189
-0.471506
-0.456433
-0.440206
-0.423128
-0.405537
-0.387755
-0.370066
-0.352692
-0.335795
-0.31948
-0.303805
-0.288792
-0.274442
-0.260739
-0.247659
-0.235172
-0.223247
-0.211851
-0.200959
-0.190544
-0.18048
-0.559651
-0.552081
-0.545561
-0.538991
-0.531555
-0.522982
-0.513027
-0.50149
-0.48829
-0.473484
-0.457263
-0.439918
-0.421803
-0.403284
-0.384697
-0.366325
-0.348382
-0.331013
-0.314309
-0.298312
-0.283036
-0.26847
-0.254594
-0.241376
-0.228785
-0.216785
-0.205341
-0.194428
-0.184008
-0.173949
-0.566269
-0.558541
-0.551864
-0.545056
-0.537228
-0.528079
-0.517356
-0.504878
-0.490607
-0.47466
-0.45729
-0.438849
-0.419733
-0.400332
-0.380992
-0.361989
-0.343524
-0.325729
-0.308675
-0.292394
-0.276887
-0.262136
-0.248113
-0.234784
-0.222113
-0.210061
-0.198591
-0.187679
-0.177272
-0.167243
-0.572143
-0.564289
-0.557471
-0.550417
-0.542176
-0.532416
-0.520883
-0.507426
-0.492058
-0.474961
-0.456457
-0.436952
-0.41688
-0.396651
-0.376613
-0.357034
-0.338099
-0.319922
-0.30256
-0.286032
-0.270328
-0.255422
-0.241282
-0.227869
-0.215143
-0.203063
-0.191591
-0.180701
-0.170328
-0.160352
-0.577162
-0.569217
-0.562271
-0.554967
-0.546291
-0.535886
-0.523508
-0.509043
-0.492563
-0.474323
-0.45471
-0.434183
-0.41321
-0.392213
-0.371538
-0.35144
-0.332086
-0.313575
-0.295947
-0.27921
-0.263343
-0.248315
-0.234088
-0.220618
-0.207864
-0.195781
-0.18433
-0.173485
-0.163167
-0.15327
-0.58122
-0.573217
-0.566157
-0.558598
-0.549466
-0.538387
-0.525135
-0.509643
-0.492051
-0.472686
-0.452002
-0.430506
-0.408693
-0.386992
-0.365743
-0.345184
-0.325467
-0.306669
-0.28882
-0.271912
-0.255918
-0.240801
-0.226517
-0.21302
-0.200264
-0.188204
-0.176799
-0.166021
-0.15578
-0.145989
-0.58421
-0.576184
-0.569024
-0.561204
-0.551597
-0.539821
-0.525675
-0.509147
-0.490453
-0.469995
-0.448289
-0.425886
-0.403301
-0.380966
-0.359209
-0.338251
-0.318224
-0.29919
-0.281162
-0.264124
-0.248042
-0.23287
-0.21856
-0.205065
-0.192335
-0.180323
-0.168988
-0.158301
-0.148164
-0.138506
-0.586028
-0.578015
-0.570768
-0.562683
-0.552587
-0.540095
-0.525043
-0.507484
-0.487712
-0.466203
-0.443535
-0.420294
-0.397011
-0.374115
-0.351918
-0.330623
-0.310342
-0.291122
-0.272962
-0.255836
-0.239702
-0.22451
-0.210208
-0.196744
-0.184068
-0.172129
-0.160885
-0.150313
-0.140309
-0.130807
-0.586579
-0.578613
-0.571293
-0.562939
-0.552343
-0.539124
-0.523164
-0.50459
-0.483774
-0.46127
-0.437707
-0.413706
-0.389803
-0.366421
-0.343854
-0.322286
-0.301809
-0.282454
-0.264208
-0.247037
-0.23089
-0.215714
-0.201453
-0.188052
-0.175457
-0.163616
-0.152484
-0.142045
-0.132189
-0.122833
-0.585771
-0.577885
-0.570505
-0.561882
-0.550778
-0.536828
-0.51997
-0.500407
-0.478596
-0.45516
-0.430781
-0.406101
-0.381661
-0.35787
-0.335006
-0.313229
-0.292614
-0.273176
-0.254893
-0.237719
-0.221599
-0.206476
-0.19229
-0.178984
-0.166499
-0.15478
-0.143783
-0.133494
-0.12377
-0.114464
-0.583519
-0.575747
-0.568321
-0.559428
-0.547814
-0.533139
-0.515402
-0.494888
-0.47214
-0.447847
-0.422735
-0.397464
-0.372572
-0.348453
-0.325363
-0.303443
-0.282749
-0.263282
-0.245009
-0.227876
-0.211825
-0.196793
-0.182718
-0.169538
-0.157194
-0.145624
-0.13479
-0.124675
-0.115067
-0.10567
-0.579748
-0.572122
-0.564664
-0.555505
-0.543385
-0.527997
-0.50941
-0.487995
-0.464377
-0.439311
-0.413556
-0.387784
-0.362528
-0.338162
-0.314921
-0.292923
-0.27221
-0.252767
-0.234552
-0.217507
-0.201566
-0.186663
-0.172733
-0.159714
-0.14754
-0.136151
-0.125508
-0.115592
-0.106122
-0.0969186
-0.574391
-0.566943
-0.559466
-0.550047
-0.537431
-0.521351
-0.501953
-0.479698
-0.455289
-0.429538
-0.403234
-0.377057
-0.351525
-0.326994
-0.303675
-0.281667
-0.260993
-0.241629
-0.223523
-0.20661
-0.190821
-0.176086
-0.162339
-0.149512
-0.137539
-0.126365
-0.115944
-0.106239
-0.0969319
-0.0880883
-0.567393
-0.560151
-0.55267
-0.543001
-0.529904
-0.513162
-0.493003
-0.469976
-0.444861
-0.418521
-0.391768
-0.365281
-0.339564
-0.31495
-0.291626
-0.269674
-0.249101
-0.22987
-0.211922
-0.195187
-0.179593
-0.165066
-0.151536
-0.138938
-0.1272
-0.116266
-0.106095
-0.0966284
-0.0875335
-0.0790562
-0.558707
-0.551699
-0.54423
-0.534323
-0.520766
-0.503402
-0.48254
-0.458818
-0.43309
-0.40626
-0.37916
-0.352461
-0.326649
-0.302033
-0.27878
-0.25695
-0.236536
-0.217493
-0.199753
-0.183243
-0.167886
-0.153607
-0.140333
-0.127995
-0.116525
-0.10586
-0.0959663
-0.0867667
-0.0779173
-0.0697951
-0.548298
-0.54155
-0.534109
-0.523981
-0.509993
-0.492051
-0.470552
-0.446222
-0.419978
-0.392763
-0.365418
-0.338605
-0.312789
-0.288253
-0.265143
-0.243501
-0.223306
-0.204506
-0.187025
-0.170787
-0.155709
-0.141717
-0.128735
-0.116692
-0.10552
-0.0951544
-0.0855636
-0.0766587
-0.068077
-0.0603108
-0.536142
-0.52968
-0.522283
-0.511954
-0.497568
-0.479102
-0.457041
-0.432193
-0.405536
-0.378043
-0.350558
-0.323728
-0.297996
-0.273622
-0.250727
-0.229337
-0.209421
-0.19092
-0.173747
-0.157825
-0.143071
-0.129404
-0.11675
-0.105037
-0.0941934
-0.0841561
-0.0748951
-0.066309
-0.0580133
-0.0506142
-0.522229
-0.516074
-0.50874
-0.498233
-0.483489
-0.464559
-0.442016
-0.416747
-0.389782
-0.362119
-0.334598
-0.307849
-0.28229
-0.258156
-0.235547
-0.214476
-0.194899
-0.176746
-0.159932
-0.144372
-0.129982
-0.116681
-0.104392
-0.0930407
-0.0825558
-0.0728749
-0.0639697
-0.0557248
-0.0477325
-0.040716
-0.506557
-0.500731
-0.493478
-0.48282
-0.467763
-0.448435
-0.425496
-0.399907
-0.372742
-0.345016
-0.317563
-0.290991
-0.265691
-0.241874
-0.219624
-0.198934
-0.179752
-0.162001
-0.145594
-0.130442
-0.116458
-0.103561
-0.0916715
-0.0807155
-0.0706195
-0.0613226
-0.0527983
-0.0449157
-0.0372444
-0.0306271
-0.489138
-0.48366
-0.476509
-0.46573
-0.450409
-0.430754
-0.407509
-0.381702
-0.354447
-0.326768
-0.299485
-0.273182
-0.248226
-0.224804
-0.202978
-0.182731
-0.164001
-0.146705
-0.130752
-0.116052
-0.102516
-0.0900602
-0.0786055
-0.0680765
-0.0583988
-0.0495128
-0.0413936
-0.033894
-0.0265611
-0.0203592
-0.469993
-0.464883
-0.457852
-0.446986
-0.431455
-0.411549
-0.388092
-0.362172
-0.334937
-0.307412
-0.280398
-0.254456
-0.229926
-0.206972
-0.185637
-0.165893
-0.14767
-0.130879
-0.115428
-0.101223
-0.0881743
-0.0761969
-0.0652111
-0.0551405
-0.0459098
-0.0374609
-0.0297706
-0.0226739
-0.0156969
-0.00992596
-0.449158
-0.44443
-0.437543
-0.426625
-0.410942
-0.390863
-0.367288
-0.341364
-0.31426
-0.28699
-0.26034
-0.234849
-0.210824
-0.188409
-0.16763
-0.148448
-0.130784
-0.114549
-0.0996446
-0.0859766
-0.0734541
-0.0619913
-0.0515076
-0.041926
-0.0331704
-0.0251845
-0.0179461
-0.0112721
-0.00466857
0.000657129
-0.426677
-0.422345
-0.415623
-0.404693
-0.388917
-0.368746
-0.345154
-0.319338
-0.292467
-0.265536
-0.239357
-0.214402
-0.19096
-0.169152
-0.148991
-0.130426
-0.113375
-0.0977412
-0.0834275
-0.0703372
-0.0583786
-0.0474653
-0.0375162
-0.0284534
-0.0202005
-0.0127029
-0.00593898
0.000292556
0.00650469
0.0113722
-0.402604
-0.398682
-0.392147
-0.381244
-0.365438
-0.345263
-0.321761
-0.296158
-0.269569
-0.243128
-0.2175
-0.193162
-0.170375
-0.14924
-0.129755
-0.111862
-0.0954718
-0.0804862
-0.0668051
-0.0543315
-0.042973
-0.0326428
-0.0232595
-0.0147445
-0.00702121
-3.69004e-05
0.00622994
0.0119993
0.0178008
0.0221971
-0.377005
-0.373501
-0.367178
-0.356344
-0.340575
-0.320486
-0.297163
-0.271811
-0.245711
-0.219815
-0.194822
-0.171178
-0.149116
-0.128716
-0.109964
-0.0927931
-0.0771109
-0.0628163
-0.0498079
-0.0379881
-0.0272642
-0.0175493
-0.00876164
-0.000822488
0.00634481
0.0127911
0.0185384
0.023825
0.0291936
0.0331017
-0.349956
-0.346875
-0.340787
-0.330068
-0.314409
-0.294482
-0.271381
-0.246473
-0.220911
-0.195654
-0.171381
-0.148504
-0.127231
-0.107625
-0.0896586
-0.0732588
-0.058329
-0.0447662
-0.0324684
-0.0213374
-0.0112807
-0.00221137
0.00595203
0.0132885
0.0198742
0.0257579
0.0309632
0.0357445
0.040652
0.0440501
-0.321535
-0.318885
-0.313057
-0.302502
-0.28701
-0.267284
-0.244584
-0.220177
-0.195242
-0.170714
-0.147238
-0.125197
-0.104774
-0.086016
-0.0688852
-0.0533015
-0.0391656
-0.0263729
-0.0148209
-0.00441152
0.0049476
0.0133429
0.0208553
0.0275637
0.0335432
0.0388402
0.0434802
0.0477311
0.0521433
0.0550113
-0.29182
-0.289623
-0.284076
-0.273724
-0.258434
-0.239062
-0.216817
-0.193002
-0.168783
-0.145064
-0.122457
-0.101316
-0.0818004
-0.0639411
-0.0476916
-0.032966
-0.0196624
-0.00767529
0.0030982
0.0127558
0.0213893
0.0290844
0.0359214
0.0419783
0.0473283
0.0520148
0.0560664
0.0597616
0.0636416
0.0659598
-0.260893
-0.259193
-0.253937
-0.243814
-0.228835
-0.209871
-0.188167
-0.165032
-0.141612
-0.118777
-0.097106
-0.0769234
-0.0583675
-0.0414542
-0.0261283
-0.0122994
0.000136625
0.0112858
0.021251
0.0301293
0.0380118
0.0449831
0.0511226
0.0565069
0.0612056
0.0652587
0.0687012
0.071821
0.075128
0.076831
-0.228841
-0.227723
-0.22274
-0.212901
-0.19829
-0.179807
-0.158728
-0.136356
-0.113811
-0.0919297
-0.0712554
-0.0520853
-0.0345367
-0.0186119
-0.00424795
0.00864936
0.0201858
0.0304678
0.0395978
0.0476724
0.0547814
0.0610083
0.0664312
0.0711243
0.075152
0.0785506
0.0813695
0.0838991
0.0865551
0.0874702
-0.195846
-0.195274
-0.190598
-0.181088
-0.1669
-0.148974
-0.128598
-0.107064
-0.085465
-0.0646
-0.0449784
-0.0268693
-0.0103708
0.00452724
0.0178947
0.0298291
0.0404375
0.0498263
0.0580976
0.0653469
0.0716629
0.077128
0.0818188
0.085806
0.0891463
0.0918762
0.0940685
0.0959815
0.0978126
0.0977102
-0.16206
-0.161925
-0.157623
-0.148485
-0.134777
-0.117475
-0.0978742
-0.0772501
-0.0566611
-0.0368695
-0.0183501
-0.00134549
0.0140649
0.0279024
0.040243
0.0511871
0.0608425
0.0693156
0.0767077
0.0831133
0.0886201
0.0933093
0.0972561
0.100527
0.103172
0.105235
0.106817
0.108073
0.108831
0.107565
-0.12753
-0.127843
-0.123934
-0.115207
-0.102033
-0.0854193
-0.0666605
-0.0470096
-0.0274887
-0.00882121
0.00855207
0.0244144
0.0387036
0.0514514
0.062739
0.0726692
0.0813503
0.0888884
0.095384
0.100931
0.105615
0.109517
0.112711
0.115259
0.117209
0.118626
0.119634
0.120206
0.119769
0.117523
-0.0923763
-0.0931523
-0.0896498
-0.0813703
-0.0687816
-0.0529164
-0.0350608
-0.0164407
0.00196089
0.01946
0.0356494
0.0503371
0.063477
0.0751103
0.0853231
0.0942197
0.101909
0.108496
0.114081
0.118757
0.122608
0.125715
0.128149
0.129971
0.131231
0.132021
0.132466
0.132302
0.130656
0.129705
-0.0567318
-0.0579766
-0.0548952
-0.047097
-0.0351414
-0.0200788
-0.00318118
0.0143575
0.0315952
0.047888
0.0628617
0.0763479
0.0883156
0.0988145
0.107935
0.115782
0.122466
0.12809
0.132753
0.136548
0.139559
0.141863
0.143533
0.144626
0.145199
0.145355
0.145184
0.144331
0.142236
0.141929
-0.0207276
-0.0224427
-0.0197958
-0.0125103
-0.0012314
0.0129801
0.0288714
0.0452847
0.0613207
0.0763759
0.0901081
0.102371
0.113149
0.122498
0.130512
0.137299
0.142966
0.147619
0.151353
0.154261
0.156425
0.157923
0.158825
0.159189
0.159076
0.158588
0.15778
0.156297
0.153854
0.15346
0.0155048
0.0133205
0.0155205
0.0222649
0.0328283
0.0461457
0.060989
0.0762398
0.0910433
0.104836
0.117307
0.128332
0.137906
0.146095
0.152994
0.158712
0.163357
0.167032
0.169833
0.171851
0.173166
0.173856
0.173989
0.173623
0.172824
0.171686
0.170246
0.168189
0.165384
0.164631
0.0518329
0.0491823
0.050925
0.057103
0.066917
0.0793032
0.0930636
0.107122
0.120669
0.13318
0.144376
0.154152
0.162516
0.169538
0.175318
0.179964
0.183584
0.186279
0.188146
0.189272
0.189738
0.189621
0.188986
0.187893
0.186406
0.184616
0.182549
0.179926
0.176707
0.175495
0.0881239
0.0850116
0.0862883
0.0918782
0.100914
0.112338
0.124987
0.13783
0.150103
0.161322
0.171234
0.179756
0.186906
0.192761
0.197421
0.200995
0.203591
0.205309
0.206243
0.20648
0.206101
0.205178
0.203778
0.201961
0.199789
0.197348
0.194659
0.191471
0.187802
0.186083
0.124245
0.120677
0.121481
0.126465
0.134698
0.145136
0.156653
0.168264
0.179252
0.189172
0.1978
0.205068
0.211007
0.215697
0.219241
0.221748
0.223325
0.22407
0.224077
0.223431
0.222211
0.220489
0.21833
0.215792
0.212939
0.209851
0.206544
0.202789
0.198652
0.196401
0.160065
0.156049
0.156376
0.160739
0.16815
0.177584
0.187953
0.198324
0.208024
0.216645
0.223992
0.230013
0.234747
0.23828
0.240717
0.242165
0.242731
0.242512
0.2416
0.240079
0.238027
0.235514
0.232604
0.229354
0.225825
0.222095
0.218175
0.213857
0.209242
0.206445
0.195452
0.190996
0.190844
0.194576
0.201153
0.20957
0.218785
0.227912
0.236326
0.243656
0.24973
0.254515
0.258057
0.260446
0.261787
0.26219
0.261756
0.260585
0.258767
0.256383
0.253509
0.250215
0.246564
0.242611
0.238416
0.234053
0.229527
0.22465