/*--------------------------------*- C++ -*----------------------------------*\
  =========                 |
  \\      /  F ield         | OpenFOAM: The Open Source CFD Toolbox
   \\    /   O peration     | Website:  https://openfoam.org
    \\  /    A nd           | Version:  7
     \\/     M anipulation  |
\*---------------------------------------------------------------------------*/
FoamFile
{
    version     2.0;
    format      ascii;
    class       surfaceScalarField;
    location    "86";
    object      phi;
}
// * * * * * * * * * * * * * * * * * * * * * * * * * * * * * * * * * * * * * //

dimensions      [0 3 -1 0 0 0 0];

internalField   nonuniform List<scalar> 
79480
(
-6.50034e-07
1.86955e-05
-1.80454e-05
-2.56628e-06
5.38653e-05
-5.19491e-05
-5.7707e-06
8.80636e-05
-8.48591e-05
-1.02823e-05
0.000121004
-0.000116493
-1.61126e-05
0.000152417
-0.000146587
-2.32624e-05
0.000182084
-0.000174934
-3.17199e-05
0.000209856
-0.000201399
-4.14597e-05
0.000235666
-0.000225926
-5.24426e-05
0.000259536
-0.000248553
-6.46168e-05
0.000281583
-0.000269409
-7.79198e-05
0.000302009
-0.000288706
-9.22809e-05
0.000321089
-0.000306728
-0.000107624
0.000339153
-0.00032381
-0.000123872
0.000356554
-0.000340307
-0.000140946
0.000373647
-0.000356572
-0.000158773
0.000390755
-0.000372928
-0.000177283
0.000408148
-0.000389638
-0.000196413
0.000426019
-0.000406889
-0.000216107
0.00044447
-0.000424776
-0.000236317
0.0004635
-0.00044329
-0.000257004
0.000483001
-0.000462314
-0.000278138
0.000502754
-0.00048162
-0.000299703
0.000522427
-0.000500862
-0.000321699
0.000541573
-0.000519577
-0.000344145
0.000559622
-0.000537176
-0.000367088
0.000575876
-0.000552934
-0.000390605
0.000589488
-0.000565971
-0.000414812
0.000599436
-0.00057523
-0.000439876
0.000604455
-0.000579391
0.00060302
-0.000576749
-0.000466147
-5.29771e-07
1.92252e-05
-2.11938e-06
5.54549e-05
-4.81423e-06
9.07584e-05
-8.65595e-06
0.000124846
-1.36775e-05
0.000157439
-1.98996e-05
0.000188306
-2.7328e-05
0.000217285
-3.59523e-05
0.00024429
-4.5745e-05
0.000269329
-5.66621e-05
0.0002925
-6.86452e-05
0.000313992
-8.16236e-05
0.000334068
-9.55173e-05
0.000353047
-0.00011024
0.000371277
-0.000125704
0.00038911
-0.000141819
0.00040687
-0.000158499
0.000424828
-0.000175661
0.00044318
-0.000193225
0.000462033
-0.000211116
0.000481391
-0.000229265
0.00050115
-0.000247606
0.000521095
-0.00026608
0.000540901
-0.000284634
0.000560127
-0.000303227
0.000578216
-0.000321837
0.000594487
-0.000340471
0.000608122
-0.000359175
0.00061814
-0.000378069
0.000623349
0.000622455
-0.000397503
-4.0628e-07
1.96315e-05
-1.65866e-06
5.67073e-05
-3.82465e-06
9.29244e-05
-6.96709e-06
0.000127989
-1.11392e-05
0.000161611
-1.63804e-05
0.000193548
-2.27134e-05
0.000223618
-3.01417e-05
0.000251718
-3.86488e-05
0.000277836
-4.81983e-05
0.000302049
-5.8735e-05
0.000324529
-7.01873e-05
0.00034552
-8.24702e-05
0.000365329
-9.54881e-05
0.000384295
-0.000109139
0.000402761
-0.000123316
0.000421047
-0.000137911
0.000439423
-0.000152818
0.000458086
-0.000167927
0.000477143
-0.000183132
0.000496596
-0.000198324
0.000516343
-0.000213395
0.000536166
-0.00022823
0.000555736
-0.000242717
0.000574613
-0.00025674
0.000592239
-0.000270194
0.000607941
-0.000282998
0.000620926
-0.000295117
0.000630259
-0.000306598
0.000634831
0.00063362
-0.000317764
-2.81299e-07
1.99128e-05
-1.19038e-06
5.76164e-05
-2.81494e-06
9.4549e-05
-5.23716e-06
0.000130411
-8.52874e-06
0.000164903
-1.27464e-05
0.000197765
-1.79281e-05
0.000228799
-2.40905e-05
0.000257881
-3.12274e-05
0.000284973
-3.93088e-05
0.000310131
-4.82825e-05
0.000333502
-5.80752e-05
0.000355313
-6.85956e-05
0.00037585
-7.97376e-05
0.000395437
-9.13836e-05
0.000414407
-0.000103408
0.000433071
-0.000115678
0.000451694
-0.000128059
0.000470467
-0.00014041
0.000489494
-0.000152586
0.000508773
-0.000164436
0.000528193
-0.000175799
0.000547529
-0.000186504
0.000566441
-0.000196365
0.000584474
-0.000205186
0.00060106
-0.000212767
0.000615523
-0.000218925
0.000627084
-0.000223524
0.000634858
-0.000226525
0.000637831
0.00063526
-0.000228164
-1.56657e-07
2.00695e-05
-7.21181e-07
5.81809e-05
-1.799e-06
9.56268e-05
-3.48925e-06
0.000132101
-5.87985e-06
0.000167293
-9.04272e-06
0.000200928
-1.30296e-05
0.000232786
-1.78689e-05
0.00026272
-2.35632e-05
0.000290667
-3.00888e-05
0.000316656
-3.73951e-05
0.000340809
-4.54067e-05
0.000363324
-5.40254e-05
0.000384469
-6.31336e-05
0.000404545
-7.25972e-05
0.00042387
-8.2269e-05
0.000442743
-9.19913e-05
0.000461416
-0.000101597
0.000480073
-0.000110912
0.000498808
-0.000119748
0.000517609
-0.000127908
0.000536353
-0.000135177
0.000554798
-0.000141319
0.000572582
-0.000146074
0.000589229
-0.000149159
0.000604145
-0.000150271
0.000616635
-0.000149112
0.000625924
-0.000145431
0.000631177
-0.000139094
0.000631494
0.000626288
-0.000130122
-3.439e-08
2.01039e-05
-2.57963e-07
5.84045e-05
-7.91388e-07
9.61602e-05
-1.74778e-06
0.000133057
-3.22851e-06
0.000168774
-5.3183e-06
0.000203018
-8.08052e-06
0.000235549
-1.15535e-05
0.000266193
-1.57477e-05
0.000294861
-2.06439e-05
0.000321553
-2.61931e-05
0.000346358
-3.23169e-05
0.000369448
-3.891e-05
0.000391062
-4.58422e-05
0.000411477
-5.29624e-05
0.00043099
-6.01011e-05
0.000449882
-6.70734e-05
0.000468388
-7.36802e-05
0.00048668
-7.97085e-05
0.000504836
-8.49297e-05
0.00052283
-8.90962e-05
0.000540519
-9.19367e-05
0.000557638
-9.31505e-05
0.000573796
-9.24022e-05
0.000588481
-8.93191e-05
0.000601062
-8.34942e-05
0.00061081
-7.45038e-05
0.000616933
-6.19652e-05
0.000618639
-4.56336e-05
0.000615162
0.000606234
-2.55798e-05
8.4079e-08
2.00198e-05
1.92238e-07
5.82963e-05
1.92884e-07
9.61595e-05
-3.79931e-08
0.000133288
-6.12366e-07
0.000169348
-1.62468e-06
0.00020403
-3.14744e-06
0.000237071
-5.22689e-06
0.000268273
-7.87957e-06
0.000297514
-1.10899e-05
0.000324763
-1.48093e-05
0.000350077
-1.89561e-05
0.000373595
-2.34171e-05
0.000395523
-2.80498e-05
0.00041611
-3.26854e-05
0.000435626
-3.71318e-05
0.000454328
-4.11763e-05
0.000472433
-4.45867e-05
0.000490091
-4.7112e-05
0.000507361
-4.84799e-05
0.000524198
-4.83938e-05
0.000540433
-4.65267e-05
0.000555771
-4.25139e-05
0.000569783
-3.59465e-05
0.000581913
-2.6365e-05
0.00059148
-1.32608e-05
0.000597706
3.90655e-06
0.000599766
2.56778e-05
0.000596867
5.24437e-05
0.000588397
0.000574713
8.39649e-05
1.96219e-07
1.98236e-05
6.22354e-07
5.78702e-05
1.13864e-06
9.56433e-05
1.614e-06
0.000132813
1.92977e-06
0.000169032
1.98468e-06
0.000203975
1.7e-06
0.000237356
1.02403e-06
0.000268948
-6.38918e-08
0.000298602
-1.5507e-06
0.00032625
-3.38696e-06
0.000351913
-5.48717e-06
0.000375695
-7.73016e-06
0.000397766
-9.96092e-06
0.000418341
-1.19932e-05
0.000437658
-1.36124e-05
0.000455947
-1.45778e-05
0.000473398
-1.46245e-05
0.000490137
-1.34634e-05
0.0005062
-1.07794e-05
0.000521514
-6.22741e-06
0.000535881
5.73544e-07
0.00054897
1.00477e-05
0.000560309
2.2674e-05
0.000569287
3.89923e-05
0.000575162
5.96091e-05
0.000577089
8.5186e-05
0.000574189
0.000116373
0.00056568
0.000153662
0.000551108
0.000531278
0.000197097
3.0057e-07
1.9523e-05
1.02545e-06
5.71453e-05
2.03091e-06
9.46378e-05
3.1827e-06
0.000131661
4.35902e-06
0.000167856
5.45553e-06
0.000202879
6.39041e-06
0.000236421
7.10919e-06
0.00026823
7.5892e-06
0.000298122
7.84334e-06
0.000325996
7.9223e-06
0.000351834
7.91618e-06
0.000375702
7.95435e-06
0.000397727
8.2042e-06
0.000418091
8.86905e-06
0.000436994
1.01857e-05
0.000454631
1.24218e-05
0.000471162
1.58746e-05
0.000486684
2.08704e-05
0.000501205
2.7766e-05
0.000514619
3.69527e-05
0.000526695
4.88622e-05
0.000537061
6.39759e-05
0.000545196
8.28346e-05
0.000550428
0.000106051
0.000551945
0.00013432
0.000548821
0.000168413
0.000540096
0.000209126
0.000524967
0.000257116
0.000503117
0.000475891
0.000312503
3.95308e-07
1.91277e-05
1.3949e-06
5.61457e-05
2.85519e-06
9.31775e-05
4.64285e-06
0.000129874
6.63699e-06
0.000165862
8.73396e-06
0.000200782
1.08523e-05
0.000234303
1.29379e-05
0.000266144
1.49685e-05
0.000296091
1.69585e-05
0.000324006
1.89615e-05
0.000349831
2.10729e-05
0.00037359
2.34304e-05
0.00039537
2.62136e-05
0.000415308
2.96424e-05
0.000433565
3.39747e-05
0.000450298
3.95046e-05
0.000465632
4.65602e-05
0.000479629
5.55035e-05
0.000492261
6.67317e-05
0.00050339
8.06798e-05
0.000512746
9.78277e-05
0.000519913
0.000118708
0.000524315
0.000143918
0.000525218
0.000174134
0.000521729
0.000210127
0.000512827
0.000252773
0.00049745
0.000303012
0.000474728
0.000361685
0.000444445
0.000408508
0.000429069
4.78812e-07
1.86489e-05
1.72448e-06
5.49001e-05
3.59779e-06
9.13042e-05
5.97049e-06
0.000127501
8.7268e-06
0.000163106
1.17677e-05
0.000197741
1.50158e-05
0.000231055
1.84203e-05
0.00026274
2.19626e-05
0.000292549
2.56603e-05
0.000320308
2.95717e-05
0.00034592
3.37983e-05
0.000369363
3.84866e-05
0.000390682
4.38282e-05
0.000409966
5.00588e-05
0.000427334
5.74567e-05
0.0004429
6.63408e-05
0.000456748
7.70691e-05
0.000468901
9.00377e-05
0.000479293
0.000105682
0.000487746
0.000124479
0.000493949
0.000146954
0.000497438
0.000173686
0.000497583
0.000205324
0.00049358
0.000242599
0.000484454
0.000286348
0.000469078
0.000337536
0.000446262
0.000397245
0.000415019
0.000466515
0.000375175
0.000329149
0.000545874
5.49631e-07
1.80992e-05
2.00857e-06
5.34411e-05
4.24616e-06
8.90666e-05
7.14352e-06
0.000124603
1.05941e-05
0.000159655
1.45075e-05
0.000193827
1.88142e-05
0.000226748
2.34704e-05
0.000258083
2.84636e-05
0.000287556
3.38174e-05
0.000314954
3.95963e-05
0.000340141
4.59094e-05
0.00036305
5.29121e-05
0.000383679
6.08081e-05
0.00040207
6.98484e-05
0.000418294
8.03306e-05
0.000432418
9.25974e-05
0.000444481
0.000107035
0.000454463
0.000124072
0.000462255
0.000144181
0.000467637
0.000167879
0.000470251
0.000195735
0.000469583
0.000228372
0.000464945
0.000266487
0.000455466
0.00031086
0.000440081
0.000362384
0.000417555
0.000422099
0.000386546
0.000491219
0.0003459
0.000570995
0.000295399
0.000237816
0.000662328
6.06512e-07
1.74927e-05
2.24225e-06
5.18054e-05
4.78931e-06
8.65195e-05
8.1423e-06
0.000121251
1.2208e-05
0.000155589
1.69089e-05
0.000189127
2.21868e-05
0.00022147
2.80086e-05
0.000252262
3.43709e-05
0.000281193
4.13059e-05
0.000308019
4.88865e-05
0.000332561
5.72303e-05
0.000354707
6.65031e-05
0.000374406
7.69202e-05
0.000391653
8.87478e-05
0.000406466
0.000102302
0.000418864
0.000117948
0.000428835
0.0001361
0.000436312
0.000157217
0.000441138
0.000181807
0.000443047
0.000210429
0.00044163
0.000243691
0.00043632
0.000282266
0.000426371
0.000326893
0.000410838
0.000378403
0.000388572
0.000437738
0.000358219
0.000506005
0.000318279
0.000584533
0.000267372
0.000674786
0.000205146
0.000134415
0.000778188
6.48437e-07
1.68443e-05
2.4215e-06
5.00323e-05
5.2181e-06
8.3723e-05
8.95037e-06
0.000117518
1.35425e-05
0.000150997
1.89334e-05
0.000183736
2.50806e-05
0.000215323
3.19646e-05
0.000245378
3.95946e-05
0.000273563
4.80142e-05
0.0002996
5.73067e-05
0.000323268
6.76e-05
0.000344413
7.90711e-05
0.000362935
9.1948e-05
0.000378776
0.000106512
0.000391903
0.000123096
0.000402279
0.00014209
0.000409842
0.000163931
0.00041447
0.000189112
0.000415957
0.000218176
0.000413982
0.000251721
0.000408084
0.000290402
0.000397639
0.000334937
0.000381836
0.000386118
0.000359657
0.000444827
0.000329863
0.000512061
0.000290985
0.000588986
0.000241355
0.000677035
0.000179323
0.000777862
0.000104318
1.86799e-05
0.000893597
6.74656e-07
1.61696e-05
2.54333e-06
4.81637e-05
5.52565e-06
8.07406e-05
9.55514e-06
0.000113489
1.45772e-05
0.000145975
2.0551e-05
0.000177762
2.74531e-05
0.000208421
3.52813e-05
0.000237549
4.40606e-05
0.000264784
5.38487e-05
0.000289812
6.47417e-05
0.000312375
7.68802e-05
0.000332275
9.04534e-05
0.000349362
0.000105703
0.000363527
0.000122926
0.00037468
0.000142474
0.000382731
0.000164758
0.000387558
0.000190243
0.000388985
0.000219452
0.000386748
0.000252968
0.000380467
0.000291429
0.000369623
0.00033554
0.000353528
0.000386074
0.000331302
0.000443882
0.000301849
0.000509908
0.000263837
0.000585215
0.000215679
0.00067103
0.000155539
0.000768884
8.14693e-05
0.00088057
-7.36817e-06
-0.000109884
0.00100913
6.84724e-07
1.54849e-05
2.60592e-06
4.62425e-05
5.70773e-06
7.76388e-05
9.94866e-06
0.000109248
1.52988e-05
0.000140625
2.17412e-05
0.000171319
2.92747e-05
0.000200887
3.79179e-05
0.000228906
4.77147e-05
0.000254987
5.87396e-05
0.000278787
7.11045e-05
0.00030001
8.49648e-05
0.000318415
0.000100524
0.000333803
0.000118039
0.000346011
0.000137824
0.000354895
0.000160251
0.000360304
0.000185752
0.000362057
0.000214823
0.000359915
0.000248021
0.00035355
0.000285967
0.000342521
0.00032935
0.00032624
0.00037893
0.000303948
0.000435545
0.000274687
0.000500118
0.000237276
0.000573675
0.00019028
0.000657359
0.000131994
0.000752475
6.04234e-05
0.000860642
-2.66975e-05
0.000983718
-0.000130444
-0.000252004
0.00112584
6.78551e-07
1.48064e-05
2.60888e-06
4.43121e-05
5.76321e-06
7.44845e-05
1.01284e-05
0.000104883
1.57024e-05
0.000135051
2.24954e-05
0.000164526
3.05318e-05
0.000192851
3.9854e-05
0.000219584
5.05277e-05
0.000244314
6.26477e-05
0.000266667
7.63445e-05
0.000286313
9.17908e-05
0.000302968
0.000109207
0.000316386
0.000128869
0.00032635
0.000151109
0.000332656
0.000176321
0.000335092
0.000204966
0.000333413
0.000237569
0.000327311
0.000274727
0.000316392
0.000317109
0.000300139
0.00036546
0.000277888
0.000420609
0.000248799
0.000483471
0.000211825
0.000555061
0.000165686
0.000636504
0.000108837
0.000729052
3.94467e-05
0.000834097
-4.4622e-05
0.000953348
-0.000145948
0.0010886
-0.000265699
-0.000408623
0.00124522
6.56447e-07
1.41499e-05
2.55337e-06
4.24152e-05
5.69444e-06
7.13434e-05
1.00979e-05
0.000100479
1.57928e-05
0.000129356
2.2819e-05
0.0001575
3.12294e-05
0.000184441
4.10932e-05
0.00020972
5.25013e-05
0.000232906
6.55715e-05
0.000253596
8.04562e-05
0.000271429
9.73489e-05
0.000286076
0.000116491
0.000297244
0.000138179
0.000304661
0.000162769
0.000308065
0.000190683
0.000307178
0.000222411
0.000301684
0.00025852
0.000291203
0.000299651
0.000275261
0.000346531
0.000253258
0.000399976
0.000224444
0.000460894
0.000187881
0.000530301
0.000142419
0.00060932
8.66664e-05
0.000699201
1.89558e-05
0.000801322
-6.26735e-05
0.000917172
-0.000160473
0.00104853
-0.000277311
0.001197
-0.000414161
-0.000580764
0.00136914
6.19178e-07
1.35307e-05
2.44232e-06
4.05921e-05
5.50774e-06
6.8278e-05
9.86794e-06
9.6119e-05
1.55854e-05
0.000123639
2.27325e-05
0.000150353
3.13934e-05
0.00017578
4.1667e-05
0.000199446
5.36719e-05
0.000220901
6.75529e-05
0.000239715
8.34878e-05
0.000255494
0.000101695
0.000267868
0.000122442
0.000276497
0.00014605
0.000281053
0.000172906
0.000281209
0.000203465
0.000276619
0.000238258
0.000266891
0.000277898
0.000251563
0.000323086
0.000230072
0.000374621
0.000201724
0.000433402
0.000165663
0.000500441
0.000120842
0.000576868
6.59918e-05
0.000663936
-4.01909e-07
0.000763037
-8.01451e-05
0.000875675
-0.000175311
0.00100343
-0.000288233
0.00114813
-0.000422003
0.00131096
-0.000576989
-0.000769294
0.00149949
5.68022e-07
1.29627e-05
2.28064e-06
3.88795e-05
5.2138e-06
6.53448e-05
9.4567e-06
9.18761e-05
1.51077e-05
0.000117988
2.22741e-05
0.000143187
3.10737e-05
0.00016698
4.16376e-05
0.000188882
5.41161e-05
0.000208422
6.86842e-05
0.000225147
8.55495e-05
0.000238628
0.000104961
0.000248457
0.000127216
0.000254242
0.000152671
0.000255598
0.000181749
0.000252131
0.000214949
0.000243419
0.000252854
0.000228987
0.000296136
0.00020828
0.000345574
0.000180635
0.00040205
0.000145247
0.000466571
0.000101142
0.000540267
4.71466e-05
0.0006244
-1.81414e-05
0.000720371
-9.63732e-05
0.000829695
-0.000189469
0.000953995
-0.000299612
0.0010949
-0.000429142
0.00125417
-0.000581264
0.00143243
-0.00075525
-0.0009746
0.00163773
5.04822e-07
1.24579e-05
2.07538e-06
3.73089e-05
4.82793e-06
6.25923e-05
8.89066e-06
8.78133e-05
1.44e-05
0.000112478
2.15001e-05
0.000136087
3.03449e-05
0.000158135
4.1101e-05
0.000178126
5.39533e-05
0.00019557
6.91116e-05
0.000209989
8.68187e-05
0.000220921
0.000107359
0.000227916
0.000131071
0.000230531
0.000158351
0.000228317
0.000189672
0.00022081
0.000225588
0.000207503
0.000266747
0.000187828
0.000313901
0.000161126
0.000367918
0.000126618
0.000429789
8.33756e-05
0.00050064
3.02908e-05
0.000581736
-3.39495e-05
0.00067448
-0.000110885
0.0007804
-0.000202293
0.00090112
-0.000310188
0.00103831
-0.000436802
0.00119356
-0.000584391
0.00136837
-0.000756075
0.00156271
-0.000949588
-0.00119618
0.00178429
4.32011e-07
1.20259e-05
1.83577e-06
3.59051e-05
4.37028e-06
6.00578e-05
8.2047e-06
8.39789e-05
1.35153e-05
0.000107168
2.04856e-05
0.000129116
2.93078e-05
0.000149313
4.01873e-05
0.000167247
5.33475e-05
0.00018241
6.9038e-05
0.000194299
8.7543e-05
0.000202416
0.000109191
0.000206268
0.000134368
0.000205354
0.000163526
0.000199159
0.000197198
0.000187138
0.000236008
0.000168693
0.000280688
0.000143149
0.000332084
0.00010973
0.000391174
6.75285e-05
0.000459073
1.54771e-05
0.000537038
-4.76745e-05
0.000626469
-0.000123381
0.000728893
-0.000213309
0.000845933
-0.000319333
0.000979244
-0.0004435
0.00113043
-0.000587986
0.00130088
-0.000754845
0.00149162
-0.000946817
0.00170188
-0.00115985
-0.00143231
0.00193801
3.52625e-07
1.16733e-05
1.57326e-06
3.46845e-05
3.8657e-06
5.77653e-05
7.44182e-06
8.04028e-05
1.25197e-05
0.00010209
1.93239e-05
0.000122312
2.80882e-05
0.000140549
3.90598e-05
0.000156275
5.25056e-05
0.000168964
6.87209e-05
0.000178083
8.80387e-05
0.000183099
0.000110841
0.000183465
0.000137573
0.000178622
0.000168753
0.000167979
0.00020499
0.000150901
0.000246997
0.000126686
0.000295604
9.45421e-05
0.000351771
5.35633e-05
0.000416596
2.70334e-06
0.000491327
-5.92543e-05
0.000577351
-0.000133698
0.000676181
-0.000222211
0.000789423
-0.000326552
0.000918714
-0.000448624
0.00106562
-0.00059041
0.00123151
-0.000753871
0.00141738
-0.000940714
0.00162347
-0.00115291
0.00184834
-0.00138471
-0.0016798
0.00209583
2.70255e-07
1.1403e-05
1.30128e-06
3.36535e-05
3.3433e-06
5.57233e-05
6.65244e-06
7.70937e-05
1.14902e-05
9.72521e-05
1.81249e-05
0.000115677
2.68344e-05
0.000131839
3.79121e-05
0.000145198
5.16738e-05
0.000155202
6.84671e-05
0.00016129
8.86828e-05
0.000162883
0.000112767
0.000159381
0.000141236
0.000150154
0.000174689
0.000134526
0.000213828
0.000111762
0.000259468
8.10456e-05
0.000312554
4.14565e-05
0.000374168
-8.05103e-06
0.000445541
-6.8669e-05
0.000528037
-0.000141751
0.000623151
-0.000228812
0.000732459
-0.000331519
0.000857564
-0.000451656
0.000999991
-0.000591052
0.00116106
-0.000751475
0.00134166
-0.000934475
0.0015422
-0.00114125
0.00176185
-0.00137257
0.00199866
-0.00162152
-0.00193409
0.00225294
1.88961e-07
1.1214e-05
1.03492e-06
3.28075e-05
2.83566e-06
5.39226e-05
5.89288e-06
7.40364e-05
1.05134e-05
9.26316e-05
1.70113e-05
0.00010918
2.57127e-05
0.000123138
3.69614e-05
0.000133949
5.11285e-05
0.000141035
6.86219e-05
0.000143797
8.98994e-05
0.000141605
0.000115483
0.000133798
0.000145972
0.000119664
0.000182063
9.84345e-05
0.000224563
6.92624e-05
0.000274402
3.12063e-05
0.000332648
-1.67898e-05
0.00040051
-7.59128e-05
0.000479332
-0.000147491
0.000570576
-0.000232995
0.000675783
-0.000334019
0.00079651
-0.000452246
0.000934228
-0.000589374
0.00109019
-0.000747014
0.00126526
-0.000926545
0.00145967
-0.00112888
0.00167296
-0.00135454
0.00190309
-0.0016027
0.00214784
-0.00186626
-0.00218949
0.00240324
1.13119e-07
1.11009e-05
7.90337e-07
3.21303e-05
2.37762e-06
5.23353e-05
5.22333e-06
7.11907e-05
9.68133e-06
8.81736e-05
1.61146e-05
0.000102746
2.49008e-05
0.000114352
3.64401e-05
0.00012241
5.11652e-05
0.00012631
6.9553e-05
0.000125409
9.21385e-05
0.00011902
0.00011953
0.000106406
0.000152425
8.67691e-05
0.000191626
5.92332e-05
0.000238056
2.28325e-05
0.000292768
-2.35053e-05
0.00035695
-8.09717e-05
0.000431921
-0.000150884
0.00051911
-0.00023468
0.000620016
-0.000333902
0.000736146
-0.000450149
0.000868911
-0.00058501
0.0010195
-0.00073996
0.0011887
-0.000916214
0.00137671
-0.00111456
0.00158292
-0.00133509
0.00180586
-0.00157748
0.00204227
-0.00183911
0.0022899
-0.0021139
-0.00243973
0.00254014
4.72183e-08
1.10537e-05
5.84032e-07
3.15935e-05
2.00467e-06
5.09147e-05
4.70502e-06
6.84904e-05
9.08793e-06
8.37907e-05
1.55681e-05
9.6266e-05
2.45794e-05
0.000105341
3.65838e-05
0.000110405
5.20829e-05
0.000110811
7.16312e-05
0.00010586
9.58506e-05
9.48004e-05
0.000125446
7.68105e-05
0.000161223
5.09928e-05
0.000204097
1.63588e-05
0.000255111
-2.81816e-05
0.000315435
-8.38292e-05
0.000386362
-0.000151898
0.000469286
-0.000233808
0.000565666
-0.00033106
0.000676955
-0.00044519
0.000804505
-0.000577699
0.000949437
-0.000729942
0.00111248
-0.000903001
0.00129377
-0.00109751
0.00149269
-0.00131348
0.00170766
-0.00155006
0.00193608
-0.0018059
0.00217382
-0.00207685
0.00241864
-0.00235872
-0.00267857
0.00265748
-4.40914e-09
1.10581e-05
4.3197e-07
3.11571e-05
1.75112e-06
4.95955e-05
4.39717e-06
6.58443e-05
8.82381e-06
7.9364e-05
1.55008e-05
8.9589e-05
2.49225e-05
9.59188e-05
3.76186e-05
9.77091e-05
5.41668e-05
9.42626e-05
7.52071e-05
8.48201e-05
0.000101457
6.85509e-05
0.000133725
4.4542e-05
0.000172929
1.1789e-05
0.000220101
-3.08133e-05
0.000276395
-8.4476e-05
0.000343081
-0.000150515
0.000421522
-0.000230339
0.000513133
-0.00032542
0.000619322
-0.000437248
0.000741384
-0.000567252
0.000880382
-0.000716697
0.00103699
-0.000886548
0.0012113
-0.00107731
0.00140267
-0.00128888
0.00160953
-0.00152034
0.00182933
-0.00176985
0.00205841
-0.00203498
0.00229228
-0.00231071
0.00252835
-0.0025948
-0.00290028
0.00275007
-3.78076e-08
1.10959e-05
3.48673e-07
3.07706e-05
1.64819e-06
4.8296e-05
4.35361e-06
6.31389e-05
8.97141e-06
7.47462e-05
1.60295e-05
8.2531e-05
2.60873e-05
8.58611e-05
3.97477e-05
8.40486e-05
5.7671e-05
7.63393e-05
8.05887e-05
6.19024e-05
0.000109319
3.98205e-05
0.00014478
9.0814e-06
0.000187998
-3.14291e-05
0.000240114
-8.29295e-05
0.000302376
-0.000146738
0.000376117
-0.000224257
0.000462719
-0.000316941
0.000563544
-0.000426245
0.000679843
-0.000553547
0.000812632
-0.000700042
0.000962541
-0.000866606
0.00112964
-0.00105365
0.00131328
-0.00126095
0.00151191
-0.00148751
0.00172304
-0.00173147
0.00194322
-0.00199004
0.00216798
-0.00225974
0.00239298
-0.00253571
0.00261453
-0.00281635
-0.0030999
0.00281414
-4.96827e-08
1.11456e-05
3.46295e-07
3.03746e-05
1.72212e-06
4.69202e-05
4.61978e-06
6.02413e-05
9.6002e-06
6.97658e-05
1.72525e-05
7.48787e-05
2.82051e-05
7.49084e-05
4.31391e-05
6.91146e-05
6.28016e-05
5.66768e-05
8.80202e-05
3.66838e-05
0.000119716
8.12514e-06
0.000158911
-3.0114e-05
0.000206736
-7.92537e-05
0.000264419
-0.000140612
0.000333269
-0.000215588
0.000414636
-0.000305624
0.000509848
-0.000412152
0.00062012
-0.000536517
0.000746435
-0.000679862
0.000889399
-0.000843005
0.00104908
-0.00102628
0.00122482
-0.0012294
0.00141515
-0.00145128
0.00161764
-0.00169001
0.00182896
-0.00194278
0.002045
-0.00220608
0.00226088
-0.00247562
0.00247253
-0.00274736
0.00267384
-0.00301766
-0.00327603
0.00284997
-3.7793e-08
1.11834e-05
4.33944e-07
2.99029e-05
1.9928e-06
4.53613e-05
5.23016e-06
5.70039e-05
1.07629e-05
6.4233e-05
1.9244e-05
6.63977e-05
3.13741e-05
6.27783e-05
4.79154e-05
5.25733e-05
6.97049e-05
3.48873e-05
9.76665e-05
8.72219e-06
0.00013282
-2.70285e-05
0.000176285
-7.35792e-05
0.000229275
-0.000132244
0.000293078
-0.000204415
0.000369017
-0.000291527
0.000458394
-0.000395001
0.000562399
-0.000516158
0.000681998
-0.000656115
0.000817789
-0.000815653
0.000969848
-0.000995065
0.00113757
-0.00119401
0.00131954
-0.00141136
0.00151343
-0.00164517
0.00171606
-0.00189263
0.00192345
-0.00215017
0.00213114
-0.00241377
0.00233439
-0.00267887
0.00252952
-0.00294248
0.00271005
-0.00319819
-0.00344821
0.00288223
4.5383e-10
1.11829e-05
6.17462e-07
2.92859e-05
2.47281e-06
4.3506e-05
6.2068e-06
5.32699e-05
1.24933e-05
5.79465e-05
2.20507e-05
5.68403e-05
3.56541e-05
4.91749e-05
5.41484e-05
3.40791e-05
7.84596e-05
1.0576e-05
0.000109605
-2.24227e-05
0.000148693
-6.61173e-05
0.000196925
-0.000121811
0.000255569
-0.000190888
0.000325929
-0.000274775
0.000409289
-0.000374887
0.000506824
-0.000492536
0.000619496
-0.00062883
0.000747915
-0.000784534
0.000892189
-0.000959927
0.00105177
-0.00115465
0.00122533
-0.00136756
0.00141066
-0.0015967
0.00160474
-0.00183925
0.00180375
-0.00209165
0.00200341
-0.00234983
0.00219925
-0.00260961
0.00238707
-0.00286669
0.00256324
-0.00311866
0.00272478
-0.00335972
-0.00359753
0.0028741
6.30846e-08
1.11199e-05
8.98426e-07
2.84506e-05
3.16709e-06
4.12373e-05
7.55874e-06
4.88783e-05
1.4805e-05
5.07002e-05
2.56908e-05
4.59545e-05
4.1066e-05
3.37997e-05
6.1857e-05
1.32881e-05
8.90754e-05
-1.66424e-05
0.000123822
-5.71692e-05
0.000167282
-0.000109577
0.000220709
-0.000175238
0.000285392
-0.000255571
0.000362601
-0.000351984
0.000453509
-0.000465794
0.000559084
-0.000598111
0.000679965
-0.00074971
0.000816309
-0.000920878
0.000967648
-0.00111127
0.00113276
-0.00131975
0.00130958
-0.00154438
0.00149522
-0.00178235
0.00168608
-0.0020301
0.00187802
-0.00228359
0.00206675
-0.00253857
0.00224816
-0.00279102
0.00241879
-0.00303731
0.00257588
-0.00327575
0.00271801
-0.00350184
-0.00372518
0.00284565
1.518e-07
1.09681e-05
1.27596e-06
2.73264e-05
4.07353e-06
3.84397e-05
9.28281e-06
4.3669e-05
1.76932e-05
4.22899e-05
3.01556e-05
3.34921e-05
4.75933e-05
1.63619e-05
7.10106e-05
-1.01292e-05
0.000101497
-4.71287e-05
0.000140223
-9.58958e-05
0.000188429
-0.000157783
0.000247389
-0.000234198
0.000318367
-0.000326549
0.000402539
-0.000436156
0.000500894
-0.000564149
0.000614109
-0.000711327
0.000742411
-0.000878012
0.000885425
-0.00106389
0.00104205
-0.00126789
0.00121039
-0.00148809
0.00138772
-0.00172171
0.0015706
-0.00196522
0.00175508
-0.00221458
0.00193701
-0.00246552
0.00211241
-0.00271397
0.00227783
-0.00295644
0.00243071
-0.0031902
0.0025694
-0.00341444
0.00269359
-0.00362604
-0.00383575
0.00280417
2.6445e-07
1.07036e-05
1.74583e-06
2.5845e-05
5.18394e-06
3.50016e-05
1.13654e-05
3.74876e-05
2.11364e-05
3.25189e-05
3.54126e-05
1.92159e-05
5.5187e-05
-3.41253e-06
8.15351e-05
-3.64773e-05
0.000115612
-8.12059e-05
0.000158642
-0.000138925
0.000211888
-0.000211029
0.000276609
-0.000298919
0.00035399
-0.00040393
0.000445047
-0.000527214
0.000550511
-0.000669613
0.000670687
-0.000831503
0.000805313
-0.00101264
0.000953435
-0.00121201
0.00111331
-0.00142777
0.00128241
-0.00165719
0.00145746
-0.00189677
0.0016347
-0.00214246
0.0018101
-0.00238999
0.00197978
-0.0026352
0.00214033
-0.00287451
0.00228915
-0.00310526
0.00242469
-0.00332574
0.00254632
-0.00353606
0.00265477
-0.00373449
-0.00393197
0.00275098
3.99264e-07
1.03043e-05
2.30181e-06
2.39425e-05
6.48561e-06
3.08178e-05
1.37847e-05
3.01885e-05
2.51007e-05
2.12028e-05
4.14109e-05
2.90571e-06
6.37724e-05
-2.57741e-05
9.33219e-05
-6.60268e-05
0.000131265
-0.000119149
0.000178853
-0.000186513
0.000237342
-0.000269517
0.000307927
-0.000369505
0.000391659
-0.000487661
0.000489326
-0.00062488
0.000601325
-0.000781612
0.00072752
-0.000957698
0.000867111
-0.00115223
0.00101854
-0.00136344
0.00117946
-0.00158869
0.00134682
-0.00182454
0.00151699
-0.00206694
0.00168609
-0.00231156
0.0018503
-0.00255419
0.00200623
-0.00279113
0.00215126
-0.00301954
0.00228372
-0.00323772
0.00240302
-0.00344503
0.0025094
-0.00364245
0.00260431
-0.0038294
-0.0040165
0.00268885
5.54157e-07
9.75019e-06
2.93659e-06
2.156e-05
7.96305e-06
2.57914e-05
1.65139e-05
2.16377e-05
2.95438e-05
8.17285e-06
4.80869e-05
-1.56374e-05
7.32564e-05
-5.09436e-05
0.000106237
-9.90075e-05
0.000148265
-0.000161177
0.000200591
-0.00023884
0.000264423
-0.000333349
0.000340845
-0.000445927
0.000430709
-0.000577526
0.000534511
-0.000728682
0.000652249
-0.000899349
0.000783291
-0.00108874
0.000926275
-0.00129521
0.00107907
-0.00151623
0.0012388
-0.00174843
0.00140203
-0.00198778
0.00156501
-0.00222991
0.00172397
-0.00247052
0.00187553
-0.00270576
0.002017
-0.0029326
0.0021466
-0.00314914
0.00226357
-0.0033547
0.00236815
-0.00354961
0.00246128
-0.00373557
0.00254479
-0.00391291
-0.00409157
0.00261985
7.27022e-07
9.02316e-06
3.64252e-06
1.86445e-05
9.59966e-06
1.98342e-05
1.95236e-05
1.17138e-05
3.44186e-05
-6.72217e-06
5.53693e-05
-3.65881e-05
8.35345e-05
-7.91088e-05
0.000120131
-0.000135604
0.0001664
-0.000207447
0.000223561
-0.000296
0.000292728
-0.000402517
0.000374821
-0.000528019
0.000470434
-0.000673139
0.000579707
-0.000837955
0.000702186
-0.00102183
0.000836716
-0.00122327
0.000981382
-0.00143988
0.00113353
-0.00166839
0.00128992
-0.00190481
0.0014469
-0.00214476
0.00160078
-0.0023838
0.00174818
-0.00261792
0.0018863
-0.00284388
0.00201325
-0.00305955
0.0021281
-0.00326399
0.00223089
-0.00345749
0.00232251
-0.00364123
0.00240433
-0.0038174
0.00247839
-0.00398697
-0.00415898
0.00254581
9.15942e-07
8.10722e-06
4.41229e-06
1.51482e-05
1.13792e-05
1.28673e-05
2.27842e-05
3.08776e-07
3.96766e-05
-2.36146e-05
6.31834e-05
-6.00949e-05
9.44958e-05
-0.000110421
0.000134842
-0.00017595
0.000185444
-0.000258049
0.000247447
-0.000358003
0.00032183
-0.0004769
0.00040929
-0.000615478
0.000510107
-0.000773956
0.000624013
-0.000951861
0.000750068
-0.00114788
0.000886592
-0.00135979
0.00103116
-0.00158445
0.00118073
-0.00181795
0.00133179
-0.00205587
0.00148072
-0.00229369
0.00162412
-0.00252719
0.0017591
-0.0027529
0.00188361
-0.00296839
0.00199653
-0.00317247
0.00209772
-0.00336519
0.00218787
-0.00354764
0.00226829
-0.00372165
0.00234063
-0.00388973
0.0024069
-0.00405324
-0.00422018
0.0024681
1.11933e-06
6.98789e-06
5.23947e-06
1.1028e-05
1.32865e-05
4.82036e-06
2.62673e-05
-1.2672e-05
4.52701e-05
-4.26174e-05
7.1454e-05
-8.62788e-05
0.000106027
-0.000144994
0.000150207
-0.00022013
0.000205161
-0.000313003
0.000271924
-0.000424766
0.000351288
-0.000556264
0.000443675
-0.000707865
0.000549001
-0.000879282
0.000666551
-0.00106941
0.000794889
-0.00127622
0.00093184
-0.00149675
0.00107456
-0.00172717
0.00121972
-0.00196311
0.00136377
-0.00219992
0.00150328
-0.0024332
0.00163528
-0.0026592
0.00175755
-0.00287516
0.00186876
-0.0030796
0.00196855
-0.00327227
0.00205743
-0.00345406
0.00213653
-0.00362674
0.00220744
-0.00379256
0.00227187
-0.00395417
0.00233172
-0.00411309
-0.00427627
0.0023878
1.33596e-06
5.65193e-06
6.1186e-06
6.2454e-06
1.5308e-05
-4.36904e-06
2.99463e-05
-2.73103e-05
5.11528e-05
-6.38239e-05
8.01064e-05
-0.000115232
0.000118013
-0.000182901
0.000166053