/*--------------------------------*- C++ -*----------------------------------*\
  =========                 |
  \\      /  F ield         | OpenFOAM: The Open Source CFD Toolbox
   \\    /   O peration     | Website:  https://openfoam.org
    \\  /    A nd           | Version:  7
     \\/     M anipulation  |
\*---------------------------------------------------------------------------*/
FoamFile
{
    version     2.0;
    format      ascii;
    class       volVectorField;
    location    "10";
    object      U;
}
// * * * * * * * * * * * * * * * * * * * * * * * * * * * * * * * * * * * * * //

dimensions      [0 1 -1 0 0 0 0];

internalField   nonuniform List<vector> 
183
(
(1.05242 0.281775 -3.01184e-22)
(1.03504 0.296803 -3.05831e-21)
(1.03754 0.28151 3.01897e-20)
(1.01371 0.32881 -5.9618e-21)
(1.01613 0.311355 1.89601e-21)
(0.993162 0.347157 -4.34865e-20)
(0.995537 0.327907 1.61145e-20)
(0.971443 0.366304 3.28068e-20)
(0.974025 0.345628 5.37503e-21)
(0.944545 0.409881 -3.18798e-20)
(0.947799 0.386132 6.4309e-20)
(0.951204 0.36395 -3.49535e-20)
(0.917026 0.432169 2.3571e-20)
(0.921619 0.406553 3.40398e-20)
(0.926265 0.382721 -1.41644e-19)
(0.886259 0.455109 -3.67596e-20)
(0.892476 0.427473 8.75562e-20)
(0.898645 0.401848 1.21251e-19)
(0.85181 0.478588 7.22324e-20)
(0.859977 0.448793 -9.18795e-20)
(0.867953 0.42124 1.44972e-19)
(0.8237 0.470372 -1.03011e-19)
(0.833819 0.440777 -1.18208e-19)
(0.783175 0.491987 -1.22581e-19)
(0.795837 0.460286 2.73881e-19)
(0.737838 0.513253 1.45814e-19)
(0.753562 0.479514 1.95985e-19)
(0.686924 0.533389 -2.38897e-19)
(0.706469 0.498054 -2.26348e-20)
(0.724509 0.465007 1.01931e-19)
(0.653865 0.515132 4.78556e-19)
(0.675852 0.480654 -2.37615e-19)
(0.594734 0.529113 9.96166e-20)
(0.621776 0.494499 -2.42425e-19)
(0.561392 0.504976 -4.1166e-20)
(0.590851 0.471558 1.13867e-20)
(0.493408 0.508871 -9.10539e-21)
(0.529467 0.478374 -2.52022e-20)
(0.460943 0.478531 -2.28786e-19)
(0.499161 0.449418 4.65909e-19)
(0.430371 0.445712 2.22185e-19)
(0.470667 0.418236 -2.44965e-20)
(0.354054 0.430186 1.81828e-19)
(0.401898 0.410571 -3.74364e-19)
(0.3264 0.391516 -1.14786e-19)
(0.375713 0.373283 1.0855e-19)
(0.301307 0.350664 -1.80894e-19)
(0.351988 0.334036 -7.93222e-20)
(0.221762 0.311362 7.02143e-20)
(0.278952 0.307853 5.42121e-19)
(0.330881 0.29303 -5.71066e-19)
(0.201883 0.266575 -2.17147e-20)
(0.259494 0.26332 -2.05338e-19)
(0.185081 0.220173 -1.75152e-20)
(0.24307 0.217312 1.59527e-19)
(0.171485 0.172436 4.50079e-20)
(0.229796 0.170083 1.53672e-19)
(0.161202 0.123651 -7.52287e-20)
(0.219765 0.121898 1.73507e-20)
(0.154311 0.074114 -4.58354e-20)
(0.213045 0.0730259 -2.24872e-20)
(0.150864 0.0241256 9.50259e-21)
(0.209685 0.0237419 -1.57013e-20)
(0.150888 -0.0260113 -1.34228e-20)
(0.209706 -0.0256777 2.87734e-21)
(0.154382 -0.0759923 -4.05909e-20)
(0.21311 -0.0749555 6.44014e-21)
(0.161319 -0.125514 -2.21287e-21)
(0.219872 -0.123815 -7.29441e-20)
(0.171647 -0.174277 1.79656e-19)
(0.229944 -0.171981 -1.63441e-19)
(0.185284 -0.221986 -8.89449e-20)
(0.243257 -0.219186 -5.86792e-20)
(0.202125 -0.268352 -3.37851e-19)
(0.259717 -0.265164 -8.33371e-20)
(0.222039 -0.313096 3.38888e-19)
(0.279207 -0.309661 1.1004e-19)
(0.331107 -0.294846 3.09686e-19)
(0.301591 -0.352429 -2.66351e-19)
(0.35224 -0.335817 4.49922e-19)
(0.326709 -0.393235 2.67389e-19)
(0.375986 -0.375025 -8.06587e-20)
(0.354383 -0.431853 -2.56624e-19)
(0.402189 -0.412269 1.34249e-19)
(0.430676 -0.447362 3.68369e-19)
(0.470927 -0.419892 -3.47552e-20)
(0.461256 -0.480131 1.30592e-19)
(0.499428 -0.45103 7.25063e-20)
(0.493725 -0.510416 -3.81647e-19)
(0.529736 -0.47994 -4.3486e-19)
(0.561659 -0.506493 -3.25088e-19)
(0.591069 -0.473085 2.22433e-19)
(0.594995 -0.53058 2.48829e-19)
(0.621986 -0.495981 -2.81344e-19)
(0.654063 -0.516569 9.09441e-20)
(0.675999 -0.482104 1.04827e-19)
(0.706598 -0.499462 3.36572e-20)
(0.724589 -0.466431 -2.30648e-19)
(0.737946 -0.514618 3.8798e-20)
(0.75362 -0.480899 9.58579e-20)
(0.783208 -0.493332 -3.99124e-20)
(0.795821 -0.461655 -2.14497e-19)
(0.823654 -0.471703 -2.16184e-19)
(0.833726 -0.442136 2.79136e-19)
(0.859851 -0.450116 -7.93631e-20)
(0.867782 -0.422594 -1.20014e-19)
(0.886099 -0.456394 1.42117e-19)
(0.892268 -0.428791 -1.17769e-19)
(0.898391 -0.403201 3.56625e-20)
(0.91678 -0.433449 -1.69758e-20)
(0.921326 -0.407869 -7.20214e-20)
(0.925924 -0.384076 3.8194e-20)
(0.944212 -0.411158 -8.63592e-20)
(0.947416 -0.387447 3.87746e-20)
(0.95077 -0.365306 1.40028e-21)
(0.970966 -0.367615 7.03111e-22)
(0.97349 -0.34698 3.90155e-20)
(0.992585 -0.348459 -1.04916e-21)
(0.994895 -0.329248 -4.55691e-21)
(1.01303 -0.330092 -5.56696e-21)
(1.01539 -0.312668 -1.90714e-21)
(1.01786 -0.297482 -4.351e-20)
(1.03422 -0.298067 1.11037e-20)
(1.03666 -0.282799 -2.90579e-20)
(1.05154 -0.282988 -1.2196e-21)
(1.06675 0.226502 7.29071e-22)
(1.07606 0.214724 1.45673e-21)
(1.08314 0.176826 -4.6473e-21)
(1.08735 0.159082 1.02321e-21)
(1.08684 0.136735 -6.72256e-21)
(1.09042 0.118358 5.24135e-21)
(1.09083 0.107313 -3.45436e-21)
(1.0861 0.0951471 -4.70414e-21)
(1.08411 0.0800372 4.75088e-21)
(1.08592 0.0685235 -5.18938e-21)
(1.06754 0.214534 -2.34277e-22)
(1.07633 0.177937 2.02093e-23)
(1.08198 0.160014 4.4804e-23)
(1.08229 0.137828 2.97048e-21)
(1.08677 0.118852 -3.28351e-21)
(1.08809 0.108186 -2.01642e-21)
(1.08354 0.0964567 5.42712e-22)
(1.08151 0.0806903 -2.80947e-22)
(1.08391 0.0684709 -1.80404e-21)
(1.08405 0.063894 1.71765e-23)
(1.0794 0.0590561 -1.54504e-21)
(1.07402 0.0510115 -1.96441e-21)
(1.07032 0.0428143 -2.3191e-21)
(1.06959 0.0329223 -1.05935e-21)
(1.0713 0.0296258 -5.59769e-22)
(1.06642 0.0267911 -3.23211e-21)
(1.06246 0.0205205 1.28922e-21)
(1.06145 0.0108291 -2.23586e-21)
(1.06545 0.00804502 9.1629e-22)
(1.05954 0.00658738 3.90378e-23)
(1.05384 -0.22732 1.42164e-21)
(1.06643 -0.215008 -6.17358e-22)
(1.07525 -0.178197 2.31507e-21)
(1.08154 -0.158446 2.71095e-21)
(1.08583 -0.1387 -2.5744e-21)
(1.08817 -0.124734 9.45522e-22)
(1.08474 -0.113229 4.29438e-21)
(1.08242 -0.0945627 2.8984e-21)
(1.08394 -0.0864706 3.60559e-21)
(1.07658 -0.0754793 2.0505e-22)
(1.07698 -0.0639374 -8.90487e-24)
(1.07122 -0.0570161 1.15144e-21)
(1.07045 -0.0437627 1.38005e-21)
(1.0709 -0.037246 2.20725e-21)
(1.07195 -0.031869 1.17367e-21)
(1.06874 -0.0301934 5.34112e-22)
(1.06371 -0.0231105 2.7571e-21)
(1.06415 -0.0139871 -1.38383e-21)
(1.0679 -0.010092 2.71198e-21)
(1.06632 -0.00956522 -1.02087e-21)
(1.06178 -0.00435187 -2.88286e-23)
(1.06572 -0.227841 8.06137e-23)
(1.07505 -0.215127 -5.84231e-22)
(1.08219 -0.177134 2.12353e-21)
(1.08701 -0.157966 -3.73515e-21)
(1.09007 -0.138014 6.62023e-21)
(1.09142 -0.123775 -2.67078e-21)
(1.08763 -0.111782 1.02634e-21)
)
;

boundaryField
{
    inlet
    {
        type            uniformFixedValue;
        uniformValue    constant (1 0 0);
        value           nonuniform 0();
    }
    outlet
    {
        type            pressureInletOutletVelocity;
        value           nonuniform 0();
    }
    cylinder
    {
        type            fixedValue;
        value           nonuniform 0();
    }
    top
    {
        type            symmetryPlane;
    }
    bottom
    {
        type            symmetryPlane;
    }
    defaultFaces
    {
        type            empty;
    }
    procBoundary8to7
    {
        type            processor;
        value           nonuniform List<vector> 
130
(
(1.01867 0.296147 1.43509e-20)
(1.02221 0.280647 1.35792e-20)
(1.0549 0.225878 4.70728e-21)
(1.01867 0.296147 1.43509e-20)
(0.998614 0.310168 3.04065e-20)
(0.998614 0.310168 3.04065e-20)
(0.977142 0.32615 -1.77198e-20)
(0.977142 0.32615 -1.77198e-20)
(0.954786 0.343148 5.77248e-20)
(0.954786 0.343148 5.77248e-20)
(0.930922 0.360502 2.68494e-20)
(0.930922 0.360502 2.68494e-20)
(0.904731 0.378049 5.25842e-20)
(0.904731 0.378049 5.25842e-20)
(0.875729 0.395728 1.44805e-19)
(0.875729 0.395728 1.44805e-19)
(0.843577 0.413445 -1.26189e-20)
(0.843577 0.413445 -1.26189e-20)
(0.807918 0.431047 -1.12306e-19)
(0.807918 0.431047 -1.12306e-19)
(0.768369 0.448329 2.73778e-19)
(0.768369 0.448329 2.73778e-19)
(0.741443 0.43451 -2.74006e-19)
(0.696177 0.448494 3.66876e-21)
(0.696177 0.448494 3.66876e-21)
(0.646165 0.461098 1.58988e-20)
(0.646165 0.461098 1.58988e-20)
(0.61758 0.439447 -1.51596e-19)
(0.561277 0.446393 1.74033e-19)
(0.561277 0.446393 1.74033e-19)
(0.533232 0.419104 5.00783e-20)
(0.506885 0.389802 7.97491e-20)
(0.444162 0.38497 -7.67522e-20)
(0.444162 0.38497 -7.67522e-20)
(0.419814 0.349773 2.04923e-19)
(0.397775 0.312816 -3.40939e-19)
(0.378182 0.274275 -1.64652e-19)
(0.31253 0.250476 -5.62306e-20)
(0.31253 0.250476 -5.62306e-20)
(0.297054 0.206596 -1.27248e-19)
(0.284555 0.16162 1.58081e-19)
(0.275114 0.115785 -7.11856e-20)
(0.268792 0.0693332 -5.55225e-21)
(0.26563 0.0225104 2.6333e-21)
(0.26565 -0.0244344 2.14021e-20)
(0.268849 -0.0712519 5.22278e-20)
(0.275208 -0.117694 -8.09225e-20)
(0.284685 -0.163513 1.01739e-19)
(0.297219 -0.208468 -7.90372e-20)
(0.312726 -0.252322 8.39934e-20)
(0.312726 -0.252322 8.39934e-20)
(0.378376 -0.276072 1.42937e-19)
(0.39799 -0.314582 2.12421e-20)
(0.420048 -0.351506 1.46919e-19)
(0.444412 -0.386666 -1.1417e-19)
(0.444412 -0.386666 -1.1417e-19)
(0.507102 -0.391449 -1.9854e-20)
(0.533452 -0.420713 1.45953e-19)
(0.561498 -0.447962 -1.04937e-19)
(0.561498 -0.447962 -1.04937e-19)
(0.617749 -0.440977 -3.71142e-19)
(0.646325 -0.462589 3.15178e-19)
(0.646325 -0.462589 3.15178e-19)
(0.696275 -0.449955 -6.98393e-20)
(0.696275 -0.449955 -6.98393e-20)
(0.741477 -0.43595 -2.53411e-19)
(0.768379 -0.449733 -3.41406e-21)
(0.768379 -0.449733 -3.41406e-21)
(0.807857 -0.43244 -3.03766e-20)
(0.807857 -0.43244 -3.03766e-20)
(0.843441 -0.414833 1.31865e-19)
(0.843441 -0.414833 1.31865e-19)
(0.875515 -0.397117 -3.7979e-19)
(0.875515 -0.397117 -3.7979e-19)
(0.904432 -0.379441 -6.53915e-21)
(0.904432 -0.379441 -6.53915e-21)
(0.930533 -0.3619 6.58746e-20)
(0.930533 -0.3619 6.58746e-20)
(0.954298 -0.34455 -8.30308e-20)
(0.954298 -0.34455 -8.30308e-20)
(0.976544 -0.327547 3.51607e-20)
(0.976544 -0.327547 3.51607e-20)
(0.997903 -0.311547 -4.44409e-20)
(0.997903 -0.311547 -4.44409e-20)
(1.00109 -0.296154 3.49936e-20)
(1.02134 -0.282018 -3.14631e-20)
(1.02134 -0.282018 -3.14631e-20)
(1.0549 0.225878 4.70728e-21)
(1.0549 0.225878 4.70728e-21)
(1.05917 0.213887 2.26708e-22)
(1.07002 0.178816 8.98954e-22)
(1.07712 0.160823 -1.66457e-21)
(1.07807 0.13887 -2.04568e-21)
(1.08324 0.119258 4.38667e-21)
(1.08564 0.108949 -4.27362e-21)
(1.08124 0.0978031 -1.24536e-21)
(1.07879 0.0814128 -2.50049e-21)
(1.08174 0.0683422 -4.11182e-22)
(1.08287 0.0640846 2.84511e-21)
(1.07853 0.0599411 -1.80036e-21)
(1.07271 0.0520003 5.37124e-22)
(1.06854 0.0433925 -1.55113e-21)
(1.06803 0.0328249 -2.72536e-21)
(1.07057 0.0297073 -1.34378e-21)
(1.06553 0.0275274 -1.80538e-21)
(1.06098 0.021064 5.50364e-23)
(1.06006 0.0105722 -5.85418e-22)
(1.06474 0.00819477 3.93248e-22)
(1.05804 0.00711198 -2.04573e-21)
(1.04173 -0.226595 2.15184e-21)
(1.05799 -0.21446 -6.00439e-22)
(1.06879 -0.179068 -1.25393e-21)
(1.07646 -0.158785 1.59145e-21)
(1.08192 -0.139221 2.3275e-21)
(1.08527 -0.125568 -4.69345e-21)
(1.0822 -0.114669 4.24407e-21)
(1.0798 -0.0954274 1.23216e-21)
(1.08195 -0.0872851 3.25505e-21)
(1.07461 -0.0764795 1.11666e-21)
(1.07516 -0.0646814 -2.37765e-21)
(1.06925 -0.0578223 -8.71227e-22)
(1.06835 -0.0439395 7.11206e-22)
(1.06935 -0.036965 -2.40613e-22)
(1.07117 -0.0318537 2.50688e-21)
(1.06797 -0.0308251 -1.5254e-21)
(1.06221 -0.023616 -1.64517e-22)
(1.06266 -0.0136577 -1.71422e-21)
(1.06729 -0.00980016 9.57227e-22)
(1.06573 -0.0100514 -2.55886e-21)
(1.06032 -0.00477886 6.74745e-22)
)
;
    }
    procBoundary8to9
    {
        type            processor;
        value           nonuniform List<vector> 
138
(
(1.06684 0.281407 -4.94128e-21)
(1.05095 0.296748 -2.52038e-21)
(1.05095 0.296748 -2.52038e-21)
(1.03157 0.328881 -1.39331e-21)
(1.03328 0.311761 5.86707e-21)
(1.03328 0.311761 5.86707e-21)
(1.01209 0.347747 9.40364e-21)
(1.01209 0.347747 9.40364e-21)
(0.991536 0.367594 -4.94954e-20)
(0.991536 0.367594 -4.94954e-20)
(0.967313 0.411876 -3.53889e-20)
(0.969228 0.388328 -1.71796e-21)
(0.969228 0.388328 -1.71796e-21)
(0.941483 0.435364 3.98196e-20)
(0.941483 0.435364 3.98196e-20)
(0.912534 0.459752 -3.85464e-20)
(0.912534 0.459752 -3.85464e-20)
(0.88002 0.48495 -9.94789e-20)
(0.88002 0.48495 -9.94789e-20)
(0.843425 0.510796 -1.08232e-19)
(0.813184 0.502414 1.93483e-19)
(0.813184 0.502414 1.93483e-19)
(0.769779 0.526221 -1.61853e-19)
(0.769779 0.526221 -1.61853e-19)
(0.720755 0.549219 1.15168e-19)
(0.720755 0.549219 1.15168e-19)
(0.664817 0.569631 -1.55448e-20)
(0.629283 0.550691 -1.75786e-20)
(0.629283 0.550691 -1.75786e-20)
(0.563133 0.561555 -1.85407e-20)
(0.527549 0.536587 2.99613e-19)
(0.527549 0.536587 2.99613e-19)
(0.450294 0.531098 -2.14391e-21)
(0.416227 0.500163 2.60882e-20)
(0.384068 0.466467 -1.64957e-19)
(0.384068 0.466467 -1.64957e-19)
(0.298188 0.433404 1.48538e-19)
(0.270106 0.395026 -2.14515e-19)
(0.244563 0.354264 -1.36528e-19)
(0.244563 0.354264 -1.36528e-19)
(0.158937 0.291175 -4.10128e-20)
(0.140107 0.249613 -1.99606e-19)
(0.124161 0.206384 1.33794e-19)
(0.11124 0.161777 9.81194e-20)
(0.101455 0.116088 -1.19898e-19)
(0.0948927 0.0696217 -2.91254e-21)
(0.0916094 0.0226887 3.06318e-20)
(0.0916335 -0.0243976 -7.88516e-21)
(0.0949645 -0.0713225 -9.61311e-22)
(0.101573 -0.117772 -1.98595e-20)
(0.111402 -0.163437 8.57248e-20)
(0.124366 -0.208012 -4.40172e-20)
(0.14035 -0.251201 -1.12187e-19)
(0.159215 -0.292716 9.33349e-20)
(0.24487 -0.355949 7.39931e-20)
(0.24487 -0.355949 7.39931e-20)
(0.270439 -0.396656 1.94725e-19)
(0.298541 -0.434973 -8.27203e-20)
(0.384412 -0.468077 -2.68857e-19)
(0.384412 -0.468077 -2.68857e-19)
(0.416579 -0.501713 4.00887e-19)
(0.450649 -0.532583 8.50028e-20)
(0.527864 -0.538075 -2.61128e-19)
(0.527864 -0.538075 -2.61128e-19)
(0.563441 -0.562982 -2.14751e-20)
(0.629532 -0.552104 -1.0854e-19)
(0.629532 -0.552104 -1.0854e-19)
(0.687106 -0.534779 3.55013e-20)
(0.687106 -0.534779 3.55013e-20)
(0.720916 -0.55056 -3.25997e-20)
(0.769863 -0.527542 7.48807e-20)
(0.769863 -0.527542 7.48807e-20)
(0.813189 -0.503718 5.08462e-20)
(0.813189 -0.503718 5.08462e-20)
(0.851733 -0.479881 -9.31084e-20)
(0.851733 -0.479881 -9.31084e-20)
(0.879909 -0.486204 -3.60001e-20)
(0.912338 -0.460998 9.02385e-20)
(0.912338 -0.460998 9.02385e-20)
(0.9412 -0.436606 -1.07184e-19)
(0.9412 -0.436606 -1.07184e-19)
(0.966941 -0.413113 3.51148e-20)
(0.968805 -0.389601 -4.53313e-20)
(0.968805 -0.389601 -4.53313e-20)
(0.991019 -0.368858 4.79817e-20)
(0.991019 -0.368858 4.79817e-20)
(1.01148 -0.348997 -7.68649e-21)
(1.01148 -0.348997 -7.68649e-21)
(1.03087 -0.330106 1.29288e-21)
(1.03251 -0.31301 -6.1625e-21)
(1.03251 -0.31301 -6.1625e-21)
(1.05012 -0.297944 2.42981e-21)
(1.05012 -0.297944 2.42981e-21)
(1.06598 -0.282551 4.89479e-21)
(1.07808 0.226869 3.32899e-22)
(1.08409 0.214501 -3.70973e-21)
(1.08966 0.175553 -6.75815e-22)
(1.09261 0.15805 2.59747e-21)
(1.09137 0.135582 -1.04014e-21)
(1.09401 0.117768 -8.5476e-21)
(1.09356 0.106359 -1.7522e-21)
(1.08876 0.093874 1.00335e-20)
(1.08672 0.0794112 -5.17746e-21)
(1.08784 0.0684913 -1.64128e-21)
(1.08537 0.0635822 -4.9454e-22)
(1.08537 0.0635822 -4.9454e-22)
(1.08056 0.058159 -5.03196e-21)
(1.07541 0.0500976 -3.57588e-22)
(1.07192 0.0422835 -1.12257e-21)
(1.07099 0.0329591 1.60704e-21)
(1.07216 0.0294786 -1.61247e-21)
(1.06739 0.0261087 6.75891e-22)
(1.06381 0.0200314 -1.5244e-22)
(1.06271 0.0110308 -2.06755e-21)
(1.06626 0.00789881 -2.40973e-22)
(1.06088 0.00612141 7.10805e-22)
(1.08507 -0.0937041 3.86621e-21)
(1.08598 -0.0856193 -4.32151e-21)
(1.07856 -0.0744876 4.62942e-21)
(1.07877 -0.0632153 2.13397e-22)
(1.07307 -0.0562608 3.83207e-21)
(1.07231 -0.0435984 -1.83698e-22)
(1.07233 -0.0374405 2.70538e-21)
(1.07289 -0.0318129 -3.57291e-21)
(1.06967 -0.0296039 1.64425e-21)
(1.06508 -0.0226703 1.65185e-21)
(1.06547 -0.0142591 1.55976e-22)
(1.06864 -0.0103105 2.48249e-21)
(1.06706 -0.00913809 2.53799e-22)
(1.06308 -0.00399296 -7.80491e-22)
(1.07708 -0.228118 -3.25104e-22)
(1.08318 -0.214862 3.6014e-21)
(1.08885 -0.175934 7.14052e-22)
(1.09232 -0.157344 -2.66712e-21)
(1.0942 -0.13717 1.0536e-21)
(1.09465 -0.122716 8.6405e-21)
(1.08507 -0.0937041 3.86621e-21)
(1.09058 -0.110331 1.39453e-21)
)
;
    }
}


// ************************************************************************* //
