/*--------------------------------*- C++ -*----------------------------------*\
  =========                 |
  \\      /  F ield         | OpenFOAM: The Open Source CFD Toolbox
   \\    /   O peration     | Website:  https://openfoam.org
    \\  /    A nd           | Version:  7
     \\/     M anipulation  |
\*---------------------------------------------------------------------------*/
FoamFile
{
    version     2.0;
    format      ascii;
    class       volScalarField;
    location    "25";
    object      p;
}
// * * * * * * * * * * * * * * * * * * * * * * * * * * * * * * * * * * * * * //

dimensions      [0 2 -2 0 0 0 0];

internalField   nonuniform List<scalar> 
183
(
0.0904449
0.0878144
0.0844812
0.0809507
0.0772234
0.0734049
0.0697063
0.066157
0.0627146
0.059496
0.0565779
0.053912
0.0514618
0.0492287
0.0472435
0.0455776
0.0441741
0.0430106
0.042128
0.041558
0.0412558
0.0843408
0.0821683
0.0799012
0.0775043
0.0750281
0.072493
0.0698895
0.0672387
0.0646056
0.0620127
0.0594838
0.0570727
0.0548235
0.0527646
0.0509152
0.0492786
0.0478936
0.0467811
0.0459393
0.0453681
0.0450897
0.0919863
0.085465
0.0924138
0.0858235
0.0927798
0.0861648
0.0931581
0.0864783
0.093527
0.0867869
0.0938798
0.0870779
0.0942172
0.0873502
0.094539
0.0876047
0.094844
0.0878412
0.095131
0.0880598
0.0953988
0.0882602
0.0956464
0.0884424
0.0958727
0.0886063
0.0969871
0.0960767
0.088752
0.0970943
0.0962574
0.0888795
0.0971852
0.096414
0.0889887
0.0972609
0.0965459
0.0890796
0.0973214
0.0966523
0.0891524
0.0973674
0.0967329
0.089207
0.0973992
0.0967874
0.0892434
0.0974194
0.0968153
0.0892617
0.0974229
0.0968162
0.0892619
0.0974095
0.0967901
0.0892439
0.0973833
0.0967374
0.0892077
0.0973419
0.0966583
0.0891534
0.0972864
0.0965537
0.0890808
0.0972062
0.0964245
0.0889901
0.0971449
0.0962712
0.088881
0.0960935
0.0887537
0.0958921
0.0886081
0.0956682
0.0884442
0.095423
0.0882619
0.0951574
0.0880614
0.0948726
0.0878427
0.0945697
0.0876058
0.09425
0.0873511
0.0939146
0.0870787
0.0935633
0.0867862
0.0931954
0.0864718
0.0928254
0.0861694
0.0924528
0.0858231
0.0920283
0.0854625
0.0904938
0.0843353
0.0878688
0.0821453
0.0845787
0.0798556
0.0810366
0.0774367
0.0772914
0.0749303
0.0735561
0.0723518
0.0698432
0.069737
0.0661591
0.0671086
0.0626917
0.0644835
0.0594152
0.0619175
0.0563905
0.0594343
0.0536252
0.0570657
0.0511082
0.0548537
0.0489178
0.052807
0.0470539
0.0509506
0.0454773
0.0493156
0.0441424
0.0479342
0.0430804
0.0468088
0.0423128
0.0459429
0.0417972
0.0453651
0.041527
0.0450829
)
;

boundaryField
{
    inlet
    {
        type            zeroGradient;
    }
    outlet
    {
        type            fixedValue;
        value           nonuniform 0();
    }
    cylinder
    {
        type            zeroGradient;
    }
    top
    {
        type            symmetryPlane;
    }
    bottom
    {
        type            symmetryPlane;
    }
    defaultFaces
    {
        type            empty;
    }
    procBoundary0to1
    {
        type            processor;
        value           nonuniform List<scalar> 
86
(
0.0924702
0.0889433
0.0852842
0.0814621
0.077491
0.0734362
0.069329
0.0653122
0.0615251
0.0579209
0.0544524
0.0512124
0.0483016
0.0457287
0.0434569
0.0414321
0.0397482
0.0384482
0.0374589
0.0367533
0.0364477
0.0939085
0.0942744
0.0945997
0.094918
0.0952173
0.0954945
0.0957508
0.0959866
0.0962019
0.0963972
0.0965729
0.0967284
0.0968648
0.0968648
0.117861
0.11824
0.118574
0.118855
0.119082
0.119254
0.11937
0.11943
0.119429
0.119378
0.119266
0.1191
0.118878
0.118601
0.118273
0.0970333
0.0970333
0.0969196
0.0967871
0.0966351
0.0964637
0.0962727
0.0960616
0.0958301
0.095578
0.0953048
0.0950093
0.0946948
0.0943732
0.0940122
0.092598
0.0890482
0.0853636
0.0815456
0.0775418
0.0733398
0.0691455
0.0651213
0.0612585
0.0576159
0.0542135
0.0510913
0.0482845
0.0457308
0.0434319
0.0414622
0.0398759
0.0386015
0.0376
0.0369487
0.0366646
)
;
    }
}


// ************************************************************************* //
