/*--------------------------------*- C++ -*----------------------------------*\
  =========                 |
  \\      /  F ield         | OpenFOAM: The Open Source CFD Toolbox
   \\    /   O peration     | Website:  https://openfoam.org
    \\  /    A nd           | Version:  7
     \\/     M anipulation  |
\*---------------------------------------------------------------------------*/
FoamFile
{
    version     2.0;
    format      ascii;
    class       volScalarField;
    location    "79";
    object      p;
}
// * * * * * * * * * * * * * * * * * * * * * * * * * * * * * * * * * * * * * //

dimensions      [0 2 -2 0 0 0 0];

internalField   nonuniform List<scalar> 
40000
(
-0.309022
-0.310058
-0.310825
-0.31144
-0.311986
-0.312468
-0.312895
-0.313281
-0.313637
-0.313971
-0.314291
-0.314601
-0.314904
-0.315199
-0.315485
-0.315761
-0.31602
-0.316258
-0.316468
-0.316644
-0.316778
-0.316864
-0.316896
-0.316869
-0.316782
-0.316633
-0.316427
-0.316171
-0.315876
-0.315564
-0.310864
-0.311905
-0.312679
-0.313303
-0.313862
-0.31436
-0.314809
-0.315222
-0.315612
-0.315988
-0.316356
-0.316722
-0.317089
-0.317458
-0.317826
-0.318191
-0.318548
-0.318893
-0.319216
-0.319512
-0.319772
-0.319987
-0.320149
-0.320251
-0.320288
-0.320256
-0.320153
-0.319982
-0.319754
-0.31946
-0.312839
-0.313876
-0.314649
-0.315278
-0.315844
-0.316355
-0.316823
-0.317261
-0.317682
-0.318097
-0.318513
-0.318935
-0.319366
-0.319807
-0.320256
-0.320712
-0.321168
-0.32162
-0.322058
-0.322475
-0.322861
-0.323206
-0.323499
-0.323731
-0.323892
-0.323974
-0.323973
-0.323886
-0.323718
-0.323442
-0.314943
-0.315965
-0.316731
-0.317358
-0.317927
-0.318447
-0.31893
-0.31939
-0.319841
-0.320293
-0.320754
-0.321231
-0.321725
-0.322238
-0.322769
-0.323315
-0.323871
-0.324429
-0.324983
-0.325523
-0.326036
-0.326511
-0.326936
-0.327296
-0.32758
-0.327775
-0.327873
-0.327866
-0.327749
-0.327489
-0.31717
-0.318167
-0.318917
-0.319536
-0.320104
-0.320628
-0.321122
-0.321601
-0.322079
-0.322567
-0.323072
-0.323601
-0.324157
-0.324741
-0.325353
-0.325989
-0.326644
-0.32731
-0.32798
-0.328642
-0.329283
-0.329889
-0.330444
-0.330932
-0.331336
-0.33164
-0.331832
-0.331899
-0.331823
-0.331575
-0.319511
-0.320472
-0.321199
-0.321805
-0.322365
-0.32289
-0.323392
-0.323886
-0.324388
-0.324908
-0.325454
-0.326034
-0.32665
-0.327304
-0.327996
-0.32872
-0.329473
-0.330247
-0.331032
-0.331816
-0.332584
-0.33332
-0.334005
-0.334618
-0.335139
-0.335547
-0.335825
-0.335959
-0.335909
-0.335666
-0.321957
-0.32287
-0.323567
-0.324154
-0.324702
-0.325222
-0.325727
-0.326233
-0.326755
-0.327304
-0.327889
-0.328517
-0.329191
-0.329913
-0.330681
-0.331493
-0.332343
-0.333223
-0.334122
-0.335027
-0.335921
-0.336785
-0.337596
-0.338332
-0.338964
-0.339468
-0.339825
-0.340014
-0.33997
-0.339718
-0.324493
-0.325349
-0.326009
-0.32657
-0.327101
-0.327611
-0.328115
-0.328629
-0.329168
-0.329743
-0.330363
-0.331036
-0.331764
-0.332551
-0.333394
-0.33429
-0.335234
-0.336217
-0.337228
-0.338251
-0.339269
-0.340258
-0.341193
-0.342045
-0.342783
-0.343374
-0.343797
-0.344028
-0.343967
-0.343678
-0.327107
-0.327897
-0.328513
-0.329042
-0.32955
-0.330047
-0.330545
-0.331062
-0.331613
-0.332209
-0.33286
-0.333573
-0.334352
-0.335199
-0.336113
-0.33709
-0.338125
-0.339208
-0.340326
-0.341465
-0.342601
-0.343712
-0.344766
-0.345729
-0.346564
-0.347231
-0.347705
-0.347959
-0.347855
-0.347484
-0.329782
-0.330498
-0.331063
-0.331557
-0.332036
-0.332513
-0.333001
-0.333516
-0.334074
-0.334687
-0.335364
-0.336113
-0.336937
-0.337839
-0.338819
-0.339872
-0.340992
-0.342169
-0.343391
-0.344639
-0.34589
-0.347116
-0.348282
-0.349347
-0.35027
-0.351
-0.351507
-0.351765
-0.351594
-0.351065
-0.332503
-0.333138
-0.333646
-0.334099
-0.334545
-0.334998
-0.33547
-0.335978
-0.336537
-0.33716
-0.337857
-0.338635
-0.339499
-0.34045
-0.341489
-0.342611
-0.34381
-0.345075
-0.346393
-0.347743
-0.349101
-0.350435
-0.351706
-0.352868
-0.353864
-0.354642
-0.35516
-0.355401
-0.35515
-0.354327
-0.335253
-0.335801
-0.336248
-0.336654
-0.337063
-0.337485
-0.337936
-0.338431
-0.338986
-0.339613
-0.340323
-0.341123
-0.342018
-0.343011
-0.344101
-0.345283
-0.346552
-0.347897
-0.349302
-0.350746
-0.352202
-0.353634
-0.354998
-0.356242
-0.357303
-0.358112
-0.358617
-0.358822
-0.358507
-0.357083
-0.338014
-0.338471
-0.338853
-0.339209
-0.339575
-0.339963
-0.340386
-0.340861
-0.341404
-0.342028
-0.342743
-0.343557
-0.344475
-0.3455
-0.346631
-0.347864
-0.349193
-0.350606
-0.352087
-0.353613
-0.355155
-0.356673
-0.358118
-0.359432
-0.360542
-0.361365
-0.361832
-0.361975
-0.361641
-0.359228
-0.340771
-0.341134
-0.341449
-0.34175
-0.342069
-0.342416
-0.342806
-0.343255
-0.343779
-0.344391
-0.345101
-0.345919
-0.34685
-0.347896
-0.349057
-0.35033
-0.351706
-0.353175
-0.354718
-0.356312
-0.357925
-0.359514
-0.361026
-0.362393
-0.363534
-0.364354
-0.364762
-0.364771
-0.364142
-0.361537
-0.343507
-0.343776
-0.344021
-0.344265
-0.344533
-0.344834
-0.345185
-0.3456
-0.346096
-0.346686
-0.347383
-0.348194
-0.349126
-0.350181
-0.351359
-0.352657
-0.354066
-0.355575
-0.357165
-0.358811
-0.360477
-0.36212
-0.363678
-0.365081
-0.366235
-0.367031
-0.367362
-0.367213
-0.366253
-0.363337
-0.346209
-0.346385
-0.346559
-0.346744
-0.346956
-0.347207
-0.34751
-0.347884
-0.348343
-0.348902
-0.349573
-0.350366
-0.351285
-0.352336
-0.353517
-0.354824
-0.356251
-0.357783
-0.359401
-0.361079
-0.36278
-0.364454
-0.366039
-0.367454
-0.368599
-0.369351
-0.369583
-0.369258
-0.368008
-0.364516
-0.348864
-0.34895
-0.349053
-0.349177
-0.34933
-0.349524
-0.349775
-0.350098
-0.350511
-0.351028
-0.351662
-0.352422
-0.353316
-0.354347
-0.355514
-0.356815
-0.35824
-0.359776
-0.361403
-0.363092
-0.364804
-0.366487
-0.368074
-0.369476
-0.370587
-0.371271
-0.371381
-0.370856
-0.369353
-0.365093
-0.351463
-0.351463
-0.351496
-0.351557
-0.351648
-0.351781
-0.351972
-0.352237
-0.352593
-0.353056
-0.35364
-0.354354
-0.355207
-0.356202
-0.357339
-0.358615
-0.36002
-0.36154
-0.363154
-0.364831
-0.36653
-0.368196
-0.369755
-0.371117
-0.372165
-0.372755
-0.372718
-0.371966
-0.370243
-0.365071
-0.354
-0.353919
-0.353885
-0.353882
-0.353907
-0.353974
-0.354097
-0.354295
-0.354584
-0.354982
-0.355502
-0.356157
-0.356953
-0.357895
-0.358984
-0.360216
-0.361581
-0.363065
-0.364643
-0.366284
-0.367944
-0.369564
-0.371068
-0.372358
-0.373311
-0.373776
-0.373566
-0.372553
-0.37065
-0.364457
-0.35647
-0.356316
-0.356216
-0.356149
-0.356107
-0.356102
-0.356151
-0.356272
-0.356484
-0.356804
-0.357247
-0.357827
-0.35855
-0.359423
-0.360447
-0.361616
-0.362921
-0.364345
-0.365866
-0.367447
-0.369042
-0.370588
-0.372006
-0.373192
-0.374016
-0.374321
-0.37391
-0.372595
-0.370553
-0.363273
-0.358875
-0.358655
-0.358493
-0.358361
-0.358248
-0.358166
-0.358134
-0.35817
-0.358294
-0.358524
-0.358877
-0.359367
-0.360002
-0.360789
-0.361729
-0.362816
-0.364041
-0.365387
-0.366826
-0.368323
-0.369828
-0.371273
-0.372574
-0.373622
-0.374282
-0.374391
-0.373749
-0.372085
-0.369937
-0.361555
-0.361219
-0.36094
-0.360719
-0.360522
-0.360336
-0.360173
-0.360053
-0.359995
-0.360021
-0.360149
-0.360399
-0.360784
-0.361316
-0.362
-0.362839
-0.363827
-0.364953
-0.366199
-0.367537
-0.368927
-0.370316
-0.371633
-0.372788
-0.373666
-0.374126
-0.373999
-0.373095
-0.371037
-0.368796
-0.359361
-0.36351
-0.36318
-0.362904
-0.362642
-0.362379
-0.36213
-0.361915
-0.361755
-0.361672
-0.361688
-0.361821
-0.362089
-0.362502
-0.363069
-0.363791
-0.364662
-0.365672
-0.366801
-0.368017
-0.369278
-0.370528
-0.37169
-0.372669
-0.373345
-0.373569
-0.37317
-0.371971
-0.369478
-0.367126
-0.356757
-0.365761
-0.365388
-0.365057
-0.36473
-0.364388
-0.364049
-0.363733
-0.363462
-0.363262
-0.363153
-0.363159
-0.363297
-0.363579
-0.364014
-0.364604
-0.365344
-0.366222
-0.367215
-0.368291
-0.369403
-0.370491
-0.371473
-0.372248
-0.372688
-0.372643
-0.371931
-0.370401
-0.367449
-0.364932
-0.353814
-0.367987
-0.367577
-0.367195
-0.366801
-0.366378
-0.365944
-0.36552
-0.365132
-0.364804
-0.364563
-0.364431
-0.364427
-0.364566
-0.364857
-0.365303
-0.365898
-0.366628
-0.36747
-0.368389
-0.369333
-0.370237
-0.371013
-0.371554
-0.371727
-0.371374
-0.370314
-0.368414
-0.364998
-0.362223
-0.350602
-0.37021
-0.369767
-0.369335
-0.368873
-0.368365
-0.367831
-0.367294
-0.366781
-0.366319
-0.365936
-0.365656
-0.365502
-0.365488
-0.365624
-0.365914
-0.366352
-0.366922
-0.367599
-0.368344
-0.369101
-0.369798
-0.370342
-0.370618
-0.370489
-0.369792
-0.368346
-0.36603
-0.362171
-0.359017
-0.347184
-0.372452
-0.371979
-0.371497
-0.370965
-0.370369
-0.369729
-0.369074
-0.368429
-0.367826
-0.367295
-0.36686
-0.366547
-0.366371
-0.366345
-0.366469
-0.366739
-0.367138
-0.367636
-0.36819
-0.36874
-0.369207
-0.36949
-0.369469
-0.369
-0.367918
-0.366051
-0.363266
-0.359
-0.355306
-0.343557
-0.374741
-0.374237
-0.373703
-0.373098
-0.372409
-0.37166
-0.37088
-0.3701
-0.36935
-0.368663
-0.368068
-0.36759
-0.367246
-0.367049
-0.367
-0.367093
-0.367309
-0.367614
-0.36796
-0.368282
-0.368492
-0.368484
-0.368129
-0.367281
-0.365775
-0.363452
-0.360147
-0.355511
-0.351023
-0.339597
-0.377104
-0.376568
-0.375978
-0.375295
-0.374509
-0.373646
-0.372737
-0.371815
-0.370914
-0.370068
-0.369308
-0.368659
-0.368142
-0.367768
-0.367539
-0.367446
-0.367467
-0.367565
-0.367685
-0.367754
-0.367678
-0.367343
-0.366616
-0.365349
-0.363381
-0.360571
-0.356723
-0.351755
-0.34613
-0.335384
-0.379572
-0.378997
-0.378346
-0.377581
-0.376693
-0.375711
-0.374668
-0.373601
-0.372544
-0.371535
-0.370606
-0.369784
-0.369089
-0.368534
-0.368118
-0.36783
-0.367644
-0.367517
-0.367389
-0.367177
-0.366782
-0.366083
-0.364942
-0.363216
-0.360751
-0.357431
-0.353055
-0.347789
-0.340944
-0.332177
-0.382176
-0.381554
-0.380835
-0.37998
-0.378984
-0.377878
-0.376697
-0.37548
-0.374266
-0.373091
-0.371991
-0.370993
-0.370117
-0.369375
-0.368765
-0.368272
-0.367865
-0.367494
-0.367091
-0.366568
-0.365816
-0.36471
-0.363114
-0.360887
-0.357894
-0.354041
-0.349164
-0.343572
-0.336189
-0.331436
-0.384946
-0.384265
-0.383469
-0.382518
-0.381407
-0.380171
-0.378848
-0.377478
-0.376103
-0.374761
-0.373488
-0.372312
-0.371252
-0.370318
-0.369506
-0.368795
-0.368149
-0.36751
-0.366804
-0.365933
-0.364783
-0.363228
-0.361133
-0.358369
-0.35482
-0.350417
-0.345049
-0.339011
-0.331507
-0.326124
-0.387912
-0.387158
-0.386274
-0.385218
-0.383985
-0.382613
-0.381144
-0.379619
-0.378081
-0.37657
-0.375122
-0.373765
-0.372517
-0.371385
-0.37036
-0.369416
-0.36851
-0.367577
-0.366532
-0.365273
-0.363683
-0.361634
-0.359001
-0.355669
-0.351544
-0.346582
-0.340713
-0.334199
-0.326408
-0.319971
-0.391102
-0.390258
-0.389274
-0.388103
-0.38674
-0.385227
-0.383607
-0.381923
-0.38022
-0.378539
-0.376915
-0.375374
-0.373933
-0.372594
-0.371342
-0.370147
-0.368955
-0.367694
-0.366274
-0.364585
-0.362509
-0.359925
-0.35672
-0.352797
-0.348086
-0.342567
-0.336204
-0.329217
-0.321102
-0.313848
-0.394541
-0.393589
-0.39249
-0.391195
-0.389694
-0.388032
-0.386257
-0.384412
-0.382542
-0.380688
-0.378885
-0.377156
-0.375514
-0.373956
-0.372462
-0.370991
-0.369484
-0.367859
-0.36602
-0.363857
-0.361253
-0.358098
-0.354294
-0.349766
-0.344471
-0.338411
-0.331575
-0.324155
-0.315746
-0.307877
-0.398253
-0.397171
-0.395944
-0.394513
-0.392865
-0.391049
-0.389113
-0.387103
-0.385063
-0.383034
-0.381047
-0.379123
-0.377271
-0.375479
-0.373721
-0.371947
-0.370089
-0.368061
-0.36576
-0.363078
-0.359907
-0.356149
-0.351728
-0.346594
-0.340729
-0.334154
-0.326881
-0.319081
-0.310424
-0.302162
-0.402256
-0.401023
-0.399653
-0.398074
-0.39627
-0.394292
-0.392191
-0.390011
-0.387798
-0.385589
-0.383413
-0.381286
-0.379209
-0.377165
-0.375117
-0.373007
-0.37076
-0.368283
-0.365475
-0.362232
-0.358459
-0.354077
-0.349032
-0.3433
-0.336887
-0.329832
-0.322163
-0.314039
-0.305187
-0.296669
-0.406566
-0.40516
-0.403631
-0.401894
-0.399925
-0.397778
-0.395505
-0.393152
-0.39076
-0.388366
-0.385992
-0.38365
-0.381331
-0.37901
-0.37664
-0.374157
-0.371477
-0.368506
-0.365147
-0.361306
-0.356903
-0.351882
-0.346215
-0.339902
-0.33297
-0.325474
-0.317454
-0.309054
-0.30005
-0.29137
-0.411195
-0.409595
-0.407891
-0.405984
-0.403841
-0.401517
-0.399067
-0.396535
-0.393959
-0.391371
-0.388789
-0.386214
-0.383631
-0.381004
-0.378277
-0.375378
-0.372219
-0.368709
-0.364756
-0.360283
-0.35523
-0.349566
-0.343288
-0.336418
-0.329002
-0.321103
-0.312771
-0.304138
-0.295012
-0.286225
-0.416152
-0.414336
-0.412443
-0.410355
-0.408028
-0.405521
-0.402887
-0.400169
-0.397401
-0.394609
-0.391803
-0.388976
-0.386102
-0.383134
-0.380008
-0.376646
-0.372961
-0.368865
-0.364281
-0.35915
-0.353435
-0.347132
-0.34026
-0.332862
-0.324996
-0.316732
-0.308124
-0.299289
-0.290064
-0.281199
-0.421441
-0.41939
-0.417293
-0.415013
-0.412494
-0.409796
-0.406972
-0.40406
-0.401091
-0.398081
-0.395033
-0.391928
-0.388728
-0.385379
-0.381809
-0.377935
-0.373674
-0.36895
-0.363702
-0.357894
-0.351514
-0.344583
-0.33714
-0.329245
-0.320964
-0.312369
-0.303513
-0.2945
-0.28519
-0.27626
-0.427064
-0.424758
-0.422445
-0.419964
-0.417245
-0.414348
-0.411326
-0.408212
-0.405028
-0.401784
-0.398469
-0.395055
-0.391492
-0.387716
-0.38365
-0.379214
-0.37433
-0.368939
-0.363001
-0.356504
-0.349463
-0.341921
-0.333934
-0.325573
-0.31691
-0.308012
-0.298933
-0.28976
-0.280373
-0.271382
-0.433018
-0.430439
-0.427898
-0.425207
-0.422281
-0.419179
-0.41595
-0.412623
-0.40921
-0.40571
-0.4021
-0.398339
-0.394368
-0.390115
-0.3855
-0.380449
-0.374898
-0.368806
-0.362159
-0.354969
-0.347279
-0.339147
-0.330645
-0.32185
-0.312833
-0.303658
-0.294375
-0.285054
-0.275593
-0.266541
-0.439296
-0.436428
-0.433648
-0.430741
-0.427601
-0.424287
-0.420843
-0.417289
-0.413629
-0.409846
-0.405906
-0.401756
-0.397326
-0.39254
-0.387322
-0.381605
-0.375347
-0.368527
-0.361159
-0.353282
-0.344957
-0.336261
-0.327273
-0.318073
-0.308728
-0.299298
-0.289824
-0.280365
-0.270833
-0.261715
-0.445886
-0.442716
-0.43969
-0.43656
-0.4332
-0.429667
-0.425997
-0.422202
-0.41827
-0.414173
-0.409863
-0.405275
-0.400331
-0.394954
-0.389077
-0.382648
-0.375646
-0.36808
-0.359986
-0.351431
-0.342493
-0.333259
-0.323814
-0.314236
-0.304587
-0.294919
-0.285267
-0.275675
-0.266073
-0.256885
-0.452772
-0.449289
-0.44601
-0.442653
-0.439069
-0.435308
-0.431401
-0.427344
-0.423114
-0.418666
-0.413939
-0.408857
-0.40334
-0.397315
-0.390725
-0.383541
-0.375768
-0.367441
-0.358626
-0.349408
-0.33988
-0.330136
-0.320262
-0.31033
-0.300397
-0.290506
-0.280686
-0.270967
-0.261295
-0.252035
-0.459934
-0.456128
-0.452591
-0.449005
-0.445191
-0.441195
-0.437036
-0.432695
-0.428134
-0.423293
-0.418096
-0.412462
-0.40631
-0.399576
-0.392224
-0.384248
-0.375683
-0.366592
-0.357064
-0.347203
-0.337111
-0.326885
-0.316607
-0.306344
-0.296145
-0.286043
-0.276063
-0.266224
-0.256483
-0.247148
-0.467343
-0.463208
-0.459412
-0.455594
-0.451547
-0.447306
-0.442877
-0.438226
-0.433296
-0.428012
-0.422288
-0.416039
-0.40919
-0.401692
-0.393532
-0.384735
-0.375364
-0.365511
-0.355286
-0.344804
-0.334175
-0.323493
-0.312837
-0.302263
-0.291814
-0.281514
-0.271382
-0.261426
-0.251617
-0.242207
-0.474967
-0.4705
-0.466444
-0.462394
-0.458108
-0.453611
-0.448892
-0.443899
-0.438557
-0.432776
-0.426464
-0.419535
-0.411927
-0.403612
-0.394606
-0.384966
-0.374785
-0.364179
-0.353276
-0.3422
-0.331061
-0.31995
-0.308937
-0.298072
-0.287387
-0.2769
-0.266623
-0.256557
-0.246683
-0.237198
-0.482765
-0.477965
-0.47365
-0.469369
-0.46484
-0.460074
-0.455042
-0.44967
-0.443867
-0.437532
-0.430566
-0.422892
-0.414467
-0.405289
-0.395406
-0.38491
-0.37392
-0.362577
-0.35102
-0.339376
-0.327755
-0.31624
-0.304893
-0.293753
-0.282846
-0.272183
-0.261769
-0.251598
-0.241662
-0.232106
-0.49069
-0.48556
-0.480991
-0.476478
-0.471701
-0.46665
-0.461276
-0.455486
-0.449169
-0.442216
-0.434531
-0.42605
-0.416753
-0.406673
-0.395892
-0.384533
-0.372746
-0.360686
-0.3485
-0.336318
-0.324241
-0.312346
-0.300685
-0.289289
-0.278174
-0.267345
-0.256802
-0.246535
-0.236541
-0.226917
-0.498687
-0.493233
-0.488415
-0.483673
-0.47864
-0.473286
-0.46754
-0.461284
-0.454397
-0.446762
-0.438293
-0.428945
-0.418729
-0.407715
-0.396023
-0.383806
-0.371237
-0.358484
-0.345699
-0.333007
-0.320503
-0.308252
-0.296297
-0.28466
-0.273351
-0.262368
-0.251705
-0.24135
-0.231304
-0.221618
-0.506694
-0.500926
-0.495866
-0.490896
-0.4856
-0.479921
-0.473766
-0.466997
-0.459478
-0.451097
-0.44178
-0.431512
-0.420339
-0.40837
-0.395762
-0.382698
-0.36937
-0.355953
-0.3426
-0.329427
-0.316521
-0.303938
-0.291709
-0.279849
-0.268359
-0.257234
-0.246462
-0.236028
-0.225936
-0.216196
-0.514642
-0.508573
-0.503281
-0.498084
-0.492514
-0.486487
-0.479884
-0.472548
-0.464337
-0.455146
-0.444923
-0.433687
-0.421526
-0.408591
-0.395072
-0.381181
-0.36712
-0.353072
-0.339181
-0.325558
-0.312278
-0.299385
-0.286902
-0.274835
-0.26318
-0.251925
-0.241056
-0.230554
-0.220424
-0.210639
-0.522455
-0.5161
-0.510586
-0.505164
-0.499309
-0.492906
-0.485812
-0.477855
-0.468891
-0.458829
-0.447648
-0.435406
-0.422238
-0.408334
-0.39392
-0.379226
-0.364465
-0.349818
-0.335424
-0.321381
-0.307754
-0.294575
-0.281858
-0.269602
-0.257796
-0.246426
-0.235472
-0.224914
-0.214755
-0.204935
-0.53005
-0.523429
-0.517704
-0.512057
-0.505902
-0.499094
-0.491466
-0.482832
-0.473055
-0.462067
-0.449883
-0.436608
-0.422422
-0.407558
-0.39227
-0.376804
-0.361379
-0.34617
-0.331307
-0.316876
-0.302927
-0.289486
-0.276556
-0.26413
-0.252191
-0.24072
-0.229695
-0.219095
-0.208917
-0.199075
-0.537338
-0.530473
-0.52455
-0.518677
-0.512208
-0.504963
-0.496753
-0.487389
-0.476743
-0.464779
-0.451557
-0.437231
-0.42203
-0.406224
-0.390091
-0.373891
-0.35784
-0.342107
-0.32681
-0.312021
-0.29778
-0.284101
-0.270979
-0.258402
-0.246348
-0.234793
-0.223712
-0.213084
-0.202898
-0.193048
-0.544226
-0.537141
-0.531034
-0.524935
-0.518133
-0.510418
-0.501581
-0.491433
-0.479868
-0.466887
-0.452602
-0.437219
-0.421015
-0.404292
-0.387352
-0.370458
-0.353824
-0.337607
-0.321911
-0.306796
-0.292291
-0.278399
-0.265109
-0.252401
-0.24025
-0.228629
-0.217509
-0.206869
-0.196687
-0.186846
-0.550614
-0.543338
-0.53706
-0.530732
-0.52358
-0.51536
-0.505851
-0.49487
-0.482342
-0.468314
-0.452952
-0.436518
-0.419332
-0.401729
-0.384023
-0.36648
-0.349307
-0.332646
-0.316589
-0.301183
-0.286442
-0.272363
-0.258928
-0.246112
-0.233885
-0.222216
-0.211075
-0.200439
-0.190277
-0.180464
-0.556403
-0.548964
-0.542529
-0.53597
-0.528448
-0.519689
-0.509465
-0.497609
-0.484082
-0.468986
-0.452545
-0.435077
-0.416941
-0.3985
-0.380077
-0.361934
-0.344267
-0.327206
-0.310825
-0.29516
-0.280215
-0.265976
-0.252421
-0.239519
-0.227237
-0.215541
-0.204398
-0.193785
-0.183658
-0.173893
-0.561488
-0.553918
-0.547341
-0.540546
-0.532635
-0.523305
-0.512327
-0.499558
-0.485007
-0.468833
-0.451324
-0.432848
-0.413804
-0.394574
-0.375486
-0.356795
-0.338683
-0.321265
-0.3046
-0.28871
-0.273591
-0.259222
-0.245573
-0.232609
-0.220294
-0.208592
-0.197467
-0.186896
-0.176821
-0.167126
-0.565765
-0.558096
-0.551391
-0.544357
-0.536037
-0.526105
-0.51434
-0.500631
-0.48504
-0.467791
-0.449235
-0.42979
-0.409887
-0.389924
-0.370227
-0.351042
-0.332534
-0.314803
-0.297894
-0.281816
-0.266556
-0.252085
-0.238368
-0.225368
-0.213045
-0.201358
-0.190272
-0.179763
-0.169758
-0.160155
-0.569131
-0.561397
-0.554577
-0.547301
-0.538553
-0.527993
-0.515413
-0.500744
-0.484108
-0.4658
-0.44623
-0.425863
-0.405159
-0.384522
-0.364276
-0.344653
-0.325801
-0.307804
-0.290691
-0.274462
-0.259093
-0.244552
-0.230796
-0.217786
-0.205478
-0.19383
-0.182805
-0.172378
-0.162462
-0.152975
-0.571484
-0.563718
-0.556799
-0.549276
-0.540085
-0.528874
-0.515457
-0.499819
-0.482147
-0.462806
-0.442265
-0.421033
-0.39959
-0.378346
-0.357614
-0.33761
-0.318467
-0.30025
-0.282976
-0.266633
-0.251192
-0.23661
-0.222846
-0.209852
-0.197584
-0.185999
-0.175056
-0.164732
-0.154929
-0.145583
-0.572725
-0.564961
-0.557956
-0.550183
-0.540535
-0.528656
-0.514392
-0.497785
-0.479097
-0.45876
-0.437303
-0.41527
-0.393158
-0.371375
-0.350222
-0.329897
-0.310516
-0.292127
-0.274735
-0.258318
-0.242839
-0.228251
-0.214507
-0.201558
-0.189356
-0.177856
-0.167017
-0.156817
-0.147151
-0.137971
-0.572759
-0.565032
-0.557955
-0.54993
-0.539814
-0.527256
-0.512142
-0.494579
-0.474905
-0.453622
-0.431311
-0.408549
-0.385842
-0.363591
-0.342084
-0.3215
-0.301935
-0.283423
-0.265958
-0.249507
-0.234026
-0.219466
-0.205773
-0.192897
-0.180788
-0.169395
-0.158679
-0.148619
-0.139109
-0.1301
-0.571498
-0.563841
-0.556706
-0.548429
-0.537839
-0.524596
-0.508639
-0.490144
-0.469526
-0.447356
-0.424264
-0.400849
-0.377624
-0.35498
-0.333187
-0.312405
-0.292713
-0.274128
-0.256634
-0.24019
-0.224746
-0.210248
-0.196639
-0.183866
-0.171875
-0.160614
-0.15004
-0.140135
-0.130777
-0.121886
-0.568859
-0.561305
-0.554126
-0.545598
-0.534532
-0.52061
-0.503825
-0.484431
-0.462923
-0.439934
-0.416138
-0.392153
-0.368491
-0.345531
-0.323522
-0.302605
-0.282841
-0.264235
-0.246758
-0.230363
-0.214995
-0.200594
-0.187102
-0.174461
-0.162617
-0.151512
-0.141106
-0.13138
-0.122167
-0.113267
-0.564769
-0.55735
-0.550141
-0.541365
-0.529826
-0.515235
-0.497648
-0.477402
-0.455065
-0.431335
-0.406919
-0.382451
-0.358436
-0.335236
-0.313081
-0.292093
-0.272314
-0.253738
-0.236325
-0.220022
-0.204769
-0.190502
-0.17716
-0.164684
-0.153014
-0.142094
-0.131883
-0.122365
-0.113324
-0.104448
-0.55916
-0.551907
-0.544683
-0.535666
-0.523662
-0.508421
-0.490069
-0.469024
-0.445931
-0.421543
-0.396597
-0.371735
-0.347452
-0.324091
-0.301862
-0.280866
-0.26113
-0.242635
-0.225334
-0.209167
-0.194068
-0.179972
-0.166814
-0.154534
-0.14307
-0.132361
-0.122375
-0.113078
-0.104176
-0.0956391
-0.551978
-0.54492
-0.537695
-0.528446
-0.515993
-0.500129
-0.481056
-0.459276
-0.435507
-0.41055
-0.385168
-0.360003
-0.335538
-0.312096
-0.289864
-0.268924
-0.249289
-0.230928
-0.213786
-0.197797
-0.182893
-0.169007
-0.156068
-0.144018
-0.132788
-0.12232
-0.112583
-0.103523
-0.0948193
-0.0866546
-0.543175
-0.53634
-0.52913
-0.519662
-0.506778
-0.490327
-0.470587
-0.448144
-0.423785
-0.398355
-0.372633
-0.34726
-0.3227
-0.299255
-0.27709
-0.25627
-0.236793
-0.218618
-0.201683
-0.185919
-0.171249
-0.157614
-0.144929
-0.133137
-0.122173
-0.111975
-0.102512
-0.0937162
-0.0852515
-0.0774491
-0.532715
-0.526131
-0.518952
-0.50928
-0.495992
-0.478995
-0.458651
-0.435625
-0.410768
-0.384962
-0.359
-0.333512
-0.308944
-0.285575
-0.263549
-0.242912
-0.223651
-0.205714
-0.189032
-0.173541
-0.159148
-0.145794
-0.133399
-0.121901
-0.111232
-0.101331
-0.0921688
-0.0836637
-0.0754644
-0.0680204
-0.520574
-0.514265
-0.507135
-0.497277
-0.483617
-0.466125
-0.445244
-0.421721
-0.396463
-0.370384
-0.344281
-0.318772
-0.294282
-0.271067
-0.249249
-0.228859
-0.20987
-0.192225
-0.175849
-0.160666
-0.146594
-0.13356
-0.121491
-0.110318
-0.0999731
-0.0903973
-0.0815613
-0.0733715
-0.0654565
-0.0583784
-0.506739
-0.500728
-0.493663
-0.483643
-0.469647
-0.451715
-0.430374
-0.406445
-0.380887
-0.354638
-0.328494
-0.303057
-0.278731
-0.255746
-0.234206
-0.214125
-0.195467
-0.178164
-0.162139
-0.147311
-0.133598
-0.120924
-0.109213
-0.0983979
-0.0884077
-0.0791837
-0.070699
-0.0628466
-0.0552329
-0.048534
-0.491206
-0.485515
-0.478534
-0.468377
-0.454088
-0.435779
-0.414058
-0.389818
-0.364063
-0.337747
-0.311663
-0.286391
-0.262312
-0.239633
-0.218439
-0.198728
-0.180454
-0.163546
-0.147919
-0.13349
-0.120176
-0.107898
-0.0965813
-0.0861545
-0.0765476
-0.067702
-0.059593
-0.0520987
-0.044803
-0.0384985
-0.473985
-0.468634
-0.461757
-0.451491
-0.436955
-0.418336
-0.396322
-0.371869
-0.346021
-0.319743
-0.293815
-0.2688
-0.24505
-0.222751
-0.201967
-0.182687
-0.164853
-0.148389
-0.133206
-0.11922
-0.106344
-0.094499
-0.0836092
-0.0736022
-0.0644069
-0.0559659
-0.0482562
-0.04114
-0.034179
-0.028284
-0.455095
-0.450103
-0.443349
-0.433007
-0.418275
-0.399417
-0.377197
-0.352633
-0.326797
-0.30066
-0.274986
-0.250315
-0.226974
-0.205126
-0.184818
-0.166026
-0.148686
-0.132714
-0.118021
-0.104519
-0.09212
-0.0807441
-0.0703143
-0.0607575
-0.0520017
-0.0439909
-0.0367034
-0.0299848
-0.0233752
-0.0179045
-0.434568
-0.429951
-0.423341
-0.412957
-0.398083
-0.379061
-0.356728
-0.332154
-0.306437
-0.280539
-0.255212
-0.230972
-0.208117
-0.186789
-0.167019
-0.148773
-0.131978
-0.116546
-0.102387
-0.0894091
-0.0775252
-0.0666533
-0.0567158
-0.047639
-0.03935
-0.0317945
-0.0249517
-0.0186498
-0.0124088
-0.00737615
-0.412445
-0.408217
-0.401774
-0.391383
-0.376425
-0.357315
-0.334964
-0.310487
-0.284987
-0.259422
-0.234538
-0.21081
-0.188516
-0.167775
-0.148604
-0.130957
-0.114757
-0.0999119
-0.0863287
-0.0739148
-0.0625823
-0.0522481
-0.0428345
-0.0342666
-0.0264713
-0.0193957
-0.0130199
-0.00715401
-0.00129905
0.00328291
-0.388778
-0.384953
-0.378698
-0.36834
-0.353355
-0.334241
-0.311975
-0.287685
-0.262484
-0.237366
-0.21301
-0.189875
-0.168212
-0.148122
-0.129607
-0.112612
-0.0970542
-0.0828402
-0.0698739
-0.0580619
-0.0473158
-0.0375521
-0.0286926
-0.020662
-0.0133867
-0.00681555
-0.000928715
0.00448165
0.00993163
0.01405
-0.36363
-0.360218
-0.354174
-0.343887
-0.328942
-0.309918
-0.287834
-0.263754
-0.239012
-0.214425
-0.190681
-0.168214
-0.14725
-0.127871
-0.110066
-0.0937731
-0.0789043
-0.0653631
-0.0530524
-0.0418785
-0.0317523
-0.0225903
-0.014314
-0.00684796
-0.000118396
0.00592397
0.0112996
0.0162341
0.021257
0.0248949
-0.337073
-0.334079
-0.328269
-0.318099
-0.303266
-0.284411
-0.262489
-0.238877
-0.214633
-0.190659
-0.167607
-0.14588
-0.125678
-0.107067
-0.0900247
-0.0744803
-0.0603431
-0.0475144
-0.0358961
-0.0253942
-0.0159196
-0.00738883
0.000276363
0.00715172
0.0133105
0.0187999
0.023642
0.0280782
0.0326457
0.035781
-0.309183
-0.306613
-0.301062
-0.291057
-0.276394
-0.257704
-0.236193
-0.213057
-0.189408
-0.166132
-0.143848
-0.122927
-0.103548
-0.0857587
-0.0695262
-0.0547746
-0.0414094
-0.0293304
-0.0184389
-0.00864083
0.00015267
0.00802461
0.0150528
0.0213127
0.0268766
0.0317894
0.0360748
0.0399876
0.0440651
0.0466763
-0.280037
-0.277912
-0.27264
-0.262839
-0.248361
-0.230019
-0.208948
-0.186377
-0.163412
-0.140914
-0.119467
-0.0994144
-0.0809132
-0.0639951
-0.0486178
-0.0347
-0.0221442
-0.0108493
-0.000716415
0.00834852
0.0164337
0.0236214
0.0299888
0.0356105
0.0405568
0.0448697
0.0485755
0.0519394
0.0554897
0.0575558
-0.249712
-0.248074
-0.243092
-0.233514
-0.219341
-0.201391
-0.180839
-0.15892
-0.136722
-0.115074
-0.0945296
-0.0754034
-0.057831
-0.04183
-0.0273491
-0.0143026
-0.00259065
0.00788859
0.017234
0.0255391
0.0328914
0.0393721
0.0450573
0.0500203
0.054328
0.0580183
0.0611241
0.0639195
0.0669011
0.0683558
-0.218293
-0.217222
-0.212515
-0.203215
-0.189398
-0.171913
-0.15196
-0.130774
-0.109417
-0.0886874
-0.0691054
-0.0509582
-0.0343612
-0.0193188
-0.0057719
0.00636933
0.0172063
0.0268414
0.0353733
0.0428947
0.0494923
0.055246
0.0602307
0.0645174
0.0681671
0.0712145
0.0737059
0.0759176
0.0782515
0.0789181
-0.185951
-0.185423
-0.181018
-0.17204
-0.158633
-0.141684
-0.122407
-0.102027
-0.0815809
-0.061831
-0.0432657
-0.0261451
-0.0105656
0.00348085
0.0160601
0.0272655
0.0371997
0.0459655
0.0536608
0.0603778
0.0662018
0.0712118
0.0754813
0.0790775
0.082054
0.084445
0.0863187
0.087919
0.0894274
0.0890662
-0.152842
-0.152748
-0.148711
-0.140096
-0.127155
-0.110807
-0.092276
-0.0727715
-0.0532985
-0.0345845
-0.0170846
-0.0010331
0.0134918
0.0265092
0.0380911
0.0483339
0.0573412
0.0652155
0.0720544
0.0779491
0.082984
0.0872369
0.0907799
0.0936762
0.0959726
0.0977104
0.0989842
0.0999333
0.100366
0.0988232
-0.119009
-0.11936
-0.11571
-0.107496
-0.0950714
-0.0793875
-0.0616679
-0.0431009
-0.024658
-0.00702954
0.00936199
0.0243073
0.0377452
0.0497049
0.060264
0.0695211
0.0775806
0.0845448
0.0905105
0.0955682
0.0998011
0.103286
0.106095
0.108286
0.109905
0.111012
0.111726
0.112007
0.111263
0.108745
-0.0845722
-0.085383
-0.0821328
-0.0743548
-0.0624964
-0.0475341
-0.030685
-0.0131116
0.00425103
0.0207505
0.0359966
0.0498039
0.0621272
0.0730051
0.0825199
0.0907722
0.0978668
0.103905
0.108984
0.113193
0.116614
0.119323
0.121391
0.122874
0.12382
0.124319
0.124489
0.124065
0.122178
0.121022
-0.0496603
-0.0509362
-0.0480998
-0.0407904
-0.0295448
-0.0153568
0.00056861
0.0170988
0.0333376
0.0486709
0.0627402
0.0753833
0.0865695
0.096346
0.104799
0.112031
0.118147
0.123248
0.12743
0.130781
0.133382
0.135309
0.13663
0.137403
0.137681
0.137563
0.137137
0.136051
0.133761
0.133292
-0.014402
-0.0161443
-0.0137348
-0.00692432
0.00366657
0.0170329
0.0319875
0.0474316
0.0625095
0.0766459
0.0895132
0.100971
0.111002
0.119663
0.127041
0.133242
0.138369
0.142524
0.145801
0.148287
0.150063
0.151204
0.151777
0.151838
0.151448
0.150704
0.149658
0.147967
0.145359
0.144819
0.0210732
0.0188656
0.0208365
0.0271208
0.0370194
0.0495224
0.0634657
0.0777873
0.0916742
0.104589
0.116235
0.126492
0.135356
0.142889
0.149185
0.154346
0.158479
0.161682
0.16405
0.165668
0.166617
0.16697
0.166793
0.166143
0.165083
0.163706
0.162046
0.159798
0.156848
0.155953
0.0566352
0.0539653
0.0554876
0.0612213
0.0703947
0.0819986
0.0948965
0.108066
0.120739
0.132414
0.142825
0.151871
0.15956
0.16596
0.171168
0.175287
0.178422
0.180672
0.18213
0.18288
0.183001
0.182566
0.181639
0.18028
0.178549
0.176535
0.174264
0.171466
0.168113
0.16676
0.0921533
0.0890257
0.0900912
0.0952535
0.103674
0.114349
0.126174
0.138169
0.14961
0.160034
0.169202
0.177032
0.183544
0.18881
0.192929
0.196007
0.198145
0.199444
0.199993
0.199877
0.199173
0.197953
0.19628
0.194213
0.191813
0.189163
0.186284
0.182933
0.179139
0.17728
0.127497
0.123918
0.12452
0.129094
0.136737
0.14646
0.157191
0.167997
0.178195
0.187363
0.195286
0.201901
0.207237
0.211372
0.214407
0.216447
0.217594
0.217946
0.217592
0.216615
0.215092
0.213092
0.210678
0.207908
0.204842
0.201559
0.198074
0.194169
0.189913
0.187523
0.162536
0.158512
0.158647
0.162619
0.169468
0.17822
0.187844
0.197451
0.206404
0.214315
0.220996
0.226402
0.23057
0.233582
0.235541
0.236552
0.236716
0.236129
0.234881
0.233051
0.230716
0.227944
0.224798
0.221331
0.217605
0.213694
0.209608
0.205149
0.200422
0.197487
0.197141
0.192682
0.192348
0.195707
0.20175
0.20952
0.218029
0.226435
0.234145
0.240805
0.246255
0.250462
0.253473
0.255375
0.256271
0.256264
0.255457
0.253944
0.251812
0.249142
0.246006
0.242473
0.238603
0.234449
0.230071
0.22554
0.22086