/*--------------------------------*- C++ -*----------------------------------*\
  =========                 |
  \\      /  F ield         | OpenFOAM: The Open Source CFD Toolbox
   \\    /   O peration     | Website:  https://openfoam.org
    \\  /    A nd           | Version:  7
     \\/     M anipulation  |
\*---------------------------------------------------------------------------*/
FoamFile
{
    version     2.0;
    format      ascii;
    class       volVectorField;
    location    "79";
    object      U;
}
// * * * * * * * * * * * * * * * * * * * * * * * * * * * * * * * * * * * * * //

dimensions      [0 1 -1 0 0 0 0];

internalField   nonuniform List<vector> 
40000
(
(-0.000264733 0.0042469 -2.51473e-21)
(-0.00145122 0.0104053 7.80028e-21)
(-0.003867 0.0146032 -4.96779e-21)
(-0.00721712 0.0170538 -4.43425e-24)
(-0.0113405 0.0179795 -1.39579e-23)
(-0.0161313 0.0176064 3.15274e-24)
(-0.021483 0.0161572 -8.25861e-21)
(-0.0272941 0.0138438 1.96061e-21)
(-0.0334726 0.01086 -5.61754e-21)
(-0.0399348 0.00737479 -1.77021e-21)
(-0.0466045 0.00352739 0)
(-0.0534121 -0.000576349 -6.39324e-21)
(-0.0602945 -0.00486485 0)
(-0.0671939 -0.00929989 0)
(-0.0740574 -0.0138732 -5.41926e-21)
(-0.0808364 -0.0186013 5.12047e-21)
(-0.0874865 -0.0235193 -2.40842e-21)
(-0.0939672 -0.0286738 -1.61238e-24)
(-0.100242 -0.0341168 2.13954e-21)
(-0.106278 -0.0398996 0)
(-0.11205 -0.0460692 -1.89697e-21)
(-0.117536 -0.0526649 -5.38577e-21)
(-0.122724 -0.0597182 6.73707e-21)
(-0.127611 -0.067253 -3.14596e-21)
(-0.132206 -0.0752878 8.88837e-21)
(-0.13653 -0.083839 5.56599e-21)
(-0.14062 -0.092924 -1.04303e-20)
(-0.144521 -0.102563 9.76626e-21)
(-0.14829 -0.112788 -2.26967e-21)
(-0.152002 -0.123659 -4.30639e-21)
(-0.000403697 0.00493905 0)
(-0.00180305 0.0122738 5.26713e-21)
(-0.00438313 0.0174715 1.00061e-20)
(-0.0078567 0.0207651 -9.54923e-21)
(-0.0120704 0.0223921 -4.5853e-21)
(-0.0169258 0.0225919 1.74366e-20)
(-0.0223232 0.0216 -4.16625e-21)
(-0.0281671 0.0196406 -7.93162e-21)
(-0.0343706 0.0169189 -7.74736e-23)
(-0.0408545 0.0136144 -2.14422e-20)
(-0.047546 0.00987591 6.76197e-21)
(-0.0543784 0.00581793 2.56859e-20)
(-0.0612905 0.00151958 -1.21529e-20)
(-0.0682262 -0.00297421 -6.66949e-24)
(-0.0751336 -0.00764924 -5.5072e-21)
(-0.0819651 -0.0125168 1.66103e-23)
(-0.0886767 -0.0176074 0)
(-0.0952285 -0.0229632 0)
(-0.101584 -0.0286318 1.73478e-20)
(-0.107712 -0.0346602 0)
(-0.113586 -0.04109 7.6611e-21)
(-0.119186 -0.0479546 -7.23861e-21)
(-0.124499 -0.055278 3.26409e-23)
(-0.129523 -0.0630753 0)
(-0.134268 -0.0713548 1.20373e-20)
(-0.138759 -0.0801217 -1.1164e-20)
(-0.143035 -0.0893827 1.04304e-20)
(-0.147152 -0.099151 -9.76632e-21)
(-0.151182 -0.109455 9.1905e-21)
(-0.155193 -0.120343 -2.59967e-20)
(-0.00057675 0.00562541 -1.02174e-20)
(-0.00224032 0.0141311 -1.04704e-20)
(-0.00501608 0.0203286 0)
(-0.00862867 0.0244694 0)
(-0.0129349 0.0268051 0)
(-0.0178454 0.0275873 8.84887e-21)
(-0.0232686 0.0270636 0)
(-0.0291162 0.0254698 7.92156e-21)
(-0.0353077 0.023022 1.50633e-20)
(-0.0417689 0.0199099 1.4308e-20)
(-0.0484311 0.0162918 0)
(-0.0552309 0.0122908 9.13061e-23)
(-0.0621095 0.00799394 -2.4571e-20)
(-0.0690125 0.0034531 2.32639e-20)
(-0.0758893 -0.00131136 1.09202e-20)
(-0.0826928 -0.00630532 1.03689e-20)
(-0.0893798 -0.0115543 -9.77996e-21)
(-0.0959104 -0.0170962 1.85557e-20)
(-0.102248 -0.0229745 -3.48516e-20)
(-0.108361 -0.0292317 -6.80032e-23)
(-0.114223 -0.0359045 -3.0997e-20)
(-0.11981 -0.0430207 2.92555e-20)
(-0.125111 -0.0505968 0)
(-0.130122 -0.0586389 0)
(-0.134852 -0.0671442 1.22768e-20)
(-0.139326 -0.0761053 0)
(-0.143589 -0.0855163 0)
(-0.147702 -0.0953809 0)
(-0.151749 -0.105722 -1.87332e-20)
(-0.155799 -0.116574 1.73331e-20)
(-0.000782887 0.0062974 1.02174e-20)
(-0.00276039 0.0159552 -4.8638e-23)
(-0.00576158 0.0231424 4.4619e-23)
(-0.00952715 0.0281272 -1.93953e-20)
(-0.0139264 0.0311735 -1.84779e-20)
(-0.0188807 0.032544 7.09993e-23)
(-0.024308 0.0324971 -3.36657e-20)
(-0.0301285 0.0312792 1.60562e-20)
(-0.0362686 0.0291165 -3.05368e-20)
(-0.0426602 0.0262087 2.90119e-20)
(-0.0492393 0.0227231 -1.37301e-20)
(-0.0559462 0.0187914 2.61568e-20)
(-0.0627249 0.0145086 2.4571e-20)
(-0.0695226 0.00993369 1.78803e-22)
(-0.0762902 0.00509351 -2.21841e-20)
(-0.0829813 -1.22493e-05 0)
(-0.0895527 -0.00540418 6.78785e-23)
(-0.0959644 -0.0111159 1.87162e-20)
(-0.10218 -0.0171869 -6.37918e-23)
(-0.108165 -0.0236557 -9.03537e-23)
(-0.113891 -0.0305548 3.11459e-20)
(-0.119335 -0.0379065 -2.92555e-20)
(-0.124479 -0.0457205 0)
(-0.129318 -0.0539934 2.6144e-20)
(-0.133857 -0.0627107 1.44576e-22)
(-0.13812 -0.0718505 -6.8881e-20)
(-0.142154 -0.0813912 2.14856e-20)
(-0.146028 -0.091324 4.05154e-20)
(-0.149831 -0.101663 1.87332e-20)
(-0.153637 -0.112421 1.76469e-20)
(-0.00102032 0.00694633 4.14045e-20)
(-0.00335876 0.0177239 -2.13579e-20)
(-0.00661295 0.0258802 2.0367e-20)
(-0.0105437 0.0316979 1.94318e-20)
(-0.015035 0.0354513 0)
(-0.0200204 0.0374121 -3.56519e-20)
(-0.0254285 0.0378481 -1.71034e-20)
(-0.0311891 0.0370151 -3.22706e-20)
(-0.0372369 0.0351484 1.52268e-20)
(-0.04351 0.0324568 2.08258e-22)
(-0.04995 0.0291163 2.77404e-20)
(-0.0565011 0.0252671 2.64327e-20)
(-0.0631102 0.021012 -4.96956e-20)
(-0.0697267 0.0164174 2.36953e-20)
(-0.0763026 0.0115166 -1.78893e-22)
(-0.0827922 0.00631494 0)
(-0.0891522 0.000796847 -1.98233e-20)
(-0.0953421 -0.00506716 -3.77724e-20)
(-0.101324 -0.0113129 5.34176e-20)
(-0.107062 -0.0179757 1.69147e-20)
(-0.112524 -0.0250844 0)
(-0.117683 -0.0326565 -2.98629e-20)
(-0.122518 -0.0406955 0)
(-0.127016 -0.0491889 -7.88826e-20)
(-0.131178 -0.0581096 4.93939e-20)
(-0.135024 -0.0674191 -1.24218e-22)
(-0.1386 -0.0770764 4.37583e-20)
(-0.141983 -0.0870549 -6.08945e-20)
(-0.145257 -0.0973524 3.84108e-20)
(-0.148515 -0.107957 1.78854e-20)
(-0.00128651 0.00756361 -2.07551e-20)
(-0.00402911 0.0194148 2.14152e-20)
(-0.00756116 0.0285094 -5.67902e-23)
(-0.0116672 0.0351412 -5.90345e-20)
(-0.0162482 0.0395923 0)
(-0.0212506 0.0421414 3.56519e-20)
(-0.0266152 0.0430638 -3.43594e-20)
(-0.0322823 0.042623 6.47643e-20)
(-0.0381952 0.0410624 0)
(-0.0442995 0.0385988 -2.92201e-20)
(-0.0505423 0.0354165 -2.77403e-20)
(-0.0568723 0.0316637 -2.63146e-20)
(-0.0632395 0.0274511 -7.53357e-20)
(-0.0695956 0.0228523 6.86053e-23)
(-0.0758935 0.017907 -1.14663e-22)
(-0.082088 0.0126267 -4.77246e-23)
(-0.0881356 0.0070005 6.0392e-20)
(-0.0939946 0.0010029 -3.39647e-22)
(-0.099625 -0.00539868 3.32307e-22)
(-0.104989 -0.0122369 -3.35078e-20)
(-0.11005 -0.0195378 -1.97505e-22)
(-0.114776 -0.0273158 5.991e-20)
(-0.119138 -0.0355686 -8.50486e-20)
(-0.123118 -0.0442755 2.64346e-20)
(-0.126706 -0.053396 0)
(-0.129916 -0.0628732 0)
(-0.132791 -0.0726421 -4.3758e-20)
(-0.135412 -0.0826515 4.15103e-20)
(-0.137853 -0.0928733 -3.84013e-20)
(-0.140229 -0.103259 0)
(-0.00157815 0.00814096 -2.10425e-20)
(-0.00476336 0.0210065 0)
(-0.00859493 0.0309982 2.06131e-20)
(-0.0128844 0.0384174 1.18717e-19)
(-0.0175511 0.0435509 -3.77451e-20)
(-0.0225557 0.0466819 0)
(-0.0278517 0.0480912 -2.48989e-22)
(-0.0333908 0.0480481 3.27127e-20)
(-0.0391256 0.0468026 -3.10626e-20)
(-0.0450094 0.0445785 0)
(-0.0509955 0.0415677 0)
(-0.0570371 0.0379258 -5.34325e-20)
(-0.0630877 0.0337711 7.55327e-20)
(-0.0691009 0.0291843 -2.38812e-20)
(-0.0750307 0.0242119 0)
(-0.0808321 0.0188711 4.28932e-20)
(-0.0864608 0.013156 -4.02297e-20)
(-0.0918736 0.0070447 3.82138e-20)
(-0.0970282 0.000507411 -7.20915e-20)
(-0.101883 -0.00648658 -1.0253e-19)
(-0.106397 -0.0139618 3.20212e-20)
(-0.110531 -0.0219304 3.03647e-20)
(-0.114249 -0.0303866 2.82931e-20)
(-0.117521 -0.039302 0)
(-0.120327 -0.0486234 -5.08195e-20)
(-0.122669 -0.0582734 0)
(-0.124584 -0.0681587 0)
(-0.126158 -0.0781942 -8.35152e-20)
(-0.127437 -0.0883122 -2.43989e-22)
(-0.128564 -0.0984141 -1.10337e-19)
(-0.0018913 0.00867065 2.10425e-20)
(-0.00555187 0.0224788 4.37196e-20)
(-0.00970094 0.0333166 4.185e-20)
(-0.0141797 0.0414885 -3.97074e-20)
(-0.0189269 0.047283 0)
(-0.0239181 0.050985 0)
(-0.0291202 0.0528783 3.44631e-20)
(-0.0344965 0.0532362 -3.29535e-20)
(-0.0400095 0.0523134 -1.42518e-22)
(-0.0456206 0.0503396 5.97465e-20)
(-0.0512893 0.0475131 0)
(-0.0569737 0.0439966 5.34322e-20)
(-0.0626306 0.0399154 0)
(-0.0682154 0.0353575 0)
(-0.0736833 0.0303759 1.26245e-22)
(-0.0789889 0.0249937 4.31414e-20)
(-0.0840868 0.0192096 -4.09205e-20)
(-0.0889316 0.0130055 7.73665e-20)
(-0.093478 0.0063538 -3.6544e-20)
(-0.09768 -0.000775065 1.02967e-19)
(-0.101491 -0.00840524 0)
(-0.104865 -0.0165482 0)
(-0.107755 -0.0251964 5.80338e-20)
(-0.110118 -0.0343161 0)
(-0.111922 -0.0438426 5.05801e-20)
(-0.113151 -0.0536774 -4.79704e-20)
(-0.113835 -0.0636943 4.50784e-20)
(-0.114057 -0.0737635 -4.24795e-20)
(-0.113828 -0.0837606 7.8898e-20)
(-0.113297 -0.0935148 1.10768e-19)
(-0.00222143 0.00914575 0)
(-0.00638361 0.0238133 -4.37196e-20)
(-0.0108641 0.0354366 3.23132e-22)
(-0.0155356 0.0443189 0)
(-0.020357 0.0507468 -7.68563e-20)
(-0.0253187 0.0550041 -5.51017e-23)
(-0.0304015 0.0573749 3.48182e-20)
(-0.0355804 0.0581341 0)
(-0.040828 0.0575397 3.14336e-20)
(-0.0461139 0.0558256 -5.97462e-20)
(-0.0514039 0.0531955 0)
(-0.0566611 0.0498184 0)
(-0.0618452 0.0458264 -5.13209e-20)
(-0.0669138 0.0413142 4.85186e-20)
(-0.0718222 0.0363415 -4.58309e-20)
(-0.0765247 0.030937 0)
(-0.0809741 0.0251044 -4.1499e-20)
(-0.0851223 0.0188291 -1.16736e-19)
(-0.08892 0.0120854 -1.22071e-22)
(-0.0923163 0.00484409 -1.1585e-22)
(-0.0952583 -0.00291959 3.27646e-20)
(-0.0976905 -0.0112185 6.19969e-20)
(-0.0995559 -0.0200452 -1.16277e-19)
(-0.100798 -0.029364 5.52127e-20)
(-0.101367 -0.0391007 -3.30345e-22)
(-0.101227 -0.0491374 -8.01333e-23)
(-0.100392 -0.0593114 -4.80666e-23)
(-0.0989455 -0.0694374 4.27173e-20)
(-0.096847 -0.0793125 0)
(-0.0942009 -0.0886654 0)
(-0.00256356 0.00956026 4.29843e-20)
(-0.00724644 0.0249937 2.25697e-22)
(-0.0120679 0.0373333 3.28263e-22)
(-0.0169331 0.0468764 -8.11104e-20)
(-0.0218213 0.0539038 7.70887e-20)
(-0.0267374 0.0586955 0)
(-0.0316757 0.061533 0)
(-0.0366231 0.0626908 6.68877e-20)
(-0.0415622 0.0624278 -6.35136e-20)
(-0.0464705 0.0609808 1.63579e-22)
(-0.0513204 0.0585578 1.14912e-19)
(-0.0560793 0.0553331 5.45233e-20)
(-0.0607102 0.0514451 -1.0331e-19)
(-0.065172 0.0469948 4.88967e-20)
(-0.0694203 0.0420485 4.64574e-20)
(-0.073408 0.0366408 -4.38515e-20)
(-0.0770856 0.0307802 8.27765e-20)
(-0.0804015 0.0244555 1.1833e-19)
(-0.0833018 0.0176427 7.47703e-20)
(-0.0857296 0.0103129 3.52887e-20)
(-0.0876246 0.00243928 -6.6147e-20)
(-0.0889221 -0.00599383 0)
(-0.0895533 -0.0149822 2.01702e-22)
(-0.0894469 -0.0244907 5.59796e-20)
(-0.0885336 -0.034441 5.22711e-20)
(-0.0867549 -0.0446983 -9.8577e-20)
(-0.0841024 -0.0550633 -4.60385e-20)
(-0.0806592 -0.065285 8.68459e-20)
(-0.0763296 -0.0750614 0)
(-0.0710458 -0.0839883 -7.60445e-20)
(-0.00291241 0.00990935 4.3293e-20)
(-0.00812748 0.0260065 -8.90397e-20)
(-0.013295 0.0389854 1.31903e-22)
(-0.0183524 0.0491325 -3.11048e-22)
(-0.0232989 0.0567195 0)
(-0.0281532 0.0620192 0)
(-0.0329224 0.0653081 0)
(-0.0376051 0.0668575 -6.73808e-20)
(-0.0421932 0.0669258 6.39817e-20)
(-0.0466722 0.0657508 -6.06386e-20)
(-0.0510205 0.0635434 -1.15462e-19)
(-0.0552098 0.0604825 -1.32832e-22)
(-0.0592057 0.0567116 1.04217e-19)
(-0.0629683 0.0523383 4.95271e-20)
(-0.0664526 0.047435 0)
(-0.0696097 0.0420421 -8.88945e-20)
(-0.0723868 0.0361731 1.26127e-19)
(-0.0747279 0.0298204 -1.18519e-19)
(-0.0765735 0.0229619 -7.48078e-20)
(-0.0778599 0.0155682 -2.1279e-19)
(-0.0785183 0.00761043 -2.57933e-22)
(-0.0784742 -0.000931683 -2.34673e-22)
(-0.0776465 -0.0100593 1.79577e-22)
(-0.0759486 -0.0197422 -1.11912e-19)
(-0.0732916 -0.0299028 1.58695e-19)
(-0.0695909 -0.0403961 -9.94357e-22)
(-0.0648091 -0.0509893 0)
(-0.0590335 -0.0613597 -8.68436e-20)
(-0.0521379 -0.0710939 8.20769e-20)
(-0.043601 -0.0796227 7.60018e-20)
(-0.00326255 0.0101895 0)
(-0.00901344 0.0268414 -4.49772e-20)
(-0.0145272 0.0403758 4.29698e-20)
(-0.019773 0.0510637 8.2039e-20)
(-0.0247682 0.0591639 3.92879e-20)
(-0.0295445 0.0649396 -7.47398e-20)
(-0.034121 0.0686593 -2.07308e-22)
(-0.0385066 0.0705893 -6.77665e-20)
(-0.0427025 0.0709848 0)
(-0.0467012 0.0700833 6.15222e-20)
(-0.0504868 0.0680971 0)
(-0.054035 0.0652086 0)
(-0.0573134 0.0615662 -1.04858e-19)
(-0.0602826 0.0572829 -9.93158e-20)
(-0.0628965 0.0524371 1.41597e-19)
(-0.0651033 0.0470754 8.88933e-20)
(-0.0668461 0.0412161 4.9427e-22)
(-0.0680635 0.0348557 -7.97738e-20)
(-0.068689 0.027974 1.51015e-19)
(-0.068651 0.0205415 -7.86282e-24)
(-0.0678715 0.0125269 1.35093e-19)
(-0.066265 0.00390459 0)
(-0.063738 -0.00533395 0)
(-0.0601886 -0.0151671 1.13691e-19)
(-0.0555092 -0.0255246 -1.59338e-19)
(-0.0495886 -0.036259 1.49664e-19)
(-0.0423522 -0.0471125 -9.44251e-20)
(-0.0338991 -0.0576969 8.85148e-20)
(-0.0241698 -0.0674801 -1.64895e-19)
(-0.0117017 -0.0755782 7.68481e-20)
(-0.00360858 0.0103985 -4.41901e-20)
(-0.00989106 0.0274912 0)
(-0.0157466 0.0414918 0)
(-0.0211742 0.0526512 -8.31043e-20)
(-0.0262078 0.0612126 1.58365e-19)
(-0.03089 0.0674263 -7.52925e-20)
(-0.0352506 0.0715509 -3.07224e-22)
(-0.0393081 0.073845 6.82552e-20)
(-0.0430715 0.0745591 0)
(-0.0465401 0.0739284 2.8099e-22)
(-0.0497027 0.0721656 1.30576e-22)
(-0.0525383 0.0694551 -1.11331e-19)
(-0.0550161 0.0659492 -6.2446e-22)
(-0.0570963 0.0617663 -5.01522e-20)
(-0.0587309 0.0569903 -1.4243e-19)
(-0.0598644 0.0516735 9.00721e-20)
(-0.0604347 0.0458399 -8.49558e-20)
(-0.0603733 0.0394897 1.61567e-19)
(-0.0596058 0.0326057 -1.52501e-19)
(-0.0580511 0.0251587 -1.44028e-19)
(-0.0556207 0.0171151 4.24813e-22)
(-0.0522176 0.00844415 -6.40936e-20)
(-0.0477351 -0.000871188 6.06979e-20)
(-0.042057 -0.0108208 1.16988e-21)
(-0.0350582 -0.0213473 -1.61597e-19)
(-0.0266027 -0.032311 -1.01463e-19)
(-0.0165746 -0.0434432 1.89649e-19)
(-0.00507237 -0.0543202 -1.77754e-19)
(0.00778141 -0.0642957 8.28176e-20)
(0.0245456 -0.0715066 -4.79985e-22)
(-0.00394533 0.0105358 1.32952e-19)
(-0.0107475 0.0279526 -4.5637e-20)
(-0.0169358 0.0423257 -8.73659e-20)
(-0.0225361 0.0538823 2.50202e-19)
(-0.0275964 0.0628469 5.76814e-22)
(-0.0321685 0.0694549 0)
(-0.0362908 0.0739524 0)
(-0.03999 0.0765885 6.88346e-20)
(-0.0432821 0.0776073 -6.51984e-20)
(-0.0461716 0.0772401 6.21092e-20)
(-0.0486515 0.0756982 -5.91113e-20)
(-0.0507034 0.0731674 -1.126e-19)
(-0.052297 0.0698028 2.12325e-19)
(-0.0533915 0.0657271 -5.03413e-20)
(-0.0539359 0.0610298 9.50954e-20)
(-0.0538701 0.0557689 -1.81086e-19)
(-0.0531252 0.0499735 -3.46457e-22)
(-0.0516248 0.0436489 1.22322e-22)
(-0.0492846 0.0367807 1.53399e-19)
(-0.0460124 0.0293413 -1.08612e-22)
(-0.041708 0.0212957 0)
(-0.0362615 0.0126087 0)
(-0.0295526 0.0032551 -6.14156e-20)
(-0.0214513 -0.00676792 -2.2977e-19)
(-0.0118175 -0.0174194 1.62035e-19)
(-0.000495409 -0.0285774 -7.92111e-22)
(0.0126606 -0.0399822 -1.91173e-19)
(0.0275695 -0.051209 1.78746e-19)
(0.0441929 -0.0614185 -8.3824e-20)
(0.0651875 -0.067802 7.76649e-20)
(-0.00426801 0.0106022 0)
(-0.0115707 0.0282256 0)
(-0.0180782 0.0428748 8.83105e-20)
(-0.0238394 0.0547499 -1.67781e-19)
(-0.0289138 0.0640544 2.54803e-22)
(-0.0333594 0.0710068 -7.64534e-20)
(-0.0372215 0.0758392 2.18575e-19)
(-0.0405331 0.0787894 -2.07993e-19)
(-0.0433156 0.0800932 1.31729e-23)
(-0.045578 0.0799766 -6.2525e-20)
(-0.0473162 0.0786485 -1.78741e-19)
(-0.0485131 0.0762943 1.68803e-19)
(-0.0491385 0.0730714 0)
(-0.0491494 0.0691061 0)
(-0.0484909 0.0644927 9.58863e-20)
(-0.0470969 0.0592946 1.82738e-19)
(-0.0448906 0.0535467 -8.61304e-20)
(-0.0417859 0.047259 0)
(-0.037687 0.0404213 -7.74593e-20)
(-0.0324892 0.0330084 -3.37252e-22)
(-0.0260787 0.0249856 -6.96616e-20)
(-0.0183313 0.0163146 0)
(-0.0091127 0.00696353 -6.24904e-20)
(0.00172118 -0.00308226 5.78768e-20)
(0.0143234 -0.0138002 -1.09296e-19)
(0.0288636 -0.0250928 3.07422e-19)
(0.0455046 -0.0367278 -2.96272e-22)
(0.0641776 -0.0482941 9.0429e-20)
(0.0849569 -0.0587835 0)
(0.110863 -0.0648007 -7.89926e-20)
(-0.0045724 0.0106 -9.01775e-20)
(-0.0123498 0.0283141 9.27052e-20)
(-0.0191587 0.0431415 3.47673e-22)
(-0.0250666 0.0552528 -8.46097e-20)
(-0.0301407 0.064829 0)
(-0.0344428 0.0720704 -1.54171e-19)
(-0.0380227 0.0771934 2.12398e-22)
(-0.0409177 0.0804233 6.93042e-20)
(-0.043153 0.0819863 -1.47601e-23)
(-0.0447404 0.0821017 -1.108e-22)
(-0.0456778 0.0809745 1.78987e-19)
(-0.0459484 0.0787891 5.68368e-20)
(-0.0455207 0.0757036 5.42328e-20)
(-0.0443487 0.0718474 -1.02289e-19)
(-0.0423723 0.067319 9.6625e-20)
(-0.0395181 0.0621869 -9.14184e-20)
(-0.0357002 0.0564917 8.70193e-20)
(-0.0308212 0.0502487 -8.20166e-20)
(-0.0247722 0.0434524 0)
(-0.0174339 0.0360812 -7.37789e-20)
(-0.00867727 0.028102 1.38875e-19)
(0.00163698 0.0194763 6.61498e-20)
(0.0136587 0.0101684 -6.27841e-20)
(0.0275454 0.000154071 2.33758e-19)
(0.0434612 -0.0105611 -5.4853e-20)
(0.0615839 -0.0219069 1.03535e-19)
(0.0820885 -0.0336916 -9.68217e-20)
(0.104908 -0.0455384 2.91976e-22)
(0.130102 -0.0563653 0)
(0.161603 -0.0621405 -1.57193e-19)
(-0.00485501 0.0105329 -3.27482e-22)
(-0.0130755 0.0282252 -9.34042e-20)
(-0.0201641 0.043133 0)
(-0.0262015 0.0553959 -8.5517e-20)
(-0.0312591 0.0651714 8.13067e-20)
(-0.0353996 0.0726407 -2.3476e-22)
(-0.0386745 0.078004 0)
(-0.0411234 0.0814729 -2.62261e-22)
(-0.0427735 0.0832627 -6.65745e-20)
(-0.0436377 0.0835853 6.33144e-20)
(-0.0437146 0.0826406 0)
(-0.0429863 0.0806106 -1.14335e-19)
(-0.0414191 0.0776536 1.08781e-19)
(-0.0389625 0.0739008 0)
(-0.0355502 0.0694544 0)
(-0.0311002 0.0643878 0)
(-0.025516 0.0587467 0)
(-0.0186872 0.0525523 8.28353e-20)
(-0.0104905 0.0458045 -7.80185e-20)
(-0.000790645 0.0384864 2.21598e-19)
(0.0105588 0.030568 -1.39753e-19)
(0.0237137 0.022014 -1.31915e-19)
(0.0388392 0.0127871 1.86316e-19)
(0.0561059 0.00285849 5.81797e-22)
(0.0756867 -0.00777834 -1.10704e-19)
(0.097761 -0.0190787 -1.0353e-19)
(0.122509 -0.0308953 -9.75051e-20)
(0.149867 -0.0429173 1.824e-19)
(0.179704 -0.0541174 -1.70076e-19)
(0.217402 -0.0596354 3.14465e-19)
(-0.00511317 0.0104057 1.83039e-19)
(-0.0137404 0.0279693 -3.24373e-22)
(-0.021083 0.0428612 -1.80096e-19)
(-0.02723 0.0551895 1.71608e-19)
(-0.0322526 0.0650884 -8.20867e-20)
(-0.0362113 0.0727199 -7.79747e-20)
(-0.0391568 0.0782672 7.41843e-20)
(-0.0411286 0.0819279 7.06163e-20)
(-0.0421538 0.083906 -1.34331e-19)
(-0.0422451 0.0844047 -1.91582e-19)
(-0.0413998 0.0836182 -6.06718e-20)
(-0.0395979 0.081725 2.29652e-19)
(-0.0368017 0.0788826 -3.2642e-19)
(-0.0329554 0.0752233 1.03091e-19)
(-0.0279847 0.0708523 0)
(-0.021798 0.0658472 0)
(-0.0142866 0.060259 0)
(-0.00532591 0.0541145 1.66468e-19)
(0.00522341 0.0474196 -7.83967e-20)
(0.017514 0.0401631 -7.44249e-20)
(0.0317102 0.032321 -1.40409e-19)
(0.0479857 0.0238617 1.3258e-19)
(0.0665209 0.0147513 -6.24128e-20)
(0.087498 0.00496142 -1.1766e-19)
(0.111095 -0.00552031 -7.52059e-23)
(0.137485 -0.0166673 -2.08554e-19)
(0.166842 -0.0283719 2.9276e-19)
(0.199115 -0.0404049 -2.73816e-19)
(0.233781 -0.0519498 8.55109e-20)
(0.278228 -0.0571519 -7.80681e-20)
(-0.00534501 0.0102245 -9.18536e-20)
(-0.0143387 0.0275595 9.44174e-20)
(-0.0219066 0.0423419 9.0203e-20)
(-0.0281398 0.0546494 -2.5912e-19)
(-0.0331058 0.0645932 8.20759e-20)
(-0.0368595 0.0723166 7.84322e-20)
(-0.0394483 0.0779864 0)
(-0.0409092 0.0817859 0)
(-0.041267 0.0839077 6.72771e-20)
(-0.0405324 0.0845456 1.27802e-19)
(-0.0386997 0.0838873 -2.43685e-19)
(-0.0357451 0.0821073 -3.79051e-22)
(-0.0316258 0.0793612 0)
(-0.0262788 0.0757819 0)
(-0.0196209 0.0714766 -9.84469e-20)
(-0.011549 0.0665268 -3.35134e-22)
(-0.00194098 0.0609883 8.79602e-20)
(0.00934322 0.054894 -8.32291e-20)
(0.0224601 0.0482561 -1.58055e-19)
(0.0375805 0.0410701 1.48887e-19)
(0.0548871 0.0333191 7.06301e-20)
(0.0745708 0.0249781 -1.99662e-19)
(0.0968257 0.0160198 -1.25748e-19)
(0.121843 0.00642103 1.1772e-19)
(0.1498 -0.00382885 1.11125e-19)
(0.180853 -0.0147112 1.04346e-19)
(0.215151 -0.0261458 0)
(0.252682 -0.0379716 0)
(0.292282 -0.0497585 1.70425e-19)
(0.343951 -0.0545291 0)
(-0.00554974 0.00999604 9.31404e-20)
(-0.0148668 0.027011 -9.53748e-20)
(-0.0226279 0.0415947 1.82514e-19)
(-0.0289205 0.0537957 -5.46625e-22)
(-0.0338042 0.0637042 0)
(-0.0373258 0.0714461 0)
(-0.0395262 0.0771723 0)
(-0.0404377 0.0810524 -7.141e-20)
(-0.0400808 0.0832676 6.78069e-20)
(-0.038462 0.0840024 0)
(-0.0355708 0.0834375 1.21936e-19)
(-0.0313782 0.0817427 1.15805e-19)
(-0.0258342 0.0790711 -1.10387e-19)
(-0.0188672 0.0755553 1.0404e-19)
(-0.0103834 0.0713043 -1.92763e-23)
(-0.000266945 0.0664028 -9.32914e-20)
(0.0116191 0.0609114 -8.85915e-20)
(0.0254314 0.0548689 2.51498e-19)
(0.0413444 0.0482944 7.90614e-20)
(0.0595472 0.041191 -1.4983e-19)
(0.0802401 0.03355 -7.08309e-20)
(0.103629 0.0253556 6.6274e-20)
(0.129918 0.0165899 0)
(0.159301 0.00723886 -1.18602e-19)
(0.191946 -0.00269957 -1.11515e-19)
(0.22798 -0.0132044 0)
(0.267494 -0.0242087 9.78087e-20)
(0.31056 -0.0355707 -1.83235e-19)
(0.35509 -0.0474337 -2.55851e-19)
(0.414298 -0.051582 0)
(-0.00572744 0.00972766 -1.86594e-19)
(-0.0153229 0.0263407 9.63198e-20)
(-0.023242 0.0406414 -1.83367e-19)
(-0.029563 0.0526524 -5.33716e-22)
(-0.034334 0.062445 0)
(-0.0375905 0.0701294 0)
(-0.0393647 0.0758424 7.57053e-20)
(-0.0396818 0.0797409 1.43904e-19)
(-0.0385557 0.0819948 0)
(-0.0359866 0.0827798 0)
(-0.0319576 0.0822694 -2.45924e-19)
(-0.026432 0.0806283 1.16707e-19)
(-0.0193512 0.078007 -1.22851e-22)
(-0.010633 0.074537 0)
(-0.000171315 0.0703287 -3.20791e-22)
(0.0121639 0.0654696 9.36104e-20)
(0.0265257 0.0600254 -1.98743e-22)
(0.0430882 0.0540406 -3.3536e-19)
(0.0620437 0.0475417 -7.92036e-20)
(0.0835989 0.0405406 1.49825e-19)
(0.107969 0.0330381 1.41939e-19)
(0.135371 0.0250291 1.43253e-22)
(0.166012 0.0165075 1.2607e-19)
(0.200077 0.007472 2.37269e-19)
(0.237711 -0.00206629 1.11509e-19)
(0.278994 -0.0120758 1.04594e-19)
(0.323919 -0.0224939 9.77161e-20)
(0.372683 -0.0331176 1.82347e-19)
(0.421999 -0.0448474 -1.19294e-21)
(0.488804 -0.0481095 7.64561e-20)
(-0.005879 0.00942692 1.88391e-19)
(-0.0157069 0.0255664 -2.89909e-19)
(-0.0237456 0.0395059 1.84507e-19)
(-0.0300591 0.0512463 1.75985e-19)
(-0.0346806 0.060843 8.38261e-20)
(-0.0376318 0.0683931 -3.14337e-23)
(-0.038934 0.0740211 -7.55217e-20)
(-0.0386027 0.0778725 -1.43903e-19)
(-0.0366431 0.0801074 2.90375e-22)
(-0.0330472 0.0808928 2.60043e-19)
(-0.0277892 0.0803954 -1.2377e-19)
(-0.0208228 0.0787748 2.34086e-19)
(-0.0120786 0.0761785 1.85871e-22)
(-0.00146204 0.072737 -2.09842e-19)
(0.0111471 0.0685617 -2.47837e-22)
(0.0258948 0.0637431 0)
(0.0429509 0.0583515 4.44831e-19)
(0.0625074 0.052438 8.40773e-20)
(0.0847737 0.0460372 0)
(0.109972 0.0391704 7.526e-20)
(0.138327 0.0318493 -7.07889e-20)
(0.170058 0.0240811 2.6784e-19)
(0.205366 0.0158732 -3.78208e-19)
(0.24441 0.00723929 1.18486e-19)
(0.287291 -0.00179384 0)
(0.334017 -0.0111788 1.04247e-19)
(0.38443 -0.0208605 -1.95208e-19)
(0.438887 -0.0304745 1.81779e-19)
(0.492677 -0.0418415 -1.69178e-19)
(0.566757 -0.0439052 -1.55223e-19)
(-0.00600601 0.00910134 -1.89316e-19)
(-0.0160199 0.024706 -5.95302e-22)
(-0.0241364 0.0382129 -9.25355e-20)
(-0.0304007 0.049606 -8.82537e-20)
(-0.0348282 0.0589288 -1.68845e-19)
(-0.037425 0.0662681 8.02745e-20)
(-0.0381988 0.0717386 1.79844e-22)
(-0.0371535 0.0754764 -1.44982e-19)
(-0.0342836 0.0776329 -2.06121e-19)
(-0.0295703 0.0783676 -2.63919e-23)
(-0.0229768 0.0778407 1.233e-19)
(-0.014445 0.0762074 -2.34488e-19)
(-0.0038924 0.0736121 1.11062e-19)
(0.00879008 0.0701844 1.05358e-19)
(0.0237386 0.0660369 -2.46798e-22)
(0.0411161 0.0612632 9.41119e-20)
(0.0611103 0.0559387 -1.78063e-19)
(0.0839299 0.0501216 0)
(0.109799 0.0438554 -1.5929e-19)
(0.13895 0.0371716 1.50407e-19)
(0.171611 0.0300943 -1.41918e-19)
(0.207991 0.022644 -1.33818e-19)
(0.248266 0.0148429 0)
(0.292546 0.00672018 -3.55676e-19)
(0.340858 -0.00168139 1.0382e-22)
(0.39311 -0.0102967 -5.21198e-19)
(0.448934 -0.0190941 2.92807e-19)
(0.508836 -0.0274519 -3.62652e-19)
(0.566608 -0.0382269 1.69166e-19)
(0.647136 -0.0387748 -1.5299e-19)
(-0.00611051 0.00875801 9.49535e-20)
(-0.0162637 0.0237767 9.75208e-20)
(-0.0244122 0.0367869 9.36391e-20)
(-0.0305786 0.0477609 -2.93509e-22)
(-0.0347585 0.0567349 -2.74452e-22)
(-0.0369404 0.063789 0)
(-0.0371168 0.0690306 0)
(-0.0352776 0.0725887 0)
(-0.0314046 0.0746079 0)
(-0.0254659 0.0752414 0)
(-0.0174114 0.0746441 1.24023e-19)
(-0.00716877 0.072967 -1.17751e-19)
(0.0053601 0.0703523 1.11411e-19)
(0.0203008 0.0669291 2.20383e-22)
(0.0378069 0.0628114 -9.97319e-20)
(0.0580595 0.0580966 -1.69373e-22)
(0.0812631 0.052866 -1.786e-19)
(0.107641 0.0471854 1.6875e-19)
(0.137429 0.041108 1.59285e-19)
(0.170858 0.034677 -1.50632e-19)
(0.208149 0.0279292 2.83605e-19)
(0.249484 0.0208992 0)
(0.294986 0.0136237 -2.51765e-19)
(0.344689 0.00614662 1.92314e-22)
(0.398506 -0.00147575 4.37515e-22)
(0.456201 -0.00916209 1.10847e-21)
(0.517158 -0.0169273 -9.63071e-20)
(0.581952 -0.023832 1.80873e-19)
(0.643031 -0.0338016 1.67139e-19)
(0.728573 -0.0325669 7.88595e-20)
(-0.0061948 0.00840334 0)
(-0.0164404 0.0227945 9.83524e-20)
(-0.0245701 0.0352511 -9.34153e-20)
(-0.0305818 0.0457403 -2.02378e-22)
(-0.0344496 0.054295 1.70502e-19)
(-0.0361428 0.0609928 -8.11403e-20)
(-0.0356372 0.065937 0)
(-0.0329071 0.0692521 0)
(-0.0279191 0.0710779 -1.38772e-19)
(-0.0206262 0.0715628 1.31646e-19)
(-0.0109622 0.0708578 1.24896e-19)
(0.00116175 0.069111 0)
(0.0158615 0.0664628 1.11897e-19)
(0.0332811 0.063043 0)
(0.0535928 0.0589676 -1.99985e-19)
(0.076995 0.0543388 2.83568e-19)
(0.103708 0.0492442 2.68105e-19)
(0.133964 0.0437586 -8.42401e-20)
(0.168001 0.0379456 2.01399e-22)
(0.20604 0.0318603 -2.25504e-19)
(0.248271 0.0255527 0)
(0.294825 0.0190708 0)
(0.345743 0.0124645 1.25781e-19)
(0.400941 0.00578847 2.36173e-19)
(0.460174 -0.000892406 1.35152e-22)
(0.523014 -0.00748723 2.0742e-19)
(0.588579 -0.0140738 1.93532e-19)
(0.657342 -0.0194085 0)
(0.720897 -0.0283831 -1.67128e-19)
(0.809364 -0.0252118 2.28463e-19)
(-0.00626105 0.00804275 9.66971e-20)
(-0.0165512 0.0217735 0)
(-0.0246056 0.033627 2.15937e-22)
(-0.0303962 0.0435717 -9.00908e-20)
(-0.0338743 0.0516426 8.59456e-20)
(-0.0349896 0.0579183 8.14509e-20)
(-0.0336995 0.0625016 -1.1075e-22)
(-0.0299613 0.0655154 7.37706e-20)
(-0.0237243 0.0670967 0)
(-0.0149237 0.0673914 -2.64389e-19)
(-0.00347554 0.0665481 2.58615e-22)
(0.0107285 0.0647132 0)
(0.0278238 0.0620271 1.12334e-19)
(0.0479739 0.0586206 -3.17992e-19)
(0.0713697 0.0546137 1.00125e-19)
(0.0982253 0.0501137 -9.47288e-20)
(0.128771 0.045216 -1.78804e-19)
(0.163242 0.0400047 -2.53214e-19)
(0.201862 0.0345544 0)
(0.244825 0.0289321 0)
(0.292265 0.0231998 1.41514e-19)
(0.344228 0.0174166 1.33372e-19)
(0.400632 0.0116412 -1.25292e-19)
(0.461231 0.00593353 0)
(0.525574 0.000358355 0)
(0.592991 -0.00499818 0)
(0.662354 -0.0102693 1.91026e-19)
(0.733786 -0.0140321 -8.85027e-20)
(0.798865 -0.0218427 1.65865e-19)
(0.887538 -0.0167533 1.48816e-19)
(-0.006311 0.00768043 -1.93626e-19)
(-0.0165959 0.0207249 9.96456e-20)
(-0.0245113 0.0319331 -9.52946e-20)
(-0.0300028 0.0412807 9.08039e-20)
(-0.0329992 0.0488101 -8.59455e-20)
(-0.0334297 0.0546048 8.18586e-20)
(-0.0312325 0.0587708 -7.78785e-20)
(-0.0263462 0.061432 -1.47315e-19)
(-0.0187009 0.0627257 1.40255e-19)
(-0.00821225 0.0627971 2.65173e-19)
(0.00522433 0.0617943 1.25462e-19)
(0.021738 0.0598639 -1.18807e-19)
(0.041485 0.0571475 2.69482e-22)
(0.0646486 0.0537791 -1.2199e-22)
(0.0914364 0.0498831 1.00298e-19)
(0.122073 0.0455735 0)
(0.156792 0.0409541 1.78879e-19)
(0.195816 0.0361187 4.22218e-19)
(0.239338 0.0311525 -7.95798e-20)
(0.287496 0.0261328 0)
(0.340336 0.0211309 -2.82764e-19)
(0.397777 0.0162123 -1.32828e-19)
(0.45957 0.0114379 -1.24867e-19)
(0.525257 0.00686321 1.17234e-19)
(0.594141 0.00254224 -1.09342e-19)
(0.665265 -0.00146645 1.02547e-19)
(0.73731 -0.00530942 -1.54072e-21)
(0.80977 -0.00764474 1.75337e-19)
(0.875357 -0.0141059 -1.64157e-19)
(0.960933 -0.00733706 -2.95854e-19)
(-0.00634562 0.00731917 9.78928e-20)
(-0.0165722 0.0196573 1.00115e-19)
(-0.0242761 0.0301844 -3.52034e-22)
(-0.0293776 0.0388899 5.28438e-22)
(-0.0317836 0.0458279 0)
(-0.0314027 0.0510912 -3.04425e-22)
(-0.0281534 0.0547924 -2.35041e-19)
(-0.0219539 0.0570595 0)
(-0.0127138 0.0580326 -1.40679e-19)
(-0.000327141 0.0578588 -5.32343e-19)
(0.0153329 0.0566877 1.26031e-19)
(0.0344175 0.0546682 -1.19265e-19)
(0.0571037 0.0519449 -2.24981e-19)
(0.0835928 0.0486561 2.12861e-19)
(0.114104 0.0449324 0)
(0.148866 0.0408952 9.48702e-20)
(0.188099 0.0366571 -2.68525e-19)
(0.231995 0.0323209 -8.43918e-20)
(0.280692 0.0279808 -2.38666e-19)
(0.334237 0.0237213 0)
(0.392546 0.0196175 2.82206e-19)
(0.455367 0.0157338 1.32821e-19)
(0.522236 0.0121234 0)
(0.592439 0.00882548 1.16298e-19)
(0.665005 0.00587082 0)
(0.738669 0.00326414 -1.01096e-19)
(0.811987 0.000912699 -2.82444e-19)
(0.883625 -0.000290779 -3.48876e-19)
(0.948636 -0.00508332 -1.60203e-19)
(1.02724 0.00282697 -1.08437e-21)
(-0.00636468 0.00696026 -9.78928e-20)
(-0.0164746 0.0185757 4.02361e-22)
(-0.0238837 0.0283922 9.62357e-20)
(-0.0284897 0.0364181 -9.13322e-20)
(-0.0301784 0.0427238 -8.70437e-20)
(-0.0288384 0.0474154 1.65145e-19)
(-0.0243677 0.0506151 7.8687e-20)
(-0.0166635 0.0524584 1.4919e-19)
(-0.00561335 0.0530908 1.40841e-19)
(0.00891167 0.0526637 1.3373e-19)
(0.0270613 0.0513306 2.53054e-19)
(0.0490087 0.0492447 -3.55433e-22)
(0.0749499 0.0465555 0)
(0.105099 0.0434074 -1.06466e-19)
(0.13968 0.0399378 -9.16107e-23)
(0.17891 0.0362762 8.42269e-23)
(0.22298 0.032543 2.68578e-19)
(0.272024 0.0288487 0)
(0.326089 0.0252925 1.59109e-19)
(0.385091 0.0219605 0)
(0.448774 0.0189236 -3.27332e-22)
(0.516666 0.0162349 -1.32094e-19)
(0.588043 0.0139271 2.47846e-19)
(0.661909 0.0120088 -1.16836e-19)
(0.737008 0.0104746 -2.15712e-19)
(0.811798 0.00925627 1.00383e-19)
(0.884758 0.00836789 3.74459e-19)
(0.953751 0.00791358 8.66063e-20)
(1.01697 0.00540217 3.96406e-19)
(1.0842 0.0132184 7.2747e-20)
(-0.00636653 0.00660351 9.877e-20)
(-0.0162936 0.0174821 -2.02673e-19)
(-0.0233124 0.0265639 0)
(-0.0273011 0.0338805 0)
(-0.0281261 0.0395227 8.75382e-20)
(-0.0256565 0.0436132 -3.40076e-22)
(-0.01977 0.0462874 -1.57566e-19)
(-0.0103422 0.047691 -1.49509e-19)
(0.00276244 0.0479775 3.93149e-22)
(0.0196959 0.0473051 4.51203e-22)