/*--------------------------------*- C++ -*----------------------------------*\
  =========                 |
  \\      /  F ield         | OpenFOAM: The Open Source CFD Toolbox
   \\    /   O peration     | Website:  https://openfoam.org
    \\  /    A nd           | Version:  7
     \\/     M anipulation  |
\*---------------------------------------------------------------------------*/
FoamFile
{
    version     2.0;
    format      ascii;
    class       volScalarField;
    location    "5";
    object      p;
}
// * * * * * * * * * * * * * * * * * * * * * * * * * * * * * * * * * * * * * //

dimensions      [0 2 -2 0 0 0 0];

internalField   nonuniform List<scalar> 
8820
(
-0.327445
-0.33219
-0.335061
-0.337437
-0.339976
-0.342866
-0.34624
-0.350172
-0.354675
-0.359722
-0.365262
-0.371217
-0.377491
-0.383963
-0.390493
-0.396928
-0.403115
-0.408826
-0.413616
-0.417363
-0.421914
-0.328477
-0.333056
-0.335848
-0.338181
-0.34069
-0.343561
-0.346925
-0.350854
-0.35536
-0.360419
-0.365979
-0.371962
-0.378274
-0.384795
-0.391384
-0.397888
-0.404154
-0.409959
-0.414856
-0.418674
-0.423264
-0.330477
-0.334734
-0.337371
-0.339617
-0.342066
-0.344897
-0.348237
-0.352155
-0.356665
-0.361741
-0.367332
-0.373365
-0.379743
-0.38635
-0.393046
-0.399674
-0.406081
-0.412055
-0.417149
-0.421101
-0.425751
-0.333323
-0.337119
-0.339532
-0.341648
-0.344005
-0.346771
-0.350067
-0.353961
-0.358463
-0.363551
-0.369174
-0.37526
-0.381715
-0.388426
-0.395251
-0.402035
-0.408619
-0.414804
-0.420157
-0.424292
-0.428981
-0.336848
-0.34007
-0.342196
-0.344142
-0.346371
-0.349042
-0.352268
-0.356113
-0.360586
-0.365665
-0.371302
-0.377426
-0.383946
-0.390751
-0.397702
-0.404641
-0.411404
-0.417808
-0.423445
-0.427796
-0.43244
-0.340854
-0.343421
-0.345211
-0.346945
-0.349009
-0.351548
-0.354669
-0.358427
-0.362835
-0.367868
-0.373482
-0.379607
-0.386156
-0.393019
-0.400062
-0.407125
-0.41404
-0.420632
-0.426547
-0.431141
-0.43557
-0.34513
-0.346997
-0.348414
-0.3499
-0.351759
-0.354123
-0.357092
-0.360716
-0.365006
-0.369941
-0.375475
-0.381544
-0.388062
-0.394924
-0.401998
-0.409127
-0.416137
-0.422857
-0.429008
-0.433897
-0.437867
-0.34947
-0.350632
-0.351653
-0.35286
-0.354471
-0.356613
-0.359374
-0.362803
-0.366911
-0.371677
-0.37706
-0.382997
-0.389407
-0.396187
-0.403212
-0.410329
-0.417361
-0.424133
-0.430445
-0.435695
-0.439078
-0.353691
-0.354179
-0.354799
-0.355698
-0.357023
-0.358889
-0.36138
-0.364544
-0.368393
-0.37291
-0.378057
-0.383776
-0.389987
-0.396595
-0.403478
-0.41049
-0.417459
-0.424207
-0.430549
-0.435898
-0.439698
-0.357645
-0.357519
-0.357749
-0.358324
-0.359324
-0.360861
-0.363017
-0.365841
-0.369348
-0.373529
-0.378349
-0.383756
-0.389676
-0.396016
-0.402664
-0.409478
-0.416295
-0.422936
-0.42923
-0.434714
-0.438471
-0.361219
-0.360574
-0.36044
-0.36068
-0.361325
-0.362484
-0.36424
-0.366648
-0.369731
-0.373487
-0.377891
-0.382896
-0.388436
-0.394424
-0.400751
-0.407287
-0.413873
-0.420331
-0.426487
-0.432094
-0.435484
-0.364354
-0.363301
-0.362841
-0.362747
-0.363015
-0.363753
-0.365052
-0.366974
-0.369557
-0.372811
-0.376719
-0.381245
-0.386331
-0.391896
-0.39784
-0.404035
-0.410332
-0.416552
-0.422475
-0.428187
-0.430991
-0.367033
-0.365694
-0.364957
-0.364539
-0.364417
-0.364704
-0.3655
-0.366883
-0.368905
-0.371592
-0.374944
-0.378934
-0.383513
-0.388611
-0.394132
-0.399952
-0.405921
-0.411875
-0.417484
-0.423277
-0.425243
-0.369286
-0.367782
-0.36682
-0.366097
-0.365584
-0.365403
-0.365668
-0.366476
-0.367898
-0.36998
-0.372738
-0.37616
-0.380209
-0.384821
-0.389905
-0.395334
-0.400961
-0.406634
-0.411841
-0.417692
-0.418541
-0.371182
-0.369625
-0.368488
-0.367481
-0.366587
-0.365937
-0.365664
-0.365884
-0.366694
-0.368159
-0.370315
-0.373166
-0.376685
-0.380814
-0.385462
-0.39051
-0.39578
-0.401154
-0.405865
-0.411718
-0.411232
-0.372825
-0.371305
-0.370037
-0.368771
-0.367513
-0.366408
-0.365609
-0.365254
-0.365464
-0.366328
-0.367901
-0.370202
-0.373213
-0.376881
-0.381112
-0.385772
-0.390658
-0.395684
-0.399805
-0.40552
-0.403674
-0.374345
-0.372924
-0.371557
-0.370056
-0.368458
-0.366925
-0.365629
-0.364734
-0.364382
-0.364685
-0.365716
-0.367505
-0.370042
-0.373269
-0.377084
-0.381331
-0.385776
-0.39035
-0.393803
-0.399129
-0.396154
-0.37589
-0.374596
-0.373149
-0.371433
-0.369521
-0.367596
-0.365848
-0.364463
-0.363605
-0.363403
-0.363944
-0.365267
-0.367358
-0.370152
-0.373522
-0.377288
-0.381184
-0.385123
-0.387849
-0.392438
-0.388771
-0.377617
-0.376444
-0.374919
-0.373001
-0.370804
-0.368527
-0.36638
-0.364567
-0.363266
-0.36262
-0.362724
-0.363617
-0.365275
-0.36761
-0.370467
-0.373625
-0.376797
-0.379823
-0.381715
-0.385106
-0.381228
-0.379678
-0.378584
-0.376969
-0.374857
-0.3724
-0.369813
-0.367321
-0.36514
-0.363459
-0.362426
-0.362135
-0.362613
-0.363819
-0.365633
-0.367861
-0.370237
-0.372452
-0.374219
-0.374998
-0.376395
-0.372601
-0.38221
-0.381126
-0.379394
-0.377087
-0.37439
-0.37153
-0.368742
-0.366247
-0.364238
-0.362858
-0.36219
-0.362242
-0.362943
-0.364136
-0.365584
-0.36698
-0.367997
-0.368234
-0.367494
-0.365809
-0.361935
-0.385327
-0.384162
-0.382275
-0.379764
-0.376836
-0.37373
-0.370683
-0.367916
-0.365612
-0.363903
-0.362849
-0.362432
-0.362542
-0.362983
-0.363484
-0.363714
-0.363342
-0.361961
-0.359513
-0.354926
-0.350009
-0.389108
-0.387764
-0.385672
-0.382938
-0.37978
-0.376443
-0.373159
-0.37014
-0.367554
-0.365507
-0.364031
-0.36307
-0.362477
-0.362022
-0.361415
-0.360328
-0.358457
-0.355465
-0.351251
-0.345184
-0.338361
-0.393609
-0.391979
-0.389627
-0.386644
-0.383244
-0.379675
-0.376161
-0.372892
-0.370012
-0.367594
-0.365631
-0.364028
-0.362602
-0.361107
-0.359255
-0.356756
-0.353365
-0.348828
-0.343139
-0.33578
-0.327649
-0.398856
-0.396836
-0.394168
-0.390901
-0.387238
-0.383425
-0.379669
-0.376133
-0.372924
-0.370076
-0.367536
-0.365172
-0.362779
-0.360112
-0.356918
-0.352969
-0.348102
-0.34217
-0.335228
-0.326912
-0.318102
-0.404857
-0.402352
-0.39931
-0.395721
-0.391767
-0.387687
-0.383663
-0.379823
-0.376229
-0.372865
-0.369636
-0.366378
-0.362885
-0.358939
-0.354348
-0.348967
-0.342722
-0.335559
-0.327585
-0.318546
-0.309224
-0.411605
-0.408531
-0.405064
-0.401115
-0.396837
-0.392457
-0.388127
-0.383927
-0.379864
-0.375873
-0.37182
-0.36753
-0.362816
-0.357517
-0.351519
-0.344768
-0.337268
-0.32904
-0.320214
-0.310608
-0.300951
-0.41909
-0.415376
-0.411438
-0.407093
-0.402457
-0.397739
-0.393047
-0.388406
-0.383766
-0.379011
-0.373986
-0.368525
-0.362492
-0.3558
-0.348425
-0.340393
-0.331772
-0.322628
-0.31309
-0.303033
-0.293073
-0.427298
-0.422886
-0.41844
-0.413668
-0.408638
-0.403532
-0.398406
-0.393218
-0.387862
-0.382184
-0.37603
-0.369273
-0.36185
-0.353762
-0.345069
-0.335862
-0.326247
-0.316314
-0.306173
-0.295736
-0.285511
-0.43621
-0.431053
-0.426071
-0.420847
-0.415386
-0.409829
-0.404172
-0.398303
-0.392065
-0.385291
-0.377854
-0.369698
-0.360846
-0.35139
-0.341457
-0.331183
-0.320691
-0.310073
-0.29941
-0.288644
-0.27816
-0.445803
-0.439865
-0.434328
-0.428629
-0.422692
-0.416605
-0.410292
-0.403578
-0.396272
-0.388223
-0.379365
-0.369733
-0.359447
-0.348673
-0.337591
-0.326355
-0.315087
-0.303866
-0.292744
-0.281683
-0.270953
-0.456039
-0.449295
-0.443191
-0.436994
-0.430526
-0.423807
-0.416687
-0.408937
-0.400364
-0.390869
-0.380477
-0.369327
-0.357627
-0.345605
-0.333465
-0.321363
-0.309404
-0.297647
-0.286116
-0.274788
-0.263818
-0.46686
-0.459297
-0.452621
-0.4459
-0.438828
-0.43135
-0.423242
-0.414249
-0.404211
-0.393118
-0.38111
-0.36843
-0.355363
-0.342171
-0.329062
-0.316179
-0.303601
-0.291365
-0.279465
-0.267892
-0.256697
-0.478186
-0.469803
-0.462553
-0.455272
-0.447507
-0.439114
-0.429815
-0.419363
-0.407674
-0.394862
-0.38119
-0.367
-0.352628
-0.338348
-0.324357
-0.310767
-0.297633
-0.284964
-0.272734
-0.260937
-0.249532
-0.489908
-0.480716
-0.472891
-0.465005
-0.456431
-0.446943
-0.436236
-0.424113
-0.410614
-0.395996
-0.38065
-0.364993
-0.34939
-0.334107
-0.319311
-0.305084
-0.291448
-0.278388
-0.265864
-0.253866
-0.242272
-0.501885
-0.491909
-0.483508
-0.474954
-0.465434
-0.454651
-0.442312
-0.428326
-0.41289
-0.396421
-0.379422
-0.362364
-0.345612
-0.329408
-0.313881
-0.299078
-0.284992
-0.271584
-0.258801
-0.246624
-0.23487
-0.513946
-0.503225
-0.494242
-0.484941
-0.474315
-0.462023
-0.447839
-0.431825
-0.414368
-0.396043
-0.377443
-0.359063
-0.34125
-0.324206
-0.308019
-0.292698
-0.278211
-0.264496
-0.251493
-0.239163
-0.227279
-0.525886
-0.514473
-0.504895
-0.494751
-0.482842
-0.468828
-0.452605
-0.434439
-0.414922
-0.394772
-0.374645
-0.355035
-0.336252
-0.318449
-0.301669
-0.28589
-0.271051
-0.257073
-0.243889
-0.231436
-0.219459
-0.537475
-0.52543
-0.51524
-0.504139
-0.490762
-0.474821
-0.456398
-0.436002
-0.414431
-0.392523
-0.370965
-0.350225
-0.330563
-0.312081
-0.294778
-0.278599
-0.263459
-0.249265
-0.235942
-0.2234
-0.211374
-0.548453
-0.535848
-0.52502
-0.512836
-0.497805
-0.479754
-0.459013
-0.436359
-0.412783
-0.389211
-0.366333
-0.344572
-0.324128
-0.305048
-0.287291
-0.270771
-0.255385
-0.241025
-0.227608
-0.215015
-0.202989
-0.55854
-0.545455
-0.533955
-0.520554
-0.503693
-0.483384
-0.460259
-0.435368
-0.409875
-0.384759
-0.360686
-0.338016
-0.316887
-0.297292
-0.279153
-0.262357
-0.24678
-0.232307
-0.218845
-0.206243
-0.194275
-0.567443
-0.553961
-0.541747
-0.526998
-0.508152
-0.48548
-0.459955
-0.432898
-0.405611
-0.379092
-0.353957
-0.330498
-0.308784
-0.28876
-0.270313
-0.253306
-0.237601
-0.22307
-0.209615
-0.197052
-0.185204
-0.574858
-0.561065
-0.548094
-0.531872
-0.510915
-0.485828
-0.457944
-0.428835
-0.399906
-0.372141
-0.346087
-0.32196
-0.299765
-0.279402
-0.260725
-0.243576
-0.227804
-0.213275
-0.19988
-0.187411
-0.175748
-0.580482
-0.566463
-0.552692
-0.534886
-0.511737
-0.484235
-0.454083
-0.423079
-0.392683
-0.363841
-0.337018
-0.312351
-0.289783
-0.269172
-0.250344
-0.233124
-0.217348
-0.202877
-0.189596
-0.177283
-0.165872
-0.584017
-0.569857
-0.555246
-0.535773
-0.510394
-0.480532
-0.448256
-0.415543
-0.383878
-0.354139
-0.326702
-0.301625
-0.278796
-0.258033
-0.239138
-0.221919
-0.206199
-0.191834
-0.178709
-0.166603
-0.1555
-0.585182
-0.570963
-0.555479
-0.534285
-0.506689
-0.47458
-0.440364
-0.406159
-0.373436
-0.342987
-0.315097
-0.289746
-0.26677
-0.245955
-0.227081
-0.20994
-0.194339
-0.180127
-0.167185
-0.15529
-0.144457
-0.583714
-0.569516
-0.55314
-0.530209
-0.500461
-0.466265
-0.430332
-0.394874
-0.361316
-0.330352
-0.302171
-0.276684
-0.253681
-0.232918
-0.214156
-0.197174
-0.181766
-0.16777
-0.155076
-0.143369
-0.132523
-0.579381
-0.56528
-0.548011
-0.523364
-0.491582
-0.455506
-0.41811
-0.381654
-0.347492
-0.316209
-0.287904
-0.262423
-0.239514
-0.218909
-0.200353
-0.183614
-0.168474
-0.15479
-0.142446
-0.131008
-0.119877
-0.571985
-0.558054
-0.539908
-0.513611
-0.47996
-0.442249
-0.403667
-0.366481
-0.331949
-0.300547
-0.272286
-0.246953
-0.224262
-0.203924
-0.185671
-0.169255
-0.154463
-0.141181
-0.129191
-0.117903
-0.107535
-0.561365
-0.547674
-0.528693
-0.50085
-0.465537
-0.426471
-0.386998
-0.349357
-0.314692
-0.283369
-0.255319
-0.23028
-0.207934
-0.187973
-0.17012
-0.154119
-0.139764
-0.126924
-0.115324
-0.10438
-0.0948503
-0.547403
-0.53402
-0.514267
-0.485024
-0.448296
-0.408177
-0.368119
-0.3303
-0.295739
-0.26469
-0.237019
-0.212419
-0.190547
-0.171075
-0.153719
-0.138221
-0.124378
-0.112042
-0.100908
-0.0904276
-0.0816544
-0.530027
-0.517018
-0.496582
-0.466117
-0.42825
-0.387397
-0.347067
-0.309343
-0.275116
-0.244546
-0.217422
-0.193406
-0.172128
-0.153255
-0.136493
-0.121584
-0.108325
-0.0965613
-0.0859632
-0.0759982
-0.0679461
-0.509208
-0.496639
-0.47563
-0.444154
-0.405449
-0.364195
-0.323903
-0.28654
-0.252869
-0.222993
-0.196574
-0.173276
-0.152715
-0.134549
-0.118478
-0.104241
-0.0916375
-0.0805128
-0.0705067
-0.0610912
-0.05377
-0.484966
-0.4729
-0.451449
-0.419199
-0.379976
-0.338655
-0.298705
-0.261971
-0.229097
-0.200062
-0.174521
-0.152082
-0.13236
-0.115006
-0.0997175
-0.0862322
-0.0743552
-0.0639296
-0.0545629
-0.0457306
-0.0391697
-0.457366
-0.445863
-0.424122
-0.391359
-0.351949
-0.310884
-0.271571
-0.235725
-0.203855
-0.175847
-0.151332
-0.129889
-0.111123
-0.0946843
-0.080267
-0.0676106
-0.0565258
-0.0468536
-0.0381683
-0.0299541
-0.0241837
-0.426515
-0.415634
-0.393774
-0.360782
-0.321499
-0.28099
-0.242621
-0.207907
-0.17724
-0.150436
-0.127092
-0.106773
-0.0890756
-0.0736502
-0.0601904
-0.0484371
-0.038207
-0.0293389
-0.0213749
-0.0138086
-0.00883218
-0.392554
-0.382365
-0.360579
-0.327631
-0.288732
-0.249144
-0.211994
-0.17864
-0.149367
-0.123929
-0.101895
-0.0828197
-0.0662986
-0.0519806
-0.0395602
-0.0287814
-0.0194677
-0.0114549
-0.00425249
0.00264626
0.0068617
-0.355651
-0.346258
-0.324738
-0.292004
-0.253872
-0.215529
-0.179846
-0.148062
-0.120361
-0.0964383
-0.0758444
-0.058127
-0.0428819
-0.0297593
-0.0184558
-0.00871988
-0.000382854
0.00672369
0.0131267
0.0193409
0.022795
-0.316011
-0.307557
-0.286393
-0.254115
-0.217188
-0.180329
-0.146346
-0.116327
-0.090357
-0.0680883
-0.0490539
-0.0327995
-0.0189229
-0.00707717
0.00303787
0.0116675
0.0189742
0.0251372
0.0307176
0.036206
0.0387495
-0.273841
-0.266551
-0.24565
-0.214421
-0.178872
-0.143747
-0.111676
-0.0835961
-0.0595034
-0.0390125
-0.0216459
-0.00694983
0.00547372
0.0159678
0.024828
0.032294
0.0385301
0.0437384
0.0484922
0.0531732
0.0546096
-0.229401
-0.223385
-0.203165
-0.173077
-0.139159
-0.106
-0.0760305
-0.0500427
-0.0279554
-0.00935227
0.00625035
0.0193027
0.0301969
0.0392703
0.0468125
0.0530595
0.0581904
0.0624391
0.0663448
0.0701303
0.07069
-0.183332
-0.178284
-0.159066
-0.130347
-0.0982969
-0.0673101
-0.0396089
-0.0158474
0.00412358
0.0207442
0.0344997
0.0458342
0.055132
0.062722
0.0688849
0.0738546
0.0778307
0.0810676
0.0840189
0.0868393
0.0872161
-0.135744
-0.131676
-0.113635
-0.0865146
-0.0565484
-0.027913
-0.00262121
0.0188015
0.0365639
0.0511232
0.0629628
0.0725181
0.0801634
0.0862164
0.0909462
0.0945827
0.0973384
0.0994493
0.101224
0.102883
0.102999
-0.0869329
-0.083939
-0.0671992
-0.0418786
-0.0141838
0.0119497
0.0347163
0.0537101
0.0691906
0.0816267
0.0914967
0.0992254
0.105175
0.109651
0.112909
0.115174
0.11666
0.11754
0.117857
0.117675
0.117948
-0.0372686
-0.0354184
-0.020097
0.00325316
0.0285201
0.0520307
0.0721825
0.0886797
0.101825
0.112093
0.119956
0.125825
0.130049
0.132921
0.134685
0.13556
0.135744
0.135349
0.134338
0.132949
0.132497
0.0128761
0.0135348
0.02733
0.0485678
0.0712824
0.092079
0.109553
0.123509
0.134284
0.142359
0.148192
0.152183
0.154667
0.155922
0.156182
0.155653
0.154512
0.152822
0.150557
0.148117
0.146735
0.0631275
0.062562
0.0747386
0.0937507
0.113821
0.131843
0.146601
0.157994
0.166386
0.172258
0.176056
0.178167
0.178909
0.178549
0.177307
0.17538
0.17292
0.169969
0.166531
0.163079
0.160704
0.113111
0.111302
0.121786
0.138489
0.155854
0.171069
0.183102
0.191931
0.197947
0.201624
0.203398
0.203639
0.202653
0.20069
0.197962
0.19465
0.190889
0.18671
0.182144
0.1777
0.174335
0.162454
0.159394
0.168133
0.182472
0.197104
0.20951
0.218831
0.225119
0.228783
0.230293
0.230069
0.228466
0.225776
0.222238
0.218049
0.213378
0.208346
0.202977
0.197323
0.191905
0.187552
0.210788
0.206483
0.213446
0.225396
0.237298
0.24692
0.253567
0.257358
0.258715
0.2581
0.255919
0.252513
0.248158
0.243081
0.237467
0.231473
0.225207
0.21869
0.211988
0.205618
0.200285
0.257754
0.252219
0.257398
0.266964
0.276167
0.283059
0.287095
0.288453
0.287566
0.284885
0.280804
0.275647
0.269679
0.26311
0.256117
0.248845
0.24139
0.233769
0.226061
0.218765
0.212468
0.303001
0.296265
0.299674
0.30689
0.313456
0.317695
0.319205
0.318214
0.315162
0.310492
0.304581
0.29774
0.29022
0.282219
0.273903
0.265404
0.25681
0.248138
0.23947
0.231278
0.224039
0.346192
0.338295
0.339971
0.344899
0.348916
0.350606
0.349696
0.346459
0.34134
0.33477
0.327114
0.318668
0.309668
0.300303
0.290728
0.281064
0.271389
0.26172
0.252144
0.243092
0.234942
0.387007
0.377999
0.378001
0.380729
0.382312
0.381579
0.378376
0.373014
0.365941
0.357577
0.348272
0.33831
0.327914
0.317264
0.306501
0.29574
0.285049
0.274445
0.264015
0.254145
0.245125
0.425143
0.415086
0.413493
0.414135
0.413423
0.410415
0.405064
0.397715
0.388815
0.378774
0.36793
0.356553
0.344856
0.333006
0.321138
0.309354
0.297716
0.286244
0.27502
0.264382
0.254538
0.460317
0.449283
0.446193
0.444887
0.442042
0.436928
0.429592
0.420409
0.409823
0.398236
0.385973
0.373292
0.360396
0.347442
0.334555
0.32183
0.309323
0.297054
0.285101
0.273749
0.263138
0.492269
0.48034
0.475871
0.472774
0.46798
0.460946
0.451805
0.440953
0.428837
0.415846
0.402294
0.38843
0.374445
0.36049
0.34668
0.333102
0.319807
0.306817
0.294203
0.282198
0.270883
0.520762
0.508029
0.502314
0.497607
0.491065
0.482314
0.47156
0.459221
0.445739
0.431496
0.416796
0.401877
0.386923
0.372076
0.357443
0.343105
0.32911
0.315479
0.302278
0.289688
0.277739
0.545586
0.532148
0.525337
0.519216
0.511144
0.500893
0.488733
0.475097
0.460426
0.445092
0.429392
0.413554
0.397757
0.382133
0.366784
0.351786
0.337182
0.322995
0.309282
0.296179
0.283673
0.566559
0.552522
0.544776
0.537453
0.528083
0.516564
0.503215
0.488482
0.472806
0.456551
0.440006
0.423393
0.406883
0.390604
0.374651
0.359095
0.343977
0.329322
0.315178
0.301638
0.288659
0.583526
0.569001
0.560494
0.552193
0.541771
0.529224
0.514912
0.499293
0.482804
0.465804
0.448576
0.431336
0.414249
0.39744
0.380999
0.364993
0.349459
0.334425
0.319933
0.306039
0.292675
0.596361
0.581467
0.572381
0.563338
0.552118
0.538791
0.523751
0.507461
0.490357
0.472793
0.455048
0.437334
0.419812
0.402602
0.385792
0.369445
0.353598
0.338278
0.323522
0.309359
0.295703
0.604971
0.589828
0.580352
0.57081
0.559054
0.545205
0.529676
0.512936
0.495419
0.477477
0.459385
0.441353
0.423539
0.40606
0.389003
0.372427
0.35637
0.340858
0.325926
0.311582
0.297729
0.609292
0.594024
0.584352
0.574559
0.562533
0.548422
0.532648
0.515682
0.497957
0.479826
0.461561
0.443369
0.425408
0.407794
0.390613
0.373922
0.357759
0.342152
0.327131
0.312697
0.298744
0.609292
0.594025
0.584352
0.574559
0.562534
0.548422
0.532648
0.515682
0.497958
0.479827
0.461561
0.443369
0.425408
0.407794
0.390613
0.373923
0.35776
0.342153
0.327131
0.312697
0.298745
0.604972
0.589829
0.580353
0.570811
0.559055
0.545206
0.529677
0.512937
0.49542
0.477478
0.459386
0.441354
0.42354
0.406061
0.389004
0.372428
0.356371
0.340859
0.325927
0.311584
0.29773
0.596363
0.581469
0.572383
0.56334
0.55212
0.538793
0.523753
0.507463
0.490359
0.472795
0.45505
0.437336
0.419814
0.402604
0.385794
0.369447
0.3536
0.33828
0.323524
0.309362
0.295705
0.583528
0.569004
0.560497
0.552196
0.541774
0.529226
0.514915
0.499296
0.482806
0.465807
0.448578
0.431338
0.414252
0.397442
0.381002
0.364995
0.349462
0.334428
0.319935
0.306042
0.292678
0.566563
0.552525
0.544779
0.537456
0.528087
0.516567
0.503218
0.488486
0.472809
0.456555
0.44001
0.423397
0.406886
0.390607
0.374655
0.359099
0.343981
0.329325
0.315181
0.301642
0.288663
0.545591
0.532152
0.525341
0.51922
0.511148
0.500897
0.488737
0.475101
0.46043
0.445096
0.429396
0.413558
0.397761
0.382137
0.366789
0.35179
0.337186
0.322999
0.309286
0.296183
0.283678
0.520767
0.508034
0.502319
0.497612
0.49107
0.482319
0.471565
0.459225
0.445744
0.431501
0.416801
0.401882
0.386928
0.37208
0.357448
0.34311
0.329115
0.315484
0.302283
0.289693
0.277744
0.492275
0.480346
0.475876
0.47278
0.467986
0.460952
0.45181
0.440959
0.428842
0.415851
0.4023
0.388435
0.374451
0.360496
0.346685
0.333107
0.319813
0.306823
0.294209
0.282204
0.270889
0.460324
0.44929
0.4462
0.444893
0.442049
0.436934
0.429599
0.420415
0.40983
0.398243
0.385979
0.373298
0.360402
0.347449
0.334562
0.321837
0.30933
0.29706
0.285107
0.273756
0.263145
0.425151
0.415093
0.4135
0.414142
0.41343
0.410422
0.405071
0.397722
0.388822
0.378781
0.367937
0.35656
0.344863
0.333013
0.321145
0.309361
0.297723
0.286251
0.275027
0.264389
0.254546
0.387016
0.378007
0.378009
0.380737
0.38232
0.381587
0.378383
0.373022
0.365948
0.357584
0.348279
0.338317
0.327922
0.317272
0.306509
0.295748
0.285057
0.274453
0.264023
0.254154
0.245134
0.346201
0.338303
0.33998
0.344908
0.348924
0.350614
0.349704
0.346467
0.341348
0.334778
0.327122
0.318676
0.309676
0.300312
0.290736
0.281072
0.271398
0.261729
0.252152
0.243101
0.234952
0.30301
0.296274
0.299684
0.306899
0.313465
0.317704
0.319214
0.318223
0.315171
0.3105
0.30459
0.297749
0.290228
0.282228
0.273911
0.265414
0.25682
0.248147
0.23948
0.231288
0.224049
0.257764
0.252229
0.257408
0.266974
0.276177
0.283068
0.287104
0.288462
0.287575
0.284894
0.280813
0.275657
0.269688
0.26312
0.256127
0.248855
0.241399
0.233779
0.226072
0.218775
0.212478
0.210799
0.206493
0.213457
0.225406
0.237308
0.24693
0.253577
0.257368
0.258725
0.258109
0.255929
0.252523
0.248168
0.243091
0.237477
0.231484
0.225218
0.218701
0.211999
0.205629
0.200296
0.162465
0.159405
0.168144
0.182482
0.197115
0.209521
0.218841
0.225129
0.228794
0.230303
0.230079
0.228476
0.225787
0.222248
0.21806
0.213389
0.208357
0.202989
0.197335
0.191917
0.187564
0.113123
0.111313
0.121798
0.1385
0.155865
0.17108
0.183113
0.191942
0.197958
0.201635
0.203409
0.20365
0.202664
0.200701
0.197974
0.194662
0.190901
0.186722
0.182156
0.177712
0.174348
0.0631394
0.0625739
0.0747503
0.0937622
0.113832
0.131854
0.146613
0.158005
0.166398
0.172269
0.176068
0.178178
0.178921
0.17856
0.177319
0.175393
0.172932
0.169982
0.166544
0.163092
0.160718
0.0128884
0.013547
0.0273421
0.0485797
0.0712942
0.0920908
0.109565
0.12352
0.134296
0.14237
0.148204
0.152195
0.154679
0.155934
0.156194
0.155666
0.154525
0.152835
0.150571
0.148131
0.146749
-0.037256
-0.0354058
-0.0200846
0.00326545
0.0285323
0.0520428
0.0721945
0.0886917
0.101837
0.112105
0.119968
0.125837
0.130062
0.132934
0.134698
0.135573
0.135758
0.135363
0.134352
0.132964
0.132512
-0.08692
-0.0839262
-0.0671865
-0.041866
-0.0141713
0.0119621
0.0347287
0.0537224
0.069203
0.0816391
0.0915092
0.0992381
0.105188
0.109664
0.112922
0.115188
0.116674
0.117554
0.117872
0.117691
0.117964
-0.135731
-0.131663
-0.113622
-0.0865017
-0.0565357
-0.0279003
-0.00260856
0.0188142
0.0365766
0.0511359
0.0629756
0.0725312
0.0801766
0.0862298
0.09096
0.0945968
0.0973528
0.0994641
0.101239
0.102899
0.103016
-0.183319
-0.17827
-0.159053
-0.130334
-0.0982839
-0.0672972
-0.039596
-0.0158345
0.00413655
0.0207572
0.0345129
0.0458475
0.0551455
0.0627358
0.0688989
0.073869
0.0778455
0.0810829
0.0840346
0.0868557
0.0872331
-0.229388
-0.223372
-0.203152
-0.173064
-0.139145
-0.105986
-0.0760173
-0.0500296
-0.0279422
-0.00933896
0.0062638
0.0193163
0.0302107
0.0392844
0.0468269
0.0530743
0.0582055
0.0624547
0.0663609
0.070147
0.0707074
-0.273827
-0.266537
-0.245636
-0.214408
-0.178859
-0.143734
-0.111663
-0.0835828
-0.05949
-0.038999
-0.0216322
-0.00693598
0.00548779
0.0159821
0.0248427
0.032309
0.0385455
0.0437542
0.0485086
0.0531901
0.0546271
-0.315997
-0.307543
-0.286379
-0.254101
-0.217174
-0.180316
-0.146332
-0.116313
-0.0903434
-0.0680747
-0.0490401
-0.0327854
-0.0189086
-0.00706262
0.00305273
0.0116827
0.0189899
0.0251533
0.0307342
0.0362231
0.0387672
-0.355637
-0.346245
-0.324725
-0.29199
-0.253859
-0.215515
-0.179832
-0.148049
-0.120347
-0.0964245
-0.0758304
-0.0581128
-0.0428675
-0.0297446
-0.0184408
-0.0087045
-0.000367072
0.00673992
0.0131434
0.0193582
0.0228129
-0.39254
-0.382352
-0.360565
-0.327618
-0.288719
-0.24913
-0.211981
-0.178626
-0.149353
-0.123915
-0.101881
-0.0828054
-0.0662841
-0.0519658
-0.0395451
-0.0287659
-0.0194518
-0.0114386
-0.00423567
0.00266362
0.0068796
-0.426502
-0.415621
-0.393761
-0.360769
-0.321485
-0.280976
-0.242607
-0.207893
-0.177227
-0.150422
-0.127078
-0.106758
-0.089061
-0.0736353
-0.0601751
-0.0484215
-0.0381911
-0.0293225
-0.021358
-0.0137912
-0.00881428
-0.457353
-0.44585
-0.424109
-0.391346
-0.351935
-0.31087
-0.271557
-0.235711
-0.203841
-0.175833
-0.151318
-0.129875
-0.111108
-0.0946694
-0.0802518
-0.0675951
-0.0565098
-0.0468372
-0.0381515
-0.0299367
-0.0241658
-0.484953
-0.472887
-0.451436
-0.419186
-0.379963
-0.338642
-0.298692
-0.261957
-0.229083
-0.200048
-0.174507
-0.152068
-0.132346
-0.114992
-0.0997023
-0.0862166
-0.0743392
-0.0639133
-0.0545461
-0.0457133
-0.0391519
-0.509195
-0.496626
-0.475616
-0.444141
-0.405436
-0.364181
-0.323889
-0.286526
-0.252856
-0.222979
-0.19656
-0.173262
-0.152701
-0.134534
-0.118463
-0.104225
-0.0916216
-0.0804965
-0.07049
-0.061074
-0.0537523
-0.530014
-0.517005
-0.496569
-0.466104
-0.428237
-0.387384
-0.347054
-0.30933
-0.275103
-0.244532
-0.217408
-0.193392
-0.172113
-0.15324
-0.136478
-0.121569
-0.108309
-0.0965451
-0.0859466
-0.0759811
-0.0679287
-0.547391
-0.534007
-0.514255
-0.485011
-0.448283
-0.408163
-0.368106
-0.330287
-0.295725
-0.264676
-0.237005
-0.212405
-0.190533
-0.171061
-0.153704
-0.138206
-0.124363
-0.112026
-0.100892
-0.0904107
-0.0816371
-0.561352
-0.547661
-0.52868
-0.500837
-0.465525
-0.426458
-0.386985
-0.349344
-0.314679
-0.283355
-0.255305
-0.230266
-0.207919
-0.187958
-0.170105
-0.154104
-0.139749
-0.126909
-0.115308
-0.104364
-0.0948332
-0.571973
-0.558041
-0.539896
-0.513598
-0.479947
-0.442237
-0.403654
-0.366468
-0.331936
-0.300534
-0.272272
-0.246939
-0.224248
-0.20391
-0.185656
-0.16924
-0.154447
-0.141166
-0.129175
-0.117886
-0.107518
-0.579369
-0.565268
-0.547999
-0.523352
-0.49157
-0.455494
-0.418097
-0.381641
-0.347479
-0.316196
-0.28789
-0.262409
-0.2395
-0.218894
-0.200339
-0.183599
-0.168459
-0.154774
-0.142431
-0.130992
-0.119861
-0.583702
-0.569504
-0.553128
-0.530196
-0.500449
-0.466253
-0.43032
-0.394862
-0.361303
-0.330339
-0.302158
-0.276671
-0.253667
-0.232904
-0.214142
-0.19716
-0.181751
-0.167755
-0.15506
-0.143353
-0.132506
-0.58517
-0.570952
-0.555467
-0.534273
-0.506677
-0.474567
-0.440351
-0.406146
-0.373423
-0.342975
-0.315084
-0.289732
-0.266757
-0.245941
-0.227067
-0.209925
-0.194325
-0.180111
-0.16717
-0.155274
-0.144441
-0.584006
-0.569846
-0.555234
-0.535761
-0.510382
-0.48052
-0.448244
-0.415531
-0.383866
-0.354126
-0.326689
-0.301612
-0.278783
-0.25802
-0.239124
-0.221905
-0.206185
-0.19182
-0.178694
-0.166587
-0.155484
-0.580471
-0.566452
-0.552681
-0.534875
-0.511726
-0.484223
-0.454072
-0.423067
-0.392671
-0.363829
-0.337006
-0.312338
-0.28977
-0.269159
-0.25033
-0.23311
-0.217334
-0.202862
-0.189581
-0.177268
-0.165856
-0.574848
-0.561054
-0.548084
-0.531861
-0.510904
-0.485817
-0.457932
-0.428824
-0.399894
-0.372128
-0.346075
-0.321947
-0.299752
-0.279389
-0.260711
-0.243562
-0.22779
-0.21326
-0.199865
-0.187396
-0.175733
-0.567433
-0.55395
-0.541737
-0.526988
-0.508141
-0.485469
-0.459944
-0.432887
-0.405599
-0.37908
-0.353945
-0.330485
-0.308771
-0.288747
-0.2703
-0.253293
-0.237587
-0.223056
-0.2096
-0.197037
-0.185189
-0.55853
-0.545445
-0.533944
-0.520544
-0.503682
-0.483373
-0.460248
-0.435356
-0.409863
-0.384748
-0.360674
-0.338004
-0.316874
-0.297279
-0.27914
-0.262343
-0.246767
-0.232293
-0.218831
-0.206229
-0.19426
-0.548443
-0.535838
-0.52501
-0.512825
-0.497795
-0.479743
-0.459003
-0.436348
-0.412772
-0.3892
-0.366322
-0.34456
-0.324115
-0.305035
-0.287278
-0.270758
-0.255372
-0.241011
-0.227594
-0.215001
-0.202975
-0.537465
-0.52542
-0.51523
-0.504129
-0.490752
-0.47481
-0.456387
-0.435991
-0.41442
-0.392511
-0.370953
-0.350213
-0.330551
-0.312069
-0.294766
-0.278586
-0.263446
-0.249252
-0.235928
-0.223386
-0.21136
-0.525877
-0.514463
-0.504886
-0.494741
-0.482832
-0.468818
-0.452594
-0.434428
-0.414911
-0.394761
-0.374634
-0.355024
-0.33624
-0.318437
-0.301657
-0.285878
-0.271038
-0.257061
-0.243875
-0.231423
-0.219446
-0.513936
-0.503216
-0.494232
-0.484931
-0.474305
-0.462013
-0.447829
-0.431815
-0.414358
-0.396032
-0.377432
-0.359051
-0.341238
-0.324194
-0.308007
-0.292686
-0.278199
-0.264484
-0.25148
-0.23915
-0.227266
-0.501876
-0.4919
-0.483499
-0.474945
-0.465424
-0.454641
-0.442302
-0.428316
-0.41288
-0.396411
-0.379412
-0.362353
-0.345601
-0.329397
-0.31387
-0.299066
-0.28498
-0.271572
-0.258789
-0.246611
-0.234857
-0.489899
-0.480707
-0.472882
-0.464996
-0.456422
-0.446934
-0.436226
-0.424103
-0.410604
-0.395986
-0.380639
-0.364983
-0.349379
-0.334096
-0.3193
-0.305072
-0.291436
-0.278376
-0.265852
-0.253853
-0.24226
-0.478177
-0.469794
-0.462544
-0.455263
-0.447498
-0.439105
-0.429806
-0.419353
-0.407665
-0.394852
-0.38118
-0.36699
-0.352617
-0.338337
-0.324346
-0.310756
-0.297622
-0.284952
-0.272722
-0.260925
-0.24952
-0.466851
-0.459288
-0.452613
-0.445891
-0.43882
-0.431341
-0.423233
-0.41424
-0.404202
-0.393108
-0.3811
-0.36842
-0.355352
-0.34216
-0.329052
-0.316168
-0.30359
-0.291353
-0.279454
-0.267881
-0.256685
-0.45603
-0.449287
-0.443183
-0.436986
-0.430517
-0.423799
-0.416678
-0.408928
-0.400355
-0.390859
-0.380467
-0.369317
-0.357617
-0.345595
-0.333454
-0.321352
-0.309393
-0.297636
-0.286104
-0.274776
-0.263806
-0.445795
-0.439857
-0.43432
-0.42862
-0.422683
-0.416597
-0.410284
-0.403569
-0.396263
-0.388213
-0.379356
-0.369724
-0.359437
-0.348664
-0.337581
-0.326345
-0.315076
-0.303856
-0.292733
-0.281672
-0.270941
-0.436202
-0.431045
-0.426063
-0.420839
-0.415378
-0.409821
-0.404163
-0.398294
-0.392056
-0.385282
-0.377845
-0.369688
-0.360837
-0.35138
-0.341447
-0.331173
-0.320681
-0.310062
-0.299399
-0.288633
-0.278149
-0.42729
-0.422878
-0.418432
-0.41366
-0.40863
-0.403524
-0.398397
-0.39321
-0.387853
-0.382176
-0.376021
-0.369264
-0.361841
-0.353753
-0.345059
-0.335852
-0.326237
-0.316304
-0.306163
-0.295725
-0.2855
-0.419082
-0.415369
-0.411431
-0.407086
-0.40245
-0.397731
-0.393039
-0.388399
-0.383758
-0.379003
-0.373977
-0.368517
-0.362483
-0.355791
-0.348416
-0.340384
-0.331762
-0.322618
-0.31308
-0.303023
-0.293062
-0.411598
-0.408524
-0.405057
-0.401108
-0.39683
-0.39245
-0.38812
-0.383919
-0.379857
-0.375865
-0.371812
-0.367522
-0.362808
-0.357508
-0.35151
-0.344759
-0.337259
-0.329031
-0.320205
-0.310599
-0.300941
-0.40485
-0.402345
-0.399303
-0.395714
-0.39176
-0.38768
-0.383656
-0.379816
-0.376222
-0.372857
-0.369628
-0.36637
-0.362876
-0.35893
-0.354339
-0.348959
-0.342714
-0.33555
-0.327576
-0.318537
-0.309215
-0.398849
-0.396829
-0.394161
-0.390894
-0.387231
-0.383418
-0.379662
-0.376126
-0.372917
-0.370068
-0.367529
-0.365164
-0.362771
-0.360104
-0.356909
-0.35296
-0.348094
-0.342161
-0.335219
-0.326903
-0.318093
-0.393602
-0.391972
-0.38962
-0.386637
-0.383238