/*--------------------------------*- C++ -*----------------------------------*\
  =========                 |
  \\      /  F ield         | OpenFOAM: The Open Source CFD Toolbox
   \\    /   O peration     | Website:  https://openfoam.org
    \\  /    A nd           | Version:  7
     \\/     M anipulation  |
\*---------------------------------------------------------------------------*/
FoamFile
{
    version     2.0;
    format      ascii;
    class       surfaceScalarField;
    location    "5";
    object      phi;
}
// * * * * * * * * * * * * * * * * * * * * * * * * * * * * * * * * * * * * * //

dimensions      [0 3 -1 0 0 0 0];

internalField   nonuniform List<scalar> 
17388
(
-1.22863e-05
1.22872e-05
-9.06861e-10
-4.27543e-05
3.04699e-05
-1.91944e-09
-8.76279e-05
4.48761e-05
-2.4926e-09
-0.000144117
5.64917e-05
-2.80814e-09
-0.000210145
6.60316e-05
-2.98843e-09
-0.000284226
7.40835e-05
-3.12484e-09
-0.000365336
8.11137e-05
-3.26252e-09
-0.000452805
8.74726e-05
-3.39604e-09
-0.000546203
9.34009e-05
-3.50857e-09
-0.000645237
9.90374e-05
-3.61316e-09
-0.000749667
0.000104434
-3.72093e-09
-0.000859236
0.000109573
-3.8445e-09
-0.000973622
0.00011439
-3.98845e-09
-0.00109241
0.000118789
-4.13416e-09
-0.00121506
0.000122659
-4.275e-09
-0.00134094
0.000125885
-4.40933e-09
-0.00146931
0.000128371
-4.53452e-09
-0.00159935
0.000130045
-4.65125e-09
-0.00173014
0.000130794
-4.75656e-09
-0.00186063
0.000130492
-4.85232e-09
0.00012977
-4.94964e-09
-0.00199039
-1.17848e-05
2.4072e-05
-4.11382e-05
5.98233e-05
-8.4497e-05
8.82349e-05
-0.000139195
0.00011119
-0.000203217
0.000130054
-0.000275089
0.000145956
-0.000353769
0.000159794
-0.000438543
0.000172247
-0.000528925
0.000183782
-0.000624557
0.000194669
-0.000725129
0.000205007
-0.000830311
0.000214755
-0.000939699
0.000223778
-0.00105279
0.000231875
-0.00116894
0.000238811
-0.00128739
0.000244341
-0.00140727
0.000248251
-0.00152761
0.000250385
-0.00164733
0.000250514
-0.0017652
0.000248358
0.000245036
-0.00188046
-1.08163e-05
3.48884e-05
-3.80067e-05
8.70137e-05
-7.84139e-05
0.000128642
-0.000129611
0.000162386
-0.000189702
0.000190145
-0.000257242
0.000213496
-0.000331155
0.000233706
-0.000410647
0.000251739
-0.000495126
0.000268261
-0.000584115
0.000283658
-0.000677174
0.000298066
-0.000773835
0.000311416
-0.000873549
0.000323492
-0.000975649
0.000333976
-0.00107933
0.000342489
-0.00118362
0.000348632
-0.00128741
0.000352038
-0.00138946
0.000352436
-0.00148842
0.000349482
-0.00158275
0.00034268
0.000333397
-0.00167111
-9.44718e-06
4.43355e-05
-3.35539e-05
0.00011112
-6.97253e-05
0.000164814
-0.00011587
0.000208532
-0.000170267
0.000244542
-0.00023152
0.000274749
-0.00029851
0.000300696
-0.000370342
0.000323571
-0.000446283
0.000344202
-0.000525692
0.000363067
-0.000607956
0.00038033
-0.000692429
0.000395889
-0.000778379
0.000409441
-0.000864946
0.000420542
-0.000951115
0.000428659
-0.00103569
0.000433211
-0.0011173
0.000433644
-0.00119439
0.00042953
-0.00126533
0.000420415
-0.00132814
0.000405495
0.000386066
-0.00138081
-7.76944e-06
5.2105e-05
-2.80534e-05
0.000131404
-5.89249e-05
0.000195685
-9.87003e-05
0.000248307
-0.000145877
0.000291719
-0.000199132
0.000328003
-0.000257309
0.000358874
-0.000319402
0.000385664
-0.000384516
0.000409316
-0.000451827
0.000430377
-0.000520523
0.000449027
-0.000589761
0.000465127
-0.000658614
0.000478294
-0.00072603
0.000487959
-0.000790804
0.000493433
-0.000851548
0.000493955
-0.000906664
0.000488759
-0.00095436
0.000477226
-0.00099275
0.000458804
-0.00101958
0.000432321
0.000398437
-0.00103195
-5.89349e-06
5.79985e-05
-2.18385e-05
0.000147349
-4.66221e-05
0.000220469
-7.90078e-05
0.000280693
-0.000117745
0.000330456
-0.000161608
0.000371866
-0.00020942
0.000406686
-0.000260069
0.000436313
-0.0003125
0.000461747
-0.000365697
0.000483574
-0.000418648
0.000501978
-0.000470312
0.000516792
-0.000519577
0.000527558
-0.000565223
0.000533605
-0.000605898
0.000534108
-0.000640089
0.000528146
-0.00066609
0.00051476
-0.000681986
0.000493122
-0.000685818
0.000462636
-0.000675423
0.000421927
0.000369516
-0.000646502
-3.93874e-06
6.19372e-05
-1.52783e-05
0.000158689
-3.35044e-05
0.000238695
-5.78311e-05
0.000305019
-8.7277e-05
0.000359902
-0.000120735
0.000405324
-0.000157032
0.000442983
-0.000194971
0.000474251
-0.000233352
0.000500128
-0.000270982
0.000521204
-0.000306663
0.000537659
-0.000339169
0.000549297
-0.000367223
0.000555613
-0.000389474
0.000555855
-0.000404468
0.000549102
-0.000410639
0.000534318
-0.000406283
0.000510403
-0.000389515
0.000476354
-0.000358439
0.00043156
-0.000311769
0.000375257
0.000303474
-0.000245727
-2.02417e-06
6.39614e-05
-8.75078e-06
0.000165415
-2.02912e-05
0.000250235
-3.62779e-05
0.000321006
-5.59945e-05
0.000379619
-7.84695e-05
0.000427799
-0.000102558
0.000467072
-0.00012701
0.000498703
-0.000150514
0.000523632
-0.000171729
0.000542419
-0.000189295
0.000555225
-0.000201832
0.000561835
-0.000207929
0.000561709
-0.000206128
0.000554054
-0.000194915
0.000537889
-0.000172706
0.000512108
-0.000137839
0.000475537
-8.85335e-05
0.000427049
-2.27536e-05
0.00036578
6.15184e-05
0.000290985
0.000204795
0.000160197
-2.62693e-07
6.42241e-05
-2.61605e-06
0.000167769
-7.68609e-06
0.000255305
-1.5456e-05
0.000328776
-2.54486e-05
0.000389611
-3.68328e-05
0.000439183
-4.85182e-05
0.000478757
-5.92366e-05
0.000509421
-6.76072e-05
0.000532003
-7.21844e-05
0.000546996
-7.14883e-05
0.000554529
-6.40211e-05
0.000554367
-4.82705e-05
0.000545959
-2.27071e-05
0.000528491
1.42251e-05
0.000500957
6.41181e-05
0.000462215
0.000128608
0.000411047
0.000209444
0.000346213
0.000308435
0.00026679
0.000426612
0.000172807
6.32705e-05
0.000568137
1.26319e-06
6.29609e-05
2.81002e-06
0.000166222
3.67156e-06
0.000254444
3.60166e-06
0.000328846
2.88128e-06
0.000390332
2.21022e-06
0.000439854
2.60674e-06
0.000478361
5.3194e-06
0.000506709
1.17531e-05
0.000525569
2.34081e-05
0.000535341
4.18348e-05
0.000536102
6.86037e-05
0.000527598
0.00010529
0.000509272
0.00015347
0.000480311
0.000214725
0.000439702
0.000290659
0.000386281
0.000382931
0.000318776
0.000493323
0.00023582
0.000623913
0.000136199
0.000776316
2.04049e-05
-0.000114312
0.000953898
2.47161e-06
6.04893e-05
7.27466e-06
0.000161419
1.3253e-05
0.000248465
2.00097e-05
0.000322089
2.76928e-05
0.000382649
3.68925e-05
0.000430654
4.85463e-05
0.000466707
6.38539e-05
0.000491401
8.4201e-05
0.000505222
0.000111093
0.000508449
0.000146102
0.000501094
0.000190828
0.000482873
0.000246877
0.000453223
0.000315857
0.000411331
0.000399386
0.000356172
0.000499127
0.00028654
0.00061683
0.000201072
0.000754419
9.82316e-05
0.000914384
-2.37654e-05
0.00109884
-0.000164052
-0.00032739
0.00131192
3.32493e-06
5.71643e-05
1.0607e-05
0.000154137
2.06783e-05
0.000238394
3.31047e-05
0.000309663
4.79724e-05
0.000367781
6.57968e-05
0.00041283
8.74403e-05
0.000445064
0.000114037
0.000464805
0.000146922
0.000472337
0.00018757
0.000467801
0.000237539
0.000451124
0.000298435
0.000421977
0.00037189
0.000379768
0.000459566
0.000323656
0.000563175
0.000252563
0.000684533
0.000165182
0.00082563
5.99754e-05
0.000988679
-6.48177e-05
0.00117675
-0.000211832
0.00139229
-0.000379599
-0.00057697
0.00164187
3.80616e-06
5.33582e-05
1.27275e-05
0.000145215
2.57453e-05
0.000225376
4.25e-05
0.000292908
6.30912e-05
0.00034719
8.80044e-05
0.000387917
0.000118048
0.00041502
0.000154291
0.000428561
0.000198014
0.000428614
0.000250647
0.000415168
0.000313734
0.000388037
0.000388904
0.000346807
0.000477861
0.000290811
0.000582404
0.000219113
0.000704469
0.000130497
0.000846188
2.34636e-05
0.00101002
-0.000103854
0.00119862
-0.000253425
0.00141561
-0.000428821
0.00166358
-0.000627561
-0.000865383
0.00195199
3.92663e-06
4.94316e-05
1.36524e-05
0.00013549
2.84487e-05
0.00021058
4.81309e-05
0.000273226
7.28869e-05
0.000322434
0.000103227
0.000357577
0.000139941
0.000378306
0.000184066
0.000384436
0.000236847
0.000375833
0.00029971
0.000352306
0.000374231
0.000313515
0.000462141
0.000258898
0.000565328
0.000187624
0.000685888
9.85528e-05
0.000826149
-9.76441e-06
0.000988823
-0.00013921
0.00117689
-0.000291924
0.00139363
-0.000470164
0.00164291
-0.000678101
0.00192684
-0.000911485
-0.00119524
0.00225669
3.72424e-06
4.57073e-05
1.34937e-05
0.00012572
2.89852e-05
0.000195089
5.02754e-05
0.000251936
7.77124e-05
0.000294997
0.000111893
0.000323397
0.000153651
0.000336548
0.000204048
0.000334038
0.000264369
0.000315512
0.000336116
0.00028056
0.000421014
0.000228616
0.000521035
0.000158878
0.000638425
7.02334e-05
0.000775754
-3.87761e-05
0.000935974
-0.000169984
0.00112234
-0.000325576
0.00133843
-0.000508018
0.00158787
-0.000719594
0.00187398
-0.000964214
0.00219775
-0.00123525
-0.00156681
0.00256932
3.26132e-06
4.2446e-05
1.2453e-05
0.000116529
2.77451e-05
0.000179796
4.95474e-05
0.000230134
7.84386e-05
0.000266105
0.000115177
0.000286658
0.000160721
0.000291004
0.000216256
0.000278503
0.000283221
0.000248547
0.000363337
0.000200444
0.000458639
0.000133315
0.000571514
4.60019e-05
0.00070474
-6.29918e-05
0.000861487
-0.000195523
0.00104528
-0.000353773
0.00125983
-0.000540127
0.00150877
-0.000756962
0.00179536
-0.00100618
0.00212111
-0.00128996
0.00248535
-0.0015995
-0.00197462
0.00289317
2.62106e-06
3.98249e-05
1.08082e-05
0.000108341
2.52855e-05
0.000165319
4.68561e-05
0.000208563
7.63999e-05
0.000236562
0.000114923
0.000248135
0.000163618
0.000242309
0.000223923
0.000218198
0.000297582
0.000174887
0.000386702
0.000111324
0.000493795
2.62223e-05
0.000621804
-8.2008e-05
0.000774087
-0.000215275
0.000954321
-0.000375756
0.0011663
-0.00056575
0.00141358
-0.000787407
0.00169891
-0.00104229
0.00202398
-0.00133126
0.00238715
-0.00165313
0.00278576
-0.00199811
-0.00240539
0.00321653
1.90183e-06
3.79231e-05
8.89173e-06
0.000101352
2.22842e-05
0.000151927
4.33264e-05
0.000187521
7.32729e-05
0.000206615
0.000113477
0.000207931
0.000165487
0.000190299
0.000231142
0.000152543
0.000312647
9.33816e-05
0.00041264
1.13316e-05
0.000534206
-9.53438e-05
0.000680837
-0.000228639
0.000856297
-0.000390735
0.00106435
-0.000583811
0.00130835
-0.000809752
0.00159069
-0.00106974
0.00191204
-0.00136365
0.00227114
-0.00169036
0.00266261
-0.0020446
0.00308152
-0.00241702
-0.00283897
0.0035151
1.2086e-06
3.67145e-05
7.06006e-06
9.55001e-05
1.94726e-05
0.000139514
4.01816e-05
0.000166812
7.08897e-05
0.000175907
0.0001134
0.000165421
0.000169741
0.000133958
0.000242281
8.00031e-05
0.000333802
1.86095e-06
0.000447526
-0.000102392
0.000587052
-0.00023487
0.000756188
-0.000397776
0.00095863
-0.000593177
0.00119748
-0.000822666
0.00147466
-0.00108692
0.00179017
-0.00138526
0.00214159
-0.00171507
0.00252363
-0.0020724
0.00292786
-0.00244883
0.00334689
-0.00283605
-0.00325241
0.00376033
6.42227e-07
3.60723e-05
5.65534e-06
9.04869e-05
1.75551e-05
0.000127614
3.86004e-05
0.000145767
7.10103e-05
0.000143497
0.000117127
0.000119304
0.000179559
7.15261e-05
0.000261278
-1.71628e-06
0.00036566
-0.000102521
0.000496412
-0.000233144
0.000657383
-0.000395841
0.000852206
-0.000592599
0.00108378
-0.000824747
0.0013536
-0.00109249
0.0016611
-0.00139442
0.00200301
-0.00172716
0.00237316
-0.00208522
0.00276208
-0.00246131
0.00315964
-0.00284639
0.00355609
-0.0032325
-0.00362476
0.00392844
2.88468e-07
3.57838e-05
4.96643e-06
8.5809e-05
1.71262e-05
0.000115455
3.95733e-05
0.000123319
7.50943e-05
0.000107976
0.000126631
6.77679e-05
0.00019741
7.47228e-07
0.000290996
-9.53026e-05
0.000411235
-0.00022276
0.000562047
-0.000383956
0.000747052
-0.000580847
0.00096902
-0.000814567
0.00122919
-0.00108492
0.00152658
-0.00138987
0.00185739
-0.00172523
0.00221475
-0.00208452
0.00258904
-0.00245951
0.00296781
-0.00284009
0.0033397
-0.00321828
0.00368996
-0.00358277
-0.00393977
0.00400497
2.04415e-07
3.55794e-05
5.19521e-06
8.08182e-05
1.86042e-05
0.000102046
4.37897e-05
9.81339e-05
8.41272e-05
6.76385e-05
0.000143169
8.72628e-06
0.000224724
-8.08078e-05
0.00033282
-0.000203399
0.000471509
-0.000361448
0.000644479
-0.000556926
0.000854493
-0.000790861
0.00110269
-0.00106277
0.00138788
-0.0013701
0.00170596
-0.00170796
0.00204975
-0.00206902
0.00240927
-0.00244404
0.00277259
-0.00282284
0.00312697
-0.00319447
0.00346165
-0.00355295
0.00376054
-0.00388166
-0.00420217
0.00402295
4.11496e-07
3.51679e-05
6.44047e-06
7.47892e-05
2.21984e-05
8.62876e-05
5.15826e-05
6.87497e-05
9.85422e-05
2.06789e-05
0.000167189
-5.99208e-05
0.000261791
-0.000175409
0.000386594
-0.000328203
0.000545458
-0.000520313
0.000741281
-0.000752748
0.000975282
-0.00102486
0.00124627
-0.00133376
0.00155009
-0.00167392
0.00187942
-0.00203728
0.00222416
-0.00241376
0.00257239
-0.00279227
0.00291172
-0.00316217
0.00323113
-0.00351388
0.00352106
-0.00384288
0.00377841
-0.00413902
-0.00442411
0.00400034
9.10504e-07
3.42574e-05
8.70369e-06
6.6996e-05
2.79162e-05
6.70751e-05
6.29442e-05
3.37217e-05
0.000118252
-3.46286e-05
0.000198396
-0.000140065
0.000307888
-0.000284901
0.000450853
-0.000471168
0.000630463
-0.000699923
0.000848213
-0.000970498
0.00110314
-0.00127979
0.00139125
-0.00162186
0.00170528
-0.00198795
0.00203514
-0.00236714
0.00236891
-0.00274753
0.00269435
-0.00311771
0.00300052
-0.00346834
0.0032793
-0.00379266
0.00352567
-0.00408924
0.00373972
-0.00435307
-0.00460534
0.00392095
1.67449e-06
3.25829e-05
1.19082e-05
5.67623e-05
3.56056e-05
4.33777e-05
7.75987e-05
-8.27139e-06
0.000142764
-9.97941e-05
0.000235926
-0.000233227
0.000361553
-0.000410528
0.000523219
-0.000632834
0.000722869
-0.000899574
0.000960006
-0.00120763
0.00123102
-0.00155081
0.00152892
-0.00191977
0.00184375
-0.00230278
0.00216361
-0.00268699
0.00247622
-0.00306015
0.00277071
-0.0034122
0.00303897
-0.0037366
0.00327662
-0.00403031
0.00348263
-0.00429526
0.00366036
-0.00453081
-0.00475737
0.00381239
2.66299e-06
2.99199e-05
1.59316e-05
4.34937e-05
4.50181e-05
1.42912e-05
9.51046e-05
-5.83579e-05
0.000171338
-0.000176027
0.000278574
-0.000340462
0.000420879
-0.000552833
0.000600803
-0.000812757
0.000818515
-0.00111729
0.00107105
-0.00146017
0.00135193
-0.00183168
0.00165146
-0.0022193
0.0019578
-0.00260912
0.00225857
-0.00298777
0.0025427
-0.00334427
0.00280192
-0.00367142
0.00303164
-0.00396632
0.00323112
-0.00422979
0.00340246
-0.00446659
0.00355092
-0.00467927
-0.00488628
0.00367983
3.83481e-06
2.60851e-05
2.06394e-05
2.66891e-05
5.58709e-05
-2.09402e-05
0.000114954
-0.000117441
0.000203122
-0.000264196
0.000324972
-0.000462313
0.00048376
-0.000711621
0.000680505
-0.0010095
0.000913127
-0.00134991
0.00117591
-0.00172295
0.00145965
-0.00211542
0.00175264
-0.0025123
0.00204235
-0.00289883
0.00231733
-0.00326274
0.00256888
-0.00359583
0.00279206
-0.0038946
0.00298571
-0.00415997
0.00315199
-0.00439607
0.00329498
-0.00460958
0.00342061
-0.00480491
-0.00499807
0.0035324
5.15581e-06
2.09293e-05
2.59094e-05
5.93549e-06
6.78925e-05
-6.29233e-05
0.000136639
-0.000186188
0.000237245
-0.000364801
0.000373707
-0.000598774
0.00054802
-0.000885934
0.000759204
-0.00122069
0.00100258
-0.00159328
0.0012697
-0.00199007
0.00154916
-0.00239488
0.00182827
-0.00279141
0.00209511
-0.00316566
0.00234032
-0.00350795
0.00255828
-0.0038138
0.00274734
-0.00408366
0.00290919
-0.00432182
0.00304789
-0.00453476
0.00316841
-0.0047301
0.00327649
-0.00491299
-0.00509677
0.00337519
6.60228e-06
1.4327e-05
3.16427e-05
-1.91049e-05
8.08421e-05
-0.000112123
0.000159681
-0.000265026
0.000272847
-0.000477967
0.000423353
-0.000749281
0.000611484
-0.00107406
0.000833868
-0.00144307
0.00108311
-0.00184253
0.00134839
-0.00225534
0.00161696
-0.00266346
0.00187634
-0.00305079
0.00211632
-0.00340565
0.0023304
-0.00372203
0.00251613
-0.00399953
0.00267466
-0.00424219
0.00280965
-0.00445681
0.00292609
-0.0046512
0.00302904
-0.00483306
0.00312356
-0.00500751
-0.0051852
0.00321199
8.16002e-06
6.167e-06
3.77617e-05
-4.87066e-05
9.45051e-05
-0.000168866
0.000183617
-0.000354139
0.000309067
-0.000603417
0.000472476
-0.00091269
0.000672006
-0.00127359
0.000901667
-0.00167273
0.00115153
-0.00209239
0.00140904
-0.00251285
0.0016612
-0.00291561
0.00189681
-0.0032864
0.00210821
-0.00361705
0.00229192
-0.00390574
0.00244832
-0.00415592
0.0025806
-0.00437447
0.00269352
-0.00456973
0.00279224
-0.00474992
0.0028814
-0.00492221
0.00296511
-0.00509123
-0.0052651
0.00304502
9.82027e-06
-3.65328e-06
4.41994e-05
-8.30857e-05
0.000108674
-0.000233341
0.000207981
-0.000453445
0.000345021
-0.000740458
0.000519625
-0.00108729
0.000727522
-0.00148149
0.000960101
-0.00190531
0.00120536
-0.00233765
0.00144993
-0.00275743
0.0016816
-0.00314728
0.00189132
-0.00349612
0.00207428
-0.00380002
0.00222983
-0.00406129
0.00236053
-0.00428662
0.00247084
-0.00448477
0.00256587
-0.00466476
0.00265046
-0.00483451
0.00272852
-0.00500028
0.00280326
-0.00516597
-0.0053375
0.00287566
1.15748e-05
-1.52281e-05
5.08857e-05
-0.000122397
0.000123128
-0.000305583
0.000232268
-0.000562585
0.000379783
-0.000887972
0.000563354
-0.00127087
0.000776134
-0.00169427
0.00100714
-0.00213632
0.00124302
-0.00257352
0.00147057
-0.00298498
0.00167923
-0.00335594
0.00186258
-0.00367947
0.00201862
-0.00395606
0.00214902
-0.00419169
0.00225779
-0.00439539
0.00234997
-0.00457695
0.0024305
-0.00474529
0.0025036
-0.0049076
0.0025724
-0.00506908
0.00263928
-0.00523285
-0.00540293
0.00270471
1.34116e-05
-2.86397e-05
5.77361e-05
-0.000166721
0.000137611
-0.000385458
0.000255931
-0.000680905
0.000412393
-0.00104443
0.000602282
-0.00146075
0.000816221
-0.00190821
0.00104137
-0.00236147
0.00126384
-0.002796
0.00147153
-0.00319267
0.00165613
-0.00354054
0.00181394
-0.00383728
0.00194541
-0.00408753
0.00205391
-0.00430018
0.00214426
-0.00448574
0.00222151
-0.00465421
0.00229013
-0.00481391
0.00235358
-0.00497105
0.0024143
-0.0051298
0.00247396
-0.00529251
-0.00546165
0.00253268
1.5312e-05
-4.39517e-05
6.46454e-05
-0.000216055
0.000151833
-0.000472646
0.000278381
-0.000807453
0.000441901
-0.00120795
0.000635167
-0.00165402
0.000846546
-0.00211959
0.001062
-0.00257692
0.00126802
-0.00300202
0.00145425
-0.0033789
0.00161493
-0.00370121
0.00174889
-0.00397124
0.00185851
-0.00419716
0.00194825
-0.00438992
0.00202319
-0.00456068
0.00208804
-0.00471906
0.00214661
-0.00487248
0.00220167
-0.00502611
0.00225501
-0.00518315
0.00230778
-0.00534528
-0.00551372
0.00235985
1.72498e-05
-6.12016e-05
7.14867e-05
-0.000270291
0.000165471
-0.00056663
0.000299012
-0.000940994
0.000467414
-0.00137636
0.000660995
-0.0018476
0.000866322
-0.00232492
0.00106894
-0.00277954
0.00125645
-0.00318953
0.0014207
-0.00354315
0.00155847
-0.00383898
0.00167074
-0.00408351
0.00176129
-0.0042877
0.00183507
-0.00446371
0.00189705
-0.00462266
0.00195139
-0.0047734
0.00200122
-0.00492231
0.00204867
-0.00507356
0.00209504
-0.00522951
0.00214105
-0.00539129
-0.00555912
0.00218645
1.9192e-05
-8.03936e-05
7.8116e-05
-0.000329215
0.000178184
-0.000666698
0.000317237
-0.00108005
0.000488158
-0.00154728
0.000679037
-0.00203848
0.000875241
-0.00252112
0.00106264
-0.00296693
0.00123053
-0.00335742
0.00137315
-0.00368578
0.00148959
-0.00395542
0.00158251
-0.00417644
0.00165653
-0.00436172
0.00171674
-0.00452391
0.00176766
-0.00467358
0.00181286
-0.00481859
0.00185482
-0.00496427
0.00189513
-0.00511387
0.00193471
-0.00526909
0.00197399
-0.00543058
-0.00559778
0.00201266
2.11002e-05
-0.000101494
8.43786e-05
-0.000392494
0.000189632
-0.000771952
0.000332522
-0.00122294
0.000503528
-0.00171828
0.000688889
-0.00222384
0.000873435
-0.00270566
0.00104402
-0.00313752
0.00119199
-0.00350539
0.00131394
-0.00380773
0.0014109
-0.00405239
0.00148675
-0.00425228
0.0015465
-0.00442147
0.00159502
-0.00457243
0.00163632
-0.00471488
0.00167333
-0.00485559
0.00170796
-0.0049989
0.00174139
-0.0051473
0.00177425
-0.00530195
0.00180677
-0.0054631
-0.00562964
0.00183863
2.29327e-05
-0.000124426
9.01173e-05
-0.000459678
0.000199496
-0.000881331
0.000344421
-0.00136786
0.000513118
-0.00188698
0.000690469
-0.00240119
0.000861415
-0.00287661
0.0010143
-0.0032904
0.00114268
-0.00363377
0.00124529
-0.00391034
0.00132472
-0.00413181
0.00138558
-0.00431314
0.00143294
-0.00446883
0.00147126
-0.00461076
0.00150398
-0.00474759
0.00153341
-0.00488503
0.00156105
-0.00502654
0.00158772
-0.00517398
0.00161386
-0.00532809
0.00163956
-0.0054888
-0.0056546
0.00166452
2.46464e-05
-0.000149073
9.51812e-05
-0.000530213
0.000207496
-0.000993646
0.000352598
-0.00151296
0.000516736
-0.00205112
0.000683983
-0.00256844
0.000839979
-0.00303261
0.000974886
-0.00342531
0.00108445
-0.00374333
0.00116925
-0.00399514
0.001233
-0.00419556
0.00128069
-0.00436083
0.00131718
-0.00450532
0.00134643
-0.00464002
0.00137128
-0.00477244
0.00139356
-0.00490731
0.00141437
-0.00504735
0.00143432
-0.00519393
0.00145369
-0.00534746
0.00147251
-0.00550761
-0.0056726
0.0014905
2.61991e-05
-0.000175272
9.94327e-05
-0.000603447
0.000213404
-0.00110762
0.000356844
-0.0016564
0.000514394
-0.00220867
0.000669882
-0.00272393
0.000810113
-0.00317284
0.00092724
-0.00354243
0.00101904
-0.00383513
0.0010876
-0.0040637
0.00113738
-0.00424534
0.00117343
-0.00439689
0.00120025
-0.00453214
0.00122124
-0.00466101
0.00123871
-0.0047899
0.00125407
-0.00492267
0.00126813
-0.00506142
0.00128135
-0.00520715
0.0012939
-0.00536002
0.00130576
-0.00551946
-0.00568356
0.00131672
2.7551e-05
-0.000202823
0.000102754
-0.00067865
0.000217055
-0.00122192
0.000357075
-0.00179642
0.000506287
-0.00235788
0.000648794
-0.00286644
0.000772906
-0.00329695
0.000872797
-0.00364232
0.000948044
-0.00391038
0.00100188
-0.00411754
0.00103918
-0.00428264
0.00106485
-0.00442255
0.00108291
-0.0045502
0.00109622
-0.00467432
0.00110662
-0.00480031
0.00111519
-0.00493124
0.00112254
-0.00506876
0.00112897
-0.00521358
0.00113463
-0.00536567
0.00113945
-0.00552428
-0.00568745
0.00114334
2.86666e-05
-0.000231489
0.000105053
-0.000755036
0.000218354
-0.00133522
0.000353333
-0.0019314
0.000492761
-0.00249731
0.000621466
-0.00299514
0.000729479
-0.00340496
0.000812908
-0.00372575
0.000872851
-0.00397032
0.000913361
-0.00415805
0.000939456
-0.00430873
0.000955732
-0.00443883
0.000965709
-0.00456018
0.00097175
-0.00468036
0.000975286
-0.00480384
0.000977132
-0.00493308
0.000977735
-0.00506937
0.000977331
-0.00521318
0.00097601
-0.00536435
0.000973727
-0.005522
-0.0056842
0.000970475
2.9516e-05
-0.000261005
0.000106263
-0.000831783
0.00021727
-0.00144623
0.000345763
-0.0020599
0.00047427
-0.00262581
0.000588709
-0.00310958
0.000680922
-0.00349717
0.000748796
-0.00379363
0.000794659
-0.00401618
0.000823086
-0.00418648
0.000839035
-0.00432468
0.0008467
-0.00444649
0.000849097
-0.00456257
0.000848136
-0.0046794
0.000844923
-0.00480063
0.000840062
-0.00492822
0.000833887
-0.00506319
0.000826573
-0.00520587
0.000818188
-0.00535597
0.000808702
-0.00551252
-0.00567371
0.000798211
3.00753e-05
-0.000291081
0.000106349
-0.000908057
0.000213838
-0.00155371
0.000334598
-0.00218066
0.000451344
-0.00274256
0.000551347
-0.00320958
0.000628261
-0.00357409
0.000681547
-0.00384691
0.000714477
-0.00404911
0.000731902
-0.0042039
0.000738569
-0.00433135
0.000738223
-0.00444615
0.0007334
-0.00455775
0.000725621
-0.00467162
0.000715723
-0.00479073
0.000704148
-0.00491665
0.000691142
-0.00505018
0.000676842
-0.00519157
0.000661306
-0.00534043
0.00064452
-0.00549573
-0.00565581
0.000626624
3.03281e-05
-0.000321409
0.000105301
-0.00098303
0.000208147
-0.00165656
0.000320138
-0.00229265
0.000424552
-0.00284698
0.000510187
-0.00329522
0.000572435
-0.00363634
0.000612101
-0.00388658
0.000633141
-0.00407015
0.000640485
-0.00421125
0.000638566
-0.00432943
0.000630665
-0.00443825
0.000618883
-0.00454597
0.00060441
-0.00465715
0.000587865
-0.00477419
0.000569563
-0.00489834
0.000549676
-0.0050303
0.000528299
-0.00517019
0.000505504
-0.00531764
0.000481325
-0.00547155
-0.00563029
0.0004558
3.02648e-05
-0.000351674
0.00010314
-0.0010559
0.000200333
-0.00175375
0.000302726
-0.00239504
0.000394474
-0.00293872
0.000465988
-0.00336673
0.000514278
-0.00368463
0.000541257
-0.00391356
0.000551338
-0.00408023
0.000549373
-0.00420928
0.00053942
-0.00431948
0.000524312
-0.00442314
0.00050576
-0.00452742
0.000484681
-0.00463607
0.000461523
-0.00475103
0.000436498
-0.00487332
0.000409712
-0.00500351
0.000381202
-0.00514168
0.000350991
-0.00528742
0.000319173
-0.00543973
-0.00559706
0.000285946
2.98832e-05
-0.000381557
9.99051e-05
-0.00112593
0.000190567
-0.00184442
0.00028273
-0.0024872
0.000361676
-0.00301767
0.000419451
-0.00342451
0.000454521
-0.0037197
0.000469687
-0.00392872
0.000469623
-0.00408017
0.00045899
-0.00419865
0.000441443
-0.00430193
0.00041939
-0.00440109
0.000394209
-0.00450223
0.00036659
-0.00460845
0.000336849
-0.00472129
0.000305126
-0.0048416
0.000271484
-0.00496987
0.000235934
-0.00510613
0.00019837
-0.00524986
0.000158178
-0.00539954
-0.00555581
0.000116926
2.91875e-05
-0.000410744
9.56592e-05
-0.0011924
0.000179044
-0.0019278
0.000260528
-0.00256869
0.000326698
-0.00308384
0.000371203
-0.00346901
0.000393793
-0.00374229
0.000397947
-0.00393288
0.000388443
-0.00407067
0.000369672
-0.00417988
0.000344878
-0.00427714
0.000316085
-0.00437229
0.000284382
-0.00447053
0.000250278
-0.00457435
0.000213981
-0.00468499
0.000175575
-0.00480319
0.000135132
-0.00492943
9.26223e-05
-0.00506362
4.84276e-05
-0.00520567
2.92729e-06
-0.00535404
-0.0055027
-5.01833e-05
2.81877e-05
-0.000438932
9.04788e-05
-0.00125469
0.000165975
-0.0020033
0.000236491
-0.0026392
0.000290039
-0.00313739
0.0003218
-0.00350077
0.000332628
-0.00375312
0.000326495
-0.00392675
0.000308156
-0.00405233
0.000281683
-0.00415341
0.000249921
-0.00424537
0.000214548
-0.00433692
0.000176414
-0.0044324
0.00013588
-0.00453382
9.30586e-05
-0.00464217
4.79575e-05
-0.00475809
5.40691e-07
-0.00488201
-4.87891e-05
-0.00501429
-0.00010032
-0.00515413
-0.000154832
-0.00529953
-0.00544786
-0.000209669
2.68989e-05
-0.000465831
8.44515e-05
-0.00131224
0.000151575
-0.00207042
0.000210974
-0.0026986
0.000252154
-0.00317857
0.000271726
-0.00352034
0.000271474
-0.00375286
0.000255702
-0.00391097
0.000229047
-0.00402567
0.000195233
-0.00411959
0.000156729
-0.00420687
0.000114911
-0.0042951
7.042e-05
-0.00438791
2.3502e-05
-0.0044869
-2.57772e-05
-0.00459289
-7.7437e-05
-0.00470643
-0.000131439
-0.00482801
-0.000187876
-0.00495785
-0.000246682
-0.00509533
-0.000307768
-0.00523844
-0.00538557
-0.000370055
2.53405e-05
-0.000491171
7.76724e-05
-0.00136457
0.00013606
-0.00212881
0.00018431
-0.00274685
0.000213448
-0.0032077
0.000221397
-0.00352829
0.000210703
-0.00374217
0.000185871
-0.00388614
0.000151343
-0.00399114
0.000110492
-0.00407874
6.54265e-05
-0.0041618
1.72613e-05
-0.00424694
-3.34908e-05
-0.00433715
-8.66995e-05
-0.00443369
-0.000142384
-0.0045372
-0.000200593
-0.00464822
-0.000261352
-0.00476725
-0.000324668
-0.00489454
-0.000390438
-0.00502956
-0.000458406
-0.00517048
-0.00531559
-0.000528384
2.35348e-05
-0.000514706
7.02403e-05
-0.00141128
0.000119637
-0.00217821
0.000156806
-0.00278402
0.00017428
-0.00322518
0.000171164
-0.00352518
0.000150618
-0.00372162
0.000117237
-0.00385276
7.52419e-05
-0.00394915
2.75784e-05
-0.00403108
-2.38801e-05
-0.00411035
-7.82443e-05
-0.00419257
-0.000135194
-0.0042802
-0.00019465
-0.00437423
-0.00025667
-0.00447518
-0.000321353
-0.00458354
-0.000388774
-0.00469983
-0.000458922
-0.00482439
-0.000531666
-0.00495681
-0.000606789
-0.00509535
-0.00523816
-0.000684225
2.15069e-05
-0.000536213
6.22549e-05
-0.00145203
0.000102504
-0.00221846
0.000128739
-0.00281025
0.000134962
-0.0032314
0.000121329
-0.00351154
9.14762e-05
-0.00369177
4.99771e-05
-0.00381126
7.23595e-07
-0.0038999
-5.3397e-05
-0.00397696
-0.000111069
-0.00405267
-0.000171565
-0.00413208
-0.000234626
-0.00421714
-0.00030024
-0.00430862
-0.000368507
-0.00440691
-0.000439572
-0.00451247
-0.000513551
-0.00462585
-0.000590455
-0.00474748
-0.000670147
-0.00487712
-0.00075241
-0.00501309
-0.0051534
-0.000837165
1.92843e-05
-0.000555498
5.38148e-05
-0.00148656
8.48477e-05
-0.00224949
0.000100361
-0.00282577
9.57626e-05
-0.0032268
7.21377e-05
-0.00348792
3.34864e-05
-0.00365312
-1.56868e-05
-0.00376209
-7.16994e-05
-0.00384388
-0.000132287
-0.00391637
-0.000196095
-0.00398886
-0.000262613
-0.00406556
-0.000331691
-0.00414807
-0.000403367
-0.00423694
-0.000477777
-0.0043325
-0.000555108
-0.00443514
-0.000635528
-0.00454543
-0.000719093
-0.00466392
-0.00080568
-0.00479053
-0.000895028
-0.00492374
-0.00506144
-0.000986988
1.68974e-05
-0.000572395
4.5016e-05
-0.00151468
6.68403e-05
-0.00227131
7.18927e-05
-0.00283082
5.69107e-05
-0.00321182
2.38159e-05
-0.00345482
-2.31923e-05
-0.00360611
-7.96921e-05
-0.00370559
-0.000142338
-0.00378124
-0.000209089
-0.00384962
-0.000278886
-0.00391907
-0.000351319
-0.00399313
-0.000426311
-0.00407307
-0.00050394
-0.00415932
-0.000584371
-0.00425207
-0.000667831
-0.00435168
-0.000754545
-0.00445871
-0.00084464
-0.00457382
-0.000938024
-0.00469715
-0.00103437
-0.00482739
-0.0049624
-0.00113342
1.43838e-05
-0.000586779
3.59556e-05
-0.00153625
4.86439e-05
-0.002284
4.35305e-05
-0.00282571
1.86671e-05
-0.00318696
-2.34976e-05
-0.00341266
-7.8439e-05
-0.00355117
-0.000141944
-0.00364208
-0.00021097
-0.00371221
-0.000283732
-0.00377686
-0.000359381
-0.00384342
-0.000437615
-0.00391489
-0.000518411
-0.00399228
-0.000601873
-0.00407585
-0.000688189
-0.00416576
-0.000777617
-0.00426226
-0.000870446
-0.00436588
-0.000966895
-0.00447738
-0.00106693
-0.00459711
-0.00117018
-0.00472414
-0.00485641
-0.00127616
1.17731e-05
-0.000598552
2.67249e-05
-0.0015512
3.04032e-05
-0.00228768
1.55319e-05
-0.00281084
-1.89359e-05
-0.00315249
-6.96861e-05
-0.00336191
-0.000132157
-0.0034887
-0.000202363
-0.00357188
-0.000277544
-0.00363703
-0.000356162
-0.00369824
-0.000437532
-0.00376205
-0.000521448
-0.00383098
-0.000607927
-0.0039058
-0.000697093
-0.00398669
-0.000789144
-0.00407371
-0.000884361
-0.00416704
-0.000983091
-0.00426715
-0.00108566
-0.00437481
-0.00119214
-0.00449063
-0.00130211
-0.00461417
-0.00474364
-0.00141489
9.07714e-06
-0.000607629
1.74055e-05
-0.00155953
1.22928e-05
-0.00228257
-1.21379e-05
-0.00278641
-5.57674e-05
-0.00310886
-0.000114629
-0.00330305
-0.000184266
-0.00341906
-0.000260892
-0.00349525
-0.000342021
-0.0035559
-0.000426336
-0.00361393
-0.000513295
-0.00367509
-0.000602768
-0.0037415
-0.000694803
-0.00381376
-0.000789537
-0.00389195
-0.000887169
-0.00397607
-0.000987986
-0.00406622
-0.00109238
-0.00416276
-0.00120077
-0.00426641
-0.00131341