/*--------------------------------*- C++ -*----------------------------------*\
  =========                 |
  \\      /  F ield         | OpenFOAM: The Open Source CFD Toolbox
   \\    /   O peration     | Website:  https://openfoam.org
    \\  /    A nd           | Version:  7
     \\/     M anipulation  |
\*---------------------------------------------------------------------------*/
FoamFile
{
    version     2.0;
    format      ascii;
    class       volScalarField;
    location    "35";
    object      p;
}
// * * * * * * * * * * * * * * * * * * * * * * * * * * * * * * * * * * * * * //

dimensions      [0 2 -2 0 0 0 0];

internalField   nonuniform List<scalar> 
183
(
0.191844
0.204573
0.222259
0.216806
0.242194
0.234866
0.228491
0.255023
0.246854
0.239578
0.276615
0.267144
0.258164
0.250017
0.288767
0.278494
0.268743
0.259762
0.300035
0.289015
0.278536
0.268768
0.32235
0.310359
0.298651
0.287497
0.276993
0.332354
0.319683
0.307353
0.295579
0.284402
0.341234
0.327958
0.315072
0.302744
0.29096
0.348939
0.335138
0.321769
0.308953
0.296638
0.370087
0.355427
0.341183
0.327406
0.314177
0.301409
0.375716
0.360663
0.34606
0.331954
0.318388
0.305253
0.379966
0.364616
0.349742
0.335387
0.321566
0.382813
0.367264
0.352209
0.337687
0.323695
0.384242
0.368592
0.353447
0.338841
0.324763
0.384244
0.368594
0.353448
0.338842
0.324765
0.382818
0.367268
0.352214
0.337692
0.323701
0.379973
0.364622
0.349749
0.335395
0.321576
0.308168
0.375725
0.360671
0.346069
0.331964
0.318402
0.305275
0.370098
0.355437
0.341193
0.327418
0.314193
0.301437
0.348948
0.335147
0.321781
0.30897
0.29667
0.341241
0.327966
0.315083
0.302761
0.290996
0.332357
0.319688
0.30736
0.295595
0.284439
0.322346
0.310357
0.298654
0.287508
0.27703
0.300024
0.289009
0.278541
0.2688
0.288743
0.278477
0.268737
0.259788
0.276575
0.267111
0.258144
0.250033
0.254969
0.246814
0.239578
0.242112
0.2348
0.228469
0.222158
0.216753
0.204479
0.191696
0.123519
0.103014
0.0818082
0.06538
0.0487008
0.0394779
0.0328328
0.0225309
0.0131016
0.01128
0.01009
0.00394982
-0.00101938
-0.00508917
-0.00621318
-0.00439273
-0.00835547
-0.0106437
-0.0121082
-0.00732944
-0.0128786
0.144929
0.145621
0.124575
0.103732
0.0834845
0.0635359
0.0519682
0.0418062
0.0304921
0.0180188
0.0182157
0.00594601
0.00661374
-0.00147384
-0.00237102
-0.00305874
-0.00283982
-0.00547115
-0.00945901
-0.00980447
-0.00703271
-0.00800369
-0.0112998
)
;

boundaryField
{
    inlet
    {
        type            zeroGradient;
    }
    outlet
    {
        type            fixedValue;
        value           nonuniform 0();
    }
    cylinder
    {
        type            zeroGradient;
    }
    top
    {
        type            symmetryPlane;
    }
    bottom
    {
        type            symmetryPlane;
    }
    defaultFaces
    {
        type            empty;
    }
    procBoundary3to2
    {
        type            processor;
        value           nonuniform List<scalar> 
82
(
0.171949
0.177998
0.183765
0.189234
0.194388
0.199213
0.203691
0.207811
0.211558
0.214921
0.217889
0.220453
0.222605
0.308151
0.224337
0.308151
0.310092
0.311067
0.31107
0.310103
0.310103
0.225728
0.224453
0.222754
0.220637
0.218108
0.215176
0.211849
0.208139
0.204057
0.199616
0.19483
0.189714
0.184282
0.178552
0.172538
0.137177
0.116298
0.0999832
0.0854961
0.0718357
0.0607531
0.053289
0.0458107
0.0373223
0.0316147
0.0289117
0.0253692
0.0208437
0.0156415
0.0128966
0.0126477
0.0107525
0.00710926
0.00572786
0.00774281
0.00460713
0.152198
0.152257
0.152919
0.152379
0.137343
0.116939
0.101011
0.0852653
0.0723127
0.0628107
0.0533234
0.0438311
0.0374318
0.0306236
0.0260436
0.0205626
0.0165099
0.0146535
0.0145807
0.0128993
0.00933285
0.00806283
0.00950834
0.00898509
0.00638207
)
;
    }
    procBoundary3to4
    {
        type            processor;
        value           nonuniform List<scalar> 
90
(
0.136721
0.178673
0.195421
0.209091
0.209091
0.228719
0.228719
0.249916
0.263642
0.263642
0.28616
0.29919
0.311275
0.311275
0.334543
0.345291
0.354832
0.363113
0.363113
0.385135
0.39119
0.395762
0.398827
0.400364
0.400366
0.398832
0.395772
0.391201
0.385148
0.363123
0.363123
0.35484
0.345294
0.33454
0.311261
0.311261
0.299163
0.286115
0.26358
0.26358
0.249826
0.228602
0.228602
0.208945
0.208945
0.195217
0.178454
0.136095
0.109918
0.0726006
0.0489535
0.0306784
0.0186725
0.0110061
0.00136311
-0.00406113
-0.00853016
-0.0083181
-0.0141928
-0.0169059
-0.0199206
-0.0170789
-0.0187468
-0.0178067
-0.023245
-0.0172607
-0.0202733
-0.0177991
-0.0192982
0.109306
0.0704741
0.0468151
0.0293134
0.017954
0.00547242
0.000189412
-0.00655146
-0.00614114
-0.0114413
-0.0113886
-0.0131473
-0.0127256
-0.0136148
-0.017639
-0.0191907
-0.0190114
-0.0195874
-0.0207315
-0.0213796
-0.0204691
)
;
    }
}


// ************************************************************************* //
