/*--------------------------------*- C++ -*----------------------------------*\
  =========                 |
  \\      /  F ield         | OpenFOAM: The Open Source CFD Toolbox
   \\    /   O peration     | Website:  https://openfoam.org
    \\  /    A nd           | Version:  7
     \\/     M anipulation  |
\*---------------------------------------------------------------------------*/
FoamFile
{
    version     2.0;
    format      ascii;
    class       surfaceScalarField;
    location    "15";
    object      phi;
}
// * * * * * * * * * * * * * * * * * * * * * * * * * * * * * * * * * * * * * //

dimensions      [0 3 -1 0 0 0 0];

internalField   nonuniform List<scalar> 
79480
(
-7.91995e-07
7.91631e-07
3.64442e-10
-3.04656e-06
2.25349e-06
1.07275e-09
-6.70755e-06
3.6592e-06
1.78512e-09
-1.17183e-05
5.0082e-06
2.49684e-09
-1.80208e-05
6.29933e-06
3.20315e-09
-2.55566e-05
7.53192e-06
3.89983e-09
-3.4267e-05
8.70582e-06
4.58346e-09
-4.40937e-05
9.8214e-06
5.25166e-09
-5.49791e-05
1.08796e-05
5.90339e-09
-6.68675e-05
1.18819e-05
6.53919e-09
-7.97052e-05
1.28305e-05
7.16132e-09
-9.3441e-05
1.37281e-05
7.77376e-09
-0.000108028
1.45781e-05
8.38221e-09
-0.000123421
1.53845e-05
8.99372e-09
-0.000139582
1.61517e-05
9.61649e-09
-0.000156477
1.68848e-05
1.02594e-08
-0.000174078
1.759e-05
1.09313e-08
-0.000192364
1.82745e-05
1.1641e-08
-0.000211324
1.89473e-05
1.23961e-08
-0.000230957
1.962e-05
1.32031e-08
-0.000251279
2.03077e-05
1.40668e-08
-0.000272324
2.10298e-05
1.49905e-08
-0.000294152
2.1812e-05
1.59753e-08
-0.000316855
2.26865e-05
1.70206e-08
-0.000340567
2.36932e-05
1.81236e-08
-0.000365466
2.48798e-05
1.92799e-08
-0.000391786
2.62994e-05
2.04828e-08
-0.000419812
2.80049e-05
2.17235e-08
-0.000449885
3.00495e-05
2.29897e-08
3.25273e-05
2.42637e-08
-0.000482436
-7.85439e-07
1.57707e-06
-3.02203e-06
4.49008e-06
-6.65458e-06
7.29175e-06
-1.16271e-05
9.98077e-06
-1.78824e-05
1.25546e-05
-2.53624e-05
1.50118e-05
-3.40085e-05
1.73519e-05
-4.37625e-05
1.95754e-05
-5.45669e-05
2.1684e-05
-6.63655e-05
2.36805e-05
-7.91041e-05
2.5569e-05
-9.2731e-05
2.7355e-05
-0.000107198
2.90448e-05
-0.000122459
3.0646e-05
-0.000138475
3.21672e-05
-0.000155208
3.36185e-05
-0.00017263
3.50114e-05
-0.000190715
3.636e-05
-0.00020945
3.76815e-05
-0.000228828
3.89982e-05
-0.000248859
4.03392e-05
-0.000269572
4.17425e-05
-0.000291018
4.32578e-05
-0.00031328
4.4949e-05
-0.000336482
4.68949e-05
-0.000360792
4.91903e-05
-0.000386435
5.19421e-05
-0.000413687
5.52567e-05
-0.000442878
5.92408e-05
6.40809e-05
-0.000474432
-7.72462e-07
2.34953e-06
-2.97345e-06
6.69107e-06
-6.54964e-06
1.08679e-05
-1.14466e-05
1.48777e-05
-1.76082e-05
1.87162e-05
-2.49772e-05
2.23808e-05
-3.34956e-05
2.58703e-05
-4.31053e-05
2.91851e-05
-5.37485e-05
3.23272e-05
-6.53685e-05
3.53005e-05
-7.791e-05
3.81106e-05
-9.132e-05
4.0765e-05
-0.000105548
4.32728e-05
-0.000120547
4.56447e-05
-0.000136272
4.78928e-05
-0.000152685
5.00311e-05
-0.000169749
5.20759e-05
-0.000187436
5.40467e-05
-0.000205722
5.59677e-05
-0.000224594
5.78701e-05
-0.00024405
5.97949e-05
-0.000264104
6.17965e-05
-0.000284793
6.39467e-05
-0.000306182
6.63381e-05
-0.000328375
6.90874e-05
-0.00035152
7.23356e-05
-0.000375822
7.6244e-05
-0.00040154
8.09746e-05
-0.000428987
8.66886e-05
9.3663e-05
-0.000458569
-7.53333e-07
3.10286e-06
-2.9018e-06
8.83954e-06
-6.39475e-06
1.43609e-05
-1.11799e-05
1.96629e-05
-1.72029e-05
2.47392e-05
-2.44076e-05
2.95855e-05
-3.27367e-05
3.41994e-05
-4.21322e-05
3.85807e-05
-5.25361e-05
4.27311e-05
-6.38907e-05
4.6655e-05
-7.61392e-05
5.03591e-05
-8.92266e-05
5.38524e-05
-0.0001031
5.71458e-05
-0.000117707
6.02524e-05
-0.000133001
6.31869e-05
-0.000148936
6.59662e-05
-0.00016547
6.86099e-05
-0.000182565
7.11412e-05
-0.000200186
7.35893e-05
-0.000218308
7.59917e-05
-0.000236912
7.83986e-05
-0.000255992
8.08772e-05
-0.000275563
8.35177e-05
-0.000295664
8.64385e-05
-0.000316368
8.97911e-05
-0.000337794
9.3762e-05
-0.000360118
9.85677e-05
-0.000383573
0.00010443
-0.000408452
0.000111567
0.000120346
-0.000435135
-7.28452e-07
3.83132e-06
-2.8085e-06
1.09196e-05
-6.19289e-06
1.77453e-05
-1.08321e-05
2.43021e-05
-1.66738e-05
3.05809e-05
-2.36633e-05
3.6575e-05
-3.17441e-05
4.22803e-05
-4.08585e-05
4.76951e-05
-5.09478e-05
5.28204e-05
-6.19531e-05
5.76603e-05
-7.38157e-05
6.22218e-05
-8.64779e-05
6.65146e-05
-9.98827e-05
7.05507e-05
-0.000113975
7.43444e-05
-0.0001287
7.7912e-05
-0.000144005
8.12719e-05
-0.000159841
8.4445e-05
-0.000176156
8.74566e-05
-0.000192905
9.03377e-05
-0.000210042
9.31294e-05
-0.00022753
9.58868e-05
-0.000245339
9.86856e-05
-0.000263451
0.00010163
-0.000281871
0.000104859
-0.000300635
0.000108555
-0.000319822
0.000112949
-0.000339567
0.000118313
-0.000360074
0.000124937
-0.000381607
0.000133101
0.000143265
-0.000404526
-6.98333e-07
4.52965e-06
-2.6954e-06
1.29167e-05
-5.94792e-06
2.09978e-05
-1.04095e-05
2.87636e-05
-1.60301e-05
3.62015e-05
-2.27568e-05
4.33017e-05
-3.0534e-05
5.00575e-05
-3.93038e-05
5.64649e-05
-4.90069e-05
6.25234e-05
-5.95828e-05
6.82362e-05
-7.09705e-05
7.36095e-05
-8.31088e-05
7.86529e-05
-9.59365e-05
8.33784e-05
-0.000109393
8.78005e-05
-0.000123416
9.19356e-05
-0.000137946
9.58018e-05
-0.000152921
9.94198e-05
-0.000168278
0.000102814
-0.000183955
0.000106014
-0.000199887
0.000109062
-0.000216012
0.000112011
-0.000232269
0.000114942
-0.000248605
0.000117966
-0.000264983
0.000121237
-0.00028139
0.000124963
-0.000297856
0.000129414
-0.000314469
0.000134926
-0.000331392
0.00014186
-0.000348863
0.000150571
0.000161625
-0.000367223
-6.63598e-07
5.19325e-06
-2.56474e-06
1.48178e-05
-5.66448e-06
2.40975e-05
-9.91977e-06
3.30189e-05
-1.52832e-05
4.1565e-05
-2.17034e-05
4.9722e-05
-2.91256e-05
5.74796e-05
-3.74917e-05
6.4831e-05
-4.67415e-05
7.17732e-05
-5.68125e-05
7.83072e-05
-6.76409e-05
8.44379e-05
-7.91615e-05
9.01734e-05
-9.1308e-05
9.55249e-05
-0.000104013
0.000100506
-0.000117208
0.00010513
-0.000130822
0.000109416
-0.000144782
0.00011338
-0.00015901
0.000117043
-0.000173427
0.000120431
-0.000187945
0.00012358
-0.000202475
0.000126541
-0.000216921
0.000129389
-0.000231191
0.000132235
-0.000245196
0.000135242
-0.00025887
0.000138636
-0.000272179
0.000142724
-0.000285155
0.000147901
-0.000297914
0.000154619
-0.000310665
0.000163323
0.0001747
-0.000323741
-6.24956e-07
5.8182e-06
-2.41908e-06
1.66119e-05
-5.3479e-06
2.70263e-05
-9.37184e-06
3.70429e-05
-1.4446e-05
4.66391e-05
-2.05205e-05
5.57965e-05
-2.75411e-05
6.45002e-05
-3.54495e-05
7.27394e-05
-4.4184e-05
8.05077e-05
-5.36798e-05
8.7803e-05
-6.38696e-05
9.46277e-05
-7.46838e-05
0.000100988
-8.60503e-05
0.000106891
-9.78948e-05
0.00011235
-0.00011014
0.000117375
-0.000122704
0.00012198
-0.000135501
0.000126177
-0.000148438
0.00012998
-0.000161416
0.000133409
-0.000174324
0.000136488
-0.000187042
0.000139259
-0.00019944
0.000141786
-0.000211377
0.000144173
-0.000222713
0.000146578
-0.000233314
0.000149237
-0.000243078
0.000152488
-0.000251962
0.000156786
-0.000260032
0.000162689
-0.000267466
0.000170756
0.000181821
-0.000274587
-5.8319e-07
6.40139e-06
-2.26122e-06
1.829e-05
-5.00406e-06
2.97692e-05
-8.77542e-06
4.08142e-05
-1.35327e-05
5.13964e-05
-1.92273e-05
6.14911e-05
-2.58051e-05
7.1078e-05
-3.32072e-05
8.01415e-05
-4.137e-05
8.86704e-05
-5.02258e-05
9.66589e-05
-5.97035e-05
0.000104105
-6.97282e-05
0.000111012
-8.02216e-05
0.000117385
-9.11012e-05
0.00012323
-0.00010228
0.000128554
-0.000113666
0.000133366
-0.000125159
0.000137669
-0.00013665
0.000141471
-0.000148018
0.000144777
-0.00015913
0.0001476
-0.000169834
0.000149963
-0.00017996
0.000151913
-0.000189322
0.000153535
-0.000197719
0.000154974
-0.000204945
0.000156463
-0.000210816
0.000158358
-0.000215205
0.000161175
-0.000218111
0.000165595
-0.000219679
0.000172325
0.000182351
-0.00022021
-5.39138e-07
6.94053e-06
-2.0942e-06
1.9845e-05
-4.63926e-06
3.23143e-05
-8.14098e-06
4.43159e-05
-1.25586e-05
5.5814e-05
-1.78443e-05
6.67768e-05
-2.39439e-05
7.71776e-05
-3.0797e-05
8.69945e-05
-3.83376e-05
9.62111e-05
-4.64948e-05
0.000104816
-5.51926e-05
0.000112803
-6.43505e-05
0.00012017
-7.38829e-05
0.000126917
-8.36989e-05
0.000133046
-9.37015e-05
0.000138557
-0.000103786
0.00014345
-0.000113838
0.000147721
-0.000123731
0.000151364
-0.000133325
0.000154371
-0.00014246
0.000156735
-0.000150953
0.000158457
-0.000158598
0.000159557
-0.000165156
0.000160093
-0.000170364
0.000160182
-0.00017394
0.00016004
-0.000175607
0.000160025
-0.000175136
0.000160705
-0.000172445
0.000162904
-0.000167645
0.000167525
0.000175665
-0.000160959
-4.93669e-07
7.4342e-06
-1.92113e-06
2.12725e-05
-4.26005e-06
3.46532e-05
-7.47939e-06
4.75353e-05
-1.15396e-05
5.98742e-05
-1.63932e-05
7.16304e-05
-2.19848e-05
8.27693e-05
-2.82522e-05
9.32619e-05
-3.51264e-05
0.000103085
-4.25323e-05
0.000112222
-5.03884e-05
0.000120659
-5.86078e-05
0.000128389
-6.70967e-05
0.000135406
-7.5755e-05
0.000141704
-8.44743e-05
0.000147276
-9.3137e-05
0.000152113
-0.000101614
0.000156198
-0.000109761
0.000159511
-0.000117416
0.000162026
-0.000124394
0.000163713
-0.000130483
0.000164545
-0.000135434
0.000164509
-0.000138963
0.000163622
-0.000140742
0.000161961
-0.000140406
0.000159704
-0.000137577
0.000157195
-0.000131907
0.000155035
-0.000123205
0.000154202
-0.000111587
0.000155907
0.000161173
-9.70946e-05
-4.47665e-07
7.88187e-06
-1.74521e-06
2.257e-05
-3.87304e-06
3.6781e-05
-6.80165e-06
5.04639e-05
-1.04919e-05
6.35645e-05
-1.48955e-05
7.6034e-05
-1.99555e-05
8.78293e-05
-2.56068e-05
9.89132e-05
-3.17765e-05
0.000109255
-3.83843e-05
0.00011883
-4.53427e-05
0.000127618
-5.2557e-05
0.000135604
-5.99247e-05
0.000142774
-6.73349e-05
0.000149114
-7.46672e-05
0.000154609
-8.17898e-05
0.000159235
-8.85573e-05
0.000162965
-9.48069e-05
0.000165761
-0.000100355
0.000167574
-0.000104991
0.000168349
-0.000108471
0.000168025
-0.00011051
0.000166548
-0.000110773
0.000163885
-0.00010887
0.000160058
-0.000104353
0.000155187
-9.67326e-05
0.000149575
-8.55232e-05
0.000143826
-7.03552e-05
0.000139034
-5.13765e-05
0.000136928
0.000139071
-2.92743e-05
-4.01998e-07
8.28386e-06
-1.56955e-06
2.37376e-05
-3.48479e-06
3.86962e-05
-6.11862e-06
5.30977e-05
-9.43127e-06
6.68771e-05
-1.33727e-05
7.99754e-05
-1.78833e-05
9.23398e-05
-2.28939e-05
0.000103924
-2.83269e-05
0.000114688
-3.40957e-05
0.000124599
-4.01057e-05
0.000133628
-4.62532e-05
0.000141751
-5.24255e-05
0.000148946
-5.85001e-05
0.000155189
-6.43428e-05
0.000160451
-6.98062e-05
0.000164699
-7.4727e-05
0.000167886
-7.89225e-05
0.000169956
-8.21856e-05
0.000170837
-8.42792e-05
0.000170442
-8.49282e-05
0.000168674
-8.381e-05
0.00016543
-8.05429e-05
0.000160618
-7.46746e-05
0.000154189
-6.56737e-05
0.000146186
-5.29364e-05
0.000136837
-3.58268e-05
0.000126716
-1.3747e-05
0.000116954
1.37978e-05
0.000109383
0.000108515
4.43543e-05
-3.57503e-07
8.64137e-06
-1.39718e-06
2.47772e-05
-3.10156e-06
4.04006e-05
-5.44068e-06
5.54368e-05
-8.37287e-06
6.98093e-05
-1.18452e-05
8.34477e-05
-1.57939e-05
9.62885e-05
-2.0145e-05
0.000108275
-2.48144e-05
0.000119357
-2.97086e-05
0.000129493
-3.47239e-05
0.000138643
-3.97467e-05
0.000146774
-4.46525e-05
0.000153852
-4.93051e-05
0.000159841
-5.35548e-05
0.000164701
-5.72366e-05
0.00016838
-6.01671e-05
0.000170817
-6.21408e-05
0.00017193
-6.29253e-05
0.000171622
-6.22545e-05
0.000169772
-5.98205e-05
0.00016624
-5.52623e-05
0.000160872
-4.81521e-05
0.000153508
-3.79784e-05
0.000144016
-2.413e-05
0.000132338
-5.88756e-06
0.000118595
1.75474e-05
0.000103281
4.69385e-05
8.75632e-05
8.25639e-05
7.3758e-05
6.69923e-05
0.000124086
-3.14959e-07
8.95633e-06
-1.23086e-06
2.56932e-05
-2.7291e-06
4.18989e-05
-4.77738e-06
5.74851e-05
-7.33063e-06
7.23626e-05
-1.03315e-05
8.64486e-05
-1.3711e-05
9.9668e-05
-1.73885e-05
0.000111952
-2.12726e-05
0.000123241
-2.52607e-05
0.000133481
-2.92389e-05
0.000142621
-3.30817e-05
0.000150617
-3.6651e-05
0.000157421
-3.97946e-05
0.000162985
-4.23451e-05
0.000167251
-4.41168e-05
0.000170152
-4.4903e-05
0.000171603
-4.44721e-05
0.000171499
-4.25624e-05
0.000169712
-3.8875e-05
0.000166084
-3.30655e-05
0.000160431
-2.47319e-05
0.000152538
-1.33989e-05
0.000142175
1.50226e-06
0.000129115
2.06582e-05
0.000113182
4.48961e-05
9.43569e-05
7.51844e-05
7.29928e-05
0.00011251
5.02377e-05
0.000157544
2.87237e-05
1.44886e-05
0.000210048
-2.7506e-07
9.23139e-06
-1.07307e-06
2.64912e-05
-2.37253e-06
4.31983e-05
-4.1371e-06
5.92497e-05
-6.31668e-06
7.45422e-05
-8.84796e-06
8.89799e-05
-1.16549e-05
0.000102475
-1.4649e-05
0.000114947
-1.77294e-05
0.000126322
-2.07831e-05
0.000136535
-2.36841e-05
0.000145522
-2.62928e-05
0.000153226
-2.8455e-05
0.000159583
-3.00002e-05
0.00016453
-3.07396e-05
0.000167991
-3.04634e-05
0.000169876
-2.89375e-05
0.000170077
-2.58992e-05
0.000168461
-2.10518e-05
0.000164865
-1.40581e-05
0.000159091
-4.53084e-06
0.000150903
7.97865e-06
0.000140028
2.39972e-05
0.000126157
4.41521e-05
0.00010896
6.92011e-05
8.81327e-05
0.000100071
6.34871e-05
0.000137887
3.51766e-05
0.000183901
4.22389e-06
0.000239173
-2.65485e-05
-5.0109e-05
0.000303771
-2.38388e-07
9.46977e-06
-9.25856e-07
2.71786e-05
-2.03604e-06
4.43085e-05
-3.52668e-06
6.07403e-05
-5.34085e-06
7.63563e-05
-7.40745e-06
9.10465e-05
-9.64169e-06
0.000104709
-1.19452e-05
0.00011725
-1.42062e-05
0.000128583
-1.6299e-05
0.000138627
-1.80831e-05
0.000147306
-1.94027e-05
0.000154545
-2.00845e-05
0.000160265
-1.99363e-05
0.000164382
-1.87442e-05
0.000166799
-1.62697e-05
0.000167401
-1.22457e-05
0.000166053
-6.3722e-06
0.000162587
1.68935e-06
0.000156803
1.23232e-05
0.000148457
2.59678e-05
0.000137259
4.31277e-05
0.000122869
6.43891e-05
0.000104895
9.04424e-05
8.29063e-05
0.000122115
5.64599e-05
0.00016042
2.51823e-05
0.000206618
-1.10209e-05
0.000262211
-5.13697e-05
0.000328669
-9.30067e-05
-0.000128095
0.000406656
-2.05393e-07
9.67517e-06
-7.90758e-07
2.7764e-05
-1.72274e-06
4.52405e-05
-2.95111e-06
6.19687e-05
-4.41012e-06
7.78153e-05
-6.01895e-06
9.26554e-05
-7.68211e-06
0.000106372
-9.28945e-06
0.000118857
-1.07159e-05
0.000130009
-1.18208e-05
0.000139732
-1.2447e-05
0.000147933
-1.24191e-05
0.000154517
-1.15416e-05
0.000159388
-9.59657e-06
0.000162437
-6.34033e-06
0.000163543
-1.50009e-06
0.000162561
5.23054e-06
0.000159322
1.41965e-05
0.000153621
2.57873e-05
0.000145212
4.04441e-05
0.0001338
5.86682e-05
0.000119035
8.1032e-05
0.000100505
0.000108193
7.77344e-05
0.000140913
5.01859e-05
0.000180092
1.72806e-05
0.000226816
-2.15417e-05
0.000282446
-6.66508e-05
0.000348693
-0.000117617
0.000427414
-0.000171727
-0.000220855
0.000520173
-1.76365e-07
9.85153e-06
-6.68721e-07
2.82564e-05
-1.43443e-06
4.60062e-05
-2.41312e-06
6.29474e-05
-3.52807e-06
7.89303e-05
-4.68666e-06
9.3814e-05
-5.78055e-06
0.000107466
-6.68554e-06
0.000119762
-7.26096e-06
0.000130585
-7.34868e-06
0.00013982
-6.77159e-06
0.000147356
-5.33156e-06
0.000153077
-2.8069e-06
0.000156863
1.05075e-06
0.000158579
6.52016e-06
0.000158073
1.39149e-05
0.000155166
2.35881e-05
0.000149649
3.59386e-05
0.000141271
5.14171e-05
0.000129734
7.05333e-05
0.000114684
9.38646e-05
9.57034e-05
0.000122065
7.23043e-05
0.000155878
4.39216e-05
0.000196151
9.9132e-06
0.00024386
-3.04289e-05
0.000300156
-7.7838e-05
0.000366459
-0.000132954
0.000444614
-0.000195772
0.000536775
-0.000263888
-0.000329769
0.000645689
-1.51409e-07
1.00029e-05
-5.60003e-07
2.86649e-05
-1.17143e-06
4.66176e-05
-1.91287e-06
6.36888e-05
-2.6944e-06
7.97118e-05
-3.4093e-06
9.45289e-05
-3.93409e-06
0.000107991
-4.12802e-06
0.000119956
-3.83219e-06
0.000130289
-2.86796e-06
0.000138856
-1.03497e-06
0.000145523
1.89158e-06
0.000150151
6.16414e-06
0.000152591
1.20667e-05
0.000152677
1.99196e-05
0.00015022
3.00841e-05
0.000145002
4.29688e-05
0.000136764
5.90361e-05
0.000125204
7.88088e-05
0.000109961
0.000102878
9.06147e-05
0.00013191
6.66712e-05
0.000166656
3.75581e-05
0.00020796
2.61823e-06
0.000256766
-3.88931e-05
0.000314138
-8.78012e-05
0.000381285
-0.000144985
0.000459641
-0.00021131
0.00055109
-0.000287221
0.000657918
-0.000370716
-0.000456088
0.000784237
-1.30428e-07
1.01334e-05
-4.64097e-07
2.89986e-05
-9.32427e-07
4.70859e-05
-1.44774e-06
6.42042e-05
-1.90451e-06
8.01686e-05
-2.17953e-06
9.48039e-05
-2.13164e-06
0.000107943
-1.60087e-06
0.000119426
-4.07054e-07
0.000129095
1.65225e-06
0.000136796
4.80455e-06
0.00014237
9.30574e-06
0.000145649
1.54442e-05
0.000146452
2.35457e-05
0.000144575
3.39787e-05
0.000139787
4.71606e-05
0.00013182
6.35644e-05
0.000120361
8.37261e-05
0.000105042
0.000108252
8.54351e-05
0.000137826
6.10405e-05
0.000173218
3.12797e-05
0.000215286
-4.51048e-06
0.000264987
-4.70825e-05
0.000323373
-9.7279e-05
0.000391597
-0.000156026
0.000470921
-0.000224308
0.000562755
-0.000303144
0.000668906
-0.000393372
0.000791579
-0.000493389
-0.000600758
0.000936249
-1.13103e-07
1.02465e-05
-3.79684e-07
2.92652e-05
-7.14332e-07
4.74206e-05
-1.01202e-06
6.45018e-05
-1.14914e-06
8.03057e-05
-9.83432e-07
9.46382e-05
-3.53311e-07
0.000107313
9.23329e-07
0.000118149
3.05127e-06
0.000126967
6.26062e-06
0.000133587
1.08103e-05
0.000137821
1.69923e-05
0.000139467
2.51369e-05
0.000138308
3.56179e-05
0.000134094
4.88599e-05
0.000126545
6.53446e-05
0.000115335
8.5619e-05
0.000100086
0.000110303
8.03581e-05
0.000140096
5.56417e-05
0.000175787
2.53497e-05
0.000218256
-1.1189e-05
0.000268478
-5.47332e-05
0.000327526
-0.00010613
0.000396559
-0.000166312
0.000476814
-0.000236281
0.000569588
-0.000317082
0.000676228
-0.000409784
0.000798346
-0.00051549
0.000937843
-0.000632886
-0.000764208
0.00110129
-9.88885e-08
1.03454e-05
-3.04587e-07
2.94709e-05
-5.12224e-07
4.76282e-05
-5.96871e-07
6.45865e-05
-4.14232e-07
8.01231e-05
1.99735e-07
9.40242e-05
1.42988e-06
0.000106083
3.48387e-06
0.000116095
6.59474e-06
0.000123856
1.10244e-05
0.000129157
1.70682e-05
0.000131777
2.50597e-05
0.000131476
3.53773e-05
0.00012799
4.84504e-05
0.000121021
6.47675e-05
0.000110228
8.48835e-05
9.52193e-05
0.000109428
7.55412e-05
0.000139115
5.06715e-05
0.000174746
2.00107e-05
0.000217219
-1.71238e-05
0.000267532
-6.15012e-05
0.000326775
-0.000113976
0.000396129
-0.000175484
0.000476844
-0.000247027
0.000570214
-0.000329651
0.000677537
-0.000424404
0.000800051
-0.000532298
0.000939036
-0.000654475
0.00109594
-0.000789793
-0.000946097
0.00127783
-8.70046e-08
1.04324e-05
-2.35778e-07
2.96197e-05
-3.19347e-07
4.77118e-05
-1.9027e-07
6.44574e-05
3.19093e-07
7.96137e-05
1.39744e-06
9.29459e-05
3.25621e-06
0.000104224
6.13205e-06
0.000113219
1.02903e-05
0.000119698
1.60295e-05
0.000123418
2.36866e-05
0.00012412
3.3643e-05
0.000121519
4.63319e-05
0.000115301
6.22462e-05
0.000105107
8.19461e-05
9.05284e-05
0.000106068
7.10971e-05
0.000135334
4.62756e-05
0.000170556
1.54494e-05
0.000212645
-2.20784e-05
0.000262612
-6.70903e-05
0.000321563
-0.000120453
0.000390696
-0.000183109
0.000471277
-0.000256065
0.000564609
-0.000340359
0.000671992
-0.000437034
0.000794656
-0.000547068
0.00093367
-0.000671312
0.00108983
-0.000810636
0.00126412
-0.000964085
-0.00114503
0.00146306
-7.64478e-08
1.05088e-05
-1.69398e-07
2.97126e-05
-1.2716e-07
4.76696e-05
2.22823e-07
6.41074e-05
1.07436e-06
7.87622e-05
2.64388e-06
9.13763e-05
5.17274e-06
0.000101695
8.93051e-06
0.000109461
1.42194e-05
0.000114409
2.13794e-05
0.000116258
3.0795e-05
0.000114704
4.29019e-05
0.000109413
5.81957e-05
0.000100007
7.72396e-05
8.60629e-05
0.000100674
6.70941e-05
0.000129224
4.25468e-05
0.000163709
1.17906e-05
0.000205046
-2.58875e-05
0.000254253
-7.12852e-05
0.000312446
-0.000125283
0.00038083
-0.000188837
0.000460679
-0.000262958
0.000553303
-0.000348689
0.000660002
-0.000447058
0.000781998
-0.000559029
0.000920354
-0.000685424
0.00107588
-0.000826842
0.00124873
-0.000983488
0.00143958
-0.00115493
-0.0013583
0.00165285
-6.6009e-08
1.05748e-05
-1.0085e-07
2.97475e-05
7.44828e-08
4.74942e-05
6.60223e-07
6.35217e-05
1.87932e-06
7.75431e-05
3.97911e-06
8.92766e-05
7.23449e-06
9.84398e-05
1.19522e-05
0.000104744
1.84759e-05
0.000107886
2.71929e-05
0.000107541
3.85411e-05
0.000103356
5.30173e-05
9.49363e-05
7.11862e-05
8.18384e-05
9.3689e-05
6.35601e-05
0.000121253
3.95305e-05
0.000154697
9.10255e-06
0.000194941
-2.84532e-05
0.000243004
-7.39507e-05
0.000300005
-0.000128286
0.000367149
-0.000192428
0.00044571
-0.000267398
0.000536994
-0.000354243
0.000642294
-0.000453989
0.00076282
-0.000567584
0.000899612
-0.000695821
0.00105344
-0.000839248
0.00122473
-0.000998132
0.00141286
-0.00117162
0.00161847
-0.00136054
-0.00158163
0.0018418
-5.43015e-08
1.06291e-05
-2.48262e-08
2.9718e-05
2.96992e-07
4.71724e-05
1.14208e-06
6.26766e-05
2.76526e-06
7.59199e-05
5.44814e-06
8.65937e-05
9.5031e-06
9.43848e-05
1.52784e-05
9.89684e-05
2.31644e-05
9.99995e-05
3.36012e-05
9.71044e-05
4.70864e-05
8.98708e-05
6.41845e-05
7.78381e-05
8.5536e-05
6.0487e-05
0.000111866
3.72301e-05
0.000143992
7.40417e-06
0.000182831
-2.97365e-05
0.0002294
-7.50217e-05
0.000284812
-0.000129363
0.000350268
-0.000193742
0.000427033
-0.000269193
0.000516403
-0.000356769
0.000619657
-0.000457496
0.000737982
-0.000572314
0.000872394
-0.000701996
0.00102363
-0.000847053
0.00119201
-0.00100763
0.00137742
-0.00118355
0.00157846
-0.00137266
0.00179595
-0.00157803
-0.0018092
0.00202352
-3.98243e-08
1.06689e-05
6.42349e-08
2.96139e-05
5.53009e-07
4.66836e-05
1.69036e-06
6.15392e-05
3.76613e-06
7.38441e-05
7.09975e-06
8.326e-05
1.20451e-05
8.94395e-05
1.89965e-05
9.20169e-05
2.83963e-05
9.05996e-05
4.07431e-05
8.47576e-05
5.66003e-05
7.40136e-05
7.6606e-05
5.78324e-05
0.000101482
3.56112e-05
0.000132041
6.67126e-06
0.000169193
-2.97481e-05
0.000213948
-7.44917e-05
0.000267412
-0.000128485
0.000330773
-0.000192724
0.000405286
-0.000268254
0.000492228
-0.000356135
0.000592857
-0.000457397
0.000708336
-0.000572975
0.000839648
-0.000703627
0.000987494
-0.000849842
0.00115217
-0.00101173
0.00133345
-0.0011889
0.00153048
-0.00138058
0.00174122
-0.0015834
0.00196629
-0.0018031
-0.00203385
0.00219095
-2.09532e-08
1.06899e-05
1.72549e-07
2.94204e-05
8.55713e-07
4.60005e-05
2.32806e-06
6.00669e-05
4.91751e-06
7.12547e-05
8.98483e-06
7.91927e-05
1.49295e-05
8.34948e-05
2.31968e-05
8.37497e-05
3.4286e-05
7.95103e-05
4.87597e-05
7.0284e-05
6.72526e-05
5.55208e-05
9.04811e-05
3.46039e-05
0.000119251
6.84095e-06
0.000154465
-2.85424e-05
0.000197121
-7.24044e-05
0.000248314
-0.000125684
0.000309217
-0.000189389
0.000381069
-0.000264576
0.000465127
-0.000352312
0.000562623
-0.000453632
0.000674693
-0.000569467
0.000802285
-0.000700567
0.000946062
-0.000847404
0.00110629
-0.00101007
0.00128271
-0.00118815
0.00147447
-0.00138066
0.00167993
-0.00158605
0.00189675
-0.00180022
0.00212354
-0.0020299
-0.0022472
0.00233689
3.94718e-09
1.0686e-05
3.06229e-07
2.91181e-05
1.21851e-06
4.50882e-05
3.07855e-06
5.82069e-05
6.25536e-06
6.80779e-05
1.11547e-05
7.42934e-05
1.82257e-05
7.64238e-05
2.79691e-05
7.40062e-05
4.09463e-05
6.65332e-05
5.77883e-05
5.34419e-05
7.92056e-05
3.41035e-05
0.000105996
7.81382e-06
0.00013905
-2.62131e-05
0.000179354
-6.8847e-05
0.000227988
-0.000121038
0.000286111
-0.000183806
0.000354938
-0.000258217
0.000435709
-0.000345347
0.000529631
-0.000446234
0.000637808
-0.000561809
0.000761157
-0.000692816
0.000900301
-0.000839711
0.00105546
-0.00100256
0.00122635
-0.00118095
0.00141208
-0.00137388
0.00161115
-0.00157973
0.00182129
-0.00179619
0.00204049
-0.00201942
0.00226321
-0.00225262
-0.00244116
0.00245716
3.64788e-08
1.06495e-05
4.71302e-07
2.86833e-05
1.65456e-06
4.39049e-05
3.96468e-06
5.58967e-05
7.81481e-06
6.42277e-05
1.36591e-05
6.84491e-05
2.20005e-05
6.80825e-05
3.33994e-05
6.26073e-05
4.84832e-05
5.14493e-05
6.79557e-05
3.39695e-05
9.2605e-05
9.45425e-06
0.00012331
-2.28914e-05
0.000161044
-6.39467e-05
0.000206868
-0.000114671
0.000261925
-0.000176095
0.00032741
-0.000249292
0.000404542
-0.000335348
0.000494503
-0.000435308
0.000598375
-0.000550105
0.000717044
-0.000680478
0.000851103
-0.000826875
0.00100074
-0.000989344
0.00116561
-0.00116744
0.00134481
-0.00136015
0.00153675
-0.00156583
0.00173928
-0.00178226
0.00194963
-0.00200653
0.00216599
-0.00223578
0.00238242
-0.00246905
-0.00268014
0.0026214
7.81728e-08
1.05713e-05
6.73516e-07
2.8088e-05
2.17634e-06
4.24021e-05
5.00811e-06
5.3065e-05
9.62891e-06
5.96069e-05
1.65447e-05
6.15334e-05
2.63157e-05
5.83115e-05
3.95657e-05
4.93573e-05
5.69915e-05
3.40235e-05
7.93714e-05
1.15896e-05
0.000107572
-1.87459e-05
0.000142549
-5.78688e-05
0.000185349
-0.000106747
0.000237093
-0.000166416
0.00029896
-0.000237961
0.000372146
-0.000322478
0.000457814
-0.000421017
0.000557026
-0.00053452
0.000670649
-0.000663728
0.000799255
-0.000809084
0.000943005
-0.000970626
0.00110155
-0.00114789
0.00127393
-0.00133982
0.00145854
-0.00154476
0.00165314
-0.00176043
0.00185498
-0.0019841
0.00206096
-0.00221251
0.00226842
-0.00244324
0.00247263
-0.00267326
-0.00289148
0.00268396
1.30423e-07
1.04409e-05
9.18121e-07
2.73003e-05
2.79525e-06
4.0525e-05
6.22847e-06
4.96318e-05
1.17275e-05
5.41079e-05
1.9853e-05
5.34079e-05
3.12255e-05
4.69389e-05
4.65352e-05
3.40476e-05
6.65497e-05
1.40089e-05
9.21219e-05
-1.39826e-05
0.000124193
-5.08167e-05
0.000163789
-9.74653e-05
0.000212014
-0.000154972
0.000270026
-0.000224428
0.000339004
-0.000306939
0.000420094
-0.000403568
0.000514344
-0.000515267
0.000622611
-0.000642787
0.000745459
-0.000786576
0.000883047
-0.000946672
0.00103502
-0.0011226
0.00120042
-0.00131329
0.00137763
-0.00151703
0.0015644
-0.00173153
0.00175792
-0.00195395
0.001955
-0.00218119
0.00215237
-0.00240987
0.00234689
-0.00263776
0.00253503
-0.00286141
-0.00307652
0.00272008
1.94461e-07
1.02464e-05
1.20974e-06
2.6285e-05
3.52127e-06
3.82134e-05
7.64287e-06
4.55102e-05
1.41361e-05
4.76146e-05
2.3619e-05
4.3925e-05
3.67747e-05
3.37832e-05
5.43607e-05
1.64616e-05
7.7216e-05
-8.84637e-06
0.000106265
-4.30314e-05
0.000142516
-8.70675e-05
0.000187052
-0.000142002
0.000241014
-0.000208934
0.000305563
-0.000288977
0.000381834
-0.00038321
0.000470866
-0.0004926
0.000573515
-0.000617916
0.000690351
-0.000759623
0.000821548
-0.000917773
0.000966768
-0.00109189
0.00112507
-0.00128091
0.00129488
-0.00148309
0.00147395
-0.0016961
0.00165949
-0.00191707
0.0018483
-0.00214276
0.00203703
-0.00236991
0.00222245
-0.0025953
0.00240164
-0.00281694
0.00257189
-0.00303165
-0.0032395
0.00273487
2.71326e-07
9.97509e-06
1.55227e-06
2.50041e-05
4.36277e-06
3.5403e-05
9.26542e-06
4.06075e-05
1.68756e-05
4.00045e-05
2.78702e-05
3.29304e-05
4.29964e-05
1.86571e-05
6.30789e-05
-3.62091e-06
8.90251e-05
-3.47926e-05
0.000121825
-7.58309e-05
0.000162541
-0.000127785
0.000212297
-0.000191758
0.000272239
-0.000268875
0.00034349
-0.000360229
0.00042709
-0.00046681
0.000523901
-0.000589411
0.000634513
-0.000728527
0.000759126
-0.000884237
0.000897445
-0.00105609
0.00104858
-0.00124303
0.00121099
-0.00144332
0.0013825
-0.0016546
0.00156035
-0.00187395
0.00174138
-0.0020981
0.00192225
-0.00232364
0.00209972
-0.00254739
0.00227095
-0.00276653
0.00243356
-0.00297956
0.00258589
-0.00318398
-0.00338259
0.00272897
3.61861e-07
9.61323e-06
1.94882e-06
2.34171e-05
5.3263e-06
3.20255e-05
1.11069e-05
3.48269e-05
1.99611e-05
3.11502e-05
3.26256e-05
2.02659e-05
4.99111e-05
1.37161e-06
7.27075e-05
-2.64173e-05
0.000101985
-6.40702e-05
0.000138789
-0.000112634
0.000184221
-0.000173217
0.000239415
-0.000246952
0.000305489
-0.000334949
0.000383482
-0.000438222
0.000474274
-0.000557601
0.000578482
-0.000693619
0.00069635
-0.000846396
0.000827641
-0.00101553
0.000971533
-0.00119998
0.00112656
-0.00139806
0.00129062
-0.00160738
0.00146103
-0.001825
0.00163468
-0.0020476
0.00180827
-0.00227169
0.00197858
-0.00249395
0.00214276
-0.00271156
0.00229857
-0.00292234
0.00244444
-0.00312543
0.00257971
-0.00331925
-0.00350829
0.00270541
4.66714e-07
9.14652e-06
2.40174e-06
2.14821e-05
6.4166e-06
2.80106e-05
1.31747e-05
2.80687e-05
2.34022e-05
2.09228e-05
3.78951e-05
5.77297e-06
5.75258e-05
-1.82591e-05
8.32449e-05
-5.21363e-05
0.000116077
-9.69019e-05
0.000157106
-0.000153664
0.000207452
-0.000223563
0.000268228
-0.000307727
0.000340478
-0.000407199
0.000425103
-0.000522848
0.000522759
-0.000655256
0.000633746
-0.000804606
0.000757899
-0.000970549
0.000894485
-0.00115211
0.00104214
-0.00134764
0.00119885
-0.00155476
0.00136201
-0.00177054
0.00152861
-0.0019916
0.00169537
-0.00221437
0.00185912
-0.00243543
0.00201699
-0.00265182
0.00216672
-0.00286129
0.00230684
-0.00306245
0.00243663
-0.00325521
0.00255632
-0.00343894
-0.00361906
0.00266709
5.86349e-07
8.56017e-06
2.9126e-06
1.91558e-05
7.63661e-06
2.32866e-05
1.54728e-05
2.02326e-05
2.72023e-05
9.19331e-06
4.36791e-05
-1.07039e-05
6.58333e-05
-4.04133e-05
9.46683e-05
-8.09713e-05
0.00013125
-0.000133484
0.000176684
-0.000199098
0.000232078
-0.000278957
0.000298486
-0.000374135
0.000376831
-0.000485545
0.000467815
-0.000613831
0.000571804
-0.000759246
0.000688722
-0.000921523
0.000817938
-0.00109977
0.000958204
-0.00129238
0.00110762
-0.00149705
0.00126371
-0.00171085
0.00142351
-0.00193035
0.00158383
-0.00215192
0.00174149
-0.00237203
0.00189364
-0.00258758
0.00203797
-0.00279615
0.00217294
-0.00299627
0.00229787
-0.00318738
0.00241282
-0.00337016
0.00251872
-0.00354485
-0.00371724
0.00261691
7.21068e-07
7.8391e-06
3.48224e-06
1.63946e-05
8.98746e-06
1.77814e-05
1.80015e-05
1.12185e-05
3.13591e-05
-4.16425e-06
4.99686e-05
-2.93134e-05
7.48116e-05
-6.52563e-05
0.000106934
-0.000113094
0.000147426
-0.000173976
0.000197391
-0.000249062
0.00025789
-0.000339456
0.000329874
-0.000446119
0.000414093
-0.000569764
0.000510989
-0.000710727
0.000620581
-0.000868838
0.000742362
-0.0010433
0.000875213
-0.00123262
0.00101738
-0.00143454
0.00116648
-0.00164616
0.00131969
-0.00186405
0.00147386
-0.00208452
0.00162585
-0.0023039
0.00177276
-0.00251894
0.00191223
-0.00272705
0.00204266
-0.00292657
0.00216324
-0.00311685
0.00227403
-0.00329817
0.00237574
-0.00347186
0.00246975
-0.00363886
-0.00380498
0.00255748
8.71028e-07
6.96807e-06
4.11084e-06
1.31548e-05
1.04686e-05
1.14237e-05
2.07578e-05
9.29261e-07
3.5864e-05
-1.92704e-05
5.67448e-05
-5.01942e-05
8.44241e-05
-9.29356e-05
0.000119976
-0.000148646
0.000164496
-0.000218496
0.000219053
-0.000303619
0.000284625
-0.000405028
0.000362013
-0.000523507
0.000451737
-0.000659488
0.000553925
-0.000812915
0.0006682
-0.000983113
0.000793592
-0.0011687
0.000928496
-0.00136752
0.00107069
-0.00157674
0.00121744
-0.00179292
0.0013657