/*--------------------------------*- C++ -*----------------------------------*\
  =========                 |
  \\      /  F ield         | OpenFOAM: The Open Source CFD Toolbox
   \\    /   O peration     | Website:  https://openfoam.org
    \\  /    A nd           | Version:  7
     \\/     M anipulation  |
\*---------------------------------------------------------------------------*/
FoamFile
{
    version     2.0;
    format      ascii;
    class       surfaceScalarField;
    location    "75";
    object      phi;
}
// * * * * * * * * * * * * * * * * * * * * * * * * * * * * * * * * * * * * * //

dimensions      [0 3 -1 0 0 0 0];

internalField   nonuniform List<scalar> 
237
(
-0.00152676
-0.00449297
-0.00164748
-0.00152248
-0.00425984
-0.00150585
-0.00403656
-0.00147915
-0.00382301
-0.0014433
-0.00361701
-0.00139829
-0.00341717
-0.00134393
-0.00322309
-0.00128031
-0.00303463
-0.00120773
-0.00285165
-0.00290036
-0.00112652
-0.00267393
-0.00126249
-0.00271568
-0.00117464
-0.00253629
-0.00107884
-0.00236187
-0.00239494
-0.000975454
-0.00219186
-0.00111825
-0.00221908
-0.00100909
-0.00204766
-0.00207297
-0.000893131
-0.00187957
-0.00104045
-0.00190034
-0.000919289
-0.00173113
-0.00175013
-0.000943342
-0.00158
-0.00159724
-0.000811669
-0.00141126
-0.000965273
-0.0014264
-0.000829227
-0.00125721
-0.00127056
-0.00084487
-0.00110112
-0.00111272
-0.000858586
-0.000943235
-0.00095313
-0.000710935
-0.000773316
-0.000870365
-0.000783805
-0.000719477
-0.000614819
-0.000623084
-0.000726319
-0.000455236
-0.000461325
-0.000731455
-0.000294837
-0.000298784
-0.000734881
-0.000133888
-0.000135714
-0.000736593
2.73395e-05
2.76253e-05
-0.000736587
0.000188577
0.000190979
-0.000734861
0.000349555
0.000354089
-0.000731415
0.000510004
0.000516698
-0.000726248
0.000669652
0.000678549
-0.00071936
0.000828231
0.000839386
-0.000710753
-0.00087032
0.000998953
0.00100878
-0.00085847
0.001157
0.00116857
-0.000844652
0.00131326
0.00132663
-0.000828869
0.00146749
0.00148271
-0.000811127
-0.000964992
0.00163658
0.00165369
-0.00094284
0.00178799
0.00180693
-0.000918505
0.0019367
0.00195751
-0.000891998
-0.00103969
0.00210521
0.00213057
-0.00100791
0.00224979
0.00227716
-0.000973766
-0.00111705
0.00242045
0.00245378
-0.00107704
0.00259576
-0.00117275
0.00273402
0.0027763
-0.00112377
-0.00126052
0.00291305
0.00296245
-0.00120477
0.00309767
-0.00127714
0.00328809
-0.00134053
0.0034845
-0.00139461
0.00368695
-0.00143923
0.00389586
-0.00147484
0.00411339
-0.00150211
0.00434383
-0.00152016
-0.00164851
0.00471689
-0.00164872
-0.0201715
-0.00173986
-0.00174933
-0.00172596
-0.00168084
-0.00162617
-0.00155329
-0.00145836
-0.00136755
-0.00128311
-0.00118531
-0.00107116
-0.000957546
-0.00085204
-0.0200781
-0.000750416
-0.0200375
-0.000646534
-0.0199823
-0.000530733
-0.0200514
-0.000418997
-0.0199417
-0.000319373
-0.0198629
-0.000216058
-0.0198511
-0.000101087
-0.0199479
-0.0198142
-0.000904443
-0.000797903
-0.000687295
-0.000564543
-0.000444173
-0.000339099
-0.000229397
-0.00010718
-0.00137378
0.0205031
-0.00126816
0.0203331
-0.00115862
0.0203262
-0.0010516
0.0201632
-0.000945844
0.0201759
-0.000832318
0.0200927
-0.000708189
0.0201579
-0.000586126
0.0200312
-0.00047784
0.0199662
-0.000365292
0.019961
-0.000237247
0.0200373
-0.000109646
0.0200066
0.0199012
-0.00173756
-0.00175659
-0.00174611
-0.00171289
-0.00164985
-0.001564
-0.00147944
-0.00139319
-0.00129387
-0.0011958
-0.00109241
-0.000992756
-0.000891323
-0.000784857
-0.000667452
-0.000554011
-0.000450938
-0.000344112
-0.000223794
-0.00010435
)
;

boundaryField
{
    inlet
    {
        type            calculated;
        value           nonuniform 0();
    }
    outlet
    {
        type            calculated;
        value           nonuniform 0();
    }
    cylinder
    {
        type            calculated;
        value           nonuniform 0();
    }
    top
    {
        type            symmetryPlane;
        value           uniform 0;
    }
    bottom
    {
        type            symmetryPlane;
        value           uniform 0;
    }
    defaultFaces
    {
        type            empty;
        value           nonuniform 0();
    }
    procBoundary7to6
    {
        type            processor;
        value           nonuniform List<scalar> 
124
(
-0.00461106
-0.00164683
-0.00436862
-0.00163212
-0.00413357
-0.00160581
-0.0039099
-0.00157063
-0.00369568
-0.00152713
-0.00348817
-0.00147463
-0.00328647
-0.00141283
-0.00309057
-0.001342
-0.00140089
-0.00276196
-0.00131454
-0.00257578
-0.0012202
-0.00126314
-0.00225005
-0.0011552
-0.00118967
-0.00192374
-0.0010695
-0.00109623
-0.00112061
-0.0014419
-0.000985066
-0.00100271
-0.00101818
-0.00103147
-0.000792026
-0.000880198
-0.000888078
-0.000893997
-0.00089795
-0.000899932
-0.00089994
-0.000897971
-0.000894024
-0.0008881
-0.000880198
-0.000847499
-0.0010316
-0.00101826
-0.00100271
-0.000984952
-0.00149803
-0.00112066
-0.00109608
-0.00106908
-0.00198087
-0.00118938
-0.00115451
-0.00230828
-0.00126255
-0.00121902
-0.00263564
-0.00131342
-0.00282311
-0.00139986
-0.00133999
-0.00315445
-0.00141079
-0.00335248
-0.00147255
-0.00355665
-0.00152491
-0.00376689
-0.0015682
-0.00398439
-0.00160384
-0.00421398
-0.00163196
-0.00446017
-0.0045858
-0.0017796
-0.0200792
-0.0203397
-0.0203855
-0.0204134
-0.0203557
-0.0204206
-0.0204229
-0.0202787
-0.0202272
-0.0202763
-0.0202859
-0.0201847
0.00101881
-0.0201925
-0.020144
-0.020093
-0.0201741
-0.0200621
-0.019968
-0.0199608
-0.0200701
-0.0199213
-0.0206082
-0.0204387
-0.0204357
-0.0202702
-0.0202817
-0.0202062
-0.020282
-0.0201533
-0.0200745
-0.0200736
-0.0201653
-0.0201342
-0.0200108
-0.0205012
-0.0206871
-0.0207769
-0.0207912
-0.0208528
-0.0207882
-0.0206159
0.00147891
-0.0205325
)
;
    }
    procBoundary7to8
    {
        type            processor;
        value           nonuniform List<scalar> 
130
(
0.00461082
0.00473177
0.00151647
0.00140891
0.00438036
0.00140197
0.00415831
0.00138411
0.00394577
0.00135639
0.00374125
0.00131906
0.00354328
0.00127218
0.00335115
0.00121587
0.00316462
0.00115033
0.00298353
0.00107586
0.00280766
0.000992787
0.00103701
0.00250115
0.000939565
0.00233274
0.000834576
0.000864888
0.00202507
0.000747625
0.000770855
0.000792208
0.00156302
0.00065991
0.000675179
0.000688778
0.0007007
0.00093046
0.000553791
0.00056098
0.000566737
0.000571056
0.000573933
0.000575365
0.000575349
0.000573883
0.000570967
0.0005666
0.000560781
0.000553514
0.00098547
0.000700428
0.000688388
0.000674636
0.000659176
0.00161944
0.000791432
0.00076979
0.000746208
0.00208249
0.000863328
0.000832507
0.00239105
0.000937268
0.00256022
0.00103449
0.000989418
0.00286837
0.00107212
0.00304571
0.00114621
0.0032286
0.00121134
0.00341728
0.00126722
0.00361189
0.00131356
0.00381262
0.00135034
0.00402037
0.00137781
0.00423768
0.00139616
0.00446782
0.00458852
0.00152528
0.00484033
0.0202617
-0.00160664
0.0203492
0.0203621
0.0203682
0.020301
0.0203477
0.020328
0.0201879
0.0201428
0.0201785
0.0201718
0.0200711
0.0199726
0.0199359
0.0198785
0.0199356
0.01983
0.0197633
0.0197478
0.0198329
0.0197131
0.0205901
0.0207061
0.0207664
0.020758
0.0207897
0.0207023
0.0205313
0.0204462
0.0204037
0.0202351
0.0202228
0.0200635
0.0200745
0.0199862
0.0200405
0.0199178
0.0198632
0.0198542
0.0199169
0.0198871
0.0197968
)
;
    }
}


// ************************************************************************* //
