/*--------------------------------*- C++ -*----------------------------------*\
  =========                 |
  \\      /  F ield         | OpenFOAM: The Open Source CFD Toolbox
   \\    /   O peration     | Website:  https://openfoam.org
    \\  /    A nd           | Version:  7
     \\/     M anipulation  |
\*---------------------------------------------------------------------------*/
FoamFile
{
    version     2.0;
    format      ascii;
    class       volVectorField;
    location    "15";
    object      U;
}
// * * * * * * * * * * * * * * * * * * * * * * * * * * * * * * * * * * * * * //

dimensions      [0 1 -1 0 0 0 0];

internalField   nonuniform List<vector> 
183
(
(0.651679 -0.00265822 1.09087e-22)
(0.692458 -0.00221344 -8.98342e-24)
(0.726213 -0.00187384 7.73211e-24)
(0.697421 -0.00622452 -2.59386e-22)
(0.730537 -0.00520699 1.1521e-23)
(0.706977 -0.0101285 -8.91111e-23)
(0.73888 -0.00844974 -1.58104e-22)
(0.720643 -0.0138648 -2.2636e-22)
(0.750847 -0.0115505 1.91495e-23)
(0.737756 -0.0173851 -1.43019e-22)
(0.765887 -0.0144672 -9.10223e-23)
(0.757533 -0.0206559 6.84057e-22)
(0.783346 -0.01717 5.0843e-22)
(0.77914 -0.0236591 6.60413e-22)
(0.802515 -0.0196412 -1.14016e-21)
(0.801754 -0.0263907 -1.24615e-21)
(0.822688 -0.0218753 8.32376e-22)
(0.824618 -0.0288587 3.75979e-22)
(0.843198 -0.0238771 -7.09024e-22)
(0.847079 -0.0310795 9.77888e-22)
(0.863462 -0.0256595 -1.01301e-21)
(0.868614 -0.0330754 -3.8595e-22)
(0.882994 -0.027241 -1.21782e-21)
(0.888832 -0.0348708 -1.95842e-22)
(0.901422 -0.0286431 1.57891e-21)
(0.907472 -0.0364906 1.20471e-21)
(0.918483 -0.0298883 -7.10945e-22)
(0.924385 -0.0379583 8.19253e-22)
(0.934014 -0.0309986 -2.81774e-22)
(0.939517 -0.0392948 -6.97761e-22)
(0.94794 -0.0319944 1.3361e-22)
(0.952886 -0.0405191 -5.37913e-22)
(0.960255 -0.0328942 -1.25774e-22)
(0.964564 -0.041649 -1.42576e-22)
(0.971008 -0.0337155 2.04957e-22)
(0.974655 -0.0426987 -7.87794e-22)
(0.980283 -0.0344737 1.78345e-21)
(0.983288 -0.0436638 -8.0702e-22)
(0.988192 -0.0351669 9.8305e-22)
(0.990602 -0.0445321 6.36333e-23)
(0.994858 -0.0357792 -3.44735e-22)
(0.996742 -0.0454294 2.35648e-22)
(1.00041 -0.0364127 -3.91765e-23)
(1.01195 -0.048485 0)
(1.01408 -0.0387797 0)
(1.02124 -0.0468428 0)
(1.02153 -0.0375561 0)
(1.02403 -0.0468582 0)
(1.02363 -0.0379523 0)
(1.02713 -0.0464892 0)
(1.02569 -0.0378011 0)
(1.0295 -0.0445566 0)
(1.0273 -0.0366313 0)
(1.03156 -0.0432427 0)
(1.02874 -0.0358135 0)
(1.03331 -0.0411773 0)
(1.02995 -0.0343695 0)
(1.03473 -0.0389981 0)
(1.03089 -0.0327932 0)
(1.03592 -0.0366321 0)
(1.03164 -0.0310061 0)
(1.0369 -0.0340573 0)
(1.03221 -0.0289973 0)
(1.02852 -0.0243238 0)
(1.03758 -0.0313313 0)
(1.03257 -0.0268176 0)
(1.02855 -0.0225805 0)
(1.03795 -0.0285035 0)
(1.0327 -0.0245108 0)
(1.02844 -0.0207083 0)
(1.0381 -0.025617 0)
(1.03269 -0.0221171 0)
(1.02824 -0.0187401 0)
(1.03817 -0.0226876 0)
(1.03262 -0.0196564 0)
(1.02802 -0.0166958 0)
(1.03822 -0.0197178 0)
(1.03256 -0.0171358 0)
(1.02781 -0.0145853 0)
(1.03824 -0.0167075 0)
(1.03247 -0.01456 0)
(1.02762 -0.0124164 0)
(1.03819 -0.0136769 0)
(1.03237 -0.0119472 0)
(1.02743 -0.0102046 0)
(1.0381 -0.0106412 0)
(1.03226 -0.00931234 0)
(1.02726 -0.00796377 0)
(1.03803 -0.00760332 0)
(1.03217 -0.00666208 0)
(1.02713 -0.00570215 0)
(1.03798 -0.00456098 0)
(1.0321 -0.0039996 0)
(1.02704 -0.00342546 0)
(1.03794 -0.00151814 0)
(1.03206 -0.00133223 0)
(1.02699 -0.00114166 0)
(1.01172 0.0484444 0)
(1.02127 0.0468021 0)
(1.02415 0.0468136 0)
(1.02728 0.0464579 0)
(1.02961 0.0445267 0)
(1.03159 0.0432108 0)
(1.03329 0.041134 0)
(1.03469 0.0389406 0)
(1.03581 0.036564 0)
(1.03662 0.0340125 0)
(1.03719 0.0313411 0)
(1.0376 0.0285715 0)
(1.03792 0.0257164 0)
(1.03816 0.0227802 0)
(1.03828 0.0197864 0)
(1.03826 0.0167577 0)
(1.03817 0.0137239 0)
(1.03809 0.0106842 0)
(1.03803 0.00763439 0)
(1.03797 0.00457584 0)
(1.03791 0.0015232 0)
(1.01389 0.0387161 0)
(1.02155 0.0374928 0)
(1.02374 0.0378776 0)
(1.02584 0.0377231 0)
(1.02742 0.0365452 0)
(1.02877 0.0357256 0)
(1.02992 0.0342805 0)
(1.03084 0.0327016 0)
(1.03154 0.0309128 0)
(1.03201 0.0289269 0)
(1.03229 0.0267958 0)
(1.03244 0.0245418 0)
(1.03254 0.02218 0)
(1.03259 0.0197194 0)
(1.03257 0.0171821 0)
(1.03248 0.0145911 0)
(1.03235 0.0119737 0)
(1.03223 0.0093357 0)
(1.03214 0.00667874 0)
(1.03207 0.00400727 0)
(1.03202 0.00133482 0)
(0.99633 0.0453653 -3.06037e-22)
(1.00007 0.036326 8.87054e-23)
(0.990127 0.0444602 -1.96756e-22)
(0.994466 0.035685 -5.7273e-22)
(0.982746 0.0435829 -5.85002e-22)
(0.987746 0.0350639 -1.00397e-21)
(0.974043 0.0426071 7.13284e-22)
(0.979782 0.0343603 -8.61467e-22)
(0.96388 0.0415453 1.26244e-22)
(0.970448 0.0335905 -2.17989e-21)
(0.95213 0.0404018 1.48771e-21)
(0.959636 0.0327561 9.46053e-22)
(0.938688 0.0391626 -1.09982e-21)
(0.947261 0.031842 -9.056e-22)
(0.923485 0.0378095 -1.26836e-21)
(0.933276 0.0308306 2.11798e-21)
(0.906505 0.036324 5.60712e-22)
(0.917689 0.0297033 -7.30566e-22)
(0.887806 0.034685 -2.59343e-22)
(0.900579 0.02844 -3.87188e-22)
(0.867539 0.0328693 3.5742e-22)
(0.882111 0.0270187 1.23358e-22)
(0.845972 0.0308522 -4.48691e-22)
(0.862552 0.0254172 8.56838e-22)
(0.823498 0.0286095 -1.3142e-21)
(0.84228 0.0236142 1.02517e-21)
(0.800648 0.0261195 3.88046e-22)
(0.821782 0.0215917 4.81052e-22)
(0.778078 0.0233661 -4.18183e-22)
(0.801648 0.0193372 -9.7508e-22)
(0.75655 0.020342 5.24055e-22)
(0.782544 0.0168465 7.80174e-22)
(0.736887 0.017052 -4.47286e-23)
(0.76518 0.014126 -1.06762e-22)
(0.719923 0.0135151 6.76533e-22)
(0.750263 0.0111938 8.47082e-23)
(0.706438 0.00976541 -1.95348e-22)
(0.738443 0.00808079 1.24837e-22)
(0.656999 0.00719192 3.19365e-22)
(0.697087 0.00585204 -1.0559e-22)
(0.730266 0.00482943 -2.85562e-22)
(0.651542 0.00228699 5.93393e-24)
(0.692345 0.00183602 9.18103e-24)
(0.726122 0.00149175 7.14041e-23)
)
;

boundaryField
{
    inlet
    {
        type            uniformFixedValue;
        uniformValue    constant (1 0 0);
        value           nonuniform 0();
    }
    outlet
    {
        type            pressureInletOutletVelocity;
        value           nonuniform 0();
    }
    cylinder
    {
        type            fixedValue;
        value           nonuniform 0();
    }
    top
    {
        type            symmetryPlane;
    }
    bottom
    {
        type            symmetryPlane;
    }
    defaultFaces
    {
        type            empty;
    }
    procBoundary39to38
    {
        type            processor;
        value           nonuniform List<vector> 
86
(
(0.601681 -0.00324922 9.96263e-23)
(0.657402 -0.00755769 -1.49865e-23)
(0.657402 -0.00755769 -1.49865e-23)
(0.668396 -0.0123293 -8.81092e-23)
(0.684068 -0.0169015 -5.13294e-22)
(0.703614 -0.0212182 -3.50928e-23)
(0.726096 -0.0252417 4.46024e-22)
(0.750526 -0.028953 2.41812e-22)
(0.77595 -0.0323495 -1.01916e-21)
(0.801507 -0.035442 5.61915e-22)
(0.826479 -0.0382503 -5.67049e-22)
(0.850305 -0.0407993 -5.99353e-22)
(0.872586 -0.0431155 9.01182e-22)
(0.89307 -0.0452252 7.25532e-24)
(0.911629 -0.0471525 1.00699e-22)
(0.928234 -0.0489186 1.88512e-21)
(0.942929 -0.0505429 -2.6787e-21)
(0.955808 -0.0520435 4.89041e-22)
(0.966998 -0.0534327 9.30362e-22)
(0.97664 -0.0547065 1.33042e-21)
(0.984885 -0.0558696 -4.09043e-22)
(0.99189 -0.0570643 5.36172e-22)
(1.00945 -0.0606707 0)
(1.02162 -0.0583564 0)
(1.02539 -0.057478 0)
(1.02978 -0.0567739 0)
(1.03305 -0.0537602 0)
(1.03579 -0.0517308 0)
(1.03809 -0.0488394 0)
(1.03998 -0.0458614 0)
(1.0416 -0.0427482 0)
(1.04293 -0.0394677 0)
(1.04387 -0.0360821 0)
(1.04439 -0.0326417 0)
(1.04461 -0.0291879 0)
(1.04474 -0.025731 0)
(1.04485 -0.0222698 0)
(1.0449 -0.0187991 0)
(1.04484 -0.0153408 0)
(1.04473 -0.0119072 0)
(1.04465 -0.00849402 0)
(1.04459 -0.00509016 0)
(1.04453 -0.00169279 0)
(1.00918 0.0606603 0)
(1.02165 0.058354 0)
(1.02548 0.0574834 0)
(1.0299 0.0568137 0)
(1.03316 0.0538113 0)
(1.03584 0.0517766 0)
(1.03812 0.0488604 0)
(1.03998 0.0458565 0)
(1.04147 0.0427234 0)
(1.04256 0.0394615 0)
(1.04336 0.0361256 0)
(1.04395 0.0327361 0)
(1.04442 0.0293057 0)
(1.04477 0.025834 0)
(1.04495 0.0223465 0)
(1.04494 0.0188609 0)
(1.04483 0.0154058 0)
(1.04474 0.0119694 0)
(1.04468 0.00853928 0)
(1.04461 0.0051115 0)
(1.04454 0.00170019 0)
(0.991407 0.0570288 -5.99039e-22)
(0.984326 0.055826 7.61239e-22)
(0.976 0.0546534 -6.83062e-22)
(0.966275 0.0533687 1.34015e-21)
(0.955 0.0519669 -9.5531e-22)
(0.942033 0.0504523 2.07235e-21)
(0.927251 0.0488122 -2.78267e-21)
(0.910561 0.0470288 -1.76972e-22)
(0.891923 0.0450826 8.95804e-22)
(0.871368 0.0429526 -2.34664e-22)
(0.849029 0.0406146 -3.15578e-22)
(0.825163 0.0380429 -4.38901e-22)
(0.800175 0.0352111 -1.45913e-22)
(0.774631 0.0320947 5.76254e-22)
(0.749258 0.0286745 -4.51383e-22)
(0.724919 0.0249405 9.36308e-22)
(0.702572 0.0208959 -3.68713e-22)
(0.683202 0.0165609 3.85385e-22)
(0.667746 0.011974 3.80151e-22)
(0.667746 0.011974 3.80151e-22)
(0.607835 0.00892631 3.16759e-22)
(0.601518 0.00286297 4.20885e-23)
)
;
    }
    procBoundary39to40
    {
        type            processor;
        value           nonuniform List<vector> 
85
(
(0.754566 -0.00160586 -1.26341e-23)
(0.758347 -0.00441934 1.13781e-23)
(0.765664 -0.00715623 1.87721e-22)
(0.776185 -0.00977243 -3.20678e-22)
(0.789452 -0.0122316 -2.35531e-23)
(0.804913 -0.0145067 -5.91182e-23)
(0.821966 -0.0165811 2.06522e-22)
(0.84 -0.0184482 3.77165e-22)
(0.858434 -0.02011 -1.22641e-21)
(0.876744 -0.0215761 1.43767e-22)
(0.894488 -0.0228611 -9.60371e-22)
(0.911314 -0.0239832 7.90734e-22)
(0.926966 -0.0249619 8.10197e-22)
(0.941275 -0.025817 -7.50594e-22)
(0.954149 -0.0265673 -1.56016e-22)
(0.965564 -0.02723 -1.38437e-21)
(0.975549 -0.0278222 1.08394e-22)
(0.98417 -0.0283587 7.83984e-22)
(0.991519 -0.0288407 -3.0657e-22)
(0.997706 -0.0292537 -4.05084e-22)
(1.00285 -0.0296774 -7.23733e-23)
(1.01549 -0.0313947 0)
(1.02191 -0.0303911 0)
(1.0236 -0.0308371 0)
(1.02494 -0.0307618 0)
(1.02594 -0.0300435 0)
(1.02683 -0.0295011 0)
(1.02754 -0.028457 0)
(1.02802 -0.0272823 0)
(1.02834 -0.0259049 0)
(1.02834 -0.0259049 0)
(1.02554 -0.0200369 0)
(1.02528 -0.0186244 0)
(1.02494 -0.0171027 0)
(1.02457 -0.0154957 0)
(1.0242 -0.0138196 0)
(1.02386 -0.012084 0)
(1.02355 -0.0102965 0)
(1.02328 -0.00846941 0)
(1.02306 -0.00661387 0)
(1.02288 -0.00473787 0)
(1.02276 -0.00284749 0)
(1.0227 -0.00094951 0)
(1.01533 0.0313191 0)
(1.02191 0.0303205 0)
(1.0237 0.0307542 0)
(1.02506 0.0306672 0)
(1.02604 0.0299356 0)
(1.02686 0.0293897 0)
(1.02751 0.0283492 0)
(1.02798 0.027179 0)
(1.02827 0.0258056 0)
(1.02838 0.0242441 0)
(1.02837 0.0225385 0)
(1.02826 0.0207078 0)
(1.02813 0.0187669 0)
(1.02798 0.0167273 0)
(1.0278 0.0146079 0)
(1.0276 0.0124292 0)
(1.0274 0.0102142 0)
(1.02723 0.007972 0)
(1.0271 0.00570779 0)
(1.027 0.00342748 0)
(1.02694 0.00114235 0)
(1.00258 0.0295797 -9.4492e-23)
(0.9974 0.0291488 1.43818e-21)
(0.991171 0.0287274 2.79685e-22)
(0.983778 0.0282357 3.98057e-22)
(0.975111 0.0276883 -6.0068e-22)
(0.965079 0.0270841 7.46807e-22)
(0.953615 0.0264081 -1.7839e-22)
(0.940693 0.0256433 4.53955e-22)
(0.92634 0.0247726 2.67264e-22)
(0.910648 0.0237771 -5.83961e-22)
(0.893789 0.0226373 4.07858e-22)
(0.876024 0.0213337 6.43904e-22)
(0.857707 0.0198486 2.1791e-22)
(0.839285 0.0181676 -5.06196e-22)
(0.821281 0.0162818 2.82694e-22)
(0.804281 0.0141895 -1.05198e-22)
(0.788896 0.011898 4.23801e-23)
(0.775726 0.00942486 6.92386e-23)
(0.765321 0.00679745 1.71478e-22)
(0.758136 0.00405274 -8.84326e-23)
(0.754495 0.00123516 7.30317e-23)
)
;
    }
}


// ************************************************************************* //
