/*--------------------------------*- C++ -*----------------------------------*\
  =========                 |
  \\      /  F ield         | OpenFOAM: The Open Source CFD Toolbox
   \\    /   O peration     | Website:  https://openfoam.org
    \\  /    A nd           | Version:  7
     \\/     M anipulation  |
\*---------------------------------------------------------------------------*/
FoamFile
{
    version     2.0;
    format      ascii;
    class       volVectorField;
    location    "15";
    object      U;
}
// * * * * * * * * * * * * * * * * * * * * * * * * * * * * * * * * * * * * * //

dimensions      [0 1 -1 0 0 0 0];

internalField   nonuniform List<vector> 
183
(
(-0.00929333 0.0026348 -5.37395e-21)
(-0.0165676 0.00315982 -2.32906e-21)
(-0.0095862 0.00806854 3.33095e-21)
(-0.0168612 0.00972822 1.83801e-20)
(-0.0101643 0.0133746 3.57945e-20)
(-0.0174397 0.0161513 2.41068e-20)
(-0.0110122 0.0184703 -1.26755e-20)
(-0.018288 0.0223341 -1.27689e-19)
(-0.0121075 0.0232785 5.45348e-20)
(-0.0193837 0.0281867 -7.24324e-20)
(-0.027222 0.0313579 8.18853e-20)
(-0.0206979 0.0336263 1.88106e-19)
(-0.0283444 0.0374585 4.85938e-20)
(-0.0221963 0.0385787 -1.92364e-19)
(-0.0296157 0.0430346 -6.40127e-20)
(-0.0238402 0.0429796 -1.05256e-20)
(-0.030997 0.0480108 2.49058e-19)
(-0.025587 0.0467759 -4.75139e-20)
(-0.0324436 0.0523212 3.09291e-21)
(-0.0273914 0.0499269 -8.44596e-20)
(-0.0339056 0.0559103 1.64484e-19)
(-0.0395913 0.0593884 -1.87778e-19)
(-0.035327 0.0587346 -4.95069e-20)
(-0.0403101 0.0624308 -1.10343e-19)
(-0.0366437 0.0607635 -2.39112e-19)
(-0.0408267 0.0646025 8.92938e-20)
(-0.041045 0.0658717 3.47846e-19)
(-0.0424331 0.0674815 -2.91892e-20)
(-0.0408452 0.0662235 -3.25147e-19)
(-0.0407599 0.06776 3.65502e-19)
(-0.038274 0.0670433 -2.66584e-19)
(-0.0337336 0.066601 7.05946e-20)
(-0.0347239 0.0653565 3.94323e-19)
(-0.027633 0.0647262 -4.51568e-19)
(-0.0196871 0.061897 4.612e-20)
(-0.00563582 0.0597782 2.33437e-19)
(-0.00940585 0.0582291 1.87675e-19)
(0.00897397 0.0560082 -4.07952e-19)
(0.0322043 0.0530397 3.41072e-20)
(0.0272935 0.0516346 3.23721e-20)
(0.0565421 0.0488505 3.41698e-19)
(0.0863652 0.0445216 -4.76492e-19)
(0.129599 0.0422112 3.83957e-19)
(0.174799 0.0391548 -4.78712e-19)
(0.235008 0.0386244 8.10356e-20)
(0.298665 0.0384945 -4.89128e-19)
(0.377131 0.0411578 2.86629e-19)
(0.459253 0.0456497 9.48724e-20)
(0.553097 0.052503 -3.22251e-19)
(0.647969 0.0625176 4.26185e-19)
(0.748199 0.0732972 2.54026e-19)
(0.843654 0.0879775 4.80852e-20)
(0.93638 0.100617 1.16046e-19)
(1.0176 0.117201 1.95335e-19)
(1.08968 0.128423 -6.94936e-20)
(1.14649 0.143614 -2.11734e-20)
(1.19216 0.150851 -2.04354e-19)
(1.22485 0.155088 8.04237e-20)
(1.24627 0.165012 -6.6382e-20)
(1.25994 0.165595 -1.15684e-20)
(1.26959 0.168698 -3.36714e-20)
(1.26711 -0.173305 -2.41476e-19)
(1.27001 -0.169335 1.73376e-19)
(1.24661 -0.165683 -2.40287e-19)
(1.26033 -0.166285 -5.58335e-20)
(1.14667 -0.144243 1.9759e-20)
(1.1924 -0.151525 2.04177e-19)
(1.22515 -0.155794 2.26264e-19)
(1.01761 -0.117764 9.45159e-20)
(1.08975 -0.129053 7.08151e-20)
(0.843468 -0.0884393 9.42572e-20)
(0.936249 -0.10116 -4.05548e-19)
(0.647639 -0.0628687 9.30272e-20)
(0.747884 -0.0737317 -3.96002e-19)
(0.458865 -0.0459017 -1.17406e-19)
(0.552679 -0.0528319 -1.96898e-19)
(0.298303 -0.0386711 1.79012e-19)
(0.376709 -0.0414015 -2.63565e-19)
(0.174521 -0.0392811 -1.63149e-19)
(0.234659 -0.038809 2.2856e-19)
(0.0861925 -0.0446175 2.60087e-19)
(0.129362 -0.0423599 2.57836e-19)
(0.0272203 -0.0517122 1.28647e-19)
(0.0564205 -0.0489787 1.5632e-19)
(-0.00940124 -0.0582929 -3.02114e-19)
(0.00894751 -0.0561234 -3.4064e-20)
(0.0321397 -0.0532077 -3.15881e-19)
(-0.0196474 -0.0620002 4.43873e-19)
(-0.00561666 -0.0599362 4.73958e-20)
(-0.0346465 -0.0654447 -4.1445e-19)
(-0.0275625 -0.0648724 -2.63941e-19)
(-0.0381801 -0.0671732 -8.03404e-20)
(-0.0336384 -0.0667921 2.69258e-19)
(-0.0407485 -0.0663313 -1.10605e-19)
(-0.0406549 -0.0679326 1.89321e-20)
(-0.0409474 -0.0660195 4.23327e-19)
(-0.0423225 -0.0676969 1.22337e-20)
(-0.0365641 -0.060881 -1.01082e-19)
(-0.0407318 -0.0647904 -4.18122e-20)
(-0.0352549 -0.0588888 2.33527e-19)
(-0.0402208 -0.062658 -3.46116e-19)
(-0.027344 -0.050043 3.00032e-20)
(-0.033842 -0.0561005 4.20122e-20)
(-0.0395097 -0.0596532 2.6122e-19)
(-0.0255486 -0.0469237 6.30948e-20)
(-0.032389 -0.0525458 -1.02289e-19)
(-0.02381 -0.0431573 1.11806e-19)
(-0.0309514 -0.0482676 1.98331e-20)
(-0.0221735 -0.0387841 -9.93483e-20)
(-0.0295788 -0.0433206 -3.16495e-19)
(-0.0134152 -0.0278766 -1.07906e-19)
(-0.0206812 -0.0338564 9.14526e-20)
(-0.0283153 -0.0377704 1.15392e-19)
(-0.0121044 -0.0234445 -1.03204e-19)
(-0.019372 -0.0284381 1.28734e-19)
(-0.0271998 -0.0316919 -8.5359e-20)
(-0.0110112 -0.0186519 -7.99745e-20)
(-0.0182803 -0.022603 1.27711e-20)
(-0.0101643 -0.0135681 3.38246e-20)
(-0.017435 -0.0164337 1.60308e-20)
(-0.00958654 -0.00827014 -1.55324e-21)
(-0.0168586 -0.0100197 2.47909e-20)
(-0.00929349 -0.0028405 -5.65709e-21)
(-0.0165668 -0.00345585 4.26657e-21)
(1.14476 0.0646915 1.20773e-20)
(1.13785 0.0570695 -4.20321e-22)
(1.13113 0.0500875 4.36669e-21)
(1.12491 0.0433948 6.46177e-21)
(1.11979 0.0375563 8.08184e-21)
(1.11537 0.0315726 3.95852e-21)
(1.11204 0.0265185 1.69687e-21)
(1.10807 0.0212502 9.96739e-21)
(1.10563 0.0163764 -4.81214e-21)
(1.10339 0.0116699 7.60889e-21)
(1.10281 0.00670019 -3.0012e-21)
(1.10136 0.00270595 3.69604e-22)
(1.26823 0.167407 2.73394e-20)
(1.24266 0.158232 -1.35271e-20)
(1.22187 0.140727 3.96167e-20)
(1.20524 0.129895 -7.3034e-21)
(1.19054 0.115673 3.41068e-20)
(1.17832 0.104277 -2.58752e-20)
(1.16773 0.0931146 1.33203e-20)
(1.15806 0.0830785 1.87137e-20)
(1.1496 0.0736958 -1.66889e-20)
(1.14272 0.065216 2.23087e-20)
(1.13599 0.057563 -1.11723e-20)
(1.12941 0.0505314 3.98868e-21)
(1.12335 0.0437931 -7.19814e-21)
(1.11839 0.0379191 -1.52882e-21)
(1.11408 0.0318747 -7.10385e-21)
(1.11085 0.0267953 4.20337e-21)
(1.10692 0.0214676 -3.5347e-21)
(1.26874 -0.168095 -2.7333e-20)
(1.24295 -0.158581 1.35272e-20)
(1.22262 -0.141287 -3.96154e-20)
(1.20521 -0.130238 7.29658e-21)
(1.1907 -0.116223 -3.40532e-20)
(1.178 -0.104692 2.58219e-20)
(1.16701 -0.0938381 -1.32604e-20)
(1.15694 -0.083211 -1.85902e-20)
(1.14943 -0.0741145 1.65456e-20)
(1.14082 -0.0654006 -1.74947e-20)
(1.13472 -0.0571383 -8.1351e-22)
(1.12788 -0.050302 -1.51292e-20)
(1.12281 -0.0429593 6.483e-22)
(1.11801 -0.0372602 -8.61448e-21)
(1.11396 -0.0311146 1.05999e-20)
(1.11004 -0.026018 -4.93058e-21)
(1.10662 -0.020755 -5.57114e-21)
(1.10442 -0.0159154 -3.52171e-22)
(1.10322 -0.0112114 -6.63067e-21)
(1.10188 -0.00679544 -7.72807e-22)
(1.10068 -0.0022567 2.63388e-21)
(1.12436 -0.0426195 4.54713e-21)
(1.11942 -0.0369362 2.11353e-21)
(1.11525 -0.0308542 -7.46782e-21)
(1.11123 -0.0257848 -9.58244e-22)
(1.10773 -0.0205717 -8.81791e-22)
(1.10545 -0.0157767 1.60444e-21)
(1.10419 -0.0111112 1.04728e-21)
(1.10283 -0.00672818 5.77224e-21)
(1.10162 -0.00223742 -8.41967e-21)
)
;

boundaryField
{
    inlet
    {
        type            uniformFixedValue;
        uniformValue    constant (1 0 0);
        value           nonuniform 0();
    }
    outlet
    {
        type            pressureInletOutletVelocity;
        value           nonuniform 0();
    }
    cylinder
    {
        type            fixedValue;
        value           nonuniform 0();
    }
    top
    {
        type            symmetryPlane;
    }
    bottom
    {
        type            symmetryPlane;
    }
    defaultFaces
    {
        type            empty;
    }
    procBoundary26to25
    {
        type            processor;
        value           nonuniform List<vector> 
139
(
(-0.00357825 0.00185715 -1.15659e-20)
(-0.00381694 0.00565552 -1.70059e-20)
(-0.00428828 0.00935857 -9.92934e-21)
(-0.00497901 0.012905 9.48833e-20)
(-0.00586999 0.0162384 -9.16961e-20)
(-0.0134218 0.0277293 -1.92902e-20)
(-0.0134218 0.0277293 -1.92902e-20)
(-0.0149216 0.0317623 -5.11881e-20)
(-0.0165701 0.0353275 6.5195e-20)
(-0.0183282 0.0383866 -1.10521e-19)
(-0.0201558 0.0409135 -2.89994e-19)
(-0.029205 0.0524042 -3.87416e-20)
(-0.029205 0.0524042 -3.87416e-20)
(-0.0309764 0.0541928 2.58731e-19)
(-0.0377809 0.0619804 -7.50183e-20)
(-0.0377809 0.0619804 -7.50183e-20)
(-0.0386488 0.0623831 -2.83943e-19)
(-0.0400766 0.0656628 -1.64111e-20)
(-0.0400766 0.0656628 -1.64111e-20)
(-0.0385494 0.0642159 2.81523e-19)
(-0.0297948 0.0627562 -4.12803e-19)
(-0.0297948 0.0627562 -4.12803e-19)
(-0.0231024 0.0593336 1.92578e-19)
(0.00378431 0.053886 -4.86078e-20)
(0.00378431 0.053886 -4.86078e-20)
(0.0500855 0.0469281 1.24244e-19)
(0.0500855 0.0469281 1.24244e-19)
(0.122511 0.0404539 -4.08914e-19)
(0.122511 0.0404539 -4.08914e-19)
(0.227959 0.0372069 2.26976e-19)
(0.227959 0.0372069 2.26976e-19)
(0.370677 0.0404264 -4.33878e-19)
(0.370677 0.0404264 -4.33878e-19)
(0.547535 0.0528848 6.90027e-19)
(0.547535 0.0528848 6.90027e-19)
(0.743513 0.0751624 -2.27913e-19)
(0.743513 0.0751624 -2.27913e-19)
(0.932401 0.104139 4.28105e-19)
(0.932401 0.104139 4.28105e-19)
(1.0864 0.133604 1.64635e-19)
(1.0864 0.133604 1.64635e-19)
(1.18979 0.157457 -6.29911e-20)
(1.22377 0.162694 3.64145e-19)
(1.22377 0.162694 3.64145e-19)
(1.25923 0.173601 1.87276e-19)
(1.26672 0.172661 4.78284e-20)
(1.26672 0.172661 4.78284e-20)
(1.2692 0.174384 -1.64267e-19)
(1.26957 -0.179593 -2.71027e-19)
(1.26962 -0.174973 1.64203e-19)
(1.25958 -0.174231 -1.87167e-19)
(1.25958 -0.174231 -1.87167e-19)
(1.19003 -0.158072 6.29422e-20)
(1.22406 -0.163343 -1.17852e-20)
(1.22406 -0.163343 -1.17852e-20)
(1.08651 -0.134176 -1.6445e-19)
(1.08651 -0.134176 -1.6445e-19)
(0.932343 -0.104627 -5.47804e-19)
(0.932343 -0.104627 -5.47804e-19)
(0.743293 -0.0755415 5.52156e-19)
(0.743293 -0.0755415 5.52156e-19)
(0.547212 -0.053156 -1.21154e-19)
(0.547212 -0.053156 -1.21154e-19)
(0.370333 -0.0406076 1.22925e-19)
(0.370333 -0.0406076 1.22925e-19)
(0.22766 -0.0373228 4.17803e-19)
(0.22766 -0.0373228 4.17803e-19)
(0.122298 -0.0405274 2.66474e-19)
(0.122298 -0.0405274 2.66474e-19)
(0.0499688 -0.0469753 -8.94161e-20)
(0.0499688 -0.0469753 -8.94161e-20)
(0.00375193 -0.0539158 1.20895e-19)
(0.00375193 -0.0539158 1.20895e-19)
(-0.0230722 -0.0593483 2.44159e-20)
(-0.029739 -0.0628056 1.414e-20)
(-0.029739 -0.0628056 1.414e-20)
(-0.0384674 -0.0642476 4.85463e-20)
(-0.039985 -0.0657315 1.95476e-20)
(-0.039985 -0.0657315 1.95476e-20)
(-0.0385605 -0.0624281 -3.32264e-20)
(-0.0376956 -0.0620611 7.57477e-22)
(-0.0376956 -0.0620611 7.57477e-22)
(-0.0309112 -0.0542439 3.02419e-19)
(-0.0291486 -0.0524879 -1.38715e-19)
(-0.0291486 -0.0524879 -1.38715e-19)
(-0.0201233 -0.0409634 -1.63423e-20)
(-0.0183038 -0.0384629 -4.48047e-20)
(-0.0165529 -0.0354293 9.78649e-20)
(-0.0149104 -0.031888 2.52669e-20)
(-0.0149104 -0.031888 2.52669e-20)
(-0.00693731 -0.0193808 8.16177e-20)
(-0.00587206 -0.016324 -1.38165e-19)
(-0.00498185 -0.0130021 4.31496e-20)
(-0.00429099 -0.00946458 -3.84209e-21)
(-0.00381884 -0.0057676 -1.36259e-21)
(-0.00357893 -0.0019723 -1.77799e-21)
(1.10457 0.0165549 -1.69473e-21)
(1.10236 0.0117925 6.57819e-21)
(1.10184 0.00676668 7.67388e-22)
(1.10036 0.00275226 -2.61196e-21)
(1.26422 0.171222 3.09942e-21)
(1.23763 0.161035 2.64477e-20)
(1.2174 0.142407 1.25782e-21)
(1.20114 0.131277 -1.20084e-20)
(1.18696 0.116678 5.02246e-21)
(1.17516 0.105154 3.13007e-20)
(1.16488 0.093848 5.46238e-21)
(1.15548 0.0837295 -3.42271e-20)
(1.14731 0.0742741 1.78715e-20)
(1.14068 0.065746 4.64541e-21)
(1.13412 0.0580605 1.99553e-21)
(1.12769 0.0509769 -8.34198e-22)
(1.12179 0.0441919 1.02181e-20)
(1.11697 0.0382816 2.79875e-21)
(1.11278 0.0321747 -8.27448e-21)
(1.10965 0.0270709 3.55126e-22)
(1.10457 0.0165549 -1.69473e-21)
(1.10577 0.0216836 5.60206e-21)
(1.2647 -0.171869 -2.66027e-21)
(1.23792 -0.161355 -1.49262e-20)
(1.21815 -0.142968 -1.25586e-21)
(1.20107 -0.131616 1.19996e-20)
(1.18714 -0.117242 -5.02142e-21)
(1.1748 -0.105591 -3.11996e-20)
(1.1641 -0.0945913 -5.39429e-21)
(1.15435 -0.0838487 3.39944e-20)
(1.14711 -0.0747209 -1.77369e-20)
(1.13867 -0.0659141 -4.59176e-21)
(1.13282 -0.0575954 -1.9702e-21)
(1.12612 -0.050724 8.28118e-22)
(1.12125 -0.0432956 -1.01175e-20)
(1.11659 -0.0375815 -2.79347e-21)
(1.11266 -0.031371 8.23389e-21)
(1.10883 -0.0262482 -3.48435e-22)
(1.10549 -0.020935 -5.6064e-21)
(1.10337 -0.0160504 -4.34607e-22)
(1.10223 -0.011309 -5.00196e-21)
(1.10091 -0.00686166 2.31551e-21)
(1.09971 -0.00227517 -6.15592e-21)
)
;
    }
    procBoundary26to27
    {
        type            processor;
        value           nonuniform List<vector> 
134
(
(-0.0247986 0.00348363 7.11057e-22)
(-0.0250527 0.0107809 -7.6256e-21)
(-0.0255519 0.0179255 2.44125e-20)
(-0.026282 0.0248166 -1.33361e-20)
(-0.026282 0.0248166 -1.33361e-20)
(-0.035307 0.0331173 4.24123e-20)
(-0.0360838 0.0396064 -4.90575e-20)
(-0.0369439 0.0455582 2.0307e-19)
(-0.0378479 0.0508888 -1.45335e-19)
(-0.0387487 0.0555217 -1.63101e-20)
(-0.0387487 0.0555217 -1.63101e-20)
(-0.0443504 0.0608231 8.23964e-20)
(-0.0440902 0.063976 -6.21874e-20)
(-0.0434916 0.066211 -1.43734e-19)
(-0.0434916 0.066211 -1.43734e-19)
(-0.0419336 0.0672553 9.82409e-20)
(-0.0383929 0.0674528 -5.99141e-20)
(-0.0383929 0.0674528 -5.99141e-20)
(-0.02643 0.0647328 -3.47673e-19)
(-0.0172348 0.0627353 4.02697e-19)
(-0.0172348 0.0627353 4.02697e-19)
(0.0124848 0.0567507 1.78824e-20)
(0.0124848 0.0567507 1.78824e-20)
(0.060505 0.0496288 4.29599e-20)
(0.0917751 0.045862 -3.30313e-19)
(0.0917751 0.045862 -3.30313e-19)
(0.179965 0.0402952 -5.68712e-20)
(0.179965 0.0402952 -5.68712e-20)
(0.302908 0.0391062 2.35241e-19)
(0.302908 0.0391062 2.35241e-19)
(0.462197 0.0452917 1.93385e-20)
(0.462197 0.0452917 1.93385e-20)
(0.649737 0.0607804 2.88393e-19)
(0.649737 0.0607804 2.88393e-19)
(0.844829 0.084655 1.49951e-19)
(0.844829 0.084655 1.49951e-19)
(1.01877 0.112297 -2.54481e-19)
(1.01877 0.112297 -2.54481e-19)
(1.1478 0.137404 -1.23948e-20)
(1.1478 0.137404 -1.23948e-20)
(1.19228 0.14358 7.91513e-20)
(1.2468 0.157477 7.31265e-21)
(1.2468 0.157477 7.31265e-21)
(1.2672 0.162558 -5.73222e-20)
(1.2672 0.162558 -5.73222e-20)
(1.26763 -0.163244 -2.07134e-19)
(1.26763 -0.163244 -2.07134e-19)
(1.24717 -0.158209 -9.55255e-20)
(1.14796 -0.138092 7.55583e-20)
(1.24717 -0.158209 -9.55255e-20)
(1.19253 -0.144311 -7.91107e-20)
(1.14796 -0.138092 7.55583e-20)
(1.01872 -0.112916 -8.61987e-20)
(1.01872 -0.112916 -8.61987e-20)
(0.844556 -0.0851741 -9.21802e-20)
(0.844556 -0.0851741 -9.21802e-20)
(0.64931 -0.0611909 -2.03754e-19)
(0.64931 -0.0611909 -2.03754e-19)
(0.461723 -0.0456084 -3.84766e-19)
(0.461723 -0.0456084 -3.84766e-19)
(0.302488 -0.0393546 -2.57552e-19)
(0.302488 -0.0393546 -2.57552e-19)
(0.179657 -0.0405006 3.65002e-19)
(0.179657 -0.0405006 3.65002e-19)
(0.0915964 -0.0460434 -2.81503e-19)
(0.0915964 -0.0460434 -2.81503e-19)
(0.0603934 -0.0498509 1.74154e-19)
(0.0124772 -0.0569635 -2.45063e-19)
(0.0124772 -0.0569635 -2.45063e-19)
(-0.0171747 -0.062939 -2.792e-20)
(-0.0171747 -0.062939 -2.792e-20)
(-0.0263359 -0.0649833 -3.72232e-19)
(-0.0382799 -0.067689 -6.51521e-20)
(-0.0382799 -0.067689 -6.51521e-20)
(-0.0418099 -0.0675356 -3.22719e-20)
(-0.0433804 -0.0664683 9.70109e-20)
(-0.0433804 -0.0664683 9.70109e-20)
(-0.0439826 -0.0642735 -3.71112e-20)
(-0.0442494 -0.0611582 1.94523e-19)
(-0.0386763 -0.0558218 8.65104e-20)
(-0.0386763 -0.0558218 8.65104e-20)
(-0.0377851 -0.0512213 -8.28125e-20)
(-0.0368911 -0.0459199 1.23342e-19)
(-0.0360406 -0.0399937 -1.35011e-19)
(-0.0352729 -0.0335261 7.01769e-20)
(-0.0262659 -0.0251687 -3.04904e-20)
(-0.0262659 -0.0251687 -3.04904e-20)
(-0.0255411 -0.0182913 4.68869e-21)
(-0.0250465 -0.011156 1.58751e-20)
(-0.0247966 -0.00386334 5.76729e-21)
(1.14679 0.0641579 -1.63046e-21)
(1.13972 0.0565686 -1.03463e-20)
(1.13284 0.0496367 6.30278e-21)
(1.12646 0.0429902 -2.16201e-21)
(1.12119 0.0371879 6.44889e-21)
(1.11664 0.0312643 9.39137e-21)
(1.11321 0.0262373 4.00918e-21)
(1.10919 0.0210287 5.94538e-21)
(1.10668 0.016195 2.25057e-22)
(1.1044 0.0115442 2.05202e-21)
(1.10376 0.00663149 -1.17674e-21)
(1.10233 0.00266016 8.32439e-21)
(1.27122 0.163497 -4.71531e-20)
(1.24703 0.155358 -9.48018e-21)
(1.22614 0.139032 7.11254e-21)
(1.2093 0.128542 1.07326e-20)
(1.19411 0.11469 -3.21869e-20)
(1.1815 0.103429 -1.3113e-20)
(1.1706 0.0924015 1.76752e-20)
(1.16064 0.0824416 -3.55418e-21)
(1.1519 0.0731266 1.28777e-20)
(1.1519 0.0731266 1.28777e-20)
(1.27176 -0.164229 1.64847e-20)
(1.24734 -0.155737 -2.11421e-22)
(1.2269 -0.139595 -3.05335e-20)
(1.20931 -0.12889 -1.83473e-20)
(1.19427 -0.115229 1.32965e-20)
(1.18122 -0.103824 -7.32971e-21)
(1.16993 -0.0931072 -2.02243e-20)
(1.15954 -0.0825886 -1.34951e-20)
(1.15176 -0.0735205 -1.49905e-20)
(1.14298 -0.0648926 -1.54104e-21)
(1.13662 -0.0566837 4.20299e-22)
(1.12963 -0.0498807 -4.31987e-21)
(1.12963 -0.0498807 -4.31987e-21)
(1.1259 -0.0422697 2.14575e-21)
(1.12082 -0.0366043 -6.41226e-21)
(1.11652 -0.0305857 -9.35423e-21)
(1.11241 -0.0255452 -4.01342e-21)
(1.10883 -0.0203827 -5.95275e-21)
(1.10646 -0.0156325 -2.2547e-22)
(1.10515 -0.0110072 -2.06629e-21)
(1.10377 -0.00665903 1.18629e-21)
(1.10256 -0.00221695 -8.39069e-21)
)
;
    }
}


// ************************************************************************* //
