/*--------------------------------*- C++ -*----------------------------------*\
  =========                 |
  \\      /  F ield         | OpenFOAM: The Open Source CFD Toolbox
   \\    /   O peration     | Website:  https://openfoam.org
    \\  /    A nd           | Version:  7
     \\/     M anipulation  |
\*---------------------------------------------------------------------------*/
FoamFile
{
    version     2.0;
    format      ascii;
    class       volScalarField;
    location    "80";
    object      p;
}
// * * * * * * * * * * * * * * * * * * * * * * * * * * * * * * * * * * * * * //

dimensions      [0 2 -2 0 0 0 0];

internalField   nonuniform List<scalar> 
8820
(
-0.37221
-0.373905
-0.374925
-0.375681
-0.376356
-0.376988
-0.377608
-0.378233
-0.37886
-0.379479
-0.380069
-0.380603
-0.381053
-0.381388
-0.381576
-0.381596
-0.381439
-0.381112
-0.380633
-0.380057
-0.379582
-0.376492
-0.378092
-0.379087
-0.379864
-0.380602
-0.381343
-0.38212
-0.382952
-0.383839
-0.384771
-0.385732
-0.386697
-0.387639
-0.388524
-0.389321
-0.389999
-0.390538
-0.390928
-0.391174
-0.391326
-0.391524
-0.380979
-0.382451
-0.3834
-0.384185
-0.384974
-0.385814
-0.38674
-0.38777
-0.388909
-0.390149
-0.391475
-0.392865
-0.39429
-0.395718
-0.397111
-0.398427
-0.399631
-0.400693
-0.401594
-0.402366
-0.40314
-0.385621
-0.386933
-0.387818
-0.388595
-0.389422
-0.390348
-0.391408
-0.392625
-0.394004
-0.395538
-0.397216
-0.399016
-0.40091
-0.402862
-0.404827
-0.40675
-0.408575
-0.410247
-0.411715
-0.412968
-0.414175
-0.390364
-0.391488
-0.392289
-0.393042
-0.39389
-0.394884
-0.396063
-0.397448
-0.399046
-0.400855
-0.402863
-0.40505
-0.407387
-0.409834
-0.412335
-0.414821
-0.41721
-0.419417
-0.421348
-0.422921
-0.424356
-0.395148
-0.396061
-0.396761
-0.397472
-0.398322
-0.399363
-0.400637
-0.402166
-0.403958
-0.406013
-0.40832
-0.410859
-0.413601
-0.416499
-0.419488
-0.422478
-0.425361
-0.428012
-0.43029
-0.432015
-0.433351
-0.399915
-0.400599
-0.401181
-0.401831
-0.40266
-0.403725
-0.405065
-0.406706
-0.408658
-0.410921
-0.413485
-0.416332
-0.419427
-0.422719
-0.42613
-0.429552
-0.432841
-0.435829
-0.438332
-0.44006
-0.440879
-0.404606
-0.405051
-0.4055
-0.40607
-0.406854
-0.407911
-0.409285
-0.411
-0.41307
-0.415493
-0.418263
-0.421357
-0.42474
-0.428352
-0.432104
-0.435866
-0.439459
-0.442664
-0.445228
-0.446697
-0.44693
-0.409167
-0.409372
-0.409675
-0.410146
-0.410857
-0.411874
-0.413241
-0.414986
-0.417123
-0.419651
-0.422563
-0.425835
-0.429427
-0.433272
-0.437267
-0.441258
-0.445035
-0.448327
-0.450806
-0.451881
-0.451197
-0.413558
-0.413522
-0.413672
-0.414023
-0.414633
-0.415573
-0.41689
-0.418614
-0.420761
-0.423331
-0.426313
-0.429684
-0.433396
-0.437374
-0.4415
-0.445599
-0.449424
-0.452653
-0.454899
-0.455489
-0.453487
-0.417739
-0.417477
-0.417468
-0.417679
-0.418159
-0.418981
-0.4202
-0.421849
-0.423944
-0.426487
-0.429465
-0.43285
-0.436587
-0.44059
-0.444726
-0.448798
-0.452527
-0.45554
-0.457382
-0.457426
-0.453741
-0.42169
-0.421223
-0.421049
-0.421102
-0.421421
-0.422086
-0.423159
-0.424676
-0.426656
-0.429102
-0.431998
-0.435309
-0.438975
-0.442896
-0.446921
-0.45083
-0.454315
-0.456957
-0.458207
-0.457675
-0.452007
-0.425406
-0.424759
-0.42442
-0.424296
-0.424424
-0.424893
-0.42577
-0.427099
-0.428902
-0.431182
-0.43392
-0.437076
-0.440579
-0.444314
-0.448112
-0.451729
-0.454825
-0.456953
-0.457421
-0.456308
-0.448471
-0.4289
-0.428099
-0.427594
-0.427277
-0.427186
-0.427421
-0.428057
-0.429145
-0.430712
-0.432762
-0.435274
-0.438199
-0.441453
-0.444909
-0.448374
-0.451577
-0.454147
-0.455635
-0.455145
-0.453449
-0.443438
-0.4322
-0.431273
-0.430603
-0.430078
-0.429742
-0.429707
-0.430061
-0.430861
-0.432141
-0.433905
-0.436128
-0.438755
-0.441688
-0.444778
-0.447811
-0.450486
-0.452403
-0.453133
-0.451552
-0.449236
-0.437269
-0.435354
-0.434324
-0.433489
-0.432742
-0.432139
-0.431805
-0.431841
-0.432314
-0.433263
-0.434693
-0.436577
-0.438847
-0.44139
-0.444035
-0.44654
-0.448578
-0.449716
-0.44957
-0.446821
-0.443788
-0.430296
-0.438425
-0.437309
-0.436307
-0.435325
-0.434436
-0.43378
-0.433469
-0.433584
-0.434168
-0.435227
-0.436728
-0.438589
-0.440679
-0.442798
-0.444675
-0.445954
-0.446185
-0.445028
-0.44111
-0.437208
-0.422765
-0.441492
-0.440298
-0.439122
-0.437893
-0.436702
-0.435706
-0.435031
-0.434765
-0.434959
-0.435617
-0.436696
-0.4381
-0.439668
-0.44117
-0.442302
-0.44268
-0.441858
-0.439523
-0.434485
-0.429542
-0.414774
-0.444643
-0.443366
-0.442008
-0.44052
-0.439015
-0.437667
-0.436614
-0.435955
-0.435741
-0.435972
-0.436594
-0.437484
-0.438453
-0.439232
-0.439478
-0.438785
-0.436727
-0.432982
-0.426811
-0.42054
-0.406026
-0.447974
-0.446596
-0.44504
-0.443282
-0.441455
-0.439748
-0.438312
-0.43725
-0.436614
-0.436395
-0.436516
-0.436829
-0.437104
-0.437032
-0.436236
-0.434286
-0.430784
-0.425357
-0.417799
-0.409434
-0.395497
-0.451585
-0.450072
-0.448299
-0.446257
-0.444101
-0.442032
-0.44021
-0.43874
-0.437667
-0.436967
-0.436537
-0.436192
-0.435661
-0.434596
-0.432595
-0.429227
-0.424118
-0.416854
-0.40752
-0.395852
-0.382061
-0.455568
-0.453876
-0.451859
-0.44952
-0.447028
-0.444596
-0.442386
-0.440501
-0.438971
-0.43775
-0.4367
-0.435596
-0.43413
-0.431927
-0.428577
-0.423677
-0.416903
-0.4079
-0.396813
-0.382269
-0.366851
-0.460013
-0.458083
-0.455791
-0.453139
-0.450303
-0.447505
-0.444903
-0.442589
-0.440572
-0.438772
-0.437016
-0.435038
-0.4325
-0.429018
-0.424211
-0.417732
-0.409338
-0.398796
-0.386202
-0.370785
-0.354326
-0.464994
-0.462758
-0.460157
-0.457174
-0.453984
-0.450812
-0.447808
-0.445041
-0.44249
-0.440038
-0.437469
-0.434487
-0.430739
-0.425865
-0.419536
-0.4115
-0.401619
-0.389778
-0.376168
-0.360218
-0.343406
-0.470572
-0.467958
-0.465009
-0.461672
-0.458115
-0.454558
-0.45113
-0.447872
-0.444724
-0.441523
-0.43802
-0.433897
-0.428817
-0.422467
-0.414607
-0.405093
-0.393898
-0.381026
-0.366718
-0.350621
-0.334093
-0.476792
-0.473724
-0.470387
-0.466674
-0.462732
-0.458767
-0.454884
-0.451079
-0.447247
-0.443184
-0.438611
-0.433215
-0.4267
-0.418833
-0.409479
-0.398606
-0.386284
-0.372611
-0.357852
-0.341789
-0.325587
-0.483684
-0.480087
-0.476323
-0.472209
-0.467857
-0.463455
-0.459067
-0.45464
-0.450017
-0.444958
-0.439175
-0.432386
-0.424364
-0.414978
-0.404204
-0.392111
-0.378842
-0.364552
-0.3495
-0.33355
-0.317723
-0.491262
-0.487067
-0.482837
-0.478295
-0.473505
-0.468624
-0.463664
-0.458515
-0.452972
-0.446771
-0.43964
-0.431357
-0.42179
-0.410919
-0.398823
-0.385653
-0.371595
-0.356827
-0.341579
-0.32577
-0.310236
-0.499525
-0.49467
-0.48994
-0.484944
-0.479679
-0.474261
-0.468642
-0.462648
-0.456035
-0.448538
-0.439931
-0.430078
-0.418961
-0.406667
-0.393363
-0.379251
-0.364534
-0.349388
-0.334
-0.318323
-0.303028
-0.50846
-0.50289
-0.497632
-0.492153
-0.48637
-0.480341
-0.473949
-0.466964
-0.459116
-0.450169
-0.439974
-0.428506
-0.415864
-0.402231
-0.387834
-0.3729
-0.357627
-0.342172
-0.326673
-0.311109
-0.295985
-0.518034
-0.511707
-0.505898
-0.499907
-0.493549
-0.486814
-0.479513
-0.471366
-0.46211
-0.451567
-0.439698
-0.426601
-0.412484
-0.397605
-0.382227
-0.366576
-0.350827
-0.335108
-0.319514
-0.304037
-0.289035
-0.528197
-0.521083
-0.514705
-0.50817
-0.501167
-0.493608
-0.485234
-0.47574
-0.464899
-0.452634
-0.439034
-0.424322
-0.4088
-0.392776
-0.376519
-0.360236
-0.344073
-0.328123
-0.31244
-0.297029
-0.282109
-0.538879
-0.530962
-0.524002
-0.516882
-0.509147
-0.50062
-0.490989
-0.479952
-0.467362
-0.453273
-0.437915
-0.421631
-0.404787
-0.387715
-0.37067
-0.35383
-0.337301
-0.321143
-0.305376
-0.290013
-0.275146
-0.549985
-0.54126
-0.533708
-0.525956
-0.517379
-0.507719
-0.496628
-0.483854
-0.46937
-0.453387
-0.436279
-0.418484
-0.400409
-0.382383
-0.364633
-0.347295
-0.330441
-0.314094
-0.298251
-0.282921
-0.268093
-0.56139
-0.551871
-0.543718
-0.535271
-0.525724
-0.514742
-0.501982
-0.487288
-0.470795
-0.452884
-0.434061
-0.414833
-0.395623
-0.376733
-0.35835
-0.340569
-0.323423
-0.306908
-0.290997
-0.275694
-0.260899
-0.572944
-0.562655
-0.55389
-0.544674
-0.534005
-0.521499
-0.506864
-0.490091
-0.471509
-0.451673
-0.431197
-0.410628
-0.390377
-0.370707
-0.351758
-0.333583
-0.316179
-0.299516
-0.283551
-0.268274
-0.253516
-0.584463
-0.573443
-0.564054
-0.553975
-0.542016
-0.527778
-0.511077
-0.492101
-0.471391
-0.449665
-0.427619
-0.405809
-0.384614
-0.364245
-0.344793
-0.326269
-0.308642
-0.291855
-0.275855
-0.260611
-0.245902
-0.595738
-0.584038
-0.574004
-0.562955
-0.549527
-0.533353
-0.514421
-0.493156
-0.470323
-0.446776
-0.42326
-0.400315
-0.378269
-0.357279
-0.337386
-0.318562
-0.300747
-0.283865
-0.267853
-0.252655
-0.238018
-0.606528
-0.594211
-0.583507
-0.571366
-0.556284
-0.537987
-0.516695
-0.493106
-0.468192
-0.442919
-0.418049
-0.394079
-0.371279
-0.349745
-0.329471
-0.310396
-0.292433
-0.275491
-0.259497
-0.244362
-0.229826
-0.616572
-0.603708
-0.5923
-0.578939
-0.562022
-0.541443
-0.51771
-0.491804
-0.464893
-0.438014
-0.411914
-0.387034
-0.363575
-0.341574
-0.320983
-0.301709
-0.283644
-0.26668
-0.250737
-0.235693
-0.221296
-0.625589
-0.612254
-0.600104
-0.585388
-0.566474
-0.543491
-0.517283
-0.489119
-0.460326
-0.43198
-0.404785
-0.379112
-0.355091
-0.332704
-0.311862
-0.292444
-0.274324
-0.257382
-0.241529
-0.226608
-0.212398
-0.633284
-0.61956
-0.606623
-0.590423
-0.569374
-0.543913
-0.515251
-0.484929
-0.4544
-0.424741
-0.396593
-0.370247
-0.345763
-0.323072
-0.302048
-0.282547
-0.264426
-0.247554
-0.231833
-0.217073
-0.203105
-0.639357
-0.625327
-0.611559
-0.593756
-0.570469
-0.542506
-0.511462
-0.479125
-0.447031
-0.416226
-0.387272
-0.360377
-0.335533
-0.312623
-0.29149
-0.271969
-0.253902
-0.237152
-0.22161
-0.20706
-0.19339
-0.64351
-0.629257
-0.614613
-0.595111
-0.569524
-0.539091
-0.505788
-0.471613
-0.438144
-0.406371
-0.376764
-0.349446
-0.324347
-0.301307
-0.280141
-0.260666
-0.24271
-0.226131
-0.210817
-0.196529
-0.183212
-0.645452
-0.631058
-0.615502
-0.594229
-0.566331
-0.533514
-0.498118
-0.462311
-0.427676
-0.395119
-0.365015
-0.337405
-0.31216
-0.289083
-0.267963
-0.248602
-0.230813
-0.214452
-0.199404
-0.185416
-0.172475
-0.644909
-0.630454
-0.613958
-0.590877
-0.560708
-0.525643
-0.488362
-0.451156
-0.415572
-0.382423
-0.351983
-0.324214
-0.298936
-0.275918
-0.254929
-0.235752
-0.218191
-0.202096
-0.187344
-0.173644
-0.161
-0.64163
-0.627191
-0.609744
-0.584856
-0.552504
-0.515378
-0.476454
-0.438097
-0.401795
-0.368248
-0.337634
-0.309844
-0.284649
-0.261791
-0.241019
-0.222103
-0.204837
-0.189069
-0.174661
-0.161217
-0.148662
-0.635394
-0.621046
-0.602652
-0.575999
-0.541605
-0.502647
-0.462348
-0.423104
-0.386316
-0.352571
-0.321948
-0.294275
-0.269282
-0.246687
-0.226223
-0.207648
-0.190751
-0.175384
-0.161386
-0.14825
-0.135871
-0.626014
-0.611828
-0.592516
-0.56418
-0.527931
-0.487404
-0.446019
-0.406162
-0.369126
-0.33538
-0.304914
-0.277498
-0.252829
-0.230603
-0.210541
-0.19239
-0.17594
-0.161042
-0.147478
-0.134663
-0.123039
-0.613342
-0.599389
-0.57921
-0.549313
-0.511437
-0.469634
-0.427467
-0.387274
-0.350227
-0.316679
-0.286536
-0.259519
-0.235296
-0.213545
-0.193987
-0.176342
-0.160412
-0.146044
-0.132965
-0.120601
-0.109797
-0.597274
-0.583622
-0.562649
-0.531354
-0.492114
-0.44935
-0.406713
-0.366462
-0.329639
-0.296483
-0.266831
-0.240354
-0.216708
-0.195541
-0.176568
-0.159517
-0.144182
-0.130406
-0.117879
-0.106049
-0.0960415
-0.57775
-0.564466
-0.542797
-0.510299
-0.469985
-0.426589
-0.383799
-0.343766
-0.307396
-0.274823
-0.24584
-0.220043
-0.197083
-0.176609
-0.158318
-0.141941
-0.127272
-0.114153
-0.102239
-0.0909885
-0.0817705
-0.554754
-0.541904
-0.519661
-0.486183
-0.445109
-0.401421
-0.358792
-0.319246
-0.283555
-0.251767
-0.223589
-0.198616
-0.176467
-0.156789
-0.139272
-0.12365
-0.109717
-0.0973139
-0.0860636
-0.0754288
-0.0670172
-0.528319
-0.515966
-0.49329
-0.459081
-0.417578
-0.373939
-0.331772
-0.292974
-0.258187
-0.227359
-0.200148
-0.176131
-0.154911
-0.136131
-0.119478
-0.104686
-0.091556
-0.0799258
-0.0693831
-0.0593973
-0.0518223
-0.498521
-0.486726
-0.463776
-0.429112
-0.387521
-0.344248
-0.302832
-0.265044
-0.231369
-0.201679
-0.175587
-0.152656
-0.132478
-0.114695
-0.0989924
-0.0851047
-0.0728393
-0.0620322
-0.0522364
-0.0429328
-0.0362234
-0.465476
-0.4543
-0.43126
-0.396441
-0.355069
-0.312436
-0.272108
-0.235567
-0.203204
-0.174818
-0.14999
-0.12827
-0.109244
-0.0925518
-0.0778813
-0.064968
-0.0536265
-0.0436896
-0.0346774
-0.0260835
-0.0202409
-0.429328
-0.418858
-0.395931
-0.361218
-0.320276
-0.27874
-0.239741
-0.20467
-0.173806
-0.146882
-0.123454
-0.103061
-0.0852901
-0.0697804
-0.0562202
-0.0443491
-0.033989
-0.0249698
-0.016778
-0.00891035
-0.00389862
-0.390259
-0.380608
-0.357976
-0.323481
-0.283504
-0.243309
-0.205888
-0.172495
-0.143302
-0.117987
-0.0960844
-0.0771302
-0.0607104
-0.0464673
-0.0340913
-0.0233271
-0.014005
-0.00595026
0.00138706
0.00851487
0.0126988
-0.348475
-0.339787
-0.31749
-0.28364
-0.244932
-0.206333
-0.170721
-0.139197
-0.111831
-0.0882583
-0.0679979
-0.0505837
-0.0356046
-0.0227062
-0.0115826
-0.00198532
0.00624898
0.0133059
0.0197695
0.0261202
0.0293324
-0.304191
-0.296676
-0.274761
-0.241996
-0.204773
-0.168018
-0.134426
-0.104939
-0.079542
-0.0578324
-0.0393189
-0.023537
-0.01008
0.00140208
0.0112101
0.0195865
0.0266962
0.0327482
0.0383381
0.0438354
0.04589
-0.257716
-0.251495
-0.230283
-0.198748
-0.163263
-0.128582
-0.0971948
-0.0698964
-0.046593
-0.0268527
-0.0101791
0.00388833
0.01575
0.0257498
0.034182
0.0412853
0.0472398
0.0522875
0.0569886
0.0615489
0.0626783
-0.209675
-0.204398
-0.184243
-0.154168
-0.120655
-0.0882516
-0.0592312
-0.034251
-0.0131484
0.00453101
0.0192848
0.0315667
0.0417687
0.050226
0.0572239
0.0629986
0.0677529
0.0717518
0.0754658
0.0790182
0.0798924
-0.160143
-0.155858
-0.13693
-0.108541
-0.0772124
-0.0472615
-0.020746
0.00180765
0.0206207
0.0361639
0.0489322
0.0593701
0.067859
0.0747226
0.0802342
0.0846266
0.0881183
0.0909587
0.0934601
0.0957882
0.0963493
-0.109444
-0.106248
-0.0886715
-0.0621664
-0.0332069
-0.00585503
0.0180442
0.0380849
0.0545387
0.0678873
0.0786194
0.0871686
0.0939037
0.0991353
0.103124
0.106098
0.108277
0.109849
0.110831
0.111209
0.112046
-0.0579507
-0.0559111
-0.0398059
-0.0153539
0.011084
0.0357202
0.0569178
0.0743819
0.0884265
0.0995393
0.1082
0.114831
0.119785
0.12336
0.125806
0.127343
0.128179
0.128431
0.128028
0.127159
0.127302
-0.0060366
-0.00520118
0.00932506
0.0315842
0.0553799
0.0772137
0.0956507
0.110497
0.122103
0.130956
0.137527
0.142223
0.145384
0.147293
0.148186
0.148277
0.147745
0.146657
0.144956
0.143013
0.142215
0.0459246
0.0455235
0.0583787
0.0783342
0.0993995
0.118374
0.134018
0.146228
0.155384
0.161973
0.166452
0.169213
0.170581
0.170827
0.170175
0.168825
0.166933
0.164543
0.161633
0.158657
0.156846
0.0975589
0.0959021
0.107014
0.124584
0.142863
0.158951
0.171794
0.181373
0.188088
0.192424
0.194824
0.195665
0.195256
0.193855
0.191674
0.188898
0.185667
0.182011
0.17794
0.17395
0.171127
0.148495
0.145575
0.154892
0.170026
0.185493
0.198696
0.208756
0.21573
0.220034
0.222146
0.222497
0.221445
0.219288
0.216268
0.212585
0.208413
0.203875
0.198994
0.193804
0.188817
0.184985
0.198366
0.194189
0.201681
0.214357
0.227019
0.237366
0.244687
0.249101
0.251042
0.250977
0.249322
0.246421
0.242556
0.237957
0.232811
0.22728
0.221473
0.215411
0.209143
0.203183
0.19835
0.246814
0.241397
0.247058
0.257284
0.267176
0.274725
0.279371
0.281295
0.280937
0.278758
0.275156
0.270462
0.264942
0.258814
0.252253
0.245409
0.238381
0.231185
0.223883
0.216976
0.211156
0.293493
0.286863
0.290709
0.298522
0.30571
0.310542
0.312602
0.312122
0.30955
0.305334
0.299859
0.29344
0.28633
0.278733
0.270815
0.262714
0.254516
0.246239
0.237951
0.230127
0.223344
0.338067
0.330265
0.332336
0.3378
0.342376
0.344597
0.344181
0.341404
0.336717
0.330558
0.323296
0.315233
0.306608
0.297613
0.288404
0.279106
0.2698
0.260498
0.251276
0.242572
0.234858
0.380221
0.371298
0.371653
0.37486
0.376941
0.376682
0.37392
0.368968
0.362282
0.354286
0.345338
0.335722
0.325668
0.315356
0.30493
0.294506
0.284155
0.273892
0.263793
0.254252
0.245645
0.419654
0.409672
0.408392
0.409458
0.409187
0.406599
0.401638
0.394653
0.386098
0.376386
0.365862
0.354797
0.343409
0.331867
0.320307
0.308833
0.29751
0.286354
0.275438
0.26511
0.255658
0.456087
0.445119
0.442304
0.441369
0.438911
0.434164
0.427171
0.418308
0.408027
0.396733
0.384754
0.372354
0.359736
0.347062
0.334456
0.322015
0.309799
0.297822
0.286155
0.275095
0.264853
0.489264
0.477391
0.47316
0.470386
0.465926
0.45921
0.450366
0.439794
0.427944
0.41521
0.40191
0.388296
0.374561
0.360858
0.347303
0.333985
0.320958
0.308237
0.295889
0.284158
0.27319
0.518952
0.506265
0.500753
0.496321
0.490063
0.481583
0.471084
0.458984
0.445733
0.431713
0.417234
0.402536
0.387805
0.373184
0.358782
0.344682
0.330931
0.317549
0.304593
0.292259
0.280635
0.544943
0.531542
0.5249
0.519008
0.511172
0.501148
0.489201
0.475767
0.461292
0.44615
0.430642
0.414997
0.399397
0.383974
0.368834
0.35405
0.339669
0.32571
0.312224
0.299359
0.287157
0.56706
0.55305
0.54544
0.538301
0.529123
0.517787
0.504612
0.490046
0.474533
0.45844
0.442058
0.425612
0.409274
0.393173
0.377406
0.362044
0.347127
0.33268
0.318745
0.305426
0.292729
0.585149
0.570644
0.56224
0.554081
0.543806
0.531401
0.517225
0.501738
0.48538
0.468513
0.451421
0.434323
0.417385
0.400731
0.384455
0.368621
0.35327
0.338425
0.324124
0.310434
0.297329
0.599089
0.584205
0.575191
0.566249
0.555133
0.541909
0.526969
0.510778
0.493774
0.476316
0.458681
0.441084
0.423688
0.406612
0.389946
0.373752
0.358067
0.342918
0.328336
0.314361
0.30094
0.608789
0.593647
0.584213
0.574731
0.563038
0.549252
0.533788
0.517115
0.499669
0.481806
0.4638
0.445862
0.428151
0.410786
0.393852
0.37741
0.361497
0.346138
0.331363
0.31719
0.30355
0.614187
0.59891
0.58925
0.579478
0.567476
0.55339
0.537646
0.520716
0.503035
0.484956
0.466752
0.448632
0.430753
0.413233
0.396156
0.37958
0.363543
0.348071
0.333191
0.318911
0.305149
0.615253
0.599967
0.590278
0.580467
0.568425
0.554303
0.538526
0.521566
0.503857
0.485753
0.467526
0.449384
0.431484
0.413944
0.396848
0.380255
0.3642
0.348711
0.333815
0.319518
0.305734
0.61199
0.596818
0.587297
0.577699
0.565889
0.551993
0.536428
0.519664
0.502137
0.484197
0.466121
0.448117
0.430344
0.41292
0.39593
0.379433
0.363467
0.348057
0.333234
0.319012
0.305304
0.60443
0.589496
0.580336
0.571201
0.559889
0.546481
0.531373
0.515031
0.497889
0.480304
0.462552
0.444846
0.427345
0.410171
0.393411
0.377125
0.361352
0.346117
0.331456
0.317398
0.303865
0.592637
0.578063
0.569454
0.561025
0.550473
0.537809
0.523398
0.507699
0.491147
0.474102
0.456845
0.439592
0.422509
0.405717
0.389308
0.373346
0.35787
0.342905
0.328492
0.314688
0.301425
0.576707
0.56261
0.554734
0.547246
0.537711
0.526041
0.512561
0.497721
0.481957
0.465634
0.449039
0.432393
0.415867
0.399587
0.38365
0.368122
0.353044
0.338442
0.324363
0.310897
0.297998
0.556765
0.543256
0.536288
0.529967
0.521692
0.511257
0.498937
0.485164
0.470381
0.454956
0.439185
0.423296
0.407464
0.391822
0.376471
0.361485
0.346905
0.332756
0.319094
0.306049
0.293602
0.532965
0.520151
0.514252
0.50931
0.50253
0.49356
0.482616
0.470113
0.456495
0.442139
0.427347
0.412357
0.397351
0.382469
0.367817
0.353475
0.33949
0.325882
0.312716
0.30017
0.288259
0.50549
0.49347
0.48879
0.485424
0.480356
0.47307
0.463709
0.452667
0.44039
0.427264
0.413601
0.399647
0.385592
0.371585
0.35774
0.344142
0.330841
0.317859
0.305268
0.293293
0.281996
0.47455
0.463415
0.460088
0.458477
0.455324
0.449925
0.44234
0.43294
0.42217
0.410426
0.398032
0.385242
0.372259
0.359237
0.346299
0.333539
0.321011
0.308735
0.296791
0.285455
0.274843
0.440381
0.430212
0.428357
0.42866
0.427604
0.42428
0.41865
0.411058
0.40195
0.391731
0.380736
0.369233
0.357431
0.345498
0.333563
0.321729
0.310056
0.298563
0.287334
0.276699
0.266837
0.403241
0.394112
0.393827
0.396183
0.397387
0.396304
0.392793
0.387163
0.379858
0.371295
0.36182
0.351714
0.341198
0.330448
0.319604
0.308778
0.298037
0.287399
0.276952
0.267073
0.258017
0.363413
0.355385
0.35675
0.361273
0.364877
0.366185
0.364938
0.361407
0.356034
0.349244
0.341399
0.332792
0.323655
0.314175
0.304504
0.294762
0.285024
0.275307
0.265701
0.256628
0.248427
0.321199
0.314323
0.317398
0.324176
0.330294
0.33412
0.335264
0.333954
0.330625
0.325715
0.319597
0.312578
0.304904
0.296774
0.288348
0.279758
0.271087
0.262353
0.253645
0.245421
0.238115
0.276917
0.271235
0.276056
0.285152
0.293874
0.300321
0.303963
0.304976
0.303789
0.300848
0.296542
0.291191
0.285054
0.278342
0.271226
0.263849
0.256304
0.24861
0.240849
0.233511
0.227133
0.230904
0.226443
0.233027
0.244476
0.255863
0.265009
0.271234
0.274655
0.27569
0.274795
0.272371
0.268754
0.264217
0.258982
0.253232
0.247122
0.240754
0.234151
0.227385
0.220964
0.215537
0.183507
0.180286
0.188624
0.202432
0.216517
0.228415
0.237285
0.243179
0.2465
0.24771
0.247226
0.245397
0.24251
0.238801
0.234464
0.229665
0.224519
0.219053
0.213324
0.207847
0.203389
0.135087
0.133111
0.143174
0.159316
0.176102
0.190778
0.202332
0.210742
0.216393
0.219752
0.221249
0.221249
0.220052
0.217906
0.215019
0.211567
0.207682
0.203395
0.198743
0.194233
0.190753
0.0860085
0.0852716
0.0970082
0.115431
0.134889
0.152341
0.166594
0.177543
0.18555
0.191085
0.19459
0.196445
0.196964
0.196408
0.194997
0.19292
0.190326
0.187257
0.183724
0.180199
0.1777
0.0366439
0.0371277
0.0504654
0.0710864
0.0931575
0.113354
0.130294
0.143783
0.154152
0.161872
0.167396
0.171118
0.173366
0.174415
0.174494
0.173807
0.172523
0.170705
0.168336
0.165817
0.164303
-0.0126341
-0.0109608
0.00388672
0.0265934
0.051186
0.0740662
0.0936572
0.109664
0.122382
0.132279
0.139817
0.145403
0.14938
0.152036
0.153611
0.154319
0.154355
0.153824
0.152701
0.151235
0.150647
-0.0614533
-0.0586369
-0.0423861
-0.0177343
0.0092562
0.0347297
0.0569086
0.0753888
0.0904225
0.10247
0.112001
0.119434
0.125125
0.129375
0.132436
0.134528
0.13586
0.136596
0.136785
0.13651
0.136672
-0.109443
-0.105551
-0.088013
-0.0615852
-0.0323523
-0.00440612
0.0202716
0.0411581
0.0584542
0.0726081
0.0840947
0.0933424
0.100719
0.106538
0.111063
0.114522
0.117122
0.119091
0.120733
0.122289
0.122428
-0.156234
-0.151359
-0.132657
-0.104652
-0.0733638
-0.0430947
-0.0160334
0.00716951
0.0266555
0.0428548
0.056244
0.0672596
0.0762797
0.0836277
0.0895799
0.0943671
0.0981871
0.101288
0.104109
0.106818
0.107219
-0.201532
-0.195689
-0.175993
-0.146639
-0.113509
-0.0810951
-0.0517911
-0.0263836
-0.00479947
0.0133672
0.0285909
0.0413138
0.0519216
0.0607459
0.0680714
0.0741311
0.0791028
0.083215
0.0869881
0.0906415
0.0911919
-0.245227
-0.238114
-0.217739
-0.187263
-0.152527
-0.118174
-0.086793
-0.0593137
-0.0357416
-0.0157015
0.0012743
0.0156311
0.0277601
0.0379982
0.0466358
0.0539088
0.0599798
0.0650464
0.0696612
0.0741929
0.0755837
-0.286683
-0.278407
-0.257774
-0.226261
-0.19017
-0.154109
-0.120839
-0.0914408
-0.066008
-0.0442035
-0.0255709
-0.00966468
0.00390979
0.0154932
0.0253798
0.0338105
0.0409454
0.0469593
0.0523938
0.057722
0.0601939
-0.325644
-0.31643
-0.295431
-0.263486
-0.226207
-0.188685
-0.153737
-0.122593
-0.0954436
-0.0719977
-0.0518154
-0.0344542
-0.0195178
-0.0066632
0.0044068
0.0139384
0.0220973
0.0290478
0.0352987
0.0413466
0.044715
-0.361905
-0.351895
-0.330627
-0.298464
-0.260449
-0.221699
-0.185306
-0.152608
-0.123902
-0.0989507
-0.0773368
-0.0586242
-0.0424171
-0.0283716
-0.0161888
-0.00561847
0.00351239
0.011364
0.0184105
0.0251403
0.0292632
-0.395266
-0.384561
-0.363214
-0.331009
-0.292615
-0.252972
-0.215376
-0.181336
-0.151247
-0.124939
-0.102021
-0.0820691
-0.0646899
-0.0495397
-0.0363199
-0.0247774
-0.0147328
-0.00602835
0.00177864
0.00917673
0.0140571
-0.425562
-0.414229
-0.392994
-0.361017
-0.322503
-0.282316
-0.243796
-0.208637
-0.177355
-0.149848
-0.125764
-0.104692
-0.0862452
-0.0700822
-0.0559051
-0.0434597
-0.0325603
-0.0230516
-0.0145214
-0.00647176
-0.000798616
-0.452654
-0.440751
-0.419795
-0.388326
-0.350005
-0.309571
-0.270425
-0.234389
-0.202113
-0.173579
-0.148472
-0.126405
-0.107001
-0.0899211
-0.07487
-0.061593
-0.0498987
-0.0396336
-0.0304176
-0.0217437
-0.0152789
-0.476439
-0.464029
-0.443499
-0.412791
-0.374988
-0.334627
-0.295146
-0.258488
-0.225426
-0.196043
-0.170063
-0.147133
-0.126885
-0.108987
-0.0931486
-0.0791142
-0.0666881
-0.0557181
-0.0458559
-0.0365903
-0.0293618
-0.496858
-0.484004
-0.464029
-0.434313
-0.397339
-0.357382
-0.317866
-0.280846
-0.247222
-0.217161
-0.190465
-0.166809
-0.145834
-0.127222
-0.110684
-0.09597
-0.082879
-0.0712607
-0.0607972
-0.0509728
-0.0430079
-0.513896
-0.500665
-0.481351
-0.452831
-0.416981
-0.377751
-0.338507
-0.301391
-0.267426
-0.236883
-0.209631
-0.185378
-0.163797
-0.144575
-0.127431
-0.112117
-0.0984305
-0.086226
-0.0752148
-0.064866
-0.0561741
-0.527585
-0.514045
-0.495478
-0.468327
-0.433868
-0.395679
-0.357012
-0.320069
-0.285991
-0.255158
-0.227512
-0.202806
-0.180737
-0.161009
-0.143351
-0.12752
-0.113309
-0.100583
-0.0890895
-0.0782663
-0.0688224
-0.538003
-0.524224
-0.506465
-0.48082
-0.447991
-0.411136
-0.373346
-0.336846
-0.302887
-0.271955
-0.244078
-0.219059
-0.196625
-0.176499
-0.158419
-0.142151
-0.127491
-0.114306
-0.102404
-0.0912055
-0.0809674
-0.545272
-0.531327
-0.514414
-0.490375
-0.459374
-0.424123
-0.387496
-0.351707
-0.318096
-0.287261
-0.259315
-0.234121
-0.211443
-0.191023
-0.172616
-0.155997
-0.140965
-0.127381
-0.115108
-0.103691
-0.0927772
-0.549556
-0.53552
-0.51947
-0.497096
-0.46808
-0.434667
-0.399473
-0.364654
-0.33162
-0.301074
-0.273221
-0.24799
-0.225184
-0.204574
-0.18593
-0.169041
-0.153714
-0.139801
-0.127186
-0.115544
-0.104798
-0.551056
-0.537007
-0.521819
-0.501128
-0.474204
-0.442828
-0.409309
-0.375708
-0.343474
-0.313407
-0.285806
-0.260671
-0.237854
-0.217153
-0.198361
-0.181279
-0.165728
-0.151562
-0.138676
-0.126828
-0.116019
-0.550006
-0.536026
-0.521682
-0.502655
-0.477881
-0.448692
-0.417062
-0.384907
-0.353689
-0.324286
-0.297094
-0.272186
-0.249468
-0.228773
-0.209915
-0.192715
-0.177003
-0.162642
-0.149525
-0.137429
-0.126333
-0.546668
-0.532842
-0.519312
-0.501893
-0.479276
-0.452377
-0.42281
-0.392308
-0.362307
-0.33375
-0.307116
-0.282562
-0.26005
-0.239453
-0.22061
-0.203358
-0.187542
-0.17303
-0.159715
-0.14738
-0.135963
-0.541324
-0.527737
-0.514984
-0.49909
-0.47859
-0.454027
-0.426655
-0.397985
-0.369388
-0.341845
-0.315918
-0.291839
-0.269635
-0.249222
-0.230468
-0.213229
-0.197365
-0.182748
-0.169278
-0.156757
-0.145066
-0.534266
-0.521007
-0.508991
-0.494516
-0.476047
-0.453814
-0.428721
-0.402027
-0.375
-0.348632
-0.32355
-0.300064
-0.278265
-0.258118
-0.239524
-0.222361
-0.206502
-0.191832
-0.178257
-0.165606
-0.153705
-0.525795
-0.512949
-0.501632
-0.488455
-0.471895
-0.451935
-0.429151
-0.404538
-0.379224
-0.354177
-0.330072
-0.307289
-0.285989
-0.266185
-0.247817
-0.230789
-0.21499
-0.200316
-0.186683
-0.173951
-0.161901
-0.516208
-0.503858
-0.493203
-0.4812
-0.466397
-0.448604
-0.42811
-0.405639
-0.382149
-0.358553
-0.335547
-0.313575
-0.29286
-0.273473
-0.255394
-0.238554
-0.222865
-0.208233
-0.194584
-0.181813
-0.16967
-0.505791
-0.494014
-0.483993
-0.473038
-0.459824
-0.444053
-0.425778
-0.405464
-0.383876
-0.361838
-0.340044
-0.318982
-0.298937
-0.280036
-0.262302
-0.2457
-0.230164
-0.215616
-0.201991
-0.189214
-0.177029
-0.494816
-0.483682
-0.474272
-0.464249
-0.452448
-0.438523
-0.422349
-0.404158
-0.384514
-0.364118
-0.343634
-0.323574
-0.304277
-0.285926
-0.268591
-0.252272
-0.236929
-0.222502
-0.208934
-0.19618
-0.183994
-0.483532
-0.4731
-0.464286
-0.45509
-0.444528
-0.432255
-0.418027
-0.401881
-0.384178
-0.36548
-0.346385
-0.327413
-0.308939
-0.291199
-0.274312
-0.258316
-0.2432
-0.228925
-0.215445
-0.202736
-0.190584
-0.472162
-0.462478
-0.454251
-0.445795
-0.436309
-0.425487
-0.413022
-0.398798
-0.382993
-0.366014
-0.348371
-0.330559
-0.312979
-0.295909
-0.279516
-0.263879
-0.24902
-0.234923
-0.221555
-0.208909
-0.196817
-0.460899
-0.451998
-0.444353
-0.436566
-0.42801
-0.418443
-0.407539
-0.395082
-0.381091
-0.365817
-0.349662
-0.333071
-0.316448
-0.300105
-0.284251
-0.269007
-0.25443
-0.240532
-0.227295
-0.214725
-0.202714
-0.449906
-0.441807
-0.434743
-0.427569
-0.41982
-0.411325
-0.401778
-0.390906
-0.378607
-0.364988
-0.350328
-0.335003
-0.319394
-0.303831
-0.28856
-0.273742
-0.259471
-0.245789
-0.232699
-0.220211
-0.208294
-0.439314
-0.432023
-0.425538
-0.418937
-0.411893
-0.404309
-0.39592
-0.386439
-0.37568
-0.363628
-0.350441
-0.336404
-0.321856
-0.307124
-0.29248
-0.278121
-0.264179
-0.250726
-0.237794
-0.225392
-0.213575
-0.429223
-0.422732
-0.416824
-0.410767
-0.404349
-0.397537
-0.390126
-0.381838
-0.372447
-0.361844
-0.350073
-0.337322
-0.323867
-0.310013
-0.29604
-0.282175
-0.268584
-0.255375
-0.242608
-0.230292
-0.218574
-0.419704
-0.413994
-0.408658
-0.403123
-0.39727
-0.391121
-0.384526
-0.377246
-0.36904
-0.35974
-0.349299
-0.337804
-0.325456
-0.312516
-0.299258
-0.285925
-0.272712
-0.25976
-0.247166
-0.234931
-0.223306
-0.410802
-0.405845
-0.40107
-0.396041
-0.390708
-0.385134
-0.379223
-0.37278
-0.365579
-0.357422
-0.348194
-0.337896
-0.326646
-0.314646
-0.302143
-0.289381
-0.276576
-0.263898
-0.251485
-0.239328
-0.22778
-0.402539
-0.398297
-0.394069
-0.389532
-0.384686
-0.37962
-0.374284
-0.368532
-0.362166
-0.354985
-0.346835
-0.337647
-0.32746
-0.316407
-0.304691
-0.292539
-0.280179
-0.267797
-0.255576
-0.243494
-0.232009
-0.394918
-0.39135
-0.387649
-0.383587
-0.3792
-0.374592
-0.369748
-0.364565
-0.358883
-0.352517
-0.345297
-0.337108
-0.327922
-0.317801
-0.30689
-0.295386
-0.283507
-0.271451
-0.259439
-0.247437
-0.235992
-0.387928
-0.384988
-0.38179
-0.378184
-0.374232
-0.370043
-0.365625
-0.360915
-0.355789
-0.350089
-0.34365
-0.336334
-0.328061
-0.31883
-0.308724
-0.297894
-0.286535
-0.274839
-0.263062
-0.251152
-0.239753
-0.381551
-0.379191
-0.376464
-0.373292
-0.369751
-0.365947
-0.361906
-0.357592
-0.352918
-0.347756
-0.341958
-0.33538
-0.327913
-0.319506
-0.310181
-0.300033
-0.289223
-0.277923
-0.266412
-0.254626
-0.243273
-0.375762
-0.373932
-0.371644
-0.368877
-0.36572
-0.362272
-0.358568
-0.354593
-0.350288
-0.345555
-0.340271
-0.334301
-0.327523
-0.31985
-0.311255
-0.301775
-0.291527
-0.280649
-0.269437
-0.257813
-0.246628
-0.370537
-0.369188
-0.3673
-0.364907
-0.362106
-0.358984