/*--------------------------------*- C++ -*----------------------------------*\
  =========                 |
  \\      /  F ield         | OpenFOAM: The Open Source CFD Toolbox
   \\    /   O peration     | Website:  https://openfoam.org
    \\  /    A nd           | Version:  7
     \\/     M anipulation  |
\*---------------------------------------------------------------------------*/
FoamFile
{
    version     2.0;
    format      ascii;
    class       surfaceScalarField;
    location    "80";
    object      phi;
}
// * * * * * * * * * * * * * * * * * * * * * * * * * * * * * * * * * * * * * //

dimensions      [0 3 -1 0 0 0 0];

internalField   nonuniform List<scalar> 
17388
(
-4.10426e-06
4.07487e-05
-3.66444e-05
-1.4845e-05
9.59202e-05
-8.51794e-05
-3.11877e-05
0.000132163
-0.00011582
-5.22229e-05
0.000153415
-0.00013238
-7.71442e-05
0.000163367
-0.000138445
-0.000105241
0.00016527
-0.000137173
-0.000135885
0.000161721
-0.000131078
-0.000168502
0.00015454
-0.000121923
-0.000202554
0.000144743
-0.000110691
-0.000237503
0.000132607
-9.76577e-05
-0.000272787
0.000117791
-8.2506e-05
-0.000307798
9.94866e-05
-6.44763e-05
-0.000341862
7.65634e-05
-4.24994e-05
-0.000374247
4.76858e-05
-1.53005e-05
-0.000404184
1.14093e-05
1.85275e-05
-0.000430954
-3.37282e-05
6.04983e-05
-0.000453997
-8.91564e-05
0.000112199
-0.000473115
-0.00015613
0.000175248
-0.000488708
-0.000235592
0.000251186
-0.000502056
-0.00032815
0.000341498
-0.000434157
0.000447846
-0.000515746
-3.80899e-06
4.45577e-05
-1.391e-05
0.000106021
-2.94272e-05
0.00014768
-4.95561e-05
0.000173544
-7.35515e-05
0.000187362
-0.000100734
0.000192453
-0.000130488
0.000191475
-0.000162248
0.0001863
-0.000195487
0.000177982
-0.00022969
0.000166809
-0.000264332
0.000152433
-0.000298854
0.000134009
-0.000332645
0.000110354
-0.000365032
8.00729e-05
-0.000395298
4.16751e-05
-0.000422723
-6.30325e-06
-0.000446705
-6.51737e-05
-0.000466903
-0.000135932
-0.000483468
-0.000219028
-0.000497375
-0.000314243
-0.000420536
-0.000510995
-3.42767e-06
4.79853e-05
-1.26746e-05
0.000115268
-2.70472e-05
0.000162053
-4.58594e-05
0.000192356
-6.84357e-05
0.000209939
-9.41303e-05
0.000218147
-0.000122339
0.000219683
-0.000152499
0.000216461
-0.000184087
0.00020957
-0.000216601
0.000199323
-0.00024954
0.000185372
-0.000282381
0.00016685
-0.000314553
0.000142526
-0.000345418
0.000110938
-0.000374267
7.05239e-05
-0.000400319
1.97486e-05
-0.00042284
-4.26526e-05
-0.00044121
-0.000117561
-0.000455175
-0.000205063
-0.000465236
-0.000304182
-0.000412316
-0.000473456
-2.96691e-06
5.09522e-05
-1.11571e-05
0.000123458
-2.4076e-05
0.000174972
-4.11672e-05
0.000209447
-6.18303e-05
0.000230602
-8.54539e-05
0.000241771
-0.000111441
0.00024567
-0.000139224
0.000244244
-0.000168271
0.000238616
-0.000198075
0.000229128
-0.000228143
0.00021544
-0.000257966
0.000196673
-0.00028699
0.00017155
-0.000314584
0.000138533
-0.000340013
9.59529e-05
-0.000362415
4.215e-05
-0.000380839
-2.42286e-05
-0.000394318
-0.000104082
-0.000402074
-0.000197307
-0.00040394
-0.000302316
-0.000414769
-0.000401488
-2.43808e-06
5.33903e-05
-9.39065e-06
0.000130411
-2.05716e-05
0.000186153
-3.55599e-05
0.000224435
-5.38324e-05
0.000248874
-7.48105e-05
0.000262749
-9.78987e-05
0.000268758
-0.000122513
0.000268858
-0.000148095
0.000264198
-0.000174115
0.000255148
-0.00020006
0.000241384
-0.000225408
0.00022202
-0.000249593
0.000195735
-0.000271967
0.000160907
-0.000291747
0.000115733
-0.000307982
5.83849e-05
-0.000319483
-1.27273e-05
-0.000324928
-9.86368e-05
-0.000322964
-0.000199271
-0.0003126
-0.00031268
-0.000432856
-0.000294513
-1.85703e-06
5.52473e-05
-7.42348e-06
0.000135977
-1.66215e-05
0.000195351
-2.91643e-05
0.000236978
-4.46044e-05
0.000264314
-6.23919e-05
0.000280537
-8.19246e-05
0.000288291
-0.000102588
0.000289521
-0.000123779
0.00028539
-0.000144918
0.000276287
-0.000165441
0.000261907
-0.000184778
0.000241357
-0.000202319
0.000213276
-0.000217367
0.000175955
-0.000229081
0.000127447
-0.000236405
6.5709e-05
-0.000237989
-1.11432e-05
-0.000232185
-0.000104441
-0.000217161
-0.000214295
-0.000191229
-0.000338611
-0.00047093
-0.000153155
-1.24349e-06
5.64908e-05
-5.31712e-06
0.000140051
-1.23397e-05
0.000202373
-2.21505e-05
0.000246789
-3.43718e-05
0.000276536
-4.84751e-05
0.00029464
-6.38416e-05
0.000303658
-7.9811e-05
0.000305491
-9.57152e-05
0.000301294
-0.000110895
0.000291467
-0.0001247
0.000275712
-0.000136473
0.000253129
-0.000145516
0.000222319
-0.000151048
0.000181488
-0.000152146
0.000128545
-0.00014766
6.12229e-05
-0.00013613
-2.26727e-05
-0.000115678
-0.000124894
-8.41149e-05
-0.000245858
-3.93592e-05
-0.000383367
-0.00052752
1.72306e-05
-6.2011e-07
5.71109e-05
-3.14381e-06
0.000142575
-7.86256e-06
0.000207092
-1.47264e-05
0.000253653
-2.34154e-05
0.000285225
-3.34136e-05
0.000304638
-4.40745e-05
0.000314319
-5.46768e-05
0.000316093
-6.44651e-05
0.000311082
-7.26721e-05
0.000299674
-7.85245e-05
0.000281565
-8.12319e-05
0.000255837
-7.99614e-05
0.000221049
-7.37993e-05
0.000175325
-6.17061e-05
0.000116452
-4.24244e-05
4.19413e-05
-1.4425e-05
-5.06722e-05
2.42764e-05
-0.000163595
7.63004e-05
-0.000297882
0.000144447
-0.000451514
-0.000614188
0.000231115
-1.54723e-08
5.71264e-05
-9.82643e-07
0.000143542
-3.34163e-06
0.000209451
-7.12632e-06
0.000257438
-1.20578e-05
0.000290156
-1.76208e-05
0.000310201
-2.31292e-05
0.000319827
-2.77863e-05
0.00032075
-3.0729e-05
0.000314025
-3.10552e-05
0.0003
-2.78329e-05
0.000278343
-2.00956e-05
0.000248099
-6.82522e-06
0.000207778
1.3075e-05
0.000155425
4.08316e-05
8.8695e-05
7.78212e-05
4.95158e-06
0.000125671
-9.85219e-05
0.000186418
-0.000224342
0.000262577
-0.000374041
0.000357197
-0.000546134
-0.000731486
0.000474496
5.57094e-07
5.65693e-05
1.08694e-06
0.000143012
1.06775e-06
0.00020947
4.06667e-07
0.000258099
-6.41945e-07
0.000291205
-1.54271e-06
0.000311102
-1.55867e-06
0.000319843
1.95226e-07
0.000318996
4.70677e-06
0.000309513
1.30381e-05
0.000291669
2.63102e-05
0.00026507
4.57058e-05
0.000228704
7.24794e-05
0.000181005
0.000107974
0.000119931
0.000153633
4.30359e-05
0.000211014
-5.24295e-05
0.000281868
-0.000169375
0.000368168
-0.000310642
0.000472354
-0.000478227
0.000597095
-0.000670875
-0.000882325
0.000747934
1.06146e-06
5.55079e-05
2.98595e-06
0.000141087
5.20866e-06
0.000207247
7.62286e-06
0.000255684
1.04913e-05
0.000288336
1.43771e-05
0.000307216
2.00843e-05
0.000314136
2.86007e-05
0.00031048
4.10549e-05
0.000297059
5.86875e-05
0.000274037
8.28367e-05
0.000240921
0.000114935
0.000196605
0.000156514
0.000139426
0.000209207
6.72375e-05
0.000274746
-2.25025e-05
0.000354943
-0.000132627
0.000451672
-0.000266105
0.000566855
-0.000425825
0.000702728
-0.0006141
0.00086108
-0.000829228
-0.00106984
0.0010486
1.48379e-06
5.40241e-05
4.6489e-06
0.000137922
8.95353e-06
0.000202943
1.43182e-05
0.00025032
2.10413e-05
0.000281613
2.97417e-05
0.000298516
4.13052e-05
0.000302572
5.68367e-05
0.000294948
7.76215e-05
0.000276274
0.000105099
0.000246559
0.000140848
0.000205172
0.000186582
0.000150871
0.000244142
8.18657e-05
0.000315498
-4.11754e-06
0.000402707
-0.000109712
0.000507874
-0.000237794
0.000633047
-0.000391278
0.000780069
-0.000572847
0.000950877
-0.000784908
0.00114603
-0.00102439
-0.00129674
0.00137293
1.80859e-06
5.22155e-05
6.02549e-06
0.000133705
1.21991e-05
0.000196769
2.03257e-05
0.000242193
3.07751e-05
0.000271164
4.42475e-05
0.000285043
6.17324e-05
0.000285087
8.44709e-05
0.00027221
0.000113925
0.000246821
0.000151755
0.000208729
0.000199806
0.00015712
0.000260103
9.05752e-05
0.00033482
7.14831e-06
0.000426295
-9.55926e-05
0.000536921
-0.000220339
0.000669086
-0.000369959
0.000824992
-0.000547183
0.00100634
-0.000754192
0.00121456
-0.000993128
0.0014488
-0.00125862
-0.00156436
0.00171641
2.02771e-06
5.01878e-05
7.08796e-06
0.000128645
1.48886e-05
0.000188969
2.55533e-05
0.000231528
3.95634e-05
0.000257154
5.77328e-05
0.000266874
8.11825e-05
0.000261637
0.000111317
0.000242076
0.000149801
0.000208336
0.000198546
0.000159984
0.000259695
9.59714e-05
0.000335601
1.4669e-05
0.00042882
-8.60707e-05
0.000542012
-0.000208785
0.000677893
-0.00035622
0.000839034
-0.0005311
0.00102763
-0.000735781
0.00124507
-0.000971629
0.00149186
-0.00123991
0.00176564
-0.00153241
-0.00187136
0.00207264
2.14135e-06
4.80464e-05
7.83635e-06
0.00012295
1.70212e-05
0.000179784
3.00003e-05
0.000218549
4.74113e-05
0.000239743
7.02208e-05
0.000244064
9.97185e-05
0.00023214
0.000137508
0.000204287
0.000185496
0.000160348
0.000245881
9.95993e-05
0.000321131
2.07212e-05
0.00041396
-7.81605e-05
0.000527261
-0.000199372
0.000664004
-0.000345527
0.00082707
-0.000519287
0.00101899
-0.000723022
0.00124161
-0.000958395
0.00149563
-0.00122565
0.00178001
-0.0015243
0.00209095
-0.00184335
-0.00221233
0.00243192
2.15902e-06
4.58874e-05
8.30224e-06
0.000116807
1.86602e-05
0.000169426
3.37719e-05
0.000203438
5.44803e-05
0.000219034
8.19518e-05
0.000216593
0.000117691
0.0001964
0.000163549
0.000158429
0.000221719
0.000102179
0.000294722
2.65956e-05
0.000385382
-6.99381e-05
0.00049675
-0.000189528
0.000632001
-0.000334623
0.000794251
-0.000507777
0.000986284
-0.00071132
0.00121019
-0.000946925
0.00146687
-0.00121508
0.00175582
-0.0015146
0.00207376
-0.00184223
0.00241557
-0.00218515
-0.00257702
0.00278026
2.09998e-06
4.37874e-05
8.55023e-06
0.000110357
1.99361e-05
0.00015804
3.70852e-05
0.000186289
6.10985e-05
0.000195021
9.33966e-05
0.000184295
0.000135755
0.000154042
0.000190324
0.00010386
0.00025963
3.28726e-05
0.000346551
-6.03249e-05
0.000454246
-0.000177633
0.000586039
-0.000321321
0.000745218
-0.000493803
0.000934744
-0.000697303
0.00115686
-0.000933432
0.0014126
-0.00120267
0.00170129
-0.00150377
0.00202041
-0.00183372
0.0023641
-0.00218593
0.00272616
-0.00254721
-0.00295076
0.00309989
1.99283e-06
4.17946e-05
8.67662e-06
0.000103673
2.10447e-05
0.000145672
4.02652e-05
0.000167068
6.77534e-05
0.000167533
0.000105243
0.000146805
0.000154839
0.000104446
0.000219046
3.96527e-05
0.000300758
-4.88394e-05
0.000403199
-0.000162766
0.000529798
-0.000304232
0.000683973
-0.000475497
0.000868816
-0.000678646
0.00108666
-0.000915148
0.00133858
-0.00118535
0.00162384
-0.00148794
0.0019395
-0.00181943
0.00228035
-0.00217457
0.00263828
-0.00254386
0.00300611
-0.00291503
-0.00331625
0.0033716
1.87418e-06
3.99204e-05
8.80449e-06
9.67426e-05
2.2236e-05
0.00013224
4.3727e-05
0.000145577
7.5063e-05
0.000136197
0.00011835
0.000103518
0.00017608
4.67161e-05
0.000251148
-3.54154e-05
0.000346815
-0.000144506
0.000466584
-0.000282535
0.000613981
-0.000451629
0.000792212
-0.000653728
0.0010037
-0.000890133
0.00124953
-0.00116097
0.00152886
-0.00146468
0.0018385
-0.00179758
0.00217274
-0.00215367
0.0025234
-0.00252523
0.00288123
-0.00290168
0.00323813
-0.00327194
-0.00365618
0.00357805
1.78606e-06
3.81344e-05
9.07504e-06
8.94536e-05
2.37969e-05
0.000117518
4.79442e-05
0.00012143
8.37251e-05
0.000100416
0.000133671
5.35717e-05
0.000200699
-2.03112e-05
0.000288098
-0.000122815
0.000399435
-0.000255843
0.000538331
-0.000421431
0.000708111
-0.000621408
0.00091131
-0.000856927
0.00114908
-0.0011279
0.00142057
-0.00143246
0.0017224
-0.00176652
0.00204845
-0.00212363
0.00239016
-0.00249538
0.00273668
-0.00287175
0.00307867
-0.00324367
0.00340746
-0.00360073
-0.00395577
0.00370705
1.7724e-06
3.6362e-05
9.63573e-06
8.15903e-05
2.60258e-05
0.000101128
5.34055e-05
9.40499e-05
9.44487e-05
5.93726e-05
0.000152147
-4.12633e-06
0.000229846
-9.80105e-05
0.000331179
-0.000224148
0.000459869
-0.000384533
0.000619375
-0.000580937
0.000812387
-0.000814421
0.0010402
-0.00108474
0.00130203
-0.00138974
0.00159452
-0.00172495
0.00191141
-0.00208341
0.00224379
-0.00245601
0.00258083
-0.00283243
0.00291033
-0.00320125
0.00322229
-0.00355563
0.00350404
-0.00388248
-0.00420443
0.0037527
1.87488e-06
3.44871e-05
1.06265e-05
7.28387e-05
2.92041e-05
8.25508e-05
6.05654e-05
6.26886e-05
0.000107874
1.20641e-05
0.000174586
-7.08387e-05
0.000264432
-0.000187857
0.000381256
-0.000340972
0.000528682
-0.000531959
0.000709606
-0.000761861
0.000925542
-0.00103036
0.00117592
-0.00133511
0.00145748
-0.0016713
0.00176402
-0.00203149
0.00208659
-0.00240598
0.00241423
-0.00278364
0.0027352
-0.0031534
0.00303839
-0.00350444
0.00331499
-0.00383222
0.00355188
-0.00411937
-0.00440004
0.00374749
2.12896e-06
3.23581e-05
1.21665e-05
6.28012e-05
3.35685e-05
6.11488e-05
6.9795e-05
2.64622e-05
0.000124498
-4.26384e-05
0.000201557
-0.000147898
0.000304974
-0.000291274
0.00043858
-0.000474577
0.000605536
-0.000698914
0.00080767
-0.000963995
0.00104473
-0.00126742
0.00131374
-0.00160412
0.00160866
-0.00196623
0.00192061
-0.00234343
0.00223861
-0.00272398
0.00255093
-0.00309597
0.00284658
-0.00344904
0.00311696
-0.00377482
0.00335528
-0.00407054
0.00356297
-0.00432706
-0.00457323
0.00373617
2.56072e-06
2.97974e-05
1.43431e-05
5.10188e-05
3.92884e-05
3.62034e-05
8.1344e-05
-1.55935e-05
0.000144611
-0.000105906
0.0002333
-0.000236586
0.00035149
-0.000409464
0.000502675
-0.000625762
0.000689094
-0.000885334
0.000910955
-0.00118586
0.00116571
-0.00152217
0.00144766
-0.00188607
0.00174809
-0.00226665
0.00205605
-0.00265139
0.00235974
-0.00302767
0.00264813
-0.00338436
0.00291244
-0.00371335
0.00314726
-0.00400964
0.00335034
-0.00427363
0.00352456
-0.00450127
-0.00471782
0.00366914
3.18526e-06
2.66121e-05
1.72064e-05
3.69977e-05
4.64528e-05
6.95698e-06
9.53175e-05
-6.44582e-05
0.00016827
-0.000178858
0.000269687
-0.000338004
0.000403452
-0.000543229
0.000572313
-0.000794623
0.000777074
-0.0010901
0.0010158
-0.00142458
0.00128331
-0.00178968
0.00157121
-0.00217396
0.00186863
-0.00256408
0.00216367
-0.00294643
0.00244507
-0.00330906
0.00270381
-0.00364311
0.00293422
-0.00394376
0.0031344
-0.00420982
0.00330547
-0.00444469
0.00345258
-0.00464838
-0.00484379
0.00357855
4.00686e-06
2.26053e-05
2.07684e-05
2.02362e-05
5.50681e-05
-2.73427e-05
0.000111671
-0.000121061
0.000195284
-0.000262471
0.00031022
-0.00045294
0.000459813
-0.000692822
0.000645596
-0.000980406
0.000866436
-0.00131094
0.00111788
-0.00167603
0.00139204
-0.00206385
0.00167828
-0.0024602
0.00196455
-0.00285035
0.00223926
-0.00322114
0.00249295
-0.00356274
0.00271949
-0.00386966
0.00291654
-0.00414081
0.00308528
-0.00437856
0.00322918
-0.0045886
0.0033545
-0.00477371
-0.00495352
0.00346423
5.02073e-06
1.75845e-05
2.50076e-05
2.49331e-07
6.50654e-05
-6.74005e-05
0.000130224
-0.00018622
0.000225239
-0.000357486
0.000354067
-0.000581769
0.000519074
-0.000857829
0.000720102
-0.00118143
0.000953664
-0.0015445
0.00121264
-0.001935
0.00148677
-0.00233798
0.00176397
-0.0027374
0.0020322
-0.00311859
0.0022814
-0.00347034
0.00250475
-0.0037861
0.00269934
-0.00406424
0.00286578
-0.00430725
0.0030075
-0.00452028
0.00312932
-0.00471042
0.00323754
-0.00488192
-0.00505135
0.00333537
6.2158e-06
1.13687e-05
2.9875e-05
-2.34099e-05
7.63132e-05
-0.000113839
0.000150676
-0.000260583
0.00025753
-0.000464339
0.000400118
-0.000724357
0.000579398
-0.00103711
0.000793086
-0.00139512
0.00103511
-0.00178652
0.00129585
-0.00219574
0.00156332
-0.00260544
0.00182507
-0.00299915
0.00207025
-0.00336377
0.00229118
-0.00369126
0.00248408
-0.00397901
0.00264897
-0.00422913
0.00278875
-0.00444703
0.00290817
-0.0046397
0.00301248
-0.00481473
0.00310747
-0.00497691
-0.00513966
0.00319578
7.57629e-06
3.79245e-06
3.53041e-05
-5.11376e-05
8.86307e-05
-0.000167165
0.000172632
-0.000344584
0.000291395
-0.000583102
0.000447057
-0.000880019
0.000638734
-0.00122878
0.000861706
-0.00161809
0.00110733
-0.00203215
0.00136397
-0.00245238
0.00161886
-0.00286033
0.00186028
-0.00324057
0.00207946
-0.00358296
0.00227158
-0.00388338
0.00243578
-0.00414321
0.0025744
-0.00436774
0.0026918
-0.00456443
0.00279325
-0.00474115
0.00288381
-0.00490529
0.0029684
-0.0050615
-0.00522034
0.00304908
9.08498e-06
-5.29253e-06
4.12126e-05
-8.32653e-05
0.000101798
-0.000227751
0.000195622
-0.000438408
0.000325958
-0.000713438
0.000493431
-0.00104749
0.000694955
-0.00143031
0.000923249
-0.00184639
0.0011674
-0.00227629
0.00141451
-0.0026995
0.00165205
-0.00309787
0.00187
-0.00345851
0.00206221
-0.00377516
0.00222671
-0.00404788
0.00236507
-0.00428157
0.00248124
-0.00448391
0.00258029
-0.00466348
0.00266739
-0.00482825
0.00274702
-0.00498492
0.00282316
-0.00513764
-0.0052944
0.00289722
1.0723e-05
-1.60156e-05
4.75078e-05
-0.00012005
0.000115565
-0.000295809
0.000219113
-0.000541956
0.000360257
-0.000854582
0.00053773
-0.00122497
0.000746004
-0.00163858
0.000975344
-0.00207573
0.00121313
-0.00251408
0.00144613
-0.0029325
0.00166299
-0.00331473
0.00185602
-0.00365154
0.00202184
-0.00394099
0.00216101
-0.00418705
0.00227689
-0.00439744
0.00237432
-0.00458134
0.00245846
-0.00474762
0.00253401
-0.0049038
0.00260471
-0.00505562
0.00267362
-0.00520656
-0.00536239
0.00274161
1.24698e-05
-2.84854e-05
5.40858e-05
-0.000161666
0.000129651
-0.000371374
0.000242526
-0.000654831
0.000393287
-0.00100534
0.000578464
-0.00141014
0.000790024
-0.00185014
0.00101613
-0.00230183
0.00124321
-0.00274116
0.00145862
-0.00314791
0.00165292
-0.00350903
0.00182102
-0.00381964
0.00196214
-0.00408211
0.00207883
-0.00430374
0.00217557
-0.00449419
0.00225751
-0.00466328
0.00232948
-0.0048196
0.00239551
-0.00496983
0.00245858
-0.00511869
0.00252096
-0.00526893
-0.00542452
0.00258309
1.43021e-05
-4.27875e-05
6.08307e-05
-0.000208195
0.000143749
-0.000454292
0.000265247
-0.00077633
0.000424038
-0.00116413
0.000614253
-0.00160036
0.000825488
-0.00206138
0.00104437
-0.00252072
0.00125721
-0.002954
0.00145274
-0.00334344
0.00162387
-0.00368015
0.00176811
-0.00396388
0.00188685
-0.00420086
0.00198404
-0.00440092
0.00206468
-0.00457484
0.0021338
-0.00473239
0.00219566
-0.00488146
0.00225355
-0.00502773
0.00230978
-0.00517491
0.00236596
-0.00532512
-0.00548079
0.00242223
1.61929e-05
-5.89803e-05
6.76138e-05
-0.000259616
0.000157531
-0.000544208
0.000286651
-0.00090545
0.000451548
-0.00132903
0.000643903
-0.00179271
0.000851285
-0.00226876
0.00105948
-0.00272891
0.00125549
-0.00315001
0.00142997
-0.00351793
0.00157836
-0.00382853
0.00170048
-0.004086
0.00179941
-0.00429978
0.00187988
-0.0044814
0.00194701
-0.00464197
0.00200537
-0.00479075
0.00205858
-0.00493466
0.00210923
-0.00507838
0.00215904
-0.00522473
0.00220913
-0.00537521
-0.0055311
0.00225945
1.8111e-05
-7.70913e-05
7.42943e-05
-0.000315799
0.000170654
-0.000640569
0.000306122
-0.00104092
0.000474947
-0.00149786
0.00066648
-0.00198425
0.000866763
-0.00246904
0.00106148
-0.00292363
0.001239
-0.00332753
0.00139225
-0.00367118
0.00151903
-0.00395532
0.00162114
-0.00418811
0.00170277
-0.00438141
0.00176899
-0.00454763
0.00182468
-0.00469765
0.00187381
-0.00483988
0.00191935
-0.0049802
0.00196328
-0.00512232
0.00200687
-0.00526831
0.00205085
-0.0054192
-0.00557531
0.00209506
2.00212e-05
-9.71126e-05
8.07221e-05
-0.0003765
0.000182775
-0.000742622
0.000323084
-0.00118123
0.000493511
-0.00166828
0.000681352
-0.00217209
0.000871733
-0.00265942
0.00105094
-0.00310284
0.00120917
-0.00348576
0.0013417
-0.00380371
0.00144849
-0.00406211
0.00153278
-0.00427239
0.0015994
-0.00444803
0.00165342
-0.00460165
0.00169924
-0.00474347
0.00174023
-0.00488087
0.00177872
-0.00501869
0.00181623
-0.00515982
0.00185363
-0.00530571
0.0018914
-0.00545697
-0.00561323
0.00192933
2.18847e-05
-0.000118997
8.67427e-05
-0.000441358
0.000193561
-0.00084944
0.000337034
-0.0013247
0.000506697
-0.00183795
0.000688205
-0.0023536
0.000866417
-0.00283764
0.00102881
-0.00326523
0.00116766
-0.00362462
0.00128052
-0.00391656
0.00136911
-0.0041507
0.00143766
-0.00434094
0.00149127
-0.00450164
0.00153472
-0.0046451
0.00157185
-0.0047806
0.00160542
-0.00491443
0.00163723
-0.00505051
0.00166841
-0.005191
0.00169958
-0.00533688
0.00173102
-0.00548841
-0.00564472
0.0017625
2.36604e-05
-0.000142658
9.22033e-05
-0.000509901
0.000202707
-0.000959943
0.00034756
-0.00146955
0.000514162
-0.00200455
0.000687035
-0.00252647
0.00085138
-0.00300198
0.000996287
-0.00341013
0.00111623
-0.00374456
0.00121076
-0.00401109
0.00128296
-0.0042229
0.00133767
-0.00439565
0.00137992
-0.0045439
0.00141406
-0.00467924
0.00144332
-0.00480987
0.00146993
-0.00494104
0.00149526
-0.00507584
0.00152012
-0.00521586
0.00154496
-0.00536172
0.00156993
-0.00551338
-0.0056696
0.00159482
2.53067e-05
-0.000167964
9.69594e-05
-0.000581553
0.000209952
-0.00107294
0.000354367
-0.00161397
0.000515773
-0.00216595
0.000678103
-0.0026888
0.000827436
-0.00315131
0.00095474
-0.00353744
0.00105661
-0.00384643
0.00113428
-0.00408876
0.00119183
-0.00428044
0.00123432
-0.00443814
0.00126654
-0.00457611
0.00129228
-0.00470499
0.00131425
-0.00483183
0.00133416
-0.00496095
0.00135308
-0.00509475
0.00137158
-0.00523437
0.00138998
-0.00538012
0.00140835
-0.00553175
-0.00568776
0.00142651
2.67828e-05
-0.000194747
0.000100881
-0.000655652
0.000215091
-0.00118715
0.000357283
-0.00175616
0.000511589
-0.00232026
0.000661889
-0.0028391
0.000795558
-0.00328498
0.000905558
-0.00364744
0.000990418
-0.00393129
0.00105273
-0.00415108
0.00109718
-0.00432488
0.00112881
-0.00446977
0.00115201
-0.00459932
0.00117004
-0.00472301
0.00118506
-0.00484685
0.00119843
-0.00497432
0.00121092
-0.00510725
0.00122298
-0.00524643
0.00123482
-0.00539196
0.00124646
-0.00554339
-0.00569908
0.00125779
2.80512e-05
-0.000222798
0.00010386
-0.000731461
0.000217978
-0.00130126
0.000356259
-0.00189444
0.000501836
-0.00246584
0.000639032
-0.00297629
0.000756804
-0.00340275
0.000850095
-0.00374073
0.00091912
-0.00400032
0.000967489
-0.00419945
0.00100019
-0.00435759
0.00102208
-0.00449166
0.00103704
-0.00461428
0.0010478
-0.00473378
0.0010561
-0.00485516
0.00106298
-0.00498119
0.00106901
-0.00511328
0.00107452
-0.00525194
0.00107967
-0.00539711
0.00108447
-0.00554818
-0.00570347
0.00108886
2.90781e-05
-0.000251877
0.000105812
-0.000808195
0.000218535
-0.00141399
0.000351359
-0.00202727
0.000486878
-0.00260135
0.000610271
-0.00309969
0.000712245
-0.00350473
0.000789616
-0.0038181
0.000844005
-0.00405471
0.000879724
-0.00423517
0.000901833
-0.0043797
0.000914835
-0.00450466
0.000922119
-0.00462156
0.000925933
-0.00473759
0.000927637
-0.00485686
0.000928012
-0.00498157
0.000927503
-0.00511277
0.000926358
-0.00525079
0.000924701
-0.00539546
0.000922533
-0.00554602
-0.00570083
0.000919884
2.98357e-05
-0.000281712
0.000106678
-0.000885037
0.000216749
-0.00152406
0.000342748
-0.00215326
0.000467175
-0.00272578
0.000576393
-0.00320891
0.000662918
-0.00359125
0.000725265
-0.00388045
0.000766174
-0.00409562
0.00079039
-0.00425938
0.000802851
-0.00439216
0.000807644
-0.00450945
0.000807662
-0.00462158
0.000804723
-0.00473465
0.000799881
-0.00485202
0.000793726
-0.00497541
0.000786594
-0.00510563
0.000778682
-0.00524288
0.000770089
-0.00538686
0.000760829
-0.00553676
-0.00569099
0.00075099
3.03023e-05
-0.000312015
0.00010643
-0.000961165
0.000212668
-0.00163029
0.00033067
-0.00227127
0.000443253
-0.00283836
0.000538195
-0.00330385
0.000609795
-0.00366285
0.000658054
-0.00392871
0.00068656
-0.00412412
0.000700259
-0.00427308
0.000703842
-0.00439574
0.000700939
-0.00450655
0.000693978
-0.00461462
0.000684411
-0.00472508
0.000673038
-0.00484065
0.000660301
-0.00496268
0.000646456
-0.00509179
0.000631663
-0.00522809
0.000616013
-0.00537121
0.00059953
-0.00552027
-0.00567375
0.000582295
3.04631e-05
-0.000342478
0.000105066
-0.00103577
0.000206388
-0.00173162
0.000315426
-0.0023803
0.000415669
-0.00293861
0.000496448
-0.00338463
0.000553758
-0.00372016
0.000588857
-0.00396381
0.000605934
-0.0041412
0.000609955
-0.0042771
0.000605274
-0.00439106
0.000595061
-0.00449634
0.000581325
-0.00460088
0.000565204
-0.00470896
0.000547298
-0.00482274
0.00052793
-0.00494331
0.000507289
-0.00507115
0.000485499
-0.0052063
0.000462653
-0.00534837
0.000438798
-0.00549642
-0.00564894
0.000413983
3.03103e-05
-0.000372788
0.000102609
-0.00110807
0.00019805
-0.00182706
0.000297359
-0.00247961
0.000384983
-0.00302623
0.000451877
-0.00345152
0.000495593
-0.00376388
0.000518421
-0.00398663
0.000524932
-0.00414771
0.000519976
-0.00427214
0.000507517
-0.0043786
0.000490286
-0.00447911
0.000469917
-0.00458051
0.00044729
-0.00468633
0.000422846
-0.0047983
0.000396816
-0.00491728
0.00036933
-0.00504366
0.000340472
-0.00517744
0.000310286
-0.00531818
0.000278774
-0.00546491
-0.00561646
0.000246302
2.98431e-05
-0.000402631
9.91046e-05
-0.00117733
0.00018783
-0.00191578
0.000276832
-0.00256862
0.000351745
-0.00310114
0.000405147
-0.00350492
0.00043599
-0.00379472
0.000447372
-0.00399802
0.000444073
-0.00414441
0.000430719
-0.00425879
0.000410868
-0.00435875
0.000386835
-0.00445508
0.000359937
-0.00455361
0.000330838
-0.00465724
0.000299858
-0.00476732
0.000267154
-0.00488457
0.000232823
-0.00500933
0.000196939
-0.00514156
0.000159481
-0.00528072
0.000120063
-0.00542549
-0.00557482
7.84169e-05
2.90667e-05
-0.000431698
9.4616e-05
-0.00124288
0.00017592
-0.00199709
0.000254213
-0.00264691
0.000316471
-0.0031634
0.000356855
-0.00354531
0.000375538
-0.00381341
0.000376233
-0.00399871
0.000363775
-0.00413195
0.000342502
-0.00423752
0.000315561
-0.00433181
0.000284895
-0.00442441
0.000251546
-0.00452026
0.000216007
-0.0046217
0.000178496
-0.00472981
0.000139117
-0.00484519
9.79415e-05
-0.00496816
5.50708e-05
-0.00509869
1.06541e-05
-0.0052363
-3.53899e-05
-0.00537945
-0.00552463
-8.55807e-05
2.79922e-05
-0.00045969
8.92213e-05
-0.00130411
0.00016253
-0.0020704
0.000229862
-0.00271424
0.000279642
-0.00321318
0.00030753
-0.0035732
0.000314743
-0.00382062
0.000305433
-0.0039894
0.000284375
-0.0041109
0.000255578
-0.00420872
0.000221791
-0.00429802
0.000184624
-0.00438724
0.00014489
-0.00448053
0.000102946
-0.00457975
5.89086e-05
-0.00468577
1.28512e-05
-0.00479914
-3.51506e-05
-0.00492016
-8.50046e-05
-0.00504883
-0.000136692
-0.00518462
-0.000190515
-0.00532562
-0.00546986
-0.000245279
2.66352e-05
-0.000486325
8.30087e-05
-0.00136048
0.000147872
-0.00213526
0.000204123
-0.00277049
0.000241692
-0.00325075
0.00025763
-0.00358913
0.000254028
-0.00381702
0.000235323
-0.0039707
0.000206147
-0.00408172
0.000170152
-0.00417273
0.000129718
-0.00425759
8.61625e-05
-0.00434369
4.00887e-05
-0.00443446
-8.25109e-06
-0.00453141
-5.87377e-05
-0.00463528
-0.000111407
-0.00474647
-0.00016622
-0.00486534
-0.000223085
-0.00499197
-0.000281972
-0.00512573
-0.000342765
-0.00526483
-0.00540777
-0.000404858
2.50154e-05
-0.000511341
7.60726e-05
-0.00141154
0.000132156
-0.00219134
0.000177319
-0.00281565
0.000203009
-0.00327644
0.00020755
-0.00359367
0.000193745
-0.00380321
0.00016619
-0.00394314
0.000129306
-0.00404484
8.63962e-05
-0.00412982
3.94637e-05
-0.00421065
-1.04024e-05
-0.00429382
-6.27008e-05
-0.00438216
-0.000117322
-0.00447679
-0.000174275
-0.00457833
-0.000233552
-0.00468719
-0.000295151
-0.00480374
-0.000359
-0.00492812
-0.000424984
-0.00505975
-0.000492913
-0.0051969
-0.00533806
-0.000562625
2.31556e-05
-0.000534496
6.8511e-05
-0.00145689
0.000115585
-0.00223842
0.000149745
-0.00284981
0.000163938
-0.00329063
0.000157629
-0.00358737
0.000134188
-0.00377977
9.82659e-05
-0.00390722
5.40228e-05
-0.00400059
4.38437e-06
-0.00408018
-4.88352e-05
-0.00415743
-0.00010486
-0.0042378
-0.000163368
-0.00432365
-0.000224261
-0.0044159
-0.000287585
-0.00451501
-0.000353401
-0.00462138
-0.000421733
-0.00473541
-0.000492522
-0.00485733
-0.000565616
-0.00498665
-0.000640823
-0.00512169
-0.00526081
-0.000718072
2.10811e-05
-0.000555577
6.04223e-05
-0.00149623
9.83526e-05
-0.00227635
0.000121671
-0.00287313
0.000124777
-0.00329374
0.000108149
-0.00357074
7.55966e-05
-0.00374722
3.17392e-05
-0.00386336
-1.95416e-05
-0.00394931
-7.56112e-05
-0.00402411
-0.000135066
-0.00409798
-0.000197207
-0.00417566
-0.000261823
-0.00425903
-0.000328899
-0.00434882
-0.000398516
-0.00444539
-0.000470784
-0.00454911
-0.00054577
-0.00466042
-0.000623437
-0.00477966
-0.00070362
-0.00490647
-0.000786103
-0.00503921
-0.00517611
-0.000870806
1.88201e-05
-0.000574397
5.19044e-05
-0.00152932
8.06401e-05
-0.00230508
9.33384e-05
-0.00288583
8.57838e-05
-0.00328619
5.9345e-05
-0.0035443
1.81717e-05
-0.00370604
-3.32364e-05
-0.00381195
-9.1274e-05
-0.00389128
-0.000153654
-0.00396173
-0.000219175
-0.00403246
-0.000287321
-0.00410751
-0.000357955
-0.0041884
-0.000431115
-0.00427566
-0.000506924
-0.00436958
-0.000585534
-0.0044705
-0.000667067
-0.00457889
-0.000751526
-0.0046952
-0.000838752
-0.00481925
-0.000928471
-0.00494949
-0.00508403
-0.00102055
1.64046e-05
-0.000590802
4.30534e-05
-0.00155597
6.26187e-05
-0.00232465
6.49635e-05
-0.00288818
4.71766e-05
-0.0032684
1.14753e-05
-0.0035086
-3.7926e-05
-0.00365664
-9.65465e-05
-0.00375333
-0.000161106
-0.00382672
-0.000229613
-0.00389322
-0.000301076
-0.003961
-0.000375117
-0.00403347
-0.000451665
-0.00411185
-0.000530799
-0.00419653
-0.000612676
-0.0042877
-0.000697491
-0.00438568
-0.000785427
-0.00449095
-0.000876555
-0.00460407
-0.000970737
-0.00472506
-0.00106763
-0.0048526
-0.00498468
-0.00116698
1.38748e-05
-0.000604677
3.39667e-05
-0.00157606
4.44462e-05
-0.00233513
3.67375e-05
-0.00288047
9.30332e-06
-0.00324096
-3.54165e-05
-0.00346388
-9.25973e-05
-0.00359946
-0.000158105
-0.00368782
-0.000228955
-0.00375587
-0.000303422
-0.00381875
-0.000380701
-0.00388372
-0.000460519
-0.00395365
-0.000542865
-0.00402951
-0.000627847
-0.00411155
-0.000715646
-0.00419991
-0.0008065
-0.00429483
-0.000900659
-0.0043968
-0.000998282
-0.00450645
-0.00109929
-0.00462406
-0.00120327
-0.00474862
-0.00487819
-0.00130975
1.1245e-05
-0.000615922
2.4729e-05
-0.00158954
2.62657e-05
-0.00233666
9.01387e-06
-0.00286322
-2.80953e-05
-0.00320386
-8.11631e-05
-0.00341081
-0.000145736
-0.00353489
-0.000217837
-0.00361572
-0.000294762
-0.00367894
-0.000375028
-0.00373849
-0.000457989
-0.00380076
-0.000543462
-0.00386818
-0.000631478
-0.00394149
-0.000722166
-0.00402086
-0.000815727
-0.00410634
-0.000912427
-0.00419813
-0.00101258
-0.00429664
-0.00111646
-0.00440257
-0.00122409
-0.00451643
-0.00133499
-0.00463772
-0.00476469
-0.00144849
8.53638e-06
-0.000624458
1.54204e-05
-0.00159643
8.31275e-06
-0.00232956
-1.86682e-05
-0.00283623
-6.46042e-05
-0.00315792
-0.000125648
-0.00334977
-0.00019726
-0.00346328
-0.000275682
-0.0035373
-0.000358479
-0.00359614
-0.000444384
-0.00365258
-0.00053289
-0.00371225
-0.000623886
-0.00377718
-0.000717435
-0.00384794
-0.000813681
-0.00392461
-0.000912832
-0.00400719
-0.00101517
-0.00409579