/*--------------------------------*- C++ -*----------------------------------*\
  =========                 |
  \\      /  F ield         | OpenFOAM: The Open Source CFD Toolbox
   \\    /   O peration     | Website:  https://openfoam.org
    \\  /    A nd           | Version:  7
     \\/     M anipulation  |
\*---------------------------------------------------------------------------*/
FoamFile
{
    version     2.0;
    format      ascii;
    class       volVectorField;
    location    "80";
    object      U;
}
// * * * * * * * * * * * * * * * * * * * * * * * * * * * * * * * * * * * * * //

dimensions      [0 1 -1 0 0 0 0];

internalField   nonuniform List<vector> 
8820
(
(-0.00101992 0.0167896 0)
(-0.00474375 0.0379021 0)
(-0.0114618 0.0500288 0)
(-0.0198449 0.0555524 0)
(-0.0292418 0.0564911 -1.01175e-20)
(-0.039228 0.0544687 -9.6554e-21)
(-0.0494386 0.0506898 -1.80867e-20)
(-0.0595815 0.0459526 0)
(-0.0694238 0.0406987 3.20883e-20)
(-0.0787714 0.0350853 -1.51902e-20)
(-0.0874546 0.0290672 2.08689e-23)
(-0.0953178 0.0224739 2.67011e-20)
(-0.102214 0.0150718 -1.24151e-20)
(-0.108004 0.00660855 0)
(-0.112558 -0.00315956 1.09165e-20)
(-0.115774 -0.0144499 1.04451e-20)
(-0.117602 -0.0274413 0)
(-0.118072 -0.0422617 3.62003e-20)
(-0.117317 -0.0589629 0)
(-0.115626 -0.077537 0)
(-0.11374 -0.0979786 0)
(-0.0016845 0.0184648 0)
(-0.00612414 0.0420938 -4.86434e-20)
(-0.0130517 0.056067 -4.60573e-20)
(-0.0213452 0.0628971 0)
(-0.030476 0.0646961 0)
(-0.0400986 0.0631681 1.91841e-20)
(-0.0499014 0.0595863 1.80866e-20)
(-0.0596248 0.0548045 -3.43303e-20)
(-0.069054 0.0493064 3.2507e-20)
(-0.0780044 0.0432787 -1.71346e-22)
(-0.0863117 0.0366955 0)
(-0.0938244 0.0293969 -2.66837e-20)
(-0.100399 0.021156 0)
(-0.105897 0.0117271 0)
(-0.110191 0.000880671 0)
(-0.113168 -0.0115723 2.15661e-20)
(-0.11476 -0.0257547 0)
(-0.114962 -0.0417051 -3.62001e-20)
(-0.113863 -0.0593481 3.43109e-20)
(-0.111736 -0.0785058 -6.41663e-20)
(-0.109219 -0.0989433 3.06011e-20)
(-0.00244655 0.0199664 4.90657e-20)
(-0.00771241 0.045925 4.86433e-20)
(-0.0148623 0.0616699 1.39226e-19)
(-0.0230126 0.0697984 0)
(-0.0317721 0.0724869 8.32029e-20)
(-0.0408829 0.0715005 0)
(-0.0500937 0.0681703 3.68754e-20)
(-0.0591821 0.0634013 -3.46753e-20)
(-0.0679543 0.0577192 6.58761e-20)
(-0.076237 0.0513428 0)
(-0.0838716 0.0442682 0)
(-0.0907101 0.036349 5.47451e-20)
(-0.0966104 0.0273648 1.86048e-22)
(-0.101434 0.0170739 -1.94266e-19)
(-0.105046 0.00525353 -1.55094e-22)
(-0.107318 -0.00826696 8.66336e-20)
(-0.10815 -0.0235748 0)
(-0.107488 -0.0406356 -7.52334e-20)
(-0.105356 -0.059263 1.41677e-19)
(-0.101959 -0.0791059 0)
(-0.0978836 -0.0996566 -6.30681e-20)
(-0.00328535 0.0212547 -9.84285e-20)
(-0.00946659 0.0493024 0)
(-0.016844 0.0667107 -1.40514e-19)
(-0.0247959 0.0761093 -4.4247e-20)
(-0.0330782 0.0797052 9.57937e-22)
(-0.0415274 0.0793028 -1.5856e-19)
(-0.0499576 0.0762783 2.24082e-19)
(-0.0581872 0.0715816 2.32025e-22)
(-0.0660456 0.0657793 -1.3206e-19)
(-0.0733713 0.0591245 -1.2585e-19)
(-0.0800112 0.0516379 1.18654e-19)
(-0.0858191 0.0431885 -1.11845e-19)
(-0.0906522 0.0335627 2.10203e-19)
(-0.0943679 0.0225193 1.97343e-19)
(-0.0968209 0.00983398 -9.24162e-20)
(-0.0978638 -0.00466178 1.08237e-21)
(-0.0973574 -0.0210399 -8.17269e-20)
(-0.0951909 -0.0392176 0)
(-0.0913097 -0.0589162 9.9479e-22)
(-0.0857978 -0.0796068 -1.35411e-19)
(-0.0792232 -0.100456 6.32061e-20)
(-0.00417624 0.0222955 -4.99699e-20)
(-0.0113373 0.0521427 0)
(-0.0189404 0.071072 9.37907e-20)
(-0.0266392 0.0816895 -8.951e-20)
(-0.0343416 0.0861965 5.84226e-22)
(-0.0419818 0.0864123 -8.03875e-20)
(-0.0494421 0.0837432 2.27613e-19)
(-0.0565844 0.0791765 7.21477e-20)
(-0.0632624 0.0733177 0)
(-0.0693261 0.0664546 1.25342e-19)
(-0.0746264 0.0586355 -2.37834e-19)
(-0.0790163 0.0497473 -1.14645e-19)
(-0.0823493 0.0395839 5.32441e-22)
(-0.0844756 0.0279016 -9.92912e-20)
(-0.085238 0.0144661 -1.90359e-19)
(-0.0844686 -0.000904041 0)
(-0.0819906 -0.0182855 8.3858e-20)
(-0.077639 -0.0375817 -2.37371e-19)
(-0.0712816 -0.0584482 0)
(-0.0628338 -0.0801913 -1.38907e-19)
(-0.0528087 -0.101619 2.63054e-19)
(-0.00509187 0.0230623 0)
(-0.0132697 0.0543768 2.03812e-19)
(-0.0210906 0.0746516 1.91268e-19)
(-0.0284846 0.0864114 9.16837e-20)
(-0.035511 0.0918144 1.72113e-19)
(-0.0422005 0.0926699 8.0946e-20)
(-0.0485054 0.0903972 -7.50186e-20)
(-0.0543315 0.0860121 -2.86951e-19)
(-0.0595571 0.0801548 0)
(-0.0640428 0.0731485 2.56588e-19)
(-0.0676408 0.0650713 1.21869e-19)
(-0.0701997 0.0558308 4.58256e-19)
(-0.0715656 0.0452302 -1.07491e-19)
(-0.0715784 0.0330234 0)
(-0.0700675 0.0189613 -3.15685e-21)
(-0.0668454 0.00283795 -1.82526e-19)
(-0.0617065 -0.0154498 1.72043e-19)
(-0.0544463 -0.0358245 -3.0777e-21)
(-0.0448843 -0.0579131 -1.52326e-19)
(-0.0327665 -0.0808927 1.42969e-19)
(-0.0183306 -0.103197 0)
(-0.00600367 0.0235381 1.0247e-19)
(-0.0152064 0.0559543 -3.06208e-19)
(-0.0232314 0.077367 0)
(-0.0302744 0.0901646 -2.73898e-19)
(-0.0365376 0.0964261 -8.56805e-20)
(-0.0421448 0.0979248 0)
(-0.0471163 0.0960759 0)
(-0.0514018 0.0919123 0)
(-0.0549031 0.0861044 -1.38271e-19)
(-0.0574897 0.0790094 1.32081e-19)
(-0.0590119 0.070737 -1.21864e-19)
(-0.05931 0.061219 -2.30097e-19)
(-0.0582172 0.0502717 0)
(-0.0555593 0.0376492 0)
(-0.0511505 0.0230885 3.89276e-19)
(-0.0447866 0.00635434 -1.42931e-21)
(-0.0362428 -0.0126992 -3.44886e-19)
(-0.0252921 -0.0340387 1.61983e-19)
(-0.0117591 -0.0573053 1.52314e-19)
(0.00468774 -0.0815592 3.36363e-21)
(0.0243837 -0.1046 2.74707e-19)
(-0.00688358 0.0237173 0)
(-0.0170904 0.0568462 2.08355e-19)
(-0.0253009 0.07916 0)
(-0.0319525 0.0928613 0)
(-0.0373768 0.0999167 1.75064e-19)
(-0.0417822 0.10204 -3.30241e-19)
(-0.0452537 0.100623 1.56049e-19)
(-0.0477828 0.0967047 -1.02849e-21)
(-0.0492934 0.0909787 -1.14018e-21)
(-0.0496615 0.083834 1.93962e-21)
(-0.0487323 0.0754126 1.2362e-19)
(-0.0463328 0.0656736 0)
(-0.0422782 0.0544515 0)
(-0.0363743 0.0415068 0)
(-0.0284173 0.0265688 3.41258e-22)
(-0.0181879 0.00937544 5.58736e-19)
(-0.00544852 -0.0102644 -1.75432e-19)
(0.0100388 -0.0323796 0)
(0.0284332 -0.0566808 0)
(0.0502129 -0.0821071 -2.90698e-19)
(0.076083 -0.105863 0)
(-0.00770629 0.0236062 -2.10631e-19)
(-0.0188683 0.0570468 -2.08355e-19)
(-0.0272407 0.0799999 0)
(-0.0334669 0.0944404 0)
(-0.0379875 0.102195 -1.77372e-19)
(-0.0410853 0.104896 0)
(-0.0429033 0.103896 -1.56632e-19)
(-0.0434718 0.100226 -1.5063e-19)
(-0.0427346 0.0945959 -2.81959e-19)
(-0.0405719 0.0874211 -2.64168e-19)
(-0.0368205 0.0788762 -5.01303e-19)
(-0.0312894 0.06895 2.35949e-19)
(-0.0237706 0.0575006 0)
(-0.0140434 0.0443025 2.12694e-19)
(-0.00188184 0.0290858 -3.99877e-19)
(0.0129486 0.0115758 3.78084e-19)
(0.0306934 -0.00845693 0)
(0.0515779 -0.0311103 0)
(0.0757229 -0.0562027 0)
(0.103634 -0.0826739 0)
(0.136989 -0.107321 2.80773e-19)
(-0.00845116 0.0232212 -1.11499e-21)
(-0.0204945 0.0565757 2.11592e-19)
(-0.0289983 0.0798858 -4.00783e-19)
(-0.0347693 0.0948709 1.88671e-19)
(-0.0383316 0.103199 5.34685e-19)
(-0.0400278 0.106401 -3.36442e-19)
(-0.0400514 0.105775 6.36408e-19)
(-0.0384668 0.102332 2.99215e-19)
(-0.0352348 0.096789 4.24975e-19)
(-0.0302377 0.089583 2.66445e-19)
(-0.0233006 0.0809182 2.51926e-19)
(-0.0142109 0.0708146 0)
(-0.00273231 0.059158 -4.53814e-19)
(0.011386 0.0457449 2.1467e-19)
(0.0283992 0.0303183 -2.01037e-19)
(0.0485581 0.012607 1.50036e-21)
(0.0721094 -0.00763329 3.60085e-19)
(0.0992618 -0.0305542 1.69088e-19)
(0.130064 -0.0560785 0)
(0.164755 -0.0832727 0)
(0.207024 -0.108449 0)
(-0.00910138 0.0225905 -1.01154e-21)
(-0.0219315 0.0554764 2.14565e-19)
(-0.0305301 0.0788467 2.01623e-19)
(-0.0358158 0.0941543 1.90368e-19)
(-0.03837 0.102895 1.98681e-21)
(-0.0385786 0.106489 -1.18659e-21)
(-0.036675 0.106165 -4.78584e-19)
(-0.0327521 0.102903 3.02862e-19)
(-0.0267846 0.0974164 -5.68814e-19)
(-0.0186534 0.0901579 -2.68515e-19)
(-0.00816983 0.0813575 2.55666e-19)
(0.00490363 0.0710657 -2.3979e-19)
(0.0208353 0.0591993 2.268e-19)
(0.03991 0.0455831 2.16219e-19)
(0.0624137 0.0299873 -2.02492e-19)
(0.0886173 0.0121612 -3.83044e-19)
(0.11876 -0.00812604 -3.61461e-19)
(0.15302 -0.0310431 -3.42212e-19)
(0.191407 -0.0565879 9.61637e-19)
(0.233375 -0.0840789 -1.16392e-21)
(0.286093 -0.109048 -2.80912e-19)
(-0.00964869 0.0217523 6.4758e-19)
(-0.023153 0.0538122 -4.30209e-19)
(-0.0318001 0.0769399 -2.02589e-19)
(-0.0365653 0.0923238 3.85408e-19)
(-0.0380588 0.101287 -3.60783e-19)
(-0.0366926 0.105131 -2.39231e-21)
(-0.0327285 0.105007 -4.30756e-22)
(-0.0262802 0.101855 -3.03413e-19)
(-0.0173313 0.096373 2.86435e-19)
(-0.0057582 0.0890239 0)
(0.0086451 0.0800585 0)
(0.0261438 0.0695559 0)
(0.0470404 0.0574654 2.29278e-19)
(0.0716558 0.0436464 0)
(0.100306 0.0279064 2.05319e-19)
(0.133276 0.0100336 1.9537e-19)
(0.170788 -0.0101649 -3.62665e-19)
(0.212949 -0.0328274 -3.42554e-19)
(0.259841 -0.0579402 -3.20908e-19)
(0.309373 -0.0852934 0)
(0.374034 -0.10902 -5.56092e-19)
(-0.0100919 0.0207502 -4.35586e-19)
(-0.0241447 0.0516635 2.18186e-19)
(-0.0327797 0.0742468 -2.05053e-19)
(-0.0369753 0.0894433 1.96275e-19)
(-0.0373419 0.0984122 1.82479e-19)
(-0.0343002 0.102336 1.70912e-19)
(-0.0281274 0.102283 3.23287e-19)
(-0.0189486 0.0991453 -6.11504e-19)
(-0.0067495 0.0936009 2.88135e-19)
(0.00860337 0.0861126 1.58188e-21)
(0.0273374 0.0769479 -7.72383e-19)
(0.0497487 0.0662124 4.8556e-19)
(0.076175 0.0538884 1.36813e-21)
(0.106971 0.0398765 -2.16081e-19)
(0.142474 0.0240283 0)
(0.18297 0.00618489 -3.88134e-19)
(0.228635 -0.013783 3.63187e-19)
(0.279419 -0.0359551 -1.69496e-22)
(0.335667 -0.0601384 6.29511e-22)
(0.392771 -0.0869827 -2.98028e-19)
(0.47049 -0.108248 5.52309e-19)
(-0.0104369 0.0196316 4.38127e-19)
(-0.0249027 0.0491218 2.26826e-21)
(-0.0334448 0.0708684 0)
(-0.0369965 0.0856041 -3.88218e-19)
(-0.0361422 0.0943415 -5.51845e-19)
(-0.031294 0.0981509 1.72922e-19)
(-0.02273 0.0980197 0)
(-0.0105755 0.0947856 0)
(0.00519141 0.0891007 5.79713e-19)
(0.0247212 0.081423 -2.72776e-19)
(0.0482681 0.072032 2.57687e-19)
(0.0761614 0.0610581 1.19522e-21)
(0.108774 0.0485194 1.74777e-21)
(0.146482 0.0343594 2.19802e-19)
(0.189625 0.0184812 -8.18394e-19)
(0.238448 0.00079202 0)
(0.293039 -0.0187548 0)
(0.353037 -0.0401903 0)
(0.419245 -0.0628893 3.19749e-19)
(0.483598 -0.0889201 4.13685e-21)
(0.574578 -0.106515 5.43123e-19)
(-0.0106953 0.0184441 0)
(-0.0254303 0.0462831 -4.39703e-19)
(-0.0337713 0.0669183 -4.17532e-19)
(-0.0365662 0.0809192 1.9599e-19)
(-0.0343518 0.089178 -1.1649e-21)
(-0.0275146 0.0926664 1.73901e-19)
(-0.0163184 0.0922939 -3.27833e-19)
(-0.00087481 0.0888449 3.08254e-19)
(0.0188572 0.082942 0)
(0.0430547 0.0750349 -2.74833e-19)
(0.0720044 0.0654129 2.58532e-19)
(0.106068 0.0542313 -2.43225e-19)
(0.145641 0.0415448 0)
(0.191099 0.0273427 4.35848e-19)
(0.242736 0.0115896 1.67799e-21)
(0.300685 -0.00573589 -3.84865e-19)
(0.364857 -0.0245818 0)
(0.434392 -0.0449887 0)
(0.510605 -0.0656163 8.65388e-22)
(0.581487 -0.0905239 -2.95005e-19)
(0.684397 -0.103492 -5.32448e-19)
(-0.0108828 0.0172317 0)
(-0.0257337 0.0432406 4.45977e-19)
(-0.033728 0.0625148 4.17531e-19)
(-0.0355996 0.0755173 3.95733e-19)
(-0.0318206 0.0830523 0)
(-0.0227367 0.0860109 3.50279e-19)
(-0.00858116 0.0852343 3.2906e-19)
(0.0105635 0.081457 -3.09529e-19)
(0.0347709 0.0752723 -2.91192e-19)
(0.0642538 0.0671212 -2.75213e-19)
(0.0993327 0.057303 7.76443e-19)
(0.140391 0.0459985 -4.86534e-19)
(0.18782 0.0333013 -2.29366e-19)
(0.241939 0.0192528 4.34827e-19)
(0.302915 0.00388027 -4.07194e-19)
(0.370647 -0.012766 7.69287e-19)
(0.444727 -0.0305285 -3.59746e-19)
(0.523631 -0.0495363 3.35114e-19)
(0.60893 -0.0675766 6.26645e-19)
(0.68514 -0.090955 -2.91625e-19)
(0.796621 -0.0988564 7.2308e-22)
(-0.0110157 0.0160314 2.24488e-19)
(-0.0258158 0.0400778 -8.9501e-19)
(-0.0332687 0.0577731 2.10593e-19)
(-0.0339804 0.0695351 -7.92673e-19)
(-0.0283464 0.0761166 1.86872e-19)
(-0.0166579 0.0783501 3.5253e-19)
(0.000898312 0.0770219 -9.91111e-19)
(0.0242848 0.0728239 6.20462e-19)
(0.0536198 0.0663243 0)
(0.0891556 0.0579581 0)
(0.131237 0.0480366 0)
(0.180238 0.0367687 4.87832e-19)
(0.236485 0.02429 4.58778e-19)
(0.300148 0.0106944 4.33271e-19)
(0.37113 -0.00393252 -8.12911e-19)
(0.448931 -0.0194805 3.81136e-19)
(0.532621 -0.0357077 3.56877e-19)
(0.61996 -0.0528611 -1.00079e-18)
(0.712139 -0.068038 3.10364e-19)
(0.791922 -0.0893544 2.81635e-19)
(0.906542 -0.0924924 -3.24539e-21)
(-0.0111078 0.0148701 0)
(-0.0256689 0.0368625 1.12615e-18)
(-0.0323244 0.0527978 -5.80597e-22)
(-0.0315527 0.0631101 -3.99272e-19)
(-0.0236669 0.0685384 1.87911e-19)
(-0.00889256 0.0698816 -3.51848e-19)
(0.0126448 0.0678872 3.30004e-19)
(0.0409657 0.0632156 -3.11413e-19)
(0.0762385 0.0564174 0)
(0.118746 0.0479269 -2.753e-19)
(0.168824 0.0380717 -2.59272e-19)
(0.226777 0.0270914 4.87128e-19)
(0.292757 0.0151625 -1.60395e-18)
(0.366639 0.0024247 4.29985e-19)
(0.447874 -0.010994 0)
(0.535364 -0.0249507 -3.78495e-19)
(0.627439 -0.0391918 2.39147e-21)
(0.721247 -0.0539984 -3.26731e-19)
(0.816777 -0.0664358 0)
(0.897808 -0.085092 -2.78239e-19)
(1.00866 -0.0846585 0)
(-0.0111664 0.013763 -4.5673e-19)
(-0.0252673 0.0336419 -2.24946e-19)
(-0.0307947 0.0476767 2.15394e-19)
(-0.0281144 0.0563735 2.01169e-19)
(-0.0174567 0.0604937 3.7833e-19)
(0.00102627 0.0608283 7.08846e-19)
(0.0272803 0.0581046 -1.01373e-21)
(0.061389 0.052965 0)
(0.103562 0.0459527 -2.93224e-19)
(0.154079 0.0375083 5.50602e-19)
(0.213203 0.0279792 0)
(0.281051 0.0176349 0)
(0.357451 0.00668463 2.36923e-22)
(0.441779 -0.00470474 8.56114e-19)
(0.532818 -0.0163951 0)
(0.628683 -0.0282531 0)
(0.726812 -0.0401303 3.51697e-19)
(0.82394 -0.0521713 4.70433e-21)
(0.918316 -0.0624171 3.00049e-19)
(0.997742 -0.0777834 1.23162e-20)
(1.09749 -0.0759049 4.8372e-19)
(-0.0111885 0.0127118 2.27671e-19)
(-0.0245611 0.0304403 2.28116e-19)
(-0.0285428 0.0424768 -2.12389e-19)
(-0.0234148 0.0494443 0)
(-0.00933047 0.0521593 -3.78326e-19)
(0.0136341 0.0514299 -3.55046e-19)
(0.0454971 0.0479827 0)
(0.0863947 0.0424569 -6.26454e-19)
(0.136544 0.0353989 2.93939e-19)
(0.196156 0.0272617 -5.51646e-19)
(0.265302 0.0184124 0)
(0.343753 0.00914097 -2.42871e-19)
(0.430802 -0.00033141 2.27639e-19)
(0.525106 -0.00984489 -4.27656e-19)
(0.624583 -0.0192998 0)
(0.726445 -0.0286271 0)
(0.827266 -0.0378819 0)
(0.923555 -0.0469636 0)
(1.01199 -0.0557377 2.82891e-19)
(1.08637 -0.0670173 7.99449e-19)
(1.16822 -0.0668886 -1.44505e-20)
(-0.0111578 0.0117061 2.31226e-19)
(-0.0234711 0.0272596 0)
(-0.0253927 0.037243 -4.3166e-19)
(-0.0171574 0.0424261 0)
(0.00114597 0.0437076 3.80776e-19)
(0.0295109 0.0419351 -1.57688e-21)
(0.068014 0.0378533 -3.35927e-19)
(0.11681 0.0321123 6.27339e-19)
(0.176055 0.0252702 -5.8896e-19)
(0.245773 0.0177939 8.2781e-19)
(0.325681 0.0100605 0)
(0.414993 0.00235753 0)
(0.512239 -0.00511953 0)
(0.615158 -0.0122694 0)
(0.720704 -0.0190896 0)
(0.825234 -0.0256347 0)
(0.924736 -0.0321743 0)
(1.01568 -0.0384618 0)
(1.09415 -0.046117 -5.70167e-19)
(1.15942 -0.0525193 -2.6403e-19)
(1.21737 -0.058921 -9.31533e-19)
(-0.0110432 0.0107246 -2.33266e-19)
(-0.0218872 0.0240819 0)
(-0.0211304 0.0319992 -2.20788e-19)
(-0.00900743 0.0354062 -2.05467e-19)
(0.0144371 0.035302 -3.83133e-19)
(0.0492469 0.0325938 1.88044e-21)
(0.0955204 0.0280592 3.37722e-19)
(0.153362 0.0223699 3.16115e-19)
(0.222754 0.0160988 2.94865e-19)
(0.303368 0.00971767 2.76702e-19)
(0.394352 0.00358991 0)
(0.494128 -0.00204016 0)
(0.600265 -0.00705894 0)
(0.709484 -0.0114876 0)
(0.81784 -0.0154786 0)
(0.921106 -0.019254 0)
(1.01518 -0.0232289 0)
(1.09687 -0.0272434 0)
(1.16316 -0.0333895 -1.25486e-21)
(1.21562 -0.0358532 -7.47812e-19)
(1.2446 -0.0549166 -7.76146e-21)
(-0.0107984 0.00973901 7.09174e-19)
(-0.0196689 0.0208755 -2.33809e-19)
(-0.0155093 0.0267542 2.16794e-19)
(0.00139512 0.0284582 0)
(0.0310138 0.0270976 -7.74327e-19)
(0.0734019 0.0236521 -1.78141e-22)
(0.128613 0.018943 0)
(0.196591 0.0136672 4.30776e-23)
(0.276981 0.00840447 -2.97014e-19)
(0.368888 0.00360757 -5.53493e-19)
(0.470654 -0.00041625 0)
(0.579701 -0.00352556 2.41024e-19)
(0.692522 -0.00575722 -2.25901e-19)
(0.804885 -0.00731778 -4.17047e-19)
(0.912227 -0.00855255 0)
(1.01021 -0.00985449 0)
(1.09522 -0.0117132 0)
(1.16495 -0.0141407 0)
(1.21823 -0.0184402 -2.57834e-19)
(1.25565 -0.0208926 1.21893e-18)
(1.27725 -0.0333702 4.28492e-19)
(-0.0103631 0.00871811 -4.74191e-19)
(-0.01665 0.0176033 -7.13562e-19)
(-0.00825902 0.0215099 6.64219e-19)
(0.0144198 0.0216497 -2.09101e-19)
(0.0513262 0.0192441 3.88531e-19)
(0.102463 0.0153523 -1.52529e-22)
(0.167736 0.0108413 6.84345e-19)
(0.246771 0.00642518 0)
(0.338664 0.00266745 2.96778e-19)
(0.441714 -4.13031e-05 -3.24067e-22)
(0.553234 -0.00151221 0)
(0.669514 -0.00177967 0)
(0.786022 -0.00109825 8.93637e-19)
(0.897837 9.88067e-05 -8.96976e-22)
(1.00025 0.0012748 0)
(1.0894 0.00191454 0)
(1.16271 0.00152228 3.1827e-19)
(1.21925 0.00011597 5.75245e-19)
(1.25917 -0.00328981 2.56486e-19)
(1.28474 -0.00533904 -4.86841e-19)
(1.29666 -0.0161233 4.22822e-19)
(-0.00966579 0.00763254 2.40295e-19)
(-0.0126444 0.0142319 4.79203e-19)
(0.000904171 0.0162718 1.51625e-21)
(0.0304281 0.0150514 2.1123e-19)
(0.0757764 0.0118943 0)
(0.136806 0.00793677 -3.69517e-19)
(0.213128 0.00408133 -3.39559e-19)
(0.303848 0.00103608 3.21771e-19)
(0.407272 -0.000695153 0)
(0.520653 -0.000847892 -2.78278e-19)
(0.64012 0.000570994 0)
(0.760847 0.00327827 -2.39642e-19)
(0.877517 0.00675606 -2.25023e-19)
(0.98499 0.0103452 -8.23638e-19)
(1.079 0.0133697 3.82405e-19)
(1.15671 0.0152797 0)
(1.21696 0.0156768 -3.18262e-19)
(1.26026 0.0146569 -2.8847e-19)
(1.28815 0.011644 0)
(1.30353 0.00948134 -2.32589e-19)
(1.30792 3.73223e-05 0)
(-0.0086271 0.00645935 -2.44132e-19)
(-0.00745423 0.0107411 -9.69828e-19)
(0.0122648 0.011061 -2.26407e-19)
(0.0497553 0.0087503 -2.53222e-21)
(0.104694 0.00521515 -1.9967e-19)
(0.176662 0.00165433 -3.73269e-19)
(0.264787 -0.00101886 3.47828e-19)
(0.367416 -0.00214624 -1.20689e-22)
(0.481812 -0.00134908 0)
(0.604 0.00142916 0)
(0.728894 0.00590531 0)
(0.850757 0.0114939 4.80768e-19)
(0.963929 0.0174106 4.45361e-19)
(1.06363 0.0228241 -4.04077e-19)
(1.1466 0.0270152 7.4758e-19)
(1.21144 0.0295079 -3.4559e-19)
(1.2585 0.0300821 -3.03742e-19)
(1.2896 0.0289704 2.81766e-19)
(1.30722 0.0259415 -2.55783e-19)
(1.31464 0.0234165 -2.18505e-19)
(1.31384 0.0147791 2.0246e-19)
(-0.00716355 0.00518581 0)
(-0.000878324 0.00713346 4.88015e-19)
(0.0260961 0.00592635 4.63442e-19)
(0.0726942 0.00286173 4.27966e-19)
(0.138312 -0.000602289 0)
(0.22209 -0.00323309 -1.64705e-22)
(0.322443 -0.00415162 3.35516e-21)
(0.436704 -0.00281643 -3.20854e-19)
(0.560876 0.00093984 3.04148e-19)
(0.689672 0.00687611 2.79075e-19)
(0.816941 0.0143678 -2.59747e-19)
(0.936434 0.0225145 -4.7662e-19)
(1.04272 0.0303168 2.23036e-19)
(1.13197 0.0368729 -3.99621e-19)
(1.20235 0.0415377 3.74238e-19)
(1.25403 0.0440074 2.77549e-21)
(1.28877 0.0442898 3.0857e-19)
(1.30932 0.0427647 2.75897e-19)
(1.31872 0.0394842 2.67688e-21)
(1.32024 0.0365014 2.23646e-19)
(1.31568 0.0283501 3.7741e-19)
(-0.00519083 0.00381195 0)
(0.00727995 0.0034397 -5.023e-19)
(0.0426474 0.000952763 -4.63436e-19)
(0.0994778 -0.00246078 -2.16948e-19)
(0.17675 -0.00533439 8.16343e-19)
(0.272957 -0.00644816 1.86599e-19)
(0.385552 -0.00502518 -3.84572e-21)
(0.510607 -0.00073092 -3.29998e-19)
(0.642728 0.00629106 0)
(0.775392 0.0154214 2.79778e-19)
(0.901721 0.0256658 -7.80669e-19)
(1.01551 0.0358517 2.419e-19)
(1.11215 0.0448673 0)
(1.18922 0.0518679 -3.95025e-19)
(1.24654 0.0563921 7.31735e-19)
(1.28574 0.0583735 -3.32525e-19)
(1.30964 0.0580551 0)
(1.32157 0.0559448 0)
(1.32471 0.0523097 -4.75636e-19)
(1.32201 0.0488256 2.18523e-19)
(1.31516 0.0410794 -3.7679e-19)
(-0.00262713 0.00235182 3.49961e-21)
(0.0172039 -0.000276083 5.01467e-19)
(0.0621323 -0.00373175 0)
(0.130263 -0.00701995 -4.45361e-19)
(0.21999 -0.00872336 -2.04541e-19)
(0.328926 -0.00770283 -1.92959e-19)
(0.453302 -0.00337599 0)
(0.587738 0.00427595 0)
(0.725435 0.0147 3.49404e-21)
(0.858893 0.0268485 2.8549e-19)
(0.981016 0.039383 2.60514e-19)
(1.08625 0.0509573 -4.74198e-19)
(1.17133 0.0604825 6.08547e-21)
(1.23552 0.0672953 -1.88917e-19)
(1.28021 0.0711967 3.72893e-21)
(1.30823 0.0723797 0)
(1.32308 0.0712945 0)
(1.32827 0.0685401 0)
(1.32685 0.0645203 2.31279e-19)
(1.32131 0.0605664 4.09486e-19)
(1.31303 0.0531499 -2.5677e-21)
(0.00060472 0.00083409 -5.20856e-19)
(0.0290558 -0.00391539 2.55195e-19)
(0.0847152 -0.00795561 2.39141e-19)
(0.165115 -0.0105757 -2.32416e-19)
(0.267866 -0.0104831 -2.0766e-19)
(0.389449 -0.0067111 5.8672e-19)
(0.524637 0.00101308 3.62825e-19)
(0.666509 0.0122763 -4.31381e-21)
(0.807018 0.0260389 -9.24522e-19)
(0.938125 0.0408248 6.03045e-21)
(1.05312 0.0550372 2.60306e-19)
(1.14767 0.067295 -2.82464e-21)
(1.2202 0.0766721 -4.28576e-19)
(1.27166 0.0827836 1.99564e-19)
(1.30479 0.0857277 0)
(1.32326 0.085941 0)
(1.33087 0.0840309 0)
(1.33102 0.0806419 5.04056e-19)
(1.32639 0.0762503 -4.65587e-19)
(1.31901 0.0718624 -2.06023e-19)
(1.30996 0.0647521 3.06475e-21)
(0.00457503 -0.000698818 7.94314e-19)
(0.0429701 -0.00734708 -5.2767e-19)
(0.1105 -0.0115065 -4.89559e-19)
(0.203991 -0.0128524 6.81396e-19)
(0.320049 -0.0103124 -4.27267e-19)
(0.45377 -0.00320846 5.36583e-21)
(0.598306 0.00829249 -7.24696e-19)
(0.745236 0.0232391 1.00987e-18)
(0.885607 0.0400707 -3.13777e-19)
(1.01141 0.0569439 0)
(1.11694 0.0721392 0)
(1.19948 0.0843947 0)
(1.25928 0.0930658 2.15585e-19)
(1.29882 0.0981005 0)
(1.32186 0.0998893 -1.71099e-19)
(1.33249 0.0990684 1.60181e-19)
(1.33451 0.0963435 0)
(1.331 0.0923637 -2.53559e-19)
(1.32421 0.0876227 -2.21262e-19)
(1.31568 0.0828427 -1.94255e-19)
(1.30624 0.0760005 1.73458e-19)
(0.00934493 -0.00219173 -5.383e-19)
(0.0590453 -0.0104105 2.64203e-19)
(0.139516 -0.0141386 4.97463e-19)
(0.246727 -0.013551 0)
(0.376042 -0.0079138 4.23951e-19)
(0.520954 0.00302581 -7.95679e-19)
(0.672928 0.0185293 -1.85183e-19)
(0.822258 0.0370318 -3.36559e-19)
(0.959583 0.056476 2.90396e-21)
(1.07755 0.074772 -2.85816e-19)
(1.17196 0.090241 -2.55702e-19)
(1.24196 0.101883 4.71233e-19)
(1.28953 0.109415 -2.13909e-19)
(1.31839 0.113131 7.87118e-21)
(1.33292 0.113675 1.75795e-19)
(1.33734 0.111827 -3.05372e-19)
(1.33517 0.108333 -2.72698e-19)
(1.32908 0.103814 2.39975e-19)
(1.32088 0.0987417 -2.16684e-19)
(1.31168 0.0935983 9.93364e-21)
(1.30209 0.0869839 1.76511e-19)
(0.014964 -0.00357815 5.52707e-19)
(0.0773365 -0.0129208 -2.73729e-19)
(0.17171 -0.0155826 5.68286e-22)
(0.293029 -0.0123661 -2.37228e-19)
(0.435188 -0.00301539 2.20519e-19)
(0.589919 0.0121481 4.04775e-19)
(0.747077 0.0316985 -2.01824e-21)
(0.89605 0.0534334 3.48955e-19)
(1.02767 0.0748881 4.77782e-19)
(1.13583 0.0938896 1.14372e-18)
(1.21818 0.108966 -2.63952e-19)
(1.27579 0.119491 0)
(1.3121 0.12558 -5.38106e-21)
(1.33171 0.127846 -3.81194e-19)
(1.3393 0.127133 0)
(1.33892 0.124303 1.55467e-19)
(1.33371 0.120096 4.04573e-19)
(1.32586 0.115082 -1.23348e-19)
(1.31677 0.109685 0)
(1.3072 0.104196 0)
(1.29757 0.0977564 0)
(0.0214677 -0.00478193 -4.18477e-19)
(0.0978483 -0.0146751 -1.40031e-19)
(0.206935 -0.0155584 0)
(0.342474 -0.0090038 2.37788e-19)
(0.496688 0.00460891 -4.44531e-19)
(0.659494 0.0242362 0)
(0.819367 0.0476858 -1.89963e-19)
(0.965316 0.0721581 -1.71052e-19)
(1.08899 0.0949279 -3.14771e-19)
(1.18601 0.113923 -8.52815e-19)
(1.25602 0.128024 5.16717e-19)
(1.30187 0.137046 -2.37469e-19)
(1.32816 0.1415 0)
(1.34002 0.142269 1.87831e-19)
(1.34209 0.140335 -2.43006e-21)
(1.33811 0.136584 -2.39961e-21)
(1.33073 0.131715 0)
(1.32172 0.126235 0)
(1.31209 0.120507 0)
(1.30233 0.114679 0)
(1.29273 0.108352 0)
(0.0288744 -0.00571912 0)
(0.120529 -0.01546 2.79632e-19)
(0.244949 -0.0137881 0)
(0.394515 -0.00319973 0)
(0.559634 0.0151223 -2.23482e-19)
(0.728481 0.0392827 4.16057e-19)
(0.888538 0.0662994 -3.50497e-21)
(1.02905 0.0928826 -1.73674e-19)
(1.14305 0.116233 1.58323e-19)
(1.22819 0.13456 1.40535e-19)
(1.28613 0.147205 -1.31372e-19)
(1.32121 0.154453 0)
(1.33886 0.157172 2.01183e-19)
(1.34436 0.156456 -1.88509e-19)
(1.34215 0.153358 3.24945e-19)
(1.33551 0.148744 -1.47495e-19)
(1.32664 0.143252 1.3299e-19)
(1.31687 0.137319 0)
(1.30693 0.131241 0)
(1.29711 0.125069 -1.78127e-19)
(1.28754 0.118789 0)
(0.0371825 -0.00630023 -1.45396e-19)
(0.145266 -0.0150593 -1.45342e-19)
(0.285413 -0.0100095 0)
(0.448495 0.00526517 -1.27411e-19)
(0.623048 0.0286142 -3.46892e-19)
(0.795718 0.0571983 0)
(0.953514 0.087289 0)
(1.08654 0.115272 0)
(1.18968 0.13848 -1.58327e-19)
(1.26277 0.155555 1.43215e-19)
(1.30931 0.166371 -1.27148e-19)
(1.33481 0.171671 -1.15445e-19)
(1.34516 0.172626 -1.04334e-19)
(1.34559 0.170468 0)
(1.34012 0.166267 2.46145e-21)
(1.33157 0.16084 1.43634e-19)
(1.32167 0.154747 -1.25079e-19)
(1.31144 0.148358 1.10749e-19)
(1.30135 0.141901 9.7975e-20)
(1.29154 0.135378 1.77039e-19)
(1.28202 0.129071 -1.55202e-19)
(0.0463684 -0.00643281 0)
(0.171885 -0.0132627 2.90619e-19)
(0.327897 -0.00398901 2.389e-21)
(0.503673 0.016552 2.52832e-19)
(0.68593 0.0450954 3.48747e-19)
(0.860142 0.0778211 -1.05059e-19)
(1.01344 0.110367 -2.87138e-19)
(1.13737 0.139002 3.28779e-21)
(1.22901 0.161388 0)
(1.29032 0.176724 2.83643e-19)
(1.3264 0.185441 1.27157e-19)
(1.34358 0.1887 2.2887e-19)
(1.34791 0.187903 1.02969e-19)
(1.34435 0.184361 0)
(1.33646 0.179116 -3.28425e-21)
(1.32655 0.172908 -1.41161e-19)
(1.316 0.16622 1.25092e-19)
(1.3055 0.159359 -2.93121e-21)
(1.29535 0.152492 -9.79842e-20)
(1.28559 0.145601 8.66095e-20)
(1.27612 0.139196 0)
(0.0563847 -0.00602445 7.62576e-20)
(0.200148 -0.00987381 0)
(0.371893 0.00446709 -1.34997e-19)
(0.559255 0.030755 1.29557e-19)
(0.747304 0.0645001 -2.35022e-19)
(0.920825 0.100931 3.23775e-19)
(1.06771 0.135226 -9.85779e-20)
(1.18141 0.163768 2.66353e-19)
(1.26135 0.184727 0)
(1.31149 0.197936 -1.38433e-19)
(1.3382 0.204372 4.33819e-21)
(1.3483 0.205554 1.06578e-19)
(1.34777 0.203048 -1.99032e-19)
(1.34114 0.198182 -8.62563e-20)
(1.33148 0.191935 -1.55897e-19)
(1.32065 0.184964 0)
(1.30968 0.177675 -5.85671e-20)
(1.29906 0.170317 -5.30488e-20)
(1.28893 0.163003 0)
(1.27925 0.15573 8.04164e-20)
(1.26982 0.149152 -3.55248e-21)
(0.0671593 -0.00498603 -6.42849e-22)
(0.22976 -0.00471912 0)
(0.416829 0.0155029 -3.51552e-19)
(0.614418 0.0478976 6.57994e-20)
(0.806256 0.0866918 -1.3415e-21)
(0.977005 0.126264 -1.63124e-21)
(1.11591 0.161559 -9.83909e-20)
(1.2187 0.189301 4.33466e-21)
(1.28713 0.208312 2.42148e-21)
(1.32695 0.219096 -1.40391e-19)
(1.34544 0.223143 1.24586e-19)
(1.34965 0.222256 -1.1034e-19)
(1.34526 0.218095 9.76007e-20)
(1.33631 0.211956 8.76823e-20)
(1.32538 0.204739 1.50847e-19)
(1.31394 0.197007 -1.98532e-19)
(1.30275 0.1891 6.03995e-20)
(1.2921 0.181215 0)
(1.28205 0.173418 -8.88615e-20)
(1.27248 0.165743 8.01546e-20)
(1.26312 0.158924 -1.76728e-19)
(0.0785958 -0.00323515 7.82815e-20)
(0.260374 0.00234441 7.77608e-20)
(0.462087 0.0292056 2.14005e-19)
(0.668351 0.0679317 0)
(0.861969 0.111473 1.20061e-19)
(1.02809 0.153528 0)
(1.15784 0.189064 -4.80406e-20)
(1.24943 0.215359 4.51689e-20)
(1.30687 0.231991 7.84062e-20)
(1.33735 0.240141 0)
(1.34879 0.241747 0)
(1.34817 0.238823 -5.21736e-20)
(1.34076 0.233063 2.96239e-21)
(1.33011 0.225695 -8.48381e-22)
(1.31831 0.217522 -2.2799e-21)
(1.30649 0.209023 3.69157e-22)
(1.29521 0.200472 0)
(1.28461 0.192026 4.85041e-20)
(1.27468 0.183712 -6.62676e-22)
(1.26526 0.175615 0)
(1.25599 0.168488 3.30326e-20)
(0.0905749 -0.000699576 0)
(0.2916 0.0114224 -7.77605e-20)
(0.507026 0.0456012 -7.20029e-20)
(0.720278 0.090741 0)
(0.913742 0.138597 0)
(1.07367 0.182417 2.74825e-20)
(1.19347 0.217455 2.45537e-20)
(1.27393 0.24173 4.24886e-20)
(1.32109 0.255642 -1.15879e-19)
(1.34328 0.261018 6.90367e-20)
(1.34876 0.260175 0)
(1.34426 0.255263 -2.60263e-20)
(1.33456 0.247955 0)
(1.32268 0.239389 0)
(1.31031 0.230266 0)
(1.29831 0.220982 1.64073e-20)
(1.28704 0.21176 0)
(1.27657 0.202718 -2.36519e-20)
(1.26681 0.193854 -2.05228e-20)
(1.25755 0.185314 3.71802e-20)
(1.24841 0.177817 -1.6893e-20)
(0.102957 0.00267961 0)
(0.323017 0.0225778 0)
(0.551002 0.0646522 0)
(0.769482 0.116147 0)
(0.960999 0.167777 1.4949e-20)
(1.11347 0.212615 -4.15601e-20)
(1.22288 0.246464 -2.45549e-20)
(1.29256 0.26823 1.05102e-20)
(1.3303 0.279163 2.85621e-20)
(1.34528 0.281686 -5.00241e-20)
(1.34581 0.278415 1.52206e-20)
(1.33825 0.27157 1.35834e-20)
(1.32685 0.262759 1.16674e-20)
(1.31413 0.253015 0)
(1.30144 0.242936 -8.35988e-21)
(1.2894 0.232846 2.32101e-20)
(1.27823 0.222923 0)
(1.26794 0.213251 2.36542e-20)
(1.25839 0.203808 0)
(1.24934 0.194798 0)
(1.24038 0.186875 0)
(0.115585 0.0069452 0)
(0.354185 0.0358268 0)
(0.593385 0.0862591 0)
(0.815325 0.143915 0)
(1.00329 0.1987 -1.4946e-20)
(1.14736 0.243809 -1.32637e-20)
(1.24626 0.275837 -2.41928e-20)
(1.30571 0.29469 0)
(1.33498 0.30246 3.71993e-20)
(1.34378 0.302098 -1.65942e-20)
(1.34029 0.296442 -1.03515e-21)
(1.33038 0.28772 2.37587e-20)
(1.31777 0.277446 -1.13415e-20)
(1.30453 0.266535 0)
(1.2917 0.255489 8.05869e-21)
(1.27972 0.24457 6.70722e-21)
(1.26874 0.233915 0)
(1.25868 0.223582 2.1705e-20)
(1.2494 0.213531 0)
(1.24062 0.204022 0)
(1.23189 0.195623 0)
(0.128289 0.0121216 0)
(0.384657 0.0511373 -8.05965e-20)
(0.633584 0.110263 -7.42802e-20)
(0.857259 0.173767 0)
(1.0403 0.231031 0)
(1.17531 0.27569 2.7339e-20)
(1.26385 0.305341 2.41943e-20)
(1.31379 0.320958 -4.07277e-20)
(1.33557 0.325446 3.65935e-20)
(1.33918 0.322208 -8.95534e-22)
(1.33248 0.314222 0)
(1.32082 0.303677 -2.46607e-20)
(1.3074 0.29197 0)
(1.29389 0.279898 0)
(1.28108 0.267873 0)
(1.26928 0.256101 1.30026e-20)
(1.25854 0.244687 0)
(1.24878 0.233662 -2.1707e-20)
(1.23982 0.222976 1.78641e-20)
(1.23134 0.212935 -3.22706e-20)
(1.22293 0.204028 1.46655e-20)
(0.140891 0.0182132 8.2586e-20)
(0.413992 0.0684285 8.05966e-20)
(0.671053 0.136451 2.22763e-19)
(0.89483 0.205385 0)
(1.07181 0.264427 1.21012e-19)
(1.19741 0.307958 0)
(1.27594 0.334751 4.57305e-20)
(1.31718 0.34689 -4.30003e-20)
(1.33245 0.348035 7.08873e-20)
(1.33178 0.341955 0)
(1.3226 0.331706 0)
(1.30971 0.31939 4.51815e-20)
(1.2958 0.306276 -3.1515e-21)
(1.28223 0.293045 -1.3975e-19)
(1.26958 0.280029 2.31687e-21)
(1.25803 0.267384 5.22653e-20)
(1.24761 0.255187 0)
(1.2382 0.243446 -3.88198e-20)
(1.2296 0.232093 7.02002e-20)
(1.22148 0.22148 0)