/*--------------------------------*- C++ -*----------------------------------*\
  =========                 |
  \\      /  F ield         | OpenFOAM: The Open Source CFD Toolbox
   \\    /   O peration     | Website:  https://openfoam.org
    \\  /    A nd           | Version:  7
     \\/     M anipulation  |
\*---------------------------------------------------------------------------*/
FoamFile
{
    version     2.0;
    format      ascii;
    class       surfaceScalarField;
    location    "44";
    object      phi;
}
// * * * * * * * * * * * * * * * * * * * * * * * * * * * * * * * * * * * * * //

dimensions      [0 3 -1 0 0 0 0];

internalField   nonuniform List<scalar> 
79480
(
-7.45275e-07
7.21246e-07
2.40296e-08
-2.8704e-06
2.05376e-06
7.13734e-08
-6.32442e-06
3.33422e-06
1.19789e-07
-1.10544e-05
4.56097e-06
1.69034e-07
-1.70052e-05
5.7319e-06
2.18837e-07
-2.41195e-05
6.84541e-06
2.68955e-07
-3.2339e-05
7.9003e-06
3.19185e-07
-4.16041e-05
8.89575e-06
3.69393e-07
-5.18551e-05
9.83137e-06
4.19533e-07
-6.30319e-05
1.07071e-05
4.69669e-07
-7.50753e-05
1.15234e-05
5.19986e-07
-8.79269e-05
1.22808e-05
5.70804e-07
-0.00010153
1.29802e-05
6.22569e-07
-0.000115828
1.36228e-05
6.75847e-07
-0.000130769
1.42098e-05
7.31304e-07
-0.000146302
1.47428e-05
7.89676e-07
-0.000162378
1.52239e-05
8.5174e-07
-0.000178952
1.56559e-05
9.18277e-07
-0.000195985
1.60428e-05
9.9004e-07
-0.000213443
1.63908e-05
1.06772e-06
-0.000231304
1.67085e-05
1.15193e-06
-0.000249555
1.70087e-05
1.24316e-06
-0.000268206
1.73086e-05
1.34181e-06
-0.000287285
1.76313e-05
1.44815e-06
-0.000306853
1.80059e-05
1.56234e-06
-0.000327005
1.84668e-05
1.68442e-06
-0.000347871
1.90519e-05
1.81432e-06
-0.000369619
1.97965e-05
1.95183e-06
-0.000392447
2.07317e-05
2.09653e-06
2.19093e-05
2.24767e-06
-0.000416604
-7.40077e-07
1.46132e-06
-2.85087e-06
4.16454e-06
-6.28211e-06
6.76546e-06
-1.09815e-05
9.26036e-06
-1.68943e-05
1.16447e-05
-2.39637e-05
1.39149e-05
-3.21316e-05
1.60682e-05
-4.13386e-05
1.81028e-05
-5.15249e-05
2.00177e-05
-6.26306e-05
2.18128e-05
-7.4596e-05
2.34889e-05
-8.73627e-05
2.50475e-05
-0.000100873
2.64906e-05
-0.000115071
2.78208e-05
-0.000129903
2.90413e-05
-0.000145315
3.01557e-05
-0.00016126
3.11686e-05
-0.00017769
3.2086e-05
-0.000194564
3.29164e-05
-0.000211845
3.36718e-05
-0.000229506
3.43699e-05
-0.000247533
3.50357e-05
-0.000265928
3.57036e-05
-0.000284716
3.64195e-05
-0.000303952
3.72415e-05
-0.000323725
3.82392e-05
-0.000344162
3.94894e-05
-0.00036543
4.10645e-05
-0.000387727
4.30282e-05
4.54855e-05
-0.000411303
-7.29547e-07
2.19087e-06
-2.81128e-06
6.24628e-06
-6.19637e-06
1.01505e-05
-1.08337e-05
1.38977e-05
-1.66695e-05
1.74805e-05
-2.36479e-05
2.08932e-05
-3.1711e-05
2.41313e-05
-4.08e-05
2.71918e-05
-5.08551e-05
3.00727e-05
-6.18161e-05
3.27738e-05
-7.36233e-05
3.52961e-05
-8.62173e-05
3.76414e-05
-9.95396e-05
3.9813e-05
-0.000113533
4.18144e-05
-0.000128142
4.36502e-05
-0.000143312
4.53258e-05
-0.000158991
4.68474e-05
-0.000175129
4.82238e-05
-0.000191679
4.94666e-05
-0.0002086
5.05931e-05
-0.000225859
5.16282e-05
-0.000243431
5.26078e-05
-0.000261309
5.35822e-05
-0.000279509
5.46191e-05
-0.000298073
5.58053e-05
-0.00031708
5.72462e-05
-0.000336651
5.90604e-05
-0.000356947
6.13613e-05
-0.000378169
6.42494e-05
6.78878e-05
-0.000400571
-7.13867e-07
2.90474e-06
-2.7523e-06
8.28471e-06
-6.06854e-06
1.34668e-05
-1.06132e-05
1.84424e-05
-1.63341e-05
2.32013e-05
-2.31761e-05
2.77353e-05
-3.10825e-05
3.20377e-05
-3.99947e-05
3.61039e-05
-4.9853e-05
3.9931e-05
-6.0597e-05
4.35179e-05
-7.21663e-05
4.68654e-05
-8.45007e-05
4.99758e-05
-9.75402e-05
5.28525e-05
-0.000111226
5.55001e-05
-0.0001255
5.79238e-05
-0.000140304
6.01299e-05
-0.000155582
6.21258e-05
-0.00017128
6.39213e-05
-0.000187343
6.55304e-05
-0.000203723
6.69733e-05
-0.000220376
6.82806e-05
-0.000237265
6.94968e-05
-0.000254369
7.06858e-05
-0.000271685
7.19354e-05
-0.00028924
7.33603e-05
-0.000307097
7.51031e-05
-0.000325364
7.73275e-05
-0.000344197
8.01947e-05
-0.000363797
8.38491e-05
8.85208e-05
-0.00038443
-6.93308e-07
3.59804e-06
-2.6749e-06
1.02663e-05
-5.90066e-06
1.66926e-05
-1.03235e-05
2.28652e-05
-1.58927e-05
2.87706e-05
-2.2555e-05
3.43975e-05
-3.02542e-05
3.9737e-05
-3.89324e-05
4.4782e-05
-4.85298e-05
4.95284e-05
-5.89857e-05
5.39739e-05
-7.0239e-05
5.81186e-05
-8.22278e-05
6.19646e-05
-9.48906e-05
6.55153e-05
-0.000108166
6.87753e-05
-0.000121992
7.175e-05
-0.000136308
7.44455e-05
-0.000151051
7.68693e-05
-0.000166161
7.90311e-05
-0.000181576
8.0945e-05
-0.000197235
8.26323e-05
-0.00021308
8.41261e-05
-0.00022906
8.54769e-05
-0.000245133
8.6759e-05
-0.000261275
8.80773e-05
-0.000277488
8.95733e-05
-0.000293813
9.14276e-05
-0.000310339
9.38541e-05
-0.000327215
9.70707e-05
-0.000344643
0.000101277
0.000106784
-0.000362906
-6.68226e-07
4.26627e-06
-2.58036e-06
1.21784e-05
-5.69539e-06
1.98076e-05
-9.96873e-06
2.71385e-05
-1.53519e-05
3.41538e-05
-2.17929e-05
4.08385e-05
-2.92367e-05
4.71808e-05
-3.76257e-05
5.31711e-05
-4.69002e-05
5.88029e-05
-5.6999e-05
6.40726e-05
-6.78594e-05
6.89791e-05
-7.94183e-05
7.35235e-05
-9.16115e-05
7.77085e-05
-0.000104374
8.15383e-05
-0.000117642
8.50172e-05
-0.000131347
8.81505e-05
-0.000145421
9.09441e-05
-0.000159796
9.34061e-05
-0.0001744
9.55484e-05
-0.000189158
9.73907e-05
-0.000203997
9.89654e-05
-0.000218845
0.000100325
-0.000233636
0.000101549
-0.000248316
0.000102758
-0.000262858
0.000104115
-0.000277271
0.00010584
-0.00029162
0.000108203
-0.000306041
0.000111492
-0.000320738
0.000115974
0.000122065
-0.00033602
-6.39057e-07
4.90533e-06
-2.47024e-06
1.40096e-05
-5.45596e-06
2.27933e-05
-9.55442e-06
3.1237e-05
-1.47193e-05
3.93187e-05
-2.09001e-05
4.70194e-05
-2.80429e-05
5.43235e-05
-3.60903e-05
6.12185e-05
-4.49825e-05
6.7695e-05
-5.46571e-05
7.37472e-05
-6.50502e-05
7.93722e-05
-7.60962e-05
8.45695e-05
-8.77283e-05
8.93406e-05
-9.9878e-05
9.3688e-05
-0.000112475
9.76144e-05
-0.000125447
0.000101123
-0.000138719
0.000104216
-0.000152212
0.000106899
-0.000165842
0.000109178
-0.000179521
0.000111069
-0.000193155
0.0001126
-0.000206649
0.000113819
-0.000219908
0.000114808
-0.000232844
0.000115694
-0.00024539
0.000116661
-0.000257515
0.000117965
-0.00026925
0.000119939
-0.000280712
0.000122954
-0.000292108
0.000127369
0.000133735
-0.000303777
-6.0631e-07
5.51164e-06
-2.34638e-06
1.57497e-05
-5.1862e-06
2.56331e-05
-9.08679e-06
3.51376e-05
-1.4004e-05
4.42359e-05
-1.98889e-05
5.29043e-05
-2.66881e-05
6.11228e-05
-3.43445e-05
6.88749e-05
-4.27976e-05
7.61481e-05
-5.19839e-05
8.29335e-05
-6.18373e-05
8.92256e-05
-7.22897e-05
9.50219e-05
-8.32706e-05
0.000100321
-9.47071e-05
0.000105124
-0.000106524
0.000109431
-0.000118641
0.00011324
-0.000130975
0.00011655
-0.000143437
0.000119361
-0.00015593
0.000121671
-0.000168349
0.000123488
-0.000180579
0.00012483
-0.000192498
0.000125738
-0.000203977
0.000126287
-0.000214888
0.000126605
-0.000225116
0.000126888
-0.00023458
0.000127429
-0.000243264
0.000128623
-0.000251256
0.000130947
-0.000258762
0.000134875
0.000141128
-0.000266155
-5.70558e-07
6.08219e-06
-2.21083e-06
1.739e-05
-4.89038e-06
2.83127e-05
-8.57293e-06
3.88201e-05
-1.32163e-05
4.88792e-05
-1.87728e-05
5.84607e-05
-2.51895e-05
6.75395e-05
-3.2409e-05
7.60944e-05
-4.03697e-05
8.41088e-05
-4.90064e-05
9.15702e-05
-5.82505e-05
9.84698e-05
-6.80305e-05
0.000104802
-7.82716e-05
0.000110563
-8.88957e-05
0.000115749
-9.98209e-05
0.000120356
-0.00011096
0.000124379
-0.00012222
0.000127811
-0.000133501
0.000130641
-0.00014469
0.00013286
-0.000155665
0.000134463
-0.000166288
0.000135454
-0.000176409
0.000135858
-0.000185859
0.000135738
-0.000194465
0.00013521
-0.000202055
0.000134478
-0.000208484
0.000133859
-0.000213676
0.000133815
-0.000217678
0.000134949
-0.000220683
0.00013788
0.000143528
-0.000223083
-5.32428e-07
6.61462e-06
-2.06586e-06
1.89234e-05
-4.57319e-06
3.082e-05
-8.02057e-06
4.22675e-05
-1.23674e-05
5.32261e-05
-1.75668e-05
6.36601e-05
-2.35658e-05
7.35385e-05
-3.03063e-05
8.28349e-05
-3.77249e-05
9.15275e-05
-4.57542e-05
9.95994e-05
-5.43222e-05
0.000107038
-6.33533e-05
0.000113833
-7.27675e-05
0.000119977
-8.24807e-05
0.000125462
-9.24035e-05
0.000130279
-0.00010244
0.000134416
-0.000112487
0.000137858
-0.000122431
0.000140584
-0.000132144
0.000142574
-0.000141486
0.000143804
-0.000150293
0.000144261
-0.000158383
0.000143948
-0.000165549
0.000142903
-0.000171564
0.000141226
-0.000176193
0.000139107
-0.000179214
0.00013688
-0.000180469
0.00013507
-0.000179947
0.000134426
-0.000177818
0.00013575
0.000140153
-0.000174443
-4.92592e-07
7.10721e-06
-1.91388e-06
2.03447e-05
-4.23965e-06
3.31458e-05
-7.43798e-06
4.54659e-05
-1.14693e-05
5.72574e-05
-1.62869e-05
6.84777e-05
-2.18373e-05
7.90889e-05
-2.80607e-05
8.90582e-05
-3.48915e-05
9.83583e-05
-4.22589e-05
0.000106967
-5.00871e-05
0.000114866
-5.8295e-05
0.000122041
-6.67967e-05
0.000128479
-7.55008e-05
0.000134166
-8.43093e-05
0.000139087
-9.31164e-05
0.000143223
-0.000101807
0.000146548
-0.000110253
0.00014903
-0.000118311
0.000150632
-0.000125818
0.000151312
-0.000132588
0.000151031
-0.000138403
0.000149764
-0.000143015
0.000147515
-0.000146142
0.000144352
-0.000147476
0.000140441
-0.000146706
0.00013611
-0.000143572
0.000131936
-0.000137978
0.000128832
-0.000130073
0.000127846
0.000130137
-0.000120057
-4.5175e-07
7.55896e-06
-1.75739e-06
2.16503e-05
-3.89497e-06
3.52834e-05
-6.83377e-06
4.84047e-05
-1.05346e-05
6.09582e-05
-1.49499e-05
7.28931e-05
-2.0025e-05
8.41639e-05
-2.56975e-05
9.47308e-05
-3.18987e-05
0.00010456
-3.85536e-05
0.000113622
-4.5581e-05
0.000121893
-5.28938e-05
0.000129354
-6.03987e-05
0.000135983
-6.79955e-05
0.000141763
-7.55761e-05
0.000146668
-8.30232e-05
0.00015067
-9.02079e-05
0.000153733
-9.69869e-05
0.000155809
-0.000103198
0.000156843
-0.000108657
0.000156771
-0.00011315
0.000155523
-0.000116425
0.000153039
-0.000118192
0.000149282
-0.000118108
0.000144269
-0.00011579
0.000138123
-0.000110827
0.000131147
-0.000102833
0.000123941
-9.15765e-05
0.000117576
-7.72812e-05
0.000113551
0.000112689
-5.9833e-05
-4.10615e-07
7.96958e-06
-1.59896e-06
2.28387e-05
-3.54447e-06
3.72289e-05
-6.21671e-06
5.10769e-05
-9.57578e-06
6.43173e-05
-1.35727e-05
7.68901e-05
-1.81501e-05
8.87413e-05
-2.32423e-05
9.9823e-05
-2.87763e-05
0.000110093
-3.46715e-05
0.000119517
-4.08405e-05
0.000128062
-4.71884e-05
0.000135702
-5.3613e-05
0.000142408
-6.00037e-05
0.000148153
-6.62406e-05
0.000152905
-7.21926e-05
0.000156622
-7.77152e-05
0.000159255
-8.2647e-05
0.000160741
-8.68057e-05
0.000161002
-8.99822e-05
0.000159947
-9.19338e-05
0.000157475
-9.23754e-05
0.000153481
-9.09694e-05
0.000147876
-8.73167e-05
0.000140616
-8.09521e-05
0.000131759
-7.13564e-05
0.000121552
-5.80004e-05
0.000110585
-4.04112e-05
9.99867e-05
-1.8475e-05
9.16144e-05
8.92977e-05
4.91594e-06
-3.69898e-07
8.33948e-06
-1.44112e-06
2.39099e-05
-3.1934e-06
3.89811e-05
-5.59544e-06
5.34789e-05
-8.60556e-06
6.73274e-05
-1.21721e-05
8.04566e-05
-1.62338e-05
9.2803e-05
-2.07205e-05
0.00010431
-2.55534e-05
0.000114926
-3.06454e-05
0.000124609
-3.59008e-05
0.000133318
-4.12158e-05
0.000141017
-4.64772e-05
0.000147669
-5.1562e-05
0.000153238
-5.6336e-05
0.000157679
-6.0652e-05
0.000160938
-6.43467e-05
0.00016295
-6.72379e-05
0.000163632
-6.91194e-05
0.000162884
-6.97551e-05
0.000160583
-6.88708e-05
0.000156591
-6.61444e-05
0.000150754
-6.11927e-05
0.000142924
-5.35578e-05
0.000132981
-4.26939e-05
0.000120895
-2.79667e-05
0.000106825
-8.6912e-06
9.13099e-05
1.57548e-05
7.55407e-05
4.56538e-05
6.17154e-05
5.4835e-05
8.01166e-05
-3.30287e-07
8.66976e-06
-1.28632e-06
2.48659e-05
-2.8468e-06
4.05416e-05
-4.97827e-06
5.56104e-05
-7.63587e-06
6.9985e-05
-1.07638e-05
8.35845e-05
-1.42959e-05
9.6335e-05
-1.81558e-05
0.00010817
-2.22576e-05
0.000119028
-2.65058e-05
0.000128857
-3.07951e-05
0.000137607
-3.50104e-05
0.000145232
-3.90255e-05
0.000151685
-4.27026e-05
0.000156915
-4.58903e-05
0.000160867
-4.84218e-05
0.00016347
-5.01118e-05
0.00016464
-5.0753e-05
0.000164274
-5.01111e-05
0.000162242
-4.79182e-05
0.00015839
-4.38648e-05
0.000152537
-3.75881e-05
0.000144478
-2.86575e-05
0.000133993
-1.65559e-05
0.00012088
-6.58955e-07
0.000104998
1.97802e-05
8.63854e-05
4.56207e-05
6.54694e-05
7.77062e-05
4.34553e-05
0.000116491
2.29304e-05
9.68748e-06
0.000161639
-2.92424e-07
8.96219e-06
-1.13683e-06
2.57103e-05
-2.50934e-06
4.19141e-05
-4.3728e-06
5.74739e-05
-6.67769e-06
7.22899e-05
-9.36256e-06
8.62694e-05
-1.23546e-05
9.9327e-05
-1.55698e-05
0.000111385
-1.89134e-05
0.000122372
-2.22798e-05
0.000132223
-2.55519e-05
0.000140879
-2.86011e-05
0.000148281
-3.12858e-05
0.000154369
-3.34502e-05
0.00015908
-3.49224e-05
0.000162339
-3.55122e-05
0.000164059
-3.50074e-05
0.000164135
-3.31707e-05
0.000162437
-2.97337e-05
0.000158805
-2.4391e-05
0.000153047
-1.67913e-05
0.000144938
-6.52564e-06
0.000134212
6.8883e-06
0.00012058
2.40274e-05
0.000103741
4.5591e-05
8.34343e-05
7.24333e-05
5.95431e-05
0.000105579
3.23236e-05
0.000146127
2.90726e-06
0.000194922
-2.58643e-05
-4.72232e-05
0.000251833
-2.56883e-07
9.21907e-06
-9.94635e-07
2.64481e-05
-2.18509e-06
4.31046e-05
-3.78567e-06
5.90745e-05
-5.74046e-06
7.42447e-05
-7.98067e-06
8.85096e-05
-1.04251e-05
0.000101771
-1.29804e-05
0.00011394
-1.5541e-05
0.000124932
-1.7989e-05
0.000134671
-2.01935e-05
0.000143084
-2.20096e-05
0.000150097
-2.32772e-05
0.000155637
-2.38192e-05
0.000159622
-2.34392e-05
0.000161959
-2.19187e-05
0.000162539
-1.90135e-05
0.00016123
-1.44496e-05
0.000157873
-7.91771e-06
0.000152273
9.33223e-07
0.000144197
1.25049e-05
0.000133366
2.72607e-05
0.000119456
4.57413e-05
0.000102099
6.85873e-05
8.08946e-05
9.65704e-05
5.54512e-05
0.000130638
2.54752e-05
0.000171965
-9.00281e-06
0.000221912
-4.70397e-05
0.000281727
-8.56797e-05
-0.000117246
0.00035175
-2.2414e-07
9.44321e-06
-8.61392e-07
2.70853e-05
-1.87735e-06
4.41205e-05
-3.22213e-06
6.04192e-05
-4.83158e-06
7.58541e-05
-6.62769e-06
9.03057e-05
-8.51903e-06
0.000103663
-1.04008e-05
0.000115822
-1.21545e-05
0.000126686
-1.36478e-05
0.000136165
-1.47331e-05
0.000144169
-1.52465e-05
0.000150611
-1.5006e-05
0.000155396
-1.38092e-05
0.000158425
-1.14304e-05
0.00015958
-7.61742e-06
0.000158726
-2.08765e-06
0.0001557
5.47693e-06
0.000150308
1.54352e-05
0.000142315
2.81935e-05
0.000131438
4.42143e-05
0.000117345
6.40264e-05
9.96442e-05
8.82392e-05
7.78861e-05
0.000117564
5.15701e-05
0.000152844
2.01713e-05
0.000195106
-1.67872e-05
0.00024564
-5.95372e-05
0.00030604
-0.00010744
0.000377956
-0.000157596
-0.000201785
0.000462495
-1.94554e-07
9.63776e-06
-7.38278e-07
2.76291e-05
-1.58841e-06
4.49707e-05
-2.68575e-06
6.15166e-05
-3.95585e-06
7.71242e-05
-5.30949e-06
9.16594e-05
-6.64291e-06
0.000104996
-7.83767e-06
0.000117017
-8.76017e-06
0.000127609
-9.2608e-06
0.000136665
-9.17251e-06
0.000144081
-8.30904e-06
0.000149747
-6.46256e-06
0.00015355
-3.40079e-06
0.000155363
1.13638e-06
0.000155043
7.44096e-06
0.000152421
1.58414e-05
0.0001473
2.67081e-05
0.000139442
4.04592e-05
0.000128564
5.75672e-05
0.00011433
7.85676e-05
9.63446e-05
0.000104067
7.41444e-05
0.000134758
4.7196e-05
0.00017143
1.4898e-05
0.000215003
-2.34017e-05
0.00026657
-6.83544e-05
0.000327495
-0.000120462
0.000399537
-0.000179482
0.000484691
-0.000242749
-0.000302217
0.000585123
-1.68332e-07
9.8061e-06
-6.25919e-07
2.80866e-05
-1.31938e-06
4.56641e-05
-2.178e-06
6.23752e-05
-3.11491e-06
7.80611e-05
-4.0275e-06
9.2572e-05
-4.79744e-06
0.000105766
-5.29029e-06
0.000117509
-5.35468e-06
0.000127673
-4.82095e-06
0.000136132
-3.49926e-06
0.000142759
-1.17723e-06
0.000147425
2.38313e-06
0.000149989
7.44901e-06
0.000150297
1.43209e-05
0.000148171
2.33376e-05
0.000143405
3.48813e-05
0.000135756
4.93838e-05
0.000124939
6.73328e-05
0.000110615
8.9279e-05
9.23839e-05
0.000115843
6.97804e-05
0.000147725
4.22631e-05
0.000185709
9.21174e-06
0.00023068
-3.00732e-05
0.000283638
-7.63599e-05
0.000345733
-0.00013045
0.000418357
-0.000193086
0.000503343
-0.000264467
0.000602894
-0.000342301
-0.000419784
0.000720461
-1.45513e-07
9.95161e-06
-5.24292e-07
2.84654e-05
-1.06995e-06
4.62098e-05
-1.69795e-06
6.30032e-05
-2.30674e-06
7.86699e-05
-2.77798e-06
9.30432e-05
-2.97636e-06
0.000105965
-2.74887e-06
0.000117282
-1.92345e-06
0.000126848
-3.07225e-07
0.000134515
2.31605e-06
0.000140136
6.18915e-06
0.000143552
1.15851e-05
0.000144594
1.88116e-05
0.000143071
2.82162e-05
0.000138766
4.01916e-05
0.000131429
5.51825e-05
0.000120765
7.36915e-05
0.00010643
9.62866e-05
8.80195e-05
0.000123608
6.50627e-05
0.000156374
3.70146e-05
0.000195387
3.24977e-06
0.00024154
-3.69413e-05
0.000295819
-8.43519e-05
0.000359308
-0.00013985
0.000433209
-0.00020435
0.000518896
-0.000278773
0.000618164
-0.000363735
0.000733235
-0.000457372
-0.000555453
0.000868904
-1.25935e-07
1.00775e-05
-4.32648e-07
2.87721e-05
-8.38253e-07
4.66154e-05
-1.24198e-06
6.34069e-05
-1.5252e-06
7.89531e-05
-1.55138e-06
9.30694e-05
-1.16562e-06
0.000105579
-1.9348e-07
0.00011631
1.56082e-06
0.000125093
4.31705e-06
0.000131759
8.322e-06
0.000136131
1.38535e-05
0.00013802
2.12249e-05
0.000137222
3.07907e-05
0.000133505
4.29524e-05
0.000126605
5.81649e-05
0.000116217
7.69438e-05
0.000101987
9.98723e-05
8.35016e-05
0.000127608
6.02834e-05
0.000160891
3.17797e-05
0.000200547
-2.64098e-06
0.00024749
-4.36935e-05
0.000302726
-9.21767e-05
0.000367343
-0.000148969
0.000442509
-0.000215016
0.000529461
-0.000291302
0.000629519
-0.000378831
0.000744314
-0.00047853
0.000875876
-0.000588934
-0.00070974
0.00103016
-1.09226e-07
1.01868e-05
-3.49449e-07
2.90124e-05
-6.20704e-07
4.68867e-05
-8.03523e-07
6.35897e-05
-7.59769e-07
7.89094e-05
-3.31823e-07
9.26414e-05
6.57273e-07
0.00010459
2.40659e-06
0.000114561
5.13931e-06
0.000122361
9.10586e-06
0.000127793
1.45881e-05
0.000130649
2.19041e-05
0.000130704
3.14137e-05
0.000127713
4.35247e-05
0.000121394
5.87e-05
0.000111429
7.74649e-05
9.74518e-05
0.000100415
7.90369e-05
0.000128221
5.56947e-05
0.000161642
2.68626e-05
0.000201523
-8.10086e-06
0.000248801
-4.99191e-05
0.000304505
-9.93979e-05
0.000369748
-0.00015742
0.000445713
-0.000224933
0.000533629
-0.000302932
0.000634742
-0.000392416
0.000750273
-0.000494362
0.000881562
-0.000609819
0.00103028
-0.000737648
-0.000882483
0.00120302
-9.47917e-08
1.02816e-05
-2.72335e-07
2.91899e-05
-4.11981e-07
4.70263e-05
-3.72927e-07
6.35507e-05
5.42846e-09
7.8531e-05
9.03094e-07
9.17437e-05
2.52362e-06
0.000102969
5.09376e-06
0.00011199
8.86768e-06
0.000118587
1.4131e-05
0.000122529
2.12056e-05
0.000123574
3.04555e-05
0.000121455
4.22932e-05
0.000115875
5.71872e-05
0.0001065
7.56695e-05
9.2947e-05
9.83434e-05
7.47778e-05
0.000125892
5.14884e-05
0.000159084
2.25027e-05
0.00019878
-1.28338e-05
0.000245936
-5.52568e-05
0.0003016
-0.000105583
0.000366905
-0.000164703
0.000443056
-0.00023357
0.000531298
-0.000313175
0.000632882
-0.000404516
0.000749009
-0.000508543
0.00088075
-0.000626103
0.001029
-0.000758072
0.00119503
-0.000903672
-0.00107258
0.00138512
-8.18133e-08
1.03634e-05
-1.98128e-07
2.93062e-05
-2.0506e-07
4.70332e-05
6.21829e-08
6.32834e-05
7.88602e-07
7.78046e-05
2.18201e-06
9.03503e-05
4.47349e-06
0.000100678
7.9216e-06
0.000108542
1.28159e-05
0.000113692
1.94819e-05
0.000115863
2.8287e-05
0.000114769
3.96472e-05
0.000110094
5.40346e-05
0.000101487
7.19853e-05
8.85491e-05
9.41078e-05
7.08245e-05
0.000121091
4.77946e-05
0.000153712
1.88677e-05
0.00019284
-1.66255e-05
0.000239442
-5.94357e-05
0.000294578
-0.000110393
0.000359397
-0.000170401
0.000435115
-0.000240421
0.000522992
-0.000321447
0.000624288
-0.000414472
0.000740206
-0.000520434
0.000871816
-0.000640153
0.00101997
-0.000774253
0.00118496
-0.000923062
0.00136775
-0.00108647
-0.00127768
0.00157285
-6.92487e-08
1.04326e-05
-1.22796e-07
2.93598e-05
9.31693e-09
4.69011e-05
5.17516e-07
6.27753e-05
1.61555e-06
7.67066e-05
3.54032e-06
8.84256e-05
6.55529e-06
9.76627e-05
1.09545e-05
0.000104143
1.70673e-05
0.00010758
2.52643e-05
0.000107666
3.59642e-05
0.000104069
4.96414e-05
9.64172e-05
6.68341e-05
8.42947e-05
8.81532e-05
6.72299e-05
0.00011429
4.46874e-05
0.000146026
1.60594e-05
0.000184233
-1.93396e-05
0.000229883
-6.2276e-05
0.000284043
-0.000113596
0.000347866
-0.000174216
0.000422575
-0.00024511
0.000509434
-0.00032728
0.000609704
-0.000421718
0.000724587
-0.000529354
0.000855141
-0.000650988
0.00100219
-0.000787202
0.00116625
-0.000938315
0.0013469
-0.00110371
0.00154505
-0.00128462
-0.00149393
0.0017613
-5.58995e-08
1.04885e-05
-4.18403e-08
2.93457e-05
2.40293e-07
4.6619e-05
1.01096e-06
6.20046e-05
2.51374e-06
7.52038e-05
5.0185e-06
8.59208e-05
8.82469e-06
9.38565e-05
1.42661e-05
9.87016e-05
2.17168e-05
0.000100129
3.15979e-05
9.77852e-05
4.43853e-05
9.12816e-05
6.0618e-05
8.01845e-05
8.09071e-05
6.40056e-05
0.000105944
4.2193e-05
0.000136509
1.41229e-05
0.000173474
-2.09065e-05
0.000217812
-6.36776e-05
0.000270588
-0.000115052
0.000332954
-0.000175962
0.000406131
-0.000247393
0.000491378
-0.000330357
0.000589951
-0.000425853
0.000703039
-0.000534806
0.000831686
-0.000658002
0.000976695
-0.000795997
0.00113851
-0.000949015
0.00131716
-0.00111697
0.00151147
-0.00129802
0.00172251
-0.00149566
-0.00171585
0.00194443
-4.03527e-08
1.05289e-05
5.0135e-08
2.92552e-05
5.00528e-07
4.61686e-05
1.56286e-06
6.09422e-05
3.51452e-06
7.32521e-05
6.66158e-06
8.27738e-05
1.13432e-05
8.91749e-05
1.79376e-05
9.21073e-05
2.68683e-05
9.11983e-05
3.86125e-05
8.6041e-05
5.37092e-05
7.6185e-05
7.2768e-05
6.11256e-05
9.64783e-05
4.02954e-05
0.000125616
1.30548e-05
0.000161052
-2.13132e-05
0.000203752
-6.36065e-05
0.000254777
-0.000114702
0.00031527
-0.000175546
0.000386446
-0.000247137
0.000469552
-0.000330499
0.00056583
-0.000426635
0.00067645
-0.000536473
0.000802435
-0.000660791
0.000944564
-0.000800131
0.00110326
-0.00095469
0.00127845
-0.00112421
0.00146952
-0.00130804
0.00167464
-0.00150314
0.00189469
-0.0017157
-0.00193652
0.00211536
-2.10997e-08
1.055e-05
1.58793e-07
2.90753e-05
8.01988e-07
4.55254e-05
2.19486e-06
5.95494e-05
4.65147e-06
7.07955e-05
8.51765e-06
7.89076e-05
1.41764e-05
8.35161e-05
2.20546e-05
8.42291e-05
3.26307e-05
8.06222e-05
4.6443e-05
7.22287e-05
6.40992e-05
5.85288e-05
8.62845e-05
3.89403e-05
0.00011377
1.28097e-05
0.000147419
-2.05945e-05
0.00018819
-6.20842e-05
0.000237134
-0.00011255
0.000295385
-0.000172952
0.000364142
-0.000244303
0.000444638
-0.000327634
0.000538096
-0.000423956
0.000645661
-0.0005342
0.000768329
-0.000659141
0.000906847
-0.000799309
0.00106161
-0.000954891
0.00123254
-0.00112562
0.00141901
-0.00131068
0.00161964
-0.00150867
0.00183229
-0.00171579
0.00205578
-0.0019392
-0.00214757
0.00226684
3.43708e-09
1.05465e-05
2.90085e-07
2.87887e-05
1.15763e-06
4.46578e-05
2.92945e-06
5.77776e-05
5.95929e-06
6.77657e-05
1.06363e-05
7.42306e-05
1.73913e-05
7.67611e-05
2.67044e-05
7.49159e-05
3.91137e-05
6.82129e-05
5.52239e-05
5.61185e-05
7.57153e-05
3.80374e-05
0.000101352
1.33033e-05
0.000132989
-1.88274e-05
0.000171574
-5.91792e-05
0.000218145
-0.000108655
0.000273824
-0.000168228
0.000339793
-0.000238921
0.000417267
-0.000321777
0.000507447
-0.000417813
0.000611454
-0.000527963
0.000730252
-0.000652998
0.000864552
-0.000793441
0.00101471
-0.000949465
0.00118061
-0.0011208
0.00136161
-0.00130662
0.00155645
-0.00150552
0.00176317
-0.00171539
0.00197995
-0.00193257
0.00220139
-0.00216063
-0.00234055
0.00239436
3.48394e-08
1.05117e-05
4.49939e-07
2.83736e-05
1.58043e-06
4.35274e-05
3.78917e-06
5.55688e-05
7.4726e-06
6.40823e-05
1.30666e-05
6.86366e-05
2.10539e-05
6.87738e-05
3.19723e-05
6.39976e-05
4.64235e-05
5.37617e-05
6.50825e-05
3.74595e-05
8.87055e-05
1.44143e-05
0.000118137
-1.6128e-05
0.000154312
-5.50023e-05
0.000198255
-0.000103122
0.000251071
-0.000161472
0.000313927
-0.000231084
0.000388018
-0.000313012
0.000474523
-0.000408282
0.000574539
-0.00051783
0.000689004
-0.000642428
0.000818596
-0.00078259
0.000963632
-0.000938476
0.00112396
-0.00110979
0.00129887
-0.00129571
0.00148706
-0.00149481
0.00168664
-0.00170509
0.0018951
-0.00192386
0.00211091
-0.00214837
0.00232842
-0.00237814
-0.00258408
0.00257195
7.46544e-08
1.0437e-05
6.44152e-07
2.78041e-05
2.08296e-06
4.20885e-05
4.79581e-06
5.2856e-05
9.22473e-06
5.96533e-05
1.58558e-05
6.20055e-05
2.52271e-05
5.94025e-05
3.79378e-05
5.12869e-05
5.4657e-05
3.70424e-05
7.61324e-05
1.59841e-05
0.000103197
-1.26502e-05
0.000136772
-4.97033e-05
0.000177868
-9.60975e-05
0.000227571
-0.000152826
0.00028703
-0.000220931
0.000357423
-0.000301477
0.000439908
-0.000395498
0.000535564
-0.000503938
0.000645307
-0.000627573
0.000769793
-0.000766913
0.000909311
-0.000922108
0.00106368
-0.00109285
0.00123216
-0.00127827
0.00141338
-0.00147693
0.00160537
-0.0016868
0.00180562
-0.00190535
0.00201125
-0.00212949
0.0022198
-0.00235692
0.00242655
-0.00258489
-0.00280023
0.00264271
1.24326e-07
1.03127e-05
8.78144e-07
2.70503e-05
2.67695e-06
4.02897e-05
5.96963e-06
4.95633e-05
1.12464e-05
5.43765e-05
1.90467e-05
5.42053e-05
2.99671e-05
4.84821e-05
4.46712e-05
3.65828e-05
6.38976e-05
1.7816e-05
8.84673e-05
-8.58557e-06
0.000119287
-4.34703e-05
0.000157351
-8.77666e-05
0.000203728
-0.000142474
0.000259548
-0.000208646
0.000325972
-0.000287355
0.000404142
-0.000379647
0.000495121
-0.000486477
0.000599812
-0.000608629
0.00071886
-0.000746621
0.000852544
-0.000900598
0.00100067
-0.00107024
0.00116249
-0.00125466
0.00133661
-0.00145239
0.00152103
-0.00166135
0.00171316
-0.00187893
0.00191002
-0.0021022
0.00210843
-0.00232791
0.00230534
-0.00255383
0.00249709
-0.00277664
-0.00299046
0.00268732
1.85161e-07
1.01276e-05
1.1568e-06
2.60786e-05
3.37297e-06
3.80736e-05
7.32869e-06
4.56076e-05
1.35649e-05
4.81403e-05
2.26767e-05
4.50936e-05
3.53219e-05
3.58368e-05
5.22303e-05
1.96744e-05
7.42103e-05
-4.16401e-06
0.000102154
-3.65294e-05
0.000137038
-7.83537e-05
0.000179913
-0.000130642
0.000231892
-0.000194453
0.000294118
-0.000270872
0.00036772
-0.000360957
0.000453752
-0.000465679
0.000553112
-0.000585837
0.000666444
-0.000721962
0.000794036
-0.000874213
0.000935704
-0.00104227
0.0010907
-0.00122524
0.00125766
-0.00142162
0.00143458
-0.00162931
0.00161887
-0.00184564
0.00180752
-0.00206757
0.00199726
-0.00229194
0.00218491
-0.00251555
0.00236744
-0.00273636
0.00254194
-0.00295114
-0.0031587
0.00271018
2.58291e-07
9.86927e-06
1.48435e-06
2.48526e-05
4.18007e-06
3.53778e-05
8.88833e-06
4.08993e-05
1.62028e-05
4.08259e-05
2.67761e-05
3.45202e-05
4.1329e-05
2.12839e-05
6.06575e-05
3.45956e-07
8.56382e-05
-2.91447e-05
0.000117229
-6.81205e-05
0.000156464
-0.000117589
0.000204438
-0.000178616
0.000262278
-0.000252294
0.000331103
-0.000339697
0.000411962
-0.000441815
0.000505754
-0.000559471
0.000613138
-0.00069322
0.00073442
-0.000843244
0.000869447
-0.00100924
0.00101751
-0.00119033
0.00117728
-0.001385
0.00134678
-0.00159113
0.00152347
-0.001806
0.00170435
-0.00202652
0.00188618
-0.0022494
0.00206572
-0.00247148
0.00224004
-0.00268988
0.00240661
-0.00290293
0.00256347
-0.003108
-0.00330686
0.00271162
3.4466e-07
9.52461e-06
1.86427e-06
2.33329e-05
5.10561e-06
3.21365e-05
1.06608e-05
3.53441e-05
1.91774e-05
3.23092e-05
3.13673e-05
2.23303e-05
4.80137e-05
4.63749e-06
6.99775e-05
-2.16178e-05
9.81988e-05
-5.7366e-05
0.000133693
-0.000103614
0.000177536
-0.000161432
0.000230842
-0.000231922
0.00029472
-0.000316172
0.000370219
-0.000415195
0.000458247
-0.000529844
0.000559485
-0.000660709
0.000674275
-0.00080801
0.000802508
-0.000971478
0.000943534
-0.00115026
0.00109608
-0.00134288
0.00125825
-0.00154717
0.00142755
-0.00176042
0.00160103
-0.00197948
0.00177548
-0.00220097
0.00194769
-0.00242162
0.00211473
-0.00263852
0.00227421
-0.00284935
0.00242431
-0.00305303
0.00256409
-0.00324778
-0.00343726
0.00269449
4.45012e-07
9.07959e-06
2.29928e-06
2.14787e-05
6.15513e-06
2.82807e-05
1.26548e-05
2.88445e-05
2.25008e-05
2.24632e-05
3.64636e-05
8.36749e-06
5.53879e-05
-1.42868e-05
8.01956e-05
-4.64254e-05
0.000111882
-8.90528e-05
0.000151507
-0.000143239
0.000200169
-0.000210094
0.00025897
-0.000290723
0.00032896
-0.000386162
0.000411066
-0.0004973
0.000505995
-0.000624773
0.000614136
-0.000768851
0.000735446
-0.000929319
0.000869346
-0.00110538
0.00101465
-0.00129557
0.00116955
-0.00149777
0.00133162
-0.00170925
0.001498
-0.0019268
0.00166551
-0.00214699
0.00183098
-0.00236644
0.00199148
-0.00258212
0.0021446
-0.00279165
0.00228866
-0.00299341
0.00242268
-0.00318705
0.00254664
-0.00337173
-0.00355223
0.00266161
5.59903e-07
8.51969e-06
2.79128e-06
1.92473e-05
7.33234e-06
2.37396e-05
1.48757e-05
2.13011e-05
2.61786e-05
1.11604e-05
4.2069e-05
-7.52289e-06
6.34496e-05
-3.56674e-05
9.12964e-05
-7.42723e-05
0.00012665
-0.000124406
0.000170594
-0.000187184
0.000224225
-0.000263725
0.000288597
-0.000355094
0.000364653
-0.000462219
0.000453141
-0.000585788
0.000554505
-0.000726137
0.000668775
-0.000883121
0.000795468
-0.00105601
0.000933502
-0.00124341
0.00108117
-0.00144324
0.00123615
-0.00165276
0.00139566
-0.00186875
0.00155658
-0.00208772
0.00171578
-0.00230618
0.00187032
-0.00252098
0.00201777
-0.00272958
0.00215641
-0.00293028
0.0022853
-0.0031223
0.00240428
-0.00330604
0.00251408
-0.00348153
-0.0036541
0.00261595
6.8971e-07
7.82998e-06
3.34143e-06
1.65956e-05
8.6391e-06
1.84419e-05
1.73253e-05
1.26148e-05
3.02106e-05
-1.72493e-06
4.81778e-05
-2.549e-05
7.21818e-05
-5.96715e-05
0.000103243
-0.000105334
0.000142432
-0.000163595
0.000190835
-0.000235587
0.000249512
-0.000322402
0.000319428
-0.000425011
0.000401372
-0.000544162
0.000495849
-0.000680266
0.00060298
-0.000833267
0.000722385
-0.00100253
0.000853105
-0.00118673
0.000993554
-0.00138386
0.00114154
-0.00159122
0.00129436
-0.00180558
0.00144899
-0.00202338
0.0016023
-0.00224103
0.00175136
-0.00245525
0.0018937
-0.00266332
0.00202752
-0.00286339
0.00215181
-0.00305457
0.0022664
-0.00323689
0.00237181
-0.00341145
0.00246928
-0.003579
-0.00374502
0.00256019
8.34651e-07
6.99533e-06
3.95017e-06
1.34801e-05
1.00755e-05
1.23166e-05
2.00018e-05
2.6885e-06
3.45906e-05
-1.63137e-05
5.47744e-05
-4.56739e-05
8.15528e-05
-8.64499e-05
0.000115978
-0.000139759
0.000159129
-0.000206746
0.000212069
-0.000288527
0.000275785
-0.000386118
0.000351108
-0.000500333
0.000438613
-0.000631667
0.000538515
-0.000780168
0.000650554
-0.000945306
0.000773905
-0.00112588
0.000907128
-0.00131995
0.00104817
-0.0015249
0.00119444
-0.00173749
0.00134298