/*--------------------------------*- C++ -*----------------------------------*\
  =========                 |
  \\      /  F ield         | OpenFOAM: The Open Source CFD Toolbox
   \\    /   O peration     | Website:  https://openfoam.org
    \\  /    A nd           | Version:  7
     \\/     M anipulation  |
\*---------------------------------------------------------------------------*/
FoamFile
{
    version     2.0;
    format      ascii;
    class       volVectorField;
    location    "44";
    object      U;
}
// * * * * * * * * * * * * * * * * * * * * * * * * * * * * * * * * * * * * * //

dimensions      [0 1 -1 0 0 0 0];

internalField   nonuniform List<vector> 
40000
(
(-0.000176647 0.000271092 -1.87166e-21)
(-0.00111034 0.000733937 5.7979e-21)
(-0.00310852 0.0011278 -3.70049e-21)
(-0.00592829 0.00145951 -3.93185e-24)
(-0.00943581 0.00173417 -8.8322e-25)
(-0.0135408 0.0019563 2.87786e-24)
(-0.0181498 0.00213041 -6.15132e-21)
(-0.0231716 0.00226086 1.46266e-21)
(-0.0285215 0.00235186 -4.17576e-21)
(-0.034121 0.0024074 -1.32132e-21)
(-0.0398976 0.00243128 0)
(-0.0457846 0.00242706 -4.75937e-21)
(-0.0517218 0.00239805 0)
(-0.0576549 0.00234735 0)
(-0.0635354 0.0022778 -4.03503e-21)
(-0.0693205 0.00219209 3.81263e-21)
(-0.074973 0.00209273 -1.8004e-21)
(-0.080461 0.00198218 -1.51838e-24)
(-0.0857583 0.0018629 1.59969e-21)
(-0.0908443 0.00173744 0)
(-0.0957044 0.00160857 -1.41934e-21)
(-0.100331 0.00147937 -4.00477e-21)
(-0.104724 0.00135323 5.01807e-21)
(-0.108892 0.00123392 -2.35663e-21)
(-0.112853 0.00112546 6.63524e-21)
(-0.116637 0.0010319 4.1495e-21)
(-0.120281 0.000956921 -7.77973e-21)
(-0.123833 0.000903014 7.28878e-21)
(-0.12734 0.000871525 -1.70613e-21)
(-0.130872 0.000865824 -3.19888e-21)
(-0.000205301 0.0008484 0)
(-0.00118435 0.0023029 3.86857e-21)
(-0.00321434 0.00354764 7.4135e-21)
(-0.00605476 0.00460272 -7.07501e-21)
(-0.0095732 0.00548316 -3.39029e-21)
(-0.0136804 0.00620226 1.29093e-20)
(-0.0182838 0.00677342 -3.08162e-21)
(-0.023293 0.00720978 -5.86762e-21)
(-0.0286243 0.00752406 -8.44245e-24)
(-0.0341995 0.00772852 -1.5878e-20)
(-0.0399468 0.00783488 5.01744e-21)
(-0.0458 0.00785431 1.9045e-20)
(-0.0516993 0.00779729 -9.01781e-21)
(-0.0575906 0.00767368 -4.63903e-24)
(-0.0634256 0.00749266 -4.0425e-21)
(-0.0691616 0.0072628 -1.50817e-24)
(-0.0747614 0.0069922 0)
(-0.0801931 0.00668864 0)
(-0.0854301 0.00635979 1.28091e-20)
(-0.0904514 0.00601357 0)
(-0.0952419 0.00565837 5.67853e-21)
(-0.0997934 0.00530336 -5.33969e-21)
(-0.104105 0.0049587 -6.72577e-25)
(-0.108184 0.00463557 0)
(-0.11205 0.00434586 8.8501e-21)
(-0.115729 0.00410163 -8.29905e-21)
(-0.119261 0.00391382 7.77972e-21)
(-0.122693 0.00378983 -7.28877e-21)
(-0.126072 0.00373359 6.82479e-21)
(-0.129469 0.00375475 -1.91949e-20)
(-0.000262604 0.00141791 -7.50161e-21)
(-0.00133235 0.00385152 -7.73231e-21)
(-0.00342586 0.00593735 0)
(-0.00630741 0.00770828 0)
(-0.00984744 0.00918885 0)
(-0.0139587 0.0104009 6.47028e-21)
(-0.0185504 0.0113665 0)
(-0.0235341 0.0121072 5.85908e-21)
(-0.0288273 0.0126441 1.11425e-20)
(-0.0343533 0.0129975 1.05843e-20)
(-0.0400412 0.013187 0)
(-0.0458259 0.0132312 6.93581e-24)
(-0.0516483 0.0131476 -1.80539e-20)
(-0.0574549 0.0129527 1.70864e-20)
(-0.0631978 0.0126619 8.07328e-21)
(-0.0688345 0.0122896 7.63378e-21)
(-0.0743279 0.0118493 -7.2002e-21)
(-0.0796456 0.011354 1.35965e-20)
(-0.0847606 0.0108164 -2.56256e-20)
(-0.0896512 0.0102497 -2.20942e-25)
(-0.0943013 0.00966774 -2.27175e-20)
(-0.098701 0.00908566 2.13731e-20)
(-0.102848 0.00852038 0)
(-0.106749 0.00799057 0)
(-0.11042 0.0075163 8.85635e-21)
(-0.113888 0.00711816 0)
(-0.117194 0.00681505 0)
(-0.120386 0.00662015 0)
(-0.123504 0.00654107 -1.36536e-20)
(-0.126627 0.00659422 1.27961e-20)
(-0.000347668 0.00197447 7.50161e-21)
(-0.00155217 0.00536633 8.02712e-24)
(-0.0037401 0.00827691 3.70002e-23)
(-0.00668281 0.0107511 -1.41741e-20)
(-0.0102549 0.0128224 -1.35447e-20)
(-0.014372 0.0145206 1.70006e-23)
(-0.0189462 0.015876 -2.46523e-20)
(-0.0238915 0.0169183 1.17412e-20)
(-0.0291275 0.0176767 -2.23274e-20)
(-0.0345795 0.0181792 2.12076e-20)
(-0.0401782 0.0184528 -1.00619e-20)
(-0.04586 0.0185235 1.90775e-20)
(-0.0515666 0.0184156 1.80538e-20)
(-0.0572457 0.0181521 1.62042e-23)
(-0.0628498 0.0177544 -1.61721e-20)
(-0.0683368 0.0172425 0)
(-0.0736695 0.0166351 8.74461e-25)
(-0.0788154 0.0159502 1.36055e-20)
(-0.0837466 0.0152055 8.24219e-25)
(-0.0884401 0.0144188 -7.65111e-24)
(-0.0928784 0.0136094 2.27248e-20)
(-0.0970497 0.0127983 -2.1373e-20)
(-0.100949 0.012009 0)
(-0.104582 0.0112677 1.88765e-20)
(-0.10796 0.0106033 4.02597e-24)
(-0.11111 0.0100457 -4.98337e-20)
(-0.114074 0.00962286 1.55698e-20)
(-0.116901 0.00935544 2.91749e-20)
(-0.119626 0.00925663 1.36535e-20)
(-0.122334 0.00935066 1.28019e-20)
(-0.000459187 0.00251315 3.01209e-20)
(-0.00184056 0.00683441 -1.55206e-20)
(-0.00415264 0.0105471 1.48425e-20)
(-0.00717587 0.0137071 1.42044e-20)
(-0.0107902 0.0163558 0)
(-0.0149151 0.0185306 -2.59301e-20)
(-0.0194662 0.0202694 -1.23723e-20)
(-0.0243605 0.0216094 -2.35013e-20)
(-0.0295206 0.0225874 1.11641e-20)
(-0.0348742 0.0232388 2.87884e-23)
(-0.0403541 0.0235978 2.01508e-20)
(-0.0458985 0.0236973 1.9124e-20)
(-0.0514507 0.0235683 -3.61622e-20)
(-0.0569593 0.0232398 1.71232e-20)
(-0.0623778 0.0227391 -1.87771e-23)
(-0.0676645 0.0220915 0)
(-0.0727821 0.0213207 -1.44252e-20)
(-0.0776977 0.0204494 -2.72442e-20)
(-0.0823826 0.0194997 3.85163e-20)
(-0.0868123 0.0184941 1.21037e-20)
(-0.090967 0.0174567 0)
(-0.0948325 0.016414 -2.14063e-20)
(-0.098401 0.0153961 0)
(-0.101673 0.0144369 -5.665e-20)
(-0.10466 0.0135744 3.54397e-20)
(-0.107384 0.012849 -5.0446e-24)
(-0.109888 0.0122999 3.11596e-20)
(-0.112225 0.0119571 -4.37616e-20)
(-0.114421 0.0118427 2.73249e-20)
(-0.116569 0.0119907 1.2802e-20)
(-0.000595468 0.00302938 -1.50806e-20)
(-0.00219334 0.00824371 1.552e-20)
(-0.00465774 0.0127299 -1.57321e-24)
(-0.00778001 0.0165533 -4.27394e-20)
(-0.0114465 0.0197625 0)
(-0.0155811 0.0224016 2.593e-20)
(-0.0201035 0.0245152 -2.47889e-20)
(-0.0249347 0.0261476 4.70351e-20)
(-0.0300006 0.0273425 0)
(-0.0352318 0.0281423 -2.12363e-20)
(-0.0405638 0.0285881 -2.01508e-20)
(-0.0459367 0.028719 -1.91031e-20)
(-0.0512958 0.0285725 -5.43557e-20)
(-0.0565909 0.0281835 2.62733e-24)
(-0.0617767 0.0275848 -1.75781e-23)
(-0.066812 0.0268065 -1.36389e-23)
(-0.0716594 0.0258772 4.33623e-20)
(-0.0762857 0.0248237 -3.40904e-23)
(-0.080661 0.0236722 3.09118e-23)
(-0.0847591 0.0224494 -2.41771e-20)
(-0.0885576 0.0211837 -1.95031e-23)
(-0.092039 0.0199068 4.28253e-20)
(-0.0951916 0.0186548 -6.03935e-20)
(-0.0980117 0.0174695 1.88903e-20)
(-0.100506 0.0163986 0)
(-0.102694 0.0154944 0)
(-0.104618 0.0148094 -3.11594e-20)
(-0.106337 0.0143867 2.91984e-20)
(-0.107862 0.0142613 -2.73197e-20)
(-0.1093 0.0144812 0)
(-0.000754483 0.00351898 -1.51315e-20)
(-0.00260549 0.00958315 0)
(-0.00524851 0.0148086 1.49081e-20)
(-0.00848725 0.0192685 8.56629e-20)
(-0.0122153 0.0230177 -2.72364e-20)
(-0.0163613 0.0261058 0)
(-0.0208499 0.0285834 -5.1562e-23)
(-0.0256063 0.0305014 2.3593e-20)
(-0.0305602 0.0319096 -2.24029e-20)
(-0.0356455 0.0328567 0)
(-0.0408006 0.0333902 0)
(-0.0459682 0.0335555 -3.83317e-20)
(-0.0510955 0.0333957 5.43839e-20)
(-0.0561341 0.0329514 -1.71524e-20)
(-0.0610396 0.0322603 0)
(-0.0657716 0.0313575 3.06691e-20)
(-0.070293 0.0302756 -2.88962e-20)
(-0.0745698 0.0290452 2.72975e-20)
(-0.0785709 0.0276963 -5.14279e-20)
(-0.0822682 0.0262591 -7.27048e-20)
(-0.0856363 0.0247656 2.2787e-20)
(-0.0886538 0.0232519 2.14419e-20)
(-0.0913042 0.0217599 2.01268e-20)
(-0.0935786 0.0203391 0)
(-0.0954776 0.0190472 -3.55116e-20)
(-0.0970169 0.0179499 0)
(-0.098238 0.0171161 0)
(-0.0992042 0.0166061 -5.84096e-20)
(-0.0999141 0.0164743 -1.06425e-23)
(-0.100479 0.016789 -7.68258e-20)
(-0.00093392 0.00397828 1.51315e-20)
(-0.00307127 0.0108429 3.12996e-20)
(-0.00591704 0.0167682 2.99703e-20)
(-0.00928846 0.0218335 -2.85798e-20)
(-0.0130868 0.0260984 0)
(-0.0172461 0.0296174 0)
(-0.0216959 0.0324462 2.48036e-20)
(-0.0263662 0.034641 -2.36427e-20)
(-0.0311907 0.0362575 -3.87168e-23)
(-0.0361071 0.0373501 4.27116e-20)
(-0.0410568 0.037972 0)
(-0.0459852 0.0381742 3.83315e-20)
(-0.050842 0.0380055 0)
(-0.0555805 0.0375114 0)
(-0.0601576 0.0367346 1.74559e-23)
(-0.0645336 0.0357142 3.0694e-20)
(-0.0686715 0.0344868 -2.89945e-20)
(-0.072537 0.0330864 5.46881e-20)
(-0.0760975 0.0315458 -2.57705e-20)
(-0.0793226 0.0298981 7.27466e-20)
(-0.0821838 0.0281785 0)
(-0.0846552 0.0264265 0)
(-0.0867149 0.0246888 4.03626e-20)
(-0.0883472 0.0230221 0)
(-0.0895459 0.0214946 3.54861e-20)
(-0.0903201 0.0201867 -3.3314e-20)
(-0.0907094 0.0191868 3.11942e-20)
(-0.0907836 0.0185783 -2.9221e-20)
(-0.0905248 0.0184432 5.46841e-20)
(-0.0900379 0.0188802 7.68577e-20)
(-0.00113125 0.00440417 0)
(-0.00358437 0.0120144 -3.12996e-20)
(-0.00665464 0.0185954 9.04138e-23)
(-0.0101735 0.0242309 0)
(-0.0140504 0.0289841 -5.48578e-20)
(-0.0182245 0.0329129 -3.51988e-23)
(-0.0226308 0.0360774 2.48764e-20)
(-0.027204 0.0385385 0)
(-0.0318822 0.0403567 2.24887e-20)
(-0.0366068 0.0415917 -4.27115e-20)
(-0.0413227 0.0423018 0)
(-0.0459783 0.0425433 0)
(-0.0505255 0.0423699 -3.6422e-20)
(-0.0549197 0.041832 3.44332e-20)
(-0.0591191 0.0409764 -3.25353e-20)
(-0.0630849 0.0398463 0)
(-0.0667803 0.0384816 -2.90797e-20)
(-0.0701702 0.0369192 -8.21243e-20)
(-0.0732209 0.0351944 -1.27738e-23)
(-0.0758995 0.0333421 -9.16569e-24)
(-0.078174 0.0313997 2.28595e-20)
(-0.0800135 0.0294093 4.29902e-20)
(-0.0813899 0.0274215 -8.07499e-20)
(-0.0822799 0.0254989 3.79349e-20)
(-0.0826688 0.0237198 -6.74882e-24)
(-0.0825568 0.0221806 2.27984e-23)
(-0.0819796 0.0209925 2.48877e-23)
(-0.0810146 0.0202691 2.92431e-20)
(-0.0796264 0.0201298 0)
(-0.077885 0.0207188 0)
(-0.00134379 0.00479414 3.05504e-20)
(-0.00413808 0.0130908 9.93166e-23)
(-0.00745201 0.0202794 9.84484e-23)
(-0.0111316 0.0264462 -5.76306e-20)
(-0.0150942 0.0316566 5.48975e-20)
(-0.0192845 0.0359713 0)
(-0.0236425 0.0394535 0)
(-0.0281079 0.042168 4.75177e-20)
(-0.0326231 0.0441796 -4.51206e-20)
(-0.0371335 0.0455524 3.8676e-23)
(-0.0415874 0.0463494 8.13516e-20)
(-0.0459361 0.0466318 3.85473e-20)
(-0.0501341 0.0464575 -7.29719e-20)
(-0.0541388 0.0458815 3.45063e-20)
(-0.0579098 0.0449545 3.26415e-20)
(-0.0614092 0.0437233 -3.08105e-20)
(-0.0646003 0.0422306 5.81227e-20)
(-0.0674475 0.0405158 8.23524e-20)
(-0.0699155 0.0386157 5.17547e-20)
(-0.0719689 0.036567 2.43481e-20)
(-0.0735719 0.0344077 -4.5791e-20)
(-0.0746885 0.0321815 0)
(-0.0752835 0.0299411 3.47694e-23)
(-0.0753252 0.0277539 3.80096e-20)
(-0.0747886 0.0257073 3.55839e-20)
(-0.0736627 0.0239136 -6.67778e-20)
(-0.0719757 0.0225104 -3.12577e-20)
(-0.0698153 0.021649 5.8493e-20)
(-0.0671307 0.0214975 0)
(-0.0638931 0.0222626 -5.11695e-20)
(-0.0015688 0.00514631 3.06247e-20)
(-0.00472548 0.0140665 -6.30971e-20)
(-0.00829952 0.0218112 2.20061e-23)
(-0.0121513 0.0284671 -9.72433e-23)
(-0.016206 0.0341007 0)
(-0.0204132 0.0387742 0)
(-0.0247182 0.0425535 0)
(-0.0290651 0.0455062 -4.76486e-20)
(-0.0334008 0.0477005 4.52449e-20)
(-0.0376745 0.0492048 -4.29181e-20)
(-0.0418378 0.050086 -8.14836e-20)
(-0.0458451 0.0504095 -2.59128e-23)
(-0.0496534 0.0502375 7.31736e-20)
(-0.0532219 0.0496288 3.46359e-20)
(-0.056512 0.0486378 0)
(-0.0594861 0.0473144 -6.18337e-20)
(-0.0621079 0.0457039 8.75018e-20)
(-0.0643409 0.0438475 -8.23903e-20)
(-0.0661482 0.0417835 -5.17845e-20)
(-0.0674919 0.0395488 -1.46316e-19)
(-0.068332 0.0371817 -1.81991e-24)
(-0.0686272 0.0347256 6.64477e-24)
(-0.0683349 0.0322341 3.32533e-23)
(-0.0674136 0.029777 -7.59685e-20)
(-0.0658271 0.0274487 1.06955e-19)
(-0.0635503 0.0253769 -5.43953e-23)
(-0.0605993 0.0237276 0)
(-0.0570753 0.0226978 -5.8492e-20)
(-0.0529299 0.0225142 5.46898e-20)
(-0.0478953 0.0234666 5.14049e-20)
(-0.00180353 0.0054595 0)
(-0.0053396 0.0149379 -3.17079e-20)
(-0.00918735 0.0231842 3.02928e-20)
(-0.013221 0.0302842 5.79188e-20)
(-0.0173729 0.0363039 2.77044e-20)
(-0.0215974 0.0413064 -5.27076e-20)
(-0.025844 0.0453591 -6.20938e-23)
(-0.0300616 0.048532 -4.77512e-20)
(-0.034201 0.0508963 0)
(-0.038215 0.0525235 4.31543e-20)
(-0.0420586 0.0534843 0)
(-0.0456891 0.0538478 0)
(-0.0490658 0.05368 -7.33206e-20)
(-0.0521497 0.0530432 -6.93204e-20)
(-0.0549034 0.0519952 9.83855e-20)
(-0.05729 0.0505887 6.18331e-20)
(-0.059273 0.0488712 7.0182e-23)
(-0.0608151 0.0468855 -5.50613e-20)
(-0.0618775 0.0446707 1.03727e-19)
(-0.0624192 0.0422635 4.33796e-24)
(-0.0623964 0.0397013 9.19266e-20)
(-0.0617616 0.0370261 0)
(-0.0604647 0.03429 0)
(-0.058454 0.031563 7.6146e-20)
(-0.0556804 0.0289436 -1.06955e-19)
(-0.0521026 0.0265724 1.00236e-19)
(-0.0477184 0.0246444 -6.2563e-20)
(-0.0426452 0.023406 5.85175e-20)
(-0.0368881 0.0231575 -1.09375e-19)
(-0.0297048 0.0243554 5.14554e-20)
(-0.00204531 0.00573317 -3.09433e-20)
(-0.0059736 0.0157028 0)
(-0.0101058 0.0243942 0)
(-0.014329 0.0318906 -5.82758e-20)
(-0.018582 0.0382566 1.1115e-19)
(-0.0228228 0.0435554 -5.28902e-20)
(-0.0270053 0.0478551 -9.89334e-23)
(-0.0310821 0.0512275 4.79041e-20)
(-0.0350078 0.053746 0)
(-0.0387386 0.0554851 7.24347e-23)
(-0.0422324 0.0565187 1.92428e-23)
(-0.0454491 0.0569192 -7.76504e-20)
(-0.0483502 0.056756 -1.49637e-22)
(-0.0508983 0.0560947 -3.4766e-20)
(-0.0530569 0.054996 -9.8552e-20)
(-0.0547894 0.0535153 6.2044e-20)
(-0.0560588 0.0517021 -5.85197e-20)
(-0.0568264 0.0496006 1.10421e-19)
(-0.0570513 0.04725 -1.04007e-19)
(-0.0566893 0.0446867 -9.78598e-20)
(-0.0556919 0.0419464 3.17192e-23)
(-0.0540058 0.0390682 -4.32541e-20)
(-0.0515723 0.036101 4.05914e-20)
(-0.0483293 0.0331121 5.46019e-23)
(-0.044214 0.0302 -1.07178e-19)
(-0.0391669 0.0275142 -6.69003e-20)
(-0.0331619 0.0252758 1.25148e-19)
(-0.0263217 0.0237746 -1.17034e-19)
(-0.0187624 0.0234075 5.46848e-20)
(-0.00920946 0.0251555 7.88214e-23)
(-0.00229164 0.00596747 9.29929e-20)
(-0.00662093 0.0163607 -3.1909e-20)
(-0.0110454 0.0254394 -6.11462e-20)
(-0.0154638 0.0332823 1.75134e-19)
(-0.01982 0.0399524 2.09541e-22)
(-0.0240752 0.0455118 0)
(-0.0281865 0.0500291 0)
(-0.0321101 0.0535772 4.80884e-20)
(-0.0358036 0.0562316 -4.55972e-20)
(-0.0392262 0.0580689 4.3337e-20)
(-0.0423384 0.059166 -4.11042e-20)
(-0.0451024 0.0595982 -7.79827e-20)
(-0.0474813 0.0594381 1.47291e-19)
(-0.0494389 0.0587543 -3.48393e-20)
(-0.0509393 0.0576103 6.57028e-20)
(-0.0519456 0.0560638 -1.2434e-19)
(-0.0524197 0.0541663 -1.12183e-23)
(-0.0523212 0.051963 5.01272e-23)
(-0.0516062 0.0494937 1.04107e-19)
(-0.0502266 0.0467936 -4.40859e-23)
(-0.0481289 0.0438964 0)
(-0.0452532 0.0408377 0)
(-0.0415323 0.0376612 -4.0736e-20)
(-0.0368932 0.0344285 -1.52511e-19)
(-0.0312584 0.031234 1.07215e-19)
(-0.0245496 0.0282296 -4.43682e-23)
(-0.0167182 0.0256549 -1.25188e-19)
(-0.0078721 0.0238409 1.1695e-19)
(0.00191579 0.023337 -5.47238e-20)
(0.0138367 0.0256573 5.09269e-20)
(-0.00254022 0.00616315 0)
(-0.00727548 0.0169128 0)
(-0.0119973 0.0263199 6.14971e-20)
(-0.016614 0.0344581 -1.17147e-19)
(-0.0210737 0.0413875 8.38463e-23)
(-0.0253396 0.0471693 -5.3313e-20)
(-0.0293713 0.0518719 1.52294e-19)
(-0.0331276 0.0555691 -1.44803e-19)
(-0.0365687 0.0583377 -4.02721e-24)
(-0.039656 0.0602567 -4.34739e-20)
(-0.0423525 0.0614052 -1.23781e-19)
(-0.0446217 0.0618615 1.17006e-19)
(-0.0464282 0.061701 0)
(-0.0477363 0.0609949 0)
(-0.0485099 0.0598095 6.59254e-20)
(-0.0487111 0.0582048 1.24686e-19)
(-0.0483002 0.056234 -5.87707e-20)
(-0.0472338 0.0539437 0)
(-0.0454644 0.0513738 -5.21693e-20)
(-0.042939 0.0485591 1.19054e-23)
(-0.0395982 0.0455307 -4.62296e-20)
(-0.0353746 0.0423203 0)
(-0.0301923 0.0389655 -4.07949e-20)
(-0.0239666 0.0355197 3.82063e-20)
(-0.0166055 0.0320683 -7.14737e-20)
(-0.00801049 0.0287586 2.00855e-19)
(0.00188925 0.0258382 -9.07693e-23)
(0.0129991 0.0236777 5.84891e-20)
(0.0253514 0.0229938 0)
(0.040142 0.0256886 -5.13219e-20)
(-0.00278903 0.00632156 -6.26353e-20)
(-0.00793169 0.0173616 6.4391e-20)
(-0.0129529 0.0270381 1.557e-22)
(-0.0177687 0.035419 -5.88376e-20)
(-0.02233 0.0425613 0)
(-0.0266007 0.0485247 -1.0712e-19)
(-0.030542 0.0533775 8.34542e-23)
(-0.0341146 0.0571939 4.82413e-20)
(-0.0372805 0.0600522 3.60522e-24)
(-0.0400029 0.0620332 -2.24071e-24)
(-0.042246 0.0632185 1.23899e-19)
(-0.0439747 0.0636886 3.91489e-20)
(-0.0451538 0.0635216 3.71396e-20)
(-0.0457476 0.0627915 -7.00349e-20)
(-0.0457189 0.0615671 6.61572e-20)
(-0.0450282 0.0599104 -6.2375e-20)
(-0.0436325 0.0578769 5.88897e-20)
(-0.0414846 0.0555144 -5.55043e-20)
(-0.038532 0.0528635 0)
(-0.0347156 0.0499584 -4.92647e-20)
(-0.0299687 0.0468287 9.23773e-20)
(-0.0242155 0.0435019 4.34727e-20)
(-0.0173702 0.0400093 -4.08315e-20)
(-0.00933619 0.0363945 1.52916e-19)
(-6.87009e-06 0.0327304 -3.58355e-20)
(0.0107363 0.029151 6.70099e-20)
(0.0229894 0.0258992 -6.25172e-20)
(0.0366702 0.0233727 8.8034e-23)
(0.0518834 0.0224459 0)
(0.0701101 0.0254706 -1.01293e-19)
(-0.00303637 0.00644454 -1.13959e-22)
(-0.00858465 0.0177109 -6.46912e-20)
(-0.0139044 0.0275983 0)
(-0.0189175 0.0361685 -5.9241e-20)
(-0.0235755 0.0434756 5.63905e-20)
(-0.0278424 0.0495777 -9.57957e-23)
(-0.0316797 0.0545428 0)
(-0.035049 0.0584458 -8.56926e-23)
(-0.0379135 0.0613663 -4.60476e-20)
(-0.0402372 0.0633868 4.37587e-20)
(-0.041985 0.064591 0)
(-0.0431221 0.065062 -7.85129e-20)
(-0.0436129 0.0648803 7.44833e-20)
(-0.0434207 0.0641224 0)
(-0.042506 0.0628595 0)
(-0.0408262 0.0611562 0)
(-0.0383342 0.0590698 0)
(-0.0349773 0.0566499 5.55928e-20)
(-0.0306962 0.0539382 -5.23603e-20)
(-0.0254241 0.0509692 1.47669e-19)
(-0.0190852 0.0477713 -9.25955e-20)
(-0.0115937 0.0443693 -8.68775e-20)
(-0.00285258 0.0407885 1.22403e-19)
(0.00724707 0.0370629 6.39704e-23)
(0.0188262 0.0332502 -7.16714e-20)
(0.0320219 0.0294643 -6.70081e-20)
(0.0469579 0.0259288 -6.26109e-20)
(0.0635628 0.023042 1.1685e-19)
(0.081966 0.0217968 -1.08828e-19)
(0.10422 0.0251749 2.02238e-19)
(-0.00328089 0.00653437 1.26392e-19)
(-0.00923012 0.0179656 -1.31994e-22)
(-0.0148449 0.0280063 -1.24479e-19)
(-0.0200501 0.0367123 1.18744e-19)
(-0.0247969 0.0441346 -5.67399e-20)
(-0.0290478 0.0503305 -5.39288e-20)
(-0.0327636 0.0553679 5.13074e-20)
(-0.0359061 0.0593222 4.87537e-20)
(-0.0384383 0.0622745 -9.26639e-20)
(-0.0403244 0.0643092 -1.31833e-19)
(-0.0415292 0.0655121 -4.15692e-20)
(-0.0420171 0.0659686 1.57488e-19)
(-0.0417511 0.0657616 -2.23328e-19)
(-0.0406921 0.0649702 7.03942e-20)
(-0.0387974 0.063668 0)
(-0.0360196 0.0619221 0)
(-0.0323057 0.059792 0)
(-0.0275958 0.0573295 1.11423e-19)
(-0.0218219 0.0545781 -5.2445e-20)
(-0.0149072 0.0515733 -4.93998e-20)
(-0.0067647 0.0483438 -9.27091e-20)
(0.00270337 0.0449129 8.70617e-20)
(0.0136068 0.041302 -4.08721e-20)
(0.0260678 0.0375366 -7.66454e-20)
(0.0402209 0.0336594 -1.02451e-22)
(0.0562189 0.02976 -1.33953e-19)
(0.0742125 0.0260297 1.87806e-19)
(0.0941407 0.0228335 -1.75379e-19)
(0.116092 0.021216 5.47411e-20)
(0.143034 0.0249683 -5.0278e-20)
(-0.00352158 0.00659364 -6.33506e-20)
(-0.00986451 0.0181314 6.51914e-20)
(-0.0157676 0.0282693 6.23233e-20)
(-0.0211565 0.0370575 -1.78916e-19)
(-0.0259803 0.0445448 5.67357e-20)
(-0.0301987 0.0507881 5.41517e-20)
(-0.0337709 0.0558555 0)
(-0.0366575 0.0598236 0)
(-0.0388207 0.0627751 4.63697e-20)
(-0.0402239 0.0647963 8.79417e-20)
(-0.0408306 0.0659753 -1.66985e-19)
(-0.0406032 0.0663997 -8.76111e-23)
(-0.0395024 0.0661551 0)
(-0.0374851 0.0653229 0)
(-0.0345038 0.0639795 -6.65824e-20)
(-0.0305047 0.0621943 3.74403e-23)
(-0.0254269 0.0600298 5.92412e-20)
(-0.019201 0.05754 -5.57396e-20)
(-0.0117482 0.054771 -1.05076e-19)
(-0.00297908 0.0517607 9.87005e-20)
(0.00720666 0.0485393 4.63796e-20)
(0.0189212 0.0451309 -1.30773e-19)
(0.0322887 0.0415551 -8.16731e-20)
(0.0474454 0.0378322 7.67546e-20)
(0.0645385 0.0339925 7.18023e-20)
(0.0837324 0.0301011 6.70369e-20)
(0.1052 0.0263089 0)
(0.128894 0.0229159 0)
(0.154762 0.0209151 1.08487e-19)
(0.187122 0.0250678 0)
(-0.00375775 0.00662512 6.39931e-20)
(-0.0104848 0.0182147 -6.56814e-20)
(-0.0166665 0.0283952 1.25667e-19)
(-0.0222268 0.0372126 -2.78157e-22)
(-0.0271111 0.0447144 0)
(-0.0312751 0.0509576 0)
(-0.0346755 0.0560114 0)
(-0.0372706 0.059954 -4.91107e-20)
(-0.0390208 0.0628701 4.66329e-20)
(-0.0398875 0.0648483 0)
(-0.0398317 0.065979 8.35689e-20)
(-0.0388129 0.0663524 7.92253e-20)
(-0.0367876 0.0660566 -7.48952e-20)
(-0.0337073 0.0651757 7.07451e-20)
(-0.0295178 0.0637887 -9.51149e-23)
(-0.024157 0.0619679 -6.29721e-20)
(-0.0175538 0.0597787 -5.93668e-20)
(-0.00962701 0.0572784 1.67642e-19)
(-0.000284417 0.0545163 5.24806e-20)
(0.0105781 0.0515337 -9.89081e-20)
(0.0230769 0.0483642 -4.64154e-20)
(0.0373402 0.0450346 4.35795e-20)
(0.0535083 0.041566 0)
(0.0717314 0.0379775 -7.66352e-20)
(0.0921678 0.0342916 -7.17115e-20)
(0.114987 0.0305533 0)
(0.140377 0.0268725 6.23779e-20)
(0.168308 0.0234643 -1.16843e-19)
(0.198441 0.0211273 -1.62876e-19)
(0.236992 0.0257429 0)
(-0.003989 0.00663167 -1.28151e-19)
(-0.0110885 0.0182218 6.6167e-20)
(-0.0175355 0.0283927 -1.26145e-19)
(-0.0232504 0.0371872 -2.87249e-22)
(-0.0281733 0.0446529 0)
(-0.0322549 0.0508479 0)
(-0.035448 0.0558436 5.20382e-20)
(-0.0377078 0.0597204 9.88302e-20)
(-0.0389919 0.0625654 0)
(-0.0392584 0.0644699 0)
(-0.0384647 0.0655272 -1.68001e-19)
(-0.0365656 0.0658301 7.95303e-20)
(-0.0335119 0.0654693 -1.39888e-22)
(-0.0292481 0.064532 0)
(-0.0237109 0.0630998 -3.30403e-23)
(-0.0168277 0.0612485 6.30921e-20)
(-0.00851513 0.0590467 -1.61871e-22)
(0.00132234 0.0565556 -2.23798e-19)
(0.0127928 0.0538286 -5.26555e-20)
(0.0260175 0.0509118 9.89058e-20)
(0.0411304 0.0478435 9.28825e-20)
(0.0582774 0.0446555 -8.8666e-23)
(0.0776146 0.0413737 8.18115e-20)
(0.0993054 0.0380198 1.53261e-19)
(0.123515 0.034615 7.17088e-20)
(0.15041 0.0311912 6.69706e-20)
(0.180176 0.0278247 6.23065e-20)
(0.212822 0.0246483 1.16086e-19)
(0.247514 0.0220873 -7.56498e-22)
(0.293012 0.0272965 4.87688e-20)
(-0.00421513 0.00661607 1.29185e-19)
(-0.0116731 0.0181593 -1.99001e-19)
(-0.0183686 0.0282704 1.26778e-19)
(-0.0242161 0.0369912 1.20973e-19)
(-0.0291492 0.0443707 5.76218e-20)
(-0.0331126 0.0504698 -4.00188e-23)
(-0.0360543 0.0553626 -5.19475e-20)
(-0.0379255 0.0591328 -9.88299e-20)
(-0.0386795 0.0618708 2.37114e-22)
(-0.03827 0.0636711 1.77961e-19)
(-0.0366493 0.0646299 -8.45449e-20)
(-0.033766 0.0648432 1.59341e-19)
(-0.0295633 0.0644048 -1.06848e-22)
(-0.0239765 0.0634049 -1.42075e-19)
(-0.0169312 0.0619285 -1.69541e-23)
(-0.00834186 0.0600549 0)
(0.00188977 0.0578567 2.97436e-19)
(0.0138757 0.0553996 5.58976e-20)
(0.027742 0.0527422 0)
(0.0436285 0.0499362 4.94714e-20)
(0.0616881 0.0470265 -4.65327e-20)
(0.0820837 0.0440519 1.7444e-19)
(0.104986 0.0410455 -2.45415e-19)
(0.130565 0.0380357 7.66927e-20)
(0.158989 0.0350477 0)
(0.190407 0.0321088 6.68492e-20)
(0.224979 0.0292734 -1.24749e-19)
(0.262781 0.0266265 1.16059e-19)
(0.302226 0.0240116 -1.07909e-19)
(0.355317 0.0300353 -9.89232e-20)
(-0.00443606 0.00658086 -1.29703e-19)
(-0.0122365 0.0180331 -3.5989e-22)
(-0.0191591 0.0280366 -6.35502e-20)
(-0.025111 0.0366345 -6.06353e-20)
(-0.0300185 0.0438789 -1.15953e-19)
(-0.0338191 0.0498348 5.51337e-20)
(-0.0364552 0.0545808 7.98526e-23)
(-0.0378728 0.0582045 -9.94255e-20)
(-0.0380199 0.0608003 -1.41123e-19)
(-0.0368443 0.0624667 1.46216e-22)
(-0.0342917 0.0633035 8.42895e-20)
(-0.0303026 0.0634102 -1.59556e-19)
(-0.0248106 0.0628841 7.55045e-20)
(-0.0177395 0.0618188 7.12731e-20)
(-0.00900154 0.0603033 -1.04185e-23)
(0.00150408 0.0584209 6.33191e-20)
(0.0138928 0.0562489 -1.19069e-19)
(0.0282951 0.0538584 0)
(0.0448563 0.051314 -1.05465e-19)
(0.0637356 0.0486742 9.90863e-20)
(0.0851035 0.045992 -9.30226e-20)
(0.109137 0.0433145 -8.72618e-20)
(0.136016 0.0406841 0)
(0.165912 0.0381383 -2.29603e-19)
(0.198978 0.0357108 1.63064e-22)
(0.235332 0.033431 -3.34144e-19)
(0.275073 0.0313407 1.87252e-19)
(0.31837 0.0295463 -2.31833e-19)
(0.362626 0.0270845 1.07902e-19)
(0.423704 0.0342357 -9.7657e-20)
(-0.00465168 0.00652827 6.50306e-20)
(-0.0127758 0.0178485 6.68734e-20)
(-0.0198992 0.027699 6.42345e-20)
(-0.0259206 0.0361265 -1.88158e-22)
(-0.0307578 0.0431884 -1.67489e-22)
(-0.0343408 0.0489558 0)
(-0.0366053 0.0535124 0)
(-0.037491 0.0569512 0)
(-0.0369394 0.0593718 0)
(-0.0348912 0.0608771 0)
(-0.0312833 0.0615712 8.46233e-20)
(-0.0260465 0.0615578 -8.00185e-20)
(-0.0191024 0.0609382 7.57102e-20)
(-0.010361 0.0598102 8.94476e-24)
(0.000280945 0.0582671 -6.72048e-20)
(0.0129419 0.0563972 1.47042e-23)
(0.0277562 0.0542832 -1.19371e-19)
(0.044874 0.0520023 1.12275e-19)
(0.0644601 0.0496263 1.05462e-19)
(0.0866914 0.0472217 -9.89702e-20)
(0.111753 0.0448501 1.86142e-19)
(0.139829 0.0425685 0)
(0.171099 0.0404293 -1.63361e-19)
(0.20572 0.0384803 3.22213e-22)
(0.243814 0.0367649 3.84319e-22)
(0.285442 0.0353183 5.61312e-22)
(0.330596 0.0341714 -6.18909e-20)
(0.379554 0.0335443 1.15774e-19)
(0.428516 0.0314526 1.07439e-19)
(0.497542 0.0401099 5.10104e-20)
(-0.00486171 0.00646005 0)
(-0.0132875 0.0176098 6.74319e-20)
(-0.0205797 0.0272641 -6.40556e-20)
(-0.0266275 0.0354759 -1.34822e-22)
(-0.0313398 0.0423103 1.17004e-19)
(-0.0346386 0.0478457 -5.56815e-20)
(-0.0364519 0.0521729 0)
(-0.0367124 0.0553915 0)
(-0.0353536 0.0576071 -9.49133e-20)
(-0.0323073 0.0589279 9.00402e-20)
(-0.0275002 0.0594633 8.51871e-20)
(-0.0208508 0.0593218 0)
(-0.0122667 0.0586093 7.5928e-20)
(-0.00164204 0.0574287 0)
(0.0111443 0.0558784 -1.34641e-19)
(0.0262301 0.0540524 1.90341e-19)
(0.0437693 0.0520399 1.79093e-19)
(0.0639319 0.0499252 -5.61711e-20)
(0.0869001 0.0477879 -1.16968e-22)
(0.112865 0.0457035 -1.48736e-19)
(0.142017 0.0437429 0)
(0.17454 0.041973 0)
(0.210594 0.0404561 8.17255e-20)
(0.250301 0.0392494 1.52781e-19)
(0.293725 0.0384047 -1.05606e-22)
(0.340839 0.0379616 1.33434e-19)
(0.391486 0.0379323 1.24292e-19)
(0.446004 0.0387385 0)
(0.499413 0.0372227 -1.07432e-19)
(0.575695 0.047773 1.47224e-19)
(-0.00506554 0.00637736 6.62066e-20)
(-0.0137672 0.01732 0)
(-0.0211891 0.026737 1.61112e-22)
(-0.027211 0.0346903 -6.18048e-20)
(-0.0317326 0.0412547 5.89888e-20)
(-0.0346672 0.0465178 5.58766e-20)
(-0.035935 0.0505791 -1.09813e-22)
(-0.0354599 0.0535463 5.05454e-20)
(-0.0331665 0.0555317 0)
(-0.0289758 0.0566502 -1.80617e-19)
(-0.0228024 0.0570172 2.655e-22)
(-0.0145506 0.0567467 0)
(-0.00411173 0.0559505 7.61342e-20)
(0.00863797 0.0547371 -2.1512e-19)
(0.0238391 0.0532112 6.76153e-20)
(0.0416492 0.0514735 -6.34801e-20)
(0.062242 0.0496203 -1.19583e-19)
(0.0858045 0.0477442 -1.68757e-19)
(0.112532 0.0459333 0)
(0.142621 0.0442721 0)
(0.176258 0.042841 9.30057e-20)
(0.213605 0.0417156 8.70437e-20)
(0.254783 0.0409664 -8.17713e-20)
(0.29985 0.0406569 0)
(0.348777 0.0408431 0)
(0.401408 0.0415632 0)
(0.457406 0.0428 1.23698e-19)
(0.51703 0.0452075 -5.72934e-20)
(0.574519 0.044461 1.07995e-19)
(0.65648 0.0572155 9.51455e-20)
(-0.00526206 0.00628073 -1.32621e-19)
(-0.0142087 0.0169807 6.82761e-20)
(-0.0217132 0.0261213 -6.53968e-20)
(-0.0276466 0.0337758 6.23378e-20)
(-0.0318991 0.0400307 -5.89888e-20)
(-0.0343751 0.0449851 5.61686e-20)
(-0.0349861 0.0487488 -5.34379e-20)
(-0.0336465 0.0514385 -1.00967e-19)
(-0.0302704 0.0531749 9.60489e-20)
(-0.0247665 0.0540804 1.81285e-19)
(-0.0170352 0.0542772 8.55057e-20)
(-0.00696454 0.0538863 -8.09706e-20)
(0.00557198 0.0530261 2.19973e-22)
(0.0207176 0.0518118 2.28444e-23)
(0.0386329 0.0503554 6.77646e-20)
(0.0594947 0.0487652 0)
(0.0834937 0.0471458 1.19659e-19)
(0.110829 0.0455982 2.81231e-19)
(0.1417 0.0442196 -5.29137e-20)
(0.176297 0.043103 0)
(0.214782 0.0423366 -1.85994e-19)
(0.257275 0.0420027 -8.71149e-20)
(0.303826 0.0421757 -8.14015e-20)
(0.354392 0.04292 7.64263e-20)
(0.408811 0.0442886 -7.10036e-20)
(0.466751 0.0463081 6.65913e-20)
(0.52769 0.0489364 -3.42707e-22)
(0.591542 0.0529626 1.14348e-19)
(0.652693 0.0532196 -1.06777e-19)
(0.737591 0.0683287 -1.9159e-19)
(-0.00544948 0.00617003 6.71108e-20)
(-0.0146039 0.0165923 6.87e-20)
(-0.0221348 0.0254188 -2.36772e-22)
(-0.0279051 0.0327367 4.00706e-22)
(-0.0317962 0.0386466 0)
(-0.0337032 0.0432607 -2.40735e-22)
(-0.0335282 0.0467006 -1.61357e-19)
(-0.0311753 0.0490935 0)
(-0.0265464 0.0505696 -9.6441e-20)
(-0.0195365 0.0512599 -3.64082e-19)
(-0.0100299 0.0512948 8.61173e-20)
(0.00210306 0.0508032 -8.12574e-20)
(0.0170081 0.0499111 -1.52687e-19)
(0.0348484 0.0487418 1.44293e-19)
(0.0558034 0.0474154 0)
(0.0800665 0.0460488 6.36719e-20)
(0.10784 0.0447554 -1.80047e-19)
(0.139326 0.0436448 -5.63481e-20)
(0.174714 0.0428224 -1.58734e-19)
(0.21417 0.042388 0)
(0.257807 0.0424348 1.85971e-19)
(0.30567 0.0430468 8.71104e-20)
(0.357705 0.044296 0)
(0.413725 0.0462391 7.61083e-20)
(0.473393 0.0489172 0)
(0.536155 0.05233 -6.59694e-20)
(0.601315 0.0564468 -1.84481e-19)
(0.668102 0.0619185 -2.28336e-19)
(0.732437 0.063626 -1.05705e-19)
(0.815959 0.0809899 -3.42115e-21)
(-0.00562516 0.00604444 -6.71108e-20)
(-0.0149424 0.0161534 2.92753e-22)
(-0.0224327 0.0246297 6.60902e-20)
(-0.0279525 0.0315762 -6.27384e-20)
(-0.0313747 0.0371097 -5.98117e-20)
(-0.0325851 0.0413573 1.13417e-19)
(-0.0314758 0.0444538 5.40762e-20)
(-0.0279396 0.0465383 1.02414e-19)
(-0.021865 0.0477517 9.65017e-20)
(-0.0131316 0.048235 9.16111e-20)
(-0.00160645 0.0481279 1.72976e-19)
(0.0128588 0.0475681 -3.04484e-22)
(0.0304296 0.0466907 0)
(0.0512874 0.045628 -7.21289e-20)
(0.0756279 0.0445092 -2.15786e-22)
(0.103655 0.0434601 1.30776e-22)
(0.135573 0.042603 1.80147e-19)
(0.171574 0.0420553 0)
(0.211819 0.0419286 1.05773e-19)
(0.256421 0.0423264 0)
(0.305415 0.0433413 2.72094e-24)
(0.358735 0.0450516 -8.68584e-20)
(0.416178 0.0475172 1.62808e-19)
(0.477376 0.0507755 -7.63551e-20)
(0.541776 0.0548432 -1.41746e-19)
(0.608575 0.0596764 6.61888e-20)
(0.67693 0.0653108 2.45725e-19)
(0.74513 0.0718686 5.67618e-20)
(0.81204 0.0759439 2.62546e-19)
(0.887923 0.0947219 5.00217e-20)
(-0.0057855 0.00590251 6.78505e-20)
(-0.0152112 0.0156614 -1.39223e-19)
(-0.022582 0.0237524 0)
(-0.0277497 0.030296 0)
(-0.0305792 0.0354263 6.0203e-20)
(-0.0309472 0.0392873 -2.64898e-22)
(-0.0287352 0.0420284 -1.0825e-19)
(-0.0238239 0.043802 -1.02613e-19)
(-0.0160872 0.0447608 3.98681e-22)
(-0.00538852 0.045057 4.15809e-22)
(0.00842334 0.0448408 -8.64932e-20)
(0.0255156 0.0442599 1.631e-19)