/*--------------------------------*- C++ -*----------------------------------*\
  =========                 |
  \\      /  F ield         | OpenFOAM: The Open Source CFD Toolbox
   \\    /   O peration     | Website:  https://openfoam.org
    \\  /    A nd           | Version:  7
     \\/     M anipulation  |
\*---------------------------------------------------------------------------*/
FoamFile
{
    version     2.0;
    format      ascii;
    class       volScalarField;
    location    "10";
    object      p;
}
// * * * * * * * * * * * * * * * * * * * * * * * * * * * * * * * * * * * * * //

dimensions      [0 2 -2 0 0 0 0];

internalField   nonuniform List<scalar> 
2304
(
-0.336336
-0.34201
-0.339697
-0.333177
-0.323791
-0.312041
-0.298498
-0.283809
-0.268465
-0.253932
-0.341544
-0.345809
-0.342757
-0.335745
-0.325976
-0.31392
-0.300049
-0.28492
-0.268795
-0.252916
-0.351641
-0.353168
-0.348651
-0.340658
-0.330151
-0.31745
-0.302953
-0.287044
-0.269512
-0.251044
-0.366068
-0.363664
-0.356984
-0.347521
-0.335865
-0.322244
-0.306855
-0.289926
-0.270736
-0.24867
-0.384158
-0.37673
-0.367325
-0.355908
-0.342721
-0.327874
-0.311347
-0.293227
-0.272457
-0.246263
-0.405139
-0.391947
-0.379246
-0.365442
-0.350363
-0.333981
-0.316062
-0.296533
-0.274186
-0.243956
-0.42841
-0.408867
-0.392436
-0.375899
-0.358597
-0.340378
-0.320815
-0.299579
-0.275103
-0.241737
-0.453391
-0.427079
-0.406684
-0.387159
-0.367336
-0.346979
-0.325572
-0.302569
-0.276082
-0.2442
-0.479488
-0.446237
-0.421774
-0.399067
-0.376391
-0.353471
-0.329812
-0.305098
-0.279542
-0.261887
-0.505928
-0.465836
-0.437331
-0.411252
-0.385272
-0.359114
-0.332371
-0.30498
-0.277738
-0.255807
-0.531666
-0.485108
-0.452676
-0.422973
-0.393094
-0.362894
-0.332216
-0.301332
-0.271249
-0.244171
-0.555236
-0.502908
-0.466693
-0.433002
-0.398511
-0.363461
-0.32819
-0.293408
-0.260258
-0.229649
-0.574723
-0.517647
-0.477783
-0.439638
-0.39982
-0.359309
-0.319187
-0.280657
-0.244931
-0.212316
-0.587805
-0.527317
-0.483918
-0.440835
-0.395161
-0.348993
-0.304294
-0.262674
-0.225217
-0.191809
-0.591891
-0.529587
-0.482783
-0.434424
-0.382768
-0.331319
-0.282879
-0.239233
-0.20109
-0.167975
-0.584317
-0.521983
-0.472013
-0.418377
-0.361195
-0.305466
-0.254601
-0.210249
-0.172559
-0.140798
-0.562601
-0.502138
-0.44947
-0.391068
-0.329486
-0.271052
-0.219406
-0.175774
-0.139619
-0.110053
-0.524709
-0.468059
-0.413509
-0.351477
-0.287275
-0.228146
-0.177542
-0.136059
-0.102369
-0.0753911
-0.469316
-0.418394
-0.363226
-0.299325
-0.234789
-0.177222
-0.129561
-0.0916253
-0.0613468
-0.0375379
-0.396015
-0.352689
-0.298616
-0.235141
-0.172776
-0.119091
-0.0763097
-0.0431709
-0.0170801
0.00201758
-0.305483
-0.271614
-0.2205
-0.16018
-0.102496
-0.0551096
-0.0186923
0.00852424
0.0294718
0.0431365
-0.199482
-0.176889
-0.130279
-0.075893
-0.0260967
0.0132635
0.0419436
0.0622899
0.0771884
0.0848712
-0.0806158
-0.0702926
-0.0313146
0.0146663
0.0546749
0.0843476
0.104207
0.116791
0.124521
0.125775
0.0469523
0.0442514
0.0734954
0.108869
0.137459
0.156339
0.166718
0.17088
0.17056
0.165373
0.178852
0.162484
0.180489
0.203631
0.219736
0.227285
0.227976
0.223536
0.21516
0.209906
0.310023
0.279866
0.285681
0.295699
0.29889
0.295003
0.286
0.273427
0.25905
0.250136
0.435158
0.391673
0.385049
0.381843
0.372368
0.357463
0.339208
0.319096
0.299062
0.28464
0.549026
0.493263
0.474721
0.458996
0.437774
0.412795
0.386189
0.359376
0.334079
0.314109
0.646754
0.580338
0.551163
0.524383
0.492944
0.459297
0.425569
0.393069
0.363154
0.338215
0.724092
0.64917
0.611341
0.575633
0.536038
0.495526
0.456191
0.419225
0.38561
0.356636
0.777639
0.696788
0.652851
0.610879
0.565605
0.520339
0.477137
0.437096
0.400902
0.369085
0.805021
0.721126
0.67403
0.62883
0.580644
0.532947
0.487773
0.446164
0.408647
0.37536
0.805021
0.721126
0.67403
0.62883
0.580644
0.532947
0.487773
0.446164
0.408647
0.37536
0.777639
0.696788
0.652851
0.610879
0.565605
0.520339
0.477137
0.437096
0.400902
0.369085
0.724092
0.64917
0.611341
0.575633
0.536038
0.495526
0.456191
0.419225
0.38561
0.356636
0.646754
0.580338
0.551163
0.524383
0.492944
0.459297
0.425569
0.393069
0.363154
0.338215
0.549026
0.493263
0.474721
0.458996
0.437774
0.412795
0.386189
0.359376
0.334079
0.314109
0.435158
0.391673
0.385049
0.381843
0.372368
0.357463
0.339208
0.319096
0.299062
0.28464
0.310023
0.279866
0.285681
0.295699
0.29889
0.295003
0.286
0.273427
0.25905
0.250136
0.178852
0.162484
0.180489
0.203631
0.219736
0.227285
0.227976
0.223536
0.21516
0.209906
0.0469523
0.0442514
0.0734954
0.108869
0.137458
0.156339
0.166718
0.17088
0.17056
0.165373
-0.0806158
-0.0702926
-0.0313146
0.0146663
0.0546749
0.0843476
0.104207
0.116791
0.124521
0.125775
-0.199482
-0.176889
-0.130279
-0.075893
-0.0260968
0.0132635
0.0419436
0.0622899
0.0771884
0.0848712
-0.305483
-0.271614
-0.2205
-0.16018
-0.102496
-0.0551096
-0.0186923
0.00852424
0.0294718
0.0431365
-0.396015
-0.352689
-0.298616
-0.235141
-0.172776
-0.119091
-0.0763097
-0.0431709
-0.0170801
0.00201758
-0.469316
-0.418394
-0.363226
-0.299325
-0.234789
-0.177222
-0.129561
-0.0916253
-0.0613468
-0.0375379
-0.524709
-0.468059
-0.413509
-0.351477
-0.287275
-0.228146
-0.177542
-0.136059
-0.102369
-0.0753911
-0.562601
-0.502138
-0.44947
-0.391068
-0.329486
-0.271052
-0.219406
-0.175774
-0.139619
-0.110053
-0.584317
-0.521983
-0.472013
-0.418377
-0.361195
-0.305466
-0.254601
-0.210249
-0.172559
-0.140798
-0.591891
-0.529587
-0.482783
-0.434424
-0.382768
-0.331319
-0.282879
-0.239233
-0.20109
-0.167975
-0.587805
-0.527317
-0.483918
-0.440835
-0.395161
-0.348993
-0.304294
-0.262674
-0.225217
-0.191809
-0.574723
-0.517647
-0.477783
-0.439638
-0.39982
-0.359309
-0.319187
-0.280657
-0.244931
-0.212316
-0.555236
-0.502908
-0.466693
-0.433002
-0.398511
-0.363461
-0.32819
-0.293408
-0.260258
-0.229649
-0.531666
-0.485108
-0.452676
-0.422973
-0.393094
-0.362894
-0.332216
-0.301332
-0.271249
-0.244171
-0.505928
-0.465836
-0.437331
-0.411252
-0.385272
-0.359114
-0.332371
-0.30498
-0.277738
-0.255807
-0.479488
-0.446237
-0.421774
-0.399067
-0.376391
-0.353471
-0.329812
-0.305098
-0.279542
-0.261887
-0.453391
-0.427079
-0.406684
-0.387159
-0.367336
-0.346979
-0.325572
-0.302569
-0.276082
-0.2442
-0.42841
-0.408867
-0.392436
-0.375899
-0.358597
-0.340378
-0.320815
-0.299579
-0.275103
-0.241737
-0.405139
-0.391947
-0.379246
-0.365442
-0.350363
-0.333981
-0.316062
-0.296533
-0.274186
-0.243956
-0.384158
-0.37673
-0.367325
-0.355908
-0.342721
-0.327874
-0.311347
-0.293227
-0.272457
-0.246263
-0.366068
-0.363664
-0.356984
-0.347521
-0.335865
-0.322244
-0.306855
-0.289926
-0.270736
-0.24867
-0.351641
-0.353168
-0.348651
-0.340658
-0.330151
-0.31745
-0.302953
-0.287044
-0.269512
-0.251044
-0.341544
-0.345809
-0.342757
-0.335745
-0.325976
-0.31392
-0.300049
-0.28492
-0.268795
-0.252916
-0.336336
-0.34201
-0.339697
-0.333177
-0.323791
-0.312041
-0.298498
-0.283809
-0.268465
-0.253932
-0.240099
-0.210826
-0.188213
-0.166559
-0.146404
-0.128173
-0.111782
-0.0971102
-0.0840125
-0.0723136
-0.0618367
-0.0524231
-0.0439417
-0.0362889
-0.0293932
-0.0231909
-0.0176728
-0.0127443
-0.00855294
-0.00468945
-0.00205371
0.00142502
0.00112506
0.00702364
-0.242715
-0.21193
-0.189185
-0.167543
-0.14729
-0.128977
-0.112527
-0.0978071
-0.0846693
-0.0729371
-0.0624308
-0.0529894
-0.0444805
-0.0367991
-0.0298735
-0.0236401
-0.0180896
-0.0131288
-0.00890265
-0.00501009
-0.00233005
0.00115476
0.000960037
0.00671665
-0.247593
-0.21413
-0.190985
-0.169384
-0.148965
-0.130505
-0.11395
-0.0991413
-0.0859284
-0.074132
-0.0635682
-0.0540725
-0.0455095
-0.0377729
-0.0307899
-0.0244971
-0.0188848
-0.0138627
-0.00957027
-0.00562275
-0.00285772
0.000637679
0.000644868
0.00613331
-0.25399
-0.21738
-0.193374
-0.171842
-0.151259
-0.13262
-0.115931
-0.101007
-0.0876917
-0.0758044
-0.0651573
-0.0555823
-0.0469414
-0.039126
-0.0320621
-0.0256867
-0.0199886
-0.0148823
-0.0104981
-0.00647547
-0.00359135
-8.36382e-05
0.000206811
0.00532913
-0.260715
-0.221485
-0.196079
-0.174582
-0.153913
-0.135117
-0.118297
-0.103252
-0.0898199
-0.0778236
-0.0670737
-0.0574001
-0.0486625
-0.0407509
-0.0335894
-0.0271152
-0.0213152
-0.0161093
-0.0116152
-0.00750446
-0.00447531
-0.000955945
-0.000320568
0.00437406
-0.266054
-0.225767
-0.198761
-0.177247
-0.156637
-0.137792
-0.120889
-0.105742
-0.0921996
-0.0800892
-0.0692257
-0.0594401
-0.0505922
-0.042571
-0.0352992
-0.0287143
-0.0228002
-0.017483
-0.0128654
-0.00865631
-0.00546204
-0.0019294
-0.000907052
0.00333783
-0.268293
-0.229922
-0.20175
-0.180058
-0.159592
-0.140812
-0.123869
-0.108624
-0.0949527
-0.0826987
-0.0716864
-0.061753
-0.0527606
-0.0445994
-0.0371903
-0.0304711
-0.0244217
-0.0189752
-0.0142158
-0.00989539
-0.00651528
-0.00296565
-0.00152177
0.00227386
-0.265006
-0.231118
-0.203414
-0.181705
-0.161707
-0.1433
-0.126505
-0.11127
-0.097531
-0.0851677
-0.0740256
-0.0639546
-0.0548245
-0.0465291
-0.0389891
-0.0321441
-0.0259681
-0.020405
-0.0155107
-0.011099
-0.00752676
-0.00399611
-0.00208781
0.00122653
-0.234571
-0.217809
-0.197018
-0.177112
-0.158805
-0.141752
-0.125887
-0.111316
-0.0980703
-0.0860721
-0.0751931
-0.0653043
-0.0562925
-0.0480672
-0.0405586
-0.0337186
-0.0275163
-0.0219226
-0.0169429
-0.0125042
-0.00872205
-0.00529264
-0.00277164
-9.99422e-05
-0.204852
-0.196485
-0.180059
-0.163622
-0.148759
-0.13469
-0.121118
-0.108257
-0.0962995
-0.0852719
-0.0751145
-0.0657548
-0.0571281
-0.0491814
-0.0418702
-0.0351655
-0.029042
-0.0234894
-0.0184889
-0.0140321
-0.0101012
-0.00667605
-0.00372554
-0.00128263
-0.174121
-0.172569
-0.161453
-0.149384
-0.138047
-0.126834
-0.115514
-0.10439
-0.0937657
-0.0837612
-0.0743829
-0.0656114
-0.0574256
-0.0498082
-0.0427388
-0.0362081
-0.030197
-0.0247132
-0.0197197
-0.015258
-0.0112162
-0.00776557
-0.00449133
-0.00206737
-0.147581
-0.15057
-0.14411
-0.135834
-0.127523
-0.11882
-0.109581
-0.100133
-0.0908275
-0.0818515
-0.0732701
-0.0651111
-0.0573923
-0.050128
-0.0433206
-0.0369802
-0.0310947
-0.0256886
-0.020712
-0.0162461
-0.0121109
-0.00860934
-0.00507218
-0.00258109
-0.125465
-0.131187
-0.128575
-0.123484
-0.117704
-0.111134
-0.103732
-0.0958141
-0.0877428
-0.0797449
-0.0719337
-0.0643774
-0.0571253
-0.0502189
-0.0436803
-0.037537
-0.0317843
-0.0264613
-0.0215101
-0.0170401
-0.0128279
-0.00925775
-0.0055122
-0.00290138
-0.107654
-0.114928
-0.115245
-0.112727
-0.108989
-0.104166
-0.098312
-0.0917243
-0.0847503
-0.0776372
-0.0705332
-0.0635382
-0.0567272
-0.0501627
-0.0438839
-0.0379327
-0.0323117
-0.0270713
-0.0221506
-0.0176766
-0.013402
-0.00975553
-0.0058457
-0.00308838
-0.093761
-0.101778
-0.104165
-0.103636
-0.101517
-0.0980949
-0.0935082
-0.0880375
-0.0820043
-0.0756619
-0.0691819
-0.0626881
-0.0562751
-0.0500223
-0.043982
-0.0382083
-0.0327107
-0.0275483
-0.0226596
-0.0181823
-0.0138582
-0.0101363
-0.00609773
-0.00319029
-0.0831396
-0.0914402
-0.0952303
-0.0961846
-0.0953212
-0.0930003
-0.0894236
-0.0848598
-0.0796049
-0.0739092
-0.0679584
-0.0618936
-0.0558243
-0.0498425
-0.0440112
-0.0383939
-0.0330061
-0.0279135
-0.0230557
-0.0185763
-0.0142143
-0.0104242
-0.00628656
-0.00324175
-0.0752197
-0.0835821
-0.0882989
-0.0903229
-0.0904017
-0.088918
-0.0861169
-0.0822597
-0.0776206
-0.0724427
-0.0669196
-0.0612042
-0.0554166
-0.0496582
-0.0440002
-0.038513
-0.0332175
-0.0281838
-0.0233538
-0.0188735
-0.0144837
-0.0106364
-0.00642492
-0.00326506
-0.0695969
-0.0779316
-0.0832389
-0.0859951
-0.0867414
-0.0858589
-0.08362
-0.0802806
-0.0760979
-0.0713078
-0.0661072
-0.0606567
-0.0550838
-0.0494965
-0.0439716
-0.0385849
-0.033361
-0.0283734
-0.0235661
-0.0190858
-0.0146767
-0.0107854
-0.00652144
-0.00327264
-0.0659868
-0.0742773
-0.0799351
-0.0831466
-0.0843185
-0.083823
-0.081949
-0.0789488
-0.0750675
-0.0705352
-0.0655501
-0.0602774
-0.0548491
-0.0493775
-0.0439428
-0.0386243
-0.0334495
-0.0284933
-0.0237022
-0.019222
-0.0148019
-0.0108797
-0.00658478
-0.00326705
-0.0641991
-0.0724702
-0.0782978
-0.081732
-0.0831125
-0.0828066
-0.0811121
-0.0782797
-0.0745483
-0.0701446
-0.0652674
-0.0600838
-0.0547282
-0.0493147
-0.0439258
-0.0386414
-0.0334919
-0.0285507
-0.0237698
-0.0192866
-0.0148676
-0.0109197
-0.0066305
-0.00324305
-0.238405
-0.199953
-0.161631
-0.133162
-0.112047
-0.095688
-0.0831359
-0.0736326
-0.0665691
-0.0615563
-0.0583294
-0.0567038
-0.213986
-0.181298
-0.148641
-0.122877
-0.103625
-0.0884973
-0.0767152
-0.0677486
-0.0610667
-0.0563063
-0.0532168
-0.051631
-0.20199
-0.168402
-0.138065
-0.113292
-0.0948581
-0.080672
-0.0696538
-0.0612632
-0.0550106
-0.0505465
-0.0476308
-0.0461217
-0.18804
-0.153156
-0.125094
-0.102487
-0.0853618
-0.0722465
-0.0620629
-0.0542799
-0.0484724
-0.0443203
-0.0415979
-0.0401899
-0.172808
-0.138316
-0.111867
-0.0911808
-0.0753385
-0.0632418
-0.0538999
-0.0467604
-0.0414313
-0.0376207
-0.03512
-0.0338397
-0.154716
-0.12215
-0.0975876
-0.0789223
-0.0645901
-0.0536278
-0.0451814
-0.0387293
-0.0339129
-0.0304716
-0.028219
-0.0270882
-0.133996
-0.10469
-0.0825269
-0.0658981
-0.0531624
-0.0434252
-0.035928
-0.0302079
-0.0259419
-0.0229001
-0.0209215
-0.0199575
-0.110743
-0.0856045
-0.0663925
-0.0520207
-0.0410232
-0.0326377
-0.0261702
-0.021236
-0.0175604
-0.0149484
-0.013267
-0.0124815
-0.0848183
-0.064934
-0.0490083
-0.0374153
-0.0282747
-0.0213474
-0.0159809
-0.011883
-0.00883444
-0.00667857
-0.00530948
-0.0047151
-0.0559296
-0.0428209
-0.030351
-0.0223122
-0.0150634
-0.00967671
-0.00546569
-0.00224398
0.000150051
0.00183219
0.0028811
0.00327472
-0.0249908
-0.0193097
-0.011326
-0.00616283
-0.00136351
0.00236995
0.0053341
0.00762827
0.00933655
0.0105277
0.0112432
0.0114524
0.0076235
0.00542542
0.00824376
0.0102509
0.0125717
0.0145817
0.0162661
0.017609
0.0186168
0.01931
0.0196926
0.0197358
0.0412909
0.0311727
0.0285025
0.0270918
0.0268556
0.0270181
0.0273306
0.0276574
0.0279258
0.0281019
0.0281509
0.0280474
0.0767688
0.0596982
0.0511431
0.04562
0.0422768
0.0401449
0.038773
0.0378825
0.0372915
0.0368856
0.0365784
0.0363384
0.114988
0.0924593
0.0771741
0.0664696
0.0591974
0.0541863
0.050736
0.0483721
0.0467616
0.0456812
0.0449784
0.0445981
0.147405
0.121284
0.100683
0.0856537
0.0750649
0.0675888
0.0623098
0.0586075
0.0560462
0.054329
0.0532593
0.0527526
0.177457
0.150847
0.128875
0.11139
0.0983313
0.0886966
0.0815573
0.0763052
0.0725213
0.0699092
0.0682706
0.0674845
0.20195
0.174
0.152394
0.135084
0.12146
0.110889
0.102743
0.0965415
0.091938
0.0886841
0.0866084
0.0856048
0.204094
0.183491
0.165822
0.15079
0.13824
0.127961
0.119687
0.113168
0.108193
0.104601
0.102273
0.101124
0.202327
0.186772
0.172459
0.159703
0.148653
0.139296
0.131545
0.125292
0.12043
0.116866
0.11453
0.113377
0.197913
0.186456
0.175304
0.1649
0.155515
0.147277
0.140243
0.134423
0.129808
0.126374
0.124099
0.122965
0.194527
0.185516
0.17644
0.167689
0.159569
0.152268
0.145902
0.140545
0.136235
0.132995
0.130832
0.129752
0.191882
0.184409
0.176705
0.169105
0.16189
0.155268
0.149394
0.144379
0.140298
0.137202
0.135123
0.134078
0.190784
0.183949
0.176808
0.169684
0.162849
0.156523
0.150872
0.146019
0.142053
0.139034
0.137003
0.135984
0.225015
0.23301
0.222328
0.215105
0.206673
0.201258
0.197251
0.195597
0.251228
0.247229
0.231233
0.22117
0.211171
0.205
0.200507
0.1987
0.27259
0.25858
0.238633
0.226201
0.215046
0.208314
0.20334
0.201481
0.291058
0.268725
0.245319
0.230747
0.218521
0.210851
0.205835
0.203909
0.306136
0.277043
0.250881
0.234509
0.221429
0.213356
0.207956
0.205935
0.317596
0.283404
0.255176
0.237406
0.223631
0.215177
0.209601
0.207507
0.32531
0.287719
0.258112
0.23939
0.225144
0.216417
0.210721
0.208579
0.329185
0.2899
0.259602
0.240396
0.225883
0.217043
0.211289
0.209122
0.329185
0.2899
0.259602
0.240396
0.225883
0.217043
0.211289
0.209122
0.32531
0.287719
0.258112
0.23939
0.225144
0.216417
0.210721
0.208579
0.317596
0.283404
0.255176
0.237406
0.223631
0.215177
0.209601
0.207507
0.306136
0.277043
0.250881
0.234509
0.221429
0.213356
0.207956
0.205935
0.291058
0.268725
0.245319
0.230747
0.218521
0.210851
0.205835
0.203909
0.27259
0.25858
0.238633
0.226201
0.215046
0.208314
0.20334
0.201481
0.251228
0.247229
0.231233
0.22117
0.211171
0.205
0.200507
0.1987
0.225015
0.23301
0.222328
0.215105
0.206673
0.201258
0.197251
0.195597
0.177457
0.20195
0.204094
0.202327
0.197913
0.194527
0.191882
0.190784
0.150847
0.174
0.183491
0.186772
0.186456
0.185516
0.184409
0.183949
0.128875
0.152394
0.165822
0.172459
0.175304
0.17644
0.176705
0.176808
0.11139
0.135084
0.15079
0.159703
0.1649
0.167689
0.169105
0.169684
0.0983313
0.12146
0.13824
0.148653
0.155515
0.159569
0.16189
0.162849
0.0886966
0.110889
0.127961
0.139296
0.147277
0.152268
0.155268
0.156523
0.0815573
0.102743
0.119687
0.131545
0.140243
0.145902
0.149394
0.150872
0.0763052
0.0965415
0.113168
0.125292
0.134423
0.140545
0.144379
0.146019
0.0725213
0.091938
0.108193
0.12043
0.129808
0.136235
0.140298
0.142053
0.0699092
0.0886841
0.104601
0.116866
0.126374
0.132995
0.137202
0.139034
0.0682706
0.0866084
0.102273
0.11453
0.124099
0.130832
0.135123
0.137003
0.0674845
0.0856048
0.101124
0.113377
0.122965
0.129752
0.134078
0.135984
0.147405
0.121284
0.100683
0.0856537
0.0750649
0.0675888
0.0623098
0.0586075
0.0560462
0.054329
0.0532593
0.0527526
0.114988
0.0924593
0.0771741
0.0664696
0.0591974
0.0541863
0.050736
0.0483721
0.0467616
0.0456812
0.0449784
0.0445981
0.0767688
0.0596982
0.0511431
0.04562
0.0422768
0.0401449
0.0387729
0.0378825
0.0372915
0.0368856
0.0365784
0.0363384
0.0412909
0.0311727
0.0285025
0.0270918
0.0268556
0.0270181
0.0273306
0.0276574
0.0279258
0.0281019
0.0281509
0.0280474
0.0076235
0.00542542
0.00824376
0.0102509
0.0125717
0.0145817
0.0162661
0.017609
0.0186168
0.01931
0.0196926
0.0197358
-0.0249908
-0.0193097
-0.011326
-0.00616283
-0.00136351
0.00236995
0.0053341
0.00762827
0.00933655
0.0105277
0.0112432
0.0114524
-0.0559296
-0.0428209
-0.030351
-0.0223122
-0.0150634
-0.00967671
-0.00546569
-0.00224398
0.000150051
0.00183219
0.0028811
0.00327472
-0.0848183
-0.064934
-0.0490083
-0.0374153
-0.0282747
-0.0213474
-0.0159809
-0.011883
-0.00883444
-0.00667857
-0.00530948
-0.0047151
-0.110743
-0.0856045
-0.0663925
-0.0520207
-0.0410232
-0.0326377
-0.0261702
-0.021236
-0.0175604
-0.0149484
-0.013267
-0.0124815
-0.133996
-0.10469
-0.0825269
-0.0658981
-0.0531624
-0.0434252
-0.035928
-0.0302079
-0.0259419
-0.0229001
-0.0209215
-0.0199575
-0.154716
-0.12215
-0.0975876
-0.0789223
-0.0645901
-0.0536278
-0.0451814
-0.0387293
-0.0339129
-0.0304716
-0.028219
-0.0270882
-0.172808
-0.138316
-0.111867
-0.0911808
-0.0753385
-0.0632418
-0.0538999
-0.0467604
-0.0414313
-0.0376207
-0.03512
-0.0338397
-0.18804
-0.153156
-0.125094
-0.102487
-0.0853618
-0.0722465
-0.0620629
-0.0542799
-0.0484724
-0.0443203
-0.0415979
-0.0401899
-0.20199
-0.168402
-0.138065
-0.113292
-0.0948581
-0.080672
-0.0696538
-0.0612632
-0.0550106
-0.0505465
-0.0476308
-0.0461217
-0.213986
-0.181298
-0.148641
-0.122877
-0.103625
-0.0884973
-0.0767152
-0.0677486
-0.0610667
-0.0563063
-0.0532168
-0.051631
-0.238405
-0.199953
-0.161631
-0.133162
-0.112047
-0.095688
-0.0831359
-0.0736326
-0.0665691
-0.0615563
-0.0583294
-0.0567038
-0.234571
-0.204852
-0.174121
-0.147581
-0.125465
-0.107654
-0.093761
-0.0831396
-0.0752197
-0.0695969
-0.0659868
-0.0641991
-0.217809
-0.196485
-0.172569
-0.15057
-0.131187
-0.114928
-0.101778
-0.0914402
-0.0835821
-0.0779316
-0.0742773
-0.0724702
-0.197018
-0.180059
-0.161453
-0.14411
-0.128575
-0.115245
-0.104165
-0.0952303
-0.0882989
-0.0832389
-0.0799351
-0.0782978
-0.177112
-0.163622
-0.149384
-0.135834
-0.123484
-0.112727
-0.103636
-0.0961846
-0.0903229
-0.0859951
-0.0831466
-0.081732
-0.158805
-0.148759
-0.138047
-0.127523
-0.117704
-0.108989
-0.101517
-0.0953212
-0.0904017
-0.0867414
-0.0843185
-0.0831125
-0.141752
-0.13469
-0.126834
-0.11882
-0.111134
-0.104166
-0.0980949
-0.0930003
-0.088918
-0.0858589
-0.083823
-0.0828066
-0.125887
-0.121118
-0.115514
-0.109581
-0.103732
-0.098312
-0.0935082
-0.0894236
-0.0861169
-0.08362
-0.081949
-0.0811121
-0.111316
-0.108257
-0.10439
-0.100133
-0.0958141
-0.0917243
-0.0880375
-0.0848598
-0.0822597
-0.0802806
-0.0789488
-0.0782797
-0.0980703
-0.0962995
-0.0937657
-0.0908275
-0.0877428
-0.0847503
-0.0820043
-0.0796049
-0.0776206
-0.0760979
-0.0750675
-0.0745483
-0.0860721
-0.0852719
-0.0837612
-0.0818514
-0.0797449
-0.0776372
-0.0756619
-0.0739092
-0.0724427
-0.0713078
-0.0705352
-0.0701446
-0.0751931
-0.0751145
-0.0743829
-0.0732701
-0.0719337
-0.0705332
-0.0691819
-0.0679584
-0.0669196
-0.0661072
-0.0655501
-0.0652674
-0.0653043
-0.0657548
-0.0656114
-0.0651111
-0.0643774
-0.0635382
-0.0626881
-0.0618936
-0.0612042
-0.0606567
-0.0602774
-0.0600838
-0.0562925
-0.0571281
-0.0574256
-0.0573923
-0.0571253
-0.0567272
-0.0562751
-0.0558243
-0.0554166
-0.0550838
-0.0548491
-0.0547282
-0.0480672
-0.0491814
-0.0498082
-0.050128
-0.0502189
-0.0501627
-0.0500223
-0.0498425
-0.0496582
-0.0494965
-0.0493775
-0.0493147
-0.0405586
-0.0418702
-0.0427388
-0.0433206
-0.0436803
-0.0438839
-0.043982
-0.0440112
-0.0440002
-0.0439716
-0.0439428
-0.0439258
-0.0337186
-0.0351655
-0.0362081
-0.0369802
-0.037537
-0.0379327
-0.0382083
-0.0383939
-0.038513
-0.0385849
-0.0386243
-0.0386414
-0.0275163
-0.029042
-0.030197
-0.0310946
-0.0317843
-0.0323117
-0.0327107
-0.0330061
-0.0332175
-0.033361
-0.0334495
-0.0334919
-0.0219226
-0.0234894
-0.0247132
-0.0256886
-0.0264612
-0.0270713
-0.0275483
-0.0279135
-0.0281838
-0.0283734
-0.0284933
-0.0285507
-0.0169429
-0.0184889
-0.0197197
-0.020712
-0.0215101
-0.0221506
-0.0226596
-0.0230557
-0.0233538
-0.0235661
-0.0237022
-0.0237698
-0.0125042
-0.0140321
-0.015258
-0.0162461
-0.0170401
-0.0176766
-0.0181823
-0.0185763
-0.0188735
-0.0190858
-0.019222
-0.0192866
-0.00872205
-0.0101012
-0.0112162
-0.0121109
-0.0128279
-0.013402
-0.0138582
-0.0142143
-0.0144837
-0.0146767
-0.0148019
-0.0148676
-0.00529264
-0.00667605
-0.00776556
-0.00860934
-0.00925774
-0.00975553
-0.0101363
-0.0104242
-0.0106364
-0.0107854
-0.0108797
-0.0109197
-0.00277164
-0.00372554
-0.00449133
-0.00507218
-0.0055122
-0.0058457
-0.00609773
-0.00628656
-0.00642492
-0.00652144
-0.00658478
-0.0066305
-9.99418e-05
-0.00128263
-0.00206737
-0.00258109
-0.00290138
-0.00308838
-0.00319029
-0.00324175
-0.00326506
-0.00327264
-0.00326705
-0.00324305
-0.265006
-0.231118
-0.203414
-0.181705
-0.161707
-0.1433
-0.126505
-0.11127
-0.097531
-0.0851677
-0.0740256
-0.0639546
-0.0548245
-0.0465291
-0.0389891
-0.0321441
-0.0259681
-0.020405
-0.0155107
-0.011099
-0.00752675
-0.00399611
-0.00208781
0.00122653
-0.268293
-0.229922
-0.20175
-0.180058
-0.159592
-0.140812
-0.123869
-0.108624
-0.0949527
-0.0826987
-0.0716864
-0.061753
-0.0527606
-0.0445994
-0.0371903
-0.0304711
-0.0244217
-0.0189752
-0.0142158
-0.00989539
-0.00651528
-0.00296565
-0.00152177
0.00227387
-0.266054
-0.225767
-0.198761
-0.177247
-0.156637
-0.137792
-0.120889
-0.105742
-0.0921996
-0.0800892
-0.0692257
-0.0594401
-0.0505922
-0.042571
-0.0352992
-0.0287143
-0.0228002
-0.017483
-0.0128654
-0.00865631
-0.00546204
-0.00192939
-0.000907052
0.00333783
-0.260715
-0.221485
-0.196079
-0.174582
-0.153913
-0.135117
-0.118297
-0.103252
-0.0898199
-0.0778236
-0.0670737
-0.0574001
-0.0486625
-0.0407509
-0.0335894
-0.0271152
-0.0213152
-0.0161093
-0.0116152
-0.00750446
-0.00447531
-0.000955944
-0.000320568
0.00437406
-0.25399
-0.21738
-0.193374
-0.171842
-0.151259
-0.13262
-0.115931
-0.101007
-0.0876917
-0.0758044
-0.0651573
-0.0555823
-0.0469414
-0.039126
-0.0320621
-0.0256867
-0.0199886
-0.0148823
-0.0104981
-0.00647547
-0.00359135
-8.36376e-05
0.000206811
0.00532913
-0.247593
-0.21413
-0.190985
-0.169384
-0.148965
-0.130505
-0.11395
-0.0991413
-0.0859284
-0.074132
-0.0635682
-0.0540724
-0.0455095
-0.0377729
-0.0307899
-0.0244971
-0.0188848
-0.0138627
-0.00957027
-0.00562275
-0.00285772
0.00063768
0.000644868
0.00613331
-0.242715
-0.21193
-0.189185
-0.167543
-0.14729
-0.128977
-0.112527
-0.0978071
-0.0846693
-0.0729371
-0.0624308
-0.0529894
-0.0444804
-0.0367991
-0.0298735
-0.0236401
-0.0180896
-0.0131288
-0.00890265
-0.00501009
-0.00233005
0.00115476
0.000960037
0.00671665
-0.240099
-0.210826
-0.188213
-0.166559
-0.146404
-0.128173
-0.111782
-0.0971102
-0.0840125
-0.0723136
-0.0618367
-0.0524231
-0.0439417
-0.0362889
-0.0293932
-0.0231909
-0.0176728
-0.0127443
-0.00855294
-0.00468945
-0.00205371
0.00142502
0.00112506
0.00702364
)
;

boundaryField
{
    inlet
    {
        type            zeroGradient;
    }
    outlet
    {
        type            fixedValue;
        value           uniform 0;
    }
    cylinder
    {
        type            zeroGradient;
    }
    top
    {
        type            symmetryPlane;
    }
    bottom
    {
        type            symmetryPlane;
    }
    defaultFaces
    {
        type            empty;
    }
}


// ************************************************************************* //
