/*--------------------------------*- C++ -*----------------------------------*\
  =========                 |
  \\      /  F ield         | OpenFOAM: The Open Source CFD Toolbox
   \\    /   O peration     | Website:  https://openfoam.org
    \\  /    A nd           | Version:  7
     \\/     M anipulation  |
\*---------------------------------------------------------------------------*/
FoamFile
{
    version     2.0;
    format      ascii;
    class       surfaceScalarField;
    location    "10";
    object      phi;
}
// * * * * * * * * * * * * * * * * * * * * * * * * * * * * * * * * * * * * * //

dimensions      [0 3 -1 0 0 0 0];

internalField   nonuniform List<scalar> 
4488
(
-4.48877e-05
4.48876e-05
1.43553e-12
-0.000122786
7.78982e-05
4.32181e-12
-0.000204017
8.12308e-05
8.52009e-12
-0.000266246
6.22296e-05
1.42048e-11
-0.000290055
2.38085e-05
2.06689e-11
-0.00025712
-3.29345e-05
2.87362e-11
-0.000149293
-0.000107827
3.74854e-11
4.96901e-05
-0.000198983
4.67132e-11
0.000347371
-0.00029768
5.52943e-11
-0.000373798
6.19186e-11
0.000721169
-3.91052e-05
8.39929e-05
-0.000102487
0.00014128
-0.000160536
0.000139279
-0.000190292
9.19864e-05
-0.000171269
4.78542e-06
-8.40161e-05
-0.000120188
9.12727e-05
-0.000283116
0.00037334
-0.00048105
0.000775224
-0.000699565
-0.000882363
0.00128379
-2.80996e-05
0.000112092
-6.35437e-05
0.000176724
-7.67358e-05
0.000152471
-4.34556e-05
5.87062e-05
5.8484e-05
-9.71542e-05
0.000251109
-0.000312812
0.000556754
-0.000588762
0.000998087
-0.000922383
0.00159518
-0.00129665
-0.00163849
0.00235131
-1.28753e-05
0.000124968
-8.76258e-06
0.000172612
4.16868e-05
0.000102022
0.000164681
-6.4288e-05
0.000385019
-0.000317493
0.000727343
-0.000655136
0.00121666
-0.00107808
0.00187872
-0.00158444
0.00273873
-0.00215667
-0.00271444
0.00381468
5.6993e-06
0.000119268
5.81649e-05
0.000120146
0.000187701
-2.7514e-05
0.000422205
-0.000298792
0.000789139
-0.000684427
0.00131536
-0.00118135
0.00202693
-0.00178965
0.00294935
-0.00250685
0.00410708
-0.0033144
-0.00412809
0.00552072
2.6296e-05
9.29725e-05
0.000134288
1.2154e-05
0.000354305
-0.000247531
0.00071611
-0.000660598
0.00124874
-0.00121706
0.00197928
-0.00191189
0.00293112
-0.00274149
0.00412329
-0.00369903
0.0055709
-0.00476201
-0.00583613
0.00727895
4.85707e-05
4.44018e-05
0.000216803
-0.000156079
0.000535038
-0.000565765
0.00103329
-0.00115885
0.00173978
-0.00192354
0.00267783
-0.00284995
0.00386245
-0.0039261
0.00529773
-0.00513431
0.00697711
-0.00644139
-0.00773396
0.00887494
7.21072e-05
-2.77054e-05
0.000303785
-0.000387756
0.000723852
-0.000985832
0.00135999
-0.00179499
0.00223514
-0.0027987
0.00336303
-0.00397784
0.0047442
-0.00530727
0.0063625
-0.00675261
0.00817504
-0.00825393
-0.00965495
0.010096
9.67535e-05
-0.000124459
0.00039324
-0.000684243
0.000914073
-0.00150667
0.00168009
-0.00256101
0.00270246
-0.00382107
0.00397752
-0.00525289
0.00548448
-0.00681423
0.00718819
-0.00845631
0.00906176
-0.0101275
-0.011811
0.0112178
0.000122242
-0.000246701
0.000482571
-0.00104457
0.00109724
-0.00212134
0.00197414
-0.0034379
0.00310498
-0.00495191
0.00446097
-0.00660888
0.00599387
-0.00834713
0.00764341
-0.0101059
0.00935197
-0.0118361
-0.0135307
0.0110717
0.000147913
-0.000394614
0.000567939
-0.0014646
0.00126254
-0.00281594
0.00221994
-0.00439529
0.00340612
-0.0061381
0.00476435
-0.00796711
0.00622247
-0.00980525
0.00770592
-0.0115893
0.00915132
-0.0132815
-0.0148767
0.0104973
0.000172599
-0.000567213
0.00064408
-0.00193608
0.00139712
-0.00356899
0.00239456
-0.00539273
0.00357419
-0.00731772
0.00485533
-0.00924825
0.00615367
-0.0111036
0.00739818
-0.0128338
0.00854269
-0.014426
-0.0158951
0.00956108
0.00019465
-0.000761863
0.000704702
-0.00244613
0.00148768
-0.00435196
0.0024781
-0.00638316
0.00358846
-0.00842808
0.00472437
-0.0103842
0.00580472
-0.0121839
0.00677744
-0.0138065
0.0076245
-0.015273
-0.0166242
0.00835364
0.000212103
-0.000973966
0.000743331
-0.00297736
0.00152266
-0.00513129
0.00245755
-0.00731804
0.00344327
-0.00941381
0.00438512
-0.011326
0.00521845
-0.0130173
0.0059176
-0.0145057
0.00649096
-0.0158464
-0.0171004
0.00696716
0.000222957
-0.00119692
0.000754348
-0.00350875
0.00149441
-0.00587135
0.00232922
-0.00815285
0.00314819
-0.0102328
0.00386865
-0.0120465
0.00445
-0.0135986
0.00489227
-0.0149479
0.00522234
-0.0161765
-0.0173551
0.00547704
0.000225456
-0.00142238
0.000733902
-0.0040172
0.00140042
-0.00653787
0.00209882
-0.00885125
0.00272434
-0.0108583
0.00321471
-0.0125368
0.00355452
-0.0139384
0.00376362
-0.015157
0.0038783
-0.0162912
-0.0174122
0.0039354
0.000218332
-0.00164071
0.000680469
-0.00447933
0.00124347
-0.00710087
0.00177956
-0.00938735
0.00219925
-0.011278
0.00246415
-0.0128017
0.00258037
-0.0140547
0.00257978
-0.0151564
0.00250046
-0.0162118
-0.0172871
0.00237538
0.00020097
-0.00184168
0.000594987
-0.00487335
0.00103079
-0.00753668
0.00138927
-0.00974583
0.00160218
-0.0114909
0.00165423
-0.0128538
0.00156717
-0.0139676
0.0013776
-0.0149669
0.001119
-0.0159532
-0.0169846
0.000816441
0.000173477
-0.00201516
0.000480603
-0.00518048
0.000772701
-0.00782878
0.000947564
-0.00992069
0.000960684
-0.011504
0.000816543
-0.0127096
0.000545828
-0.0136969
0.000185285
-0.0146063
-0.000236792
-0.0155312
-0.0165122
-0.000709194
0.000136671
-0.00215183
0.00034217
-0.00538598
0.00048119
-0.00796779
0.00047367
-0.00991317
0.000298972
-0.0113293
-2.46344e-05
-0.012386
-0.000460065
-0.0132615
-0.000976002
-0.0140904
-0.00155177
-0.0149554
-0.0158928
-0.00217119
9.20286e-05
-0.00224386
0.000185705
-0.00547965
0.00016925
-0.00795134
-1.23132e-05
-0.00973161
-0.000361989
-0.0109796
-0.00084671
-0.0119013
-0.00143203
-0.0126761
-0.00209155
-0.0134309
-0.00281008
-0.0142369
-0.0151275
-0.00357537
4.16882e-05
-0.00228554
2.03051e-05
-0.00545827
-0.000152908
-0.00777813
-0.000501669
-0.00938285
-0.00100776
-0.0104735
-0.00163733
-0.0112717
-0.00235728
-0.0119562
-0.00314786
-0.0126403
-0.00400009
-0.0133846
-0.0142231
-0.00490446
-1.40703e-05
-0.00227147
-0.000155272
-0.00531707
-0.000475524
-0.00745787
-0.000975501
-0.00888287
-0.00162425
-0.0098248
-0.00238382
-0.0105122
-0.00322522
-0.0111148
-0.00413444
-0.0117311
-0.00510669
-0.0124124
-0.0131856
-0.00614422
-7.07309e-05
-0.00220074
-0.000328278
-0.00505952
-0.00078734
-0.00699881
-0.00142531
-0.0082449
-0.00220147
-0.00904864
-0.00307764
-0.009636
-0.00402935
-0.0101631
-0.00504795
-0.0107125
-0.00613887
-0.0113215
-0.0120467
-0.0072777
-0.000127331
-0.00207341
-0.000494806
-0.00469205
-0.00108098
-0.00641264
-0.00184222
-0.00748367
-0.00273091
-0.00815994
-0.00371092
-0.00865599
-0.00476307
-0.00911091
-0.0058804
-0.00959515
-0.00706266
-0.0101392
-0.0107365
-0.00837294
-0.00018154
-0.00189187
-0.000650221
-0.00422336
-0.00134994
-0.00571293
-0.00221906
-0.00661455
-0.00320528
-0.00717372
-0.00427507
-0.0075862
-0.00541347
-0.00797251
-0.00661818
-0.00839044
-0.00789851
-0.0088589
-0.00936921
-0.00926576
-0.000231501
-0.00166037
-0.000790461
-0.0036644
-0.00158898
-0.00491441
-0.00255048
-0.00565305
-0.00361972
-0.00610448
-0.00476611
-0.00643981
-0.00597877
-0.00675985
-0.00725917
-0.00711003
-0.00861587
-0.00750219
-0.00793361
-0.0100515
-0.000275604
-0.00138477
-0.000912161
-0.00302785
-0.00179395
-0.00403262
-0.00283236
-0.00461465
-0.00397057
-0.00496626
-0.00518102
-0.00522936
-0.00645636
-0.00548451
-0.00780028
-0.00576612
-0.00922046
-0.00608201
-0.0064326
-0.0107215
-0.000312501
-0.00107227
-0.00101261
-0.00232774
-0.00196156
-0.00308367
-0.00306145
-0.00351475
-0.00425478
-0.00377293
-0.00551673
-0.0039674
-0.00684282
-0.00415842
-0.00823829
-0.00437065
-0.00971108
-0.00460923
-0.00487571
-0.011268
-0.000341111
-0.000731155
-0.00108972
-0.00157913
-0.00208934
-0.00208405
-0.00323532
-0.00236877
-0.00446999
-0.00253827
-0.00577077
-0.00266662
-0.00713533
-0.00279387
-0.00857008
-0.0029359
-0.0100835
-0.00309584
-0.00327526
-0.0116839
-0.000360631
-0.000370524
-0.00114196
-0.000797799
-0.00217549
-0.00105052
-0.00335219
-0.00119207
-0.00461443
-0.00127603
-0.00594122
-0.00133983
-0.00733165
-0.00140344
-0.00879291
-0.00147463
-0.0103339
-0.00155489
-0.00164513
-0.011964
-0.000370524
1.60299e-12
-0.00116832
3.42664e-12
-0.00221884
5.46028e-12
-0.00341091
6.73877e-12
-0.00468694
7.98812e-12
-0.00602677
8.66602e-12
-0.00743021
9.02097e-12
-0.00890484
9.3461e-12
-0.0104597
9.67197e-12
9.77037e-12
-0.0121049
-0.000370524
0.000370524
-0.00116832
0.000797799
-0.00221884
0.00105052
-0.00341091
0.00119207
-0.00468694
0.00127603
-0.00602677
0.00133983
-0.00743021
0.00140344
-0.00890484
0.00147463
-0.0104597
0.00155489
0.00164513
-0.0121049
-0.000360631
0.000731155
-0.00114196
0.00157913
-0.00217549
0.00208405
-0.00335219
0.00236877
-0.00461443
0.00253827
-0.00594122
0.00266662
-0.00733165
0.00279387
-0.00879291
0.0029359
-0.0103339
0.00309584
0.00327526
-0.011964
-0.000341111
0.00107227
-0.00108972
0.00232774
-0.00208934
0.00308367
-0.00323532
0.00351475
-0.00446999
0.00377293
-0.00577077
0.0039674
-0.00713533
0.00415842
-0.00857008
0.00437065
-0.0100835
0.00460923
0.00487571
-0.0116839
-0.000312501
0.00138477
-0.00101261
0.00302785
-0.00196156
0.00403262
-0.00306145
0.00461465
-0.00425478
0.00496626
-0.00551673
0.00522936
-0.00684282
0.00548451
-0.00823829
0.00576612
-0.00971108
0.00608201
0.0064326
-0.011268
-0.000275604
0.00166037
-0.000912161
0.0036644
-0.00179395
0.00491441
-0.00283236
0.00565305
-0.00397057
0.00610448
-0.00518102
0.00643981
-0.00645636
0.00675985
-0.00780028
0.00711003
-0.00922046
0.0075022
0.00793361
-0.0107215
-0.000231501
0.00189187
-0.000790461
0.00422336
-0.00158898
0.00571293
-0.00255048
0.00661455
-0.00361972
0.00717372
-0.00476611
0.0075862
-0.00597877
0.00797251
-0.00725917
0.00839044
-0.00861587
0.0088589
0.00936921
-0.0100515
-0.00018154
0.00207341
-0.000650221
0.00469205
-0.00134994
0.00641264
-0.00221906
0.00748367
-0.00320528
0.00815994
-0.00427507
0.00865599
-0.00541347
0.00911091
-0.00661818
0.00959515
-0.00789851
0.0101392
0.0107365
-0.00926576
-0.000127331
0.00220074
-0.000494806
0.00505952
-0.00108098
0.00699881
-0.00184222
0.0082449
-0.00273091
0.00904864
-0.00371092
0.009636
-0.00476307
0.0101631
-0.0058804
0.0107125
-0.00706266
0.0113215
0.0120467
-0.00837294
-7.07309e-05
0.00227147
-0.000328278
0.00531707
-0.00078734
0.00745787
-0.00142531
0.00888287
-0.00220147
0.0098248
-0.00307764
0.0105122
-0.00402935
0.0111148
-0.00504795
0.0117311
-0.00613887
0.0124124
0.0131856
-0.0072777
-1.40703e-05
0.00228554
-0.000155272
0.00545827
-0.000475524
0.00777813
-0.000975501
0.00938285
-0.00162425
0.0104735
-0.00238382
0.0112717
-0.00322522
0.0119562
-0.00413444
0.0126403
-0.00510669
0.0133846
0.0142231
-0.00614422
4.16882e-05
0.00224386
2.03051e-05
0.00547965
-0.000152908
0.00795134
-0.000501669
0.00973161
-0.00100776
0.0109796
-0.00163733
0.0119013
-0.00235728
0.0126761
-0.00314786
0.0134309
-0.00400009
0.0142369
0.0151275
-0.00490446
9.20286e-05
0.00215183
0.000185705
0.00538598
0.00016925
0.00796779
-1.23132e-05
0.00991317
-0.000361989
0.0113293
-0.00084671
0.012386
-0.00143203
0.0132615
-0.00209155
0.0140904
-0.00281008
0.0149554
0.0158928
-0.00357537
0.000136671
0.00201516
0.00034217
0.00518048
0.00048119
0.00782878
0.00047367
0.00992069
0.000298972
0.011504
-2.46344e-05
0.0127096
-0.000460065
0.0136969
-0.000976002
0.0146063
-0.00155177
0.0155312
0.0165122
-0.00217119
0.000173477
0.00184168
0.000480603
0.00487335
0.000772701
0.00753668
0.000947564
0.00974583
0.000960684
0.0114909
0.000816543
0.0128538
0.000545828
0.0139676
0.000185285
0.0149669
-0.000236792
0.0159532
0.0169846
-0.000709194
0.00020097
0.00164071
0.000594987
0.00447933
0.00103079
0.00710087
0.00138927
0.00938735
0.00160218
0.011278
0.00165423
0.0128017
0.00156717
0.0140547
0.0013776
0.0151564
0.001119
0.0162118
0.0172871
0.000816441
0.000218332
0.00142238
0.000680469
0.0040172
0.00124347
0.00653787
0.00177956
0.00885125
0.00219925
0.0108583
0.00246415
0.0125368
0.00258037
0.0139384
0.00257978
0.015157
0.00250046
0.0162912
0.0174122
0.00237538
0.000225456
0.00119692
0.000733902
0.00350875
0.00140042
0.00587135
0.00209882
0.00815285
0.00272434
0.0102328
0.00321471
0.0120465
0.00355452
0.0135986
0.00376362
0.0149479
0.0038783
0.0161765
0.0173551
0.0039354
0.000222957
0.000973966
0.000754348
0.00297736
0.00149441
0.00513129
0.00232922
0.00731804
0.00314819
0.00941381
0.00386865
0.011326
0.00445
0.0130173
0.00489227
0.0145057
0.00522234
0.0158464
0.0171004
0.00547704
0.000212103
0.000761863
0.000743331
0.00244613
0.00152266
0.00435196
0.00245755
0.00638316
0.00344327
0.00842808
0.00438512
0.0103842
0.00521845
0.0121839
0.0059176
0.0138065
0.00649096
0.015273
0.0166242
0.00696716
0.00019465
0.000567213
0.000704702
0.00193608
0.00148768
0.00356899
0.0024781
0.00539273
0.00358846
0.00731772
0.00472437
0.00924825
0.00580472
0.0111036
0.00677744
0.0128338
0.0076245
0.014426
0.0158951
0.00835364
0.000172599
0.000394614
0.00064408
0.0014646
0.00139712
0.00281594
0.00239456
0.00439529
0.00357419
0.0061381
0.00485533
0.00796711
0.00615368
0.00980525
0.00739818
0.0115893
0.00854269
0.0132815
0.0148767
0.00956108
0.000147913
0.000246701
0.000567939
0.00104457
0.00126254
0.00212134
0.00221994
0.0034379
0.00340612
0.00495191
0.00476435
0.00660888
0.00622247
0.00834713
0.00770592
0.0101059
0.00915132
0.0118361
0.0135307
0.0104973
0.000122242
0.000124459
0.000482571
0.000684243
0.00109724
0.00150667
0.00197414
0.00256101
0.00310498
0.00382107
0.00446097
0.00525289
0.00599387
0.00681423
0.00764341
0.00845631
0.00935197
0.0101275
0.011811
0.0110717
9.67535e-05
2.77054e-05
0.00039324
0.000387756
0.000914073
0.000985832
0.00168009
0.00179499
0.00270246
0.0027987
0.00397752
0.00397784
0.00548448
0.00530727
0.00718819
0.00675261
0.00906176
0.00825393
0.00965495
0.0112178
7.21072e-05
-4.44018e-05
0.000303785
0.000156079
0.000723852
0.000565765
0.00135999
0.00115885
0.00223514
0.00192354
0.00336303
0.00284995
0.0047442
0.0039261
0.0063625
0.00513431
0.00817504
0.00644139
0.00773396
0.010096
4.85707e-05
-9.29725e-05
0.000216803
-1.2154e-05
0.000535038
0.000247531
0.00103329
0.000660597
0.00173978
0.00121706
0.00267783
0.00191189
0.00386245
0.00274149
0.00529773
0.00369903
0.00697711
0.00476201
0.00583613
0.00887494
2.6296e-05
-0.000119268
0.000134288
-0.000120146
0.000354305
2.7514e-05
0.00071611
0.000298792
0.00124874
0.000684427
0.00197928
0.00118135
0.00293112
0.00178965
0.00412329
0.00250685
0.0055709
0.0033144
0.00412809
0.00727895
5.6993e-06
-0.000124968
5.81649e-05
-0.000172612
0.000187701
-0.000102022
0.000422205
6.42879e-05
0.000789139
0.000317492
0.00131536
0.000655136
0.00202693
0.00107808
0.00294935
0.00158444
0.00410708
0.00215667
0.00271444
0.00552072
-1.28753e-05
-0.000112092
-8.76257e-06
-0.000176724
4.16868e-05
-0.000152471
0.000164681
-5.87062e-05
0.000385019
9.71541e-05
0.000727343
0.000312812
0.00121666
0.000588762
0.00187872
0.000922383
0.00273873
0.00129665
0.00163849
0.00381468
-2.80996e-05
-8.39929e-05
-6.35437e-05
-0.00014128
-7.67358e-05
-0.000139279
-4.34556e-05
-9.19864e-05
5.8484e-05
-4.78546e-06
0.000251109
0.000120188
0.000556754
0.000283116
0.000998087
0.00048105
0.00159518
0.000699565
0.000882363
0.00235131
-3.91052e-05
-4.48877e-05
-0.000102487
-7.78982e-05
-0.000160536
-8.12308e-05
-0.000190292
-6.22296e-05
-0.000171269
-2.38085e-05
-8.40161e-05
3.29344e-05
9.12728e-05
0.000107827
0.00037334
0.000198983
0.000775224
0.00029768
0.000373798
0.00128379
-4.48877e-05
-0.000122786
-0.000204017
-0.000266246
-0.000290055
-0.00025712
-0.000149293
4.96902e-05
0.000347371
0.000721169
0.00106779
-0.000346625
1.16676e-10
0.00146564
-0.000397846
9.20812e-11
0.00189824
-0.000432606
4.12469e-11
0.00234782
-0.000449573
-2.65138e-11
0.00281093
-0.000463111
-1.06072e-10
0.00328084
-0.000469912
-1.85985e-10
0.0037507
-0.00046986
-2.56065e-10
0.00421582
-0.000465115
-3.065e-10
0.00467345
-0.000457637
-3.32844e-10
0.00512236
-0.000448909
-3.31788e-10
0.0055623
-0.000439933
-3.0419e-10
0.00599351
-0.000431213
-2.538e-10
0.00641636
-0.000422852
-1.85796e-10
0.00683103
-0.000414667
-1.07792e-10
0.00723743
-0.000406402
-2.48e-11
0.00763506
-0.000397625
5.49622e-11
0.0080234
-0.000388344
1.26775e-10
0.00840114
-0.000377735
1.86394e-10
0.00876838
-0.000367242
2.3139e-10
0.00912189
-0.000353512
2.58886e-10
0.00946575
-0.00034386
2.72997e-10
0.00978932
-0.000323572
2.66223e-10
0.0101105
-0.000321184
2.59716e-10
-0.000287877
2.14534e-10
0.00161131
-0.000674149
0.00198095
-0.000767481
0.00238841
-0.000840063
0.00281494
-0.000876112
0.00325503
-0.000903197
0.00370162
-0.000916501
0.004148
-0.000916236
0.00458968
-0.000906802
0.00502416
-0.000892112
0.00545034
-0.000875086
0.00586808
-0.000857675
0.00627772
-0.000840851
0.00667968
-0.000824817
0.00707421
-0.000809201
0.00746132
-0.000793506
0.00784055
-0.000776861
0.00821152
-0.000759307
0.00857294
-0.000739155
0.00892503
-0.000719333
0.0092646
-0.000693082
0.0095957
-0.000674962
0.00990808
-0.000635954
0.0102186
-0.000631691
-0.000568054
0.00263303
-0.000955874
0.00294836
-0.00108281
0.00330631
-0.00119801
0.00368753
-0.00125733
0.00408278
-0.00129845
0.0044843
-0.00131802
0.00488572
-0.00131765
0.005283
-0.00130409
0.00567399
-0.0012831
0.00605783
-0.00125892
0.00643451
-0.00123436
0.00680444
-0.00121078
0.00716812
-0.00118849
0.00752586
-0.00116694
0.00787776
-0.00114541
0.0082235
-0.0011226
0.00856284
-0.00109864
0.00889459
-0.0010709
0.00921914
-0.00104388
0.00953338
-0.00100732
0.00984129
-0.000982871
0.0101334
-0.000928035
0.0104245
-0.00092283
-0.000834267
0.00401269
-0.00115388
0.00425163
-0.00132176
0.00453812
-0.0014845
0.00485337
-0.00157258
0.00518437
-0.00162945
0.00552222
-0.00165587
0.00586116
-0.00165659
0.00619778
-0.0016407
0.00653026
-0.00161558
0.0068579
-0.00158657
0.0071807
-0.00155715
0.00749899
-0.00152907
0.00781321
-0.00150272
0.00812366
-0.00147739
0.00843051
-0.00145226
0.00873349
-0.00142558
0.0090325
-0.00139766
0.00932648
-0.00136488
0.00961598
-0.00133337
0.00989804
-0.00128939
0.0101765
-0.00126129
0.0104428
-0.00119442
0.0107095
-0.00118944
-0.00108283
0.00559214
-0.0012253
0.00573871
-0.00146833
0.00593648
-0.00168227
0.00616807
-0.00180417
0.00641899
-0.00188036
0.00667934
-0.00191623
0.0069441
-0.00192135
0.00721042
-0.00190702
0.0074766
-0.00188176
0.00774176
-0.00185173
0.0080056
-0.00182099
0.00826813
-0.0017916
0.0085295
-0.00176409
0.00878982
-0.00173771
0.00904916
-0.00171159
0.00930724
-0.00168366
0.00956405
-0.00165447
0.00981859
-0.00161942
0.0100715
-0.00158631
0.0103201
-0.00153801
0.0105679
-0.00150904
0.0108078
-0.00143428
0.011049
-0.00143074
-0.00131333
0.00719479
-0.00114114
0.0072411
-0.00151464
0.00733813
-0.0017793
0.00747323
-0.00193927
0.00763362
-0.00204075
0.0078095
-0.0020921
0.00799627
-0.00210813
0.00819108
-0.00210183
0.00839178
-0.00208246
0.0085968
-0.00205675
0.0088051
-0.00202929
0.00901603
-0.00200253
0.0092292
-0.00197726
0.00944431
-0.00195282
0.00966118
-0.00192846
0.00987939
-0.00190188
0.0100989
-0.00187399
0.0103188
-0.00183927
0.0105396
-0.00180716
0.0107591
-0.00175752
0.0109801
-0.00173002
0.0111973
-0.00165146
0.0114168
-0.00165029
-0.00152868
0.00865133
-0.000917531
0.00859626
-0.00145957
0.00858405
-0.00176709
0.00861588
-0.00197111
0.00868278
-0.00210765
0.00877619
-0.00218551
0.00889083
-0.00222277
0.00902252
-0.00223352
0.00916771
-0.00222765
0.00932352
-0.00221257
0.00948775
-0.00219352
0.00965878
-0.00217356
0.00983549
-0.00215397
0.010017
-0.00213435
0.0102028
-0.00211426
0.0103922
-0.00209128
0.010585
-0.0020668
0.0107803
-0.00203457
0.0109786
-0.00200544
0.011178
-0.0019569
0.0113805
-0.00193255
0.0115827
-0.00185364
0.011788
-0.00185557
-0.00173467
0.0098809
-0.000702401
0.0096964
-0.00127507
0.00955844
-0.00162914
0.00948401
-0.00189668
0.00946272
-0.00208635
0.00948445
-0.00220724
0.00954079
-0.0022791
0.00962471
-0.00231744
0.00973049
-0.00233342
0.00985347
-0.00233555
0.00999005
-0.0023301
0.0101375
-0.00232097
0.0102937
-0.00231025
0.0104574
-0.00229801
0.0106274
-0.00228426
0.0108028
-0.00226668
0.0109831
-0.00224712
0.0111675
-0.00221894
0.011356
-0.00219392
0.0115476
-0.00214852
0.0117426
-0.00212755
0.011941
-0.00205205
0.0121403
-0.00205489
-0.00194059
0.0279154
0.000470131
-0.0290879
0.0269644
-0.000324116
0.0262189
-0.000883578
0.0256285
-0.00130633
0.0251576
-0.00161546
0.0247809
-0.00183051
0.0244793
-0.0019775
0.0242389
-0.00207704
0.0240488
-0.00214338
0.0239002
-0.00218689
0.0237853
-0.00221525
0.0236979
-0.00223354
0.0236325
-0.00224489
0.0235848
-0.00225031
0.0235514
-0.00225079
0.0235296
-0.00224488
0.0235176
-0.0022351
0.0235147
-0.00221608
0.0235193
-0.00219847
0.0235341
-0.00216334
0.0235527
-0.00214615
0.0235886
-0.00208794
0.0236168
-0.00208315
-0.00199983
0.0305125
0.00105384
-0.0310962
0.0298865
0.000301865
0.0292956
-0.00029268
0.0287492
-0.000759896
0.0282515
-0.00111777
0.0278077
-0.00138673
0.027416
-0.00158582
0.0270716
-0.00173265
0.0267693
-0.00184101
0.0265036
-0.00192125
0.0262695
-0.00198107
0.0260617
-0.00202576
0.0258757
-0.00205885
0.0257073
-0.00208194
0.0255532
-0.00209669
0.0254108
-0.0021025
0.0252782
-0.00210247
0.0251548
-0.00209272
0.0250392
-0.00208288
0.0249342
-0.00205832
0.0248351
-0.00204709
0.0247525
-0.00200531
0.0246711
-0.00200175
-0.00194304
0.031274
0.0013121
-0.0315322
0.0309551
0.000620767
0.030594
6.83621e-05
0.0302105
-0.0003764
0.0298236
-0.000730852
0.0294473
-0.00101039
0.0290892
-0.00122778
0.0287524
-0.00139586
0.0284376
-0.00152614
0.028144
-0.00162766
0.0278701
-0.00170721
0.0276138
-0.00176946
0.0273726
-0.00181764
0.027144
-0.00185337
0.0269258
-0.00187848
0.0267163
-0.00189298
0.026514
-0.00190016
0.0263188
-0.00189759
0.0261298
-0.00189386
0.0259497
-0.00187821
0.0257752
-0.0018726
0.0256151
-0.00184517
0.0254582
-0.00184491
-0.00180772
0.0312378
0.00135016
-0.0312759
0.0311086
0.000749928
0.0309157
0.000261322
0.0306757
-0.000136398
0.0304079
-0.00046306
0.030126
-0.000728543
0.0298398
-0.000941574
0.0295551
-0.00111116
0.0292753
-0.00124634
0.0290023
-0.00135465
0.0287369
-0.00144179
0.028479
-0.00151159
0.0282281
-0.00156673
0.0279833
-0.00160856
0.0277436
-0.00163878
0.0275083
-0.00165771
0.0272768
-0.0016686
0.0270494
-0.00167016
0.0268255
-0.00166998
0.0266079
-0.00166059
0.0263942
-0.00165892
0.0261916
-0.0016426
0.025992
-0.0016453
-0.00162574
0.0308956
0.00126556
-0.030811
0.030879
0.000766484
0.030793
0.000347349
0.0306541
2.47103e-06
0.0304772
-0.000286115
0.0302743
-0.000525626
0.0300547
-0.000722026
0.029825
-0.000881441
0.0295894
-0.00101076
0.0293509
-0.00111612
0.0291113
-0.00120215
0.0288716
-0.00127194
0.0286325
-0.00132758
0.028394
-0.00137014
0.0281563
-0.00140106
0.0279194
-0.0014208
0.0276832
-0.0014324
0.0274485
-0.00143548
0.0272151
-0.00143659
0.0269855
-0.00143091
0.0267578
-0.00143131
0.026538
-0.00142274
0.0263199
-0.00142725
-0.00142056
0.0304844
0.00112019
-0.030339
0.0305334
0.000717461
0.0305128
0.000367943
0.0304395
7.58367e-05
0.0303243
-0.000170951
0.0301779
-0.000379264
0.0300087
-0.000552768
0.0298228
-0.000695609
0.029625
-0.000812897
0.0294183
-0.000909449
0.0292051
-0.000988991
0.0289871
-0.00105394
0.0287655
-0.0011059
0.028541
-0.00114565
0.0283143
-0.00117437
0.0280861
-0.00119261
0.0278568
-0.00120309
0.0276274
-0.00120605
0.0273978
-0.00120703
0.0271702
-0.00120326
0.0269432
-0.00120434
0.0267211
-0.00120064
0.0264997
-0.00120582
-0.0012074
0.0301011
0.000946965
-0.0299278
0.0301878
0.000630715
0.0302077
0.000348002
0.0301757
0.000107868
0.0301016
-9.68491e-05
0.029994
-0.000271639
0.0298602
-0.000418984
0.0297062
-0.000541633
0.0295366
-0.000643253
0.0293546
-0.000727509
0.0291629
-0.000797298
0.0289635
-0.00085447
0.0287578
-0.000900211
0.0285472
-0.000935085
0.0283329
-0.000960026
0.0281159
-0.000975598
0.0278969
-0.000984131
0.0276771
-0.000986275
0.0274567
-0.000986592
0.0272372
-0.00098372
0.0270175
-0.000984716
0.0268007
-0.000983771
0.0265836
-0.000988784
-0.000994799
0.029776
0.000762048
-0.0295911
0.0298848
0.000521974
0.0299306
0.000302185
0.0299258
0.000112605
0.0298794
-5.03863e-05
0.0297984
-0.000190665
0.0296894
-0.000310027
0.0295581
-0.000410249
0.0294087
-0.000493874
0.0292448
-0.000563578
0.029069
-0.00062152
0.0288836
-0.000669064
0.0286904
-0.000707052
0.0284912
-0.000735878
0.0282874
-0.000756252
0.0280805
-0.000768707
0.0278716
-0.000775146
0.0276617
-0.000776399
0.0274512
-0.000776067
0.0272411
-0.000773711
0.0270308
-0.000774346
0.0268218
-0.000774754
0.026612
-0.000779066
-0.000786654
0.0295161
0.000572733
-0.0293268
0.029638
0.000400081
0.0297009
0.000239263
0.0297148
9.87508e-05
0.0296873
-2.29612e-05
0.029625
-0.000128301
0.0295335
-0.00021858
0.0294182
-0.000294885
0.0292832
-0.000358904
0.0291321
-0.000412479
0.0289677
-0.000457124
0.0287924
-0.000493788
0.0286084
-0.000523036
0.0284177
-0.000545129
0.028222
-0.000560575
0.0280231
-0.00056983
0.0278223
-0.000574337
0.0276208
-0.000574922
0.027419
-0.00057422
0.0272176
-0.000572348
0.0270159
-0.000572603
0.0268146
-0.000573531
0.0266124
-0.000576823
-0.000584029
0.0293218
0.000382071
-0.0291311
0.0294516
0.000270318
0.0295257
0.000165097
0.0295522
7.23129e-05
0.0295377
-8.53514e-06
0.0294882
-7.87754e-05
0.0294089
-0.000139288
0.0293047
-0.000190673
0.0291798
-0.000233953
0.0290376
-0.000270277
0.028881
-0.000300599
0.0287128
-0.000325513
0.0285351
-0.00034536
0.0283503
-0.0003603
0.0281603
-0.000370653
0.0279673
-0.000376766
0.0277725
-0.000379582
0.0275774
-0.000379794
0.0273822
-0.000379055
0.0271877
-0.000377775
0.0269928
-0.000377729
0.026798
-0.00037872
0.0266019
-0.000380768
-0.000386429
0.0291927
0.00019112
-0.0290018
0.029327
0.000136061
0.029408
8.40644e-05
0.0294423
3.80121e-05
0.029436
-2.28658e-06
0.0293947
-3.74016e-05
0.0293231
-6.77532e-05
0.0292261
-9.35918e-05
0.0291075
-0.000115403
0.028971
-0.000133744
0.0288194
-0.000149071
0.0286556
-0.00016167
0.0284819
-0.000171695
0.0283009
-0.00017923
0.0281146
-0.000184414
0.0279253
-0.000187462
0.0277345
-0.000188789
0.0275436
-0.000188878
0.0273529
-0.000188348
0.027163
-0.000187831
0.0269727
-0.000187482
0.0267825
-0.000188494
0.0265904
-0.000188695
-0.000192725
0.0291287
-0.0289376
0.0292648
0.0293488
0.0293868
0.0293846
0.0293472
0.0292794
0.0291858
0.0290704
0.0289367
0.0287876
0.0286259
0.0284542
0.028275
0.0280906
0.0279031
0.0277143
0.0275255
0.0273371
0.0271493
0.0269618
0.0267733
0.0265846
0.0116028
-0.0294729
0.011133
-0.0306264
0.0101696
-0.0305689
0.0090083
-0.0301145
0.00780506
-0.0296077
0.00661822
-0.0291522
0.00546219
-0.0287718
0.00433565
-0.0284646
0.00323283
-0.028224
0.00214715
-0.0280455
0.00107188
-0.0279265
-0.0278657
0.011115
-0.0295162
0.0103532
-0.0298646
0.00929283
-0.0295085
0.00815786
-0.0289796
0.00704026
-0.0284901
0.00596121
-0.0280731
0.00491752
-0.0277281
0.00390235
-0.0274494
0.00290914
-0.0272307
0.00193171
-0.027068
0.000963998
-0.0269588
-0.0269017
0.0101259
-0.0291448
0.00924838
-0.0289871
0.00823627
-0.0284964
0.00721573
-0.027959
0.00622326
-0.0274977
0.00526696
-0.0271169
0.00434281
-0.026804
0.00344463
-0.0265512
0.00256671
-0.0263528
0.00170355
-0.0262049
0.000849745
-0.026105
-0.026052
0.00896667
-0.0285503
0.00808518
-0.0281056
0.00714614
-0.0275574
0.00623572
-0.0270486
0.00536642
-0.0266284
0.00453519
-0.0262856
0.00373542
-0.0260042
0.0029603
-0.0257761
0.00220416
-0.0255967
0.00146193
-0.0254626
0.000728774
-0.0253718
-0.0253232
0.0076494
-0.0278461
0.00681743
-0.0272737
0.00598931
-0.0267293
0.00520881
-0.0262681
0.00447344
-0.025893
0.00377408
-0.0255863
0.00310377
-0.0253339
0.0024564
-0.0251287
0.00182681
-0.0249671
0.0012104
-0.0248462
0.000602854
-0.0247643
-0.0247203
0.00625001
-0.027129
0.00550691
-0.0265305
0.00480577
-0.0260281
0.00415914
-0.0256215
0.00355847
-0.0252923
0.00299275
-0.0250205
0.0024546
-0.0247957
0.0019382
-0.0246123
0.00143864
-0.0244675
0.000951649
-0.0243592
0.000473349
-0.024286
-0.024247
0.00480487
-0.0264568
0.00417053
-0.0258962
0.00360299
-0.0254606
0.00309356
-0.025112
0.00262932
-0.0248281
0.00219894
-0.0245902
0.00179486
-0.0243916
0.00141146
-0.0242289
0.00104405
-0.0241001
0.000688655
-0.0240039
0.000341758
-0.0239391
-0.0239052
0.0033446
-0.025866
0.00282999
-0.0253816
0.00239783
-0.0250284
0.00202495
-0.0247391
0.00169648
-0.0244996
0.00140127
-0.024295
0.00113164
-0.024122
0.000881851
-0.0239791
0.000647339
-0.0238656
0.000424324
-0.0237808
0.000209587
-0.0237243
-0.0236956
0.00188839
-0.025379
0.00149941
-0.0249926
0.00120246
-0.0247315
0.00096237
-0.0244991
0.000768384
-0.0243056
0.000607409
-0.024134
0.000471503
-0.0239861
0.000354752
-0.0238624
0.000252617
-0.0237635
0.000161442
-0.0236897
7.82004e-05
-0.0236411
-0.0236174
0.000428561
-0.0249911
0.000172454
-0.0247365
-1.51497e-06
-0.0245575
-9.65891e-05
-0.024404
-0.000154312
-0.0242479
-0.000180244
-0.0241081
-0.000182619
-0.0239837
-0.000166995
-0.023878
-0.000137745
-0.0237927
-9.83427e-05
-0.0237291
-5.17133e-05
-0.0236877
-0.0236692
-0.00097912
-0.0247212
-0.00110403
-0.0246116
-0.00113892
-0.0245226
-0.00111556
-0.0244273
-0.00104558
-0.0243179
-0.000943431
-0.0242102
-0.000817325
-0.0241098
-0.000673544
-0.0240218
-0.00051672
-0.0239495
-0.000350419
-0.0238954
-0.000177402
-0.0238607
-0.0238466
-0.00233215
-0.0245602
-0.00233978
-0.024604
-0.00225401
-0.0246084
-0.00210595
-0.0245754
-0.00191111
-0.0245127
-0.00168345
-0.0244379
-0.00143211
-0.0243612
-0.00116371
-0.0242902
-0.000883063
-0.0242302
-0.000593803
-0.0241846
-0.000298672
-0.0241559
-0.0241452
-0.00363169
-0.0245039
-0.00352479
-0.0247109
-0.00332245
-0.0248107
-0.00305477
-0.0248431
-0.00274003
-0.0248275
-0.00239207
-0.0247858
-0.00202062
-0.0247326
-0.00163265
-0.0246782
-0.00123325
-0.0246296
-0.000826189
-0.0245917
-0.000414311
-0.0245678
-0.0245595
-0.00485411
-0.0245543
-0.0046381
-0.0249269
-0.00432697
-0.0251218
-0.00394918
-0.0252209
-0.00352305
-0.0252536
-0.00306238
-0.0252465
-0.0025776
-0.0252174
-0.00207639
-0.0251794
-0.00156437
-0.0251416
-0.00104566
-0.0251104
-0.000523357
-0.0250901
-0.0250829
-0.00597675
-0.0247217
-0.00566936
-0.0252343
-0.00526331
-0.0255279
-0.00478635
-0.0256978
-0.00425744
-0.0257825
-0.00369144
-0.0258125
-0.0031001
-0.0258088
-0.00249224
-0.0257872
-0.00187426
-0.0257596
-0.00125073
-0.0257339
-0.000625061
-0.0257157
-0.025708
-0.00701473
-0.0249847