/*--------------------------------*- C++ -*----------------------------------*\
  =========                 |
  \\      /  F ield         | OpenFOAM: The Open Source CFD Toolbox
   \\    /   O peration     | Website:  https://openfoam.org
    \\  /    A nd           | Version:  7
     \\/     M anipulation  |
\*---------------------------------------------------------------------------*/
FoamFile
{
    version     2.0;
    format      ascii;
    class       surfaceScalarField;
    location    "5";
    object      phi;
}
// * * * * * * * * * * * * * * * * * * * * * * * * * * * * * * * * * * * * * //

dimensions      [0 3 -1 0 0 0 0];

internalField   nonuniform List<scalar> 
21
(
4.93269e-05
-2.14078e-11
9.19097e-05
0.000121828
1.12872e-05
0.00483204
0.00483204
-1.12871e-05
-0.000121828
-9.19097e-05
-4.93269e-05
0.0073881
0.00654806
0.00573015
0.00496919
0.0073881
0.00654806
0.00573015
0.00496919
0.00425837
0.00358689
)
;

boundaryField
{
    inlet
    {
        type            calculated;
        value           nonuniform 0();
    }
    outlet
    {
        type            calculated;
        value           nonuniform 0();
    }
    cylinder
    {
        type            calculated;
        value           uniform 0;
    }
    top
    {
        type            symmetryPlane;
        value           nonuniform 0();
    }
    bottom
    {
        type            symmetryPlane;
        value           nonuniform 0();
    }
    defaultFaces
    {
        type            empty;
        value           nonuniform 0();
    }
    procBoundary29to27
    {
        type            processor;
        value           nonuniform List<scalar> 
14
(
-0.0131485
-0.0131485
-0.0279694
-0.0272961
-0.0266736
-0.0261555
-0.0257342
-0.0279694
-0.0272961
-0.0266736
-0.0261555
-0.0257342
-0.0253905
-0.0251091
)
;
    }
    procBoundary29to28
    {
        type            processor;
        value           nonuniform List<scalar> 
32
(
0.000134586
-2.96078e-05
-5.28087e-05
-0.000168891
-0.000321773
-0.00104702
-0.000954894
-0.00270142
-0.00203818
-0.00518559
-0.00347349
-0.00826995
-0.0101499
-0.00615015
-0.00813096
-0.00813096
-0.00826995
-0.00615015
-0.0101499
-0.00347349
-0.00518559
-0.00203818
-0.00270142
-0.000954894
-0.00104702
-0.000321773
-0.000168891
-5.28087e-05
-2.96078e-05
0.000134586
0.00425837
0.00294645
)
;
    }
    procBoundary29to30
    {
        type            processor;
        value           nonuniform List<scalar> 
34
(
-4.93269e-05
-4.25828e-05
-2.99188e-05
-1.27576e-05
-0.000128912
0.000147232
0.000232987
0.000604577
0.000764215
0.00190585
0.00175047
0.00403029
0.00319348
0.0069114
0.00627018
0.0119572
0.00734149
0.00734149
0.0119571
0.0069114
0.00627018
0.00319348
0.00403029
0.00175047
0.00190585
0.000764215
0.000604577
0.000232987
0.000147232
-0.000128911
-1.27576e-05
-2.99188e-05
-4.25828e-05
-4.93269e-05
)
;
    }
    procBoundary29to31
    {
        type            processor;
        value           nonuniform List<scalar> 
14
(
0.00871178
0.00871178
0.0287123
0.0281361
0.0274915
0.0269164
0.0264451
0.0287123
0.0281361
0.0274915
0.0269164
0.0264451
0.026062
0.0257496
)
;
    }
}


// ************************************************************************* //
