/*--------------------------------*- C++ -*----------------------------------*\
  =========                 |
  \\      /  F ield         | OpenFOAM: The Open Source CFD Toolbox
   \\    /   O peration     | Website:  https://openfoam.org
    \\  /    A nd           | Version:  7
     \\/     M anipulation  |
\*---------------------------------------------------------------------------*/
FoamFile
{
    version     2.0;
    format      ascii;
    class       volVectorField;
    location    "28";
    object      U;
}
// * * * * * * * * * * * * * * * * * * * * * * * * * * * * * * * * * * * * * //

dimensions      [0 1 -1 0 0 0 0];

internalField   nonuniform List<vector> 
40000
(
(-0.000178169 0.000289938 -2.09177e-21)
(-0.00111884 0.000787751 6.4769e-21)
(-0.00313115 0.00121466 -4.13301e-21)
(-0.00597032 0.00157744 -3.95609e-24)
(-0.00950149 0.00188115 -8.93067e-25)
(-0.0136337 0.00213025 2.89558e-24)
(-0.0182729 0.00232925 -6.86471e-21)
(-0.0233273 0.00248257 1.63218e-21)
(-0.0287119 0.00259452 -4.65873e-21)
(-0.0343476 0.00266924 -1.47406e-21)
(-0.0401615 0.00271072 0)
(-0.0460871 0.00272279 -5.30786e-21)
(-0.0520636 0.00270904 0)
(-0.0580366 0.00267286 0)
(-0.0639577 0.00261743 -4.49867e-21)
(-0.0697838 0.00254573 4.25033e-21)
(-0.0754778 0.00246054 -2.00686e-21)
(-0.0810078 0.00236457 -1.55022e-24)
(-0.0863474 0.00226046 1.783e-21)
(-0.0914762 0.00215093 0)
(-0.0963796 0.00203882 -1.58172e-21)
(-0.10105 0.00192724 -4.46278e-21)
(-0.105487 0.00181962 5.59186e-21)
(-0.109701 0.00171967 -2.62608e-21)
(-0.113708 0.00163138 7.39386e-21)
(-0.11754 0.00155873 4.62396e-21)
(-0.121234 0.00150532 -8.66948e-21)
(-0.124839 0.00147357 8.12266e-21)
(-0.128403 0.00146466 -1.90143e-21)
(-0.131997 0.00148189 -3.56523e-21)
(-0.0002074 0.000871259 0)
(-0.00119424 0.00236732 4.3213e-21)
(-0.00323868 0.00365055 8.27863e-21)
(-0.00609845 0.00474119 -7.90064e-21)
(-0.00964019 0.0056543 -3.78395e-21)
(-0.013774 0.00640329 1.44089e-20)
(-0.0184068 0.00700166 -3.43836e-21)
(-0.0234477 0.0074627 -6.54582e-21)
(-0.0288123 0.00779931 -8.50804e-24)
(-0.0344225 0.00802397 -1.77109e-20)
(-0.0402057 0.00814871 5.59656e-21)
(-0.0460959 0.00818497 2.12391e-20)
(-0.0520329 0.00814361 -1.00559e-20)
(-0.0579624 0.00803481 -4.70154e-24)
(-0.0638362 0.00786811 -4.50624e-21)
(-0.0696114 0.00765241 -1.53694e-24)
(-0.0752507 0.0073961 0)
(-0.0807223 0.00710721 0)
(-0.0859994 0.00679366 1.42758e-20)
(-0.0910612 0.00646349 0)
(-0.0958925 0.0061252 6.32809e-21)
(-0.100485 0.00578807 -5.95036e-21)
(-0.104838 0.00546229 -7.14185e-25)
(-0.10896 0.00515907 0)
(-0.112868 0.00489037 9.86182e-21)
(-0.116591 0.0046683 -9.24796e-21)
(-0.120169 0.00450387 8.66947e-21)
(-0.123649 0.0044045 -8.12264e-21)
(-0.127079 0.00437414 7.60616e-21)
(-0.130532 0.00442262 -2.13933e-20)
(-0.000265452 0.00144449 -8.38225e-21)
(-0.00134402 0.00392581 -8.6377e-21)
(-0.00345236 0.00605522 0)
(-0.00635315 0.00786592 0)
(-0.00991597 0.00938261 0)
(-0.014053 0.0106273 7.2202e-21)
(-0.018673 0.0116223 0)
(-0.0236869 0.0123895 6.53723e-21)
(-0.0290119 0.0129501 1.24305e-20)
(-0.034571 0.0133247 1.18062e-20)
(-0.040293 0.0135334 0)
(-0.0461126 0.013595 6.9866e-24)
(-0.0519705 0.0135274 -2.01302e-20)
(-0.057813 0.0133477 1.90496e-20)
(-0.0635921 0.0130714 9.0006e-21)
(-0.0692653 0.0127134 8.50929e-21)
(-0.0747954 0.0122875 -8.02598e-21)
(-0.0801499 0.011807 1.51536e-20)
(-0.0853019 0.0112848 -2.85591e-20)
(-0.0902296 0.0107342 -1.33125e-25)
(-0.0949166 0.0101692 -2.53155e-20)
(-0.0993535 0.00960512 2.3816e-20)
(-0.103538 0.00905894 0)
(-0.107476 0.00854943 0)
(-0.111184 0.0080968 9.86821e-21)
(-0.11469 0.00772181 0)
(-0.118035 0.00744359 0)
(-0.121267 0.0072755 0)
(-0.124428 0.00722531 -1.52166e-20)
(-0.127597 0.00730993 1.42616e-20)
(-0.000351413 0.0020044 8.38225e-21)
(-0.00156594 0.00544954 8.00517e-24)
(-0.00376913 0.00840839 3.71952e-23)
(-0.00673091 0.0109262 -1.58257e-20)
(-0.0103251 0.0130368 -1.51194e-20)
(-0.014467 0.0147704 1.71168e-23)
(-0.019068 0.0161573 -2.75063e-20)
(-0.0240418 0.0172278 1.30977e-20)
(-0.0293077 0.0180112 -2.49037e-20)
(-0.0347906 0.0185359 2.36518e-20)
(-0.040421 0.0188295 -1.12203e-20)
(-0.0461349 0.0189182 2.12717e-20)
(-0.0518743 0.0188268 2.01301e-20)
(-0.0575862 0.0185787 1.63185e-23)
(-0.0632233 0.0181958 -1.80269e-20)
(-0.0687435 0.0176983 0)
(-0.0741093 0.0171054 7.92087e-25)
(-0.0792881 0.0164353 1.51627e-20)
(-0.0842521 0.0157059 9.16563e-25)
(-0.0889782 0.0149353 -7.82838e-24)
(-0.0934486 0.0141429 2.53229e-20)
(-0.0976516 0.0133498 -2.38159e-20)
(-0.101583 0.0125796 0)
(-0.105245 0.0118588 2.10325e-20)
(-0.108654 0.0112163 4.39864e-24)
(-0.111834 0.0106824 -5.55291e-20)
(-0.114827 0.0102856 1.73497e-20)
(-0.117684 0.0100466 3.25121e-20)
(-0.12044 0.0099793 1.52165e-20)
(-0.12318 0.0101085 1.42684e-20)
(-0.000463943 0.00254602 3.36446e-20)
(-0.00185669 0.00692549 -1.7332e-20)
(-0.00418448 0.0106906 1.65731e-20)
(-0.00722656 0.0138977 1.58561e-20)
(-0.0108623 0.0165888 0)
(-0.0150106 0.0188013 -2.89301e-20)
(-0.0195868 0.0205736 -1.37997e-20)
(-0.0245077 0.0219434 -2.62144e-20)
(-0.0296953 0.0229477 1.24522e-20)
(-0.0350772 0.0236224 2.89936e-23)
(-0.0405859 0.0240021 2.24679e-20)
(-0.0461594 0.0241202 2.13186e-20)
(-0.0517409 0.0240081 -4.03151e-20)
(-0.0572788 0.0236954 1.90866e-20)
(-0.0627265 0.0232096 -1.89039e-23)
(-0.0680422 0.0225766 0)
(-0.0731885 0.0218204 -1.6077e-20)
(-0.0781324 0.0209638 -3.03586e-20)
(-0.082845 0.0200294 4.29173e-20)
(-0.0873017 0.0190398 1.34849e-20)
(-0.0914827 0.0180192 0)
(-0.0953733 0.0169943 -2.38496e-20)
(-0.0989658 0.0159952 0)
(-0.10226 0.0150562 -6.31186e-20)
(-0.105268 0.0142155 3.94873e-20)
(-0.108012 0.013514 -4.89444e-24)
(-0.110534 0.0129913 3.47206e-20)
(-0.112888 0.0126781 -4.87678e-20)
(-0.115099 0.012597 3.04512e-20)
(-0.117264 0.0127834 1.42679e-20)
(-0.000601315 0.00306472 -1.68426e-20)
(-0.00221202 0.00834143 1.73315e-20)
(-0.00469259 0.0128837 -1.65405e-24)
(-0.00783342 0.0167573 -4.76958e-20)
(-0.0115204 0.0200115 0)
(-0.015677 0.0226905 2.89301e-20)
(-0.0202226 0.0248395 -2.76439e-20)
(-0.025078 0.0265032 5.24615e-20)
(-0.0301688 0.0277257 0)
(-0.0354253 0.0285498 -2.36807e-20)
(-0.0407828 0.029017 -2.24679e-20)
(-0.0461813 0.0291672 -2.12975e-20)
(-0.0515658 0.029038 -6.05858e-20)
(-0.0568861 0.0286651 2.58588e-24)
(-0.0620967 0.0280814 -1.77745e-23)
(-0.0671562 0.0273179 -1.38996e-23)
(-0.0720273 0.0264031 4.83182e-20)
(-0.0766764 0.0253643 -3.43194e-23)
(-0.0810735 0.0242279 3.11312e-23)
(-0.0851922 0.0230209 -2.69393e-20)
(-0.0890099 0.0217717 -1.98851e-23)
(-0.0925089 0.020512 4.77122e-20)
(-0.095677 0.0192783 -6.72814e-20)
(-0.0985103 0.0181126 2.10465e-20)
(-0.101015 0.0170628 0)
(-0.103211 0.0161819 0)
(-0.10514 0.015523 -3.47203e-20)
(-0.10686 0.0151301 3.25365e-20)
(-0.108384 0.0150393 -3.04466e-20)
(-0.109818 0.0152998 0)
(-0.000761463 0.00355628 -1.68941e-20)
(-0.0026268 0.00968622 0)
(-0.00528644 0.0149707 1.66393e-20)
(-0.00854342 0.0194835 9.55768e-20)
(-0.0122909 0.02328 -3.03869e-20)
(-0.0164574 0.02641 0)
(-0.0209671 0.0289247 -5.1919e-23)
(-0.0257452 0.0308754 2.63067e-20)
(-0.0307211 0.0323123 -2.49797e-20)
(-0.0358284 0.0332847 0)
(-0.0410053 0.0338404 0)
(-0.0461945 0.0340255 -4.27213e-20)
(-0.0513429 0.0338835 6.06142e-20)
(-0.0564021 0.0334555 -1.91159e-20)
(-0.0613275 0.0327797 0)
(-0.0660784 0.0318916 3.4172e-20)
(-0.0706176 0.0308242 -3.21998e-20)
(-0.074911 0.0296085 3.04127e-20)
(-0.0789273 0.0282744 -5.7296e-20)
(-0.082638 0.0268525 -8.09918e-20)
(-0.0860174 0.0253749 2.53857e-20)
(-0.0890438 0.0238778 2.38857e-20)
(-0.0917004 0.0224033 2.2423e-20)
(-0.0939774 0.0210008 0)
(-0.0958753 0.0197288 -3.95602e-20)
(-0.097409 0.0186535 0)
(-0.0986198 0.0178446 0)
(-0.0995711 0.0173637 -6.5086e-20)
(-0.10026 0.0172665 -1.00473e-23)
(-0.100798 0.0176233 -8.56249e-20)
(-0.000942037 0.00401702 1.68941e-20)
(-0.00309522 0.0109499 3.49247e-20)
(-0.00595805 0.0169366 3.34337e-20)
(-0.00934731 0.022057 -3.18847e-20)
(-0.0131641 0.0263711 0)
(-0.0173421 0.0299337 0)
(-0.0218109 0.0328011 2.76587e-20)
(-0.0265001 0.0350299 -2.63568e-20)
(-0.0313434 0.0366761 -3.89296e-23)
(-0.0362782 0.0377948 4.76019e-20)
(-0.0412458 0.0384397 0)
(-0.0461916 0.0386623 4.27211e-20)
(-0.0510648 0.0385118 0)
(-0.0558188 0.0380343 0)
(-0.0604102 0.0372729 1.73475e-23)
(-0.0647993 0.0362673 3.41966e-20)
(-0.0689488 0.0350543 -3.22991e-20)
(-0.072824 0.0336682 6.09179e-20)
(-0.0763923 0.0321421 -2.87052e-20)
(-0.0796228 0.0305092 8.10336e-20)
(-0.0824867 0.0288047 0)
(-0.0849576 0.0270683 0)
(-0.087013 0.0253469 4.49553e-20)
(-0.0886365 0.0236971 0)
(-0.0898213 0.0221876 3.9535e-20)
(-0.0905754 0.0208996 -3.71118e-20)
(-0.0909383 0.0199224 3.47567e-20)
(-0.0909792 0.019341 -3.25596e-20)
(-0.0906788 0.0192394 6.0939e-20)
(-0.090141 0.0197187 8.56591e-20)
(-0.00114047 0.00444381 0)
(-0.00361086 0.0121241 -3.49247e-20)
(-0.00669859 0.0187682 9.10569e-23)
(-0.0102349 0.0244604 0)
(-0.014129 0.0292642 -6.11611e-20)
(-0.0183201 0.033238 -3.52849e-23)
(-0.022743 0.0364424 2.7732e-20)
(-0.0273323 0.0389385 0)
(-0.032026 0.0407875 2.5066e-20)
(-0.0367653 0.0420494 -4.76018e-20)
(-0.041495 0.0427831 0)
(-0.0461633 0.0430455 0)
(-0.050722 0.0428906 -4.05765e-20)
(-0.0551261 0.0423695 3.83608e-20)
(-0.059334 0.0415295 -3.62459e-20)
(-0.0633065 0.0404141 0)
(-0.0670066 0.0390636 -3.23842e-20)
(-0.0703989 0.0375152 -9.14697e-20)
(-0.0734494 0.0358044 -1.33296e-23)
(-0.0761248 0.0339662 -9.73264e-24)
(-0.0783925 0.0320381 2.54583e-20)
(-0.0802213 0.0300621 4.78784e-20)
(-0.0815822 0.0280889 -8.99349e-20)
(-0.0824512 0.0261813 4.22484e-20)
(-0.0828125 0.0244178 -7.45905e-24)
(-0.0826652 0.0228955 2.16297e-23)
(-0.0820443 0.0217269 2.36576e-23)
(-0.0810268 0.0210273 3.25811e-20)
(-0.0795752 0.020919 0)
(-0.0777568 0.021549 0)
(-0.00135404 0.00483414 3.40776e-20)
(-0.00416697 0.0132017 9.97315e-23)
(-0.00749869 0.0204544 9.90954e-23)
(-0.0111952 0.026679 -6.42435e-20)
(-0.0151739 0.0319412 6.12013e-20)
(-0.0193793 0.0363019 0)
(-0.0237516 0.039825 0)
(-0.0282302 0.0425755 5.2947e-20)
(-0.0327575 0.0446186 -5.02761e-20)
(-0.0372787 0.046019 3.88042e-23)
(-0.041742 0.0468402 9.06238e-20)
(-0.0460986 0.0471438 4.2938e-20)
(-0.0503028 0.0469884 -8.12811e-20)
(-0.0543117 0.0464293 3.84342e-20)
(-0.058085 0.0455179 3.63527e-20)
(-0.0615844 0.0443012 -3.43136e-20)
(-0.0647728 0.0428224 6.4732e-20)
(-0.0676145 0.0411211 9.16987e-20)
(-0.0700737 0.0392345 5.76247e-20)
(-0.0721146 0.037199 2.71117e-20)
(-0.0737008 0.035053 -5.09888e-20)
(-0.0747957 0.0328398 0)
(-0.0753634 0.0306122 3.42343e-23)
(-0.0753711 0.0284377 4.23227e-20)
(-0.0747925 0.0264037 3.96335e-20)
(-0.0736155 0.0246233 -7.4374e-20)
(-0.0718669 0.0232352 -3.48192e-20)
(-0.0696338 0.0223932 6.51703e-20)
(-0.0668641 0.0222688 0)
(-0.0635226 0.0230719 -5.70349e-20)
(-0.00157999 0.00518618 3.41528e-20)
(-0.00475652 0.0141773 -7.03506e-20)
(-0.00834861 0.0219864 2.23287e-23)
(-0.0122168 0.0287007 -9.78036e-23)
(-0.0162864 0.0343867 0)
(-0.020507 0.039107 0)
(-0.0248238 0.0429278 0)
(-0.029181 0.0459171 -5.30785e-20)
(-0.0335253 0.0481437 5.04009e-20)
(-0.0378058 0.049676 -4.78094e-20)
(-0.041974 0.0505819 -9.07564e-20)
(-0.0459842 0.0509269 -2.61788e-23)
(-0.0497932 0.0507739 8.14832e-20)
(-0.0533601 0.0501822 3.85643e-20)
(-0.0566458 0.0492066 0)
(-0.0596128 0.0478975 -6.88405e-20)
(-0.0622242 0.0463005 9.74167e-20)
(-0.0644433 0.0444571 -9.1736e-20)
(-0.0662328 0.0424058 -5.76534e-20)
(-0.0675541 0.0401834 -1.62893e-19)
(-0.0683669 0.0378283 -2.94797e-24)
(-0.0686289 0.0353838 5.50448e-24)
(-0.0682967 0.032903 3.27279e-23)
(-0.0673277 0.0304559 -8.45962e-20)
(-0.0656843 0.0281369 1.19102e-19)
(-0.0633398 0.026074 -5.43577e-23)
(-0.0603087 0.0244347 0)
(-0.0566911 0.0234189 -6.51691e-20)
(-0.0524394 0.0232586 6.09452e-20)
(-0.0472766 0.0242454 5.72751e-20)
(-0.00181552 0.00549876 0)
(-0.0053725 0.0150473 -3.53356e-20)
(-0.00923849 0.0233578 3.37585e-20)
(-0.0132881 0.0305161 6.45333e-20)
(-0.0174537 0.0365884 3.08574e-20)
(-0.0216897 0.0416381 -5.87131e-20)
(-0.0259458 0.0457327 -6.24429e-23)
(-0.0301707 0.0489426 -5.31817e-20)
(-0.0343153 0.0513395 0)
(-0.0383321 0.0529951 4.80465e-20)
(-0.0421761 0.0539807 0)
(-0.0458044 0.0543659 0)
(-0.0491761 0.0542171 -8.16306e-20)
(-0.0522522 0.0535972 -7.71773e-20)
(-0.0549948 0.0525644 1.09519e-19)
(-0.0573668 0.0511718 6.88399e-20)
(-0.0593314 0.0494673 7.07228e-23)
(-0.0608508 0.0474939 -6.12916e-20)
(-0.0618858 0.0452909 1.15466e-19)
(-0.0623949 0.0428949 4.23195e-24)
(-0.0623335 0.0403434 1.02323e-19)
(-0.0616534 0.037678 0)
(-0.0603034 0.0349506 0)
(-0.0582307 0.0322308 8.47727e-20)
(-0.0553845 0.029617 -1.19102e-19)
(-0.0517218 0.0272499 1.11631e-19)
(-0.047238 0.025326 -6.96862e-20)
(-0.0420482 0.0240956 6.51938e-20)
(-0.0361626 0.0238666 -1.21886e-19)
(-0.0288408 0.0250987 5.73207e-20)
(-0.00205796 0.00577141 -3.44732e-20)
(-0.00600802 0.0158097 0)
(-0.0101586 0.0245645 0)
(-0.0143972 0.0321185 -6.48922e-20)
(-0.0186627 0.0385369 1.23764e-19)
(-0.0229134 0.0438827 -5.88966e-20)
(-0.027103 0.0482244 -9.92478e-23)
(-0.0311843 0.0516339 5.33353e-20)
(-0.0351116 0.0541852 0)
(-0.0388412 0.0559528 7.26783e-23)
(-0.0423309 0.0570112 1.93461e-23)
(-0.0455403 0.0574333 -8.64332e-20)
(-0.0484307 0.0572889 -1.49943e-22)
(-0.0509646 0.0566442 -3.86947e-20)
(-0.0531051 0.0555604 -1.09686e-19)
(-0.0548155 0.054093 6.90513e-20)
(-0.056058 0.0522921 -6.51289e-20)
(-0.0567939 0.0502019 1.22882e-19)
(-0.0569815 0.0478621 -1.15745e-19)
(-0.056576 0.0453088 -1.0891e-19)
(-0.0555282 0.0425777 3.21809e-23)
(-0.0537839 0.0397076 -4.8141e-20)
(-0.0512835 0.0367469 4.51846e-20)
(-0.0479633 0.0337623 5.51837e-23)
(-0.043759 0.0308519 -1.19323e-19)
(-0.0386089 0.028165 -7.44963e-20)
(-0.0324835 0.0259237 1.39393e-19)
(-0.0255006 0.0244214 -1.30385e-19)
(-0.0177791 0.0240591 6.09404e-20)
(-0.00809021 0.0258305 7.7721e-23)
(-0.00230479 0.00600431 1.03583e-19)
(-0.0066565 0.0164642 -3.55381e-20)
(-0.0110994 0.0256046 -6.80798e-20)
(-0.0155325 0.0335042 1.94984e-19)
(-0.0199002 0.0402259 2.10393e-22)
(-0.0241636 0.0458319 0)
(-0.0282799 0.0503908 0)
(-0.0322051 0.0539759 5.352e-20)
(-0.0358969 0.0566627 -5.07546e-20)
(-0.0393143 0.0585283 4.82297e-20)
(-0.0424178 0.05965 -4.57416e-20)
(-0.0451694 0.0601036 -8.6766e-20)
(-0.0475318 0.059962 1.63912e-19)
(-0.0494689 0.0592943 -3.87678e-20)
(-0.0509441 0.0581644 7.31257e-20)
(-0.0519203 0.0566305 -1.38353e-19)
(-0.052359 0.0547443 -1.19693e-23)
(-0.0522193 0.0525513 4.96044e-23)
(-0.0514566 0.0500914 1.15846e-19)
(-0.0500222 0.0474 -4.34412e-23)
(-0.0478617 0.0445104 0)
(-0.0449143 0.0414578 0)
(-0.0411118 0.0382856 -4.53271e-20)
(-0.0363795 0.0350544 -1.69762e-19)
(-0.0306384 0.0318578 1.19359e-19)
(-0.0238077 0.028847 -4.36062e-23)
(-0.0158357 0.0262615 -1.39432e-19)
(-0.00682683 0.0244338 1.303e-19)
(0.00315701 0.0239195 -6.09753e-20)
(0.0152752 0.0262533 5.67943e-20)
(-0.0025537 0.00619829 0)
(-0.00731183 0.017012 0)
(-0.0120519 0.0264788 6.84324e-20)
(-0.0166829 0.0346721 -1.30382e-19)
(-0.021153 0.041652 8.44207e-23)
(-0.0254255 0.0474794 -5.93206e-20)
(-0.02946 0.0522229 1.6944e-19)
(-0.0332152 0.0559564 -1.611e-19)
(-0.0366513 0.0587569 -3.97199e-24)
(-0.0397297 0.0607037 -4.83669e-20)
(-0.042413 0.0618764 -1.37694e-19)
(-0.0446646 0.0623534 1.30181e-19)
(-0.0464489 0.0622107 0)
(-0.0477299 0.0615199 0)
(-0.0484711 0.0603478 7.33478e-20)
(-0.0486343 0.0587545 1.38699e-19)
(-0.0481791 0.0567939 -6.53794e-20)
(-0.0470616 0.0545126 0)
(-0.0452337 0.0519507 -5.8038e-20)
(-0.0426416 0.0491429 1.09718e-23)
(-0.0392249 0.0461204 -5.14264e-20)
(-0.0349154 0.0429142 0)
(-0.0296357 0.0395614 -4.53858e-20)
(-0.0232999 0.0361144 4.25179e-20)
(-0.0158139 0.0326576 -7.957e-20)
(-0.00707697 0.0293366 2.23639e-19)
(0.0029849 0.0263982 -8.93417e-23)
(0.0142806 0.0242142 6.51625e-20)
(0.0268521 0.0235111 0)
(0.0418948 0.0262067 -5.71872e-20)
(-0.0028027 0.00635477 -6.9698e-20)
(-0.00796846 0.0174557 7.16517e-20)
(-0.0130078 0.0271895 1.5598e-22)
(-0.0178373 0.0356236 -6.54565e-20)
(-0.022408 0.0428147 0)
(-0.0266838 0.0488224 -1.19137e-19)
(-0.0306259 0.0537149 8.38938e-23)
(-0.0341948 0.0575666 5.36733e-20)
(-0.0373526 0.060456 3.55154e-24)
(-0.0400622 0.0624639 -2.05771e-24)
(-0.0422877 0.0636724 1.37812e-19)
(-0.0439937 0.0641624 4.35405e-20)
(-0.0451449 0.0640122 4.12947e-20)
(-0.045705 0.0632964 -7.78917e-20)
(-0.0456366 0.062084 7.35789e-20)
(-0.0448996 0.0604376 -6.9381e-20)
(-0.0434505 0.0584127 6.54983e-20)
(-0.0412414 0.0560575 -6.1733e-20)
(-0.038219 0.0534128 0)
(-0.0343234 0.0505128 -5.47867e-20)
(-0.0294868 0.0473868 1.02771e-19)
(-0.0236324 0.0440622 4.83579e-20)
(-0.0166728 0.0405693 -4.54212e-20)
(-0.00851027 0.0369509 1.70161e-19)
(0.000963994 0.0332784 -3.98818e-20)
(0.0118708 0.0296838 7.46024e-20)
(0.0243097 0.0264079 -6.96379e-20)
(0.038202 0.0238488 8.66217e-23)
(0.0536589 0.0228884 0)
(0.0721838 0.0259044 -1.13005e-19)
(-0.00305008 0.00647568 -1.14793e-22)
(-0.0086215 0.0177995 -7.1953e-20)
(-0.0139592 0.0277414 0)
(-0.0189854 0.0363624 -6.58609e-20)
(-0.0236519 0.0437161 6.27004e-20)
(-0.0279224 0.0498608 -9.6316e-23)
(-0.0317586 0.0548641 0)
(-0.0351218 0.058801 -8.57047e-23)
(-0.0379751 0.0617512 -5.12055e-20)
(-0.0402823 0.0637974 4.86522e-20)
(-0.0420081 0.0650237 0)
(-0.0431175 0.0655133 -8.7296e-20)
(-0.0435745 0.0653471 8.27933e-20)
(-0.043342 0.0646021 0)
(-0.0423801 0.0633497 0)
(-0.0406456 0.061655 0)
(-0.0380907 0.0595754 0)
(-0.034662 0.0571609 6.18212e-20)
(-0.0302994 0.0544533 -5.82265e-20)
(-0.0249348 0.0514871 1.64237e-19)
(-0.0184915 0.0482907 -1.02986e-19)
(-0.0108823 0.0448884 -9.66484e-20)
(-0.00200879 0.041305 1.36173e-19)
(0.0082396 0.0375735 6.21706e-23)
(0.0199857 0.0337499 -7.97625e-20)
(0.0333691 0.0299458 -7.46003e-20)
(0.0485169 0.0263818 -6.97285e-20)
(0.0653614 0.0234541 1.30191e-19)
(0.0840355 0.0221596 -1.21326e-19)
(0.106635 0.0255169 2.25653e-19)
(-0.00329452 0.00656335 1.40522e-19)
(-0.00926676 0.0180484 -1.32733e-22)
(-0.0148991 0.0281405 -1.38355e-19)
(-0.0201169 0.0368944 1.31984e-19)
(-0.0248713 0.044361 -6.3051e-20)
(-0.0291245 0.0505973 -5.99381e-20)
(-0.0328373 0.0556708 5.70245e-20)
(-0.0359713 0.0596572 5.41866e-20)
(-0.0384893 0.0626376 -1.02981e-19)
(-0.0403553 0.0646964 -1.46513e-19)
(-0.0415338 0.0659197 -4.62064e-20)
(-0.0419888 0.0663931 1.75054e-19)
(-0.0416832 0.0662 -2.48257e-19)
(-0.0405771 0.0654198 7.82499e-20)
(-0.0386275 0.0641263 0)
(-0.0357863 0.0623869 0)
(-0.0319998 0.0602616 0)
(-0.027207 0.0578021 1.23877e-19)
(-0.021339 0.0550523 -5.83102e-20)
(-0.0143177 0.0520478 -5.49195e-20)
(-0.00605502 0.0488171 -1.03097e-19)
(0.00354848 0.0453833 9.68284e-20)
(0.0146042 0.0417672 -4.54603e-20)
(0.027236 0.0379935 -8.52628e-20)
(0.0415805 0.0341033 -1.00419e-22)
(0.0577927 0.0301838 -1.49132e-19)
(0.0760269 0.0264223 2.09157e-19)
(0.0962259 0.0231796 -1.95389e-19)
(0.118477 0.0214984 6.09912e-20)
(0.145816 0.0252143 -5.61301e-20)
(-0.00353503 0.00662045 -7.04161e-20)
(-0.00990069 0.0182083 7.24541e-20)
(-0.015821 0.0283941 6.92612e-20)
(-0.021222 0.0372272 -1.98778e-19)
(-0.0260524 0.0447561 6.30473e-20)
(-0.0302718 0.0510371 6.0162e-20)
(-0.0338392 0.0561383 0)
(-0.0367149 0.0601363 0)
(-0.0388609 0.0631137 5.15284e-20)
(-0.0402404 0.065157 9.77286e-20)
(-0.0408163 0.0663543 -1.85535e-19)
(-0.040551 0.0667938 -8.70598e-23)
(-0.0394045 0.066561 0)
(-0.0373333 0.0657379 0)
(-0.034289 0.064401 -7.4002e-20)
(-0.0302174 0.06262 3.74924e-23)
(-0.0250566 0.0604577 6.58467e-20)
(-0.018736 0.0579684 -6.1966e-20)
(-0.0111757 0.0551982 -1.16803e-19)
(-0.00228496 0.0521853 1.09742e-19)
(0.00803809 0.0489597 5.15728e-20)
(0.0199073 0.0455453 -1.45417e-19)
(0.0334487 0.0419614 -9.08489e-20)
(0.0488004 0.0382277 8.53698e-20)
(0.0661118 0.0343731 7.98888e-20)
(0.0855493 0.0304602 7.46254e-20)
(0.107289 0.0266361 0)
(0.131288 0.0231944 0)
(0.157485 0.0211182 1.2098e-19)
(0.190298 0.0252179 0)
(-0.00377095 0.00664983 7.10601e-20)
(-0.0105204 0.0182856 -7.29449e-20)
(-0.0167189 0.0285106 1.39546e-19)
(-0.0222906 0.0373696 -2.78804e-22)
(-0.0271806 0.0449098 0)
(-0.0313444 0.0511878 0)
(-0.0347381 0.0562726 0)
(-0.0373199 0.0602425 -5.45441e-20)
(-0.0390499 0.063182 5.17922e-20)
(-0.0398891 0.0651798 0)
(-0.0397981 0.0663266 9.2844e-20)
(-0.038736 0.0667127 8.80079e-20)
(-0.0366586 0.0664264 -8.32028e-20)
(-0.0335171 0.0655521 7.85996e-20)
(-0.0292563 0.064169 -9.48316e-23)
(-0.0238132 0.0623499 -6.99745e-20)
(-0.0171159 0.0601601 -6.59705e-20)
(-0.00908175 0.0576573 1.86315e-19)
(0.000382748 0.0548909 5.83447e-20)
(0.0113833 0.0519024 -1.09944e-19)
(0.024038 0.0487254 -5.16071e-20)
(0.038477 0.0453864 4.84624e-20)
(0.0548426 0.0419067 0)
(0.0732872 0.0383045 -8.52475e-20)
(0.0939712 0.0346015 -7.97953e-20)
(0.117066 0.0308407 0)
(0.142761 0.0271285 6.94913e-20)
(0.171035 0.0236729 -1.3017e-19)
(0.201525 0.0212527 -1.81611e-19)
(0.240588 0.0258002 0)
(-0.00400193 0.00665438 -1.42285e-19)
(-0.0111233 0.018287 7.34321e-20)
(-0.0175867 0.0284987 -1.40025e-19)
(-0.0233123 0.0373313 -2.87892e-22)
(-0.02824 0.044832 0)
(-0.0323199 0.0510587 0)
(-0.0355044 0.0560823 5.77564e-20)
(-0.0377485 0.0599833 1.09698e-19)
(-0.0390091 0.0628488 0)
(-0.0392442 0.0647702 0)
(-0.0384105 0.0658408 -1.8655e-19)
(-0.0364624 0.0661537 8.8312e-20)
(-0.03335 0.0657998 -1.40125e-22)
(-0.0290171 0.0648663 0)
(-0.0233996 0.0634353 -3.2346e-23)
(-0.0164237 0.0615827 7.00935e-20)
(-0.00800483 0.0593773 -1.60254e-22)
(0.00195383 0.0568805 -2.48692e-19)
(0.013562 0.054146 -5.85169e-20)
(0.0269427 0.0512198 1.09941e-19)
(0.0422319 0.0481404 1.03263e-19)
(0.0595776 0.0449395 -8.66887e-23)
(0.079138 0.041643 9.09792e-20)
(0.101079 0.0382723 1.70482e-19)
(0.125567 0.034848 7.97923e-20)
(0.152771 0.0314005 7.45519e-20)
(0.182878 0.0280034 6.94175e-20)
(0.215905 0.024784 1.29418e-19)
(0.25098 0.0221362 -7.58013e-22)
(0.297048 0.0272658 5.46056e-20)
(-0.00422779 0.00663693 1.43321e-19)
(-0.0117072 0.0182191 -2.20798e-19)
(-0.0184185 0.0283673 1.40659e-19)
(-0.0242759 0.0371226 1.34219e-19)
(-0.0292127 0.0445335 6.39343e-20)
(-0.0331728 0.0506607 -4.08421e-23)
(-0.0361039 0.0555781 -5.76659e-20)
(-0.0379567 0.0593692 -1.09698e-19)
(-0.0386838 0.0621245 2.38098e-22)
(-0.0382385 0.0639386 1.97535e-19)
(-0.0365727 0.0649077 -9.38201e-20)
(-0.0336343 0.065128 1.76903e-19)
(-0.0293656 0.0646935 -1.08022e-22)
(-0.0237011 0.0636944 -1.5778e-19)
(-0.0165654 0.0622162 -1.61051e-23)
(-0.00787183 0.0603382 0)
(0.00247938 0.0581332 3.30445e-19)
(0.0146018 0.0556672 6.21207e-20)
(0.0286232 0.0529988 0)
(0.0446857 0.0501799 5.49873e-20)
(0.0629439 0.0472555 -5.17209e-20)
(0.0835632 0.0442644 1.9395e-19)
(0.106716 0.0412397 -2.72914e-19)
(0.132576 0.0382097 8.5297e-20)
(0.161312 0.0351994 0)
(0.193073 0.0322353 7.44253e-20)
(0.228021 0.0293695 -1.38961e-19)
(0.26624 0.0266859 1.29378e-19)
(0.306088 0.0239842 -1.20393e-19)
(0.359799 0.0299213 -1.10605e-19)
(-0.00444849 0.00660007 -1.43841e-19)
(-0.0122697 0.0180878 -3.60693e-22)
(-0.0192075 0.0281248 -7.0491e-20)
(-0.0251686 0.0367535 -6.72585e-20)
(-0.0300784 0.0440256 -1.2858e-19)
(-0.033874 0.0500059 6.1146e-20)
(-0.0364971 0.0547727 7.95763e-23)
(-0.0378931 0.0584137 -1.10294e-19)
(-0.0380095 0.0610235 -1.56599e-19)
(-0.0367934 0.0627003 1.48013e-22)
(-0.03419 0.0635441 9.35649e-20)
(-0.0301389 0.0636545 -1.77117e-19)
(-0.0245727 0.0631291 8.3812e-20)
(-0.0174144 0.0620615 7.91246e-20)
(-0.00857495 0.060541 -9.5809e-24)
(0.00204787 0.0586511 7.03185e-20)
(0.0145711 0.0564691 -1.32272e-19)
(0.0291269 0.0540664 0)
(0.0458627 0.0515076 -1.17181e-19)
(0.0649398 0.0488516 1.10114e-19)
(0.0865308 0.0461512 -1.03395e-19)
(0.110815 0.0434537 -9.70156e-20)
(0.137975 0.0408016 0)
(0.168182 0.0382324 -2.55418e-19)
(0.201593 0.0357795 1.63277e-22)
(0.238324 0.0334722 -3.7203e-19)
(0.27847 0.0313508 2.08567e-19)
(0.322217 0.0295261 -2.58465e-19)
(0.366887 0.0269798 1.20386e-19)
(0.42862 0.0340412 -1.09332e-19)
(-0.00466392 0.00654603 7.20997e-20)
(-0.0128083 0.0178985 7.414e-20)
(-0.0199462 0.0277791 7.11769e-20)
(-0.0259757 0.0362336 -1.89041e-22)
(-0.0308136 0.0433194 -1.68253e-22)
(-0.0343894 0.0491073 0)
(-0.0366381 0.0536808 0)
(-0.0374987 0.0571333 0)
(-0.036912 0.0595641 0)
(-0.0348179 0.0610762 0)
(-0.0311527 0.0617738 9.38976e-20)
(-0.0258461 0.0617608 -8.87984e-20)
(-0.0188186 0.0611386 8.40174e-20)
(-0.00997921 0.0600051 8.03814e-24)
(0.000776852 0.0584538 -7.46203e-20)
(0.0135696 0.0565731 1.55294e-23)
(0.0285351 0.054446 -1.32569e-19)
(0.0458255 0.0521498 1.24714e-19)
(0.0656077 0.0497564 1.17178e-19)
(0.0880609 0.0473324 -1.09998e-19)
(0.113372 0.0449396 2.06886e-19)
(0.141728 0.042635 0)
(0.173309 0.040471 -1.81682e-19)
(0.208272 0.0384956 3.22806e-22)
(0.246742 0.0367519 3.84724e-22)
(0.288776 0.0352752 5.63913e-22)
(0.334361 0.0340944 -6.89918e-20)
(0.383791 0.033442 1.29086e-19)
(0.433165 0.0312689 1.19914e-19)
(0.502855 0.0398345 5.68532e-20)
(-0.00487384 0.00647656 0)
(-0.0133194 0.0176556 7.46996e-20)
(-0.0206251 0.0273366 -7.09979e-20)
(-0.0266796 0.0355717 -1.34781e-22)
(-0.0313908 0.0424261 1.29634e-19)
(-0.0346798 0.047978 -6.1695e-20)
(-0.0364741 0.0523183 0)
(-0.0367052 0.0555466 0)
(-0.0353061 0.0577685 -1.05232e-19)
(-0.0322077 0.0590925 9.98289e-20)
(-0.0273356 0.0596278 9.44617e-20)
(-0.0206075 0.0594832 0)
(-0.0119295 0.0587647 8.4234e-20)
(-0.00119457 0.0575754 0)
(0.0117202 0.0560138 -1.4947e-19)
(0.0269542 0.0541742 2.11334e-19)
(0.0446635 0.0521456 1.98889e-19)
(0.0650198 0.0500128 -6.23907e-20)
(0.0882079 0.0478555 -1.17241e-22)
(0.11442 0.0457491 -1.65273e-19)
(0.14385 0.0437648 0)
(0.176682 0.0419694 0)
(0.213077 0.0404252 9.08845e-20)
(0.253156 0.0391895 1.69982e-19)
(0.296983 0.0383137 -1.03732e-22)
(0.344526 0.0378376 1.48579e-19)
(0.395618 0.0377702 1.38493e-19)
(0.450614 0.0385526 0)
(0.504421 0.036958 -1.19906e-19)
(0.581341 0.0474117 1.64736e-19)
(-0.00507763 0.00639282 7.32785e-20)
(-0.0137984 0.0173621 0)
(-0.0212328 0.0268024 1.61236e-22)
(-0.0272598 0.0347755 -6.84313e-20)
(-0.0317779 0.0413559 6.53052e-20)
(-0.0346996 0.0466316 6.18897e-20)
(-0.0359443 0.050702 -1.11011e-22)
(-0.0354349 0.0536749 5.59811e-20)
(-0.033095 0.0556628 0)
(-0.0288449 0.0567807 -2.00192e-19)
(-0.0225978 0.057144 2.66861e-22)
(-0.0142569 0.056867 0)
(-0.00371214 0.0560615 8.44393e-20)
(0.00916197 0.0548364 -2.38671e-19)
(0.0245077 0.0532963 7.50301e-20)
(0.0424846 0.0515421 -7.04763e-20)
(0.0632683 0.0496705 -1.3278e-19)
(0.087048 0.0477739 -1.87411e-19)
(0.114021 0.0459408 0)
(0.144385 0.0442557 0)
(0.178328 0.042799 1.03372e-19)
(0.216013 0.0416463 9.67895e-20)
(0.257561 0.040868 -9.09267e-20)
(0.303025 0.0405273 0)
(0.352373 0.0406797 0)
(0.405445 0.0413634 0)
(0.461889 0.0425565 1.37888e-19)
(0.521976 0.0449368 -6.39449e-20)
(0.579834 0.044113 1.20453e-19)
(0.662362 0.0567584 1.0682e-19)
(-0.00527418 0.00629531 -1.46765e-19)
(-0.0142392 0.0170195 7.55467e-20)
(-0.0217549 0.0261802 -7.23427e-20)
(-0.0276912 0.0338509 6.89656e-20)
(-0.0319374 0.0401181 -6.53051e-20)
(-0.0343967 0.0450811 6.21827e-20)
(-0.0349797 0.0488499 -5.91596e-20)
(-0.0336 0.0515414 -1.11839e-19)
(-0.0301702 0.0532765 1.06371e-19)
(-0.0245983 0.0541776 2.00863e-19)
(-0.0167832 0.0543673 9.47798e-20)
(-0.00661154 0.0539665 -8.97528e-20)
(0.0060448 0.053094 2.20393e-22)
(0.0213308 0.0518651 2.36371e-23)
(0.039409 0.0503919 7.51793e-20)
(0.0604582 0.048783 0)
(0.0846711 0.0471431 1.32855e-19)
(0.112249 0.0455734 3.12318e-19)
(0.143392 0.0441711 -5.87691e-20)
(0.178292 0.0430292 0)
(0.217112 0.042236 -2.06726e-19)
(0.259969 0.0418736 -9.68581e-20)
(0.306912 0.042016 -9.05557e-20)
(0.357893 0.042727 8.50209e-20)
(0.412742 0.0440591 -7.90698e-20)
(0.47112 0.0460379 7.41563e-20)
(0.532486 0.0486158 -3.49015e-22)
(0.596761 0.0526052 1.27634e-19)
(0.658237 0.0527849 -1.19237e-19)
(0.743592 0.0677611 -2.14932e-19)
(-0.00546168 0.00618387 7.41857e-20)
(-0.0146337 0.016628 7.59715e-20)
(-0.0221741 0.0254717 -2.37837e-22)
(-0.0279448 0.0328023 4.02117e-22)
(-0.031826 0.0387208 0)
(-0.0337117 0.0433397 -2.42024e-22)
(-0.0335029 0.0467808 -1.78524e-19)
(-0.0311028 0.0491717 0)
(-0.0264119 0.0506426 -1.06765e-19)
(-0.0193239 0.051325 -4.03241e-19)
(-0.00972177 0.0513495 9.53948e-20)
(0.00252583 0.050845 -9.00396e-20)
(0.0175665 0.0499378 -1.69298e-19)
(0.0355651 0.0487514 1.59996e-19)
(0.0567033 0.0474062 0)
(0.0811764 0.0460191 7.06677e-20)
(0.109188 0.0447037 -1.9984e-19)
(0.140943 0.0435698 -6.25656e-20)
(0.176631 0.0427228 -1.76299e-19)
(0.216417 0.0422625 0)
(0.260414 0.0422819 2.06701e-19)
(0.308663 0.0428646 9.68531e-20)
(0.361105 0.0440819 0)
(0.417547 0.0459895 8.47e-20)
(0.477639 0.0486273 0)
(0.540816 0.0519937 -7.35317e-20)
(0.606366 0.0560519 -2.05747e-19)
(0.673511 0.0614707 -2.54899e-19)
(0.738108 0.0630977 -1.18144e-19)
(0.82195 0.0802911 -3.40379e-21)
(-0.00563744 0.00605761 -7.41857e-20)
(-0.0149713 0.0161862 2.94152e-22)
(-0.0224691 0.0246768 7.30388e-20)
(-0.0279862 0.0316329 -6.93676e-20)
(-0.0313941 0.0371713 -6.61305e-20)
(-0.0325777 0.04142 1.2545e-19)
(-0.0314278 0.044514 5.98002e-20)
(-0.027836 0.0465928 1.13292e-19)
(-0.0216896 0.0477976 1.06825e-19)
(-0.0128666 0.0482697 1.01404e-19)
(-0.00123247 0.0481491 1.91533e-19)
(0.013363 0.0475737 -3.0575e-22)
(0.031087 0.0466788 0)
(0.0521231 0.045597 -7.99797e-20)
(0.076669 0.0444576 -2.17088e-22)
(0.10493 0.0433868 1.31498e-22)
(0.137113 0.0425069 1.9994e-19)
(0.173408 0.0419354 0)
(0.213979 0.0417838 1.17482e-19)
(0.258935 0.0421555 0)
(0.30831 0.0431427 2.52603e-24)
(0.362031 0.044823 -9.65991e-20)
(0.419886 0.0472552 1.81108e-19)
(0.481497 0.050475 -8.49477e-20)
(0.546299 0.0544976 -1.57863e-19)
(0.613471 0.0592762 7.37433e-20)
(0.682154 0.0648422 2.74065e-19)
(0.750627 0.0713258 6.34015e-20)
(0.817713 0.0753085 2.93628e-19)
(0.893786 0.0938653 5.58358e-20)
(-0.00579783 0.00591504 7.49281e-20)
(-0.0152389 0.0156914 -1.53774e-19)
(-0.0226147 0.0237941 0)
(-0.0277757 0.0303439 0)
(-0.0305858 0.0354759 6.65233e-20)
(-0.0309204 0.0393344 -2.66315e-22)
(-0.0286599 0.0420696 -1.19697e-19)
(-0.0236834 0.043834 -1.1349e-19)
(-0.0158636 0.044781 4.01766e-22)
(-0.0050621 0.045063 4.18255e-22)
(0.00887397 0.0448305 -9.57712e-20)
(0.0261137 0.0442317 1.80666e-19)
(0.0468424 0.043412 -1.70572e-19)