/*--------------------------------*- C++ -*----------------------------------*\
  =========                 |
  \\      /  F ield         | OpenFOAM: The Open Source CFD Toolbox
   \\    /   O peration     | Website:  https://openfoam.org
    \\  /    A nd           | Version:  7
     \\/     M anipulation  |
\*---------------------------------------------------------------------------*/
FoamFile
{
    version     2.0;
    format      ascii;
    class       volScalarField;
    location    "87";
    object      p;
}
// * * * * * * * * * * * * * * * * * * * * * * * * * * * * * * * * * * * * * //

dimensions      [0 2 -2 0 0 0 0];

internalField   nonuniform List<scalar> 
40000
(
-0.335554
-0.33669
-0.337512
-0.338153
-0.338703
-0.33917
-0.339566
-0.339905
-0.340204
-0.340475
-0.340727
-0.340968
-0.341205
-0.34144
-0.341674
-0.341907
-0.342138
-0.342364
-0.342586
-0.342805
-0.343023
-0.343249
-0.343493
-0.343775
-0.344121
-0.344567
-0.345162
-0.34596
-0.347032
-0.348509
-0.333824
-0.334871
-0.335627
-0.33621
-0.336705
-0.337116
-0.337452
-0.33773
-0.337961
-0.338159
-0.338333
-0.338491
-0.33864
-0.338782
-0.33892
-0.339055
-0.339189
-0.339321
-0.339454
-0.339592
-0.339744
-0.339921
-0.340144
-0.340437
-0.340835
-0.341385
-0.342148
-0.343191
-0.344586
-0.346514
-0.332251
-0.333202
-0.333885
-0.334408
-0.334843
-0.335194
-0.335471
-0.335684
-0.335849
-0.335974
-0.33607
-0.336145
-0.336206
-0.336257
-0.336301
-0.336341
-0.33638
-0.336419
-0.336465
-0.336524
-0.33661
-0.336739
-0.336936
-0.337234
-0.337675
-0.338315
-0.339226
-0.340489
-0.342169
-0.344495
-0.33082
-0.33167
-0.332276
-0.332735
-0.333108
-0.333399
-0.333613
-0.333763
-0.333859
-0.333911
-0.33393
-0.333923
-0.333897
-0.333857
-0.333809
-0.333754
-0.333699
-0.333647
-0.333606
-0.333588
-0.333607
-0.333685
-0.333853
-0.334149
-0.334621
-0.335334
-0.336372
-0.337827
-0.339753
-0.342407
-0.329517
-0.330262
-0.33079
-0.331182
-0.331492
-0.33172
-0.331872
-0.331957
-0.331984
-0.331963
-0.331904
-0.331815
-0.331702
-0.331572
-0.331431
-0.331283
-0.331134
-0.330991
-0.330864
-0.330766
-0.330717
-0.330742
-0.330874
-0.331159
-0.331651
-0.33242
-0.33356
-0.335177
-0.337315
-0.340199
-0.328326
-0.328965
-0.329413
-0.329739
-0.329984
-0.33015
-0.330239
-0.330258
-0.330216
-0.330122
-0.329984
-0.329812
-0.329612
-0.329392
-0.329157
-0.328914
-0.328671
-0.328436
-0.328222
-0.328043
-0.327923
-0.327889
-0.327981
-0.328245
-0.328743
-0.329549
-0.330765
-0.332514
-0.334832
-0.337828
-0.327231
-0.327766
-0.328136
-0.328395
-0.328577
-0.32868
-0.328705
-0.328658
-0.328546
-0.328378
-0.328161
-0.327905
-0.327617
-0.327304
-0.326975
-0.326636
-0.326298
-0.325969
-0.325664
-0.325402
-0.325206
-0.325109
-0.325152
-0.325387
-0.325878
-0.3267
-0.327968
-0.329811
-0.332268
-0.335439
-0.326217
-0.326653
-0.326948
-0.327141
-0.327261
-0.327301
-0.327263
-0.327149
-0.326968
-0.326724
-0.326427
-0.326085
-0.325707
-0.3253
-0.324874
-0.324437
-0.324
-0.323575
-0.323177
-0.322827
-0.322552
-0.322385
-0.322372
-0.322567
-0.323041
-0.323852
-0.325152
-0.327053
-0.329587
-0.332918
-0.325273
-0.325616
-0.325838
-0.32597
-0.326028
-0.326007
-0.325906
-0.325726
-0.325473
-0.325154
-0.324775
-0.324345
-0.323874
-0.32337
-0.322844
-0.322306
-0.321767
-0.321241
-0.320746
-0.320304
-0.319944
-0.319701
-0.319623
-0.319766
-0.320201
-0.321006
-0.322307
-0.324237
-0.326816
-0.330214
-0.324385
-0.324644
-0.3248
-0.324873
-0.324872
-0.324792
-0.324628
-0.324383
-0.324058
-0.323661
-0.323198
-0.322678
-0.322111
-0.321507
-0.320877
-0.320233
-0.319588
-0.318958
-0.318361
-0.317821
-0.31737
-0.317045
-0.316894
-0.316976
-0.317362
-0.318138
-0.319421
-0.321355
-0.323953
-0.327355
-0.323545
-0.32373
-0.323826
-0.323845
-0.323789
-0.323651
-0.323427
-0.323115
-0.322718
-0.322242
-0.321693
-0.321078
-0.320413
-0.319705
-0.318967
-0.318213
-0.317457
-0.316717
-0.316013
-0.315371
-0.314823
-0.314409
-0.314177
-0.314189
-0.314516
-0.315246
-0.316493
-0.318408
-0.321002
-0.324358
-0.322747
-0.322868
-0.322913
-0.322883
-0.322776
-0.322583
-0.322298
-0.32192
-0.321451
-0.320894
-0.320259
-0.319543
-0.318776
-0.317961
-0.317111
-0.316242
-0.31537
-0.314514
-0.313698
-0.312947
-0.312297
-0.311787
-0.311468
-0.311402
-0.311661
-0.312332
-0.313528
-0.315402
-0.317971
-0.321242
-0.321985
-0.322057
-0.322058
-0.321985
-0.321831
-0.321585
-0.321242
-0.320799
-0.320255
-0.319615
-0.318887
-0.318077
-0.317202
-0.316274
-0.315307
-0.314318
-0.313325
-0.312349
-0.311415
-0.310551
-0.309792
-0.309182
-0.30877
-0.308618
-0.308801
-0.309404
-0.310536
-0.312354
-0.31488
-0.318028
-0.321259
-0.321295
-0.321262
-0.321152
-0.320955
-0.32066
-0.32026
-0.319751
-0.319133
-0.318409
-0.317587
-0.316676
-0.315691
-0.314646
-0.313557
-0.312443
-0.311325
-0.310224
-0.309167
-0.308185
-0.307315
-0.306599
-0.306089
-0.305848
-0.305949
-0.306476
-0.307536
-0.309283
-0.311755
-0.314737
-0.32057
-0.320585
-0.320527
-0.320386
-0.320151
-0.31981
-0.319354
-0.31878
-0.318087
-0.317277
-0.31636
-0.315345
-0.314247
-0.313081
-0.311868
-0.310625
-0.309377
-0.308147
-0.306965
-0.305861
-0.304875
-0.304051
-0.303441
-0.303108
-0.303123
-0.303571
-0.304552
-0.306218
-0.308627
-0.311389
-0.319925
-0.319932
-0.319857
-0.319693
-0.319424
-0.319039
-0.31853
-0.317891
-0.317122
-0.316226
-0.315211
-0.31409
-0.312876
-0.311588
-0.310246
-0.308873
-0.307492
-0.306131
-0.30482
-0.303594
-0.302491
-0.301558
-0.300848
-0.300422
-0.300352
-0.300719
-0.301618
-0.303195
-0.305538
-0.308005
-0.319331
-0.319344
-0.319263
-0.319079
-0.31878
-0.318355
-0.317793
-0.31709
-0.316245
-0.315262
-0.314149
-0.312919
-0.311588
-0.310176
-0.308705
-0.307199
-0.305685
-0.304192
-0.302753
-0.301404
-0.300186
-0.299145
-0.298336
-0.297821
-0.297668
-0.297957
-0.298775
-0.300256
-0.302538
-0.304601
-0.318802
-0.318833
-0.318752
-0.318554
-0.318229
-0.317765
-0.317152
-0.316385
-0.315464
-0.314393
-0.313182
-0.311843
-0.310396
-0.308859
-0.307259
-0.305621
-0.303974
-0.302351
-0.300786
-0.299317
-0.297987
-0.296844
-0.295942
-0.295342
-0.295113
-0.295329
-0.296069
-0.297446
-0.299681
-0.301196
-0.318351
-0.318411
-0.318338
-0.31813
-0.317782
-0.31728
-0.316617
-0.315787
-0.31479
-0.313632
-0.312322
-0.310875
-0.309311
-0.307653
-0.305925
-0.304158
-0.302382
-0.300633
-0.298946
-0.297363
-0.295927
-0.294689
-0.293702
-0.293027
-0.29273
-0.292881
-0.29355
-0.294813
-0.29703
-0.297819
-0.317998
-0.318095
-0.318034
-0.317819
-0.317449
-0.316912
-0.316199
-0.315306
-0.314234
-0.312989
-0.311582
-0.31003
-0.308352
-0.306574
-0.304724
-0.302832
-0.300934
-0.299064
-0.297263
-0.295574
-0.294042
-0.292719
-0.291658
-0.290919
-0.290564
-0.29066
-0.291265
-0.292398
-0.294637
-0.294512
-0.317764
-0.317904
-0.317858
-0.317638
-0.317247
-0.316674
-0.315911
-0.314955
-0.313808
-0.312478
-0.310977
-0.309322
-0.307535
-0.305643
-0.303676
-0.301668
-0.299654
-0.297674
-0.29577
-0.293985
-0.292369
-0.290972
-0.28985
-0.289058
-0.288657
-0.288705
-0.289254
-0.290233
-0.292539
-0.291338
-0.317673
-0.317858
-0.317828
-0.317601
-0.317189
-0.316579
-0.315766
-0.314748
-0.313528
-0.312115
-0.310523
-0.308769
-0.306879
-0.30488
-0.302805
-0.300689
-0.298571
-0.296492
-0.294496
-0.29263
-0.290943
-0.289486
-0.288314
-0.287483
-0.287043
-0.287046
-0.287543
-0.288336
-0.29074
-0.288375
-0.31775
-0.317978
-0.317961
-0.317727
-0.317291
-0.316644
-0.31578
-0.3147
-0.313408
-0.311915
-0.310235
-0.30839
-0.306403
-0.304306
-0.302133
-0.299921
-0.297711
-0.295546
-0.293472
-0.291538
-0.289793
-0.288289
-0.28708
-0.286216
-0.285743
-0.285697
-0.286136
-0.286708
-0.289209
-0.285707
-0.31802
-0.318286
-0.318279
-0.318033
-0.31757
-0.316883
-0.315967
-0.314825
-0.313463
-0.311893
-0.310131
-0.3082
-0.306126
-0.303941
-0.301681
-0.299385
-0.297096
-0.294859
-0.292721
-0.290732
-0.288943
-0.287403
-0.286164
-0.28527
-0.28476
-0.284654
-0.285018
-0.285338
-0.287874
-0.283398
-0.318509
-0.318804
-0.3188
-0.318537
-0.318043
-0.317311
-0.316342
-0.315137
-0.313707
-0.312064
-0.310225
-0.308216
-0.306063
-0.3038
-0.301465
-0.299099
-0.296745
-0.294449
-0.292261
-0.29023
-0.288406
-0.286836
-0.285568
-0.284641
-0.284081
-0.283893
-0.284147
-0.2842
-0.286644
-0.281478
-0.319243
-0.319554
-0.319542
-0.319255
-0.318723
-0.317944
-0.316918
-0.315651
-0.314153
-0.31244
-0.310531
-0.30845
-0.306228
-0.303899
-0.301501
-0.299076
-0.296669
-0.294328
-0.292101
-0.290036
-0.288181
-0.286583
-0.28528
-0.284305
-0.283673
-0.283371
-0.283461
-0.283253
-0.285419
-0.279929
-0.320244
-0.320554
-0.320523
-0.320202
-0.319625
-0.318793
-0.317707
-0.316376
-0.314813
-0.313033
-0.311058
-0.308914
-0.306631
-0.304245
-0.301794
-0.299322
-0.296874
-0.294496
-0.292236
-0.290142
-0.288257
-0.286622
-0.28527
-0.284223
-0.283483
-0.283029
-0.282885
-0.282436
-0.284088
-0.278651
-0.321533
-0.321821
-0.321757
-0.321392
-0.320762
-0.31987
-0.31872
-0.317323
-0.315694
-0.31385
-0.311814
-0.309612
-0.307276
-0.304841
-0.302347
-0.299837
-0.297354
-0.294946
-0.292656
-0.29053
-0.288606
-0.286919
-0.285494
-0.28434
-0.28345
-0.282795
-0.282344
-0.281678
-0.28252
-0.277453
-0.323124
-0.323371
-0.323258
-0.322836
-0.322143
-0.321183
-0.319964
-0.318499
-0.316803
-0.314896
-0.312801
-0.310545
-0.308161
-0.305685
-0.303154
-0.30061
-0.298098
-0.295659
-0.293337
-0.29117
-0.289192
-0.287428
-0.285895
-0.284593
-0.283501
-0.282594
-0.28178
-0.280924
-0.280659
-0.276376
-0.325032
-0.325213
-0.325035
-0.324543
-0.323775
-0.322739
-0.321444
-0.319906
-0.318141
-0.31617
-0.314018
-0.311712
-0.309283
-0.306768
-0.304203
-0.301629
-0.299085
-0.296612
-0.294248
-0.292024
-0.289967
-0.288095
-0.286411
-0.284908
-0.283557
-0.282338
-0.28113
-0.280074
-0.278682
-0.27647
-0.327265
-0.327356
-0.327095
-0.32652
-0.325665
-0.324543
-0.323164
-0.321546
-0.319709
-0.317672
-0.315461
-0.313104
-0.310632
-0.308079
-0.30548
-0.302872
-0.300292
-0.297775
-0.295352
-0.293049
-0.290882
-0.28886
-0.286975
-0.285213
-0.283541
-0.281939
-0.280298
-0.278905
-0.276892
-0.278364
-0.329828
-0.329806
-0.329443
-0.32877
-0.327816
-0.326596
-0.325124
-0.32342
-0.321503
-0.319397
-0.317125
-0.314715
-0.312197
-0.309603
-0.306965
-0.304318
-0.301691
-0.299115
-0.296611
-0.294198
-0.291883
-0.289662
-0.287522
-0.28544
-0.283381
-0.281328
-0.279201
-0.277238
-0.274806
-0.274769
-0.332722
-0.332565
-0.332083
-0.331297
-0.33023
-0.3289
-0.327325
-0.325526
-0.323523
-0.32134
-0.319001
-0.316534
-0.313965
-0.311325
-0.308642
-0.305943
-0.303254
-0.300596
-0.297984
-0.295424
-0.292915
-0.290444
-0.287991
-0.285528
-0.283024
-0.280461
-0.27778
-0.275156
-0.272081
-0.270448
-0.335949
-0.335635
-0.335017
-0.334103
-0.332909
-0.331457
-0.329767
-0.327862
-0.325764
-0.323497
-0.321085
-0.318554
-0.315927
-0.313232
-0.310491
-0.307725
-0.304954
-0.302187
-0.29943
-0.296681
-0.293928
-0.291152
-0.288329
-0.285432
-0.282432
-0.279319
-0.276046
-0.272741
-0.268991
-0.266125
-0.339508
-0.339016
-0.338246
-0.337189
-0.335854
-0.334266
-0.33245
-0.330429
-0.328226
-0.325867
-0.323373
-0.320769
-0.318075
-0.315312
-0.312497
-0.309645
-0.306763
-0.303853
-0.300911
-0.297924
-0.294875
-0.291739
-0.288494
-0.285117
-0.281587
-0.277903
-0.274031
-0.270072
-0.265695
-0.261852
-0.343396
-0.342709
-0.341772
-0.340557
-0.339067
-0.337331
-0.335376
-0.333228
-0.330911
-0.328449
-0.325864
-0.323176
-0.320401
-0.317555
-0.314647
-0.311681
-0.308656
-0.305564
-0.302389
-0.299113
-0.295713
-0.292167
-0.288454
-0.284563
-0.280485
-0.276228
-0.271776
-0.267216
-0.262277
-0.257717
-0.347614
-0.346715
-0.345595
-0.34421
-0.342553
-0.340656
-0.33855
-0.336264
-0.333822
-0.331247
-0.328559
-0.325775
-0.322905
-0.319956
-0.316928
-0.313817
-0.31061
-0.307288
-0.303829
-0.30021
-0.296407
-0.292403
-0.288189
-0.283762
-0.279132
-0.274318
-0.269318
-0.264217
-0.258789
-0.25368
-0.352162
-0.351035
-0.34972
-0.348152
-0.346314
-0.344245
-0.341978
-0.339543
-0.336966
-0.334268
-0.331465
-0.328568
-0.325583
-0.322506
-0.319328
-0.316033
-0.312597
-0.308994
-0.305197
-0.30118
-0.296926
-0.292427
-0.287685
-0.282716
-0.277542
-0.272196
-0.26669
-0.261107
-0.255255
-0.249719
-0.35704
-0.355673
-0.354149
-0.352387
-0.350358
-0.348106
-0.345668
-0.343075
-0.340352
-0.337518
-0.334585
-0.331559
-0.328435
-0.3252
-0.321834
-0.318309
-0.314592
-0.310652
-0.30646
-0.301995
-0.297248
-0.292224
-0.286942
-0.281432
-0.275733
-0.269887
-0.263917
-0.257906
-0.251685
-0.245799
-0.362252
-0.36063
-0.358887
-0.356921
-0.354691
-0.352247
-0.349629
-0.346868
-0.343989
-0.341006
-0.337928
-0.33475
-0.331458
-0.328028
-0.324428
-0.320621
-0.316568
-0.312233
-0.307591
-0.302631
-0.297356
-0.291787
-0.285961
-0.279923
-0.273723
-0.267412
-0.26102
-0.254625
-0.248079
-0.241896
-0.367801
-0.365911
-0.363939
-0.361759
-0.359321
-0.356677
-0.353871
-0.350934
-0.347887
-0.344741
-0.341497
-0.338139
-0.334644
-0.330976
-0.327091
-0.322945
-0.318494
-0.313706
-0.308564
-0.303067
-0.297238
-0.291116
-0.284751
-0.278203
-0.27153
-0.264788
-0.258011
-0.25127
-0.244434
-0.237989
-0.373688
-0.371518
-0.369308
-0.366907
-0.364253
-0.361403
-0.358402
-0.35528
-0.352053
-0.348727
-0.345292
-0.341723
-0.337984
-0.334026
-0.329799
-0.325251
-0.320341
-0.315044
-0.309354
-0.30329
-0.29689
-0.290212
-0.28332
-0.276284
-0.269168
-0.262028
-0.254899
-0.247843
-0.240745
-0.234059
-0.379914
-0.377452
-0.374996
-0.372369
-0.369494
-0.366432
-0.36323
-0.359913
-0.356492
-0.352964
-0.349309
-0.34549
-0.341457
-0.337154
-0.332521
-0.327508
-0.322078
-0.31622
-0.309943
-0.303287
-0.296309
-0.289081
-0.28168
-0.274181
-0.26665
-0.259141
-0.251687
-0.244343
-0.237005
-0.230094
-0.386479
-0.383713
-0.381003
-0.378145
-0.375046
-0.371768
-0.368357
-0.364834
-0.361202
-0.357447
-0.353537
-0.349422
-0.345041
-0.340329
-0.335224
-0.329681
-0.323675
-0.317208
-0.310315
-0.303051
-0.295494
-0.287728
-0.279837
-0.2719
-0.263981
-0.25613
-0.248377
-0.240765
-0.233205
-0.22608
-0.393375
-0.390296
-0.387326
-0.384234
-0.380908
-0.37741
-0.373783
-0.37004
-0.366175
-0.362163
-0.357956
-0.353493
-0.348702
-0.343515
-0.337871
-0.331736
-0.3251
-0.317988
-0.310455
-0.302577
-0.294447
-0.286158
-0.277801
-0.26945
-0.261167
-0.252996
-0.244964
-0.237102
-0.229336
-0.222009
-0.400594
-0.397191
-0.393958
-0.39063
-0.387074
-0.383351
-0.379499
-0.375521
-0.371398
-0.367091
-0.36254
-0.35767
-0.352403
-0.346671
-0.340422
-0.333635
-0.326325
-0.318537
-0.31035
-0.301859
-0.293167
-0.284376
-0.275573
-0.266832
-0.258207
-0.249738
-0.241444
-0.233349
-0.22539
-0.217868
-0.40812
-0.404384
-0.400884
-0.39732
-0.393533
-0.38958
-0.385491
-0.381258
-0.376847
-0.372203
-0.367252
-0.361911
-0.356099
-0.349752
-0.342834
-0.335344
-0.327321
-0.318837
-0.309991
-0.300893
-0.291655
-0.282381
-0.273155
-0.264045
-0.2551
-0.246349
-0.237811
-0.229496
-0.221356
-0.213649
-0.415929
-0.411855
-0.408088
-0.404287
-0.400267
-0.396077
-0.391739
-0.387226
-0.38249
-0.37746
-0.372049
-0.366168
-0.359739
-0.35271
-0.345064
-0.336827
-0.328063
-0.31887
-0.309366
-0.299673
-0.289908
-0.280172
-0.270545
-0.261087
-0.251839
-0.242824
-0.234054
-0.225534
-0.217225
-0.209342
-0.423992
-0.419577
-0.415542
-0.411507
-0.407251
-0.402818
-0.398211
-0.39339
-0.388286
-0.382814
-0.376878
-0.370386
-0.363271
-0.355495
-0.347069
-0.338048
-0.328524
-0.318619
-0.308465
-0.298194
-0.287921
-0.277745
-0.267737
-0.25795
-0.248417
-0.239153
-0.230165
-0.221452
-0.212987
-0.204937
-0.432271
-0.427515
-0.423216
-0.418947
-0.414454
-0.409765
-0.40487
-0.399705
-0.394185
-0.388211
-0.38168
-0.374507
-0.366635
-0.358055
-0.348806
-0.338975
-0.328681
-0.318067
-0.307277
-0.296446
-0.285688
-0.275093
-0.264725
-0.254627
-0.244824
-0.235326
-0.226134
-0.217241
-0.20863
-0.200424
-0.440723
-0.435626
-0.431067
-0.426567
-0.421834
-0.416877
-0.411666
-0.406118
-0.400129
-0.393588
-0.386392
-0.378465
-0.369774
-0.360339
-0.350233
-0.339574
-0.328509
-0.317197
-0.305789
-0.294421
-0.2832
-0.272207
-0.261499
-0.251107
-0.24105
-0.231332
-0.221949
-0.212889
-0.204144
-0.195793
-0.449292
-0.443862
-0.439048
-0.434321
-0.429342
-0.424101
-0.418545
-0.412568
-0.406051
-0.398875
-0.390942
-0.382194
-0.372627
-0.362296
-0.351309
-0.339816
-0.327986
-0.315992
-0.303988
-0.292106
-0.280445
-0.269077
-0.258046
-0.247378
-0.237083
-0.227159
-0.217599
-0.208386
-0.199518
-0.191034
-0.457919
-0.452163
-0.447104
-0.442152
-0.43692
-0.431375
-0.425439
-0.418984
-0.411876
-0.403996
-0.395258
-0.385627
-0.375135
-0.363876
-0.351994
-0.339669
-0.327089
-0.314434
-0.301859
-0.289488
-0.27741
-0.265688
-0.254355
-0.243428
-0.23291
-0.222796
-0.213072
-0.203721
-0.194743
-0.186139
-0.466533
-0.460465
-0.45517
-0.449995
-0.444502
-0.43863
-0.432275
-0.425288
-0.417526
-0.408874
-0.399264
-0.388696
-0.37724
-0.365031
-0.352251
-0.339105
-0.325795
-0.312505
-0.299385
-0.286551
-0.274082
-0.262027
-0.250411
-0.239243
-0.228519
-0.21823
-0.208357
-0.198883
-0.189807
-0.181097
-0.475059
-0.468695
-0.463174
-0.457779
-0.452014
-0.445788
-0.438971
-0.431397
-0.422915
-0.413424
-0.402883
-0.391332
-0.378884
-0.365716
-0.352045
-0.338095
-0.324081
-0.310184
-0.29655
-0.283281
-0.270445
-0.258079
-0.2462
-0.234809
-0.223897
-0.213448
-0.203443
-0.193861
-0.184701
-0.1759
-0.483412
-0.47677
-0.471037
-0.465423
-0.459374
-0.452764
-0.44544
-0.437219
-0.427955
-0.417563
-0.406041
-0.39347
-0.380013
-0.365887
-0.351339
-0.336612
-0.321924
-0.307454
-0.293335
-0.279659
-0.266481
-0.253828
-0.241707
-0.230112
-0.219029
-0.208439
-0.198318
-0.188645
-0.179414
-0.17054
-0.491502
-0.484606
-0.478672
-0.47284
-0.466491
-0.459466
-0.451587
-0.442663
-0.432555
-0.421208
-0.408661
-0.395046
-0.380574
-0.365501
-0.350101
-0.334628
-0.319301
-0.304292
-0.289722
-0.275669
-0.262175
-0.249258
-0.236916
-0.225138
-0.213904
-0.20319
-0.192971
-0.183225
-0.173939
-0.165008
-0.499233
-0.492108
-0.485989
-0.479937
-0.473272
-0.465797
-0.457315
-0.44763
-0.436623
-0.424274
-0.410671
-0.396
-0.380518
-0.36452
-0.348299
-0.332118
-0.316191
-0.30068
-0.285692
-0.271291
-0.257509
-0.244353
-0.231814
-0.219873
-0.208508
-0.197691
-0.187393
-0.177592
-0.168267
-0.159299
-0.506506
-0.499179
-0.492888
-0.486616
-0.479615
-0.471656
-0.462523
-0.452025
-0.440069
-0.426681
-0.412002
-0.396274
-0.3798
-0.362907
-0.345903
-0.329055
-0.31257
-0.296595
-0.281224
-0.266509
-0.252467
-0.239098
-0.226385
-0.214305
-0.20283
-0.191929
-0.181572
-0.171737
-0.162389
-0.153406
-0.513215
-0.505717
-0.49927
-0.492775
-0.485418
-0.476938
-0.467109
-0.45575
-0.442805
-0.42835
-0.412588
-0.395814
-0.378376
-0.360626
-0.342885
-0.325416
-0.308416
-0.292018
-0.276302
-0.261304
-0.247032
-0.233477
-0.220615
-0.208419
-0.196857
-0.185896
-0.175501
-0.16565
-0.156299
-0.147324
-0.519254
-0.511617
-0.505028
-0.498307
-0.490574
-0.481539
-0.470971
-0.458711
-0.444745
-0.42921
-0.412368
-0.394571
-0.376206
-0.357645
-0.339217
-0.321177
-0.303709
-0.286931
-0.270906
-0.255659
-0.241189
-0.227476
-0.214492
-0.202206
-0.19058
-0.179579
-0.169169
-0.159324
-0.149988
-0.141045
-0.524517
-0.516773
-0.510058
-0.503106
-0.494977
-0.485354
-0.474009
-0.460815
-0.445808
-0.42919
-0.411286
-0.392501
-0.373253
-0.353936
-0.334874
-0.316315
-0.298428
-0.281313
-0.265019
-0.24956
-0.234923
-0.221082
-0.208004
-0.195652
-0.183988
-0.172972
-0.162568
-0.152751
-0.143451
-0.134565
-0.528895
-0.52108
-0.514252
-0.507065
-0.49852
-0.488281
-0.476128
-0.461975
-0.445919
-0.428227
-0.409291
-0.389561
-0.369487
-0.34947
-0.329833
-0.310811
-0.292554
-0.275148
-0.258626
-0.24299
-0.22822
-0.214282
-0.201138
-0.188749
-0.177071
-0.166064
-0.15569
-0.145924
-0.136681
-0.127877
-0.532284
-0.524432
-0.517506
-0.51008
-0.501101
-0.490219
-0.477235
-0.462109
-0.445007
-0.426265
-0.406336
-0.385715
-0.364876
-0.344224
-0.324074
-0.304645
-0.28607
-0.268419
-0.251712
-0.235938
-0.221068
-0.207066
-0.193887
-0.181487
-0.169822
-0.158849
-0.148529
-0.138836
-0.129675
-0.120979
-0.53458
-0.526726
-0.519717
-0.512048
-0.50262
-0.491075
-0.477243
-0.461143
-0.443009
-0.423252
-0.402382
-0.380932
-0.359395
-0.338176
-0.317577
-0.2978
-0.278962
-0.261114
-0.244263
-0.22839
-0.213458
-0.199424
-0.18624
-0.173859
-0.162234
-0.151319
-0.141075
-0.131477
-0.122424
-0.113864
-0.535685
-0.527864
-0.520786
-0.512871
-0.502981
-0.490759
-0.476075
-0.459008
-0.439871
-0.419144
-0.397393
-0.375185
-0.353023
-0.331307
-0.310326
-0.290263
-0.271215
-0.253219
-0.23627
-0.220338
-0.205381
-0.19135
-0.178193
-0.16586
-0.154301
-0.143469
-0.133321
-0.123836
-0.114911
-0.106498
-0.535507
-0.527754
-0.52062
-0.512458
-0.502098
-0.489192
-0.473657
-0.455644
-0.435543
-0.413903
-0.391342
-0.368451
-0.345741
-0.323604
-0.302309
-0.282021
-0.262819
-0.244726
-0.227724
-0.211775
-0.19683
-0.182837
-0.16974
-0.157485
-0.146022
-0.135296
-0.125265
-0.11591
-0.107114
-0.0988021
-0.533958
-0.526307
-0.519132
-0.510723
-0.499889
-0.486301
-0.469928
-0.451
-0.429985
-0.4075
-0.384205
-0.360714
-0.337537
-0.315053
-0.293514
-0.273065
-0.253766
-0.235626
-0.218617
-0.202694
-0.187801
-0.173882
-0.160879
-0.148734
-0.137394
-0.126802
-0.116914
-0.107713
-0.0990424
-0.0907073
-0.530963
-0.523445
-0.516243
-0.50759
-0.496283
-0.48202
-0.464834
-0.445034
-0.423165
-0.39991
-0.375965
-0.351959
-0.328399
-0.305647
-0.283936
-0.263388
-0.24405
-0.225915
-0.208947
-0.193092
-0.178292
-0.164485
-0.151609
-0.139607
-0.12842
-0.117988
-0.108275
-0.0992638
-0.0907519
-0.0823727
-0.526449
-0.519098
-0.511882
-0.50299
-0.491218
-0.476297
-0.458331
-0.43771
-0.41506
-0.391116
-0.366611
-0.342181
-0.318323
-0.295382
-0.273569
-0.252988
-0.233669
-0.215592
-0.198712
-0.18297
-0.168303
-0.154645
-0.141932
-0.130105
-0.1191
-0.108859
-0.0993519
-0.0905393
-0.0821368
-0.0740875
-0.520359
-0.513203
-0.505989
-0.496866
-0.484641
-0.469088
-0.450384
-0.429006
-0.405651
-0.38111
-0.356137
-0.331375
-0.307306
-0.284256
-0.262414
-0.241865
-0.222622
-0.204655
-0.187913
-0.172329
-0.157835
-0.144365
-0.131851
-0.120232
-0.109442
-0.0994225
-0.0901426
-0.0815467
-0.0733192
-0.0656301
-0.512641
-0.505711
-0.498514
-0.489171
-0.47651
-0.460358
-0.44097
-0.418905
-0.394932
-0.369887
-0.344546
-0.319545
-0.295353
-0.272274
-0.250474
-0.230021
-0.210913
-0.193111
-0.176554
-0.161172
-0.146895
-0.133651
-0.121372
-0.109993
-0.0994494
-0.0896802
-0.0806545
-0.0723024
-0.0642961
-0.0569527
-0.503258
-0.49658
-0.489416
-0.479868
-0.466797
-0.450087
-0.430073
-0.4074
-0.382902
-0.357453
-0.331841
-0.306697
-0.28247
-0.259442
-0.237756
-0.217463
-0.198549
-0.180964
-0.164641
-0.149508
-0.135489
-0.12251
-0.110501
-0.0993967
-0.0891292
-0.0796389
-0.0708945
-0.0628147
-0.055057
-0.0480533
-0.492182
-0.485781
-0.478666
-0.468932
-0.455481
-0.438261
-0.417691
-0.394496
-0.369569
-0.343818
-0.318037
-0.292845
-0.26867
-0.24577
-0.22427
-0.204201
-0.185539
-0.168225
-0.152186
-0.137346
-0.123625
-0.11095
-0.0992479
-0.0884505
-0.0784901
-0.0693068
-0.0608707
-0.0530888
-0.0455993
-0.0389429
-0.479397
-0.473297
-0.466249
-0.456349
-0.442554
-0.424879
-0.403828
-0.380202
-0.354948
-0.328998
-0.303149
-0.278004
-0.253968
-0.231276
-0.210031
-0.190249
-0.171898
-0.154906
-0.1392
-0.124697
-0.111317
-0.0989836
-0.0876231
-0.0771658
-0.0675427
-0.0586942
-0.0505925
-0.0431314
-0.0359279
-0.0296324
-0.464897
-0.45912
-0.452158
-0.442117
-0.428019
-0.409952
-0.3885
-0.364538
-0.339061
-0.313018
-0.287202
-0.262197
-0.238385
-0.215976
-0.195056
-0.175626
-0.157639
-0.141023
-0.125697
-0.111576
-0.0985779
-0.0866241
-0.0756402
-0.0655553
-0.056299
-0.0478128
-0.0400705
-0.0329518
-0.0260517
-0.020133
-0.448691
-0.443257
-0.436399
-0.426246
-0.411891
-0.393497
-0.371731
-0.347533
-0.321937
-0.295906
-0.270223
-0.245451
-0.221945
-0.199897
-0.179368
-0.160349
-0.142783
-0.126594
-0.111695
-0.098
-0.0854241
-0.0738875
-0.0633147
-0.0536337
-0.0447734
-0.0366762
-0.0293176
-0.0225619
-0.0159827
-0.0104567
-0.430796
-0.425725
-0.41899
-0.408756
-0.394195
-0.375546
-0.353554
-0.32922
-0.303612
-0.277698
-0.252246
-0.227796
-0.20468
-0.183062
-0.162991
-0.144443
-0.127354
-0.111641
-0.0972157
-0.0839887
-0.0718744
-0.0607915
-0.0506636
-0.0414178
-0.0329819
-0.0252998
-0.0183484
-0.0119759
-0.00573489
-0.000616937
-0.411242
-0.40655
-0.39996
-0.389678
-0.374965
-0.356136
-0.334011
-0.309645
-0.284131
-0.258435
-0.233309
-0.209269
-0.18662
-0.165505
-0.145955
-0.127935
-0.111375
-0.0961878
-0.0822808
-0.0695638
-0.0579497
-0.0473562
-0.0377063
-0.0289259
-0.0209424
-0.0137011
-0.00717983
-0.00121009
0.00467511
0.00937081
-0.39007
-0.385771
-0.379347
-0.369055
-0.354246
-0.335316
-0.313152
-0.288857
-0.26354
-0.238159
-0.213455
-0.18991
-0.167804
-0.147259
-0.128291
-0.110856
-0.0948763
-0.080261
-0.066916
-0.0547492
-0.0436727
-0.0336034
-0.0244634
-0.0161782
-0.00867445
-0.00189899
0.00416947
0.00971683
0.0152284
0.0194889
-0.367331
-0.363439
-0.357203
-0.346937
-0.332093
-0.313143
-0.291038
-0.266914
-0.241886
-0.216927
-0.192732
-0.169763
-0.148272
-0.128362
-0.110035
-0.0932384
-0.077888
-0.0638902
-0.051149
-0.0395713
-0.0290683
-0.0195565
-0.0109577
-0.00319642
0.0038008
0.0100855
0.0156789
0.0207842
0.0259032
0.0297157
-0.343086
-0.339611
-0.333585
-0.323385
-0.30857
-0.289689
-0.267733
-0.243857
-0.21924
-0.194791
-0.171193
-0.148876
-0.128069
-0.108856
-0.0912269
-0.0751189
-0.0604446
-0.0471073
-0.0350098
-0.024058
-0.014163
-0.00524083
0.00278703
0.00999639
0.0164609
0.0222304
0.0273264
0.0319693
0.0366738
0.0400219
-0.317408
-0.314357
-0.308563
-0.298474
-0.283762
-0.265021
-0.243265
-0.219785
-0.195662
-0.171814
-0.148892
-0.127301
-0.107244
-0.0887866
-0.0719072
-0.0565363
-0.0425823
-0.0299464
-0.0185302
-0.00823956
0.00101501
0.00931721
0.0167456
0.0233763
0.0292825
0.0345124
0.0390887
0.0432471
0.0475098
0.0503725
-0.290375
-0.287751
-0.282216
-0.272292
-0.257749
-0.239144
-0.217776
-0.19476
-0.171222
-0.148059
-0.125891
-0.105094
-0.0858474
-0.0682006
-0.0521209
-0.0375324
-0.0243401
-0.0124438
-0.00174446
0.00785244
0.0164361
0.0240898
0.0308921
0.0369186
0.042242
0.0469082
0.0509418
0.054591
0.0583791
0.0607376
-0.262063
-0.259884
-0.254633
-0.24492
-0.230506
-0.212278
-0.191322
-0.168857
-0.145992
-0.123594
-0.102253
-0.0823133
-0.0639345
-0.0471492
-0.0319152
-0.0181511
-0.00575923
0.00536198
0.0153118
0.0241846
0.0320691
0.0390482
0.0451996
0.0505985
0.0553157
0.0593946
0.0628625
0.0659777
0.069256
0.0710923
-0.232551
-0.230855
-0.225895
-0.216385
-0.202293
-0.184441
-0.163987
-0.142161
-0.120051
-0.0984931
-0.078044
-0.0590214
-0.0415625
-0.0256857
-0.0113399
0.00156109
0.0131171
0.0234307
0.032601
0.040722
0.0478819
0.0541625
0.0596408
0.0643906
0.0684798
0.0719484
0.07483
0.0773918
0.0801208
0.0813719
-0.201923
-0.200781
-0.196106
-0.186866
-0.173128
-0.155729
-0.135862
-0.114757
-0.0934785
-0.0728293
-0.053334
-0.0352824
-0.0187914
-0.00386592
0.00955306
0.0215557
0.0322438
0.0417201
0.0500839
0.0574284
0.0638409
0.0694021
0.0741878
0.0782699
0.081711
0.0845481
0.0868286
0.0888218
0.0909255
0.0914232
-0.170322
-0.169761
-0.165373
-0.15645
-0.143117
-0.126245
-0.107043
-0.0867344
-0.0663578
-0.0466808
-0.028195
-0.0111634
0.00431653
0.0182522
0.0307095
0.0417823
0.0515736
0.0601866
0.0677198
0.0742661
0.0799114
0.0847354
0.0888126
0.0922115
0.0949879
0.0971787
0.0988533
0.10025
0.10156
0.101091
-0.137952
-0.137828
-0.133806
-0.125244
-0.11237
-0.0960917
-0.0776274
-0.0581858
-0.0387754
-0.0201277
-0.00270149
0.0132665
0.0276969
0.0406085
0.0520736
0.0621887
0.071058
0.0787846
0.0854666
0.0911958
0.0960573
0.10013
0.103486
0.106191
0.108293
0.109838
0.110919
0.111676
0.111954
0.1104
-0.104838
-0.10516
-0.101526
-0.0933611
-0.080998
-0.0653769
-0.0477166
-0.0292058
-0.0108195
0.00674777
0.0230701
0.0379362
0.0512836
0.0631415
0.0735876
0.0827211
0.0906467
0.0974674
0.10328
0.108177
0.112241
0.11555
0.118176
0.12018
0.121609
0.122525
0.123044
0.123133
0.122269
0.119794
-0.0710974
-0.0718811
-0.0686476
-0.060916
-0.0491146
-0.0342093
-0.0174137
0.000108753
0.0174193
0.0338615
0.0490418
0.0627729
0.0750088
0.0857879
0.0951927
0.103324
0.110288
0.116187
0.121117
0.125168
0.128423
0.13096
0.132849
0.134148
0.134907
0.135213
0.135182
0.134561
0.132553
0.131257
-0.0368612
-0.0381135
-0.0352943
-0.0280288
-0.016836
-0.00270032
0.0131762
0.0296594
0.0458494
0.0611281
0.0751339
0.0877028
0.0988036
0.108483
0.116829
0.123943
0.12993
0.134894
0.138929
0.142125
0.144564
0.146322
0.147468
0.148059
0.148151
0.14784
0.147211
0.14593
0.1435
0.142797
-0.00225966
-0.00398216
-0.00159046
0.00517823
0.0157198
0.0290376
0.0439468
0.0593466
0.0743779
0.0884612
0.101266
0.112651
0.122598
0.131162
0.138435
0.144518
0.14952
0.153539
0.156672
0.159005
0.160622
0.161596
0.161996
0.161878
0.161303
0.160367
0.159119
0.15723
0.154462
0.153661
0.0325766
0.030385
0.0323373
0.0385814
0.0484333
0.0608906
0.0747908
0.08907
0.102911
0.115774
0.127357
0.137541
0.146321
0.153759
0.159949
0.164994
0.169002
0.172071
0.174296
0.175764
0.176555
0.176744
0.176396
0.175569
0.174326
0.172758
0.170897
0.168453
0.165331
0.164172
0.0675163
0.0648584
0.0663612
0.0720559
0.0811846
0.0927447
0.105601
0.118729
0.131355
0.142978
0.153326
0.162298
0.169903
0.176207
0.181309
0.185313
0.188323
0.19044
0.191756
0.192357
0.192322
0.191725
0.19063
0.189095
0.187184
0.184982
0.182512
0.179518
0.175992
0.17438
0.102427
0.0993077
0.100353
0.105477
0.113853
0.124486
0.136269
0.148223
0.159617
0.169986
0.17909
0.186845
0.193271
0.198441
0.202453
0.205415
0.207429
0.208594
0.209003
0.208739
0.20788
0.2065
0.204661
0.202421
0.199843
0.197008
0.193934
0.190391
0.186425
0.184315
0.137178
0.133603
0.134183
0.138719
0.14632
0.156
0.166689
0.177452
0.187602
0.196712
0.204569
0.211107
0.216355
0.220393
0.22332
0.225243
0.226265
0.226483
0.225989
0.224865
0.223189
0.22103
0.218452
0.215512
0.212271
0.208806
0.205131
0.201038
0.196614
0.193982
0.171636
0.167613
0.167725
0.171658
0.178465
0.187174
0.196755
0.206316
0.215218
0.223069
0.229682
0.235008
0.239085
0.241998
0.243847
0.244739
0.244777
0.244057
0.242668
0.240693
0.238206
0.235276
0.231967
0.228333
0.224435
0.220346
0.216075
0.211434
0.206545
0.203376
0.205672
0.201209
0.200851
0.204171
0.21017
0.217897
0.226361
0.234719
0.242374
0.248972
0.254349
0.258473
0.261391
0.26319
0.263974
0.263847
0.262913
0.261266
0.258994
0.256177
0.25289
0.249201
0.24517
0.240852
0.236305
0.231599
0.22674