/*--------------------------------*- C++ -*----------------------------------*\
  =========                 |
  \\      /  F ield         | OpenFOAM: The Open Source CFD Toolbox
   \\    /   O peration     | Website:  https://openfoam.org
    \\  /    A nd           | Version:  7
     \\/     M anipulation  |
\*---------------------------------------------------------------------------*/
FoamFile
{
    version     2.0;
    format      ascii;
    class       surfaceScalarField;
    location    "15";
    object      phi;
}
// * * * * * * * * * * * * * * * * * * * * * * * * * * * * * * * * * * * * * //

dimensions      [0 3 -1 0 0 0 0];

internalField   nonuniform List<scalar> 
600
(
-0.00386295
-0.000673728
-0.000591501
-0.00342205
-0.000675659
-0.00359632
-0.00076187
-0.000576039
-0.00317402
-0.000662597
-0.0033355
-0.000551589
-0.00294031
-0.000636525
-0.00308908
-0.000522917
-0.00272045
-0.000603309
-0.00285992
-0.000424694
-0.00237474
-0.000493368
-0.00251123
-0.000568696
-0.00264512
-0.000398526
-0.00217551
-0.000463959
-0.0023093
-0.000535281
-0.00243991
-0.0003713
-0.0019811
-0.000434168
-0.00211264
-0.000502634
-0.00224084
-0.000342632
-0.00179122
-0.000403194
-0.00192053
-0.000469328
-0.00204651
-0.00031244
-0.00160612
-0.000370663
-0.001733
-0.000434506
-0.00185669
-0.000280927
-0.00142629
-0.000336639
-0.0015504
-0.000398034
-0.0016716
-0.000248478
-0.00125243
-0.000301445
-0.00137333
-0.000360152
-0.0014917
-0.000265542
-0.00120248
-0.000321292
-0.00131758
-0.00143011
-0.000229479
-0.00103866
-0.000281978
-0.00114998
-0.000340389
-0.00125917
-0.000193855
-0.000882758
-0.000242798
-0.000989715
-0.000297726
-0.00109505
-0.00015931
-0.000735707
-0.000204378
-0.000837691
-0.000255503
-0.000938589
-0.00103782
-0.000167373
-0.000694845
-0.000214368
-0.000790696
-0.000267552
-0.000885405
-0.000132459
-0.000562126
-0.000174989
-0.000652315
-0.000223795
-0.00074189
-0.000100314
-0.000440457
-0.000138044
-0.000524396
-0.000182133
-0.000608226
-0.000691393
-0.000104213
-0.000407852
-0.00014325
-0.00048536
-0.000188787
-0.000562689
-7.41589e-05
-0.00030352
-0.000107821
-0.00037419
-0.000148062
-0.000445118
-0.000515818
-7.64968e-05
-0.00027553
-0.000111126
-0.000339562
-0.000152468
-0.000403776
-0.000467731
-7.86163e-05
-0.0002468
-0.00011412
-0.000304058
-0.000156458
-0.000361438
-5.11209e-05
-0.000167475
-8.0512e-05
-0.000217409
-0.000116797
-0.000267773
-0.000318212
-5.22074e-05
-0.00014442
-8.21794e-05
-0.000187437
-0.000119151
-0.000230801
-0.000274207
-5.3143e-05
-0.000120965
-8.36149e-05
-0.000156965
-0.000121177
-0.00019324
-0.000229532
-3.0136e-05
-6.86908e-05
-5.39257e-05
-9.71754e-05
-8.48155e-05
-0.000126075
-0.00012287
-0.000155185
-3.04956e-05
-5.16907e-05
-5.45538e-05
-7.31171e-05
-8.57787e-05
-9.48501e-05
-0.000116735
-3.07659e-05
-3.45428e-05
-5.5026e-05
-4.88571e-05
-8.65026e-05
-6.33735e-05
-7.79886e-05
-3.09465e-05
-1.72961e-05
-5.53413e-05
-2.44622e-05
-8.6986e-05
-3.17288e-05
-3.90438e-05
-3.10368e-05
1.83765e-11
-5.54991e-05
2.63044e-11
-8.72279e-05
3.45102e-11
4.29322e-11
-3.10368e-05
1.72961e-05
-5.54991e-05
2.44623e-05
-8.72279e-05
3.17288e-05
3.90439e-05
-3.09465e-05
3.45428e-05
-5.53413e-05
4.88571e-05
-8.6986e-05
6.33736e-05
7.79887e-05
-3.07659e-05
5.16907e-05
-5.5026e-05
7.31172e-05
-8.65026e-05
9.48502e-05
0.000116735
-3.04956e-05
6.86908e-05
-5.45538e-05
9.71754e-05
-8.57787e-05
0.000126075
0.000155185
-3.0136e-05
-5.39257e-05
0.000120965
-8.48155e-05
0.000156965
-0.00012287
0.00019324
0.000229532
-5.3143e-05
0.00014442
-8.36149e-05
0.000187437
-0.000121177
0.000230801
0.000274207
-5.22074e-05
0.000167475
-8.21794e-05
0.000217409
-0.000119151
0.000267773
0.000318212
-5.11209e-05
-8.0512e-05
0.0002468
-0.000116797
0.000304058
0.000361438
-7.86163e-05
0.00027553
-0.00011412
0.000339562
-0.000156458
0.000403776
0.000467731
-7.64968e-05
0.00030352
-0.000111125
0.00037419
-0.000152468
0.000445118
0.000515819
-7.41589e-05
-0.000107821
0.000407852
-0.000148062
0.00048536
-0.000194932
0.000562689
0.000639328
-0.000104213
-0.00014325
0.000524396
-0.000188787
0.000608226
0.000691393
-0.000138044
0.000562126
-0.000182133
0.000652315
0.00074189
-0.000132459
-0.000174989
0.000694845
-0.000223795
0.000790696
0.000885406
-0.000167373
0.000735707
-0.000214368
0.000837691
-0.000267552
0.000938589
0.00103782
-0.00015931
-0.000204378
0.000882758
-0.000255503
0.000989715
0.00109505
-0.000193855
-0.000242798
0.00103866
-0.000297725
0.00114998
0.00125917
-0.000229479
-0.000281978
0.00120248
-0.000340389
0.00131758
0.00143011
-0.000265542
0.00125243
-0.000321292
0.00137333
0.0014917
-0.000248478
-0.000301445
0.00142629
-0.000360152
0.0015504
0.0016716
-0.000280927
-0.000336639
0.00160612
-0.000398033
0.001733
0.00185669
-0.00031244
-0.000370663
0.00179122
-0.000434506
0.00192053
0.00204651
-0.000342632
-0.000403194
0.0019811
-0.000469328
0.00211264
0.00224084
-0.0003713
-0.000434167
0.00217551
-0.000502633
0.0023093
0.00243991
-0.000398526
-0.000463959
-0.000535281
0.00251123
0.00264512
-0.000493368
-0.000568696
0.00272045
0.00285992
-0.000522917
-0.000603309
0.00294031
0.00308909
-0.000551589
-0.000636525
0.00317402
0.0033355
-0.000576039
-0.000662597
0.00359632
-0.000675659
0.00386295
-0.00076187
-0.000673727
-0.000758544
-0.00847331
-0.000826084
-0.00858381
-0.000876897
-0.00867669
-0.000913344
-0.00875487
-0.00093771
-0.00882222
-0.000952087
-0.00887799
-0.000958312
-0.00892191
-0.000957882
-0.00895475
-0.000951988
-0.0089779
-0.000941572
-0.00899292
-0.000927382
-0.00900134
-0.00091002
-0.00900451
-0.000889967
-0.00900357
-0.000867621
-0.00899945
-0.000843307
-0.00899291
-0.000817297
-0.00898452
-0.000789821
-0.00897475
-0.000761075
-0.00896398
-0.000731228
-0.00895251
-0.000700423
-0.00894057
-0.000668787
-0.00892838
-0.000636429
-0.00891612
-0.000603445
-0.00890392
-0.000569918
-0.00889192
-0.000535921
-0.00888023
-0.000501519
-0.00886894
-0.000466768
-0.00885814
-0.000431719
-0.0088479
-0.000396414
-0.00883828
-0.000360895
-0.00882934
-0.000325194
-0.00882113
-0.000289343
-0.00881369
-0.000253371
-0.00880705
-0.00880124
-0.000846974
-0.0009138
-0.000963789
-0.000999063
-0.001022
-0.00103473
-0.00103912
-0.00103669
-0.00102865
-0.00101597
-0.000999433
-0.000979648
-0.00095712
-0.000932258
-0.0009054
-0.000876825
-0.000846773
-0.000815443
-0.000783009
-0.000749619
-0.000715403
-0.000680472
-0.000644924
-0.000608844
-0.000572307
-0.000535377
-0.000498112
-0.000460563
-0.000422774
-0.000384784
-0.000346628
-0.000308337
-0.00026994
-0.000231461
-0.000192923
-0.000154348
-0.00883082
-0.000115753
-0.00882767
-7.71558e-05
-0.00882542
-3.8569e-05
-0.00882405
-0.00882356
-0.000163488
-0.000122585
-8.16956e-05
-4.08317e-05
-0.000607846
0.00891677
-0.000568441
0.00890587
-0.000528715
0.0088954
-0.00048872
0.00888545
-0.000448499
0.00887607
-0.000408093
0.00886733
-0.000367537
0.00885929
-0.000326862
0.00885198
-0.000286095
0.00884545
-0.000245262
0.00883972
-0.000204386
0.00883484
-0.000163488
0.00883082
-0.000122585
0.00882767
-8.16956e-05
0.00882542
-4.08317e-05
0.00882405
0.00882356
-0.000846973
0.00847331
-0.0009138
0.00858381
-0.000963789
0.00867669
-0.000999063
0.00875487
-0.001022
0.00882222
-0.00103473
0.008878
-0.00103912
0.00892191
-0.00103669
0.00895475
-0.00102865
0.0089779
-0.00101597
0.00899292
-0.000999433
0.00900134
-0.000979648
0.00900451
-0.00095712
0.00900357
-0.000932258
0.00899945
-0.0009054
0.00899291
-0.000876825
0.00898452
-0.000846773
0.00897475
-0.000815443
0.00896398
-0.000783009
0.00895251
-0.000749619
0.00894057
-0.000715403
0.00892838
-0.000680472
0.00891612
-0.000644924
0.00890392
-0.000608844
0.00889192
-0.000572307
0.00888023
-0.000535377
-0.000498112
-0.000460563
-0.000422774
-0.000384784
-0.000346628
-0.000308337
-0.00026994
-0.000231461
-0.000192923
-0.000154348
-0.000115753
-7.71558e-05
-3.85689e-05
-0.000758543
-0.000826083
-0.000876897
-0.000913344
-0.000937709
-0.000952087
-0.000958312
-0.000957882
-0.000951988
-0.000941571
-0.000927382
-0.000910019
-0.000889967
-0.000867621
-0.000843307
-0.000817297
-0.000789821
-0.000761075
-0.000731228
-0.000700423
-0.000668787
-0.000636429
-0.000603445
-0.000569918
)
;

boundaryField
{
    inlet
    {
        type            calculated;
        value           nonuniform 0();
    }
    outlet
    {
        type            calculated;
        value           nonuniform 0();
    }
    cylinder
    {
        type            calculated;
        value           nonuniform 0();
    }
    top
    {
        type            symmetryPlane;
        value           uniform 0;
    }
    bottom
    {
        type            symmetryPlane;
        value           uniform 0;
    }
    defaultFaces
    {
        type            empty;
        value           nonuniform 0();
    }
    procBoundary6to5
    {
        type            processor;
        value           nonuniform List<scalar> 
176
(
-0.00377673
-0.000754268
-0.00350465
-0.00072944
-0.00324258
-0.000692223
-0.00300017
-0.000651336
-0.00277728
-0.000612656
-0.00256775
-0.000576642
-0.0023659
-0.000540967
-0.0021692
-0.000503934
-0.00197708
-0.000465104
-0.00178962
-0.000424621
-0.00160713
-0.000382879
-0.000404724
-0.00136577
-0.000358665
-0.00119823
-0.000312729
-0.000326941
-0.000978434
-0.000278909
-0.000830291
-0.00023263
-0.000240851
-0.000639328
-0.000194932
-0.000200556
-0.000205645
-0.000418544
-0.000160023
-0.000163156
-0.000165851
-0.000168104
-0.000184298
-0.000124228
-0.000125249
-0.000125931
-0.000126272
-0.000126272
-0.000125931
-0.000125249
-0.000124228
-0.000184298
-0.000168104
-0.000165851
-0.000163156
-0.000160023
-0.000418544
-0.000205645
-0.000200556
-0.000585822
-0.000248438
-0.000240851
-0.00023263
-0.000830291
-0.000278909
-0.000978435
-0.000326941
-0.000312729
-0.00119823
-0.000358665
-0.00136577
-0.000404724
-0.000382879
-0.00160713
-0.000424621
-0.00178962
-0.000465104
-0.00197708
-0.000503934
-0.0021692
-0.000540967
-0.0023659
-0.000576642
-0.00256775
-0.000612656
-0.00277728
-0.000651336
-0.00300017
-0.000692223
-0.00324258
-0.00072944
-0.00350465
-0.000754268
-0.00377673
-0.0083882
-0.00851699
-0.00862671
-0.0087196
-0.00879928
-0.00886526
-0.00891752
-0.00895718
-0.00898594
-0.0090056
-0.00901788
-0.00902429
-0.0090261
-0.00902432
-0.00901977
-0.00901309
-0.00900481
-0.00899531
-0.00898494
-0.00897396
-0.0089626
-0.00895105
-0.00893947
-0.008928
-0.00891677
-0.00890587
-0.0088954
-0.00888545
-0.00887607
-0.00886733
-0.00885929
-0.00885198
-0.00884545
-0.00883972
-0.00883484
0.000204386
-0.00887171
-0.00886857
-0.00886631
-0.00886492
-0.00886439
-0.00895579
-0.00894527
-0.00893513
-0.00892544
-0.00891629
-0.00890774
-0.00889984
-0.00889265
-0.00888621
-0.00888056
-0.00887572
-0.00887172
-0.00886858
-0.00886631
-0.00886492
-0.00886439
-0.0083882
-0.00851699
-0.00862671
-0.0087196
-0.00879928
-0.00886526
-0.00891752
-0.00895718
-0.00898594
-0.0090056
-0.00901788
-0.00902429
-0.0090261
-0.00902432
-0.00901977
-0.0090131
-0.00900481
-0.00899531
-0.00898494
-0.00897396
-0.0089626
-0.00895105
-0.00893947
0.000646872
-0.008928
)
;
    }
    procBoundary6to7
    {
        type            processor;
        value           nonuniform List<scalar> 
188
(
0.00394235
0.00350196
0.000594326
0.00368048
0.000511598
0.00325386
0.000496198
0.00301728
0.000474621
0.00279319
0.00243714
0.000450178
0.0025799
0.000362293
0.00223515
0.000338886
0.00203835
0.000314042
0.0018462
0.000287651
0.00165874
0.00025982
0.00147637
0.000230853
0.00129972
0.000201189
0.000215592
0.0010853
0.000182835
0.000925786
0.000150827
0.000774799
0.000120219
0.000126511
0.000598451
9.61335e-05
0.000471917
6.88539e-05
7.16088e-05
0.000330694
4.69852e-05
4.85065e-05
4.98863e-05
0.000190064
2.85313e-05
2.91528e-05
2.96881e-05
8.54941e-05
1.33327e-05
1.34955e-05
1.3618e-05
1.36998e-05
1.37407e-05
1.37407e-05
1.36998e-05
1.3618e-05
1.34955e-05
1.33327e-05
8.54942e-05
2.96881e-05
2.91528e-05
2.85313e-05
0.000190064
4.98863e-05
4.85065e-05
4.69852e-05
0.000330694
7.16088e-05
0.000440457
0.000100314
9.61335e-05
0.000598451
0.000126511
0.000120219
0.000774799
0.000150827
0.000925786
0.000182835
0.0010853
0.000215592
0.000201189
0.00129972
0.000230853
0.00147637
0.00025982
0.00165874
0.000287651
0.0018462
0.000314042
0.00203835
0.000338886
0.00223515
0.00237474
0.000424694
0.0025799
0.000450178
0.00279319
0.000474621
0.00301728
0.000496198
0.00325386
0.00342205
0.0005915
0.00368048
0.000594326
0.00394235
0.00855812
0.00865135
0.00872751
0.00879132
0.00884658
0.00889237
0.00892813
0.00895432
0.008972
0.0089825
0.00898715
0.00898714
0.00898352
0.00897711
0.00896859
0.00895851
0.00894728
0.00893524
0.00892266
0.00890977
0.00889675
0.00888376
0.00887094
0.00885839
0.00884623
0.00883454
0.00882339
0.00881285
0.00880298
0.00879382
0.00878543
0.00877784
0.00877108
0.00876518
-0.000217303
0.0087963
0.00879224
0.00878908
0.00878682
0.00878547
0.00878499
0.00886894
0.00885814
0.0088479
0.00883828
0.00882934
0.00882113
0.00881369
0.00880705
0.00880125
0.0087963
0.00879224
0.00878908
0.00878682
0.00878547
0.00878499
0.00855812
0.00865135
0.00872751
0.00879132
0.00884658
0.00889237
0.00892813
0.00895432
0.00897201
0.0089825
0.00898715
0.00898714
0.00898352
0.00897711
0.0089686
0.00895851
0.00894728
0.00893524
0.00892266
0.00890977
0.00889675
0.00888376
0.00887094
0.00885839
-0.000535921
0.00884623
)
;
    }
}


// ************************************************************************* //
