/*--------------------------------*- C++ -*----------------------------------*\
  =========                 |
  \\      /  F ield         | OpenFOAM: The Open Source CFD Toolbox
   \\    /   O peration     | Website:  https://openfoam.org
    \\  /    A nd           | Version:  7
     \\/     M anipulation  |
\*---------------------------------------------------------------------------*/
FoamFile
{
    version     2.0;
    format      ascii;
    class       surfaceScalarField;
    location    "5";
    object      phi;
}
// * * * * * * * * * * * * * * * * * * * * * * * * * * * * * * * * * * * * * //

dimensions      [0 3 -1 0 0 0 0];

internalField   nonuniform List<scalar> 
34
(
-0.000261367
0.000152913
-0.00153022
0.000659925
0.00142687
-0.00370452
-0.00558826
0.00151045
0.00250459
0.00360707
-0.01065
0.00435209
0.00514484
0.00579603
0.00435209
0.01065
0.00514484
0.00579603
0.00151045
0.00370452
0.00250459
0.00558826
0.00360707
0.000659925
0.00153022
0.00142687
0.000152913
0.000261367
0.00182511
0.00135384
0.000895255
0.000445263
0.000895255
0.000445263
)
;

boundaryField
{
    inlet
    {
        type            calculated;
        value           nonuniform 0();
    }
    outlet
    {
        type            calculated;
        value           nonuniform 0();
    }
    cylinder
    {
        type            calculated;
        value           uniform 0;
    }
    top
    {
        type            symmetryPlane;
        value           uniform 0;
    }
    bottom
    {
        type            symmetryPlane;
        value           uniform 0;
    }
    defaultFaces
    {
        type            empty;
        value           nonuniform 0();
    }
    procBoundary26to24
    {
        type            processor;
        value           nonuniform List<scalar> 8(-0.00449683 -0.0115628 -0.0132485 -0.0147194 -0.0115628 -0.0132485 -0.0147194 -0.00449683);
    }
    procBoundary26to25
    {
        type            processor;
        value           nonuniform List<scalar> 
24
(
-0.00041428
-0.000177373
-0.00201277
-0.000718139
-0.0065824
-0.00866937
-0.00343929
-0.0160356
-0.0160356
-0.0065824
-0.00343929
-0.00866937
-0.000718139
-0.00201277
-0.000177373
-0.00041428
-0.0243934
-0.0242329
-0.0241137
-0.0240337
-0.0239919
-0.0241137
-0.0240337
-0.0239919
)
;
    }
    procBoundary26to27
    {
        type            processor;
        value           nonuniform List<scalar> 
26
(
0.000134052
0.000127315
0.00109767
0.000585465
0.00293758
0.00457946
0.00243567
0.00756688
0.00471951
0.0124557
0.0140682
0.00631867
0.0124557
0.0140682
0.00631867
0.00756688
0.00471951
0.00293758
0.00243567
0.00457946
0.000585465
0.00109767
0.000127315
0.000134052
-0.00231368
-0.00135384
)
;
    }
    procBoundary26to28
    {
        type            processor;
        value           nonuniform List<scalar> 
12
(
0.00953756
0.0155129
0.0155129
0.00953756
0.024882
0.0247042
0.0245723
0.0244837
0.0244372
0.0245723
0.0244837
0.0244372
)
;
    }
}


// ************************************************************************* //
