/*--------------------------------*- C++ -*----------------------------------*\
  =========                 |
  \\      /  F ield         | OpenFOAM: The Open Source CFD Toolbox
   \\    /   O peration     | Website:  https://openfoam.org
    \\  /    A nd           | Version:  7
     \\/     M anipulation  |
\*---------------------------------------------------------------------------*/
FoamFile
{
    version     2.0;
    format      ascii;
    class       volVectorField;
    location    "20";
    object      U;
}
// * * * * * * * * * * * * * * * * * * * * * * * * * * * * * * * * * * * * * //

dimensions      [0 1 -1 0 0 0 0];

internalField   nonuniform List<vector> 
183
(
(1.097 0.284833 3.16127e-20)
(1.08603 0.313156 4.54107e-20)
(1.08508 0.299831 2.23302e-20)
(1.08418 0.28664 -3.6908e-20)
(1.07498 0.364982 4.03566e-20)
(1.07268 0.347404 -1.54884e-20)
(1.07151 0.330785 -3.51078e-20)
(1.07123 0.315285 1.56688e-20)
(1.05998 0.387363 4.24565e-20)
(1.05743 0.368052 -3.94082e-20)
(1.05589 0.349867 8.83511e-21)
(1.04684 0.433975 4.03908e-20)
(1.04348 0.411415 -2.57362e-20)
(1.04098 0.390218 -4.8988e-20)
(1.03174 0.488405 -5.27265e-22)
(1.02799 0.461974 -1.98818e-20)
(1.02503 0.437172 -2.89449e-20)
(1.02286 0.413924 8.16011e-21)
(1.00931 0.520884 -3.56876e-20)
(1.00645 0.491921 4.45433e-20)
(1.00417 0.464673 -1.49876e-20)
(0.982876 0.555086 -2.41267e-20)
(0.98164 0.523758 -1.15931e-21)
(0.980433 0.49394 -1.27319e-20)
(0.944904 0.620457 1.65764e-21)
(0.950921 0.590011 -6.74518e-20)
(0.95269 0.55716 4.78543e-20)
(0.953242 0.524899 7.07586e-21)
(0.894161 0.647605 4.86585e-20)
(0.910868 0.623277 -2.37512e-20)
(0.918211 0.591168 6.35148e-21)
(0.823479 0.659024 4.70583e-20)
(0.858446 0.649971 5.12031e-21)
(0.875836 0.623492 3.94608e-21)
(0.723523 0.640353 2.17518e-21)
(0.787169 0.661141 -2.55909e-20)
(0.82164 0.649342 1.31899e-20)
(0.840059 0.62104 2.93549e-20)
(0.583758 0.571595 2.92752e-20)
(0.688386 0.642405 -2.47631e-20)
(0.749657 0.659893 3.52991e-21)
(0.784041 0.645667 6.16768e-20)
(0.552452 0.573604 3.44961e-20)
(0.651967 0.640843 -3.61564e-20)
(0.711288 0.655237 7.34801e-20)
(0.371819 0.42997 4.50855e-20)
(0.519884 0.572044 -1.06209e-19)
(0.614638 0.635627 5.76138e-20)
(0.145646 0.185053 -7.74667e-20)
(0.347191 0.428708 -1.81526e-20)
(0.486424 0.566877 5.72762e-20)
(0.135034 0.184488 1.50323e-19)
(0.32183 0.424454 1.80081e-19)
(0.452438 0.558094 1.75178e-19)
(0.12406 0.182496 1.3517e-20)
(0.296041 0.417197 -2.33355e-19)
(0.112871 0.179068 -1.7434e-19)
(0.270128 0.406953 1.83595e-19)
(0.101616 0.174207 1.78525e-20)
(0.0904414 0.167936 2.48064e-19)
(0.0903717 -0.167773 3.04238e-20)
(0.101553 -0.17407 -2.74623e-19)
(0.112818 -0.178956 2.85863e-20)
(0.269997 -0.406619 -2.3803e-21)
(0.124019 -0.18241 -1.37987e-19)
(0.29593 -0.416914 -1.56112e-19)
(0.135007 -0.184427 2.70475e-19)
(0.321743 -0.424223 9.48187e-20)
(0.452314 -0.557675 -7.97162e-21)
(0.145634 -0.185016 -7.33121e-20)
(0.347133 -0.428528 -6.79441e-20)
(0.48633 -0.566518 6.33912e-20)
(0.371793 -0.429839 1.88733e-20)
(0.519825 -0.571744 -7.84979e-20)
(0.614551 -0.635165 -2.37153e-20)
(0.552431 -0.573362 3.26122e-20)
(0.651915 -0.640439 -9.83801e-21)
(0.711221 -0.654702 -6.88217e-20)
(0.58378 -0.57141 -3.96674e-20)
(0.688374 -0.642059 -1.18836e-20)
(0.749622 -0.65941 -1.18989e-20)
(0.784004 -0.645086 -8.25597e-20)
(0.723553 -0.640064 1.80877e-20)
(0.78717 -0.660712 2.16375e-20)
(0.821632 -0.648809 2.69319e-20)
(0.840063 -0.620437 -2.52645e-20)
(0.823519 -0.658648 -8.20063e-20)
(0.85847 -0.649486 -2.17466e-20)
(0.875866 -0.622933 1.72255e-21)
(0.884834 -0.589403 -1.39672e-20)
(0.894219 -0.647169 -1.26568e-20)
(0.910927 -0.622762 6.75153e-20)
(0.91829 -0.590602 -9.13149e-21)
(0.921898 -0.556628 -1.06924e-20)
(0.944991 -0.619986 -5.54388e-20)
(0.951025 -0.589486 6.93239e-20)
(0.952825 -0.556598 -2.74541e-22)
(0.953417 -0.52431 7.90165e-21)
(0.983034 -0.554565 -1.60529e-20)
(0.981836 -0.523209 2.45066e-20)
(0.980674 -0.493369 -2.36095e-20)
(1.00953 -0.520376 -2.72166e-21)
(1.00671 -0.491392 -8.22593e-21)
(1.00448 -0.464126 2.85922e-20)
(1.03202 -0.487918 4.87611e-22)
(1.02831 -0.461472 6.29555e-21)
(1.0254 -0.436655 3.6228e-20)
(1.02329 -0.413394 9.47233e-21)
(1.04722 -0.433504 -4.77009e-20)
(1.04392 -0.410935 8.09658e-21)
(1.04148 -0.389729 5.6565e-21)
(1.06048 -0.386927 9.51531e-22)
(1.05799 -0.367613 3.94903e-20)
(1.05651 -0.349427 -2.72107e-20)
(1.0733 -0.347023 4.16541e-21)
(1.0722 -0.330412 3.57115e-20)
(1.07199 -0.314924 -3.4777e-20)
(1.08677 -0.31286 -2.73391e-20)
(1.08589 -0.299546 -2.28331e-20)
(1.08505 -0.286371 6.16747e-21)
(1.09785 -0.28463 -7.11007e-22)
(1.10087 0.235554 -1.49826e-21)
(1.09933 0.22145 -3.62616e-21)
(1.1029 0.181949 3.58811e-21)
(1.10435 0.166037 1.00265e-21)
(1.10283 0.143836 7.08447e-22)
(1.1043 0.127868 -2.91057e-21)
(1.10317 0.115277 -1.65559e-21)
(1.09965 0.102941 1.41629e-21)
(1.09766 0.0896673 -3.9993e-22)
(1.0986 0.0794246 2.37835e-21)
(1.09648 0.0729262 1.25116e-22)
(1.09054 0.235798 -3.99244e-21)
(1.09189 0.2225 4.25276e-21)
(1.09691 0.183163 -3.17883e-21)
(1.09952 0.166883 7.37568e-21)
(1.09868 0.144727 4.62157e-21)
(1.10088 0.128363 -7.29775e-21)
(1.1004 0.116015 3.88392e-23)
(1.09699 0.103775 2.74299e-21)
(1.09508 0.0900493 -3.18113e-21)
(1.0966 0.0795224 4.06346e-21)
(1.09494 0.0733553 -7.00391e-21)
(1.09081 0.0658157 2.65629e-21)
(1.0869 0.0572664 -2.18169e-21)
(1.0842 0.0493538 -6.24843e-23)
(1.08319 0.0400969 -7.57757e-22)
(1.0836 0.0354708 1.28842e-21)
(1.07933 0.0297299 1.78378e-21)
(1.07732 0.0228619 -8.79412e-22)
(1.07596 0.0142283 1.56477e-21)
(1.07898 0.00897848 -1.65671e-21)
(1.07456 0.00593916 -3.34362e-23)
(1.07544 -0.00403058 2.75544e-21)
(1.09147 -0.235805 7.06269e-21)
(1.09315 -0.222537 -2.33742e-21)
(1.09855 -0.184663 -7.68837e-22)
(1.09967 -0.167188 -2.03543e-21)
(1.10144 -0.146366 2.89834e-21)
(1.10123 -0.132582 6.15454e-21)
(1.09774 -0.119488 -1.28419e-21)
(1.09548 -0.103094 -1.55978e-21)
(1.09593 -0.0943535 1.95624e-21)
(1.08955 -0.0828137 -1.72576e-21)
(1.08998 -0.0715071 7.41494e-22)
(1.08528 -0.0639429 -2.35135e-21)
(1.08504 -0.0517992 1.99918e-21)
(1.08513 -0.0456144 8.70609e-23)
(1.08462 -0.0389151 -8.51174e-22)
(1.08211 -0.0341216 3.07842e-22)
(1.0788 -0.0267908 -1.76938e-21)
(1.07888 -0.0185543 1.28806e-22)
(1.08101 -0.0134205 5.17449e-23)
(1.0798 -0.0100101 9.34174e-22)
(1.0769 -0.00379593 -7.4064e-22)
(1.10175 -0.235627 -1.37451e-21)
(1.10051 -0.221554 1.6913e-21)
(1.10444 -0.183399 -6.71643e-21)
(1.10448 -0.166456 -2.95389e-21)
(1.10527 -0.145555 -4.99511e-21)
(1.10437 -0.131687 4.29954e-21)
(1.10067 -0.118401 2.74158e-21)
(1.0982 -0.102471 -2.45332e-21)
)
;

boundaryField
{
    inlet
    {
        type            uniformFixedValue;
        uniformValue    constant (1 0 0);
        value           nonuniform 0();
    }
    outlet
    {
        type            pressureInletOutletVelocity;
        value           nonuniform 0();
    }
    cylinder
    {
        type            fixedValue;
        value           uniform (0 0 0);
    }
    top
    {
        type            symmetryPlane;
    }
    bottom
    {
        type            symmetryPlane;
    }
    defaultFaces
    {
        type            empty;
    }
    procBoundary11to10
    {
        type            processor;
        value           nonuniform List<vector> 
123
(
(1.07098 0.301601 -1.31878e-20)
(1.07089 0.287898 2.63327e-21)
(1.05545 0.332698 -1.7498e-20)
(1.07098 0.301601 -1.31878e-20)
(1.0559 0.31675 6.48218e-21)
(1.03931 0.370297 8.50817e-21)
(1.05545 0.332698 -1.7498e-20)
(1.03857 0.351556 5.07268e-21)
(1.03931 0.370297 8.50817e-21)
(1.02142 0.392123 -1.49174e-20)
(1.00259 0.439179 -1.29052e-20)
(1.02142 0.392123 -1.49174e-20)
(1.00168 0.415338 5.54277e-21)
(1.00259 0.439179 -1.29052e-20)
(0.979729 0.466 -9.09511e-21)
(0.979729 0.466 -9.09511e-21)
(0.953808 0.494381 1.65531e-20)
(0.921785 0.55723 1.06601e-20)
(0.953808 0.494381 1.65531e-20)
(0.924266 0.524231 7.07951e-21)
(0.921785 0.55723 1.06601e-20)
(0.884779 0.590011 1.20855e-20)
(0.884779 0.590011 1.20855e-20)
(0.850834 0.586481 -1.7217e-20)
(0.803789 0.615876 4.71347e-20)
(0.803789 0.615876 4.71347e-20)
(0.745949 0.638915 1.37527e-19)
(0.745949 0.638915 1.37527e-19)
(0.672403 0.647156 5.08696e-20)
(0.672403 0.647156 5.08696e-20)
(0.576769 0.626747 -5.06985e-20)
(0.576769 0.626747 -5.06985e-20)
(0.538723 0.614221 1.44376e-19)
(0.418287 0.545717 -1.76546e-19)
(0.418287 0.545717 -1.76546e-19)
(0.384326 0.529796 2.79393e-20)
(0.244391 0.393767 2.33869e-19)
(0.244391 0.393767 2.33869e-19)
(0.219121 0.377714 -6.26156e-20)
(0.0794911 0.160291 6.40557e-20)
(0.0794166 -0.160103 -3.94293e-19)
(0.218963 -0.377279 -1.90602e-19)
(0.244245 -0.393383 2.34929e-22)
(0.244245 -0.393383 2.34929e-22)
(0.384156 -0.52926 2.15274e-19)
(0.418138 -0.545239 -4.91641e-20)
(0.418138 -0.545239 -4.91641e-20)
(0.53858 -0.613643 9.36167e-20)
(0.576652 -0.626227 -7.73384e-20)
(0.576652 -0.626227 -7.73384e-20)
(0.672307 -0.646567 1.9108e-20)
(0.672307 -0.646567 1.9108e-20)
(0.745885 -0.638286 -4.93312e-20)
(0.745885 -0.638286 -4.93312e-20)
(0.803768 -0.61523 -8.76557e-20)
(0.803768 -0.61523 -8.76557e-20)
(0.850866 -0.585832 -2.80671e-20)
(0.850866 -0.585832 -2.80671e-20)
(0.890427 -0.554585 -6.6606e-21)
(0.890427 -0.554585 -6.6606e-21)
(0.92442 -0.523602 1.30719e-20)
(0.92442 -0.523602 1.30719e-20)
(0.954029 -0.493769 3.02989e-20)
(0.954029 -0.493769 3.02989e-20)
(0.980019 -0.465409 2.14699e-20)
(0.980019 -0.465409 2.14699e-20)
(1.00295 -0.438616 1.507e-20)
(1.00295 -0.438616 1.507e-20)
(1.00209 -0.414757 -8.82008e-21)
(1.0219 -0.39158 1.65957e-20)
(1.0219 -0.39158 1.65957e-20)
(1.03987 -0.369801 -1.2958e-20)
(1.03987 -0.369801 -1.2958e-20)
(1.03919 -0.351054 1.38324e-20)
(1.05614 -0.332262 2.08026e-21)
(1.05614 -0.332262 2.08026e-21)
(1.05667 -0.31632 -6.64709e-21)
(1.07181 -0.301246 -2.09298e-20)
(1.07181 -0.301246 -2.09298e-20)
(1.0718 -0.287556 1.19395e-20)
(1.07998 0.23574 3.63811e-21)
(1.08437 0.2232 -2.96143e-21)
(1.09087 0.184295 -2.51139e-21)
(1.09466 0.167673 5.17664e-21)
(1.09446 0.145598 -1.44121e-21)
(1.09742 0.128803 -6.56791e-21)
(1.09767 0.116726 5.47709e-21)
(1.09434 0.104664 -1.60538e-21)
(1.09243 0.090446 -2.67952e-21)
(1.09458 0.0795467 -4.73748e-21)
(1.09345 0.073742 -3.26547e-21)
(1.08932 0.0665038 1.20315e-21)
(1.08521 0.057891 -2.90015e-21)
(1.08242 0.0497303 8.39239e-22)
(1.08163 0.0401131 -2.1047e-21)
(1.08242 0.0356764 -3.49571e-22)
(1.078 0.0302299 1.96227e-21)
(1.07573 0.023184 -9.19306e-22)
(1.07447 0.0140761 1.05662e-21)
(1.07786 0.00907399 8.22896e-22)
(1.07302 0.00629624 -2.30948e-21)
(1.07396 -0.00430903 3.30469e-21)
(1.08094 -0.235671 -3.81476e-21)
(1.08571 -0.223157 3.10765e-21)
(1.09261 -0.185852 2.62287e-21)
(1.09479 -0.167842 -1.88353e-21)
(1.09757 -0.147095 -1.98471e-21)
(1.09812 -0.133442 6.76717e-21)
(1.09483 -0.120614 -5.3554e-21)
(1.09272 -0.103727 1.47202e-21)
(1.0937 -0.0950653 2.63084e-21)
(1.0873 -0.0835588 1.12963e-21)
(1.08792 -0.0720025 2.73245e-21)
(1.08317 -0.064448 -1.04306e-21)
(1.08305 -0.0518333 2.65732e-21)
(1.08359 -0.0455073 -1.91837e-21)
(1.08339 -0.0390331 2.06567e-21)
(1.0808 -0.0345239 -3.35633e-22)
(1.0772 -0.0270505 -1.5442e-21)
(1.07741 -0.0183531 -5.77974e-22)
(1.07997 -0.013289 1.48851e-21)
(1.07872 -0.0103085 -8.94637e-23)
(1.07872 -0.0103085 -8.94637e-23)
)
;
    }
    procBoundary11to12
    {
        type            processor;
        value           nonuniform List<vector> 
116
(
(1.10939 0.282468 3.55841e-21)
(1.10028 0.31041 7.20252e-21)
(1.09869 0.297462 4.17121e-21)
(1.09869 0.297462 4.17121e-21)
(1.09189 0.361142 -3.31584e-20)
(1.08888 0.344217 3.96291e-21)
(1.08701 0.328182 -5.95021e-20)
(1.08701 0.328182 -5.95021e-20)
(1.07836 0.383622 -1.07151e-20)
(1.07836 0.383622 -1.07151e-20)
(1.06792 0.429667 7.24393e-21)
(1.06348 0.407879 -4.92795e-20)
(1.06348 0.407879 -4.92795e-20)
(1.05619 0.483479 5.57659e-20)
(1.05107 0.457984 -3.17991e-20)
(1.05107 0.457984 -3.17991e-20)
(1.03613 0.516363 -3.4786e-20)
(1.03613 0.516363 -3.4786e-20)
(1.01217 0.55109 -1.39554e-19)
(1.01217 0.55109 -1.39554e-19)
(0.977689 0.615108 -2.80237e-20)
(0.9827 0.586611 2.58077e-20)
(0.9827 0.586611 2.58077e-20)
(0.928482 0.642314 -1.76986e-20)
(0.928482 0.642314 -1.76986e-20)
(0.858241 0.653611 9.40729e-20)
(0.858241 0.653611 9.40729e-20)
(0.757001 0.634757 -4.60536e-20)
(0.757001 0.634757 -4.60536e-20)
(0.613436 0.566089 -1.96235e-20)
(0.613436 0.566089 -1.96235e-20)
(0.417655 0.423715 -1.12056e-20)
(0.395407 0.428282 6.12385e-21)
(0.395407 0.428282 6.12385e-21)
(0.155748 0.184217 2.49086e-21)
(0.155748 0.184217 2.49086e-21)
(0.155754 -0.184204 -4.49212e-20)
(0.155754 -0.184204 -4.49212e-20)
(0.395417 -0.428199 -1.57938e-20)
(0.395417 -0.428199 -1.57938e-20)
(0.417703 -0.423677 -4.5886e-20)
(0.613504 -0.565959 -3.73016e-20)
(0.613504 -0.565959 -3.73016e-20)
(0.757078 -0.634524 -2.48998e-20)
(0.757078 -0.634524 -2.48998e-20)
(0.858323 -0.653287 -2.2098e-20)
(0.858323 -0.653287 -2.2098e-20)
(0.928576 -0.641926 -1.54354e-19)
(0.928576 -0.641926 -1.54354e-19)
(0.977807 -0.614681 1.00707e-19)
(0.982829 -0.586127 -1.04865e-20)
(0.982829 -0.586127 -1.04865e-20)
(1.01235 -0.550608 1.51438e-20)
(1.01235 -0.550608 1.51438e-20)
(1.03636 -0.515895 -4.32782e-20)
(1.03636 -0.515895 -4.32782e-20)
(1.05648 -0.483033 3.97171e-20)
(1.05141 -0.457525 -4.23721e-20)
(1.05141 -0.457525 -4.23721e-20)
(1.06832 -0.429241 -1.87776e-20)
(1.06393 -0.407447 3.37407e-20)
(1.06393 -0.407447 3.37407e-20)
(1.07886 -0.383235 -7.84458e-21)
(1.07554 -0.364597 -3.72476e-20)
(1.07554 -0.364597 -3.72476e-20)
(1.08949 -0.343891 -2.41592e-20)
(1.08769 -0.327869 1.25408e-20)
(1.08769 -0.327869 1.25408e-20)
(1.101 -0.310174 -8.7279e-20)
(1.09947 -0.297242 1.97355e-21)
(1.09947 -0.297242 1.97355e-21)
(1.11021 -0.282327 3.37783e-20)
(1.11092 0.235038 -2.28432e-21)
(1.10664 0.220088 3.40597e-22)
(1.10884 0.18067 -5.02534e-21)
(1.10917 0.165129 3.20203e-21)
(1.10695 0.142918 1.77859e-22)
(1.1077 0.127322 1.6468e-21)
(1.10598 0.114518 8.79755e-22)
(1.10232 0.102154 3.71422e-21)
(1.10019 0.08929 3.20495e-21)
(1.10058 0.0792637 -2.95497e-21)
(1.09809 0.0724675 -7.14449e-22)
(1.09235 0.0651642 -6.16452e-22)
(1.09235 0.0651642 -6.16452e-22)
(1.08859 0.0566957 -4.21582e-21)
(1.08596 0.0489923 2.55249e-21)
(1.08474 0.0400401 -1.26538e-22)
(1.08481 0.0352464 3.44178e-21)
(1.08069 0.029276 -6.0921e-22)
(1.07889 0.0225663 -1.0146e-21)
(1.07743 0.0143422 -4.90971e-22)
(1.08011 0.00888856 -3.10772e-21)
(1.07607 0.00562107 1.02e-22)
(1.09817 -0.0936361 4.32621e-21)
(1.09182 -0.0821017 -2.18602e-21)
(1.09203 -0.0710373 -5.67898e-23)
(1.08735 -0.063468 -8.70333e-21)
(1.08699 -0.0517491 3.51314e-21)
(1.08669 -0.0456618 4.94131e-22)
(1.08589 -0.0387781 9.99925e-22)
(1.08343 -0.0337605 1.15494e-21)
(1.08036 -0.0265615 3.2241e-22)
(1.08033 -0.0187135 -2.4409e-21)
(1.08209 -0.013515 -2.7365e-21)
(1.0809 -0.00975166 6.75167e-22)
(1.07833 -0.0036001 -4.64427e-22)
(1.11177 -0.23517 -7.62313e-21)
(1.10775 -0.220249 -3.53455e-22)
(1.1103 -0.182074 5.1379e-21)
(1.10926 -0.165642 1.11634e-21)
(1.1091 -0.144671 -4.62232e-21)
(1.10756 -0.130766 -1.67827e-21)
(1.10363 -0.117348 -8.65942e-22)
(1.09817 -0.0936361 4.32621e-21)
(1.10092 -0.101853 -3.61983e-21)
)
;
    }
}


// ************************************************************************* //
