/*--------------------------------*- C++ -*----------------------------------*\
  =========                 |
  \\      /  F ield         | OpenFOAM: The Open Source CFD Toolbox
   \\    /   O peration     | Website:  https://openfoam.org
    \\  /    A nd           | Version:  7
     \\/     M anipulation  |
\*---------------------------------------------------------------------------*/
FoamFile
{
    version     2.0;
    format      ascii;
    class       surfaceScalarField;
    location    "30";
    object      phi;
}
// * * * * * * * * * * * * * * * * * * * * * * * * * * * * * * * * * * * * * //

dimensions      [0 3 -1 0 0 0 0];

internalField   nonuniform List<scalar> 
260
(
-0.000253164
2.37177e-05
4.34341e-06
2.24515e-05
4.92451e-06
-0.000250591
5.1462e-05
4.94702e-05
-0.000245012
7.8505e-05
-0.000271248
7.57054e-05
7.19159e-05
-0.000236337
0.000104441
-0.000261348
0.000100716
9.55667e-05
-0.000224424
0.000128823
-0.000247735
0.000124027
0.000117287
-0.000209076
0.000151141
-0.000230146
0.000145096
0.000136507
-0.000190039
-0.000208215
0.000163272
0.000152547
-0.000181487
0.000177746
0.000164537
-0.00014944
0.000187504
-0.000156247
0.000171344
0.000150255
-0.000111551
-0.000111728
0.000171521
0.000145807
-5.91222e-05
0.000163293
0.000131931
2.24053e-06
0.000144591
2.80581e-05
0.000106113
5.84745e-05
7.29234e-05
0.000113527
6.55091e-05
7.20475e-06
0.00021189
7.04776e-06
0.000283802
-6.47069e-05
-0.000150414
0.000323931
0.000420314
-0.00016109
-0.000265703
0.000575234
0.000722711
-0.00041318
-0.000559971
0.000932515
-0.000596184
-0.000771378
0.00116417
0.0014158
-0.00102301
-0.00124827
0.00170463
0.0020227
-0.00156634
-0.00183673
0.00234783
0.00271854
-0.00220743
-0.00249822
0.00303362
-0.0028226
0.00369641
0.00281627
0.0037
0.00303508
0.00220056
0.00249135
0.00234777
0.00155936
0.00271913
0.0018292
0.00170395
0.00101649
0.00202231
0.001241
0.00116362
0.000590442
0.00141534
0.000764768
0.000932631
0.000407412
0.000553289
0.000576259
0.000156111
0.000723835
0.000259835
0.000325888
-1.14229e-05
0.000422484
5.95156e-05
0.000144311
0.000214937
-7.02358e-05
0.000287228
-1.2775e-05
7.6528e-05
-0.000149052
0.000117642
-0.00011135
-6.45976e-05
6.65242e-06
-0.000168354
3.31239e-05
-0.000137822
-5.40807e-05
-0.000177279
-0.000152465
-0.000106851
-0.000193162
-0.000106268
-0.000177862
-0.000157748
-0.000144583
-0.000184118
-0.000150604
-0.000171841
-0.000176671
-0.000170348
-0.000160628
-0.000186122
-0.00015792
-0.000203632
-0.000152839
-0.000145322
-0.000205502
-0.000136149
-0.000225967
-0.000132374
-0.000126766
-0.000221321
-0.000112238
-0.00024411
-0.000109584
-0.000105618
-0.000233811
-8.66834e-05
-0.000258401
-8.49942e-05
-0.000243148
-5.99203e-05
-5.90676e-05
-0.000249449
-3.2347e-05
-3.22372e-05
-0.000252779
0.00407685
-0.0241428
0.00397357
-0.02464
0.00374705
-0.024413
0.00350079
-0.024087
0.00325724
-0.023777
0.00302194
-0.0235239
0.00279357
-0.0233076
0.00257082
0.0023539
0.00214272
0.00193571
0.00173182
0.00153132
0.00133403
0.00113953
0.000947102
0.000755807
0.000566105
0.000377005
0.000188765
0.00401792
0.00385976
0.00361732
0.00337521
0.00314031
0.00291331
0.00402231
0.0241524
0.00386361
0.0246487
0.00362041
0.0244314
0.00337711
0.0240962
0.00314172
0.0237871
0.002914
0.0235304
0.00269288
0.0233091
0.00247784
0.0230976
0.00226878
0.022935
0.00206373
0.0227629
0.00186357
0.0226298
0.00166686
0.0224948
0.00147399
0.0223884
0.00128404
0.0222941
0.00109641
0.0222142
0.000910625
0.0221381
0.000726532
0.0220691
0.000544039
0.0220225
0.0219973
0.00408162
0.00397778
0.00375041
0.00350289
0.00325868
0.00302272
0.00279309
0.00256992
0.00235301
0.00214035
0.00193274
0.0017288
0.00152874
0.00133184
0.00113724
0.000944648
0.000753719
0.000564457
0.000376166
0.00018817
)
;

boundaryField
{
    inlet
    {
        type            calculated;
        value           nonuniform 0();
    }
    outlet
    {
        type            calculated;
        value           nonuniform 0();
    }
    cylinder
    {
        type            calculated;
        value           nonuniform 0();
    }
    top
    {
        type            symmetryPlane;
        value           uniform 0;
    }
    bottom
    {
        type            symmetryPlane;
        value           uniform 0;
    }
    defaultFaces
    {
        type            empty;
        value           nonuniform 0();
    }
    procBoundary30to29
    {
        type            processor;
        value           nonuniform List<scalar> 
110
(
0.000225103
0.000222847
0.000217969
0.000210401
0.000200042
0.000186758
0.000170391
0.000170789
0.000167013
0.000139683
0.000107756
0.000191299
6.73505e-05
1.64615e-05
-4.14329e-05
0.0001131
-0.000153429
-0.000244437
-7.24458e-05
-0.000450693
-0.00028563
-0.000749511
-0.000943675
-0.000816677
-0.00141482
-0.00131282
-0.00200089
-0.00191329
-0.00265651
-0.00258455
-0.00329288
-0.00322612
-0.00382223
-0.00322108
-0.00382628
-0.00329518
-0.00257856
-0.00265708
-0.00190675
-0.00200038
-0.00130647
-0.00141397
-0.000810957
-0.000943105
-0.000749601
-0.000280733
-0.000451637
-6.8272e-05
-0.000246194
-0.000156124
0.000117091
-4.45667e-05
1.26497e-05
6.30057e-05
0.000196268
0.000103746
0.000135539
0.000162902
0.000176965
0.000167077
0.00018373
0.00019741
0.000208257
0.000216385
0.000221875
0.000224775
-0.0231118
-0.0229306
-0.0227827
-0.0226493
-0.0225219
-0.0224007
-0.0222991
-0.0222127
-0.0221492
-0.0220759
-0.0220264
-0.021984
-0.0219708
-0.0219456
-0.0243385
-0.0244819
-0.0241706
-0.0238449
-0.0235421
-0.0232969
0.0026934
-0.0230877
-0.0243484
-0.02449
-0.0241882
-0.0238529
-0.0235517
-0.0233027
-0.023088
-0.0228826
-0.022726
-0.0225578
-0.0224296
-0.0222981
-0.0221955
-0.0221042
-0.0220265
-0.0219523
-0.021885
-0.02184
-0.0218158
0.000362539
-0.021972
-0.0219489
)
;
    }
    procBoundary30to31
    {
        type            processor;
        value           nonuniform List<scalar> 
88
(
-0.00028054
-0.00027761
-4.68472e-05
-0.000296316
-0.000284999
-0.000269455
-0.000249366
-0.000224255
-0.000193476
-0.000147356
-0.000159146
-0.00010728
-4.5246e-05
-9.28352e-05
6.24188e-05
0.000164797
6.31478e-05
0.000371069
0.000535603
0.000387798
0.000894884
0.00114392
0.000966965
0.00169711
0.00148961
0.00236981
0.00213944
0.00213198
0.00236985
0.00148165
0.00169682
0.00095952
0.00114411
0.000896141
0.000380983
0.000538009
0.000374915
5.66238e-05
0.000169465
6.8208e-05
-9.96816e-05
-3.94372e-05
-0.000100985
-0.000152643
-0.00015571
-0.000187885
-0.000218937
-0.000244523
-0.000265258
-0.00028159
-8.24291e-05
-0.000269075
-0.000276279
-0.000280092
0.0237624
0.0247433
0.0246395
0.0243333
0.0240205
0.0237592
0.023536
0.0233346
0.0231475
0.0229939
0.0228563
0.0227258
0.0226012
0.0224964
0.0224072
0.0223416
0.0222672
0.0222161
0.0221731
0.022159
0.0221343
0.0237708
0.0247526
0.0246587
0.0243438
0.0240313
0.0237664
0.0235388
0.0233208
0.0231519
0.0229755
0.0228374
0.0226987
0.0225884
)
;
    }
    procBoundary30to32
    {
        type            processor;
        value           nonuniform List<scalar> 
12
(
0.00307732
0.003358
0.00336
0.0030785
0.022491
0.0224087
0.0223307
0.02226
0.0222117
0.0221856
0.02216
0.0221371
)
;
    }
}


// ************************************************************************* //
