/*--------------------------------*- C++ -*----------------------------------*\
  =========                 |
  \\      /  F ield         | OpenFOAM: The Open Source CFD Toolbox
   \\    /   O peration     | Website:  https://openfoam.org
    \\  /    A nd           | Version:  7
     \\/     M anipulation  |
\*---------------------------------------------------------------------------*/
FoamFile
{
    version     2.0;
    format      ascii;
    class       volVectorField;
    location    "45";
    object      U;
}
// * * * * * * * * * * * * * * * * * * * * * * * * * * * * * * * * * * * * * //

dimensions      [0 1 -1 0 0 0 0];

internalField   nonuniform List<vector> 
392
(
(0.593496 -0.000670841 -1.03764e-23)
(0.596788 -0.000659434 -3.47994e-24)
(0.600027 -0.000648298 8.44357e-24)
(0.594084 -0.00201081 1.41684e-23)
(0.597367 -0.00197663 -2.58241e-23)
(0.600597 -0.00194327 1.55432e-23)
(0.595256 -0.00334549 1.84646e-22)
(0.598522 -0.00328866 -4.8174e-23)
(0.601736 -0.00323319 -5.92279e-23)
(0.597009 -0.00467139 1.65598e-24)
(0.600249 -0.00459212 -3.46645e-23)
(0.603437 -0.00451474 9.85324e-23)
(0.599336 -0.00598508 1.76054e-23)
(0.602541 -0.00588365 -1.63865e-22)
(0.605696 -0.00578463 3.63767e-23)
(0.602226 -0.00728318 -1.32327e-22)
(0.605389 -0.00715994 -1.42795e-22)
(0.608502 -0.00703963 1.76956e-22)
(0.605669 -0.0085624 7.84298e-23)
(0.608782 -0.00841778 -6.29008e-23)
(0.611845 -0.00827661 -1.90826e-23)
(0.609651 -0.00981956 -2.8327e-22)
(0.612706 -0.00965408 -3.88571e-23)
(0.615713 -0.00949252 2.17732e-22)
(0.614155 -0.0110516 -1.10186e-22)
(0.617145 -0.0108658 3.45217e-22)
(0.620089 -0.0106844 -2.71071e-22)
(0.619165 -0.0122556 -9.13144e-23)
(0.622084 -0.0120502 -4.18428e-22)
(0.624957 -0.0118496 2.13051e-22)
(0.624661 -0.0134288 1.21935e-23)
(0.627502 -0.0132044 3.03227e-22)
(0.630298 -0.0129852 -3.95187e-22)
(0.630622 -0.0145686 3.49823e-23)
(0.633379 -0.0143259 -1.27323e-22)
(0.636094 -0.014089 4.83484e-22)
(0.637025 -0.0156726 1.7452e-22)
(0.639693 -0.0154124 -1.29201e-22)
(0.642321 -0.0151585 -9.48255e-23)
(0.643846 -0.0167385 -2.15726e-22)
(0.646421 -0.0164617 2.21113e-22)
(0.648957 -0.0161915 -2.77497e-22)
(0.651061 -0.0177643 -1.04663e-22)
(0.653538 -0.0174718 9.53376e-24)
(0.655979 -0.0171862 -6.8338e-23)
(0.658642 -0.0187482 2.51339e-23)
(0.661018 -0.0184408 1.53932e-22)
(0.66336 -0.0181407 -7.74458e-23)
(0.666563 -0.0196885 1.05228e-21)
(0.668836 -0.0193672 -7.10679e-22)
(0.671076 -0.0190535 -1.19646e-22)
(0.674796 -0.020584 6.00262e-22)
(0.676963 -0.0202497 -6.40271e-22)
(0.6791 -0.0199233 5.01525e-23)
(0.683313 -0.0214334 -4.05348e-22)
(0.685372 -0.021087 -6.22793e-22)
(0.687404 -0.0207488 9.73099e-22)
(0.692084 -0.0222357 -4.23224e-23)
(0.694035 -0.0218782 -1.7975e-22)
(0.695961 -0.0215292 8.90651e-22)
(0.701082 -0.0229901 2.19356e-22)
(0.702925 -0.0226225 -8.64139e-22)
(0.704743 -0.0222637 9.21718e-23)
(0.710278 -0.0236965 -1.33375e-22)
(0.712012 -0.0233198 3.18123e-22)
(0.713724 -0.0229519 -3.2277e-22)
(0.719642 -0.0243566 -1.39912e-22)
(0.721268 -0.0239714 -4.65287e-22)
(0.722875 -0.0235954 2.08595e-22)
(0.729147 -0.024969 -2.55324e-22)
(0.730666 -0.0245763 6.66912e-22)
(0.732169 -0.0241929 9.53508e-23)
(0.733655 -0.0238186 6.98863e-24)
(0.749114 -0.0256336 0)
(0.750415 -0.0252388 0)
(0.751703 -0.0248533 0)
(0.777898 -0.0268439 0)
(0.778887 -0.0264385 0)
(0.779868 -0.0260426 -9.19692e-29)
(0.807507 -0.0277321 0)
(0.808188 -0.027321 0)
(0.808867 -0.0269196 -1.01001e-28)
(0.837488 -0.028297 0)
(0.837873 -0.0278852 0)
(0.83826 -0.0274831 4.25107e-29)
(0.867409 -0.0285513 0)
(0.867515 -0.0281435 0)
(0.867627 -0.0277454 -9.22908e-29)
(0.896869 -0.0285167 0)
(0.896717 -0.0281172 0)
(0.896575 -0.027727 0)
(0.925504 -0.0282193 0)
(0.925121 -0.0278315 0)
(0.92475 -0.0274528 0)
(0.952998 -0.0276882 0)
(0.952411 -0.0273151 0)
(0.951838 -0.0269507 0)
(0.97908 -0.0269556 5.98477e-30)
(0.97832 -0.0265992 0)
(0.977576 -0.0262513 -5.43099e-30)
(1.00354 -0.0260546 -5.98477e-30)
(1.00263 -0.0257165 0)
(1.00175 -0.0253866 5.43099e-30)
(1.02621 -0.0250187 0)
(1.02519 -0.0246998 0)
(1.0242 -0.0243886 0)
(1.04698 -0.0238803 0)
(1.04589 -0.023581 0)
(1.04481 -0.0232889 0)
(1.06581 -0.0226704 0)
(1.06466 -0.0223903 0)
(1.06352 -0.0221171 0)
(1.08267 -0.0214168 0)
(1.08149 -0.0211554 0)
(1.08032 -0.0209006 1.51811e-28)
(1.09759 -0.0201448 -6.94248e-30)
(1.09641 -0.0199011 0)
(1.09523 -0.0196637 -1.13664e-28)
(1.11065 -0.0188756 6.94248e-30)
(1.10948 -0.0186486 0)
(1.10831 -0.0184276 -6.33337e-30)
(1.12194 -0.0176271 0)
(1.12079 -0.0174155 0)
(1.11965 -0.0172096 2.9302e-12)
(1.13157 -0.0164133 0)
(1.13046 -0.0162158 0)
(1.12936 -0.0160238 -2.9302e-12)
(1.13968 -0.0152446 0)
(1.13861 -0.01506 -7.15956e-29)
(1.13755 -0.0148807 0)
(1.14641 -0.0141281 0)
(1.14539 -0.0139553 7.15956e-29)
(1.14438 -0.0137875 0)
(1.1519 -0.0130681 0)
(1.15094 -0.0129059 0)
(1.14998 -0.0127486 0)
(1.15631 -0.0120661 0)
(1.1554 -0.0119138 0)
(1.1545 -0.0117661 -4.88883e-29)
(1.15977 -0.0111218 0)
(1.15892 -0.0109787 0)
(1.15807 -0.0108399 2.51908e-28)
(1.16243 -0.0102331 0)
(1.16162 -0.0100985 0)
(1.16082 -0.0099681 1.43173e-28)
(1.1644 -0.00939674 -2.33223e-28)
(1.16364 -0.0092703 5.88865e-29)
(1.16289 -0.00914781 5.11852e-29)
(1.1658 -0.00860858 2.33223e-28)
(1.16509 -0.00849001 -5.88865e-29)
(1.16438 -0.00837519 -2.62902e-28)
(1.16675 -0.00786402 0)
(1.16607 -0.00775318 -6.03044e-29)
(1.1654 -0.00764586 7.0263e-29)
(1.16732 -0.00715825 0)
(1.16667 -0.00705508 6.03044e-29)
(1.16604 -0.00695518 -7.0263e-29)
(1.1676 -0.00648646 -2.26162e-28)
(1.16698 -0.00639096 0)
(1.16638 -0.00629849 0)
(1.16766 -0.005844 2.26162e-28)
(1.16707 -0.00575625 0)
(1.16649 -0.00567126 0)
(1.16757 -0.00522652 0)
(1.167 -0.00514661 0)
(1.16644 -0.0050692 -3.57794e-12)
(1.16736 -0.00463003 0)
(1.16681 -0.00455808 0)
(1.16627 -0.00448838 3.57794e-12)
(1.16709 -0.00405096 0)
(1.16656 -0.0039871 0)
(1.16603 -0.00392522 0)
(1.16679 -0.00348611 0)
(1.16627 -0.00343047 0)
(1.16575 -0.00337656 -5.5664e-29)
(1.16649 -0.00293272 0)
(1.16597 -0.00288542 0)
(1.16547 -0.00283958 -1.58697e-28)
(1.1662 -0.00238836 0)
(1.1657 -0.00234951 0)
(1.1652 -0.00231185 0)
(1.16595 -0.00185094 -2.54464e-28)
(1.16545 -0.00182063 0)
(1.16496 -0.00179124 9.91765e-29)
(1.16576 -0.00131863 2.54464e-28)
(1.16526 -0.00129693 0)
(1.16478 -0.00127588 -1.60222e-28)
(1.16562 -0.000789831 -2.3708e-28)
(1.16513 -0.000776788 8.63812e-29)
(1.16464 -0.00076414 9.95703e-29)
(1.16555 -0.000263059 2.39627e-28)
(1.16506 -0.000258708 -8.7309e-29)
(1.16458 -0.000254488 -1.62328e-28)
(0.979857 0.0273206 0)
(1.00446 0.0264009 0)
(1.02724 0.0253453 5.83435e-12)
(1.0481 0.0241871 -5.83435e-12)
(1.06697 0.0229575 0)
(1.08386 0.0216849 0)
(1.0988 0.0203947 0)
(1.11184 0.0191086 0)
(1.12311 0.0178444 0)
(1.1327 0.0166162 0)
(1.14076 0.0154344 -6.96947e-12)
(1.14744 0.0143059 6.96947e-12)
(1.15288 0.013235 0)
(1.15723 0.012223 0)
(1.16064 0.0112693 0)
(1.16324 0.0103719 0)
(1.16517 0.0095271 3.82495e-12)
(1.16653 0.00873083 -3.82495e-12)
(1.16743 0.00797831 0)
(1.16797 0.00726463 0)
(1.16822 0.00658492 0)
(1.16826 0.00593446 0)
(1.16814 0.00530889 4.05408e-12)
(1.16792 0.00470418 -4.05408e-12)
(1.16763 0.00411675 0)
(1.16732 0.00354343 0)
(1.16701 0.00298143 0)
(1.16671 0.00242837 0)
(1.16646 0.00188215 0)
(1.16626 0.00134098 0)
(1.16612 0.000803259 -2.46805e-28)
(1.16605 0.000267539 2.49456e-28)
(0.749114 0.0256337 0)
(0.777898 0.0268439 0)
(0.807507 0.0277322 0)
(0.837488 0.028297 0)
(0.867409 0.0285513 0)
(0.896869 0.0285168 0)
(0.925505 0.0282193 0)
(0.952998 0.0276883 0)
(0.97908 0.0269556 0)
(1.00354 0.0260546 0)
(1.02621 0.0250187 2.78597e-12)
(1.04698 0.0238804 -2.78597e-12)
(1.06581 0.0226704 1.86142e-28)
(1.08267 0.0214169 -1.86142e-28)
(1.09759 0.0201448 0)
(1.11065 0.0188756 0)
(1.12194 0.0176271 0)
(1.13157 0.0164133 0)
(1.13968 0.0152446 -6.67554e-12)
(1.14641 0.0141281 6.67554e-12)
(1.1519 0.0130681 0)
(1.15631 0.0120661 0)
(1.15977 0.0111218 0)
(1.16243 0.0102331 0)
(1.1644 0.00939676 3.66907e-12)
(1.1658 0.00860859 -3.66907e-12)
(1.16675 0.00786403 2.38752e-28)
(1.16732 0.00715826 -2.38752e-28)
(1.1676 0.00648647 2.26162e-28)
(1.16766 0.00584401 -2.26162e-28)
(1.16757 0.00522653 3.89245e-12)
(1.16736 0.00463004 -3.89245e-12)
(1.16709 0.00405096 -2.5056e-28)
(1.16679 0.00348612 2.5056e-28)
(1.16649 0.00293272 0)
(1.1662 0.00238836 0)
(1.16595 0.00185094 0)
(1.16576 0.00131863 0)
(1.16562 0.000789832 -4.01547e-12)
(1.16555 0.00026306 4.0586e-12)
(0.750415 0.0252388 0)
(0.778887 0.0264385 0)
(0.808189 0.0273211 0)
(0.837873 0.0278853 0)
(0.867515 0.0281436 0)
(0.896718 0.0281172 0)
(0.925121 0.0278315 0)
(0.952411 0.0273151 0)
(0.97832 0.0265993 0)
(1.00264 0.0257166 0)
(1.02519 0.0246998 0)
(1.04589 0.023581 0)
(1.06466 0.0223903 -4.68277e-29)
(1.08149 0.0211554 4.68277e-29)
(1.09641 0.0199011 -1.14092e-28)
(1.10948 0.0186486 1.14092e-28)
(1.12079 0.0174155 0)
(1.13046 0.0162158 0)
(1.13861 0.01506 -3.194e-12)
(1.14539 0.0139553 3.194e-12)
(1.15094 0.012906 0)
(1.1554 0.0119138 0)
(1.15892 0.0109787 0)
(1.16162 0.0100985 0)
(1.16364 0.00927031 3.51628e-12)
(1.16509 0.00849003 -3.51628e-12)
(1.16607 0.0077532 -6.03044e-29)
(1.16667 0.00705509 6.03044e-29)
(1.16698 0.00639097 0)
(1.16707 0.00575625 0)
(1.167 0.00514661 0)
(1.16681 0.00455809 0)
(1.16656 0.0039871 6.33339e-29)
(1.16627 0.00343048 -6.33339e-29)
(1.16597 0.00288542 0)
(1.1657 0.00234951 0)
(1.16545 0.00182063 6.4336e-29)
(1.16526 0.00129693 -6.4336e-29)
(1.16513 0.000776789 -3.85361e-12)
(1.16506 0.000258708 3.895e-12)
(0.751703 0.0248533 -9.51285e-29)
(0.779868 0.0260427 0)
(0.808867 0.0269196 1.01002e-28)
(0.83826 0.0274831 0)
(0.867627 0.0277454 0)
(0.896575 0.0277271 0)
(0.92475 0.0274528 0)
(0.951838 0.0269507 0)
(0.977576 0.0262513 0)
(1.00175 0.0253866 0)
(1.0242 0.0243887 -3.50582e-29)
(1.04481 0.0232889 1.4419e-28)
(1.06352 0.0221171 0)
(1.08032 0.0209006 0)
(1.09523 0.0196638 6.33338e-30)
(0.729147 0.024969 3.08267e-22)
(0.730666 0.0245763 -6.65414e-22)
(0.732169 0.024193 -9.46768e-23)
(0.719642 0.0243566 7.42311e-23)
(0.721268 0.0239715 4.93474e-22)
(0.722875 0.0235955 -2.23471e-22)
(0.710278 0.0236966 1.99576e-22)
(0.712012 0.0233198 -3.33577e-22)
(0.713724 0.022952 3.83576e-22)
(0.701082 0.0229902 -3.48551e-22)
(0.702925 0.0226226 8.31076e-22)
(0.704743 0.0222637 -1.44291e-22)
(0.692084 0.0222357 1.08745e-22)
(0.694035 0.0218783 2.50536e-22)
(0.695961 0.0215293 -8.16926e-22)
(0.683313 0.0214334 3.8459e-22)
(0.685372 0.0210871 5.76255e-22)
(0.687404 0.0207489 -1.04603e-21)
(0.674796 0.020584 -5.96516e-22)
(0.676963 0.0202497 6.19886e-22)
(0.6791 0.0199233 -1.74694e-22)
(0.666563 0.0196886 -3.87911e-22)
(0.668836 0.0193673 6.75231e-22)
(0.671076 0.0190536 1.32165e-22)
(0.658642 0.0187482 2.22396e-22)
(0.661018 0.0184408 -1.49519e-22)
(0.66336 0.0181407 3.00266e-22)
(0.651061 0.0177643 -4.39423e-22)
(0.653538 0.0174718 5.09466e-22)
(0.655979 0.0171862 -1.30785e-23)
(0.643846 0.0167385 2.02782e-22)
(0.646421 0.0164618 1.82288e-23)
(0.648957 0.0161916 -2.03348e-22)
(0.637025 0.0156726 -9.07067e-23)
(0.639693 0.0154125 1.47667e-22)
(0.642321 0.0151585 2.06476e-22)
(0.630622 0.0145687 -1.21159e-22)
(0.633379 0.014326 1.2079e-23)
(0.636094 0.014089 -4.04041e-22)
(0.624661 0.0134289 5.58085e-23)
(0.627502 0.0132044 -9.27956e-23)
(0.630298 0.0129853 3.41312e-22)
(0.619165 0.0122557 2.75121e-23)
(0.622084 0.0120502 2.01334e-22)
(0.624957 0.0118496 -2.33406e-22)
(0.614155 0.0110517 1.69902e-22)
(0.617145 0.0108659 -2.41987e-22)
(0.620089 0.0106845 3.27528e-22)
(0.609651 0.00981961 3.04947e-22)
(0.612706 0.00965413 2.35785e-23)
(0.615713 0.00949257 -2.91716e-22)
(0.605669 0.00856245 -1.24282e-22)
(0.608782 0.00841784 1.31911e-22)
(0.611845 0.00827666 1.17625e-24)
(0.602226 0.00728323 2.83274e-23)
(0.605389 0.00715999 -1.59763e-22)
(0.608502 0.00703968 6.71355e-23)
(0.599336 0.00598513 -1.33587e-22)
(0.602541 0.0058837 2.1888e-22)
(0.605696 0.00578468 1.80431e-23)
(0.597009 0.00467144 -3.23526e-23)
(0.600249 0.00459218 1.47063e-23)
(0.603437 0.0045148 -6.44315e-23)
(0.595256 0.00334554 -1.28195e-22)
(0.598522 0.00328872 9.4091e-23)
(0.601736 0.00323325 9.22281e-23)
(0.594084 0.00201086 6.44392e-25)
(0.597367 0.00197668 -1.52144e-24)
(0.600597 0.00194332 -1.84918e-23)
(0.593496 0.000670891 8.06164e-24)
(0.596788 0.000659487 1.88679e-23)
(0.600027 0.000648355 -1.68303e-23)
)
;

boundaryField
{
    inlet
    {
        type            uniformFixedValue;
        uniformValue    constant (1 0 0);
        value           nonuniform 0();
    }
    outlet
    {
        type            pressureInletOutletVelocity;
        value           nonuniform 0();
    }
    cylinder
    {
        type            fixedValue;
        value           nonuniform 0();
    }
    top
    {
        type            symmetryPlane;
    }
    bottom
    {
        type            symmetryPlane;
    }
    defaultFaces
    {
        type            empty;
    }
    procBoundary54to53
    {
        type            processor;
        value           nonuniform List<vector> 
131
(
(0.59015 -0.000682528 -1.37909e-23)
(0.590746 -0.00204582 -2.5961e-23)
(0.591937 -0.00340371 1.27358e-23)
(0.593717 -0.00475261 8.99583e-23)
(0.596078 -0.006089 -8.5995e-23)
(0.599012 -0.00740943 -7.34294e-23)
(0.602506 -0.00871055 1.10948e-22)
(0.606547 -0.00998909 -3.07521e-22)
(0.611118 -0.0112419 2.49546e-22)
(0.616201 -0.0124661 -1.44036e-22)
(0.621776 -0.0136587 2.00271e-22)
(0.627822 -0.0148172 3.16399e-22)
(0.634316 -0.015939 -2.21754e-22)
(0.641232 -0.017022 -5.07922e-22)
(0.648546 -0.0180639 2.44722e-22)
(0.65623 -0.019063 2.47737e-22)
(0.664257 -0.0200176 -9.5098e-22)
(0.672598 -0.0209264 1.41615e-22)
(0.681224 -0.0217881 -6.49767e-22)
(0.690107 -0.0226018 5.39286e-22)
(0.699216 -0.0233666 -1.59925e-22)
(0.708523 -0.0240824 -4.24318e-23)
(0.717997 -0.024751 -5.41978e-23)
(0.727611 -0.0253712 5.90927e-22)
(0.7478 -0.026038 0)
(0.7478 -0.026038 0)
(0.776901 -0.027259 0)
(0.806822 -0.0281531 0)
(0.837104 -0.0287187 0)
(0.867308 -0.0289688 5.6776e-30)
(0.89703 -0.0289258 -5.6776e-30)
(0.9259 -0.0286163 0)
(0.953599 -0.0280704 0)
(0.979857 -0.0273205 -6.27212e-30)
(1.00446 -0.0264008 6.27212e-30)
(1.02724 -0.0253453 0)
(1.0481 -0.0241871 0)
(1.06697 -0.0229575 0)
(1.08386 -0.0216849 0)
(1.0988 -0.0203947 7.25784e-30)
(1.11184 -0.0191086 -7.25784e-30)
(1.12311 -0.0178444 -3.35067e-12)
(1.1327 -0.0166162 3.35067e-12)
(1.14076 -0.0154343 0)
(1.14744 -0.0143059 0)
(1.15288 -0.0132349 0)
(1.15723 -0.0122229 0)
(1.16064 -0.0112693 0)
(1.16324 -0.0103718 0)
(1.16517 -0.00952709 0)
(1.16653 -0.00873081 0)
(1.16743 -0.00797829 0)
(1.16797 -0.00726462 0)
(1.16822 -0.00658491 2.35611e-28)
(1.16826 -0.00593445 -2.35611e-28)
(1.16814 -0.00530888 0)
(1.16792 -0.00470418 0)
(1.16763 -0.00411675 0)
(1.16732 -0.00354342 0)
(1.16701 -0.00298143 0)
(1.16671 -0.00242836 0)
(1.16646 -0.00188215 2.64914e-28)
(1.16626 -0.00134098 -2.64914e-28)
(1.16612 -0.000803258 2.46805e-28)
(1.16605 -0.000267539 -2.49456e-28)
(0.980651 0.0276942 0)
(1.0054 0.0267554 0)
(1.02829 0.0256799 3.05165e-12)
(1.04923 0.0245013 -3.05165e-12)
(1.06816 0.0232516 0)
(1.08508 0.0219596 0)
(1.10002 0.020651 0)
(1.11305 0.0193476 0)
(1.12428 0.0180674 0)
(1.13384 0.0168245 0)
(1.14185 0.0156293 -3.63499e-12)
(1.14848 0.0144887 3.63499e-12)
(1.15386 0.0134066 0)
(1.15816 0.0123843 0)
(1.16152 0.0114211 0)
(1.16407 0.0105146 0)
(1.16594 0.00966128 3.98398e-12)
(1.16726 0.00885666 -3.98398e-12)
(1.16812 0.00809595 0)
(1.16863 0.00737413 0)
(1.16885 0.00668625 0)
(1.16886 0.00602755 0)
(1.16872 0.00539363 0)
(1.16848 0.00478045 0)
(1.16818 0.00418442 0)
(1.16786 0.00360236 0)
(1.16754 0.00303152 0)
(1.16724 0.00246949 0)
(1.16698 0.00191423 -7.25967e-29)
(1.16677 0.00136394 7.25967e-29)
(1.16663 0.000817058 9.74587e-29)
(1.16656 0.000272142 -9.85055e-29)
(0.7478 0.0260381 0)
(0.7478 0.0260381 0)
(0.776901 0.027259 0)
(0.806822 0.0281532 0)
(0.837104 0.0287187 0)
(0.867308 0.0289688 -5.67761e-30)
(0.89703 0.0289259 5.67761e-30)
(0.9259 0.0286164 0)
(0.953599 0.0280704 0)
(0.953599 0.0280704 0)
(0.727611 0.0253712 -5.89267e-22)
(0.717997 0.0247511 3.60215e-23)
(0.708523 0.0240825 7.47121e-23)
(0.699216 0.0233666 1.93788e-22)
(0.690107 0.0226019 -5.31339e-22)
(0.681225 0.0217882 5.43635e-22)
(0.672598 0.0209264 -9.25116e-23)
(0.664257 0.0200177 1.18682e-22)
(0.65623 0.019063 -3.15798e-22)
(0.648546 0.0180639 1.94811e-23)
(0.641232 0.017022 2.4131e-22)
(0.634316 0.0159391 2.27234e-22)
(0.627822 0.0148172 -9.86035e-23)
(0.621776 0.0136588 -1.39596e-22)
(0.616201 0.0124661 -9.64791e-23)
(0.611118 0.011242 -1.44222e-22)
(0.606547 0.00998914 -9.19682e-23)
(0.602506 0.0087106 -1.85103e-22)
(0.599012 0.00740948 1.96847e-22)
(0.596078 0.00608904 -3.0238e-23)
(0.593717 0.00475265 8.98392e-23)
(0.591937 0.00340375 -2.41694e-23)
(0.590746 0.00204587 -2.48877e-23)
(0.59015 0.000682574 6.52943e-24)
)
;
    }
    procBoundary54to55
    {
        type            processor;
        value           nonuniform List<vector> 
131
(
(0.603215 -0.000637427 1.92064e-24)
(0.603777 -0.00191069 -2.58742e-23)
(0.604898 -0.00317903 -5.05382e-23)
(0.606575 -0.00443919 6.15098e-23)
(0.6088 -0.00568795 -6.4558e-23)
(0.611566 -0.00692217 6.03981e-23)
(0.614861 -0.00813877 -3.62618e-23)
(0.618673 -0.00933479 1.8304e-22)
(0.622986 -0.0105074 -1.70008e-22)
(0.627785 -0.0116537 -9.79131e-23)
(0.633052 -0.0127713 -2.56301e-22)
(0.638767 -0.0138577 3.04647e-22)
(0.644909 -0.0149105 -8.45525e-23)
(0.651456 -0.0159277 -1.59911e-22)
(0.658384 -0.0169073 -1.38895e-22)
(0.665669 -0.0178477 -6.38333e-23)
(0.673285 -0.0187472 -2.95109e-22)
(0.681207 -0.0196046 -2.83269e-22)
(0.689408 -0.0204187 3.03332e-22)
(0.697861 -0.0211885 -1.33057e-22)
(0.706539 -0.0219132 -4.99393e-22)
(0.715416 -0.0225928 2.75168e-22)
(0.724463 -0.0232283 -3.9431e-22)
(0.724463 -0.0232283 -3.9431e-22)
(0.735124 -0.0234532 -1.15968e-22)
(0.752979 -0.0244768 0)
(0.780842 -0.0256561 -9.19692e-29)
(0.809543 -0.0265275 -1.01001e-28)
(0.838649 -0.0270904 4.25107e-29)
(0.867745 -0.0273565 -9.22908e-29)
(0.896442 -0.0273461 0)
(0.924391 -0.0270831 0)
(0.95128 -0.026595 0)
(0.976849 -0.0259117 5.87303e-29)
(1.00088 -0.0250646 -5.87303e-29)
(1.02322 -0.0240851 0)
(1.04375 -0.0230041 0)
(1.06241 -0.0218509 0)
(1.07918 -0.0206524 1.51811e-28)
(1.09408 -0.0194327 -1.88679e-28)
(1.10717 -0.0182126 6.86823e-29)
(1.11853 -0.0170095 2.79622e-12)
(1.12827 -0.0158373 -2.79622e-12)
(1.13651 -0.0147066 1.62316e-29)
(1.14338 -0.0136247 -1.62316e-29)
(1.14904 -0.0125962 0)
(1.1536 -0.0116231 -4.88883e-29)
(1.15722 -0.0107056 2.51908e-28)
(1.16003 -0.00984192 1.43173e-28)
(1.16214 -0.00902936 1.36325e-28)
(1.16367 -0.00826417 -3.48042e-28)
(1.16473 -0.0075421 0)
(1.16541 -0.0068586 0)
(1.16578 -0.0062091 0)
(1.16592 -0.0055891 0)
(1.16589 -0.00499437 -3.42489e-12)
(1.16574 -0.00442098 3.42489e-12)
(1.16551 -0.00386539 0)
(1.16525 -0.0033244 -5.5664e-29)
(1.16497 -0.00279523 -1.58697e-28)
(1.16471 -0.00227541 0)
(1.16448 -0.0017628 9.91765e-29)
(1.1643 -0.00125552 -1.60222e-28)
(1.16417 -0.000751899 9.95703e-29)
(1.1641 -0.000250405 -1.62328e-28)
(1.10831 0.0184276 -1.16551e-28)
(1.11965 0.0172097 7.80062e-29)
(1.12936 0.0160238 0)
(1.13755 0.0148807 -3.05333e-12)
(1.14438 0.0137875 3.05333e-12)
(1.14998 0.0127486 0)
(1.1545 0.0117662 0)
(1.15807 0.0108399 2.51909e-28)
(1.16082 0.00996811 1.43173e-28)
(1.16289 0.00914783 -2.13989e-28)
(1.16438 0.0083752 4.76891e-28)
(1.1654 0.00764587 -5.24993e-29)
(1.16604 0.00695519 2.69107e-28)
(1.16638 0.0062985 1.52168e-28)
(1.16649 0.00567127 0)
(1.16644 0.00506921 3.57794e-12)
(1.16627 0.00448839 -3.57794e-12)
(1.16603 0.00392523 0)
(1.16575 0.00337656 0)
(1.16547 0.00283958 -1.58697e-28)
(1.1652 0.00231185 0)
(1.16496 0.00179124 9.91765e-29)
(1.16478 0.00127589 -1.60222e-28)
(1.16464 0.000764141 9.95704e-29)
(1.16458 0.000254489 0)
(0.752979 0.0244769 -9.51297e-29)
(0.733655 0.0238187 6.5831e-23)
(0.780842 0.0256561 0)
(0.809543 0.0265276 1.01002e-28)
(0.838649 0.0270904 0)
(0.867745 0.0273566 0)
(0.896442 0.0273461 0)
(0.924391 0.0270831 0)
(0.95128 0.026595 0)
(0.976849 0.0259118 5.87303e-29)
(1.00088 0.0250646 -5.87303e-29)
(1.02322 0.0240851 2.41097e-12)
(1.04375 0.0230041 -2.41097e-12)
(1.06241 0.0218509 0)
(1.07918 0.0206524 0)
(1.10831 0.0184276 -1.16551e-28)
(1.09408 0.0194327 0)
(0.733655 0.0238187 6.5831e-23)
(0.724463 0.0232284 3.8296e-22)
(0.715416 0.0225928 3.98483e-22)
(0.706539 0.0219133 4.73648e-22)
(0.697861 0.0211885 1.24844e-22)
(0.689408 0.0204187 -3.30832e-22)
(0.681207 0.0196046 3.09187e-22)
(0.673285 0.0187473 2.53123e-22)
(0.665669 0.0178477 7.7977e-23)
(0.658384 0.0169074 2.83663e-22)
(0.651456 0.0159277 7.19724e-23)
(0.644909 0.0149105 7.11208e-23)
(0.638767 0.0138577 -3.8273e-22)
(0.633052 0.0127714 4.49792e-22)
(0.627785 0.0116538 -9.68872e-23)
(0.622986 0.0105074 1.8692e-22)
(0.618673 0.00933485 -1.33213e-22)
(0.614861 0.00813883 -1.92017e-23)
(0.611566 0.00692223 -5.6201e-23)
(0.6088 0.00568801 -1.35666e-22)
(0.606575 0.00443925 -7.87881e-23)
(0.604898 0.00317909 5.81297e-23)
(0.603777 0.00191075 4.17544e-24)
(0.603215 0.000637486 -7.80091e-24)
)
;
    }
}


// ************************************************************************* //
