/*--------------------------------*- C++ -*----------------------------------*\
  =========                 |
  \\      /  F ield         | OpenFOAM: The Open Source CFD Toolbox
   \\    /   O peration     | Website:  https://openfoam.org
    \\  /    A nd           | Version:  7
     \\/     M anipulation  |
\*---------------------------------------------------------------------------*/
FoamFile
{
    version     2.0;
    format      ascii;
    class       surfaceScalarField;
    location    "25";
    object      phi;
}
// * * * * * * * * * * * * * * * * * * * * * * * * * * * * * * * * * * * * * //

dimensions      [0 3 -1 0 0 0 0];

internalField   nonuniform List<scalar> 
644
(
-0.000133098
-1.40144e-07
-3.90232e-10
-0.000127875
-5.22247e-06
-4.38018e-10
-1.06396e-05
-4.30022e-10
-0.000126637
-5.26455e-07
-0.000121199
-1.066e-05
-2.14497e-05
-0.000113754
-1.41141e-06
-0.000107896
-1.65178e-05
-3.25958e-05
-9.45349e-05
-3.0387e-06
-8.8059e-05
-2.29937e-05
-4.42359e-05
-6.91109e-05
-5.63019e-06
-6.18279e-05
-3.02768e-05
-5.65161e-05
-3.76317e-05
-9.40203e-06
-2.93889e-05
-3.85196e-05
-6.95712e-05
-5.5414e-07
-1.3799e-05
9.03274e-06
-4.81065e-05
-8.35215e-05
4.25495e-05
-2.03061e-05
5.31931e-05
-5.87501e-05
-9.84493e-05
9.07512e-05
-2.84506e-05
0.000102791
-7.07903e-05
-0.000114428
0.000144025
0.00015752
-8.42851e-05
-0.000131495
0.00021705
-9.92721e-05
0.0002352
-0.000149644
-0.000195152
0.000281033
-0.000115751
0.000300217
-0.000168828
-0.000216386
0.000349106
-0.000133671
0.000369227
-0.000188948
-0.000238012
0.000420899
-0.000152933
0.000441795
-0.000209844
-0.000259826
0.000496028
-0.000173375
0.000517469
-0.000231286
-0.000281555
0.000574101
0.000595773
-0.000252957
-0.00030285
0.0006762
-0.000274442
0.000696628
-0.000323278
-0.000364171
0.00075821
-0.0002952
0.000777243
-0.000342311
-0.000381697
0.000841215
-0.000314542
0.000858231
-0.000359327
-0.00039689
0.000924564
0.000938848
-0.000373611
-0.000409202
0.00101826
-0.000384377
0.00102713
-0.000418077
-0.000447956
0.00109551
-0.000390791
0.0011004
-0.000422976
-0.000452136
0.00116971
-0.000391984
0.00117014
-0.0004234
-0.000452388
0.0012403
0.00123582
-0.000418923
-0.000448489
0.005314
-0.000390729
0.00529007
-0.00042456
-0.00045524
0.0062638
-0.000323778
0.00620557
-0.000366329
-0.000404101
0.00716893
-0.000230976
0.00708558
-0.000282977
-0.000329045
0.00798512
-0.000125811
0.00788792
-0.000185771
-0.000239351
0.00868665
-1.9186e-05
0.00858571
-8.48272e-05
-0.000144138
0.0092635
8.11962e-05
0.00916649
1.2182e-05
-5.08323e-05
0.00971728
0.000170429
0.00962939
0.000100065
3.52629e-05
0.0100576
0.000245824
0.00998186
0.00017581
0.000110846
0.010299
0.000306464
0.0102367
0.000238133
0.000174312
0.0104582
0.000352752
0.0104092
0.000287076
0.000225367
0.0105522
0.000385984
0.0105157
0.000323596
0.000264658
0.0105967
0.000407937
0.0105712
0.000349185
0.000293406
0.0106053
0.000420549
0.010589
0.000365558
0.000313114
0.0105889
0.000425673
0.0105801
0.000374413
0.000325327
0.0105561
0.000424948
0.0105532
0.000377292
0.000331487
0.010513
0.000419733
0.0105147
0.000375502
0.000332846
0.0104641
0.000411111
0.0104695
0.000370106
0.000330439
0.0104125
0.000399915
0.0104207
0.000361937
0.000325092
0.0103602
0.000386775
0.0103705
0.000351632
0.000317446
0.0103086
0.000372162
0.0103206
0.000339675
0.000307995
0.0102585
0.000356424
0.0102718
0.00032643
0.000297113
0.0102104
0.000339824
0.0102247
0.000312174
0.000285088
0.0101646
0.00032256
0.0101797
0.000297116
0.00027214
0.0101213
0.000304783
0.010137
0.000281419
0.000258444
0.0100806
0.000286612
0.0100968
0.000265214
0.000244135
0.0100425
0.000268137
0.0100591
0.0002486
0.000229324
0.0100071
0.000249432
0.010024
0.000231661
0.000214101
0.00997434
0.000230553
0.00999154
0.000214461
0.00019854
0.00994421
0.000211546
0.00996162
0.000197054
0.0001827
0.0099167
0.000192446
0.00993427
0.000179484
0.000166632
0.00989178
0.000173281
0.00990948
0.000161787
0.000150379
0.00986943
0.000154072
0.00988723
0.000143989
0.000133974
0.00984963
0.000134834
0.0098675
0.000126114
0.000117447
0.00983235
0.000115578
0.00985028
0.00010818
0.000100822
0.00981758
9.63133e-05
0.00983556
9.02013e-05
8.41195e-05
0.00980531
7.70444e-05
0.00982332
7.21898e-05
6.73572e-05
0.00979552
5.77759e-05
0.00981355
5.41558e-05
5.05508e-05
0.0097882
3.85113e-05
0.00980624
3.61084e-05
3.37148e-05
0.00978333
1.92531e-05
0.00980138
1.80549e-05
1.6861e-05
0.0097809
0.00979896
5.30473e-05
0.00879328
0.00015641
0.00936388
0.000246503
0.00980651
0.000321009
0.010133
0.00037939
0.0103596
0.000422443
0.0105045
0.000451827
0.0105854
0.000469631
0.0106187
0.000478025
0.0106179
0.000479023
0.0105941
0.000474355
0.0105553
0.000465427
0.0105077
0.000453334
0.0104555
0.000438905
0.0104013
0.000422755
0.0103471
0.000405336
0.010294
0.00038698
0.0102428
0.000367931
0.0101938
0.000348372
0.0101473
0.000328441
0.0101035
0.000308242
0.0100624
0.000287855
0.010024
0.000267342
0.0099884
0.000246751
0.00995546
0.000226116
0.0099252
0.000205464
0.0098976
0.000184815
0.00987261
0.000164181
0.00985022
0.00014357
0.00983039
0.000122986
0.00981309
0.00010243
0.00979832
8.19012e-05
0.00978604
6.13965e-05
0.00977625
4.09137e-05
0.00976893
2.04503e-05
0.00976407
0.00976165
-0.000390729
0.005314
0.000418923
-0.000323778
0.0062638
-0.000230976
0.00716893
-0.000125811
0.00798512
-1.91858e-05
0.00868665
8.11963e-05
0.0092635
0.000170429
0.00971728
0.000245825
0.0100576
0.000306464
0.010299
0.000352753
0.0104582
0.000385984
0.0105522
0.000407937
0.0105967
0.000420549
0.0106053
0.000425674
0.0105889
0.000424948
0.0105561
0.000419733
0.010513
0.000411111
0.0104641
0.000399915
0.0104125
0.000386776
0.0103602
0.000372162
0.0103086
0.000356424
0.0102585
0.000339824
0.0102104
0.00032256
0.0101646
0.000304784
0.0101213
0.000286612
0.0100806
0.000268138
0.0100425
0.000249432
0.0100071
0.000230553
0.00997434
0.000211546
0.00994421
0.000192446
0.0099167
0.000173281
0.00989178
0.000154072
0.00986943
0.000134834
0.00984963
0.000115578
0.00983235
9.63133e-05
0.00981758
7.70444e-05
0.00980531
5.77759e-05
0.00979552
3.85113e-05
0.0097882
1.9253e-05
0.00978333
0.0097809
-0.00042456
0.00529007
0.000448489
-0.000366329
0.00620557
-0.000282977
0.00708558
-0.000185771
0.00788792
-8.48271e-05
0.00858571
1.21821e-05
0.00916649
0.000100065
0.00962939
0.00017581
0.00998186
0.000238133
0.0102367
0.000287076
0.0104092
0.000323596
0.0105157
0.000349186
0.0105712
0.000365558
0.000374414
0.000377292
0.000375502
0.000370107
0.000361937
0.000351633
0.000339676
0.000326431
0.000312174
0.000297116
0.00028142
0.000265214
0.0002486
0.000231661
0.000214461
0.000197054
0.000179484
0.000161786
0.000143989
0.000126114
0.00010818
9.02013e-05
7.21898e-05
5.41557e-05
3.61084e-05
1.80549e-05
-0.00045524
-0.000404101
-0.000329045
-0.000239351
-0.000144138
-5.08321e-05
3.52631e-05
0.000110846
0.000174312
0.000225368
0.000264658
0.0012403
0.000391985
0.00123582
0.0004234
0.000452388
0.00116971
0.000390792
0.00117014
0.000422976
0.000452137
0.0010955
0.000384378
0.0011004
0.000418077
0.000447956
0.00101826
0.000373611
0.00102713
0.000409203
0.000924564
0.000314542
0.000938848
0.000359327
0.00039689
0.000841215
0.0002952
0.000858231
0.000342311
0.000381698
0.00075821
0.000274443
0.000777243
0.000323278
0.000364171
0.0006762
0.000252958
0.000696627
0.000302851
0.000574101
0.000173376
0.000595773
0.000231286
0.000281556
0.000496028
0.000152934
0.000517469
0.000209845
0.000259827
0.000420899
0.000133671
0.000441795
0.000188949
0.000238013
0.000349106
0.000115751
0.000369226
0.000168829
0.000216387
0.000281033
9.92728e-05
0.000300217
0.000149645
0.000195153
0.00021705
8.42858e-05
0.000235199
0.000131495
0.000144025
2.84513e-05
0.00015752
7.0791e-05
0.000114429
9.07511e-05
2.03068e-05
0.000102791
5.87509e-05
9.845e-05
4.25493e-05
1.37998e-05
5.31929e-05
4.81073e-05
8.35223e-05
-5.5427e-07
9.40281e-06
9.03257e-06
3.85204e-05
6.9572e-05
-3.76318e-05
5.63097e-06
-2.9389e-05
3.02776e-05
5.65169e-05
-6.91111e-05
3.03948e-06
-6.18281e-05
2.29946e-05
4.42367e-05
-9.4535e-05
1.41219e-06
-8.80591e-05
1.65187e-05
3.25967e-05
-0.000113754
5.27227e-07
-0.000107896
1.06609e-05
2.14505e-05
-0.000126637
1.40897e-07
-0.000121199
5.22336e-06
1.06405e-05
-0.000133098
-0.000127875
)
;

boundaryField
{
    inlet
    {
        type            calculated;
        value           nonuniform 0();
    }
    outlet
    {
        type            calculated;
        value           nonuniform 0();
    }
    cylinder
    {
        type            calculated;
        value           nonuniform 0();
    }
    top
    {
        type            symmetryPlane;
        value           uniform 0;
    }
    bottom
    {
        type            symmetryPlane;
        value           uniform 0;
    }
    defaultFaces
    {
        type            empty;
        value           nonuniform 0();
    }
    procBoundary26to25
    {
        type            processor;
        value           nonuniform List<scalar> 
137
(
0.000133238
0.000127023
0.000114639
9.61622e-05
7.17024e-05
4.14035e-05
4.95107e-06
-3.60424e-05
-8.26067e-05
-0.000134183
-3.8293e-05
-0.000202063
-0.000264554
-0.000331187
-0.000401636
-0.000475586
-0.000552711
-0.000194765
-0.000654715
-0.000737453
-0.000821873
-0.000907493
-0.000331613
-0.00100749
-0.00108909
-0.00116852
-0.00124513
-0.000387153
-0.00534219
-0.00633075
-0.00726173
-0.00809029
-0.00879328
-0.00936388
-0.00980651
-0.010133
-0.0103596
-0.0105045
-0.0105854
-0.0106187
-0.0106179
-0.0105941
-0.0105553
-0.0105077
-0.0104555
-0.0104013
-0.0103471
-0.010294
-0.0102428
-0.0101938
-0.0101473
-0.0101035
-0.0100624
-0.010024
-0.0099884
-0.00995546
-0.0099252
-0.0098976
-0.00987261
-0.00985022
-0.00983039
-0.00981309
-0.00979832
-0.00978604
-0.00977625
-0.00976893
-0.00976407
-0.00976165
-0.00890535
-0.00946724
-0.0098966
-0.0102075
-0.010418
-0.0105475
-0.0106148
-0.0106365
-0.0106263
-0.0105951
-0.0105507
-0.0104988
-0.0104434
-0.0103869
-0.0103309
-0.0102766
-0.0102244
-0.0101748
-0.0101278
-0.0100836
-0.0100422
-0.0100037
-0.00996789
-0.00993487
-0.00990457
-0.00987695
-0.00985196
-0.00982959
-0.00980978
-0.00979251
-0.00977776
-0.00976551
-0.00975575
-0.00974845
-0.00974361
-0.0097412
-0.00534219
-0.000387154
-0.00633075
-0.00726173
5.90213e-05
-0.00809029
-0.00124513
-0.00116852
-0.00108909
-0.00100749
-0.000331613
-0.000907493
-0.000821873
-0.000737453
-0.000654715
-0.000194766
-0.000552711
-0.000475586
-0.000401636
-0.000331186
-0.000264554
-0.000202063
-3.82938e-05
-0.000134183
-8.26066e-05
-3.60422e-05
4.95122e-06
4.14037e-05
7.17025e-05
9.61623e-05
0.000114639
0.000127023
0.000133238
)
;
    }
    procBoundary26to27
    {
        type            processor;
        value           nonuniform List<scalar> 
137
(
-0.000117235
-0.000110389
-9.67499e-05
-7.64189e-05
-4.95477e-05
-1.63338e-05
2.2983e-05
6.81209e-05
0.00011877
0.000174586
0.000174456
0.000255896
0.000321451
0.000390853
0.000463609
0.000539198
0.000617068
0.000344821
0.000715978
0.00079477
0.000873424
0.000951161
0.000440146
0.00103494
0.00110458
0.00117039
0.00123192
0.000475845
0.00526946
0.00615443
0.00701052
0.00779822
0.00849049
0.00907319
0.0095433
0.00990628
0.0101732
0.0103582
0.0104764
0.0105424
0.0105693
0.0105679
0.010547
0.0105134
0.0104719
0.010426
0.0103782
0.01033
0.0102826
0.0102367
0.0101926
0.0101507
0.0101111
0.0100739
0.0100393
0.0100071
0.00997746
0.00995034
0.00992573
0.00990363
0.00988403
0.00986691
0.00985226
0.00984008
0.00983036
0.00982308
0.00981824
0.00981582
0.010589
0.0105801
0.0105532
0.0105147
0.0104695
0.0104207
0.0103705
0.0103206
0.0102718
0.0102247
0.0101797
0.010137
0.0100968
0.0100591
0.010024
0.00999154
0.00996162
0.00993427
0.00990948
0.00988723
0.0098675
0.00985028
0.00983556
0.00982332
0.00981355
0.00980624
0.00980138
0.00979896
0.00526946
0.000475845
0.00615443
0.00701052
0.00779822
0.00849049
0.00907318
0.0095433
0.00990628
0.0101732
0.0103582
0.0104764
0.000293406
0.0105424
0.00123192
0.00117039
0.00110458
0.00103494
0.000440146
0.00095116
0.000873424
0.000794769
0.000715977
0.000344821
0.000617068
0.000539198
0.000463609
0.000390852
0.000321451
0.000255896
0.000174457
0.000174586
0.00011877
6.81207e-05
2.29828e-05
-1.6334e-05
-4.95478e-05
-7.6419e-05
-9.67499e-05
-0.000110389
-0.000117235
)
;
    }
}


// ************************************************************************* //
