/*--------------------------------*- C++ -*----------------------------------*\
  =========                 |
  \\      /  F ield         | OpenFOAM: The Open Source CFD Toolbox
   \\    /   O peration     | Website:  https://openfoam.org
    \\  /    A nd           | Version:  7
     \\/     M anipulation  |
\*---------------------------------------------------------------------------*/
FoamFile
{
    version     2.0;
    format      ascii;
    class       volScalarField;
    location    "93";
    object      p;
}
// * * * * * * * * * * * * * * * * * * * * * * * * * * * * * * * * * * * * * //

dimensions      [0 2 -2 0 0 0 0];

internalField   nonuniform List<scalar> 
40000
(
-0.352128
-0.353521
-0.354513
-0.35527
-0.355912
-0.356461
-0.356939
-0.357372
-0.357783
-0.358187
-0.358594
-0.359013
-0.359444
-0.359887
-0.360335
-0.360779
-0.361209
-0.361609
-0.361962
-0.362247
-0.362444
-0.362531
-0.362485
-0.362286
-0.361919
-0.361375
-0.36065
-0.359751
-0.3587
-0.357618
-0.347751
-0.349139
-0.350118
-0.350854
-0.351466
-0.35197
-0.352387
-0.352742
-0.353054
-0.353337
-0.353601
-0.353852
-0.354091
-0.354314
-0.354517
-0.354691
-0.354823
-0.354899
-0.354903
-0.354817
-0.354624
-0.354306
-0.353848
-0.353238
-0.35247
-0.351548
-0.350488
-0.349306
-0.348028
-0.346881
-0.343591
-0.344957
-0.345913
-0.346621
-0.347196
-0.347653
-0.348008
-0.348285
-0.348499
-0.348665
-0.34879
-0.348878
-0.348931
-0.348943
-0.34891
-0.348822
-0.348668
-0.348433
-0.348104
-0.347664
-0.347099
-0.346396
-0.345546
-0.344544
-0.343396
-0.342117
-0.34074
-0.339295
-0.3378
-0.336583
-0.339652
-0.340982
-0.341906
-0.34258
-0.343115
-0.343521
-0.343814
-0.344013
-0.344133
-0.344185
-0.344175
-0.344107
-0.34398
-0.34379
-0.343531
-0.343193
-0.342765
-0.342235
-0.341588
-0.340811
-0.339894
-0.338828
-0.337608
-0.336239
-0.334734
-0.33312
-0.331449
-0.329765
-0.32807
-0.326771
-0.335935
-0.337217
-0.338102
-0.338737
-0.339228
-0.339583
-0.339813
-0.339936
-0.339964
-0.339906
-0.339767
-0.339548
-0.33925
-0.338866
-0.338391
-0.337816
-0.337128
-0.336317
-0.33537
-0.334276
-0.333028
-0.33162
-0.330055
-0.328343
-0.326507
-0.324584
-0.322642
-0.320744
-0.318871
-0.31747
-0.332436
-0.333662
-0.334501
-0.335095
-0.33554
-0.335842
-0.336011
-0.336059
-0.335998
-0.335835
-0.335572
-0.33521
-0.334748
-0.33418
-0.3335
-0.332698
-0.331764
-0.330688
-0.329458
-0.328067
-0.326508
-0.324782
-0.322896
-0.320867
-0.318725
-0.316519
-0.314329
-0.312245
-0.310227
-0.30868
-0.329152
-0.330315
-0.331105
-0.331654
-0.332052
-0.332302
-0.33241
-0.332387
-0.33224
-0.331975
-0.331594
-0.331095
-0.330477
-0.329734
-0.328858
-0.327842
-0.326676
-0.32535
-0.323854
-0.322184
-0.320337
-0.318315
-0.316132
-0.313811
-0.31139
-0.308925
-0.30651
-0.304266
-0.302148
-0.300365
-0.326076
-0.327173
-0.327912
-0.328415
-0.328765
-0.328963
-0.329011
-0.328919
-0.32869
-0.328329
-0.327834
-0.327205
-0.326438
-0.325528
-0.324467
-0.323248
-0.321862
-0.3203
-0.318556
-0.316625
-0.314509
-0.312214
-0.309758
-0.307169
-0.304493
-0.301793
-0.299172
-0.296787
-0.294616
-0.29253
-0.323199
-0.32423
-0.324917
-0.325374
-0.325678
-0.325825
-0.325816
-0.325656
-0.325349
-0.324895
-0.324292
-0.323538
-0.32263
-0.32156
-0.320324
-0.318912
-0.317318
-0.315535
-0.313557
-0.311383
-0.309017
-0.306469
-0.303761
-0.300928
-0.298021
-0.295109
-0.292304
-0.289771
-0.287531
-0.285375
-0.320515
-0.321481
-0.322118
-0.322531
-0.322788
-0.322886
-0.322822
-0.322598
-0.322215
-0.321672
-0.320965
-0.320093
-0.319048
-0.317827
-0.316423
-0.314828
-0.313037
-0.311044
-0.308847
-0.306446
-0.303848
-0.301067
-0.298129
-0.295073
-0.291956
-0.288854
-0.285884
-0.283212
-0.280838
-0.278801
-0.318015
-0.31892
-0.31951
-0.319881
-0.320095
-0.320145
-0.320027
-0.319741
-0.319286
-0.318657
-0.317851
-0.316864
-0.31569
-0.314323
-0.312758
-0.310989
-0.309012
-0.306821
-0.304418
-0.301804
-0.29899
-0.295994
-0.292845
-0.289587
-0.286281
-0.283008
-0.279891
-0.277102
-0.274634
-0.272613
-0.315692
-0.316543
-0.31709
-0.317422
-0.317595
-0.3176
-0.317431
-0.317086
-0.31656
-0.315849
-0.314947
-0.313849
-0.31255
-0.311044
-0.309325
-0.307389
-0.305234
-0.302856
-0.300258
-0.297446
-0.294432
-0.291237
-0.287896
-0.284454
-0.280978
-0.277553
-0.274306
-0.271417
-0.268889
-0.266843
-0.313541
-0.314347
-0.314857
-0.315153
-0.315288
-0.31525
-0.315032
-0.314629
-0.314035
-0.313244
-0.312249
-0.311045
-0.309625
-0.307984
-0.306117
-0.304023
-0.301697
-0.299142
-0.296361
-0.293363
-0.290163
-0.286785
-0.283268
-0.279661
-0.276033
-0.272475
-0.269114
-0.266139
-0.263568
-0.261481
-0.311559
-0.31233
-0.312809
-0.313073
-0.313172
-0.313095
-0.312829
-0.31237
-0.31171
-0.310842
-0.309757
-0.308448
-0.306911
-0.305141
-0.303132
-0.300885
-0.298398
-0.295675
-0.292721
-0.289549
-0.286176
-0.282631
-0.278954
-0.275199
-0.271438
-0.267763
-0.264303
-0.261255
-0.258653
-0.256505
-0.309747
-0.310492
-0.310946
-0.311183
-0.31125
-0.311134
-0.310823
-0.31031
-0.309586
-0.308641
-0.307468
-0.306059
-0.304409
-0.302513
-0.300368
-0.297975
-0.295334
-0.292452
-0.289336
-0.286002
-0.282471
-0.278774
-0.274953
-0.271067
-0.26719
-0.263416
-0.259873
-0.256761
-0.254137
-0.251896
-0.308106
-0.308836
-0.309271
-0.309485
-0.309523
-0.309371
-0.309016
-0.308449
-0.307661
-0.306642
-0.305383
-0.303877
-0.302117
-0.300101
-0.297826
-0.295294
-0.292508
-0.289476
-0.28621
-0.282727
-0.279051
-0.275217
-0.27127
-0.267271
-0.263296
-0.25944
-0.255831
-0.252666
-0.250026
-0.247631
-0.306642
-0.307366
-0.307788
-0.307982
-0.307993
-0.307807
-0.307409
-0.30679
-0.30594
-0.304848
-0.303506
-0.301904
-0.30004
-0.297908
-0.295509
-0.292846
-0.289925
-0.286754
-0.283349
-0.27973
-0.275925
-0.271971
-0.267917
-0.263824
-0.259771
-0.255854
-0.252193
-0.248985
-0.24634
-0.243689
-0.305362
-0.306089
-0.306503
-0.306681
-0.306667
-0.306447
-0.306007
-0.305336
-0.304425
-0.303262
-0.301838
-0.300146
-0.298181
-0.29594
-0.293425
-0.29064
-0.287593
-0.284296
-0.280766
-0.277027
-0.27311
-0.269054
-0.264911
-0.260746
-0.256637
-0.252679
-0.248986
-0.245744
-0.243114
-0.240054
-0.304279
-0.305015
-0.305425
-0.305587
-0.305549
-0.305296
-0.304814
-0.304093
-0.303122
-0.301889
-0.300387
-0.298608
-0.296548
-0.294205
-0.291582
-0.288686
-0.285525
-0.282115
-0.278476
-0.274634
-0.270623
-0.266486
-0.262277
-0.258062
-0.25392
-0.249945
-0.24624
-0.242971
-0.24039
-0.236727
-0.303406
-0.304155
-0.304562
-0.30471
-0.304648
-0.304362
-0.303838
-0.303066
-0.302035
-0.300736
-0.299159
-0.297298
-0.295149
-0.292713
-0.289992
-0.286996
-0.283735
-0.280228
-0.276496
-0.27257
-0.268486
-0.26429
-0.260038
-0.255798
-0.251647
-0.247679
-0.243984
-0.240689
-0.238209
-0.233731
-0.302758
-0.30352
-0.303925
-0.304057
-0.30397
-0.30365
-0.303084
-0.302261
-0.301173
-0.299809
-0.298161
-0.296224
-0.293994
-0.291473
-0.288667
-0.285583
-0.282238
-0.27865
-0.274845
-0.270855
-0.26672
-0.262488
-0.258217
-0.253974
-0.249839
-0.245898
-0.242234
-0.238905
-0.236592
-0.231118
-0.302352
-0.303125
-0.303524
-0.303639
-0.303525
-0.303169
-0.302559
-0.301687
-0.300542
-0.299116
-0.297402
-0.295395
-0.293093
-0.290498
-0.287617
-0.284462
-0.281048
-0.277398
-0.273539
-0.269506
-0.265341
-0.261095
-0.256827
-0.252605
-0.248504
-0.244606
-0.24099
-0.237611
-0.235527
-0.228961
-0.302204
-0.302982
-0.303371
-0.303464
-0.30332
-0.302925
-0.302271
-0.301348
-0.300148
-0.298664
-0.296889
-0.294819
-0.292453
-0.289795
-0.286854
-0.283641
-0.280176
-0.276482
-0.272588
-0.268533
-0.264359
-0.26012
-0.255875
-0.25169
-0.247638
-0.243792
-0.240231
-0.236778
-0.234954
-0.227337
-0.302331
-0.303104
-0.303476
-0.303542
-0.303362
-0.302926
-0.302224
-0.30125
-0.299997
-0.298458
-0.296626
-0.294501
-0.292081
-0.289372
-0.286383
-0.283128
-0.279628
-0.275906
-0.271997
-0.267937
-0.263773
-0.259557
-0.255349
-0.251213
-0.247216
-0.24342
-0.239913
-0.236364
-0.234774
-0.226299
-0.302748
-0.303502
-0.303847
-0.303879
-0.303657
-0.303175
-0.302424
-0.301398
-0.300092
-0.2985
-0.296618
-0.294444
-0.291979
-0.28923
-0.286205
-0.282922
-0.279401
-0.275669
-0.271759
-0.26771
-0.263569
-0.259388
-0.255225
-0.251141
-0.247195
-0.24344
-0.239967
-0.236317
-0.234863
-0.225854
-0.303467
-0.304186
-0.304493
-0.304481
-0.304211
-0.303677
-0.302872
-0.301793
-0.300435
-0.298793
-0.296864
-0.294647
-0.292145
-0.289364
-0.286316
-0.283017
-0.279488
-0.275757
-0.271858
-0.26783
-0.26372
-0.259579
-0.255461
-0.251423
-0.247517
-0.243783
-0.240308
-0.236571
-0.23509
-0.225957
-0.304496
-0.305163
-0.305419
-0.305353
-0.305026
-0.304434
-0.30357
-0.302434
-0.301022
-0.299331
-0.297358
-0.295103
-0.292571
-0.289766
-0.286703
-0.283396
-0.279869
-0.276148
-0.272268
-0.268266
-0.264189
-0.260084
-0.256004
-0.251998
-0.24811
-0.24437
-0.240843
-0.237048
-0.235311
-0.226467
-0.305843
-0.306437
-0.306626
-0.306496
-0.306102
-0.305443
-0.304516
-0.303319
-0.301851
-0.300109
-0.298093
-0.295804
-0.293244
-0.290421
-0.287348
-0.28404
-0.280519
-0.276812
-0.272952
-0.268976
-0.264927
-0.260849
-0.256789
-0.252792
-0.248894
-0.24512
-0.241486
-0.237671
-0.235374
-0.227123
-0.307508
-0.308009
-0.308117
-0.307909
-0.307438
-0.306703
-0.305704
-0.30444
-0.302912
-0.301118
-0.299058
-0.296733
-0.294148
-0.291309
-0.288228
-0.28492
-0.281407
-0.277714
-0.273871
-0.269913
-0.265879
-0.26181
-0.257747
-0.25373
-0.249787
-0.245947
-0.242178
-0.2384
-0.235248
-0.227937
-0.309491
-0.309879
-0.30989
-0.309592
-0.309031
-0.30821
-0.307129
-0.305791
-0.304196
-0.302345
-0.300238
-0.297876
-0.295263
-0.292407
-0.289317
-0.286008
-0.282499
-0.278814
-0.274978
-0.271025
-0.266988
-0.262903
-0.258805
-0.25473
-0.250701
-0.246758
-0.242848
-0.239157
-0.235228
-0.230245
-0.311789
-0.312043
-0.311942
-0.31154
-0.310877
-0.309957
-0.308785
-0.307363
-0.305694
-0.303779
-0.301619
-0.299215
-0.296571
-0.293692
-0.290589
-0.287274
-0.283761
-0.280073
-0.276231
-0.272263
-0.268198
-0.264064
-0.259893
-0.255713
-0.25155
-0.247446
-0.243367
-0.239653
-0.235552
-0.235347
-0.314396
-0.314498
-0.314269
-0.313749
-0.31297
-0.31194
-0.310664
-0.309148
-0.307396
-0.305408
-0.303187
-0.300733
-0.298051
-0.295145
-0.292021
-0.288689
-0.285162
-0.281456
-0.277588
-0.273579
-0.269453
-0.265232
-0.260942
-0.256607
-0.252253
-0.247925
-0.243618
-0.239637
-0.235458
-0.234115
-0.317306
-0.317239
-0.316868
-0.316216
-0.315308
-0.314154
-0.312762
-0.31114
-0.309292
-0.307222
-0.30493
-0.302419
-0.29969
-0.296746
-0.293591
-0.29023
-0.286673
-0.282929
-0.279009
-0.274929
-0.270703
-0.266351
-0.261891
-0.257348
-0.252746
-0.248131
-0.243513
-0.239131
-0.23457
-0.231815
-0.320514
-0.320262
-0.319735
-0.318938
-0.317887
-0.316596
-0.315075
-0.313334
-0.31138
-0.309216
-0.306844
-0.304264
-0.301478
-0.298485
-0.295285
-0.29188
-0.288271
-0.284463
-0.280461
-0.276271
-0.271903
-0.26737
-0.26269
-0.257884
-0.252982
-0.248028
-0.24304
-0.238196
-0.233163
-0.229291
-0.324014
-0.323566
-0.322869
-0.321914
-0.320707
-0.319265
-0.317602
-0.31573
-0.313657
-0.311388
-0.308924
-0.306265
-0.303409
-0.300353
-0.297092
-0.293622
-0.289937
-0.286034
-0.281911
-0.277568
-0.27301
-0.268246
-0.263295
-0.25818
-0.252935
-0.247607
-0.242218
-0.236907
-0.231407
-0.226652
-0.327806
-0.327148
-0.326271
-0.325146
-0.323769
-0.322163
-0.320346
-0.31833
-0.316127
-0.313741
-0.311173
-0.308423
-0.305484
-0.302348
-0.299006
-0.295445
-0.291654
-0.287619
-0.283332
-0.278788
-0.273988
-0.268944
-0.263675
-0.258212
-0.252595
-0.246876
-0.241082
-0.235329
-0.2294
-0.224012
-0.331889
-0.33101
-0.329942
-0.328635
-0.327077
-0.325296
-0.323312
-0.321142
-0.318797
-0.316283
-0.3136
-0.310744
-0.307706
-0.304471
-0.301023
-0.297341
-0.293405
-0.289195
-0.284695
-0.279899
-0.274807
-0.269435
-0.26381
-0.257971
-0.251965
-0.245852
-0.239665
-0.23351
-0.227206
-0.221346
-0.336266
-0.335157
-0.333886
-0.332387
-0.330638
-0.328671
-0.32651
-0.324176
-0.321679
-0.319026
-0.316215
-0.313238
-0.310082
-0.306724
-0.303139
-0.299299
-0.295174
-0.290739
-0.285975
-0.280874
-0.275442
-0.269701
-0.263689
-0.257455
-0.251057
-0.24456
-0.238004
-0.231488
-0.224858
-0.218644
-0.340943
-0.339592
-0.33811
-0.33641
-0.334461
-0.332297
-0.329952
-0.327443
-0.324785
-0.321981
-0.319028
-0.315914
-0.312616
-0.309106
-0.305349
-0.301306
-0.296944
-0.29223
-0.287146
-0.281689
-0.275873
-0.26973
-0.26331
-0.256674
-0.249888
-0.243024
-0.236126
-0.229289
-0.222377
-0.215884
-0.345925
-0.344324
-0.342621
-0.340712
-0.338553
-0.336188
-0.333649
-0.330958
-0.328128
-0.325163
-0.322053
-0.318779
-0.315313
-0.311615
-0.307642
-0.303348
-0.298692
-0.293643
-0.288186
-0.282325
-0.276086
-0.269515
-0.262675
-0.255638
-0.248478
-0.241267
-0.234055
-0.226931
-0.219772
-0.213047
-0.351222
-0.349358
-0.347427
-0.345301
-0.342927
-0.340352
-0.337614
-0.334734
-0.331724
-0.328582
-0.325296
-0.321839
-0.31817
-0.314243
-0.310005
-0.305403
-0.300396
-0.294955
-0.289072
-0.282765
-0.276073
-0.269058
-0.261795
-0.254364
-0.246844
-0.23931
-0.23181
-0.224426
-0.217049
-0.210122
-0.356838
-0.3547
-0.352533
-0.350185
-0.347591
-0.344802
-0.341859
-0.338782
-0.33558
-0.332248
-0.328764
-0.325091
-0.321181
-0.316977
-0.312417
-0.307449
-0.30203
-0.296141
-0.289785
-0.282996
-0.27583
-0.268362
-0.260678
-0.252866
-0.245005
-0.237169
-0.229405
-0.221783
-0.214208
-0.207099
-0.362779
-0.360356
-0.357945
-0.35537
-0.352551
-0.349545
-0.346392
-0.343111
-0.339705
-0.336163
-0.332453
-0.328529
-0.324332
-0.319795
-0.314855
-0.309457
-0.303567
-0.297177
-0.290308
-0.283009
-0.275355
-0.267433
-0.259337
-0.251157
-0.242975
-0.234856
-0.226847
-0.219007
-0.211252
-0.20397
-0.369046
-0.366327
-0.363665
-0.360859
-0.357813
-0.354586
-0.351218
-0.347723
-0.344098
-0.340323
-0.336355
-0.332137
-0.3276
-0.322671
-0.317287
-0.311397
-0.304979
-0.298042
-0.290625
-0.282798
-0.274649
-0.266276
-0.25778
-0.24925
-0.240763
-0.23238
-0.224143
-0.2161
-0.208176
-0.200731
-0.375636
-0.372609
-0.369691
-0.366652
-0.363378
-0.359926
-0.356337
-0.352617
-0.348754
-0.344717
-0.340452
-0.335891
-0.330956
-0.325572
-0.319678
-0.313235
-0.306237
-0.298712
-0.290723
-0.282356
-0.273712
-0.264898
-0.256015
-0.247151
-0.238377
-0.229746
-0.221294
-0.21306
-0.20498
-0.197377
-0.382541
-0.379197
-0.376018
-0.372744
-0.369239
-0.365561
-0.361742
-0.357783
-0.353659
-0.349326
-0.344719
-0.339759
-0.334363
-0.328458
-0.321989
-0.314936
-0.307312
-0.29917
-0.29059
-0.281678
-0.272546
-0.263303
-0.254049
-0.244866
-0.235819
-0.226954
-0.2183
-0.209886
-0.201658
-0.193903
-0.389746
-0.386076
-0.382635
-0.379125
-0.375388
-0.371478
-0.367421
-0.363204
-0.358791
-0.354123
-0.349122
-0.343702
-0.337779
-0.331285
-0.32418
-0.316465
-0.308178
-0.299394
-0.290215
-0.280761
-0.271149
-0.261491
-0.251881
-0.242396
-0.23309
-0.224003
-0.215158
-0.206572
-0.198207
-0.190305
-0.397231
-0.393228
-0.389522
-0.385777
-0.381808
-0.37766
-0.373352
-0.368855
-0.364118
-0.359069
-0.353618
-0.347673
-0.341154
-0.334006
-0.326209
-0.317787
-0.308806
-0.299366
-0.289587
-0.279597
-0.26952
-0.259462
-0.249512
-0.239738
-0.230187
-0.220888
-0.211861
-0.203115
-0.194619
-0.186577
-0.404966
-0.400627
-0.396656
-0.392678
-0.388474
-0.384082
-0.379506
-0.374702
-0.369602
-0.364119
-0.358155
-0.351618
-0.344436
-0.336572
-0.328031
-0.318867
-0.309173
-0.29907
-0.288695
-0.278181
-0.267653
-0.257211
-0.246937
-0.236888
-0.227103
-0.217605
-0.208405
-0.199507
-0.190889
-0.182714
-0.412916
-0.408239
-0.404006
-0.399796
-0.395355
-0.390709
-0.385846
-0.380703
-0.375194
-0.36922
-0.362678
-0.355479
-0.347568
-0.338931
-0.329604
-0.319671
-0.309251
-0.298487
-0.287525
-0.276504
-0.265542
-0.254734
-0.244151
-0.23384
-0.223833
-0.214145
-0.204782
-0.195741
-0.18701
-0.178709
-0.421036
-0.416022
-0.411532
-0.407092
-0.402412
-0.3975
-0.392325
-0.386805
-0.380836
-0.374309
-0.367121
-0.359193
-0.350492
-0.341033
-0.330886
-0.320165
-0.309017
-0.2976
-0.286066
-0.274555
-0.263178
-0.25202
-0.241143
-0.230584
-0.220366
-0.210499
-0.200982
-0.191809
-0.182974
-0.174556
-0.429274
-0.42393
-0.419187
-0.414521
-0.409597
-0.404403
-0.398889
-0.392948
-0.386464
-0.379319
-0.371416
-0.362695
-0.353148
-0.342826
-0.331835
-0.320319
-0.308447
-0.29639
-0.284304
-0.272322
-0.260549
-0.249059
-0.237903
-0.22711
-0.216693
-0.206657
-0.196998
-0.187704
-0.178773
-0.170248
-0.43757
-0.431903
-0.426917
-0.422027
-0.416853
-0.41136
-0.405472
-0.399064
-0.392005
-0.384176
-0.375492
-0.365916
-0.355476
-0.344261
-0.332411
-0.320101
-0.307517
-0.294839
-0.282222
-0.269792
-0.257643
-0.245839
-0.23442
-0.223406
-0.212803
-0.202611
-0.192819
-0.183415
-0.1744
-0.165779
-0.445856
-0.43988
-0.434658
-0.429548
-0.424115
-0.418301
-0.412003
-0.405077
-0.397381
-0.388802
-0.379273
-0.368791
-0.357419
-0.345289
-0.332577
-0.319481
-0.306204
-0.292928
-0.279804
-0.266949
-0.254446
-0.242346
-0.23068
-0.219459
-0.208684
-0.198348
-0.188437
-0.178936
-0.169847
-0.161142
-0.454057
-0.447786
-0.442341
-0.437012
-0.431312
-0.42515
-0.418402
-0.410903
-0.402508
-0.393116
-0.382685
-0.37125
-0.35892
-0.345865
-0.332294
-0.318431
-0.304484
-0.290636
-0.277032
-0.263777
-0.250941
-0.238565
-0.226669
-0.215258
-0.204324
-0.193858
-0.183841
-0.174256
-0.165105
-0.156329
-0.46209
-0.455544
-0.449887
-0.444342
-0.438362
-0.431825
-0.424582
-0.416455
-0.4073
-0.397035
-0.385652
-0.373229
-0.359923
-0.345943
-0.331529
-0.316921
-0.302333
-0.287945
-0.273889
-0.260259
-0.247113
-0.234481
-0.222374
-0.210788
-0.199712
-0.18913
-0.179022
-0.169368
-0.160166
-0.151335
-0.469867
-0.463069
-0.457213
-0.451452
-0.445178
-0.438236
-0.430452
-0.421641
-0.411667
-0.400475
-0.388099
-0.374665
-0.360376
-0.345482
-0.330247
-0.314924
-0.299729
-0.284831
-0.270354
-0.256377
-0.242945
-0.230079
-0.217779
-0.206036
-0.194835
-0.184154
-0.17397
-0.164264
-0.155025
-0.146154
-0.477295
-0.470268
-0.464228
-0.458251
-0.451667
-0.444286
-0.435916
-0.426367
-0.41552
-0.403355
-0.389954
-0.375496
-0.36023
-0.344441
-0.328416
-0.312414
-0.296647
-0.281276
-0.266409
-0.252113
-0.238421
-0.225342
-0.21287
-0.20099
-0.189681
-0.178919
-0.168676
-0.158934
-0.149672
-0.140781
-0.484273
-0.477046
-0.470836
-0.464642
-0.45773
-0.449877
-0.440875
-0.430536
-0.418768
-0.405593
-0.391149
-0.375665
-0.359438
-0.342784
-0.326005
-0.309364
-0.293066
-0.277258
-0.262035
-0.247449
-0.233522
-0.220255
-0.207633
-0.195637
-0.18424
-0.173415
-0.163132
-0.153372
-0.144104
-0.135211
-0.4907
-0.483302
-0.476937
-0.470524
-0.463265
-0.454906
-0.445227
-0.434052
-0.421324
-0.407114
-0.391618
-0.375119
-0.357957
-0.340475
-0.322986
-0.30575
-0.288963
-0.272757
-0.257212
-0.242368
-0.228235
-0.214804
-0.202056
-0.189965
-0.1785
-0.167632
-0.157329
-0.14757
-0.138312
-0.12944
-0.496471
-0.488933
-0.482429
-0.475794
-0.468169
-0.459271
-0.448874
-0.436823
-0.423104
-0.407844
-0.3913
-0.373808
-0.355747
-0.337481
-0.31933
-0.301548
-0.284316
-0.267752
-0.251923
-0.236852
-0.222542
-0.208974
-0.196125
-0.183962
-0.172453
-0.161563
-0.151259
-0.14152
-0.132291
-0.123462
-0.501479
-0.493836
-0.487206
-0.480347
-0.472336
-0.462867
-0.451716
-0.438757
-0.424026
-0.407715
-0.390138
-0.371687
-0.352771
-0.333773
-0.315013
-0.296735
-0.279105
-0.262227
-0.246149
-0.230887
-0.216429
-0.202754
-0.189828
-0.177618
-0.166087
-0.155197
-0.144915
-0.135217
-0.126036
-0.117273
-0.505621
-0.497905
-0.491165
-0.484078
-0.475663
-0.465593
-0.453658
-0.439768
-0.424017
-0.406663
-0.388082
-0.368714
-0.348997
-0.329324
-0.310011
-0.29129
-0.273312
-0.256162
-0.239876
-0.224456
-0.209884
-0.19613
-0.183156
-0.170924
-0.159395
-0.148529
-0.13829
-0.128654
-0.119541
-0.110869
-0.50879
-0.501037
-0.494202
-0.486882
-0.478046
-0.467352
-0.454609
-0.439775
-0.423006
-0.404631
-0.385086
-0.364853
-0.344395
-0.324108
-0.304303
-0.285196
-0.266919
-0.249543
-0.233089
-0.217549
-0.202895
-0.189092
-0.176098
-0.163871
-0.152369
-0.14155
-0.131377
-0.121825
-0.112803
-0.104248
-0.510887
-0.503131
-0.496215
-0.488659
-0.479387
-0.46805
-0.454484
-0.438702
-0.420932
-0.401569
-0.381109
-0.360072
-0.338938
-0.318105
-0.29787
-0.278434
-0.259911
-0.242355
-0.225775
-0.210151
-0.195451
-0.181631
-0.168647
-0.156453
-0.145003
-0.134255
-0.124169
-0.114722
-0.105817
-0.0974055
-0.511813
-0.50409
-0.497107
-0.489313
-0.479593
-0.4676
-0.453204
-0.436484
-0.417737
-0.397432
-0.376117
-0.354344
-0.332606
-0.311295
-0.290696
-0.27099
-0.252274
-0.234586
-0.217923
-0.202256
-0.187544
-0.173741
-0.160797
-0.148664
-0.137293
-0.126637
-0.116658
-0.107334
-0.0985653
-0.0903095
-0.511478
-0.503821
-0.496785
-0.488753
-0.478578
-0.465921
-0.450699
-0.433059
-0.413375
-0.392183
-0.37008
-0.347646
-0.325379
-0.303664
-0.282768
-0.262852
-0.243998
-0.226227
-0.209524
-0.193854
-0.179168
-0.165416
-0.152544
-0.140501
-0.129235
-0.118697
-0.108844
-0.0996574
-0.0910266
-0.0828847
-0.509796
-0.502239
-0.495165
-0.486895
-0.47626
-0.462941
-0.446906
-0.428377
-0.407805
-0.38579
-0.362976
-0.339961
-0.317244
-0.2952
-0.274075
-0.254012
-0.235074
-0.217269
-0.200573
-0.18494
-0.170319
-0.156653
-0.143885
-0.131963
-0.12083
-0.110434
-0.100733
-0.0917095
-0.0832129
-0.0750614
-0.506689
-0.499266
-0.492168
-0.483662
-0.47257
-0.458597
-0.441772
-0.422394
-0.400993
-0.378231
-0.354786
-0.331275
-0.308192
-0.285893
-0.264609
-0.244461
-0.225496
-0.207709
-0.191065
-0.175513
-0.160994
-0.14745
-0.134821
-0.123049
-0.112079
-0.101853
-0.0923341
-0.0835069
-0.075178
-0.0669872
-0.50209
-0.494831
-0.487723
-0.478988
-0.467446
-0.452834
-0.435252
-0.415078
-0.392917
-0.369487
-0.345501
-0.321581
-0.298215
-0.275741
-0.254367
-0.234198
-0.215263
-0.197544
-0.180999
-0.16557
-0.151194
-0.137809
-0.125352
-0.113764
-0.102984
-0.0929555
-0.0836499
-0.075028
-0.0668156
-0.0589576
-0.495939
-0.488875
-0.481772
-0.472815
-0.460835
-0.445611
-0.427313
-0.406403
-0.38356
-0.359551
-0.335114
-0.310877
-0.287312
-0.264741
-0.243349
-0.223222
-0.204373
-0.186776
-0.170377
-0.155114
-0.140922
-0.127732
-0.115482
-0.104109
-0.0935521
-0.0837518
-0.0746794
-0.0662801
-0.0582488
-0.0507525
-0.488186
-0.481345
-0.474263
-0.465096
-0.452696
-0.436892
-0.41793
-0.396354
-0.372912
-0.348417
-0.323626
-0.299163
-0.275487
-0.252897
-0.231558
-0.211536
-0.192831
-0.175406
-0.159202
-0.14415
-0.130181
-0.117226
-0.105217
-0.0940921
-0.0837869
-0.0742431
-0.0654301
-0.05728
-0.0494752
-0.0423261
-0.478793
-0.472204
-0.465158
-0.455796
-0.442999
-0.426655
-0.407089
-0.384924
-0.360974
-0.33609
-0.311042
-0.286448
-0.262747
-0.240216
-0.219
-0.199146
-0.180643
-0.163443
-0.147481
-0.132685
-0.11898
-0.106296
-0.0945643
-0.0837193
-0.0736962
-0.0644365
-0.0559095
-0.0480362
-0.0404848
-0.033677
-0.467734
-0.46142
-0.454428
-0.444888
-0.431726
-0.414889
-0.394785
-0.372116
-0.347753
-0.322581
-0.297375
-0.272742
-0.249102
-0.226709
-0.205685
-0.186063
-0.167819
-0.150896
-0.135224
-0.120726
-0.107327
-0.0949524
-0.0835324
-0.0729999
-0.0632888
-0.0543406
-0.046126
-0.0385545
-0.0312756
-0.0248164
-0.454991
-0.448977
-0.442055
-0.432359
-0.418867
-0.401592
-0.381023
-0.35794
-0.333264
-0.307905
-0.282641
-0.258064
-0.23457
-0.21239
-0.191628
-0.1723
-0.154372
-0.137778
-0.122443
-0.108288
-0.0952347
-0.0832068
-0.072133
-0.061945
-0.0525754
-0.0439659
-0.0360891
-0.0288418
-0.0218528
-0.0157557
-0.44056
-0.434868
-0.428035
-0.418208
-0.404426
-0.386773
-0.36582
-0.342415
-0.317528
-0.292086
-0.266864
-0.242434
-0.21917
-0.19728
-0.176847
-0.157874
-0.140317
-0.124103
-0.109153
-0.0953846
-0.082717
-0.0710729
-0.0603796
-0.0505677
-0.0415684
-0.0333244
-0.0258098
-0.0189078
-0.0122258
-0.00650613
-0.424448
-0.419099
-0.412374
-0.402443
-0.388416
-0.370451
-0.349197
-0.325568
-0.300574
-0.275153
-0.25007
-0.225879
-0.202927
-0.1814
-0.161364
-0.142806
-0.125674
-0.10989
-0.0953715
-0.0820323
-0.0697902
-0.0585666
-0.0482876
-0.0388826
-0.0302821
-0.0224297
-0.0153011
-0.00876465
-0.00240658
0.00292005
-0.406674
-0.401686
-0.395088
-0.385084
-0.370862
-0.352656
-0.331188
-0.307435
-0.282438
-0.25714
-0.232294
-0.208429
-0.18587
-0.164778
-0.145202
-0.127119
-0.110466
-0.0951615
-0.081119
-0.068251
-0.0564732
-0.0457059
-0.0358743
-0.0269067
-0.0187328
-0.0112976
-0.004578
0.0015734
0.00759051
0.0125092
-0.387266
-0.382656
-0.376206
-0.366162
-0.351799
-0.333424
-0.311834
-0.288058
-0.263162
-0.238089
-0.213573
-0.190122
-0.168032
-0.147445
-0.128392
-0.110839
-0.0947173
-0.0799404
-0.0664185
-0.0540624
-0.0427867
-0.0325108
-0.0231588
-0.0146584
-0.00693857
5.45534e-05
0.00634269
0.0120897
0.0177488
0.0222457
-0.366265
-0.362047
-0.355767
-0.345719
-0.33127
-0.312804
-0.291185
-0.26749
-0.242796
-0.218041
-0.19395
-0.170995
-0.149449
-0.129434
-0.110964
-0.0939976
-0.0784571
-0.0642538
-0.0512951
-0.0394905
-0.0287537
-0.0190031
-0.0101623
-0.00215817
0.005081
0.0116074
0.0174421
0.0227657
0.0280493
0.032112
-0.343721
-0.33991
-0.33382
-0.323806
-0.30933
-0.290853
-0.269304
-0.245784
-0.221381
-0.197052
-0.173472
-0.151093
-0.130163
-0.110783
-0.0929556
-0.076627
-0.0617163
-0.0481309
-0.0357766
-0.0245617
-0.014399
-0.00520652
0.00309263
0.0105723
0.0173046
0.02334
0.0286995
0.0335805
0.0384702
0.0420864
-0.319697
-0.316302
-0.310425
-0.300482
-0.286042
-0.267645
-0.24625
-0.222978
-0.198993
-0.175175
-0.152191
-0.130464
-0.110219
-0.0915349
-0.0744037
-0.0587637
-0.0445287
-0.0316036
-0.0198928
-0.00930386
0.000250908
0.00885383
0.0165821
0.02351
0.0297097
0.0352301
0.0400928
0.0445113
0.0489859
0.0521399
-0.294262
-0.29129
-0.285649
-0.275822
-0.261494
-0.243249
-0.222037
-0.199178
-0.175689
-0.152471
-0.130163
-0.109161
-0.0896627
-0.0717332
-0.0553505
-0.0404464
-0.0269306
-0.014706
-0.00367579
0.00625286
0.0151678
0.0231514
0.0302808
0.0366306
0.0422728
0.0472545
0.0515984
0.055533
0.0595661
0.0622378
-0.267495
-0.26495
-0.25957
-0.249912
-0.23577
-0.217637
-0.196841
-0.174442
-0.151537
-0.129003
-0.107448
-0.0872369
-0.0685471
-0.0514256
-0.0358404
-0.0217166
-0.00896086
0.00252576
0.0128406
0.0220768
0.030322
0.0376583
0.0441627
0.0499095
0.0549701
0.0593896
0.0631924
0.066619
0.0701785
0.0723504
-0.239472
-0.237372
-0.232275
-0.222821
-0.208831
-0.191083
-0.170696
-0.148846
-0.126612
-0.104841
-0.0841085
-0.0647518
-0.046926
-0.0306628
-0.0159203
-0.0026183
0.00933955
0.0200533
0.0296206
0.0381346
0.0456824
0.0523457
0.0582008
0.0633217
0.0677778
0.071612
0.0748512
0.0777456
0.0807977
0.0824531
-0.210269
-0.208654
-0.20385
-0.194615
-0.180926
-0.163569
-0.143684
-0.122471
-0.10099
-0.0800552
-0.0602108
-0.0417667
-0.0248567
-0.00949796
0.00436006
0.0168024
0.0279275
0.0378363
0.0466268
0.0543914
0.0612169
0.0671838
0.0723679
0.0768417
0.080672
0.0838984
0.0865538
0.0888972
0.0914033
0.0924809
-0.179972
-0.178917
-0.174394
-0.165433
-0.152096
-0.135197
-0.115899
-0.0954045
-0.0747508
-0.05472
-0.0358242
-0.0183459
-0.00239868
0.0120135
0.024949
0.036497
0.0467578
0.0558329
0.06382
0.070811
0.0768917
0.0821419
0.0866358
0.0904443
0.0936291
0.0962269
0.0982842
0.100061
0.101947
0.102282
-0.148737
-0.148239
-0.144015
-0.135373
-0.122441
-0.106069
-0.0874357
-0.0677342
-0.0479772
-0.0289128
-0.0110205
0.00544391
0.0203859
0.0338136
0.0457926
0.0564154
0.0657837
0.0739994
0.0811595
0.0873556
0.0926723
0.0971883
0.100977
0.104105
0.106627
0.108582
0.110036
0.111219
0.112318
0.111704
-0.116739
-0.11668
-0.112823
-0.104543
-0.0920694
-0.0762898
-0.0583912
-0.039552
-0.0207551
-0.00271339
0.0141263
0.0295339
0.043433
0.0558428
0.0668351
0.0765054
0.0849566
0.0922903
0.0986033
0.103986
0.108523
0.11229
0.115361
0.117798
0.11965
0.120961
0.121823
0.122366
0.122446
0.120777
-0.0840153
-0.0844047
-0.0809348
-0.0730525
-0.0610899
-0.0459652
-0.0288666
-0.0109524
0.00682738
0.0237964
0.0395401
0.0538533
0.0666766
0.0780394
0.0880191
0.0967136
0.104226
0.110659
0.116108
0.120662
0.124405
0.127413
0.129757
0.131496
0.132678
0.133363
0.133662
0.133539
0.132496
0.129931
-0.0506853
-0.051538
-0.0484681
-0.0410183
-0.029616
-0.0152038
0.00103556
0.0179683
0.0346804
0.0505328
0.0651429
0.0783297
0.0900492
0.100341
0.109286
0.116985
0.123542
0.129058
0.133628
0.137342
0.140281
0.142521
0.144131
0.145169
0.145684
0.145761
0.14551
0.144685
0.142524
0.141093
-0.0168787
-0.0182001
-0.015544
-0.00855938
0.00223686
0.0158839
0.0312106
0.0471121
0.0627125
0.0774108
0.0908558
0.102889
0.113482
0.122682
0.130575
0.137263
0.142851
0.147437
0.151119
0.153982
0.156109
0.157574
0.158445
0.158779
0.158631
0.158094
0.157249
0.155772
0.153198
0.152336
0.0172752
0.0154839
0.0177134
0.0242028
0.0343511
0.0471857
0.0615525
0.0763796
0.0908312
0.104344
0.116598
0.127457
0.136906
0.144999
0.151827
0.157492
0.162099
0.165748
0.168533
0.17054
0.171849
0.172535
0.172664
0.172294
0.171482
0.170323
0.168863
0.166785
0.163875
0.162904
0.0516468
0.0493867
0.0511779
0.0571449
0.0666078
0.0785885
0.0919548
0.105671
0.118943
0.131246
0.14229
0.151959
0.16025
0.167225
0.172979
0.177614
0.181234
0.18394
0.185823
0.18697
0.187459
0.187364
0.18675
0.185675
0.1842
0.182412
0.180344
0.177714
0.174451
0.173118
0.086105
0.0833792
0.0847223
0.0901428
0.0988876
0.109979
0.12231
0.134886
0.146955
0.15803
0.167849
0.176317
0.183443
0.189295
0.193969
0.19757
0.200202
0.201962
0.202942
0.203228
0.202897
0.202022
0.200666
0.198888
0.196748
0.19433
0.191657
0.188482
0.184814
0.183025
0.120518
0.117332
0.118218
0.123072
0.131071
0.141242
0.152512
0.163925
0.174773
0.184608
0.193195
0.200457
0.206415
0.211142
0.214737
0.217304
0.218947
0.219763
0.219843
0.21927
0.218122
0.216468
0.214374
0.211895
0.209093
0.206046
0.202772
0.199052
0.194946
0.192658
0.154756
0.151114
0.151538
0.155807
0.163037
0.172266
0.182452
0.192687
0.202305
0.210893
0.218246
0.224303
0.229094
0.2327
0.235219
0.236757
0.237416
0.237293
0.236477
0.235051
0.233091
0.230665
0.227837
0.224663
0.221202
0.21753
0.21366
0.209393
0.204831
0.20202
0.188686
0.184596
0.184555
0.188226
0.194669
0.202937
0.212027
0.221074
0.229457
0.2368
0.242922
0.247779
0.251412
0.253903
0.255354
0.255871
0.255555
0.254502
0.252799
0.250528
0.247764
0.244574
0.24102
0.237157
0.233044
0.228752
0.224291
0.21948
0.214454
0.211107
0.222179
0.21765
0.217141
0.220205
0.225849
0.233145
0.241131
0.248988
0.25614
0.262243
0.267143
0.270812
0.273297
0.274686
0.275083
0.274591
0.273311
0.271339
0.268761
0.265657
0.262099
0.258156
0.253886
0.249344
0.244588
0.239685
0.234639
0.22929
0.223799