/*--------------------------------*- C++ -*----------------------------------*\
  =========                 |
  \\      /  F ield         | OpenFOAM: The Open Source CFD Toolbox
   \\    /   O peration     | Website:  https://openfoam.org
    \\  /    A nd           | Version:  7
     \\/     M anipulation  |
\*---------------------------------------------------------------------------*/
FoamFile
{
    version     2.0;
    format      ascii;
    class       surfaceScalarField;
    location    "10";
    object      phi;
}
// * * * * * * * * * * * * * * * * * * * * * * * * * * * * * * * * * * * * * //

dimensions      [0 3 -1 0 0 0 0];

internalField   nonuniform List<scalar> 
278
(
0.00408199
9.74715e-06
9.09113e-08
1.05226e-05
8.32616e-08
0.00408129
1.94178e-05
2.09563e-05
0.0040799
2.87538e-05
3.10457e-05
0.00407781
3.75878e-05
4.06191e-05
0.00407503
4.57527e-05
4.95052e-05
0.00407155
5.30817e-05
5.75334e-05
0.0040674
5.94078e-05
6.45336e-05
0.00406256
6.4565e-05
7.03368e-05
0.00405705
6.83873e-05
7.47752e-05
0.00405087
7.07095e-05
7.7682e-05
0.00404403
7.13673e-05
7.88921e-05
0.00403653
7.01973e-05
7.82419e-05
0.00402839
6.70376e-05
7.55696e-05
0.00401961
6.17276e-05
7.07157e-05
0.00401021
5.41087e-05
6.35229e-05
0.00400019
4.40245e-05
5.38364e-05
0.00398957
3.13209e-05
4.15043e-05
0.00397836
1.58469e-05
2.63778e-05
0.00396657
-2.54299e-06
8.31141e-06
0.00395423
-2.39963e-05
0.00397537
-1.28355e-05
-2.68503e-06
0.00394133
-4.8654e-05
0.0039657
-3.72005e-05
-2.67327e-05
0.0197385
-5.45527e-05
0.0197435
-4.21407e-05
-3.07457e-05
0.0197409
-5.95739e-05
0.0197452
-4.6452e-05
-3.42748e-05
0.0197434
0.0197471
-5.01358e-05
-3.73049e-05
0.0197493
-5.30627e-05
-3.97529e-05
0.0197519
-5.51352e-05
-4.15492e-05
0.0197547
-5.6324e-05
-4.26683e-05
0.0197575
-5.66467e-05
-4.31162e-05
0.0197604
-5.61433e-05
-4.2916e-05
0.0197631
-5.48636e-05
-4.20996e-05
0.0197657
-5.28618e-05
-4.0704e-05
0.0197682
-5.01942e-05
-3.87696e-05
0.0197705
-4.69189e-05
-3.63392e-05
0.0197727
-4.30947e-05
-3.34579e-05
0.0197746
-3.87816e-05
-3.01724e-05
0.0197764
-3.40398e-05
-2.65307e-05
0.0197779
-2.893e-05
-2.2582e-05
0.0197791
-2.35132e-05
-1.83763e-05
0.0197802
-1.78504e-05
-1.39642e-05
0.019781
-1.20028e-05
-9.3972e-06
0.0197815
-6.03151e-06
-4.7273e-06
0.0197817
-5.43613e-05
0.0197385
4.84616e-05
-5.93846e-05
0.0197409
-6.35442e-05
0.0197433
-6.67131e-05
0.0197463
-6.8805e-05
0.0197497
-6.98144e-05
0.0197534
-6.97864e-05
0.0197571
-6.8787e-05
0.0197607
-6.68891e-05
0.0197642
-6.41661e-05
0.0197676
-6.06911e-05
0.0197707
-5.65362e-05
0.0197736
-5.17724e-05
0.0197763
-4.64699e-05
0.0197788
-4.0698e-05
0.0197809
-3.45251e-05
0.0197828
-2.80191e-05
0.0197844
-2.12474e-05
0.0197856
-1.42767e-05
0.0197866
-7.17381e-06
0.0197872
0.0197876
-4.19687e-05
0.0197434
3.70267e-05
-4.62829e-05
0.0197452
-4.99701e-05
0.019747
-5.29011e-05
0.0197492
-5.49782e-05
0.0197518
-5.61723e-05
0.0197546
-5.65011e-05
0.0197574
-5.60045e-05
0.0197602
-5.47323e-05
0.019763
-5.27386e-05
-5.00798e-05
-4.6814e-05
-4.29999e-05
-3.86974e-05
-3.39667e-05
-2.88684e-05
-2.34634e-05
-1.78128e-05
-1.19777e-05
-6.01887e-06
-3.0676e-05
2.66625e-05
-3.42058e-05
-3.7237e-05
-3.96863e-05
-4.14842e-05
-4.26052e-05
-4.30553e-05
-4.28576e-05
0.00394132
2.38046e-05
0.00396569
1.26624e-05
0.00395422
2.352e-06
-8.48395e-06
0.00396657
-1.60371e-05
-2.65497e-05
0.00397835
-3.15104e-05
-4.16757e-05
0.00398956
-4.42133e-05
-5.40073e-05
0.00400018
-5.42968e-05
-6.36933e-05
0.0040102
-6.1915e-05
-7.08857e-05
0.00401961
-6.72243e-05
-7.57391e-05
0.00402838
-7.03834e-05
-7.8411e-05
0.00403652
-7.15527e-05
-7.90608e-05
0.00404402
-7.08944e-05
-7.78503e-05
0.00405086
-6.85716e-05
-7.49432e-05
0.00405704
-6.47488e-05
-7.05045e-05
0.00406256
-5.95912e-05
-6.4701e-05
0.0040674
-5.32646e-05
-5.77006e-05
0.00407155
-4.59354e-05
-4.96722e-05
0.00407502
-3.77702e-05
-4.07859e-05
0.00407781
-2.89359e-05
-3.12124e-05
0.0040799
-1.95998e-05
-2.11229e-05
0.00408129
-9.92901e-06
-1.06892e-05
0.00408199
)
;

boundaryField
{
    inlet
    {
        type            calculated;
        value           nonuniform 0();
    }
    outlet
    {
        type            calculated;
        value           nonuniform 0();
    }
    cylinder
    {
        type            calculated;
        value           nonuniform 0();
    }
    top
    {
        type            symmetryPlane;
        value           uniform 0;
    }
    bottom
    {
        type            symmetryPlane;
        value           uniform 0;
    }
    defaultFaces
    {
        type            empty;
        value           nonuniform 0();
    }
    procBoundary46to45
    {
        type            processor;
        value           nonuniform List<scalar> 
85
(
-0.00409183
-0.00409096
-0.00408923
-0.00408664
-0.00408319
-0.00407888
-0.00407372
-0.00406772
-0.00406087
-0.00405319
-0.00404468
-0.00403536
-0.00402523
-0.0040143
-0.00400259
-0.00399011
-0.00397687
-0.00396289
-0.00394818
-0.00393277
-0.00391668
-0.0197326
-0.0197359
-0.0197392
-6.37304e-05
-0.0197464
-0.0197498
-0.0197535
-0.0197572
-0.0197609
-0.0197644
-0.0197677
-0.0197709
-0.0197738
-0.0197765
-0.0197789
-0.0197811
-0.019783
-0.0197846
-0.0197858
-0.0197868
-0.0197874
-0.0197878
-0.0197326
-0.0197358
-0.0197392
-0.0197431
-0.0197477
-0.0197524
-0.0197571
-0.0197617
-0.0197661
-0.0197703
-0.0197742
-0.0197778
-0.0197811
-0.0197841
-0.0197867
-0.019789
-0.0197909
-0.0197924
-0.0197936
-0.0197943
-0.0197947
-0.00391667
-0.00393277
-0.00394818
-0.00396288
-0.00397686
-0.0039901
-0.00400258
-0.0040143
-0.00402522
-0.00403536
-0.00404468
-0.00405319
-0.00406087
-0.00406772
-0.00407372
-0.00407888
-0.00408319
-0.00408664
-0.00408923
-0.00409096
-0.00409183
)
;
    }
    procBoundary46to47
    {
        type            processor;
        value           nonuniform List<scalar> 
87
(
0.00407138
0.00407086
0.00406981
0.00406823
0.00406614
0.00406353
0.0040604
0.00405676
0.00405261
0.00404796
0.00404281
0.00403718
0.00403106
0.00402446
0.0040174
0.00400988
0.0040019
0.00399349
0.00398464
-1.81279e-05
0.00399619
0.00398975
0.0197475
0.0197488
0.0197501
0.0197518
0.0197537
0.0197558
0.019758
0.0197602
0.0197623
0.0197643
0.0197663
0.0197681
0.0197698
0.0197713
0.0197727
0.0197739
0.0197749
0.0197758
0.0197764
0.0197768
0.019777
0.0197656
0.0197681
0.0197704
0.0197725
0.0197745
0.0197762
0.0197777
0.019779
0.01978
0.0197808
0.0197813
0.0197815
0.0197474
0.0197487
0.01975
0.0197517
0.0197536
0.0197557
0.0197579
0.01976
-4.20441e-05
0.0197621
0.00398974
2.61535e-06
0.00397537
0.00398463
0.00399348
0.0040019
0.00400987
0.00401739
0.00402446
0.00403105
0.00403717
0.00404281
0.00404796
0.00405261
0.00405675
0.00406039
0.00406352
0.00406614
0.00406823
0.00406981
0.00407086
0.00407138
)
;
    }
}


// ************************************************************************* //
