/*--------------------------------*- C++ -*----------------------------------*\
  =========                 |
  \\      /  F ield         | OpenFOAM: The Open Source CFD Toolbox
   \\    /   O peration     | Website:  https://openfoam.org
    \\  /    A nd           | Version:  7
     \\/     M anipulation  |
\*---------------------------------------------------------------------------*/
FoamFile
{
    version     2.0;
    format      ascii;
    class       volScalarField;
    location    "10";
    object      p;
}
// * * * * * * * * * * * * * * * * * * * * * * * * * * * * * * * * * * * * * //

dimensions      [0 2 -2 0 0 0 0];

internalField   nonuniform List<scalar> 
392
(
0.00244686
0.00290822
0.00138274
0.00554127
0.00244274
0.00290369
0.00138016
0.0055323
0.00243455
0.00289463
0.001375
0.00551441
0.00288105
0.00136731
0.00548767
0.00286299
0.00135711
0.00545218
0.00284054
0.00134448
0.00540807
0.00281375
0.00132952
0.00535548
0.00278274
0.00131232
0.00529458
0.00274757
0.00129301
0.00522555
0.00270833
0.00127175
0.00514854
0.00266511
0.00124871
0.00506373
0.00261799
0.00122411
0.00497123
0.00256704
0.00119824
0.00487114
0.00251232
0.00117141
0.00476342
0.00245385
0.00114405
0.00464796
0.00239165
0.00111668
0.00452446
0.00232565
0.00108994
0.0043924
0.00225574
0.00106472
0.00425092
0.00218175
0.00104226
0.00409861
0.00210343
0.00102414
0.00393365
0.00202048
0.00101077
0.0037551
0.00193211
0.00100059
0.00356252
0.00183513
0.00100893
0.00333717
0.00172265
0.00111235
0.00300471
0.0015194
0.00144911
0.00223001
0.00129666
0.00131423
0.00176619
0.0010833
0.00111015
0.00147196
0.000874817
0.000911102
0.00120768
0.00066924
0.000713409
0.00095663
0.00046781
0.0005199
0.000717278
0.000272406
0.000333274
0.000489312
8.44786e-05
0.000155014
0.000273431
-9.48212e-05
-1.37936e-05
7.07299e-05
-0.000264596
-0.000172313
-0.000117834
-0.000424211
-0.00031997
-0.000291629
-0.00057329
-0.000456469
-0.00045033
-0.000711682
-0.000581752
-0.000593916
-0.000839434
-0.000695964
-0.000722649
-0.00095676
-0.000799421
-0.00083703
-0.001064
-0.000892573
-0.000937753
-0.00116162
-0.000975976
-0.00102566
-0.00125012
-0.00105026
-0.00110169
-0.00133009
-0.00111609
-0.00116685
-0.00140213
-0.00117418
-0.00122217
-0.00146684
-0.00122521
-0.00126868
-0.00152482
-0.00126988
-0.0013074
-0.00157667
-0.00130883
-0.00133929
-0.00162293
-0.00134268
-0.00136524
-0.00166412
-0.00137203
-0.00138611
-0.00170072
-0.00139738
-0.00140265
-0.00173318
-0.00141924
-0.00141556
-0.0017619
-0.00143802
-0.00142545
-0.00178722
-0.00145412
-0.00143286
-0.00180947
-0.00146787
-0.00143828
-0.00182892
-0.00147956
-0.00144211
-0.00184582
-0.00148946
-0.00144471
-0.00186037
-0.00149776
-0.00144635
-0.00187274
-0.00150466
-0.00144729
-0.00188308
-0.0015103
-0.0014477
-0.00189152
-0.00151482
-0.00144768
-0.00189813
-0.00151832
-0.00144731
-0.00190283
-0.00152052
-0.00144625
-0.00190631
-0.00152274
-0.00144077
-0.00191029
-0.00153654
-0.00142045
0.00151943
0.00129669
0.00108333
0.000874844
0.000669265
0.000467835
0.00027243
8.4502e-05
-9.47981e-05
-0.000264573
-0.000424189
-0.000573268
-0.00071166
-0.000839412
-0.000956738
-0.00106398
-0.0011616
-0.0012501
-0.00133007
-0.00140211
-0.00146682
-0.00152481
-0.00157665
-0.00162291
-0.0016641
-0.00170071
-0.00173317
-0.00176188
-0.00178721
-0.00180946
-0.00182891
-0.00184581
-0.00186035
-0.00187272
-0.00188307
-0.00189151
-0.00189811
-0.00190282
-0.00190629
-0.00191028
0.00144913
0.00131425
0.00111017
0.000911121
0.000713427
0.000519917
0.000333291
0.00015503
-1.37773e-05
-0.000172297
-0.000319954
-0.000456452
-0.000581735
-0.000695947
-0.000799404
-0.000892556
-0.000975959
-0.00105024
-0.00111608
-0.00117416
-0.0012252
-0.00126986
-0.00130881
-0.00134267
-0.00137201
-0.00139737
-0.00141923
-0.00143801
-0.00145411
-0.00146786
-0.00147955
-0.00148944
-0.00149775
-0.00150465
-0.00151029
-0.00151481
-0.00151831
-0.00152051
-0.00152273
-0.00153653
0.00223004
0.00176622
0.00147198
0.00120769
0.000956643
0.00071729
0.000489323
0.000273442
7.07413e-05
-0.000117822
-0.000291616
-0.000450316
-0.000593901
-0.000722634
-0.000837014
-0.000937736
-0.00102564
-0.00110167
-0.00116683
-0.00122215
-0.00126867
-0.00130739
-0.00133927
-0.00136523
-0.00138609
-0.00140263
-0.00141554
-0.00142543
-0.00143285
-0.00143827
-0.0014421
-0.00144469
-0.00144634
-0.00144728
-0.00144768
-0.00144767
-0.0014473
-0.00144624
-0.00144075
-0.00142044
0.00172268
0.00111237
0.00300475
0.00183517
0.00100894
0.00333721
0.00193214
0.0010006
0.00356257
0.00202051
0.00101078
0.00375514
0.00210347
0.00102416
0.0039337
0.00218178
0.00104227
0.00409865
0.00225578
0.00106473
0.00425096
0.00232568
0.00108996
0.00439245
0.00239168
0.00111669
0.0045245
0.00245389
0.00114407
0.004648
0.00251235
0.00117143
0.00476346
0.00256708
0.00119826
0.00487117
0.00261804
0.00122413
0.00497126
0.00266517
0.00124873
0.00506375
0.00270841
0.00127176
0.00514855
0.00274766
0.00129303
0.00522555
0.00278286
0.00131234
0.00529459
0.00281388
0.00132954
0.00535549
0.00284065
0.0013445
0.00540808
0.00240612
0.00286307
0.00135711
0.00545221
0.00242235
0.00288107
0.0013673
0.0054877
0.00243459
0.00289462
0.00137499
0.00551445
0.00244277
0.00290366
0.00138015
0.00553233
0.00244687
0.0029082
0.00138274
0.00554129
)
;

boundaryField
{
    inlet
    {
        type            zeroGradient;
    }
    outlet
    {
        type            fixedValue;
        value           uniform 0;
    }
    cylinder
    {
        type            zeroGradient;
    }
    top
    {
        type            symmetryPlane;
    }
    bottom
    {
        type            symmetryPlane;
    }
    defaultFaces
    {
        type            empty;
    }
    procBoundary63to62
    {
        type            processor;
        value           nonuniform List<scalar> 
130
(
0.00265583
0.00265143
0.00264264
0.00242232
0.00242232
0.00240611
0.00238599
0.00236203
0.00233433
0.00230302
0.00226823
0.00223013
0.0021889
0.00214473
0.00209786
0.00204853
0.00199704
0.00194371
0.00188891
0.00183308
0.00177668
0.00172015
0.00166385
0.00160951
0.00156291
0.00147966
0.00127603
0.00105994
0.000842056
0.000624593
0.00041032
0.000201528
-1.14125e-07
-0.000193333
-0.000377169
-0.000550952
-0.000714276
-0.000866959
-0.00100902
-0.00114062
-0.00126208
-0.00137378
-0.00147621
-0.00156987
-0.00165532
-0.0017331
-0.00180377
-0.00186785
-0.00192585
-0.00197825
-0.00202549
-0.00206798
-0.00210609
-0.00214014
-0.00217044
-0.00219725
-0.00222079
-0.00224126
-0.00225883
-0.00227364
-0.00228583
-0.00229548
-0.0023027
-0.00230782
-0.00231076
0.00147969
0.00127607
0.00105998
0.000842088
0.000624624
0.000410351
0.000201559
-8.41033e-08
-0.000193303
-0.00037714
-0.000550924
-0.000714248
-0.000866932
-0.00100899
-0.00114059
-0.00126205
-0.00137376
-0.00147618
-0.00156985
-0.0016553
-0.00173308
-0.00180375
-0.00186783
-0.00192583
-0.00197823
-0.00202547
-0.00206796
-0.00210607
-0.00214013
-0.00217043
-0.00219723
-0.00222077
-0.00224124
-0.00225881
-0.00227363
-0.00228582
-0.00229547
-0.00230269
-0.0023078
-0.00231074
0.00156294
0.00160954
0.00166388
0.00172018
0.00177671
0.0018331
0.00188893
0.00194373
0.00199705
0.00204854
0.00209786
0.00214473
0.00218889
0.00223013
0.00226822
0.00230301
0.00233431
0.00236201
0.00238597
0.00238597
0.00261211
0.00262955
0.00264267
0.00265147
0.00265585
)
;
    }
}


// ************************************************************************* //
