/*--------------------------------*- C++ -*----------------------------------*\
  =========                 |
  \\      /  F ield         | OpenFOAM: The Open Source CFD Toolbox
   \\    /   O peration     | Website:  https://openfoam.org
    \\  /    A nd           | Version:  7
     \\/     M anipulation  |
\*---------------------------------------------------------------------------*/
FoamFile
{
    version     2.0;
    format      ascii;
    class       volScalarField;
    location    "50";
    object      p;
}
// * * * * * * * * * * * * * * * * * * * * * * * * * * * * * * * * * * * * * //

dimensions      [0 2 -2 0 0 0 0];

internalField   nonuniform List<scalar> 
928
(
-0.0367617
-0.0360531
-0.0353595
-0.0346806
-0.0340159
-0.033365
-0.0367723
-0.0360634
-0.0353697
-0.0346905
-0.0340256
-0.0333745
-0.0367934
-0.0360842
-0.03539
-0.0347104
-0.034045
-0.0333936
-0.0368252
-0.0361153
-0.0354204
-0.0347402
-0.0340742
-0.0334221
-0.0368676
-0.0361567
-0.035461
-0.0347799
-0.0341131
-0.0334602
-0.0369205
-0.0362085
-0.0355117
-0.0348295
-0.0341616
-0.0335077
-0.0362706
-0.0355724
-0.034889
-0.0342199
-0.0335647
-0.036343
-0.0356433
-0.0349583
-0.0342878
-0.0336312
-0.0364257
-0.0357242
-0.0350375
-0.0343653
-0.033707
-0.0365186
-0.0358151
-0.0351265
-0.0344524
-0.0337923
-0.0366217
-0.035916
-0.0352252
-0.034549
-0.0338869
-0.0367349
-0.0360268
-0.0353337
-0.0346552
-0.0339908
-0.0368582
-0.0361475
-0.0354518
-0.0347708
-0.034104
-0.0334511
-0.0369915
-0.036278
-0.0355795
-0.0348958
-0.0342264
-0.0335709
-0.0371348
-0.0364182
-0.0357168
-0.0350302
-0.0343579
-0.0336996
-0.0365682
-0.0358636
-0.0351738
-0.0344985
-0.0338372
-0.0367277
-0.0360197
-0.0353266
-0.0346481
-0.0339837
-0.0368967
-0.0361851
-0.0354885
-0.0348065
-0.0341388
-0.0370752
-0.0363598
-0.0356594
-0.0349738
-0.0343026
-0.0372629
-0.0365435
-0.0358393
-0.0351499
-0.0344748
-0.0338139
-0.0374598
-0.0367362
-0.0360279
-0.0353345
-0.0346556
-0.0339908
-0.0369378
-0.0362252
-0.0355276
-0.0348446
-0.0341758
-0.0371481
-0.036431
-0.035729
-0.0350417
-0.0343688
-0.0373671
-0.0366453
-0.0359388
-0.035247
-0.0345697
-0.0375948
-0.0368681
-0.0361568
-0.0354604
-0.0347786
-0.0341109
-0.0370985
-0.0363822
-0.0356811
-0.0349945
-0.0343223
-0.0373336
-0.0366124
-0.0359064
-0.035215
-0.0345381
-0.0375802
-0.0368538
-0.0361426
-0.0354463
-0.0347644
-0.0378696
-0.0371369
-0.0364196
-0.0357173
-0.0350296
-0.0343562
-0.0374186
-0.0366952
-0.035987
-0.0352935
-0.0346144
-0.0374522
-0.0367287
-0.0360203
-0.0353267
-0.0346475
-0.0377677
-0.0370418
-0.036331
-0.0356349
-0.0349531
-0.0380343
-0.0373072
-0.0365952
-0.0358977
-0.0352145
-0.0383049
-0.0375769
-0.0368637
-0.036165
-0.0354804
-0.0385894
-0.0378605
-0.0371463
-0.0364465
-0.0357607
-0.0388827
-0.0381532
-0.0374382
-0.0367375
-0.0360506
-0.0391837
-0.0384537
-0.0377382
-0.0370367
-0.036349
-0.0394912
-0.0387611
-0.0380453
-0.0373433
-0.036655
-0.0398039
-0.039074
-0.0383581
-0.037656
-0.0369672
-0.0401203
-0.0393909
-0.0386753
-0.0379731
-0.0372842
-0.0404388
-0.0397102
-0.0389952
-0.0382934
-0.0376046
-0.0407579
-0.0400304
-0.0393163
-0.0386152
-0.0379269
-0.0410758
-0.0403499
-0.0396371
-0.038937
-0.0382494
-0.0413911
-0.0406672
-0.039956
-0.0392573
-0.0385708
-0.0417023
-0.0409807
-0.0402716
-0.0395746
-0.0388896
-0.042008
-0.0412892
-0.0405824
-0.0398875
-0.0392043
-0.042307
-0.0415912
-0.0408872
-0.0401948
-0.0395137
-0.0425979
-0.0418856
-0.0411848
-0.0404952
-0.0398167
-0.0428799
-0.0421715
-0.0414742
-0.0407877
-0.040112
-0.0431521
-0.0424479
-0.0417544
-0.0410715
-0.0403989
-0.0434137
-0.042714
-0.0420247
-0.0413456
-0.0406765
-0.0436642
-0.0429694
-0.0422845
-0.0416095
-0.0409442
-0.0439031
-0.0432134
-0.0425333
-0.0418627
-0.0412014
-0.0441302
-0.0434459
-0.0427707
-0.0421047
-0.0414477
-0.0443452
-0.0436665
-0.0429966
-0.0423354
-0.0416829
-0.0445482
-0.0438752
-0.0432107
-0.0425545
-0.0419067
-0.044739
-0.044072
-0.0434131
-0.0427621
-0.0421192
-0.044918
-0.044257
-0.0436038
-0.0429582
-0.0423202
-0.0450852
-0.0444304
-0.043783
-0.0431429
-0.04251
-0.045241
-0.0445925
-0.0439509
-0.0433164
-0.0426887
-0.0453857
-0.0447435
-0.0441079
-0.0434789
-0.0428565
-0.0455197
-0.0448838
-0.0442541
-0.0436308
-0.0430137
-0.0456434
-0.0450138
-0.0443901
-0.0437723
-0.0431606
-0.0457572
-0.0451339
-0.0445161
-0.043904
-0.0432975
-0.0458617
-0.0452446
-0.0446327
-0.0440261
-0.0434249
-0.0459573
-0.0453463
-0.0447402
-0.0441392
-0.0435432
-0.0460444
-0.0454394
-0.0448391
-0.0442435
-0.0436527
-0.0461237
-0.0455246
-0.0449299
-0.0443396
-0.0437539
-0.0461955
-0.0456022
-0.045013
-0.044428
-0.0438472
-0.0462605
-0.0456727
-0.0450889
-0.0445089
-0.0439329
-0.0463189
-0.0457366
-0.045158
-0.0445829
-0.0440117
-0.0463714
-0.0457944
-0.0452207
-0.0446504
-0.0440837
-0.0464183
-0.0458464
-0.0452775
-0.0447119
-0.0441495
-0.0464602
-0.0458931
-0.0453288
-0.0447676
-0.0442094
-0.0464973
-0.0459348
-0.045375
-0.0448179
-0.0442638
-0.0465302
-0.0459721
-0.0454164
-0.0448633
-0.044313
-0.0465592
-0.0460051
-0.0454534
-0.0449041
-0.0443573
-0.0465846
-0.0460344
-0.0454864
-0.0449406
-0.0443972
-0.0466067
-0.0460602
-0.0455156
-0.0449731
-0.0444328
-0.046626
-0.0460827
-0.0455413
-0.0450019
-0.0444645
-0.0466426
-0.0461024
-0.0455639
-0.0450272
-0.0444925
-0.0466567
-0.0461193
-0.0455834
-0.0450493
-0.044517
-0.0466688
-0.0461338
-0.0456003
-0.0450684
-0.0445383
-0.0466788
-0.046146
-0.0456146
-0.0450847
-0.0445565
-0.0466871
-0.0461562
-0.0456266
-0.0450984
-0.0445718
-0.0466938
-0.0461644
-0.0456363
-0.0451095
-0.0445843
-0.046699
-0.0461709
-0.0456439
-0.0451183
-0.0445942
-0.0467028
-0.0461756
-0.0456496
-0.0451248
-0.0446015
-0.0467053
-0.0461787
-0.0456533
-0.0451291
-0.0446064
-0.0467065
-0.0461803
-0.0456551
-0.0451313
-0.0446088
-0.0374522
-0.0377677
-0.0380343
-0.0383049
-0.0385894
-0.0388827
-0.0391837
-0.0394912
-0.0398039
-0.0401203
-0.0404388
-0.0407579
-0.0410758
-0.0413911
-0.0417023
-0.042008
-0.042307
-0.0425979
-0.0428799
-0.0431521
-0.0434137
-0.0436642
-0.0439032
-0.0441302
-0.0443453
-0.0445482
-0.0447391
-0.044918
-0.0450852
-0.045241
-0.0453857
-0.0455197
-0.0456434
-0.0457573
-0.0458617
-0.0459573
-0.0460445
-0.0461237
-0.0461956
-0.0462605
-0.0463189
-0.0463714
-0.0464184
-0.0464602
-0.0464974
-0.0465302
-0.0465592
-0.0465846
-0.0466068
-0.046626
-0.0466426
-0.0466568
-0.0466688
-0.0466789
-0.0466872
-0.0466938
-0.046699
-0.0467028
-0.0467053
-0.0467066
-0.0367287
-0.0370418
-0.0373072
-0.0375769
-0.0378605
-0.0381532
-0.0384537
-0.0387611
-0.039074
-0.0393909
-0.0397102
-0.0400304
-0.0403499
-0.0406672
-0.0409807
-0.0412892
-0.0415912
-0.0418856
-0.0421715
-0.0424479
-0.042714
-0.0429694
-0.0432134
-0.0434459
-0.0436665
-0.0438752
-0.044072
-0.044257
-0.0444305
-0.0445925
-0.0447435
-0.0448838
-0.0450138
-0.0451339
-0.0452446
-0.0453463
-0.0454395
-0.0455246
-0.0456022
-0.0456728
-0.0457367
-0.0457944
-0.0458464
-0.0458931
-0.0459348
-0.0459721
-0.0460052
-0.0460344
-0.0460602
-0.0460827
-0.0461024
-0.0461193
-0.0461338
-0.0461461
-0.0461562
-0.0461645
-0.0461709
-0.0461756
-0.0461788
-0.0461803
-0.0360203
-0.036331
-0.0365952
-0.0368637
-0.0371463
-0.0374382
-0.0377382
-0.0380453
-0.0383581
-0.0386753
-0.0389952
-0.0393163
-0.0396371
-0.039956
-0.0402716
-0.0405824
-0.0408872
-0.0411848
-0.0414742
-0.0417544
-0.0420247
-0.0422845
-0.0425333
-0.0427707
-0.0429966
-0.0432107
-0.0434131
-0.0436038
-0.043783
-0.043951
-0.0441079
-0.0442542
-0.0443901
-0.0445161
-0.0446327
-0.0447402
-0.0448391
-0.0449299
-0.045013
-0.0450889
-0.045158
-0.0452207
-0.0452775
-0.0453288
-0.045375
-0.0454164
-0.0454534
-0.0454864
-0.0455156
-0.0455413
-0.0455639
-0.0455835
-0.0456003
-0.0456146
-0.0456266
-0.0456363
-0.045644
-0.0456496
-0.0456533
-0.0456552
-0.0353267
-0.0356349
-0.0358977
-0.036165
-0.0364465
-0.0367375
-0.0370367
-0.0373433
-0.037656
-0.0379732
-0.0382934
-0.0386152
-0.038937
-0.0392573
-0.0395746
-0.0398875
-0.0401948
-0.0404952
-0.0407877
-0.0410715
-0.0413456
-0.0416095
-0.0418627
-0.0421047
-0.0423354
-0.0425546
-0.0427621
-0.0429582
-0.0431429
-0.0433164
-0.0434789
-0.0436308
-0.0437724
-0.043904
-0.0440262
-0.0441392
-0.0442435
-0.0443397
-0.044428
-0.0445089
-0.044583
-0.0446505
-0.0447119
-0.0447676
-0.0448179
-0.0448633
-0.0449041
-0.0449406
-0.0449731
-0.0450019
-0.0450272
-0.0450493
-0.0450684
-0.0450847
-0.0450984
-0.0451096
-0.0451183
-0.0451249
-0.0451292
-0.0451313
-0.0346475
-0.0349531
-0.0352145
-0.0354804
-0.0357607
-0.0360506
-0.036349
-0.036655
-0.0369672
-0.0372842
-0.0376046
-0.0379269
-0.0382495
-0.0385708
-0.0388896
-0.0392043
-0.0395137
-0.0398167
-0.040112
-0.0403989
-0.0406765
-0.0409442
-0.0412014
-0.0414477
-0.0416829
-0.0419067
-0.0421192
-0.0423202
-0.04251
-0.0426887
-0.0428565
-0.0430137
-0.0431606
-0.0432975
-0.043425
-0.0435432
-0.0436527
-0.0437539
-0.0438472
-0.043933
-0.0440117
-0.0440837
-0.0441495
-0.0442094
-0.0442638
-0.044313
-0.0443574
-0.0443972
-0.0444328
-0.0444645
-0.0444925
-0.044517
-0.0445383
-0.0445565
-0.0445718
-0.0445843
-0.0445942
-0.0446016
-0.0446064
-0.0446088
-0.0381576
-0.0374186
-0.0366952
-0.035987
-0.0352935
-0.0346144
-0.0378696
-0.0371369
-0.0364196
-0.0357173
-0.0350296
-0.0375802
-0.0368538
-0.0361426
-0.0354463
-0.0347644
-0.0373336
-0.0366124
-0.0359063
-0.035215
-0.0345381
-0.0378301
-0.0370985
-0.0363822
-0.0356811
-0.0349945
-0.0343223
-0.0375948
-0.0368681
-0.0361568
-0.0354604
-0.0347786
-0.0341109
-0.0373671
-0.0366453
-0.0359388
-0.035247
-0.0345697
-0.0371481
-0.036431
-0.035729
-0.0350417
-0.0343688
-0.0369378
-0.0362252
-0.0355276
-0.0348446
-0.0341758
-0.0374598
-0.0367362
-0.0360279
-0.0353345
-0.0346556
-0.0339908
-0.0372629
-0.0365435
-0.0358393
-0.0351499
-0.0344748
-0.0338139
-0.0370752
-0.0363598
-0.0356594
-0.0349738
-0.0343026
-0.0368967
-0.0361851
-0.0354885
-0.0348065
-0.0341388
-0.0367277
-0.0360197
-0.0353266
-0.034648
-0.0339837
-0.037288
-0.0365682
-0.0358636
-0.0351738
-0.0344985
-0.0338372
-0.0371348
-0.0364182
-0.0357168
-0.0350302
-0.0343579
-0.0336996
-0.0369915
-0.036278
-0.0355795
-0.0348958
-0.0342264
-0.0335709
-0.0368582
-0.0361475
-0.0354518
-0.0347708
-0.034104
-0.0367349
-0.0360268
-0.0353337
-0.0346552
-0.0339908
-0.0366217
-0.035916
-0.0352252
-0.034549
-0.0338869
-0.0365186
-0.0358151
-0.0351265
-0.0344524
-0.0337923
-0.0364257
-0.0357242
-0.0350375
-0.0343653
-0.033707
-0.036343
-0.0356433
-0.0349583
-0.0342878
-0.0336312
-0.036984
-0.0362706
-0.0355724
-0.034889
-0.0342199
-0.0335647
-0.0369205
-0.0362085
-0.0355117
-0.0348295
-0.0341616
-0.0335077
-0.0368676
-0.0361567
-0.035461
-0.0347799
-0.0341131
-0.0334602
-0.0368252
-0.0361153
-0.0354204
-0.0347402
-0.0340742
-0.0334221
-0.0367934
-0.0360842
-0.03539
-0.0347104
-0.034045
-0.0333936
-0.0367723
-0.0360634
-0.0353697
-0.0346905
-0.0340256
-0.0333745
-0.0367617
-0.0360531
-0.0353595
-0.0346806
-0.0340159
-0.033365
)
;

boundaryField
{
    inlet
    {
        type            zeroGradient;
    }
    outlet
    {
        type            fixedValue;
        value           nonuniform 0();
    }
    cylinder
    {
        type            zeroGradient;
    }
    top
    {
        type            symmetryPlane;
    }
    bottom
    {
        type            symmetryPlane;
    }
    defaultFaces
    {
        type            empty;
    }
    procBoundary38to37
    {
        type            processor;
        value           nonuniform List<scalar> 
190
(
-0.0374857
-0.0374965
-0.0375181
-0.0375506
-0.0375939
-0.037648
-0.036984
-0.036984
-0.0370579
-0.0371424
-0.0372373
-0.0373426
-0.0374583
-0.0375843
-0.0377206
-0.037867
-0.037288
-0.037288
-0.037451
-0.0376238
-0.0378061
-0.0379979
-0.0381992
-0.0376658
-0.0376658
-0.0378807
-0.0381045
-0.0383371
-0.0378301
-0.0378301
-0.0380704
-0.0383224
-0.0386182
-0.0381576
-0.0381576
-0.0381913
-0.038509
-0.0387767
-0.0390482
-0.0393334
-0.0396272
-0.0399284
-0.0402359
-0.0405482
-0.0408639
-0.0411813
-0.0414989
-0.041815
-0.0421281
-0.0424366
-0.0427393
-0.0430347
-0.0433219
-0.0435996
-0.0438672
-0.0441239
-0.0443692
-0.0446026
-0.0448239
-0.0450329
-0.0452297
-0.0454142
-0.0455867
-0.0457474
-0.0458966
-0.0460346
-0.0461619
-0.046279
-0.0463862
-0.0464841
-0.0465732
-0.0466541
-0.0467271
-0.0467929
-0.0468519
-0.0469047
-0.0469517
-0.0469933
-0.0470301
-0.0470624
-0.0470907
-0.0471154
-0.0471368
-0.0471552
-0.0471709
-0.0471843
-0.0471956
-0.0472051
-0.0472129
-0.0472193
-0.0472243
-0.0472282
-0.047231
-0.0472328
-0.0472338
-0.0381913
-0.0381913
-0.038509
-0.0387767
-0.0390482
-0.0393334
-0.0396272
-0.0399284
-0.0402359
-0.0405482
-0.0408639
-0.0411813
-0.0414989
-0.041815
-0.0421281
-0.0424366
-0.0427393
-0.0430347
-0.0433219
-0.0435996
-0.0438672
-0.0441239
-0.0443692
-0.0446026
-0.0448239
-0.0450329
-0.0452297
-0.0454142
-0.0455867
-0.0457474
-0.0458966
-0.0460346
-0.0461619
-0.046279
-0.0463862
-0.0464841
-0.0465732
-0.0466541
-0.0467271
-0.0467929
-0.0468519
-0.0469047
-0.0469517
-0.0469933
-0.0470301
-0.0470625
-0.0470908
-0.0471154
-0.0471368
-0.0471552
-0.0471709
-0.0471843
-0.0471957
-0.0472051
-0.0472129
-0.0472193
-0.0472243
-0.0472282
-0.047231
-0.0472329
-0.0472338
-0.0389126
-0.0386182
-0.0383224
-0.0380704
-0.0380704
-0.0385776
-0.0383371
-0.0381045
-0.0378807
-0.0376658
-0.0376658
-0.0381992
-0.0379979
-0.0378061
-0.0376238
-0.037451
-0.037451
-0.0380236
-0.037867
-0.0377206
-0.0375843
-0.0374583
-0.0373426
-0.0372373
-0.0371424
-0.0370579
-0.0370579
-0.0377128
-0.037648
-0.0375939
-0.0375506
-0.0375181
-0.0374965
-0.0374857
)
;
    }
    procBoundary38to39
    {
        type            processor;
        value           nonuniform List<scalar> 
188
(
-0.0327277
-0.032737
-0.0327556
-0.0327836
-0.0328208
-0.0328674
-0.0329232
-0.0329882
-0.0330625
-0.033146
-0.0332386
-0.0333403
-0.0333403
-0.0328117
-0.032929
-0.033055
-0.0331897
-0.0333331
-0.0334849
-0.0336452
-0.0336452
-0.0331666
-0.0333397
-0.0335208
-0.0337098
-0.0339064
-0.0339064
-0.033457
-0.0336639
-0.0338752
-0.0340968
-0.0340968
-0.0336967
-0.0339493
-0.0339823
-0.0342853
-0.0345451
-0.0348097
-0.0350886
-0.0353773
-0.0356747
-0.0359799
-0.0362915
-0.0366082
-0.0369285
-0.037251
-0.0375741
-0.0378964
-0.0382163
-0.0385326
-0.0388438
-0.039149
-0.0394469
-0.0397366
-0.0400173
-0.0402884
-0.0405493
-0.0407996
-0.0410389
-0.0412671
-0.0414841
-0.0416898
-0.0418844
-0.0420679
-0.0422406
-0.0424028
-0.0425547
-0.0426967
-0.0428291
-0.0429523
-0.0430667
-0.0431727
-0.0432706
-0.043361
-0.0434442
-0.0435206
-0.0435905
-0.0436544
-0.0437126
-0.0437654
-0.0438132
-0.0438563
-0.0438949
-0.0439294
-0.0439599
-0.0439867
-0.0440101
-0.0440301
-0.0440469
-0.0440608
-0.0440717
-0.0440798
-0.0440852
-0.0440879
-0.0339823
-0.0342853
-0.0345451
-0.0348097
-0.0350886
-0.0353773
-0.0356747
-0.0359799
-0.0362915
-0.0366082
-0.0369285
-0.037251
-0.0375741
-0.0378964
-0.0382163
-0.0385326
-0.0388439
-0.039149
-0.0394469
-0.0397366
-0.0400173
-0.0402884
-0.0405493
-0.0407996
-0.0410389
-0.0412671
-0.0414841
-0.0416898
-0.0418844
-0.0420679
-0.0422407
-0.0424028
-0.0425547
-0.0426967
-0.0428291
-0.0429523
-0.0430667
-0.0431727
-0.0432707
-0.043361
-0.0434442
-0.0435206
-0.0435905
-0.0436544
-0.0437126
-0.0437654
-0.0438132
-0.0438563
-0.0438949
-0.0439294
-0.0439599
-0.0439867
-0.0440101
-0.0440301
-0.044047
-0.0440608
-0.0440717
-0.0440798
-0.0440852
-0.0440879
-0.0339493
-0.0343562
-0.0343562
-0.0340968
-0.0338752
-0.0336639
-0.033457
-0.0339064
-0.0339064
-0.0337097
-0.0335208
-0.0333397
-0.0331666
-0.0336452
-0.0336452
-0.0334849
-0.0333331
-0.0331897
-0.033055
-0.032929
-0.0334511
-0.0334511
-0.0333403
-0.0332386
-0.033146
-0.0330625
-0.0329882
-0.0329232
-0.0328674
-0.0328208
-0.0327836
-0.0327557
-0.032737
-0.0327277
)
;
    }
}


// ************************************************************************* //
