/*--------------------------------*- C++ -*----------------------------------*\
  =========                 |
  \\      /  F ield         | OpenFOAM: The Open Source CFD Toolbox
   \\    /   O peration     | Website:  https://openfoam.org
    \\  /    A nd           | Version:  7
     \\/     M anipulation  |
\*---------------------------------------------------------------------------*/
FoamFile
{
    version     2.0;
    format      ascii;
    class       volScalarField;
    location    "35";
    object      p;
}
// * * * * * * * * * * * * * * * * * * * * * * * * * * * * * * * * * * * * * //

dimensions      [0 2 -2 0 0 0 0];

internalField   nonuniform List<scalar> 
183
(
0.00346493
0.00364808
0.00346224
0.00341287
0.00348036
0.00324808
0.00334471
0.00329994
0.00302441
0.00325899
0.00310779
0.00279331
0.00315432
0.00290483
0.00255669
0.00302961
0.00269193
0.00231624
0.00246997
0.00207338
0.00223978
0.0018294
0.00200236
0.00158589
0.0017591
0.00134309
0.00151151
0.00110222
0.00126002
0.000863919
0.00100616
0.000628535
0.000750851
0.000396344
0.000494896
0.000167526
0.000239011
-5.78666e-05
-1.62752e-05
-0.000279876
-0.000270503
-0.000498664
-0.000523263
-0.000714703
-0.000775271
-0.000928809
-0.00103031
-0.0011404
-0.00180782
-0.0017633
-0.00313028
-0.00280294
-0.00443019
-0.00382534
-0.00572345
-0.00484994
-0.0069963
-0.00586825
-0.00822871
-0.00686412
-0.00940897
-0.0078266
-0.0105271
-0.00874614
-0.0115754
-0.00961465
-0.0125482
-0.0104261
-0.0134421
-0.0111763
-0.0142549
-0.0118621
-0.0149853
-0.0124812
-0.0156328
-0.0130325
-0.0161977
-0.013515
-0.0166803
-0.0139284
-0.0170811
-0.0142727
-0.0174008
-0.0145478
-0.0176399
-0.0147539
-0.012191
-0.017799
-0.0148912
-0.0123074
-0.0178783
-0.0149599
-0.0123655
0.000980872
-0.000912618
-0.00279205
-0.0045696
-0.00622575
-0.00774427
-0.00913457
-0.0104031
-0.0115551
-0.0125968
-0.0135338
-0.0143709
-0.0151128
-0.0157631
-0.0163252
-0.016802
-0.0171957
-0.0175084
-0.0177416
-0.0178963
-0.0179734
0.00201489
0.000366408
-0.00127605
-0.00284855
-0.0043232
-0.00568416
-0.00693654
-0.00808307
-0.00912696
-0.0100726
-0.0109242
-0.0116857
-0.0123607
-0.0129526
-0.0134641
-0.0138978
-0.0142559
-0.0145403
-0.0147523
-0.0148931
-0.0149633
0.00195786
0.00282887
0.00228415
0.0030951
0.00259823
0.00334862
0.00288902
0.00358229
0.00315728
0.00379538
0.00340245
0.0039867
0.00362252
0.00415437
0.00381557
0.00429662
0.00398021
0.00441201
0.00411546
0.00449938
0.00422076
0.00455795
0.004296
0.00458728
0.00434158
0.00458738
0.00435832
0.00455864
0.00434748
0.00450192
0.00347741
0.00431062
0.00441845
0.00351238
0.00424957
0.00430982
0.00353116
0.00416627
0.00417792
0.00353522
0.00406267
0.00402489
0.00352547
0.00394066
0.00385301
0.00350216
0.00380195
0.00366466
)
;

boundaryField
{
    inlet
    {
        type            zeroGradient;
    }
    outlet
    {
        type            fixedValue;
        value           nonuniform 0();
    }
    cylinder
    {
        type            zeroGradient;
    }
    top
    {
        type            symmetryPlane;
    }
    bottom
    {
        type            symmetryPlane;
    }
    defaultFaces
    {
        type            empty;
    }
    procBoundary44to43
    {
        type            processor;
        value           nonuniform List<scalar> 
86
(
0.00297141
0.00309295
0.00319578
0.00327508
0.00332621
0.00334509
0.00288418
0.00288418
0.00271784
0.00253084
0.0023245
0.00210399
0.0018643
0.00161095
0.00134614
0.00107172
0.000789524
0.000501142
0.000208047
-8.83104e-05
-0.000387854
-0.000695294
-0.00164394
-0.00334823
-0.0050161
-0.00665812
-0.00825414
-0.00977917
-0.0112223
-0.0125743
-0.0138295
-0.0149843
-0.0160371
-0.0169877
-0.0178368
-0.0185855
-0.0192354
-0.0197884
-0.020246
-0.0206099
-0.0208815
-0.0210619
-0.021152
-0.000981793
-0.00304262
-0.00507454
-0.00698252
-0.0087603
-0.0103883
-0.0118771
-0.0132352
-0.0144685
-0.0155838
-0.0165871
-0.0174838
-0.0182785
-0.0189754
-0.0195778
-0.0200887
-0.0205107
-0.0208457
-0.0210956
-0.0212614
-0.0213442
9.57785e-05
0.000477543
0.000857731
0.0012114
0.00154096
0.00184782
0.00213025
0.00238643
0.00261524
0.00281621
0.00298939
0.00313541
0.00325542
0.00335107
0.00342435
0.00342435
0.00203737
0.00221004
0.00237585
0.00253577
0.00268954
0.00283567
)
;
    }
    procBoundary44to45
    {
        type            processor;
        value           nonuniform List<scalar> 
85
(
0.00326962
0.00303797
0.00280066
0.0025604
0.00231954
0.00208011
0.00184374
0.00161165
0.00138463
0.00116326
0.000947766
0.000738112
0.000534105
0.000335422
0.000141646
-4.76948e-05
-0.000233074
-0.000414963
-0.000594047
-0.000771485
-0.000947359
-0.00146676
-0.00231199
-0.00314894
-0.0039863
-0.00481713
-0.00563042
-0.00641833
-0.00717358
-0.00788954
-0.00856111
-0.00918445
-0.00975642
-0.0102746
-0.0107374
-0.0111435
-0.0114923
-0.0117833
-0.0120163
-0.0120163
-0.00987681
-0.00997343
-0.0100219
0.00257615
0.00115362
-0.000274138
-0.00164474
-0.00292946
-0.00411729
-0.00521252
-0.0062172
-0.00713407
-0.00796656
-0.00871781
-0.00939074
-0.00998807
-0.0105123
-0.0109658
-0.0113505
-0.0116682
-0.0119205
-0.0121087
-0.0122335
-0.0122956
0.00329908
0.00352367
0.00373016
0.00391986
0.00409194
0.00424435
0.00437511
0.00448248
0.00456494
0.00462113
0.00464999
0.00465077
0.00462314
0.0045672
0.00448354
0.00437325
0.00423792
0.00407959
0.00390071
0.00370408
0.00349268
)
;
    }
}


// ************************************************************************* //
