/*--------------------------------*- C++ -*----------------------------------*\
  =========                 |
  \\      /  F ield         | OpenFOAM: The Open Source CFD Toolbox
   \\    /   O peration     | Website:  https://openfoam.org
    \\  /    A nd           | Version:  7
     \\/     M anipulation  |
\*---------------------------------------------------------------------------*/
FoamFile
{
    version     2.0;
    format      ascii;
    class       volVectorField;
    location    "25";
    object      U;
}
// * * * * * * * * * * * * * * * * * * * * * * * * * * * * * * * * * * * * * //

dimensions      [0 1 -1 0 0 0 0];

internalField   nonuniform List<vector> 
392
(
(0.630496 -0.000555478 1.69934e-25)
(0.633251 -0.000547014 -3.73801e-24)
(0.635966 -0.000538735 -4.22259e-24)
(0.630989 -0.00166391 8.56845e-24)
(0.633738 -0.00163848 9.61929e-24)
(0.636447 -0.0016136 -4.64819e-24)
(0.631975 -0.00276833 2.04367e-23)
(0.63471 -0.00272602 -1.42371e-23)
(0.637405 -0.00268463 -6.78463e-24)
(0.633449 -0.00386609 3.82173e-23)
(0.636164 -0.00380705 1.98963e-23)
(0.638839 -0.00374931 -3.43978e-24)
(0.635407 -0.00495457 -3.7257e-23)
(0.638094 -0.00487902 7.97865e-24)
(0.640743 -0.00480512 2.69806e-23)
(0.637841 -0.0060312 3.21112e-23)
(0.640495 -0.0059394 -1.7925e-23)
(0.643111 -0.00584961 -2.41341e-24)
(0.640743 -0.00709346 3.02774e-24)
(0.643357 -0.00698574 7.72203e-23)
(0.645934 -0.00688039 -1.02862e-23)
(0.644103 -0.00813892 4.40482e-23)
(0.646671 -0.00801566 -5.89161e-23)
(0.649204 -0.0078951 2.08973e-25)
(0.647909 -0.00916522 -2.15223e-23)
(0.650426 -0.00902684 6.78831e-23)
(0.652909 -0.00889151 3.67574e-23)
(0.652148 -0.0101701 6.9525e-23)
(0.654609 -0.0100171 -4.38262e-23)
(0.657036 -0.00986742 4.48996e-23)
(0.656807 -0.0111514 -9.30159e-23)
(0.659206 -0.0109842 8.36796e-23)
(0.661573 -0.0108208 -2.72755e-23)
(0.661868 -0.012107 1.05225e-22)
(0.664202 -0.0119263 4.15685e-23)
(0.666504 -0.0117496 -9.98142e-23)
(0.667316 -0.0130351 1.24865e-23)
(0.66958 -0.0128414 -4.24837e-23)
(0.671813 -0.0126521 7.25446e-23)
(0.673132 -0.0139338 8.44561e-23)
(0.675322 -0.0137279 1.63358e-23)
(0.677484 -0.0135265 -4.98286e-23)
(0.679298 -0.0148016 1.26611e-22)
(0.681411 -0.0145839 9.23388e-24)
(0.683498 -0.0143712 -1.33847e-22)
(0.685793 -0.0156368 2.19987e-22)
(0.687827 -0.0154082 -3.90328e-23)
(0.689836 -0.0151847 1.19377e-22)
(0.692598 -0.0164382 -1.68438e-22)
(0.69455 -0.0161994 5.10885e-23)
(0.696479 -0.0159658 -2.13189e-24)
(0.69969 -0.0172046 -7.88944e-23)
(0.701559 -0.0169562 1.5132e-24)
(0.703406 -0.0167133 -2.27088e-23)
(0.707049 -0.0179349 -1.27536e-22)
(0.708834 -0.0176777 2.35888e-22)
(0.710598 -0.0174262 -1.14811e-22)
(0.714653 -0.0186282 1.6431e-22)
(0.716352 -0.018363 -2.75705e-22)
(0.718033 -0.0181037 1.72038e-22)
(0.722478 -0.0192839 -1.65529e-22)
(0.724092 -0.0190113 -2.14482e-23)
(0.725689 -0.0187449 1.275e-22)
(0.727269 -0.0184843 8.65378e-24)
(0.730503 -0.0199015 -5.07163e-23)
(0.732032 -0.0196223 5.10119e-23)
(0.733545 -0.0193495 9.34915e-24)
(0.735043 -0.0190827 -1.0187e-22)
(0.738705 -0.0204815 -1.75887e-22)
(0.74015 -0.0201964 4.83982e-23)
(0.74158 -0.0199178 3.48061e-23)
(0.742997 -0.0196455 6.80532e-23)
(0.748423 -0.0207324 -5.49119e-23)
(0.749772 -0.0204488 6.98028e-24)
(0.751109 -0.0201715 2.33581e-23)
(0.764654 -0.0216826 0)
(0.765838 -0.0213906 0)
(0.767013 -0.0211054 4.18713e-29)
(0.789987 -0.0228027 0)
(0.790914 -0.0225034 0)
(0.791835 -0.022211 4.0995e-29)
(0.816181 -0.0236519 0)
(0.816852 -0.0233492 0)
(0.817521 -0.0230535 0)
(0.842851 -0.0242309 0)
(0.843274 -0.0239286 0)
(0.843699 -0.0236336 0)
(0.869629 -0.024549 0)
(0.869816 -0.0242509 0)
(0.870008 -0.0239601 2.31526e-30)
(0.896168 -0.0246216 0)
(0.896134 -0.024331 0)
(0.896108 -0.0240478 5.52682e-29)
(0.922147 -0.024468 -8.15249e-29)
(0.921912 -0.0241876 0)
(0.921688 -0.0239146 -5.98203e-29)
(0.947284 -0.0241102 8.15249e-29)
(0.946869 -0.0238425 0)
(0.946467 -0.023582 0)
(0.971331 -0.023573 3.10437e-30)
(0.97076 -0.0233196 0)
(0.970204 -0.0230733 -2.68355e-30)
(0.994085 -0.0228822 -3.10437e-30)
(0.993383 -0.0226443 0)
(0.992696 -0.0224134 2.68355e-30)
(1.01538 -0.0220644 0)
(1.01458 -0.0218427 0)
(1.01378 -0.0216279 0)
(1.03511 -0.0211458 0)
(1.03422 -0.0209405 0)
(1.03334 -0.0207421 0)
(1.05319 -0.0201516 0)
(1.05224 -0.0199627 0)
(1.0513 -0.0197805 0)
(1.06959 -0.0191057 0)
(1.06859 -0.0189325 0)
(1.06762 -0.0187659 0)
(1.08429 -0.0180293 3.74104e-30)
(1.08328 -0.0178712 1.22843e-29)
(1.08229 -0.0177195 0)
(1.09735 -0.0169418 -3.74104e-30)
(1.09634 -0.0167976 -1.22843e-29)
(1.09533 -0.0166598 0)
(1.10881 -0.0158592 1.74406e-12)
(1.10781 -0.015728 0)
(1.10681 -0.015603 9.71218e-29)
(1.11875 -0.0147952 -1.74406e-12)
(1.11777 -0.0146757 0)
(1.1168 -0.0145623 -9.71218e-29)
(1.12728 -0.0137605 0)
(1.12633 -0.0136515 1.18791e-28)
(1.12539 -0.0135485 0)
(1.13451 -0.012763 0)
(1.13359 -0.0126634 -1.18791e-28)
(1.13269 -0.0125696 0)
(1.14054 -0.0118083 0)
(1.13967 -0.011717 0)
(1.13881 -0.0116314 0)
(1.14551 -0.0108997 0)
(1.14468 -0.0108158 0)
(1.14386 -0.0107374 0)
(1.14954 -0.0100386 0)
(1.14875 -0.00996119 0)
(1.14797 -0.00988915 0)
(1.15274 -0.00922485 0)
(1.152 -0.00915322 0)
(1.15126 -0.0090868 0)
(1.15523 -0.00845689 -1.29791e-28)
(1.15453 -0.00839051 1.02398e-28)
(1.15383 -0.00832912 0)
(1.15711 -0.00773232 1.29791e-28)
(1.15645 -0.00767074 -1.02398e-28)
(1.15579 -0.00761391 0)
(1.15849 -0.007048 0)
(1.15786 -0.00699088 0)
(1.15724 -0.00693828 0)
(1.15945 -0.00640036 0)
(1.15886 -0.00634749 0)
(1.15827 -0.00629885 0)
(1.16008 -0.00578563 1.26637e-28)
(1.15951 -0.00573686 -1.39584e-28)
(1.15895 -0.00569203 0)
(1.16044 -0.00519995 -1.26637e-28)
(1.1599 -0.00515521 1.39584e-28)
(1.15937 -0.00511411 0)
(1.1606 -0.00463957 0)
(1.16008 -0.00459883 1.09598e-28)
(1.15957 -0.00456143 -1.22302e-28)
(1.16061 -0.0041009 0)
(1.16011 -0.0040642 -1.09598e-28)
(1.15962 -0.0040305 1.22302e-28)
(1.16052 -0.00358061 0)
(1.16004 -0.00354799 0)
(1.15956 -0.00351803 0)
(1.16037 -0.00307563 0)
(1.1599 -0.00304715 0)
(1.15944 -0.00302101 -2.96229e-29)
(1.16018 -0.0025832 0)
(1.15972 -0.00255894 0)
(1.15927 -0.00253667 -8.44943e-29)
(1.15999 -0.00210083 0)
(1.15954 -0.00208087 0)
(1.1591 -0.00206253 0)
(1.15981 -0.00162631 0)
(1.15937 -0.00161071 1.13145e-28)
(1.15893 -0.00159637 0)
(1.15967 -0.00115763 0)
(1.15923 -0.00114645 -1.13145e-28)
(1.1588 -0.00113617 0)
(1.15956 -0.000693006 1.33569e-28)
(1.15913 -0.000686278 0)
(1.1587 -0.000680093 1.42133e-30)
(1.15951 -0.000230745 -1.35004e-28)
(1.15908 -0.000228499 0)
(1.15865 -0.000226435 3.13282e-29)
(1.16 0.000700238 -2.39933e-12)
(1.15994 0.000233159 2.4251e-12)
(0.764653 0.0216815 0)
(0.789986 0.0228016 0)
(0.81618 0.0236509 0)
(0.84285 0.0242299 0)
(0.869628 0.024548 0)
(0.896167 0.0246206 0)
(0.922146 0.024467 0)
(0.947283 0.0241093 0)
(0.97133 0.0235721 0)
(0.994084 0.0228814 0)
(1.01538 0.0220636 0)
(1.03511 0.021145 0)
(1.05319 0.0201509 0)
(1.06959 0.019105 0)
(1.08429 0.0180287 0)
(1.09735 0.0169411 0)
(1.10881 0.0158586 0)
(1.11875 0.0147946 0)
(1.12728 0.0137599 0)
(1.13451 0.0127625 0)
(1.14054 0.0118078 0)
(1.14551 0.0108993 0)
(1.14954 0.0100382 0)
(1.15274 0.00922447 0)
(1.15523 0.00845654 2.04184e-12)
(1.15711 0.00773199 -2.04184e-12)
(1.15849 0.0070477 0)
(1.15945 0.00640009 0)
(1.16008 0.00578538 0)
(1.16044 0.00519973 0)
(1.1606 0.00463937 2.18423e-12)
(1.16061 0.00410073 -2.18423e-12)
(1.16052 0.00358045 0)
(1.16037 0.0030755 0)
(1.16018 0.00258309 0)
(1.15999 0.00210074 0)
(1.15981 0.00162624 -1.43307e-28)
(1.15967 0.00115758 1.43307e-28)
(1.15956 0.000692977 -2.26226e-12)
(1.15951 0.000230735 2.28656e-12)
(0.765837 0.0213895 0)
(0.790913 0.0225023 0)
(0.816851 0.0233481 0)
(0.843273 0.0239276 0)
(0.869815 0.0242499 8.8024e-30)
(0.896133 0.02433 -8.8024e-30)
(0.921911 0.0241867 0)
(0.946868 0.0238416 0)
(0.97076 0.0233187 0)
(0.993382 0.0226434 0)
(1.01458 0.0218418 1.36876e-12)
(1.03422 0.0209397 -1.36876e-12)
(1.05224 0.0199619 0)
(1.06859 0.0189318 0)
(1.08328 0.0178705 0)
(1.09633 0.016797 0)
(1.10781 0.0157274 0)
(1.11777 0.0146751 0)
(1.12633 0.0136509 -1.18789e-28)
(1.13359 0.0126629 1.18789e-28)
(1.13967 0.0117165 0)
(1.14468 0.0108153 0)
(1.14875 0.00996078 0)
(1.152 0.00915284 0)
(1.15453 0.00839016 1.91832e-12)
(1.15645 0.00767041 -1.91832e-12)
(1.15786 0.00699059 0)
(1.15886 0.00634722 0)
(1.15951 0.00573661 0)
(1.1599 0.00515498 0)
(1.16008 0.00459864 2.05322e-12)
(1.16011 0.00406402 -2.05322e-12)
(1.16004 0.00354783 0)
(1.1599 0.00304702 0)
(1.15972 0.00255883 0)
(1.15954 0.00208078 0)
(1.15937 0.00161064 0)
(1.15923 0.0011464 0)
(1.15913 0.000686248 0)
(1.15908 0.000228489 0)
(0.767012 0.0211042 -4.18695e-29)
(0.791834 0.0222099 -4.09933e-29)
(0.81752 0.0230524 0)
(0.843698 0.0236325 0)
(0.870007 0.0239591 0)
(0.896107 0.0240467 -5.75812e-29)
(0.921687 0.0239137 5.98181e-29)
(0.946466 0.023581 0)
(0.970203 0.0230724 2.68346e-30)
(0.992695 0.0224125 -2.68346e-30)
(1.01378 0.0216271 1.27339e-12)
(1.03334 0.0207413 -1.27339e-12)
(1.0513 0.0197797 0)
(1.06762 0.0187652 0)
(1.08229 0.0177188 0)
(1.09533 0.0166592 0)
(1.10681 0.0156024 0)
(1.1168 0.0145617 0)
(1.12539 0.0135479 0)
(1.13269 0.0125691 0)
(1.13881 0.0116309 0)
(1.14386 0.0107369 0)
(1.14797 0.00988874 0)
(1.15126 0.00908642 0)
(1.15383 0.00832877 1.79679e-12)
(1.15579 0.00761359 -1.79679e-12)
(1.15724 0.00693798 0)
(1.15827 0.00629858 0)
(1.15896 0.00569179 -1.11526e-28)
(1.15937 0.00511388 1.11526e-28)
(1.15957 0.00456123 0)
(1.15962 0.00403032 0)
(1.15956 0.00351788 0)
(1.15944 0.00302088 2.96226e-29)
(1.15927 0.00253656 8.44935e-29)
(1.1591 0.00206244 0)
(1.15893 0.0015963 0)
(1.1588 0.00113612 0)
(1.1587 0.000680063 -1.42131e-30)
(1.15865 0.000226425 -3.13279e-29)
(0.748422 0.0207313 7.8205e-23)
(0.749771 0.0204476 -9.08913e-24)
(0.751108 0.0201703 -2.18434e-23)
(0.738704 0.0204804 1.65471e-22)
(0.740149 0.0201953 -5.13943e-23)
(0.741579 0.0199166 -2.34541e-23)
(0.742996 0.0196442 -5.56847e-23)
(0.730502 0.0199004 1.01735e-22)
(0.732031 0.0196212 -7.70029e-23)
(0.733544 0.0193483 1.55233e-23)
(0.735042 0.0190815 8.16749e-23)
(0.722477 0.0192828 1.37389e-22)
(0.724091 0.0190101 3.43241e-23)
(0.725688 0.0187437 -1.5128e-22)
(0.727268 0.0184831 -2.22047e-24)
(0.714652 0.0186271 -1.4023e-22)
(0.716351 0.0183618 2.64258e-22)
(0.718032 0.0181024 -1.51735e-22)
(0.707048 0.0179338 1.2061e-22)
(0.708833 0.0176765 -2.08935e-22)
(0.710597 0.017425 1.59926e-22)
(0.699689 0.0172035 3.42119e-23)
(0.701559 0.016955 -3.52136e-23)
(0.703405 0.0167121 -6.59665e-23)
(0.692597 0.0164371 1.57777e-22)
(0.694549 0.0161982 -9.0244e-23)
(0.696478 0.0159646 -1.64987e-23)
(0.685792 0.0156357 -1.65064e-22)
(0.687826 0.015407 1.27962e-22)
(0.689835 0.0151835 -6.34928e-23)
(0.679297 0.0148004 -1.67784e-22)
(0.68141 0.0145827 -7.31965e-23)
(0.683497 0.0143699 1.0755e-22)
(0.673131 0.0139327 -1.35959e-22)
(0.675322 0.0137267 4.60157e-23)
(0.677483 0.0135252 -6.14382e-24)
(0.667315 0.0130339 5.20706e-23)
(0.669579 0.0128402 2.28842e-24)
(0.671813 0.0126508 -1.81364e-23)
(0.661868 0.0121058 -7.32164e-23)
(0.664201 0.0119251 -7.33873e-23)
(0.666504 0.0117483 6.94067e-23)
(0.656806 0.0111502 4.01571e-23)
(0.659206 0.010983 -3.78756e-23)
(0.661573 0.0108195 4.44335e-23)
(0.652148 0.0101689 -1.60893e-23)
(0.654609 0.0100158 3.44431e-24)
(0.657036 0.00986612 3.46377e-24)
(0.647908 0.00916405 1.66499e-23)
(0.650426 0.0090256 -2.86653e-23)
(0.652908 0.0088902 -7.65552e-23)
(0.644102 0.00813775 -8.64664e-23)
(0.646671 0.00801442 1.90453e-23)
(0.649204 0.00789379 -2.51775e-24)
(0.640743 0.00709229 2.51428e-23)
(0.643357 0.0069845 -4.51755e-23)
(0.645934 0.00687907 3.01661e-23)
(0.637841 0.00603002 -3.11583e-23)
(0.640494 0.00593815 1.98587e-23)
(0.64311 0.00584829 -2.05887e-23)
(0.635407 0.00495339 -1.80381e-23)
(0.638094 0.00487776 -4.62689e-23)
(0.640743 0.0048038 -1.09421e-23)
(0.633449 0.00386491 5.17493e-24)
(0.636163 0.00380579 3.209e-23)
(0.638839 0.00374798 3.85639e-24)
(0.631975 0.00276715 -2.23387e-23)
(0.63471 0.00272476 -8.03481e-24)
(0.637405 0.00268331 -3.52987e-24)
(0.630989 0.00166272 -1.11384e-23)
(0.633738 0.00163722 1.89445e-24)
(0.636447 0.00161227 1.41566e-23)
(0.630496 0.000554292 6.44534e-25)
(0.633251 0.000545755 -1.03699e-24)
(0.635966 0.000537407 1.97022e-24)
)
;

boundaryField
{
    inlet
    {
        type            uniformFixedValue;
        uniformValue    constant (1 0 0);
        value           nonuniform 0();
    }
    outlet
    {
        type            pressureInletOutletVelocity;
        value           nonuniform 0();
    }
    cylinder
    {
        type            fixedValue;
        value           nonuniform 0();
    }
    top
    {
        type            symmetryPlane;
    }
    bottom
    {
        type            symmetryPlane;
    }
    defaultFaces
    {
        type            empty;
    }
    procBoundary58to57
    {
        type            processor;
        value           nonuniform List<vector> 
131
(
(0.6277 -0.000564132 2.25449e-24)
(0.628201 -0.00168992 -1.2897e-24)
(0.6292 -0.0028116 1.72477e-23)
(0.630695 -0.00392647 -4.60432e-24)
(0.632681 -0.00503184 2.58394e-23)
(0.635149 -0.00612509 2.23013e-23)
(0.638091 -0.00720364 4.60913e-23)
(0.641497 -0.008265 1.172e-22)
(0.645356 -0.00930676 4.26371e-24)
(0.649653 -0.0103266 1.16512e-22)
(0.654374 -0.0113223 -2.52937e-23)
(0.659502 -0.0122918 8.13e-23)
(0.665021 -0.0132332 7.13551e-23)
(0.670913 -0.0141445 7.09102e-23)
(0.677156 -0.0150242 1.70844e-24)
(0.683733 -0.0158707 1.65733e-22)
(0.69062 -0.0166826 -2.1533e-22)
(0.697798 -0.0174587 1.98271e-24)
(0.705243 -0.0181981 -1.06785e-22)
(0.712933 -0.0188997 -2.26533e-24)
(0.720846 -0.0195629 -7.63566e-23)
(0.728958 -0.0201873 -1.18923e-22)
(0.737246 -0.0207734 -2.85313e-23)
(0.747062 -0.0210228 -3.43313e-23)
(0.747062 -0.0210228 -3.43313e-23)
(0.763461 -0.0219814 0)
(0.789055 -0.0231091 0)
(0.815508 -0.023962 0)
(0.84243 -0.0245406 0)
(0.869448 -0.0248545 0)
(0.89621 -0.0249197 0)
(0.922393 -0.0247557 8.74491e-29)
(0.947711 -0.0243854 -8.74491e-29)
(0.971916 -0.0238338 -3.32237e-30)
(0.994802 -0.0231273 3.32237e-30)
(1.01621 -0.0222931 0)
(1.03602 -0.0213579 0)
(1.05416 -0.0203474 0)
(1.07059 -0.0192854 0)
(1.08532 -0.018194 0)
(1.09838 -0.0170922 0)
(1.10982 -0.0159967 3.71106e-12)
(1.11975 -0.0149208 -3.71106e-12)
(1.12824 -0.0138754 -1.14781e-28)
(1.13543 -0.0128684 1.14781e-28)
(1.14142 -0.0119052 0)
(1.14635 -0.0109891 0)
(1.15033 -0.0101214 0)
(1.15348 -0.00930158 0)
(1.15593 -0.00852817 0)
(1.15777 -0.00779856 0)
(1.15912 -0.00710953 0)
(1.16005 -0.00645739 0)
(1.16064 -0.00583827 0)
(1.16098 -0.00524827 0)
(1.16112 -0.00468357 0)
(1.16111 -0.00414055 0)
(1.161 -0.00361584 0)
(1.16084 -0.00310638 0)
(1.16064 -0.00260938 0)
(1.16044 -0.00212238 0)
(1.16026 -0.00164314 0)
(1.16011 -0.0011697 0)
(1.16 -0.000700267 -1.41662e-28)
(1.15994 -0.000233169 1.43183e-28)
(1.16044 0.00070802 -2.53831e-12)
(1.16039 0.000235756 2.56557e-12)
(0.76346 0.0219804 0)
(0.789054 0.0231081 0)
(0.815507 0.023961 0)
(0.84243 0.0245397 0)
(0.869447 0.0248536 0)
(0.896209 0.0249188 0)
(0.922392 0.0247548 0)
(0.94771 0.0243845 0)
(0.971915 0.0238329 0)
(0.994802 0.0231265 0)
(1.01621 0.0222924 0)
(1.03602 0.0213572 0)
(1.05416 0.0203466 0)
(1.07059 0.0192847 0)
(1.08532 0.0181933 -1.7618e-12)
(1.09838 0.0170916 1.7618e-12)
(1.10982 0.0159961 1.85549e-12)
(1.11975 0.0149203 -1.85549e-12)
(1.12824 0.0138749 -1.94403e-12)
(1.13543 0.0128679 1.94403e-12)
(1.14142 0.0119048 0)
(1.14635 0.0109887 0)
(1.15033 0.010121 0)
(1.15348 0.0093012 0)
(1.15593 0.00852782 2.16744e-12)
(1.15777 0.00779824 -2.16744e-12)
(1.15912 0.00710923 0)
(1.16005 0.00645711 0)
(1.16064 0.00583802 0)
(1.16098 0.00524805 0)
(1.16112 0.00468337 0)
(1.16111 0.00414037 0)
(1.161 0.00361569 0)
(1.16084 0.00310625 0)
(1.16064 0.00260927 0)
(1.16044 0.00212229 0)
(1.16026 0.00164308 0)
(1.16011 0.00116965 0)
(1.16011 0.00116965 0)
(0.747061 0.0210217 3.43299e-23)
(0.747061 0.0210217 3.43299e-23)
(0.737245 0.0207724 -3.002e-24)
(0.728957 0.0201862 1.16134e-22)
(0.720845 0.0195619 9.70411e-23)
(0.712933 0.0188987 8.06477e-24)
(0.705242 0.018197 1.86806e-22)
(0.697797 0.0174577 -3.83054e-23)
(0.69062 0.0166815 1.13868e-22)
(0.683732 0.0158696 -1.21204e-22)
(0.677156 0.0150231 -3.80797e-23)
(0.670912 0.0141434 -5.57738e-23)
(0.665021 0.0132321 -9.48611e-23)
(0.659502 0.0122907 -8.4327e-23)
(0.654373 0.0113212 4.74294e-23)
(0.649652 0.0103255 -6.7201e-23)
(0.645355 0.00930566 -6.88608e-23)
(0.641497 0.00826391 -7.62028e-23)
(0.638091 0.00720254 -3.79884e-23)
(0.635148 0.00612399 -5.21001e-23)
(0.63268 0.00503074 -2.94544e-23)
(0.630695 0.00392537 1.36509e-23)
(0.6292 0.0028105 -1.47257e-23)
(0.628201 0.00168881 1.32787e-23)
(0.6277 0.000563026 -4.83433e-24)
)
;
    }
    procBoundary58to59
    {
        type            processor;
        value           nonuniform List<vector> 
130
(
(0.638643 -0.00053063 -7.80718e-24)
(0.639117 -0.00158925 -8.08729e-24)
(0.640062 -0.00264413 -1.27371e-23)
(0.641476 -0.00369279 1.4199e-24)
(0.643355 -0.0047328 1.71525e-23)
(0.64569 -0.00576175 2.49119e-23)
(0.648475 -0.00677729 3.74593e-23)
(0.651701 -0.00777714 -5.85691e-23)
(0.655357 -0.00875908 2.28082e-23)
(0.65943 -0.009721 1.43657e-23)
(0.663908 -0.0106609 1.23135e-23)
(0.668776 -0.0115767 -3.02955e-23)
(0.674018 -0.0124668 -6.59038e-23)
(0.679618 -0.0133294 6.51443e-23)
(0.685557 -0.014163 -8.68273e-23)
(0.691819 -0.0149661 2.59614e-23)
(0.698384 -0.0157374 -7.29749e-23)
(0.705231 -0.0164758 -6.47623e-23)
(0.712342 -0.0171803 -8.14849e-24)
(0.719695 -0.0178501 1.48096e-23)
(0.719695 -0.0178501 1.48096e-23)
(0.728832 -0.0182294 8.09529e-23)
(0.736526 -0.0188218 -6.10568e-24)
(0.744401 -0.019379 5.31882e-23)
(0.752435 -0.0199003 6.15002e-23)
(0.768179 -0.0208264 4.1872e-29)
(0.792751 -0.0219252 4.0995e-29)
(0.81819 -0.0227646 0)
(0.844126 -0.0233455 0)
(0.870205 -0.0236764 0)
(0.896091 -0.0237716 5.75835e-29)
(0.921474 -0.0236488 -5.98203e-29)
(0.946077 -0.0233286 0)
(0.969661 -0.022834 -1.19673e-29)
(0.992023 -0.0221895 1.19673e-29)
(1.013 -0.0214201 -2.40463e-29)
(1.03248 -0.0205505 2.40463e-29)
(1.05038 -0.019605 0)
(1.06666 -0.018606 0)
(1.0813 -0.0175744 0)
(1.09434 -0.0165285 0)
(1.10583 -0.0154843 -2.89943e-29)
(1.11584 -0.0144552 2.89943e-29)
(1.12446 -0.0134516 -6.31226e-29)
(1.13179 -0.0124819 6.31226e-29)
(1.13795 -0.0115517 0)
(1.14304 -0.0106647 0)
(1.1472 -0.00982263 0)
(1.15053 -0.0090257 0)
(1.15314 -0.00827283 -3.417e-29)
(1.15514 -0.00756195 3.417e-29)
(1.15663 -0.00689027 0)
(1.15769 -0.00625455 0)
(1.1584 -0.00565124 7.44159e-29)
(1.15884 -0.00507673 -7.44159e-29)
(1.15906 -0.00452743 0)
(1.15913 -0.00399987 0)
(1.15909 -0.00349081 0)
(1.15898 -0.00299723 -2.96229e-29)
(1.15882 -0.00251641 -8.44943e-29)
(1.15866 -0.00204585 0)
(1.1585 -0.00158333 0)
(1.15837 -0.00112681 0)
(1.15827 -0.000674464 1.95443e-28)
(1.15822 -0.000224555 -1.64778e-28)
(0.768178 0.0208252 -4.18702e-29)
(0.79275 0.0219241 -4.09933e-29)
(0.818189 0.0227635 0)
(0.844126 0.0233444 0)
(0.870205 0.0236754 -1.02508e-29)
(0.89609 0.0237706 -4.73304e-29)
(0.921473 0.0236478 5.98181e-29)
(0.946077 0.0233276 0)
(0.969661 0.0228331 0)
(0.992023 0.0221887 0)
(1.013 0.0214192 1.18026e-12)
(1.03248 0.0205498 -1.18026e-12)
(1.05038 0.0196042 0)
(1.06666 0.0186053 0)
(1.0813 0.0175737 1.46766e-29)
(1.09434 0.0165279 -1.46766e-29)
(1.10583 0.0154837 0)
(1.11584 0.0144546 0)
(1.12446 0.0134511 6.31215e-29)
(1.13179 0.0124814 -6.31215e-29)
(1.13795 0.0115512 0)
(1.14304 0.0106643 0)
(1.1472 0.00982222 0)
(1.15053 0.00902533 0)
(1.15314 0.00827248 1.67718e-12)
(1.15514 0.00756163 -1.67718e-12)
(1.15663 0.00688998 0)
(1.15769 0.00625428 0)
(1.1584 0.005651 0)
(1.15884 0.00507651 0)
(1.15906 0.00452723 1.79658e-12)
(1.15913 0.0039997 -1.79658e-12)
(1.15909 0.00349066 0)
(1.15898 0.0029971 2.96226e-29)
(1.15882 0.0025163 8.44935e-29)
(1.15866 0.00204576 0)
(1.1585 0.00158326 0)
(1.15837 0.00112676 0)
(1.15827 0.000674435 -8.5532e-29)
(1.15822 0.000224546 5.36861e-29)
(0.752434 0.0198991 -4.35543e-23)
(0.7444 0.0193778 -5.57459e-23)
(0.736526 0.0188205 1.85121e-23)
(0.728831 0.0182282 -1.02149e-22)
(0.719694 0.0178488 1.32821e-23)
(0.719694 0.0178488 1.32821e-23)
(0.712341 0.0171791 -2.73829e-24)
(0.705231 0.0164746 6.89681e-23)
(0.698383 0.0157361 8.12877e-24)
(0.691819 0.0149648 2.05015e-23)
(0.685557 0.0141617 5.86441e-23)
(0.679617 0.0133281 -4.79333e-23)
(0.674017 0.0124655 7.46896e-23)
(0.668775 0.0115754 -1.09069e-24)
(0.663908 0.0106595 3.25286e-24)
(0.65943 0.00971964 1.61246e-23)
(0.655357 0.00875772 -3.48726e-23)
(0.651701 0.00777577 5.81594e-23)
(0.648475 0.00677591 -2.77138e-23)
(0.64569 0.00576037 -3.61761e-23)
(0.643354 0.00473142 -2.884e-24)
(0.641476 0.00369141 -1.43124e-23)
(0.640062 0.00264274 1.11655e-23)
(0.639117 0.00158786 1.15678e-23)
(0.638643 0.000529239 2.99806e-24)
)
;
    }
}


// ************************************************************************* //
