/*--------------------------------*- C++ -*----------------------------------*\
  =========                 |
  \\      /  F ield         | OpenFOAM: The Open Source CFD Toolbox
   \\    /   O peration     | Website:  https://openfoam.org
    \\  /    A nd           | Version:  7
     \\/     M anipulation  |
\*---------------------------------------------------------------------------*/
FoamFile
{
    version     2.0;
    format      ascii;
    class       volScalarField;
    location    "30";
    object      p;
}
// * * * * * * * * * * * * * * * * * * * * * * * * * * * * * * * * * * * * * //

dimensions      [0 2 -2 0 0 0 0];

internalField   nonuniform List<scalar> 
392
(
-0.000330403
-9.32663e-05
0.000171453
-0.00033199
-9.48983e-05
0.000169732
-0.000335163
-9.816e-05
0.000166291
-0.000339917
-0.000103044
0.000161141
0.000333027
-0.000346244
-0.000109538
0.000154294
0.000325951
-0.000354132
-0.000117629
0.000145769
0.000317159
-0.000363569
-0.000127296
0.000135585
0.000306685
-0.000138518
0.000123769
0.000294571
-0.00015127
0.000110348
0.000280866
-0.000165522
9.53533e-05
0.000265626
-0.000181243
7.88189e-05
0.000248914
-0.000198398
6.07802e-05
0.000230801
-0.000216949
4.12741e-05
0.000211366
-0.000236857
2.03381e-05
0.000190697
-0.000258078
-1.99017e-06
0.000168893
-0.00028057
-2.56735e-05
0.000146066
-0.000304286
-5.06764e-05
0.000122339
-0.000329183
-7.69657e-05
9.78532e-05
-0.000355211
-0.000104506
7.277e-05
-0.000382311
-0.000133256
4.72705e-05
-0.00041046
-0.000163194
2.15239e-05
-0.000439818
-0.000194423
-4.31586e-06
-0.000470466
-0.000227072
-2.96536e-05
-0.000500615
-0.000260051
-5.25699e-05
-0.000553988
-0.00031944
-9.67533e-05
-0.000648045
-0.000415142
-0.00019083
-0.000747201
-0.000515321
-0.000292375
-0.000850592
-0.000619133
-0.000397136
-0.000957352
-0.000725401
-0.000503428
-0.00106612
-0.000832673
-0.000609638
-0.0011756
-0.000939603
-0.000714312
-0.00128462
-0.00104498
-0.000816207
-0.00139209
-0.00114773
-0.000914254
-0.00149703
-0.0012469
-0.00100756
-0.0015986
-0.00134171
-0.00109539
-0.00169609
-0.00143154
-0.00117724
-0.00178896
-0.00151593
-0.00125276
-0.00187679
-0.00159461
-0.00132178
-0.00195933
-0.00166742
-0.00138432
-0.00203646
-0.00173437
-0.00144052
-0.00210815
-0.00179559
-0.00149065
-0.00217449
-0.00185129
-0.00153507
-0.00223567
-0.00190175
-0.00157422
-0.00229189
-0.00194733
-0.00160856
-0.00234343
-0.0019884
-0.00163858
-0.00239058
-0.00202534
-0.00166478
-0.00243364
-0.00205854
-0.00168763
-0.00247292
-0.00208837
-0.00170757
-0.0025087
-0.00211518
-0.001725
-0.00254125
-0.00213927
-0.00174029
-0.00257082
-0.00216093
-0.00175373
-0.00259762
-0.00218039
-0.0017656
-0.00262183
-0.00219785
-0.00177611
-0.00264363
-0.0022135
-0.00178542
-0.00266314
-0.00222745
-0.00179368
-0.00268048
-0.00223983
-0.00180098
-0.00269573
-0.0022507
-0.00180738
-0.00270897
-0.00226013
-0.00181295
-0.00272024
-0.00226817
-0.0018177
-0.00272958
-0.00227484
-0.00182166
-0.00273704
-0.00228017
-0.00182484
-0.00274263
-0.00228417
-0.00182723
-0.00274637
-0.00228688
-0.00182892
-0.00274825
-0.00228828
-0.00182989
-0.000554044
-0.000648102
-0.00074726
-0.000850652
-0.000957412
-0.00106618
-0.00117566
-0.00128468
-0.00139214
-0.00149708
-0.00159865
-0.00169614
-0.001789
-0.00187684
-0.00195938
-0.0020365
-0.00210819
-0.00217453
-0.0022357
-0.00229192
-0.00234346
-0.00239061
-0.00243367
-0.00247295
-0.00250873
-0.00254128
-0.00257084
-0.00259764
-0.00262186
-0.00264365
-0.00266317
-0.0026805
-0.00269575
-0.00270899
-0.00272026
-0.0027296
-0.00273706
-0.00274265
-0.00274639
-0.00274827
-0.000319488
-0.000415192
-0.000515372
-0.000619185
-0.000725453
-0.000832724
-0.000939654
-0.00104503
-0.00114778
-0.00124694
-0.00134175
-0.00143158
-0.00151597
-0.00159465
-0.00166746
-0.00173441
-0.00179563
-0.00185132
-0.00190178
-0.00194736
-0.00198843
-0.00202537
-0.00205857
-0.0020884
-0.0021152
-0.00213929
-0.00216095
-0.00218041
-0.00219787
-0.00221352
-0.00222747
-0.00223984
-0.00225071
-0.00226015
-0.00226818
-0.00227485
-0.00228018
-0.00228419
-0.0022869
-0.0022883
-9.67934e-05
-0.000190871
-0.000292418
-0.00039718
-0.000503472
-0.000609681
-0.000714354
-0.000816248
-0.000914294
-0.00100759
-0.00109543
-0.00117728
-0.00125279
-0.00132181
-0.00138435
-0.00144055
-0.00149068
-0.0015351
-0.00157424
-0.00160858
-0.0016386
-0.0016648
-0.00168765
-0.00170759
-0.00172502
-0.00174031
-0.00175375
-0.00176562
-0.00177613
-0.00178544
-0.0017937
-0.00180099
-0.0018074
-0.00181296
-0.00181772
-0.00182168
-0.00182485
-0.00182724
-0.00182893
-0.0018299
-0.000500667
-0.000260097
-5.2608e-05
-0.000470518
-0.000227117
-2.96906e-05
-0.000439868
-0.000194466
-4.35184e-06
-0.000410509
-0.000163236
2.14888e-05
-0.000382358
-0.000133298
4.72364e-05
-0.000355257
-0.000104546
7.27371e-05
-0.000329227
-7.70042e-05
9.78216e-05
-0.000304328
-5.07133e-05
0.000122309
-0.00028061
-2.57085e-05
0.000146037
-0.000258116
-2.02322e-06
0.000168866
-0.000236892
2.03069e-05
0.000190671
-0.000216982
4.12449e-05
0.000211341
-0.000198429
6.07531e-05
0.000230778
-0.000181272
7.87939e-05
0.000248893
-0.000165548
9.53305e-05
0.000265607
-0.000387049
-0.000151293
0.000110327
0.000280849
-0.000374562
-0.000138539
0.000123751
0.000294556
-0.000363589
-0.000127314
0.000135569
0.000306671
-0.00035415
-0.000117645
0.000145755
0.000317147
-0.000346259
-0.000109552
0.000154283
-0.000339929
-0.000103054
0.000161132
-0.000335172
-9.81674e-05
0.000166285
-0.000331995
-9.49027e-05
0.000169727
-0.000330405
-9.32678e-05
0.000171452
)
;

boundaryField
{
    inlet
    {
        type            zeroGradient;
    }
    outlet
    {
        type            fixedValue;
        value           nonuniform 0();
    }
    cylinder
    {
        type            zeroGradient;
    }
    top
    {
        type            symmetryPlane;
    }
    bottom
    {
        type            symmetryPlane;
    }
    defaultFaces
    {
        type            empty;
    }
    procBoundary62to61
    {
        type            processor;
        value           nonuniform List<scalar> 
130
(
-0.000578542
-0.000580111
-0.000583247
-0.000587948
-0.000594206
-0.000602012
-0.000611356
-0.000374539
-0.000374539
-0.000387023
-0.000401001
-0.000416453
-0.000433354
-0.000451679
-0.000471401
-0.000492495
-0.000514931
-0.000538683
-0.000563724
-0.00059002
-0.000617526
-0.00064623
-0.000676335
-0.000707999
-0.000739211
-0.000793177
-0.000887551
-0.000986761
-0.0010906
-0.00119851
-0.00130927
-0.00142163
-0.00153448
-0.00164672
-0.00175737
-0.00186551
-0.00197039
-0.00207138
-0.00216795
-0.00225975
-0.00234654
-0.00242818
-0.00250465
-0.00257599
-0.00264233
-0.00270385
-0.00276074
-0.00281323
-0.00286156
-0.00290596
-0.00294665
-0.00298385
-0.00301775
-0.00304851
-0.00307629
-0.00310122
-0.0031234
-0.00314294
-0.0031599
-0.00317435
-0.00318633
-0.00319588
-0.00320303
-0.0032078
-0.00321018
-0.00079324
-0.000887616
-0.000986828
-0.00109066
-0.00119858
-0.00130933
-0.0014217
-0.00153455
-0.00164679
-0.00175743
-0.00186557
-0.00197045
-0.00207143
-0.002168
-0.0022598
-0.00234659
-0.00242823
-0.00250469
-0.00257603
-0.00264237
-0.00270388
-0.00276077
-0.00281327
-0.00286159
-0.00290599
-0.00294668
-0.00298388
-0.00301777
-0.00304853
-0.00307631
-0.00310124
-0.00312343
-0.00314296
-0.00315992
-0.00317437
-0.00318635
-0.0031959
-0.00320305
-0.00320782
-0.0032102
-0.00073927
-0.000708057
-0.000676391
-0.000646285
-0.000617579
-0.000590072
-0.000563773
-0.00053873
-0.000514976
-0.000492537
-0.000471441
-0.000451716
-0.000433389
-0.000416485
-0.000401031
-0.000401031
-0.000634631
-0.00062225
-0.000611379
-0.000602032
-0.000594222
-0.000587961
-0.000583257
-0.000580116
-0.000578544
)
;
    }
    procBoundary62to63
    {
        type            processor;
        value           nonuniform List<scalar> 
130
(
0.000343709
0.000341924
0.000338359
0.000338359
0.000799214
0.000790294
0.000779202
0.000765973
0.000750651
0.00073328
0.000713911
0.000692592
0.000669372
0.000644294
0.000617394
0.000588695
0.000558202
0.000525894
0.000491716
0.000455579
0.00041736
0.000376871
0.000333631
0.000286064
0.000231583
0.000133837
2.47843e-05
-8.19553e-05
-0.000188196
-0.000294151
-0.000398691
-0.000500418
-0.000598135
-0.000690821
-0.000777627
-0.000857903
-0.000931207
-0.000997306
-0.00105616
-0.00110791
-0.00115285
-0.00119139
-0.00122404
-0.00125138
-0.00127401
-0.00129254
-0.00130756
-0.00131966
-0.00132934
-0.00133708
-0.00134327
-0.00134825
-0.00135232
-0.00135569
-0.00135853
-0.00136098
-0.00136312
-0.001365
-0.00136666
-0.0013681
-0.00136932
-0.00137031
-0.00137103
-0.00137159
-0.00137234
0.000133805
2.47506e-05
-8.19898e-05
-0.000188231
-0.000294186
-0.000398726
-0.000500452
-0.000598168
-0.000690853
-0.000777657
-0.000857932
-0.000931236
-0.000997334
-0.00105619
-0.00110794
-0.00115287
-0.00119141
-0.00122407
-0.0012514
-0.00127403
-0.00129255
-0.00130758
-0.00131968
-0.00132936
-0.00133709
-0.00134328
-0.00134827
-0.00135233
-0.0013557
-0.00135855
-0.001361
-0.00136313
-0.00136501
-0.00136667
-0.00136811
-0.00136933
-0.00137033
-0.00137104
-0.0013716
-0.00137236
0.000231551
0.000286033
0.000333601
0.000376841
0.000417331
0.000455551
0.000491689
0.000525868
0.000558178
0.000588672
0.000617372
0.000644273
0.000669352
0.000692574
0.000713895
0.000733266
0.000750638
0.000765962
0.000779192
0.000325942
0.000325942
0.00033302
0.000338353
0.00034192
0.000343708
)
;
    }
}


// ************************************************************************* //
