/*--------------------------------*- C++ -*----------------------------------*\
  =========                 |
  \\      /  F ield         | OpenFOAM: The Open Source CFD Toolbox
   \\    /   O peration     | Website:  https://openfoam.org
    \\  /    A nd           | Version:  7
     \\/     M anipulation  |
\*---------------------------------------------------------------------------*/
FoamFile
{
    version     2.0;
    format      ascii;
    class       surfaceScalarField;
    location    "45";
    object      phi;
}
// * * * * * * * * * * * * * * * * * * * * * * * * * * * * * * * * * * * * * //

dimensions      [0 3 -1 0 0 0 0];

internalField   nonuniform List<scalar> 
17388
(
-3.41168e-06
3.33636e-06
7.53204e-08
-1.23673e-05
8.77664e-06
1.78957e-07
-2.59936e-05
1.33793e-05
2.47051e-07
-4.35081e-05
1.72294e-05
2.85093e-07
-6.42033e-05
2.03969e-05
2.98359e-07
-8.74401e-05
2.29452e-05
2.91604e-07
-0.000112638
2.49292e-05
2.68787e-07
-0.000139265
2.63945e-05
2.32884e-07
-0.000166829
2.73782e-05
1.85815e-07
-0.000194869
2.79112e-05
1.28486e-07
-0.000222952
2.80223e-05
6.0929e-08
-0.00025068
2.77451e-05
-1.74902e-08
-0.000277702
2.71293e-05
-1.07832e-07
-0.000303745
2.62549e-05
-2.11366e-07
-0.000328665
2.52494e-05
-3.29404e-07
-0.000352508
2.43061e-05
-4.63237e-07
-0.000375592
2.36978e-05
-6.14183e-07
-0.000398586
2.37785e-05
-7.83792e-07
-0.000422568
2.49554e-05
-9.74118e-07
-0.000449019
2.76398e-05
-1.18811e-06
3.2257e-05
-1.43073e-06
-0.000479846
-3.36921e-06
6.70557e-06
-1.2218e-05
1.76255e-05
-2.56866e-05
2.68479e-05
-4.30026e-05
3.45454e-05
-6.3467e-05
4.08612e-05
-8.6447e-05
4.59252e-05
-0.000111367
4.98495e-05
-0.0001377
5.27271e-05
-0.000164955
5.46328e-05
-0.00019267
5.5627e-05
-0.000220411
5.57632e-05
-0.000247769
5.51025e-05
-0.000274374
5.37343e-05
-0.000299924
5.18054e-05
-0.00032423
4.95549e-05
-0.000347276
4.73525e-05
-0.000369309
4.5731e-05
-0.000390928
4.53973e-05
-0.000413156
4.71839e-05
-0.000437471
5.19541e-05
6.06205e-05
-0.000465834
-3.28507e-06
9.99064e-06
-1.19222e-05
2.62626e-05
-2.50774e-05
4.00031e-05
-4.19987e-05
5.14666e-05
-6.20027e-05
6.08652e-05
-8.44693e-05
6.83918e-05
-0.000108833
7.42134e-05
-0.000134574
7.84678e-05
-0.000161206
8.12648e-05
-0.000188269
8.269e-05
-0.000215321
8.28152e-05
-0.000241936
8.17179e-05
-0.000267713
7.95107e-05
-0.000292291
7.63841e-05
-0.000315396
7.26594e-05
-0.000336894
6.88509e-05
-0.000356889
6.57256e-05
-0.000375829
6.43379e-05
-0.000394626
6.59812e-05
-0.000414726
7.20532e-05
8.40934e-05
-0.000438198
-3.1611e-06
1.31517e-05
-1.14855e-05
3.4587e-05
-2.41763e-05
5.26939e-05
-4.05099e-05
6.78003e-05
-5.98256e-05
8.01809e-05
-8.15206e-05
9.00868e-05
-0.000105043
9.77361e-05
-0.000129884
0.000103309
-0.000155565
0.000106945
-0.000181627
0.000108752
-0.000207622
0.00010881
-0.000233104
0.000107199
-0.000257626
0.000104033
-0.000280755
9.9513e-05
-0.000302096
9.40005e-05
-0.00032135
8.81045e-05
-0.000338404
8.27796e-05
-0.000353473
7.94075e-05
-0.000367272
7.978e-05
-0.00038116
8.59413e-05
0.000100271
-0.000397337
-3.00011e-06
1.61518e-05
-1.09168e-05
4.25036e-05
-2.2999e-05
6.47761e-05
-3.8558e-05
8.33594e-05
-5.69599e-05
9.85827e-05
-7.76227e-05
0.00011075
-0.000100011
0.000120125
-0.000123629
0.000126926
-0.000148006
0.000131323
-0.000172688
0.000133434
-0.000197221
0.000133344
-0.000221139
0.000131117
-0.000243949
0.000126843
-0.000265134
0.000120698
-0.000284162
0.000113029
-0.00030053
0.000104472
-0.000313848
9.60974e-05
-0.000324005
8.95645e-05
-0.000331409
8.71839e-05
-0.000337232
9.17645e-05
0.000106802
-0.000343763
-2.80601e-06
1.89579e-05
-1.02283e-05
4.99259e-05
-2.15675e-05
7.61153e-05
-3.61733e-05
9.79652e-05
-5.34405e-05
0.00011585
-7.2809e-05
0.000130118
-9.37604e-05
0.000141076
-0.000115811
0.000148977
-0.000138501
0.000154012
-0.00016138
0.000156313
-0.000183991
0.000155955
-0.000205851
0.000152976
-0.000226427
0.000147419
-0.000245121
0.000139392
-0.000261262
0.00012917
-0.000274126
0.000117335
-0.000283002
0.000104973
-0.000287368
9.39303e-05
-0.000287199
8.70149e-05
-0.000283327
8.78927e-05
0.000101463
-0.000277988
-2.58382e-06
2.15417e-05
-9.43579e-06
5.67779e-05
-1.99104e-05
8.65899e-05
-3.33958e-05
0.000111451
-4.93145e-05
0.000131769
-6.71264e-05
0.00014793
-8.63274e-05
0.000160277
-0.000106444
0.000169093
-0.000127024
0.000174592
-0.000147621
0.00017691
-0.000167775
0.00017611
-0.000186991
0.000172192
-0.000204704
0.000165132
-0.000220249
0.000154938
-0.000232832
0.000141754
-0.000241518
0.000126021
-0.000245265
0.00010872
-0.00024308
9.17458e-05
-0.000234392
7.83261e-05
-0.000219541
7.30425e-05
8.2273e-05
-0.000200352
-2.33975e-06
2.38814e-05
-8.55883e-06
6.29969e-05
-1.80634e-05
9.60945e-05
-3.02761e-05
0.000123663
-4.46429e-05
0.000146135
-6.06383e-05
0.000163925
-7.77669e-05
0.000177406
-9.55593e-05
0.000186886
-0.000113564
0.000192597
-0.000131333
0.000194679
-0.000148401
0.000193178
-0.000164262
0.000188053
-0.000178326
0.000179196
-0.000189881
0.000166493
-0.000198038
0.00014991
-0.000201685
0.000129668
-0.000199481
0.000106517
-0.000189956
8.2221e-05
-0.000171912
6.02822e-05
-0.000145235
4.63652e-05
4.78106e-05
-0.000110773
-2.0811e-06
2.59625e-05
-7.6203e-06
6.85361e-05
-1.60683e-05
0.000104543
-2.68748e-05
0.00013447
-3.95005e-05
0.000158761
-5.3426e-05
0.000177851
-6.81545e-05
0.000192134
-8.32103e-05
0.000201942
-9.8131e-05
0.000207517
-0.000112455
0.000209003
-0.000125702
0.000206425
-0.000137345
0.000199696
-0.000146774
0.000188625
-0.000153238
0.000172957
-0.000155783
0.000152456
-0.000153171
0.000127056
-0.000143815
9.71612e-05
-0.000125794
6.41997e-05
-9.70992e-05
3.15872e-05
-5.70195e-05
6.28553e-06
9.25739e-07
-1.01346e-05
-1.8161e-06
2.77786e-05
-6.6459e-06
7.33659e-05
-1.39728e-05
0.000111869
-2.32611e-05
0.000143758
-3.39745e-05
0.000169475
-4.5587e-05
0.000189463
-5.7587e-05
0.000204134
-6.94765e-05
0.000213831
-8.07651e-05
0.000218806
-9.09577e-05
0.000219195
-9.95375e-05
0.000215005
-0.00010594
0.000206098
-0.000109515
0.0001922
-0.000109474
0.000172916
-0.000104814
0.000147796
-9.4209e-05
0.00011645
-7.58798e-05
7.8832e-05
-4.74802e-05
3.58001e-05
-6.12579e-06
-9.76721e-06
5.0953e-05
-5.07933e-05
-6.97677e-05
0.000121646
-1.55351e-06
2.93321e-05
-5.66291e-06
7.74753e-05
-1.1827e-05
0.000118033
-1.95088e-05
0.00015144
-2.81595e-05
0.000178125
-3.72301e-05
0.000198534
-4.61765e-05
0.000213081
-5.44586e-05
0.000222113
-6.15339e-05
0.000225881
-6.68467e-05
0.000224508
-6.98118e-05
0.00021797
-6.97924e-05
0.000206079
-6.6067e-05
0.000188474
-5.77815e-05
0.000164631
-4.38793e-05
0.000133893
-2.29812e-05
9.55523e-05
6.78169e-06
4.9069e-05
4.80019e-05
-5.42007e-06
0.000104099
-6.58647e-05
0.000178917
-0.000125611
-0.000165751
0.000274901
-1.3021e-06
3.06342e-05
-4.69826e-06
8.08715e-05
-9.68058e-06
0.000123016
-1.56911e-05
0.000157451
-2.21494e-05
0.000184584
-2.84644e-05
0.000204849
-3.40384e-05
0.000218655
-3.82646e-05
0.000226339
-4.05196e-05
0.000228136
-4.01519e-05
0.00022414
-3.64666e-05
0.000214285
-2.87078e-05
0.00019832
-1.60292e-05
0.000175796
2.53876e-06
0.000146063
2.81537e-05
0.000108278
6.22392e-05
6.14669e-05
0.000106675
4.63309e-06
0.000164063
-6.28082e-05
0.000238094
-0.000139896
0.000333712
-0.000221229
-0.000288378
0.000456338
-1.06989e-06
3.17041e-05
-3.77606e-06
8.35777e-05
-7.57743e-06
0.000126817
-1.18718e-05
0.000161745
-1.60256e-05
0.000188737
-1.93835e-05
0.000208207
-2.12699e-05
0.000220541
-2.09834e-05
0.000226053
-1.77861e-05
0.000224939
-1.08909e-05
0.000217245
5.54341e-07
0.00020284
1.74876e-05
0.000181387
4.09427e-05
0.00015234
7.20821e-05
0.000114923
0.000112223
6.81381e-05
0.000162898
1.07915e-05
0.00022596
-5.84287e-05
0.000303872
-0.00014072
0.000400157
-0.000236181
0.000519963
-0.000341034
-0.000440715
0.0006723
-8.63216e-07
3.25674e-05
-2.91455e-06
8.5629e-05
-5.54934e-06
0.000129452
-8.09529e-06
0.000164291
-9.84132e-06
0.000190483
-1.00435e-05
0.000208409
-7.92072e-06
0.000218418
-2.64603e-06
0.000220778
6.66982e-06
0.000215623
2.09945e-05
0.000202921
4.13914e-05
0.000182443
6.90341e-05
0.000153744
0.000105223
0.000116151
0.000151391
6.87553e-05
0.00020911
1.0419e-05
0.000280096
-6.01947e-05
0.000366239
-0.000144571
0.000469755
-0.000244236
0.000593665
-0.000360091
0.000742279
-0.000489648
-0.000626613
0.000928177
-6.85757e-07
3.32531e-05
-2.12281e-06
8.7066e-05
-3.60952e-06
0.000130939
-4.3752e-06
0.000165057
-3.60461e-06
0.000189713
-4.37421e-07
0.000205242
6.04122e-06
0.00021194
1.68204e-05
0.000209999
3.29804e-05
0.000199463
5.57153e-05
0.000180186
8.6352e-05
0.000151806
0.000126364
0.000113732
0.000177379
6.51362e-05
0.000241172
4.96273e-06
0.000319639
-6.80484e-05
0.00041476
-0.000155315
0.000528523
-0.000258335
0.00066291
-0.000378623
0.000820227
-0.000517409
0.0010031
-0.000672518
-0.000850042
0.00122653
-5.37556e-07
3.37907e-05
-1.39754e-06
8.7926e-05
-1.74634e-06
0.000131287
-6.82695e-07
0.000163993
2.73819e-06
0.000186292
9.52526e-06
0.000198455
2.07637e-05
0.000200701
3.76397e-05
0.000193123
6.14684e-05
0.000175634
9.37185e-05
0.000147936
0.000136032
0.000109493
0.000190232
5.95316e-05
0.000258322
-2.95359e-06
0.000342454
-7.91699e-05
0.000444875
-0.000170469
0.00056783
-0.000278269
0.000713414
-0.000403919
0.000883374
-0.000548582
0.00107915
-0.000713186
0.00130146
-0.000894826
-0.00111373
0.00156514
-4.14262e-07
3.42049e-05
-7.20655e-07
8.82324e-05
8.81663e-08
0.000130479
3.05914e-06
0.000161022
9.31612e-06
0.000180035
2.00455e-05
0.000187725
3.65382e-05
0.000184209
6.02219e-05
0.00016944
9.2692e-05
0.000143164
0.000135739
0.000104889
0.000191363
5.38692e-05
0.000261773
-1.08782e-05
0.000349361
-9.05421e-05
0.000456642
-0.000186451
0.000586151
-0.000299978
0.000740282
-0.000432401
0.000921085
-0.000584723
0.00112996
-0.000757461
0.00136718
-0.000950405
0.00163226
-0.0011599
-0.00141704
0.00193557
-3.06808e-07
3.45117e-05
-5.41773e-08
8.79798e-05
1.95378e-06
0.000128471
6.98252e-06
0.000155993
1.63412e-05
0.000170676
3.1437e-05
0.00017263
5.38104e-05
0.000161835
8.51753e-05
0.000138075
0.000127454
0.000100886
0.000182798
4.95442e-05
0.000253596
-1.69284e-05
0.000342443
-9.97259e-05
0.000452085
-0.000200184
0.000585301
-0.000319667
0.000744738
-0.000459414
0.000932677
-0.00062034
0.00115075
-0.000802798
0.00139969
-0.0010064
0.00167808
-0.00122879
0.00198565
-0.00146747
-0.00175372
0.00232233
-2.02701e-07
3.47144e-05
6.37421e-07
8.71397e-05
3.97064e-06
0.000125137
1.1276e-05
0.000148688
2.41048e-05
0.000157847
4.41246e-05
0.00015261
7.31697e-05
0.00013279
0.000113285
9.79592e-05
0.000166759
4.74124e-05
0.00023613
-1.98269e-05
0.000324168
-0.000104966
0.000433806
-0.000209364
0.000568021
-0.000334399
0.000729651
-0.000481298
0.000921147
-0.00065091
0.00114426
-0.000843449
0.00139967
-0.00105821
0.0016868
-0.00129354
0.00200214
-0.00154413
0.00234652
-0.00181184
-0.00211073
0.00270354
-8.38005e-08
3.47982e-05
1.43314e-06
8.56227e-05
6.26995e-06
0.000120301
1.61712e-05
0.000138787
3.29647e-05
0.000141054
5.86216e-05
0.000126953
9.53131e-05
9.60986e-05
0.000145454
4.78187e-05
0.000211718
-1.88523e-05
0.000297025
-0.000105133
0.000404463
-0.000212405
0.000537167
-0.000342068
0.000698116
-0.000495347
0.000889859
-0.000673041
0.00111419
-0.000875245
0.00137181
-0.00110106
0.00166192
-0.00134832
0.00198199
-0.00161361
0.00232666
-0.00188881
0.0026953
-0.00218048
-0.00246775
0.00305232
7.50075e-08
3.47232e-05
2.40091e-06
8.32968e-05
9.00558e-06
0.000113696
2.19309e-05
0.000125861
4.33205e-05
0.000119664
7.54898e-05
9.47835e-05
0.000120983
5.06054e-05
0.000182604
-1.3802e-05
0.000263403
-9.96518e-05
0.000366611
-0.000208341
0.000495494
-0.000341288
0.000653141
-0.000499715
0.000842159
-0.000684366
0.00106432
-0.000895204
0.00132019
-0.00113111
0.00160879
-0.00138966
0.00192743
-0.00166697
0.00227151
-0.00195769
0.00263581
-0.0022531
0.00301191
-0.00255659
-0.00279118
0.00333534
2.89453e-07
3.44338e-05
3.61754e-06
7.99688e-05
1.23395e-05
0.000104974
2.88286e-05
0.000109372
5.55805e-05
9.29124e-05
9.52876e-05
5.50765e-05
0.000150886
-4.99287e-06
0.000225557
-8.84728e-05
0.000322661
-0.000196757
0.000445597
-0.000331276
0.000597559
-0.00049325
0.000781211
-0.000683367
0.000998291
-0.000901446
0.0012492
-0.00114611
0.00153264
-0.00141456
0.00184543
-0.00170245
0.0021826
-0.00200413
0.00253744
-0.00231253
0.00290537
-0.00262103
0.00327379
-0.00292501
-0.00319671
0.00367932
5.85394e-07
3.38484e-05
5.15996e-06
7.53942e-05
1.64295e-05
9.37044e-05
3.71257e-05
8.8676e-05
7.01238e-05
5.99143e-05
0.00011851
6.69012e-06
0.000185603
-7.20853e-05
0.000274899
-0.000177769
0.000389933
-0.000311791
0.000534028
-0.000475371
0.000709938
-0.000669159
0.000919412
-0.000892841
0.00116274
-0.00114477
0.00143835
-0.00142173
0.00174263
-0.00171883
0.00206993
-0.00202975
0.00241305
-0.00234725
0.00276402
-0.00266351
0.00311568
-0.00297268
0.0034586
-0.00326793
-0.00354583
0.00380773
9.82178e-07
3.28662e-05
7.09734e-06
6.9279e-05
2.14164e-05
7.93853e-05
4.70487e-05
6.30437e-05
8.7263e-05
1.97e-05
0.000145531
-5.15781e-05
0.000225499
-0.000152053
0.000330857
-0.000283127
0.000465087
-0.00044602
0.000631086
-0.000641371
0.000830698
-0.000868771
0.0010642
-0.00112635
0.00132988
-0.00141045
0.00162379
-0.00171563
0.00193979
-0.00203484
0.00227007
-0.00236003
0.00260586
-0.00268305
0.00293862
-0.00299626
0.00326073
-0.00329479
0.00356616
-0.00357336
-0.00383536
0.00385568
1.49661e-06
3.13696e-05
9.48703e-06
6.12886e-05
2.74132e-05
6.14591e-05
5.87698e-05
3.16871e-05
0.000107211
-2.87414e-05
0.000176551
-0.000120918
0.000270655
-0.000246157
0.000393202
-0.000405674
0.0005473
-0.000600119
0.000734983
-0.000829054
0.000956654
-0.00109044
0.00121059
-0.00138029
0.00149269
-0.00169255
0.0017965
-0.00201944
0.00211375
-0.00235208
0.0024352
-0.00268148
0.00275174
-0.00299959
0.00305557
-0.00330009
0.0033408
-0.00358003
0.00360385
-0.00383641
-0.00407718
0.00384567
2.14163e-06
2.9228e-05
1.23715e-05
5.10588e-05
3.44982e-05
3.93324e-05
7.23921e-05
-6.2068e-06
0.000130057
-8.64062e-05
0.000211557
-0.000202418
0.000320804
-0.000355404
0.00046118
-0.00054605
0.000635013
-0.000773951
0.000842972
-0.00103701
0.00108351
-0.00133098
0.00135255
-0.00164932
0.00164347
-0.00198348
0.00194772
-0.00232368
0.00225567
-0.00266003
0.00255788
-0.00298369
0.00284628
-0.00328799
0.00311511
-0.00356892
0.00336114
-0.00382606
0.00358412
-0.00405939
-0.00427861
0.00378555
2.92604e-06
2.63019e-05
1.57768e-05
3.8208e-05
4.27101e-05
1.23991e-05
8.79402e-05
-5.1437e-05
0.000155747
-0.000154213
0.000250302
-0.000296973
0.000375314
-0.000480416
0.000533503
-0.000704238
0.000725952
-0.0009664
0.000951479
-0.00126254
0.00120622
-0.00158572
0.00148359
-0.0019267
0.00177487
-0.00227475
0.00207012
-0.00261893
0.00235956
-0.00294948
0.00263487
-0.00325899
0.00289011
-0.00354324
0.00312232
-0.00380112
0.0033312
-0.00403494
0.00351906
-0.00424725
-0.00444838
0.00368884
3.85479e-06
2.24471e-05
1.97125e-05
2.23504e-05
5.20466e-05
-1.9935e-05
0.000105356
-0.000104746
0.00018408
-0.000232938
0.000292291
-0.000405183
0.000433176
-0.000621302
0.000608369
-0.000879432
0.000817241
-0.00117527
0.00105637
-0.00150167
0.00131942
-0.00184877
0.00159762
-0.0022049
0.00188082
-0.00255794
0.00215885
-0.00289696
0.00242299
-0.00321362
0.00266705
-0.00350306
0.0028879
-0.00376408
0.00308537
-0.0039986
0.0032616
-0.00421117
0.00342058
-0.00440622
-0.00459374
0.00356593
4.92935e-06
1.75178e-05
2.41721e-05
3.10762e-06
6.24638e-05
-5.82267e-05
0.000124495
-0.000166777
0.0002147
-0.000323143
0.00033678
-0.000527264
0.000493028
-0.000777549
0.000683546
-0.00106995
0.00090559
-0.00139732
0.0011533
-0.00174938
0.00141808
-0.00211355
0.0016896
-0.00247642
0.0019573
-0.00282564
0.00221195
-0.00315161
0.00244688
-0.00344856
0.00265861
-0.00371479
0.00284676
-0.00395223
0.00301351
-0.00416534
0.00316257
-0.00436023
0.00329862
-0.00454227
-0.0047205
0.00342538
6.14802e-06
1.13698e-05
2.91335e-05
-1.98779e-05
7.38759e-05
-0.000102969
0.000145127
-0.000238029
0.000247097
-0.000425113
0.000382797
-0.000662963
0.000553209
-0.000947961
0.000756499
-0.00127324
0.000987557
-0.00162837
0.00123818
-0.00200001
0.00149803
-0.0023734
0.00175614
-0.00273453
0.00200266
-0.00307216
0.00223024
-0.0033792
0.00243483
-0.00365315
0.00261566
-0.00389561
0.00277463
-0.00411121
0.00291548
-0.00430619
0.00304264
-0.00448739
0.00316074
-0.00466037
-0.00483287
0.0032731
7.50588e-06
3.86387e-06
3.45582e-05
-4.69301e-05
8.61541e-05
-0.000154565
0.000166935
-0.00031881
0.00028062
-0.000538798
0.000429162
-0.000811505
0.000611836
-0.00113064
0.000824566
-0.00148597
0.00105985
-0.00186366
0.00130755
-0.0022477
0.00155637
-0.00262222
0.00179575
-0.00297391
0.00201749
-0.0032939
0.00221672
-0.00357842
0.00239203
-0.00382845
0.00254495
-0.00404854
0.00267901
-0.00424527
0.00279867
-0.00442585
0.00290839
-0.00459711
0.0030123
-0.00476429
-0.00493365
0.00311308
8.99445e-06
-5.13058e-06
4.03905e-05
-7.83262e-05
9.91257e-05
-0.0002133
0.000189518
-0.000409202
0.000314483
-0.000663763
0.000474542
-0.000971563
0.00066692
-0.00132301
0.00088517
-0.00170422
0.00111965
-0.00209814
0.00135891
-0.00248697
0.0015917
-0.002855
0.00180877
-0.00319098
0.00200419
-0.00348932
0.00217569
-0.00374992
0.0023242
-0.00397697
0.00245295
-0.00417728
0.00256628
-0.0043586
0.00266879
-0.00452835
0.00276452
-0.00469284
0.0028569
-0.00485666
-0.00502461
0.00294786
1.06011e-05
-1.57317e-05
4.65564e-05
-0.000114282
0.000112573
-0.000279317
0.000212393
-0.000509021
0.000347795
-0.000799166
0.000517514
-0.00114128
0.000716505
-0.001522
0.000936031
-0.00192375
0.0011648
-0.00232691
0.00139093
-0.0027131
0.00160407
-0.00306813
0.00179698
-0.00338389
0.00196624
-0.00365859
0.00211197
-0.00389565
0.00223688
-0.00410189
0.00234519
-0.00428559
0.0024415
-0.00445491
0.00253005
-0.0046169
0.00261427
-0.00477707
0.00269683
-0.00493921
-0.0051068
0.00277901
1.23084e-05
-2.80401e-05
5.29621e-05
-0.000154935
0.000126236
-0.00035259
0.000235012
-0.000617798
0.000379598
-0.000943752
0.000556656
-0.00131834
0.00075881
-0.00172416
0.000975354
-0.00214029
0.00119405
-0.0025456
0.00140341
-0.00292247
0.00159475
-0.00325946
0.00176317
-0.00355232
0.00190767
-0.00380309
0.00203029
-0.00401826
0.00213493
-0.00420653
0.00222617
-0.00437684
0.00230843
-0.00453717
0.00238538
-0.00469385
0.00245977
-0.00485146
0.00253356
-0.00501299
-0.00518078
0.00260753
1.40934e-05
-4.21335e-05
5.94945e-05
-0.000200336
0.000139815
-0.000432911
0.000256781
-0.000734764
0.000408915
-0.00109589
0.000590634
-0.00150006
0.000792365
-0.00192589
0.00100195
-0.00234988
0.00120698
-0.00275063
0.00139715
-0.00311264
0.00156586
-0.00342817
0.00171062
-0.00369708
0.0018325
-0.00392496
0.0019349
-0.00412066
0.00202232
-0.00429395
0.00209931
-0.00445383
0.00216979
-0.00460765
0.00223679
-0.00476085
0.0023024
-0.00491708
0.00236802
-0.00507862
-0.0052468
0.00243405
1.5928e-05
-5.80614e-05
6.60228e-05
-0.000250431
0.000152983
-0.00051987
0.00027708
-0.000858862
0.000434808
-0.00125361
0.000618302
-0.00168355
0.000816114
-0.0021237
0.00101529
-0.00254905
0.001204
-0.00293934
0.00137368
-0.00328232
0.00152001
-0.00357451
0.0016427
-0.00381977
0.0017444
-0.00402666
0.00182936
-0.00420562
0.0019022
-0.0043668
0.00196713
-0.00451875
0.00202746
-0.00466798
0.00208559
-0.00481898
0.00214307
-0.00497456
0.00220084
-0.00513639
-0.00530497
0.00225901
1.77785e-05
-7.584e-05
7.2402e-05
-0.000305055
0.000165395
-0.000612863
0.000295305
-0.000988772
0.000456436
-0.00141475
0.000638771
-0.00186589
0.000829463
-0.00231439
0.00101546
-0.00273504
0.00118614
-0.00311002
0.00133501
-0.00343119
0.00145999
-0.00369949
0.0015626
-0.00392237
0.00164658
-0.00411064
0.00171655
-0.00427559
0.00177695
-0.0044272
0.00183144
-0.00457325
0.00188275
-0.00471928
0.00193269
-0.00486892
0.00198239
-0.00502426
0.00203244
-0.00518644
-0.0053553
0.00208278
1.96074e-05
-9.54474e-05
7.8478e-05
-0.000363925
0.000176707
-0.000711092
0.000310893
-0.00112296
0.00047311
-0.00157696
0.000651462
-0.00204424
0.000832281
-0.00249521
0.00100306
-0.00290583
0.00115488
-0.00326184
0.00128339
-0.0035597
0.00138851
-0.0038046
0.00147313
-0.004007
0.00154165
-0.00417917
0.0015987
-0.00433264
0.0016483
-0.00447679
0.00169353
-0.00461848
0.00173654
-0.0047623
0.0017787
-0.00491108
0.0018208
-0.00506635
0.00186316
-0.00522881
-0.00539778
0.00190564
2.13739e-05
-0.000116821
8.40939e-05
-0.000426645
0.000186591
-0.000813589
0.000323361
-0.00125973
0.000484327
-0.00173793
0.000656117
-0.00221603
0.000824848
-0.00266394
0.000979122
-0.0030601
0.00111194
-0.00339466
0.00122106
-0.00366882
0.00130803
-0.00389157
0.00137671
-0.00407567
0.00143175
-0.00423421
0.00147751
-0.00437841
0.00151752
-0.0045168
0.00155429
-0.00465525
0.00158947
-0.00479748
0.00162407
-0.00494567
0.00165862
-0.0051009
0.00169329
-0.00526348
-0.00543236
0.00172787
2.30356e-05
-0.000139857
8.90975e-05
-0.000492707
0.000194753
-0.000919245
0.000332325
-0.0013973
0.000489791
-0.00189539
0.000652785
-0.00237902
0.000807784
-0.00281894
0.000944895
-0.00319721
0.00105914
-0.00350891
0.00115014
-0.00375981
0.00122072
-0.00396215
0.0012753
-0.00413025
0.00131849
-0.0042774
0.00135425
-0.00441417
0.00138555
-0.00454809
0.00141438
-0.00468408
0.00144199
-0.0048251
0.00146912
-0.0049728
0.00149613
-0.00512791
0.00152308
-0.00529043
-0.00545901
0.00154974
2.45505e-05
-0.000164407
9.33474e-05
-0.000561504
0.000200947
-0.00102684
0.000337524
-0.00153388
0.000489415
-0.00204728
0.000641781
-0.00253139
0.000781949
-0.00295911
0.000901781
-0.00331705
0.000998254
-0.00360538
0.00107255
-0.00383411
0.00112842
-0.00401802
0.0011705
-0.00417234
0.00120316
-0.00431006
0.00122986
-0.00444087
0.00125304
-0.00457127
0.00127426
-0.0047053
0.00129445
-0.00484529
0.00131414
-0.0049925
0.00133359
-0.00514735
0.00135277
-0.00530961
-0.00547772
0.00137147
2.58786e-05
-0.000190286
9.67205e-05
-0.000632346
0.000204985
-0.00113511
0.000338821
-0.00166771
0.000483307
-0.00219177
0.000623631
-0.00267171
0.000748359
-0.00308384
0.000851204
-0.00341989
0.000930932
-0.00368511
0.000989977
-0.00389316
0.00103264
-0.00406069
0.00106356
-0.00420325
0.0010867
-0.0043332
0.00110503
-0.00445919
0.00112049
-0.00458674
0.0011343
-0.0047191
0.00114713
-0.00485813
0.00115937
-0.00500474
0.0011712
-0.00515918
0.00118256
-0.00532097
-0.00548845
0.00119329
2.69832e-05
-0.000217269
9.91161e-05
-0.000704479
0.000206746
-0.00124274
0.000336204
-0.00179717
0.000471735
-0.0023273
0.000599012
-0.00279899
0.000708099
-0.00319292
0.000794544
-0.00350634
0.000858665
-0.00374923
0.000903827
-0.00393832
0.000934612
-0.00409147
0.000955443
-0.00422408
0.000969849
-0.00434761
0.000980287
-0.00446963
0.000988301
-0.00459475
0.000994794
-0.00472559
0.00100028
-0.00486361
0.00100504
-0.0050095
0.00100919
-0.00516333
0.00101268
-0.00532447
-0.00549117
0.00101541
2.7833e-05
-0.000245102
0.00010046
-0.000777106
0.000206176
-0.00134845
0.000329772
-0.00192077
0.000455098
-0.00245263
0.000568691
-0.00291259
0.000662258
-0.00328649
0.000733076
-0.00357715
0.000782751
-0.00379891
0.000815283
-0.00397085
0.000835304
-0.00411149
0.00084691
-0.00423569
0.000853155
-0.00435385
0.000856043
-0.00447252
0.000856768
-0.00459547
0.000856003
-0.00472482
0.000854125
-0.00486173
0.000851349
-0.00500672
0.000847763
-0.00515974
0.000843324
-0.00532003
-0.00548585
0.000837999
2.84026e-05
-0.000273505
0.000100708
-0.000849411
0.000203285
-0.00145103
0.000319722
-0.0020372
0.000433887
-0.00256679
0.000533476
-0.00301217
0.000611884
-0.0033649
0.000667953
-0.00363322
0.000704301
-0.00383525
0.000725313
-0.00399187
0.000735495
-0.00412167
0.000738545
-0.00423874
0.000737054
-0.00435236
0.000732624
-0.00446809
0.000726161
-0.00458901
0.000718156
-0.00471682
0.000708887
-0.00485246
0.00069852
-0.00499636
0.000687129
-0.00514835
0.000674686
-0.00530758
-0.00547236
0.000661194
2.86735e-05
-0.000302178
9.98409e-05
-0.000920578
0.000198144
-0.00154933
0.000306322
-0.00214538
0.000408648
-0.00266912
0.000494173
-0.0030977
0.000557952
-0.00342868
0.000600183
-0.00367545
0.000624248
-0.00385932
0.000634697
-0.00400231
0.000635794
-0.00412277
0.000630807
-0.00423375
0.000621891
-0.00434345
0.000610305
-0.00445651
0.00059672
-0.00457543
0.000581484
-0.00470158
0.000564791
-0.00483577
0.000546766
-0.00497833
0.000527489
-0.00512908
0.000506962
-0.00528706
-0.00545052
0.000485124
2.86344e-05
-0.000330813
9.78706e-05
-0.000989815
0.000190869
-0.00164233
0.000289898
-0.00224441
0.000379949
-0.00275917
0.000451557
-0.00316931
0.000501339
-0.00347846
0.000530637
-0.00370475
0.000543362
-0.00387205
0.000544064
-0.00400302
0.000536682
-0.00411539
0.000524055
-0.00422112
0.000507947
-0.00432734
0.000489326
-0.00443788
0.000468674
-0.00455477
0.000446226
-0.00467913
0.000422104
-0.00481165
0.000396381
-0.00495261
0.000369103
-0.0051018
0.00034031
-0.00525827
-0.00542028
0.000310073
2.82812e-05
-0.000359094
9.48313e-05
-0.00105636
0.00018162
-0.00172912
0.000270805
-0.0023336
0.00034836
-0.00283673
0.00040635
-0.0032273
0.000442826
-0.00351494
0.000460053
-0.00372198
0.000462275
-0.00387427
0.000453913
-0.00399465
0.000438541
-0.00410002
0.000418582
-0.00420116
0.000395456
-0.00430421
0.000369895
-0.00441232
0.000342232
-0.00452711
0.000312614
-0.00464952
0.000281112
-0.00478015
0.000247768
-0.00491926
0.000212528
-0.00506656
0.00017498
-0.00522072
-0.00538144
0.000136138
2.76166e-05
-0.000386711
9.07789e-05
-0.00111953
0.000170584
-0.00180893
0.000249416
-0.00241243
0.000314429
-0.00290174
0.000359212
-0.00327208
0.000383089
-0.00353881
0.000389048
-0.00372794
0.0003815
-0.00386672
0.000364646
-0.0039778
0.000341672
-0.00407704
0.000314622
-0.00417411
0.000284621
-0.00427421
0.000252203
-0.00437991
0.000217584
-0.00449249
0.000180843
-0.00461277
0.00014203
-0.00474133
0.000101202
-0.00487844
5.85505e-05
-0.00502391
1.4071e-05
-0.00517624
-0.00533041
-3.69542e-05
2.66494e-05
-0.00041336
8.57858e-05
-0.00117866
0.000157965
-0.00188111
0.000226103
-0.00248057
0.000278671
-0.00295431
0.000310728
-0.00330414
0.000322707
-0.00355079
0.000318135
-0.00372336
0.000301452
-0.00385004
0.000276579
-0.00395293
0.000246321
-0.00404679
0.000212375
-0.00414017
0.000175615
-0.00423745
0.000136421
-0.00434071
9.49076e-05
-0.00445098
5.10904e-05
-0.00456896
4.97632e-06
-0.00469522
-4.32871e-05
-0.00483017
-9.37e-05
-0.00497349
-0.000146775
-0.00512316
-0.00527629
-0.0002009
2.53937e-05
-0.000438754
7.99374e-05
-0.00123321
0.000143977
-0.00194515
0.000201227
-0.00253782
0.000241557
-0.00299464
0.000261414
-0.00332399
0.000262172
-0.00355155
0.000247733
-0.00370892
0.000222464
-0.00382477
0.000189968
-0.00392043
0.000152685
-0.0040095
0.000112007
-0.00409949
6.8592e-05
-0.00419404
2.26945e-05
-0.00429481
-2.56306e-05
-0.00440265
-7.64167e-05
-0.00451817
-0.000129673
-0.00464196
-0.000185377
-0.00477447
-0.000243497
-0.00491537
-0.000303885
-0.00506278
-0.00521452
-0.00036565
2.38681e-05
-0.000462622
7.33275e-05
-0.00128267
0.000128838
-0.00200066
0.00017513
-0.00258411
0.000203514
-0.00302302
0.000211717
-0.0033322
0.000201894
-0.00354173
0.000178184
-0.00368522
0.000144802
-0.00379139
0.000105019
-0.00388065
6.09242e-05
-0.00396541
1.36417e-05
-0.00405221
-3.63068e-05
-0.00414409
-8.87929e-05
-0.00424233
-0.000143844
-0.0043476
-0.000201533
-0.00446048
-0.00026191
-0.00458159
-0.000324955
-0.00471142
-0.000390544
-0.00484978
-0.000458388
-0.00499493
-0.00514468
-0.000528236
2.20948e-05
-0.000484716
6.60547e-05
-0.00132663
0.000112758
-0.00204736
0.000148128
-0.00261948
0.000164918
-0.00303981
0.000162018
-0.0033293
0.000142213
-0.00352192
0.000109766
-0.00365277
6.86829e-05
-0.0037503
2.18868e-05
-0.00383385
-2.88194e-05
-0.0039147
-8.25377e-05
-0.00399849
-0.000138934
-0.00408769
-0.000197932
-0.00418333
-0.000259608
-0.00428593
-0.00032409
-0.004396
-0.00039148
-0.0045142
-0.000461777
-0.00464113
-0.000534818
-0.00477674
-0.000610298
-0.00491945
-0.00506691
-0.000688063
2.00989e-05
-0.000504815
5.82197e-05
-0.00136475
9.59399e-05
-0.00208508
0.000120511
-0.00264405
0.000126101
-0.0030454
0.00011264
-0.00331583
8.34097e-05
-0.00349269
4.2698e-05
-0.00361206
-5.74515e-06
-0.00370186
-5.92706e-05
-0.00378033
-0.000116415
-0.00385756
-0.000176471
-0.00393843
-0.000239196
-0.00402497
-0.00030459
-0.00411794
-0.000372771
-0.00421775
-0.000443915
-0.00432486
-0.000518182
-0.00443993
-0.000595615
-0.00456369
-0.000676052
-0.00469631
-0.000759152
-0.00483635
-0.00498137
-0.000844695
1.79079e-05
-0.000522723
4.99228e-05
-0.00139676
7.85743e-05
-0.00211373
9.25406e-05
-0.00265801
8.73504e-05
-0.00304021
6.38537e-05
-0.00329234
2.5718e-05
-0.00345456
-2.28274e-05
-0.00356351
-7.82795e-05
-0.00364641
-0.000138353
-0.00372025
-0.000201787
-0.00379412
-0.000268046
-0.00387217
-0.000336982
-0.00395603
-0.000408644
-0.00404627
-0.000483192
-0.0041432
-0.000560844
-0.0042472
-0.000641827
-0.00435895
-0.000726256
-0.00447927
-0.000814003
-0.00460856
-0.000904662
-0.00474569
-0.00488818
-0.000997849
1.55523e-05
-0.000538276
4.12627e-05
-0.00142247
6.08414e-05
-0.00213331
6.44499e-05
-0.00266162
4.89097e-05
-0.00302467
1.59173e-05
-0.00325934
-3.06757e-05
-0.00340797
-8.66771e-05
-0.00350751
-0.000148879
-0.00358421
-0.000215278
-0.00365385
-0.000284845
-0.00372456
-0.000357174
-0.00379984
-0.000432192
-0.00388101
-0.000509988
-0.00396848
-0.000590746
-0.00406244
-0.000674726
-0.00416322
-0.000762225
-0.00427145
-0.000853458
-0.00438803
-0.000948372
-0.00451364
-0.00104649
-0.00464757
-0.0047875
-0.00114717
1.30688e-05
-0.000551344
3.23385e-05
-0.00144174
4.29083e-05
-0.00214388
3.64455e-05
-0.00265516
1.10956e-05
-0.00299932
-3.10392e-05
-0.00321721
-8.56379e-05
-0.00335337
-0.000148743
-0.0034444
-0.000217433
-0.00351552
-0.000289968
-0.00358132
-0.000365513
-0.00364901
-0.000443777
-0.00372158
-0.000524743
-0.00380005
-0.000608524
-0.0038847
-0.000695324
-0.00397564
-0.000785431
-0.00407312
-0.000879208
-0.00417767
-0.000976991
-0.00429025
-0.00107885
-0.00441179
-0.00118427
-0.00454216
-0.00467947
-0.0012923
1.04941e-05
-0.000561838
2.32453e-05
-0.00145449
2.49273e-05
-0.00214556
8.86568e-06
-0.0026391
-2.61764e-05
-0.00296428
-7.68671e-05
-0.00316652
-0.000139051
-0.00329118
-0.000208937
-0.00337452
-0.000283873
-0.00344058
-0.00036236
-0.00350283
-0.000443732
-0.00356764
-0.000527789
-0.00363752
-0.000614559
-0.00371328