/*--------------------------------*- C++ -*----------------------------------*\
  =========                 |
  \\      /  F ield         | OpenFOAM: The Open Source CFD Toolbox
   \\    /   O peration     | Website:  https://openfoam.org
    \\  /    A nd           | Version:  7
     \\/     M anipulation  |
\*---------------------------------------------------------------------------*/
FoamFile
{
    version     2.0;
    format      ascii;
    class       volScalarField;
    location    "45";
    object      p;
}
// * * * * * * * * * * * * * * * * * * * * * * * * * * * * * * * * * * * * * //

dimensions      [0 2 -2 0 0 0 0];

internalField   nonuniform List<scalar> 
183
(
-0.0573982
-0.0560253
-0.0541414
-0.0514565
-0.0509104
-0.0469021
-0.0477239
-0.0423725
-0.0446003
-0.0378792
-0.0415574
-0.0334352
-0.0386114
-0.029056
-0.0337791
-0.0357773
-0.0247592
-0.0288541
-0.0330681
-0.020565
-0.0239363
-0.0304952
-0.0164952
-0.0190376
-0.0280677
-0.0125729
-0.0141735
-0.0257929
-0.00882141
-0.00936414
-0.0236767
-0.00526337
-0.00463403
-0.00191985
-1.16472e-05
0.00119138
0.00447224
0.00405883
0.00878671
0.00667607
0.0128989
0.00902324
0.0167649
0.011045
0.0203365
0.0127454
0.0236417
0.0145191
0.0268954
0.0206048
0.0366106
0.024625
0.0421535
0.0258896
0.0426906
0.0248424
0.0394405
0.022672
0.0348803
0.0200628
0.030001
0.0171439
0.025323
0.0142925
0.0210448
0.0116191
0.0172211
0.00923993
0.0139135
0.00718855
0.0111175
0.00546028
0.00879481
0.00403074
0.00689123
0.00286591
0.00534949
0.00193041
0.00411699
0.0011916
0.00315128
0.000620665
0.00242476
0.000190145
0.00186552
-0.000118411
0.00146142
-0.000317396
0.00120011
-0.000414804
0.00107194
-0.14263
-0.148673
-0.147326
-0.137466
-0.119464
-0.094009
-0.0723098
-0.0548051
-0.0418077
-0.0323378
-0.0255961
-0.0207948
-0.0169549
-0.0141754
-0.012167
-0.0107155
-0.0096714
-0.00893609
-0.00844104
-0.00813601
-0.00799056
-0.147435
-0.146634
-0.141216
-0.127885
-0.109408
-0.0892536
-0.0711653
-0.0563904
-0.0449078
-0.0361141
-0.029416
-0.0242959
-0.0203429
-0.0173093
-0.0149951
-0.0132431
-0.0119333
-0.0109783
-0.0103135
-0.00989376
-0.00969119
-0.133911
-0.14004
-0.131679
-0.137974
-0.129379
-0.135836
-0.126833
-0.133446
-0.124075
-0.130845
-0.121126
-0.128062
-0.117994
-0.1251
-0.096881
-0.114688
-0.121963
-0.0948114
-0.111217
-0.118655
-0.0925875
-0.10759
-0.115181
-0.0902173
-0.103816
-0.111543
-0.0877094
-0.0999049
-0.107748
-0.0850726
-0.0958675
-0.103799
-0.0823167
-0.0917155
-0.0997058
-0.0794521
-0.0874618
-0.0954763
-0.0764898
-0.0831201
-0.0734417
-0.0787051
-0.0703204
-0.0742313
-0.0671399
-0.0697134
-0.0639151
-0.0651648
-0.0606621
-0.0605983
)
;

boundaryField
{
    inlet
    {
        type            zeroGradient;
    }
    outlet
    {
        type            fixedValue;
        value           nonuniform 0();
    }
    cylinder
    {
        type            zeroGradient;
    }
    top
    {
        type            symmetryPlane;
    }
    bottom
    {
        type            symmetryPlane;
    }
    defaultFaces
    {
        type            empty;
    }
    procBoundary43to42
    {
        type            processor;
        value           nonuniform List<scalar> 
86
(
-0.0727306
-0.0712689
-0.0697783
-0.0682712
-0.06676
-0.0652568
-0.063774
-0.0623236
-0.0609176
-0.0595672
-0.0582829
-0.0570739
-0.0559485
-0.0217244
-0.0217244
-0.0199392
-0.0183169
-0.0168463
-0.0155431
-0.0145087
-0.0137966
-0.0128022
-0.00800545
-0.00219183
0.0016308
0.00396649
0.00481065
0.00492118
0.00433337
0.00354341
0.00265442
0.00177881
0.000974362
0.000265446
-0.000341428
-0.000849559
-0.00126734
-0.00160448
-0.00187041
-0.00207354
-0.00222044
-0.00231575
-0.00236292
-0.110385
-0.114232
-0.114462
-0.109042
-0.095452
-0.0752746
-0.0552538
-0.0393081
-0.0280151
-0.0204146
-0.0153705
-0.0120259
-0.0097664
-0.00825233
-0.00724716
-0.00658782
-0.0061624
-0.00589376
-0.00572999
-0.00563787
-0.00559642
-0.106495
-0.105672
-0.104671
-0.103476
-0.102093
-0.100528
-0.0987889
-0.0987889
-0.0822476
-0.0826908
-0.0829084
-0.0829106
-0.082709
-0.0823169
-0.0817488
-0.0810199
-0.0801459
-0.0791429
-0.0780267
-0.0768126
-0.0755158
-0.0741506
)
;
    }
    procBoundary43to44
    {
        type            processor;
        value           nonuniform List<scalar> 
86
(
-0.0631408
-0.0582931
-0.0534202
-0.048528
-0.0436211
-0.0387034
-0.0387034
-0.0426381
-0.0383815
-0.034012
-0.0295294
-0.0249398
-0.0202564
-0.0154982
-0.0106905
-0.00586478
-0.0010573
0.0036927
0.0083432
0.0128346
0.0171213
0.0213327
0.0344343
0.0422171
0.0444019
0.040844
0.0361109
0.0311297
0.0264546
0.0221452
0.0182796
0.014932
0.0121037
0.00975381
0.00782452
0.00625556
0.00498702
0.00396175
0.00340474
0.00278367
0.00234841
0.00207145
0.00193699
-0.122383
-0.119337
-0.111905
-0.10006
-0.0861429
-0.0721597
-0.0596987
-0.0492687
-0.040779
-0.0339533
-0.0284979
-0.0241474
-0.020684
-0.0179379
-0.0157749
-0.0140885
-0.0127951
-0.0118304
-0.0111462
-0.0107083
-0.0104946
-0.119566
-0.118504
-0.117288
-0.11595
-0.114453
-0.112788
-0.110957
-0.108963
-0.106807
-0.104488
-0.102009
-0.0993713
-0.0965804
-0.0936429
-0.0905682
-0.0911217
-0.0911217
-0.0866552
-0.0820908
-0.0774432
-0.0727268
-0.0679554
)
;
    }
}


// ************************************************************************* //
