/*--------------------------------*- C++ -*----------------------------------*\
  =========                 |
  \\      /  F ield         | OpenFOAM: The Open Source CFD Toolbox
   \\    /   O peration     | Website:  https://openfoam.org
    \\  /    A nd           | Version:  7
     \\/     M anipulation  |
\*---------------------------------------------------------------------------*/
FoamFile
{
    version     2.0;
    format      ascii;
    class       volVectorField;
    location    "15";
    object      U;
}
// * * * * * * * * * * * * * * * * * * * * * * * * * * * * * * * * * * * * * //

dimensions      [0 1 -1 0 0 0 0];

internalField   nonuniform List<vector> 
928
(
(0.67455 -0.000616199 -6.60522e-24)
(0.676475 -0.000615105 3.05079e-24)
(0.678399 -0.000614046 1.79944e-24)
(0.68032 -0.00061301 -4.97094e-24)
(0.682239 -0.000611996 3.60549e-24)
(0.684156 -0.000611003 1.0055e-24)
(0.67485 -0.0018446 -1.76464e-23)
(0.676774 -0.00184143 6.88369e-25)
(0.678694 -0.00183836 1.02151e-23)
(0.680613 -0.00183539 1.75256e-24)
(0.68253 -0.00183249 -5.71528e-24)
(0.684444 -0.00182968 4.05559e-24)
(0.675451 -0.00307061 -4.84528e-24)
(0.677369 -0.00306538 1.11272e-23)
(0.679285 -0.00306032 -1.30892e-23)
(0.681199 -0.00305541 3.03808e-23)
(0.683111 -0.00305064 -1.02332e-23)
(0.68502 -0.00304602 -1.44407e-23)
(0.67635 -0.00429263 1.58532e-23)
(0.678261 -0.00428537 -2.00922e-23)
(0.680169 -0.00427834 4.31827e-24)
(0.682076 -0.00427151 1.42222e-23)
(0.68398 -0.0042649 -1.20686e-23)
(0.685883 -0.0042585 7.66916e-24)
(0.677545 -0.00550909 7.33378e-23)
(0.679446 -0.00549982 -4.95251e-23)
(0.681345 -0.00549086 1.19325e-23)
(0.683242 -0.00548214 -1.8277e-23)
(0.685137 -0.00547372 1.31844e-23)
(0.68703 -0.00546558 -1.42427e-23)
(0.679033 -0.00671845 -4.56604e-23)
(0.680922 -0.00670717 -2.65952e-23)
(0.682809 -0.0066963 6.48705e-23)
(0.684694 -0.00668576 -2.09216e-23)
(0.686577 -0.00667558 2.12203e-23)
(0.688458 -0.00666575 -5.07136e-23)
(0.680811 -0.00791916 -4.34176e-23)
(0.682686 -0.0079059 -4.73481e-23)
(0.684559 -0.00789315 4.07725e-23)
(0.686429 -0.00788085 6.623e-25)
(0.688298 -0.00786898 1.09834e-23)
(0.690165 -0.00785753 1.87967e-24)
(0.684732 -0.0090945 2.55025e-23)
(0.686588 -0.00907995 -1.75679e-23)
(0.688442 -0.00906594 2.01298e-23)
(0.690295 -0.00905246 2.93019e-23)
(0.692145 -0.00903946 7.43597e-25)
(0.687056 -0.0102715 6.77099e-23)
(0.688893 -0.0102552 -6.62564e-23)
(0.690729 -0.0102396 4.57181e-23)
(0.692563 -0.0102246 -5.14391e-23)
(0.694395 -0.0102101 1.96895e-23)
(0.689652 -0.0114355 -4.2479e-23)
(0.691468 -0.0114176 -1.00884e-24)
(0.693283 -0.0114004 -2.16029e-23)
(0.695097 -0.011384 -1.33438e-23)
(0.696909 -0.0113681 3.75075e-23)
(0.692513 -0.0125851 4.68491e-23)
(0.694307 -0.0125657 -1.99663e-23)
(0.6961 -0.0125471 -1.1921e-23)
(0.69789 -0.0125292 7.43481e-23)
(0.69968 -0.0125121 -6.05321e-23)
(0.695634 -0.0137189 1.13201e-22)
(0.697403 -0.0136981 2.70054e-23)
(0.699171 -0.0136781 -1.41625e-22)
(0.700937 -0.013659 1.94468e-23)
(0.702702 -0.0136407 -1.23769e-23)
(0.699007 -0.0148355 -9.29464e-23)
(0.700749 -0.0148134 -6.7335e-23)
(0.70249 -0.0147923 5.14009e-23)
(0.70423 -0.014772 -8.71171e-23)
(0.705969 -0.0147526 1.27008e-22)
(0.702623 -0.0159337 4.7837e-23)
(0.704337 -0.0159105 -1.90846e-25)
(0.70605 -0.0158883 -7.99892e-23)
(0.707762 -0.0158671 3.48997e-23)
(0.709473 -0.0158467 -1.49365e-23)
(0.706473 -0.0170123 1.51034e-22)
(0.708158 -0.0169882 -7.31141e-23)
(0.709841 -0.016965 -3.39058e-23)
(0.711523 -0.0169429 9.75249e-23)
(0.713205 -0.0169217 2.02944e-23)
(0.710551 -0.0180701 1.39827e-22)
(0.712203 -0.0180452 2.89485e-23)
(0.713855 -0.0180212 -3.8883e-23)
(0.715506 -0.0179984 3.37235e-23)
(0.717157 -0.0179765 -3.26443e-23)
(0.714845 -0.0191061 -1.93492e-22)
(0.716464 -0.0190805 3.89101e-22)
(0.718083 -0.0190559 -1.99272e-22)
(0.719702 -0.0190325 3.56251e-23)
(0.72132 -0.0190101 -4.45657e-23)
(0.719345 -0.0201192 -1.22042e-22)
(0.720931 -0.020093 1.56967e-22)
(0.722516 -0.020068 1.5364e-23)
(0.724101 -0.0200441 1.12098e-22)
(0.725686 -0.0200213 -9.16572e-23)
(0.724044 -0.0211085 2.6804e-23)
(0.725594 -0.0210819 -6.06095e-23)
(0.727144 -0.0210565 -4.63709e-23)
(0.728694 -0.0210323 2.10077e-23)
(0.730244 -0.0210093 -2.16597e-22)
(0.728928 -0.022073 2.70352e-22)
(0.730442 -0.0220462 -1.54479e-22)
(0.731956 -0.0220206 1.24075e-22)
(0.73347 -0.0219963 -1.16979e-22)
(0.734984 -0.0219732 -4.64962e-23)
(0.733989 -0.0230119 8.2659e-23)
(0.735466 -0.022985 3.94003e-23)
(0.736943 -0.0229594 1.1778e-22)
(0.73842 -0.0229351 -2.88172e-22)
(0.739897 -0.0229121 1.05122e-22)
(0.739215 -0.0239245 -9.60945e-23)
(0.740654 -0.0238977 8.9872e-23)
(0.742093 -0.0238722 -1.73705e-22)
(0.743532 -0.0238481 1.91178e-22)
(0.744972 -0.0238254 -2.65459e-23)
(0.744595 -0.02481 -9.4983e-23)
(0.745995 -0.0247834 -4.18232e-23)
(0.747396 -0.0247583 1.97789e-22)
(0.748797 -0.0247346 1.24571e-23)
(0.750199 -0.0247122 -2.78059e-22)
(0.750119 -0.0256679 1.32778e-24)
(0.75148 -0.0256417 -8.88556e-23)
(0.752841 -0.025617 9.99657e-23)
(0.754204 -0.0255938 -1.73054e-22)
(0.755567 -0.025572 -1.35381e-22)
(0.755775 -0.0264975 -1.79725e-23)
(0.757096 -0.0264719 -9.84627e-23)
(0.758418 -0.0264479 6.43675e-23)
(0.759741 -0.0264254 3.4775e-23)
(0.761065 -0.0264043 -3.97553e-23)
(0.761551 -0.0272985 -2.70875e-22)
(0.762832 -0.0272737 -8.85482e-23)
(0.764115 -0.0272504 1.66912e-22)
(0.765399 -0.0272287 -9.86352e-23)
(0.766683 -0.0272085 1.02418e-22)
(0.767437 -0.0280703 9.3686e-23)
(0.768679 -0.0280465 4.92978e-23)
(0.769921 -0.0280242 -2.17499e-23)
(0.771165 -0.0280035 2.99252e-23)
(0.77241 -0.0279843 1.83284e-22)
(0.773422 -0.0288128 1.33462e-22)
(0.774623 -0.02879 4.09154e-23)
(0.775826 -0.0287688 -2.78436e-22)
(0.77703 -0.0287493 2.56001e-22)
(0.778236 -0.0287313 -1.90621e-22)
(0.779494 -0.0295259 7.5557e-23)
(0.780655 -0.0295043 -3.1269e-23)
(0.781818 -0.0294844 -8.16963e-24)
(0.782983 -0.0294662 -1.65925e-22)
(0.784149 -0.0294496 -4.19937e-23)
(0.785642 -0.0302099 1.32096e-22)
(0.786764 -0.0301897 -1.66004e-23)
(0.787887 -0.0301712 -2.2233e-22)
(0.789012 -0.0301544 3.07773e-22)
(0.790139 -0.0301392 2.8958e-23)
(0.79614 -0.0313132 0)
(0.797191 -0.0312952 0)
(0.798244 -0.0312789 0)
(0.7993 -0.0312644 0)
(0.800357 -0.0312515 0)
(0.811392 -0.0327293 0)
(0.812339 -0.0327143 0)
(0.813288 -0.0327011 0)
(0.814239 -0.0326897 0)
(0.815193 -0.0326799 0)
(0.826986 -0.0339952 0)
(0.827827 -0.0339837 0)
(0.828671 -0.033974 0)
(0.829517 -0.0339661 0)
(0.830366 -0.0339598 0)
(0.842812 -0.0351103 0)
(0.843547 -0.0351027 0)
(0.844285 -0.0350969 0)
(0.845026 -0.0350929 0)
(0.84577 -0.0350906 0)
(0.858762 -0.0360751 0)
(0.859392 -0.0360718 0)
(0.860025 -0.0360703 0)
(0.860661 -0.0360706 0)
(0.8613 -0.0360726 0)
(0.874735 -0.036891 0)
(0.87526 -0.0368923 0)
(0.875789 -0.0368954 0)
(0.876321 -0.0369004 0)
(0.876857 -0.036907 0)
(0.890631 -0.0375603 0)
(0.891054 -0.0375665 0)
(0.891481 -0.0375746 0)
(0.891912 -0.0375844 0)
(0.892346 -0.037596 0)
(0.906359 -0.0380865 1.03214e-28)
(0.906683 -0.0380979 -1.03214e-28)
(0.907011 -0.0381111 0)
(0.907342 -0.0381261 0)
(0.907678 -0.0381428 0)
(0.921834 -0.0384739 0)
(0.922062 -0.0384907 0)
(0.922294 -0.0385093 0)
(0.92253 -0.0385297 0)
(0.922769 -0.0385517 0)
(0.936977 -0.0387278 7.83455e-29)
(0.937113 -0.0387501 -7.83455e-29)
(0.937253 -0.0387742 0)
(0.937397 -0.0388001 0)
(0.937545 -0.0388275 0)
(0.95172 -0.038854 0)
(0.951768 -0.038882 0)
(0.95182 -0.0389117 0)
(0.951876 -0.0389431 0)
(0.951937 -0.0389761 0)
(0.965998 -0.0388591 0)
(0.965963 -0.0388927 0)
(0.965933 -0.038928 0)
(0.965906 -0.038965 0)
(0.965883 -0.0390036 0)
(0.979759 -0.03875 0)
(0.979646 -0.0387893 0)
(0.979537 -0.0388302 0)
(0.979433 -0.0388727 0)
(0.979332 -0.0389168 0)
(0.992955 -0.0385343 0)
(0.99277 -0.0385791 0)
(0.992589 -0.0386255 0)
(0.992411 -0.0386735 0)
(0.992237 -0.038723 0)
(1.00555 -0.0382195 0)
(1.0053 -0.0382697 0)
(1.00505 -0.0383215 0)
(1.0048 -0.0383748 0)
(1.00456 -0.0384296 0)
(1.01751 -0.0378135 0)
(1.0172 -0.0378689 0)
(1.01689 -0.0379259 0)
(1.01658 -0.0379843 0)
(1.01628 -0.0380442 0)
(1.02882 -0.0373243 0)
(1.02845 -0.0373847 0)
(1.02809 -0.0374466 0)
(1.02772 -0.0375099 0)
(1.02736 -0.0375746 0)
(1.03946 -0.0367598 0)
(1.03904 -0.0368249 0)
(1.03863 -0.0368914 0)
(1.03821 -0.0369593 0)
(1.0378 -0.0370286 0)
(1.04943 -0.0361278 0)
(1.04896 -0.0361972 0)
(1.0485 -0.036268 0)
(1.04804 -0.0363402 0)
(1.04758 -0.0364137 0)
(1.05871 -0.0354358 0)
(1.05821 -0.0355092 0)
(1.05771 -0.0355839 0)
(1.05721 -0.0356601 0)
(1.05671 -0.0357375 0)
(1.06733 -0.0346912 0)
(1.06679 -0.0347682 0)
(1.06625 -0.0348465 0)
(1.06571 -0.0349262 0)
(1.06518 -0.0350071 0)
(1.07528 -0.033901 5.97255e-29)
(1.07471 -0.0339812 -5.97255e-29)
(1.07414 -0.0340626 0)
(1.07357 -0.0341454 0)
(1.07301 -0.0342295 0)
(1.08258 -0.0330719 0)
(1.08198 -0.0331548 0)
(1.08139 -0.033239 0)
(1.0808 -0.0333244 0)
(1.08021 -0.0334111 0)
(1.08925 -0.0322099 -6.08545e-29)
(1.08863 -0.0322952 6.08545e-29)
(1.08802 -0.0323816 0)
(1.08741 -0.0324694 0)
(1.08679 -0.0325583 0)
(1.09532 -0.031321 0)
(1.09468 -0.0314081 0)
(1.09405 -0.0314964 0)
(1.09342 -0.031586 0)
(1.09279 -0.0316767 0)
(1.1008 -0.0304104 0)
(1.10015 -0.0304989 0)
(1.09951 -0.0305887 0)
(1.09886 -0.0306796 0)
(1.09821 -0.0307717 0)
(1.10573 -0.029483 0)
(1.10507 -0.0295724 0)
(1.10441 -0.0296631 0)
(1.10376 -0.029755 0)
(1.1031 -0.029848 0)
(1.11014 -0.0285429 0)
(1.10947 -0.0286329 0)
(1.1088 -0.0287241 0)
(1.10814 -0.0288165 0)
(1.10747 -0.02891 0)
(1.11405 -0.0275942 0)
(1.11338 -0.0276843 0)
(1.11271 -0.0277756 0)
(1.11204 -0.0278681 0)
(1.11136 -0.0279617 0)
(1.11069 -0.0280564 0)
(1.1175 -0.0266401 0)
(1.11683 -0.02673 0)
(1.11615 -0.026821 0)
(1.11548 -0.0269132 0)
(1.1148 -0.0270065 0)
(1.11413 -0.0271008 0)
(1.12053 -0.0256837 0)
(1.11985 -0.0257729 0)
(1.11918 -0.0258633 0)
(1.1185 -0.0259547 0)
(1.11782 -0.0260473 0)
(1.11715 -0.026141 0)
(1.12316 -0.0247274 0)
(1.12248 -0.0248156 0)
(1.12181 -0.0249049 0)
(1.12113 -0.0249954 0)
(1.12045 -0.0250869 0)
(1.11977 -0.0251795 0)
(1.12542 -0.0237733 0)
(1.12475 -0.0238602 0)
(1.12407 -0.0239481 0)
(1.1234 -0.0240372 0)
(1.12272 -0.0241274 0)
(1.12205 -0.0242186 0)
(1.12735 -0.0228232 0)
(1.12668 -0.0229084 0)
(1.12601 -0.0229947 0)
(1.12534 -0.0230821 0)
(1.12467 -0.0231706 0)
(1.12399 -0.0232601 0)
(1.12898 -0.0218784 0)
(1.12832 -0.0219617 0)
(1.12765 -0.0220461 0)
(1.12698 -0.0221316 0)
(1.12631 -0.0222181 0)
(1.12564 -0.0223055 0)
(1.13034 -0.0209401 0)
(1.12968 -0.0210212 0)
(1.12902 -0.0211034 0)
(1.12835 -0.0211867 0)
(1.12769 -0.0212709 0)
(1.12702 -0.0213562 0)
(1.13145 -0.020009 -1.02636e-28)
(1.1308 -0.0200877 1.02636e-28)
(1.13014 -0.0201675 0)
(1.12948 -0.0202483 0)
(1.12882 -0.0203302 0)
(1.12816 -0.0204129 0)
(1.13235 -0.0190857 0)
(1.1317 -0.0191619 0)
(1.13105 -0.019239 0)
(1.13039 -0.0193172 0)
(1.12974 -0.0193964 0)
(1.12908 -0.0194765 0)
(1.13305 -0.0181706 1.03591e-28)
(1.13241 -0.018244 -1.03591e-28)
(1.13176 -0.0183184 0)
(1.13111 -0.0183937 0)
(1.13046 -0.01847 0)
(1.12981 -0.0185473 0)
(1.13358 -0.0172638 0)
(1.13295 -0.0173343 0)
(1.13231 -0.0174057 0)
(1.13166 -0.0174781 0)
(1.13102 -0.0175514 0)
(1.13037 -0.0176256 0)
(1.13397 -0.0163653 0)
(1.13334 -0.0164328 0)
(1.1327 -0.0165011 0)
(1.13207 -0.0165704 0)
(1.13143 -0.0166406 0)
(1.13079 -0.0167116 0)
(1.13361 -0.0155394 0)
(1.13298 -0.0156045 0)
(1.13235 -0.0156706 0)
(1.13171 -0.0157375 0)
(1.13108 -0.0158053 0)
(1.13377 -0.0146539 0)
(1.13314 -0.0147157 0)
(1.13252 -0.0147785 0)
(1.13189 -0.0148421 0)
(1.13126 -0.0149064 0)
(1.13384 -0.013776 1.44561e-28)
(1.13322 -0.0138345 0)
(1.1326 -0.0138938 0)
(1.13198 -0.013954 0)
(1.13135 -0.0140149 0)
(1.13383 -0.0129053 1.05962e-28)
(1.13322 -0.0129605 0)
(1.13261 -0.0130163 0)
(1.13199 -0.013073 0)
(1.13137 -0.0131304 0)
(1.13377 -0.0120416 0)
(1.13316 -0.0120932 0)
(1.13255 -0.0121456 0)
(1.13194 -0.0121987 0)
(1.13132 -0.0122525 0)
(1.13366 -0.0111842 0)
(1.13306 -0.0112323 0)
(1.13245 -0.0112812 0)
(1.13184 -0.0113307 0)
(1.13123 -0.0113808 0)
(1.13352 -0.0103328 0)
(1.13292 -0.0103774 0)
(1.13232 -0.0104226 0)
(1.13171 -0.0104685 0)
(1.1311 -0.010515 0)
(1.13335 -0.00948684 0)
(1.13275 -0.00952788 0)
(1.13215 -0.00956952 0)
(1.13155 -0.00961175 0)
(1.13095 -0.00965457 0)
(1.13316 -0.00864587 0)
(1.13257 -0.00868333 0)
(1.13198 -0.00872136 0)
(1.13138 -0.00875993 0)
(1.13078 -0.00879904 0)
(1.13297 -0.00780938 -1.07584e-28)
(1.13238 -0.00784328 0)
(1.13179 -0.00787768 0)
(1.1312 -0.00791258 0)
(1.1306 -0.00794797 0)
(1.13278 -0.00697692 0)
(1.13219 -0.00700723 0)
(1.13161 -0.007038 0)
(1.13101 -0.00706923 0)
(1.13042 -0.00710089 0)
(1.1326 -0.006148 -1.47759e-28)
(1.13201 -0.00617473 0)
(1.13143 -0.00620188 0)
(1.13084 -0.00622942 0)
(1.13024 -0.00625735 0)
(1.13243 -0.00532217 0)
(1.13184 -0.00534533 0)
(1.13126 -0.00536884 0)
(1.13067 -0.00539271 0)
(1.13008 -0.00541691 0)
(1.13227 -0.00449899 0)
(1.13169 -0.00451857 0)
(1.1311 -0.00453846 0)
(1.13052 -0.00455865 0)
(1.12993 -0.00457912 0)
(1.13213 -0.00367802 0)
(1.13155 -0.00369404 0)
(1.13097 -0.0037103 0)
(1.13039 -0.00372681 0)
(1.1298 -0.00374356 0)
(1.13202 -0.00285885 0)
(1.13144 -0.0028713 0)
(1.13086 -0.00288394 0)
(1.13028 -0.00289678 0)
(1.12969 -0.0029098 0)
(1.13194 -0.00204105 0)
(1.13136 -0.00204995 0)
(1.13078 -0.00205898 0)
(1.13019 -0.00206814 0)
(1.12961 -0.00207744 0)
(1.13188 -0.00122425 1.48567e-28)
(1.1313 -0.00122958 0)
(1.13072 -0.00123499 0)
(1.13014 -0.00124049 0)
(1.12955 -0.00124607 0)
(1.13185 -0.000408018 1.10608e-28)
(1.13127 -0.000409795 0)
(1.13069 -0.000411601 0)
(1.13011 -0.000413433 0)
(1.12952 -0.000415292 0)
(0.79614 0.0313111 0)
(0.811392 0.0327273 0)
(0.826987 0.0339934 0)
(0.842813 0.0351086 0)
(0.858763 0.0360735 0)
(0.874736 0.0368895 0)
(0.890632 0.0375589 0)
(0.90636 0.0380852 -1.03221e-28)
(0.921835 0.0384728 0)
(0.936979 0.0387268 -7.83507e-29)
(0.951721 0.0388531 0)
(0.966 0.0388583 0)
(0.97976 0.0387493 0)
(0.992957 0.0385336 0)
(1.00555 0.0382189 0)
(1.01751 0.0378131 0)
(1.02882 0.0373239 0)
(1.03947 0.0367595 0)
(1.04943 0.0361275 0)
(1.05872 0.0354356 0)
(1.06733 0.034691 0)
(1.07528 0.0339009 -5.97279e-29)
(1.08258 0.0330717 0)
(1.08925 0.0322099 6.08567e-29)
(1.09532 0.031321 0)
(1.1008 0.0304104 0)
(1.10573 0.029483 0)
(1.11014 0.0285429 0)
(1.11405 0.0275942 0)
(1.1175 0.0266402 0)
(1.12053 0.0256837 0)
(1.12316 0.0247274 0)
(1.12542 0.0237733 0)
(1.12735 0.0228232 0)
(1.12898 0.0218785 0)
(1.13034 0.0209401 0)
(1.13145 0.020009 1.02638e-28)
(1.13235 0.0190858 0)
(1.13305 0.0181706 -1.03593e-28)
(1.13359 0.0172638 0)
(1.13397 0.0163654 0)
(1.13424 0.0154751 0)
(1.13439 0.0145929 0)
(1.13446 0.0137183 0)
(1.13445 0.0128511 0)
(1.13438 0.0119907 0)
(1.13427 0.0111368 0)
(1.13412 0.0102889 0)
(1.13394 0.00944646 0)
(1.13376 0.008609 0)
(1.13356 0.00777604 1.07584e-28)
(1.13337 0.00694709 0)
(1.13318 0.0061217 1.47759e-28)
(1.13301 0.00529939 0)
(1.13285 0.00447972 0)
(1.13271 0.00366227 0)
(1.1326 0.0028466 0)
(1.13251 0.00203231 0)
(1.13245 0.001219 -1.48568e-28)
(1.13242 0.000406268 -1.10608e-28)
(0.797192 0.0312932 0)
(0.812339 0.0327124 0)
(0.827828 0.033982 0)
(0.843548 0.0351011 0)
(0.859393 0.0360703 0)
(0.875261 0.0368909 0)
(0.891055 0.0375653 0)
(0.906684 0.0380968 1.03221e-28)
(0.922063 0.0384897 0)
(0.937115 0.0387492 7.83507e-29)
(0.95177 0.0388812 0)
(0.965965 0.038892 0)
(0.979648 0.0387887 0)
(0.992772 0.0385785 0)
(1.0053 0.0382692 0)
(1.0172 0.0378685 0)
(1.02845 0.0373844 0)
(1.03904 0.0368246 0)
(1.04896 0.036197 0)
(1.05821 0.035509 0)
(1.06679 0.0347681 0)
(1.07471 0.0339811 5.97279e-29)
(1.08199 0.0331547 0)
(1.08864 0.0322951 -6.08567e-29)
(1.09468 0.0314081 0)
(1.10015 0.030499 0)
(1.10507 0.0295725 0)
(1.10947 0.028633 0)
(1.11338 0.0276844 0)
(1.11683 0.0267301 0)
(1.11985 0.025773 0)
(1.12248 0.0248157 0)
(1.12475 0.0238603 0)
(1.12668 0.0229085 0)
(1.12832 0.0219618 0)
(1.12968 0.0210213 0)
(1.1308 0.0200878 -1.02638e-28)
(1.1317 0.019162 0)
(1.13241 0.0182441 1.03593e-28)
(1.13295 0.0173343 0)
(1.13334 0.0164328 0)
(1.13361 0.0155394 0)
(1.13377 0.0146539 0)
(1.13384 0.0137761 0)
(1.13384 0.0129054 0)
(1.13377 0.0120417 0)
(1.13366 0.0111843 0)
(1.13352 0.0103329 0)
(1.13335 0.0094869 0)
(1.13317 0.00864592 0)
(1.13297 0.00780943 -1.07584e-28)
(1.13278 0.00697696 0)
(1.1326 0.00614803 -1.47759e-28)
(1.13243 0.0053222 0)
(1.13227 0.00449901 0)
(1.13214 0.00367804 0)
(1.13202 0.00285886 0)
(1.13194 0.00204106 0)
(1.13188 0.00122425 1.48568e-28)
(1.13185 0.000408019 1.10608e-28)
(0.798245 0.0312771 0)
(0.813289 0.0326994 0)
(0.828672 0.0339724 0)
(0.844286 0.0350954 0)
(0.860026 0.0360689 0)
(0.87579 0.0368942 0)
(0.891483 0.0375734 0)
(0.907012 0.0381101 0)
(0.922295 0.0385084 0)
(0.937255 0.0387734 0)
(0.951822 0.038911 0)
(0.965935 0.0389274 0)
(0.979539 0.0388297 0)
(0.992591 0.038625 0)
(1.00505 0.0383211 0)
(1.01689 0.0379256 0)
(1.02809 0.0374464 0)
(1.03863 0.0368912 0)
(1.0485 0.0362679 0)
(1.05771 0.0355839 0)
(1.06625 0.0348465 0)
(1.07414 0.0340626 0)
(1.08139 0.033239 0)
(1.08802 0.0323817 0)
(1.09405 0.0314965 0)
(1.09951 0.0305887 0)
(1.10442 0.0296632 0)
(1.10881 0.0287243 0)
(1.11271 0.0277758 0)
(1.11616 0.0268212 0)
(1.11918 0.0258634 0)
(1.12181 0.0249051 0)
(1.12408 0.0239483 0)
(1.12601 0.0229949 0)
(1.12765 0.0220462 0)
(1.12902 0.0211036 0)
(1.13014 0.0201677 0)
(1.13105 0.0192392 0)
(1.13176 0.0183185 0)
(1.13231 0.0174058 0)
(1.13271 0.0165012 0)
(1.13298 0.0156046 0)
(1.13315 0.0147158 0)
(1.13322 0.0138346 0)
(1.13322 0.0129606 0)
(1.13317 0.0120933 0)
(1.13306 0.0112324 0)
(1.13292 0.0103775 0)
(1.13275 0.00952795 0)
(1.13257 0.0086834 0)
(1.13238 0.00784334 0)
(1.1322 0.00700728 0)
(1.13201 0.00617478 0)
(1.13184 0.00534537 0)
(1.13169 0.00451861 0)
(1.13156 0.00369406 0)
(1.13144 0.00287132 0)
(1.13136 0.00204996 0)
(1.1313 0.00122958 0)
(1.13127 0.000409797 0)
(0.7993 0.0312627 0)
(0.81424 0.032688 0)
(0.829518 0.0339646 0)
(0.845027 0.0350915 0)
(0.860662 0.0360693 0)
(0.876323 0.0368992 0)
(0.891913 0.0375834 0)
(0.907344 0.0381252 0)
(0.922531 0.0385289 0)
(0.937399 0.0387994 0)
(0.951878 0.0389425 0)
(0.965908 0.0389645 0)
(0.979434 0.0388723 0)
(0.992413 0.0386731 0)
(1.00481 0.0383745 0)
(1.01658 0.0379841 0)
(1.02772 0.0375098 0)
(1.03821 0.0369592 0)
(1.04804 0.0363402 0)
(1.05721 0.0356601 0)
(1.06572 0.0349262 0)
(1.07358 0.0341455 0)
(1.0808 0.0333245 0)
(1.08741 0.0324695 0)
(1.09342 0.0315861 0)
(1.09886 0.0306797 0)
(1.10376 0.0297551 0)
(1.10814 0.0288167 0)
(1.11204 0.0278683 0)
(1.11548 0.0269134 0)
(1.1185 0.0259549 0)
(1.12113 0.0249956 0)
(1.1234 0.0240374 0)
(1.12534 0.0230823 0)
(1.12698 0.0221318 0)
(1.12835 0.0211869 0)
(1.12948 0.0202485 0)
(1.13039 0.0193174 0)
(1.13111 0.0183939 0)
(1.13167 0.0174782 0)
(1.13207 0.0165705 0)
(1.13235 0.0156707 0)
(1.13252 0.0147786 0)
(1.1326 0.013894 0)
(1.13261 0.0130165 0)
(1.13255 0.0121457 0)
(1.13245 0.0112813 0)
(1.13232 0.0104227 0)
(1.13215 0.00956961 0)
(1.13198 0.00872144 0)
(1.13179 0.00787775 0)
(1.13161 0.00703807 0)
(1.13143 0.00620193 0)
(1.13126 0.00536889 0)
(1.13111 0.0045385 0)
(1.13097 0.00371034 0)
(1.13086 0.00288397 0)
(1.13078 0.00205899 0)
(1.13072 0.001235 0)
(1.13069 0.000411603 0)
(0.800358 0.0312499 0)
(0.815194 0.0326784 0)
(0.830367 0.0339584 0)
(0.845771 0.0350893 0)
(0.861302 0.0360714 0)
(0.876859 0.0369059 0)
(0.892348 0.037595 0)
(0.907679 0.038142 0)
(0.922771 0.038551 0)
(0.937547 0.0388269 0)
(0.951938 0.0389756 0)
(0.965885 0.0390031 0)
(0.979334 0.0389165 0)
(0.992239 0.0387227 0)
(1.00456 0.0384294 0)
(1.01628 0.0380441 0)
(1.02736 0.0375746 0)
(1.0378 0.0370286 0)
(1.04758 0.0364138 0)
(1.05671 0.0357376 0)
(1.06518 0.0350072 0)
(1.07301 0.0342296 0)
(1.08021 0.0334113 0)
(1.08679 0.0325585 0)
(1.09279 0.0316769 0)
(1.09822 0.0307719 0)
(1.1031 0.0298482 0)
(1.10748 0.0289102 0)
(1.11137 0.0279619 0)
(1.11481 0.0270067 0)
(1.11783 0.0260476 0)
(1.12045 0.0250871 0)
(1.12273 0.0241276 0)
(1.12467 0.0231708 0)
(1.12631 0.0222183 0)
(1.12769 0.0212712 0)
(1.12882 0.0203304 0)
(1.12974 0.0193966 0)
(1.13046 0.0184702 0)
(1.13102 0.0175516 0)
(1.13143 0.0166407 0)
(1.13172 0.0157377 0)
(1.13189 0.0148422 0)
(1.13198 0.0139541 0)
(1.13199 0.0130731 0)
(1.13194 0.0121988 0)
(1.13184 0.0113308 0)
(1.13171 0.0104686 0)
(1.13155 0.00961186 0)
(1.13138 0.00876003 0)
(1.1312 0.00791266 0)
(1.13101 0.0070693 0)
(1.13084 0.00622949 0)
(1.13067 0.00539276 0)
(1.13052 0.0045587 0)
(1.13039 0.00372685 0)
(1.13028 0.00289681 0)
(1.1302 0.00206816 0)
(1.13014 0.0012405 0)
(1.13011 0.000413437 0)
(0.785642 0.0302077 -1.35142e-22)
(0.786764 0.0301876 1.78467e-23)
(0.787888 0.0301692 2.19576e-22)
(0.789013 0.0301525 -3.01115e-22)
(0.79014 0.0301375 -2.87778e-23)
(0.779494 0.0295236 -7.37282e-23)
(0.780655 0.0295022 2.92255e-23)
(0.781819 0.0294824 2.09985e-23)
(0.782983 0.0294643 1.6127e-22)
(0.78415 0.0294478 4.10493e-23)
(0.773422 0.0288105 -1.49898e-22)
(0.774623 0.0287878 -3.6035e-23)
(0.775826 0.0287668 2.57719e-22)
(0.777031 0.0287474 -2.53863e-22)
(0.778237 0.0287295 1.77123e-22)
(0.767438 0.028068 -4.80301e-23)
(0.768679 0.0280442 -3.80254e-23)
(0.769922 0.0280221 4.8057e-23)
(0.771166 0.0280015 -3.03511e-23)
(0.772411 0.0279825 -1.50367e-22)
(0.761551 0.0272961 2.61672e-22)
(0.762833 0.0272714 7.77106e-23)
(0.764115 0.0272483 -1.78581e-22)
(0.765399 0.0272267 9.39022e-23)
(0.766684 0.0272067 -1.11237e-22)
(0.755775 0.0264951 4.87026e-25)
(0.757096 0.0264696 1.07582e-22)
(0.758419 0.0264457 -6.38576e-23)
(0.759742 0.0264233 -2.07519e-23)
(0.761066 0.0264024 4.44925e-23)
(0.750119 0.0256654 3.61287e-23)
(0.75148 0.0256394 1.07701e-22)
(0.752842 0.0256148 -9.11503e-23)
(0.754204 0.0255917 1.30934e-22)
(0.755568 0.0255701 1.09616e-22)
(0.744596 0.0248075 4.59271e-23)
(0.745996 0.024781 3.85981e-23)
(0.747397 0.024756 -2.20416e-22)
(0.748798 0.0247324 4.22516e-23)
(0.7502 0.0247102 2.50333e-22)
(0.739215 0.0239219 8.5733e-23)
(0.740654 0.0238952 -1.24885e-22)
(0.742093 0.0238699 1.4798e-22)
(0.743533 0.023846 -2.33743e-22)
(0.744973 0.0238233 1.07646e-22)
(0.733989 0.0230093 -1.01707e-22)
(0.735466 0.0229825 -7.6887e-23)
(0.736943 0.0229571 -8.66203e-23)
(0.73842 0.0229329 2.78966e-22)
(0.739898 0.0229101 -1.79274e-22)
(0.728929 0.0220703 -1.82196e-22)
(0.730443 0.0220436 1.74913e-22)
(0.731957 0.0220182 -1.1831e-22)
(0.733471 0.021994 1.85532e-22)
(0.734985 0.0219711 8.48811e-23)
(0.724044 0.0211058 -1.18257e-22)
(0.725594 0.0210793 3.89617e-23)
(0.727144 0.0210541 5.66078e-24)
(0.728694 0.02103 -7.1388e-23)
(0.730244 0.0210072 1.75711e-22)
(0.719346 0.0201165 2.05957e-22)
(0.720931 0.0200904 -1.18403e-22)
(0.722517 0.0200655 -3.74984e-24)
(0.724102 0.0200417 -6.77687e-23)
(0.725686 0.0200191 1.21113e-22)
(0.714845 0.0191033 1.045e-22)
(0.716465 0.0190778 -3.80685e-22)
(0.718084 0.0190534 2.03235e-22)
(0.719703 0.0190301 -4.70482e-23)
(0.721321 0.0190078 5.17242e-23)
(0.710551 0.0180673 -8.81225e-23)
(0.712204 0.0180425 -8.1546e-23)
(0.713856 0.0180187 6.54782e-23)
(0.715507 0.017996 -6.02804e-23)
(0.717157 0.0179743 2.85422e-23)
(0.706474 0.0170094 -1.89108e-22)
(0.708158 0.0169854 1.48328e-22)
(0.709841 0.0169624 2.63061e-23)
(0.711524 0.0169404 -7.64572e-23)
(0.713205 0.0169194 2.9018e-24)
(0.702623 0.0159308 2.43366e-24)
(0.704337 0.0159077 -2.2871e-23)
(0.70605 0.0158857 5.90891e-23)
(0.707762 0.0158646 -7.38121e-23)
(0.709473 0.0158444 -4.56008e-24)
(0.699007 0.0148325 3.66143e-23)
(0.700749 0.0148106 4.82757e-23)
(0.702491 0.0147896 -8.52303e-24)
(0.704231 0.0147695 7.29205e-23)
(0.70597 0.0147503 -1.43092e-22)
(0.695635 0.0137159 -8.68371e-23)
(0.697404 0.0136952 -6.15349e-24)
(0.699171 0.0136754 1.36186e-22)
(0.700938 0.0136565 2.9756e-24)
(0.702703 0.0136383 2.50974e-23)
(0.692514 0.0125821 -1.65299e-23)
(0.694308 0.0125628 3.36595e-23)
(0.6961 0.0125444 -3.51706e-24)
(0.697891 0.0125267 -4.85867e-23)
(0.69968 0.0125097 7.69186e-23)
(0.689652 0.0114325 3.38503e-23)
(0.691469 0.0114148 -7.26853e-24)
(0.693284 0.0113978 2.56059e-23)
(0.695097 0.0113814 1.22675e-23)
(0.696909 0.0113657 -5.12872e-23)
(0.687056 0.0102685 -6.71383e-23)
(0.688893 0.0102524 6.50345e-23)
(0.690729 0.0102369 -3.93901e-23)
(0.692563 0.0102221 4.56647e-23)
(0.694395 0.0102077 -2.4769e-23)
(0.682874 0.00910641 -1.02706e-22)
(0.684732 0.00909147 5.41082e-23)
(0.686588 0.00907712 5.02616e-24)
(0.688442 0.00906327 -2.2895e-23)
(0.690295 0.00904992 -1.59617e-23)
(0.692146 0.00903706 -4.21935e-25)
(0.680811 0.00791589 6.62355e-23)
(0.682686 0.00790285 2.11017e-23)
(0.684558 0.0078903 -4.03223e-23)
(0.686429 0.00787814 9.8779e-24)
(0.688298 0.00786641 -3.32135e-23)
(0.690165 0.0078551 1.53854e-23)
(0.679033 0.0067152 2.97432e-24)
(0.680922 0.00670411 2.73181e-23)
(0.682809 0.0066934 -6.13764e-23)
(0.684694 0.00668301 5.99614e-24)
(0.686577 0.00667297 -2.05544e-23)
(0.688458 0.00666329 3.74816e-23)
(0.677545 0.00550587 -6.13772e-23)
(0.679446 0.00549674 4.96034e-23)
(0.681345 0.00548791 -2.30039e-23)
(0.683242 0.00547935 1.61674e-23)
(0.685137 0.00547107 -2.05054e-23)
(0.68703 0.00546309 1.1134e-23)
(0.67635 0.00428942 3.6239e-25)
(0.678261 0.00428227 1.39904e-23)
(0.680169 0.00427537 7.96921e-24)
(0.682076 0.00426869 -9.57386e-24)
(0.68398 0.00426223 1.42439e-23)
(0.685883 0.00425598 -2.31193e-24)
(0.675451 0.0030674 3.49063e-24)
(0.677369 0.00306228 -2.62461e-24)
(0.679285 0.00305734 1.61556e-23)
(0.681199 0.00305257 -3.18575e-23)
(0.683111 0.00304795 1.80055e-23)
(0.68502 0.00304349 1.31634e-23)
(0.67485 0.0018414 1.67787e-23)
(0.676773 0.00183833 -3.05698e-24)
(0.678694 0.00183538 -1.25141e-23)
(0.680613 0.00183253 -4.17293e-24)
(0.68253 0.00182979 5.01777e-24)
(0.684444 0.00182713 -6.20896e-24)
(0.67455 0.000613001 5.6034e-24)
(0.676475 0.000612011 -1.79461e-24)
(0.678399 0.000611061 -3.14292e-24)
(0.68032 0.000610154 6.11971e-24)
(0.682239 0.000609285 -4.43317e-24)
(0.684156 0.00060845 -8.46742e-27)
)
;

boundaryField
{
    inlet
    {
        type            uniformFixedValue;
        uniformValue    constant (1 0 0);
        value           nonuniform 0();
    }
    outlet
    {
        type            pressureInletOutletVelocity;
        value           nonuniform 0();
    }
    cylinder
    {
        type            fixedValue;
        value           nonuniform 0();
    }
    top
    {
        type            symmetryPlane;
    }
    bottom
    {
        type            symmetryPlane;
    }
    defaultFaces
    {
        type            empty;
    }
    procBoundary58to57
    {
        type            processor;
        value           nonuniform List<vector> 
183
(
(0.672622 -0.000617349 -1.02886e-24)
(0.672925 -0.00184792 -6.08626e-24)
(0.67353 -0.00307608 1.2095e-23)
(0.674436 -0.00430023 -3.40047e-24)
(0.675641 -0.00551881 3.61396e-23)
(0.677142 -0.00673025 -1.31402e-23)
(0.678934 -0.00793299 -7.05666e-23)
(0.682874 -0.0091097 -1.95626e-23)
(0.682874 -0.0091097 -1.95626e-23)
(0.685216 -0.0102886 -2.47773e-23)
(0.687833 -0.0114543 -8.45541e-23)
(0.690718 -0.0126054 3.53666e-23)
(0.693864 -0.0137405 1.15988e-23)
(0.697263 -0.0148584 -1.15089e-22)
(0.700907 -0.0159578 7.97808e-24)
(0.704788 -0.0170374 7.71343e-23)
(0.708897 -0.0180962 2.20572e-22)
(0.713224 -0.0191329 -7.43391e-23)
(0.717759 -0.0201466 -3.66559e-24)
(0.722493 -0.0211363 -8.56907e-24)
(0.727414 -0.0221011 2.2881e-22)
(0.732512 -0.0230402 4.91401e-23)
(0.737777 -0.0239527 1.17544e-22)
(0.743196 -0.024838 8.11808e-23)
(0.748759 -0.0256955 -5.74958e-23)
(0.754454 -0.0265246 -3.23939e-23)
(0.760271 -0.0273248 -2.72134e-22)
(0.766197 -0.0280958 1.50825e-22)
(0.772222 -0.0288372 1.38912e-22)
(0.778334 -0.0295492 1.17034e-22)
(0.784522 -0.0302319 -1.47752e-23)
(0.79509 -0.031333 0)
(0.810447 -0.0327461 0)
(0.826147 -0.0340086 0)
(0.84208 -0.0351198 0)
(0.858136 -0.0360804 0)
(0.874212 -0.0368916 0)
(0.890211 -0.0375559 0)
(0.906038 -0.0380769 0)
(0.921609 -0.0384589 0)
(0.936845 -0.0387072 0)
(0.951675 -0.0388278 0)
(0.966037 -0.0388272 0)
(0.979875 -0.0387125 0)
(0.993144 -0.0384912 0)
(1.00581 -0.0381709 0)
(1.01783 -0.0377597 0)
(1.0292 -0.0372656 0)
(1.03989 -0.0366963 0)
(1.0499 -0.0360599 0)
(1.05922 -0.0353639 0)
(1.06787 -0.0346157 0)
(1.07585 -0.0338223 0)
(1.08318 -0.0329903 0)
(1.08987 -0.0321261 0)
(1.09595 -0.0312353 0)
(1.10145 -0.0303233 0)
(1.10639 -0.0293948 0)
(1.1108 -0.0284542 0)
(1.11472 -0.0275053 0)
(1.11818 -0.0265515 0)
(1.1212 -0.0255957 0)
(1.12383 -0.0246403 0)
(1.12609 -0.0236876 0)
(1.12802 -0.0227391 0)
(1.12964 -0.0217962 0)
(1.131 -0.02086 0)
(1.1321 -0.0199313 0)
(1.13299 -0.0190106 0)
(1.13369 -0.0180982 0)
(1.13422 -0.0171943 0)
(1.1346 -0.0162988 0)
(1.13423 -0.0154751 0)
(1.13423 -0.0154751 0)
(1.13439 -0.0145928 0)
(1.13445 -0.0137183 1.44561e-28)
(1.13445 -0.012851 1.05962e-28)
(1.13438 -0.0119907 0)
(1.13426 -0.0111368 0)
(1.13412 -0.0102889 0)
(1.13394 -0.00944642 0)
(1.13375 -0.00860896 0)
(1.13356 -0.00777601 -1.07584e-28)
(1.13337 -0.00694707 0)
(1.13318 -0.00612168 -1.47759e-28)
(1.13301 -0.00529937 0)
(1.13285 -0.00447971 0)
(1.13271 -0.00366225 0)
(1.1326 -0.00284659 0)
(1.13251 -0.0020323 0)
(1.13245 -0.001219 1.48567e-28)
(1.13242 -0.000406269 1.10608e-28)
(0.795091 0.0313308 0)
(0.810448 0.032744 0)
(0.826148 0.0340066 0)
(0.84208 0.035118 0)
(0.858137 0.0360787 0)
(0.874213 0.03689 0)
(0.890212 0.0375545 0)
(0.90604 0.0380756 0)
(0.921611 0.0384577 0)
(0.936847 0.0387061 0)
(0.951677 0.0388268 0)
(0.966038 0.0388263 0)
(0.979877 0.0387117 0)
(0.993146 0.0384904 0)
(1.00581 0.0381703 0)
(1.01783 0.0377592 0)
(1.0292 0.0372651 0)
(1.03989 0.0366959 0)
(1.0499 0.0360595 0)
(1.05922 0.0353636 0)
(1.06787 0.0346154 0)
(1.07585 0.033822 0)
(1.08318 0.0329902 0)
(1.08987 0.0321259 0)
(1.09595 0.0312352 0)
(1.10145 0.0303232 0)
(1.10639 0.0293947 0)
(1.11081 0.0284541 0)
(1.11472 0.0275053 0)
(1.11818 0.0265515 0)
(1.1212 0.0255957 0)
(1.12383 0.0246403 0)
(1.12609 0.0236876 0)
(1.12802 0.0227391 0)
(1.12965 0.0217962 0)
(1.131 0.02086 0)
(1.13211 0.0199313 0)
(1.133 0.0190106 0)
(1.13369 0.0180982 0)
(1.13422 0.0171943 0)
(1.1346 0.0162989 0)
(1.13486 0.0154117 0)
(1.13501 0.0145327 0)
(1.13507 0.0136614 0)
(1.13506 0.0127975 0)
(1.13498 0.0119406 0)
(1.13486 0.0110901 0)
(1.13471 0.0102456 0)