/*--------------------------------*- C++ -*----------------------------------*\
  =========                 |
  \\      /  F ield         | OpenFOAM: The Open Source CFD Toolbox
   \\    /   O peration     | Website:  https://openfoam.org
    \\  /    A nd           | Version:  7
     \\/     M anipulation  |
\*---------------------------------------------------------------------------*/
FoamFile
{
    version     2.0;
    format      ascii;
    class       surfaceScalarField;
    location    "80";
    object      phi;
}
// * * * * * * * * * * * * * * * * * * * * * * * * * * * * * * * * * * * * * //

dimensions      [0 3 -1 0 0 0 0];

internalField   nonuniform List<scalar> 
275
(
-4.82871e-05
-0.00213165
0.00199773
0.000107457
-0.00206902
0.00191327
-0.00192047
0.00174683
0.000281099
-0.000249632
-0.0022544
-0.000100837
-0.00221781
-0.00209217
7.08655e-05
-0.000442817
-0.0023623
-0.000303934
-0.0023567
-0.00225378
-0.000142329
-0.000621705
-0.00245005
-0.000499738
-0.00247866
-0.00239924
-0.000354283
-0.000775682
-0.00251178
-0.000678047
-0.0025763
-0.00252194
-0.000555339
-0.000888985
-0.00254311
-0.000822475
-0.00264281
-0.00261472
-0.000729699
-0.000941585
-0.00090886
-0.00267553
-0.00267493
-0.000848647
-0.000910001
-0.00267926
-0.00270809
-0.00087684
-0.000806472
-0.0026662
-0.00272665
-0.000787917
-0.000596593
-0.00274525
-0.000577988
-0.00277049
-0.000267115
0.000125413
0.000877777
0.00284999
0.000525449
0.00265181
0.0021593
-3.87977e-05
0.000209573
0.00247518
0.00201561
-0.000305445
-7.65927e-05
0.00230178
0.00185359
-0.000556714
-0.000338578
0.00211558
0.00143061
-0.000962016
0.00166689
-0.000792996
-0.000580151
0.00190847
0.00123672
-0.00116821
0.00145722
-0.00101349
-0.000803779
0.00168084
0.00102695
-0.00135993
0.00123136
-0.00121791
-0.00101175
0.00143933
0.000808688
-0.00153724
0.000998138
-0.00140736
-0.00120681
0.0011932
0.000588556
-0.00170142
0.000765564
-0.00158436
-0.00139223
0.000950981
0.00037119
-0.00185438
0.000538901
-0.00175208
-0.00157133
0.000718004
0.000158797
0.000319996
0.000495497
-0.00468518
0.00299169
-0.00643422
-0.00822017
-0.0100072
0.00117528
-0.0117379
0.0198167
0.000872073
-0.0133396
0.0189134
0.000546075
-0.0147344
0.0177906
0.000237296
-0.0158485
0.0164737
-1.68857e-05
-0.0166195
0.0150359
-0.000142023
-0.0170555
0.0136187
-0.000182876
-0.0171397
0.0122988
-0.000140777
-0.0168735
0.0111284
-2.82242e-05
-0.0162174
0.0101236
0.00018339
-0.0152939
0.00931202
0.00045603
-0.0142029
0.00867695
0.000768921
-0.013034
0.0081881
0.00110051
-0.0118626
0.00781049
0.00142621
-0.0107441
0.00750514
0.00172304
-0.00971374
0.00722888
0.00198579
-0.0088009
0.00694379
0.00222622
0.00660699
0.00680417
0.00533813
0.00375202
0.002496
0.00159616
0.00100032
0.000627106
0.000399125
0.000259854
0.000177161
0.000127608
9.6752e-05
7.60287e-05
6.30439e-05
5.15483e-05
4.41132e-05
3.49003e-05
2.69685e-05
1.72211e-05
9.63741e-06
-4.38661e-05
0.0211536
-6.36872e-06
0.0211016
1.25955e-05
0.0210371
2.17913e-05
0.0209955
2.15931e-05
0.0209587
1.78669e-05
0.0209399
1.01474e-05
0.0209209
0.0209058
-0.0117948
0.0149768
-0.00871631
-0.00661981
-0.00500663
-0.00382935
-0.00292021
-0.00221437
-0.00166322
-0.00123433
-0.000907246
-0.000655784
-0.000469584
-0.000327818
-0.000226642
-0.000150507
-9.88766e-05
-6.23192e-05
-3.80238e-05
-2.08421e-05
-8.83949e-06
0.00346506
0.00825979
0.0158768
0.0035149
0.00894876
0.0167885
0.00358075
0.00959069
0.0176809
0.00362852
0.010133
0.0185383
0.00364968
0.0105279
0.0193496
0.0036453
0.0107329
0.0200999
0.00361726
0.0107216
0.0207748
0.00356811
0.0104931
0.0213642
0.00350269
0.0100712
0.0218634
0.00342685
0.00949433
0.022274
0.00334183
0.00880431
0.0225989
0.00324784
0.00803165
0.0228415
0.00314497
0.00718845
0.023005
0.00303359
0.00627044
0.0230931
0.00291449
0.00526441
0.0231105
0.00278887
0.00415638
0.00293735
0.00160574
0.000166805
-0.00136975
)
;

boundaryField
{
    inlet
    {
        type            calculated;
        value           nonuniform 0();
    }
    outlet
    {
        type            calculated;
        value           nonuniform 0();
    }
    cylinder
    {
        type            calculated;
        value           nonuniform 0();
    }
    top
    {
        type            symmetryPlane;
        value           uniform 0;
    }
    bottom
    {
        type            symmetryPlane;
        value           uniform 0;
    }
    defaultFaces
    {
        type            empty;
        value           nonuniform 0();
    }
    procBoundary32to30
    {
        type            processor;
        value           nonuniform List<scalar> 
12
(
-0.00289863
-0.00298283
-0.00412511
-0.00420387
-0.0212078
-0.0211391
-0.0210561
-0.0210047
-0.0209585
-0.0209362
-0.0209132
-0.0208957
)
;
    }
    procBoundary32to31
    {
        type            processor;
        value           nonuniform List<scalar> 
81
(
0.000182209
0.000372379
0.000550717
0.000709457
0.000837407
0.000920315
0.000942495
-0.00254402
0.000913728
0.000793416
0.000582019
-0.00265163
0.00029235
-0.000101014
-0.00279489
-0.000627924
-0.00110686
-0.00154706
-0.00193781
-0.00227194
-0.00254466
-0.00275341
-0.00422268
-0.00417084
-0.0040446
-0.00385025
-0.00360599
-0.00333963
-0.00127136
-0.00308074
-0.00245641
-0.00229948
-0.000246721
-0.00187378
-0.00174896
-0.00160232
0.000742397
-0.00121099
-0.00103052
-0.000835232
-0.000631375
-0.00042438
-0.000218232
-1.54433e-05
-0.00804429
-0.0184699
-0.0210818
-0.0219281
-0.022224
-0.0223116
-0.0223004
-0.0222432
-0.0221369
-0.0220177
-0.0218976
-0.0217737
-0.021648
-0.0215266
-0.02143
-0.0213352
-0.0212688
-0.021197
-0.0211492
-0.0211091
-0.0210923
-0.0210719
-0.0259315
-0.00759974
-0.0248815
-0.024128
-0.0233457
-0.0228393
-0.0224268
-0.0221227
-0.0218853
-0.0217105
-0.0215493
-0.0214363
-0.0213184
9.80143e-05
-0.0212409
)
;
    }
    procBoundary32to33
    {
        type            processor;
        value           nonuniform List<scalar> 
86
(
0.00197459
0.0018199
0.00164362
0.00143278
-0.0205177
0.00187629
0.00177537
0.00166889
0.00155418
0.0014209
0.0012752
0.00113694
0.00102968
0.000976569
0.000994966
0.0010911
0.00125777
0.00147812
0.00173156
0.0019993
0.00227088
0.00256302
0.0182727
0.0225478
0.0235142
0.02348
0.0232114
0.0228962
0.0226164
0.0223649
0.0221569
0.0219803
0.0218232
0.0216789
0.0215473
0.021443
0.0213467
0.0212762
0.0212062
0.0211571
0.0211188
0.0210999
0.0210815
0.0227495
0.021803
0.0220315
0.0217326
0.021662
0.0215177
0.0214168
0.0213342
0.0212816
0.0212222
0.0211848
0.0211322
0.0210992
0.0210524
0.0210255
0.0209855
0.020959
0.0209344
0.0209227
0.0209089
0.020897
0.00256508
0.00260318
0.00268834
0.00277115
0.00283835
0.00289504
0.00294232
0.00297873
0.00300343
0.00301626
0.00301693
0.00300525
0.00298148
0.00294552
0.00289708
0.00283601
0.0230634
0.00265837
0.00252481
0.00238991
0.00225456
0.00211743
)
;
    }
}


// ************************************************************************* //
