/*--------------------------------*- C++ -*----------------------------------*\
  =========                 |
  \\      /  F ield         | OpenFOAM: The Open Source CFD Toolbox
   \\    /   O peration     | Website:  https://openfoam.org
    \\  /    A nd           | Version:  7
     \\/     M anipulation  |
\*---------------------------------------------------------------------------*/
FoamFile
{
    version     2.0;
    format      ascii;
    class       surfaceScalarField;
    location    "10";
    object      phi;
}
// * * * * * * * * * * * * * * * * * * * * * * * * * * * * * * * * * * * * * //

dimensions      [0 3 -1 0 0 0 0];

internalField   nonuniform List<scalar> 
644
(
0.000181214
-3.79032e-05
-2.86481e-09
0.000219648
-3.8432e-05
-1.77472e-09
-3.8762e-05
-6.06702e-10
0.00018785
-7.5674e-05
0.000226141
-7.6723e-05
-7.73768e-05
0.000201048
-0.000113174
0.000239054
-0.000114729
-0.000115696
0.000220659
-0.000150268
0.000258237
-0.000152306
-0.000153574
0.000246463
-0.000186819
0.000283471
-0.000189315
-0.000190865
0.000278171
-0.00022269
0.000314468
-0.000225612
-0.000227425
0.000315427
0.000350874
-0.000261058
0.000386561
-0.000263112
-0.000264121
0.000392273
-0.000295515
0.00042695
-0.000297789
-0.000298903
0.000438197
-0.000328845
0.000471728
-0.00033132
-0.000332533
0.000488126
-0.000360915
0.00052038
-0.000363574
-0.000364882
0.000541494
-0.000391595
0.000572347
-0.000394427
-0.000395831
0.000597702
-0.000420758
0.000627035
-0.00042376
-0.000425268
0.000656116
-0.000448287
0.000683818
-0.000451461
-0.000453089
0.000716081
-0.000474068
0.00074205
-0.00047743
-0.000479202
0.000776924
0.000801069
-0.000501575
0.000825393
-0.000503525
-0.00050409
0.000860206
-0.000523819
0.000882672
-0.000525992
-0.000526747
0.000918788
-0.000544096
0.000939345
-0.000546549
-0.000547552
0.000976152
-0.000562359
0.000994761
-0.000565158
-0.000566476
0.00103165
-0.000578577
0.00104829
-0.000581799
-0.00058351
0.00108465
0.00109932
-0.000596471
0.00111447
-0.000598657
-0.000599487
0.00114727
-0.00060919
0.00116056
-0.000611944
-0.000613296
0.00119153
-0.000619996
0.001203
-0.000623414
-0.000625378
0.00123159
-0.000628941
0.0012413
-0.000633126
-0.000635797
0.00126734
0.00127536
-0.000641143
-0.000644618
0.00528829
-0.000646483
0.00529539
-0.000651715
-0.00065544
0.00597325
-0.000636515
0.00596567
-0.000644133
-0.000650091
0.00664867
-0.000612101
0.00662717
-0.000622633
-0.00063131
0.00729352
-0.000575207
0.00725987
-0.000588982
-0.000600695
0.00789006
-0.000528616
0.00784679
-0.00054571
-0.000560555
0.0084248
-0.000475543
0.00837487
-0.000495777
-0.000513622
0.0088892
-0.000419223
0.00883564
-0.000442211
-0.00046273
0.00927978
-0.00036257
0.00922535
-0.000387787
-0.000410518
0.00959756
-0.000307945
0.00954457
-0.000334803
-0.000359218
0.00984717
-0.000257057
0.00979734
-0.000284974
-0.000310533
0.0100357
-0.000210972
0.00999016
-0.000239415
-0.000265619
0.0101717
-0.000170195
0.010131
-0.00019871
-0.000225122
0.0102639
-0.000134792
0.0102282
-0.000163012
-0.000189274
0.010321
-0.000104517
0.0102901
-0.000132162
-0.000157993
0.0103507
-7.89345e-05
0.0103243
-0.000105799
-0.000130991
0.0103597
-5.75162e-05
0.0103373
-8.34592e-05
-0.000107862
0.0103535
-3.97136e-05
0.0103347
-6.46407e-05
-8.81526e-05
0.0103366
-2.50049e-05
0.0103208
-4.88576e-05
-7.14109e-05
0.0103125
-1.29221e-05
0.0102993
-3.56662e-05
-5.72182e-05
0.0102837
-3.062e-06
0.0102727
-2.46794e-05
-4.5204e-05
0.0102522
4.91385e-06
0.010243
-1.55687e-05
-3.5051e-05
0.0102193
1.12849e-05
0.0102118
-8.06103e-06
-2.64931e-05
0.0101861
1.628e-05
0.01018
-1.93145e-06
-1.93096e-05
0.0101534
2.00864e-05
0.0101485
3.00525e-06
-1.33181e-05
0.0101216
2.28593e-05
0.0101177
6.90242e-06
-8.36739e-06
0.010091
2.47279e-05
0.010088
9.8882e-06
-4.33031e-06
0.0100619
2.5802e-05
0.0100597
1.20719e-05
-1.09905e-06
0.0100346
2.61764e-05
0.0100331
1.35476e-05
1.41987e-06
0.0100091
2.59344e-05
0.0100082
1.43981e-05
3.30864e-06
0.00998548
2.51499e-05
0.00998519
1.46975e-05
4.64072e-06
0.0099639
2.389e-05
0.00996409
1.45124e-05
5.48289e-06
0.00994438
2.22153e-05
0.00994499
1.39046e-05
5.89604e-06
0.00992695
2.01825e-05
0.00992793
1.29304e-05
5.93743e-06
0.00991165
1.78441e-05
0.00991294
1.16431e-05
5.66036e-06
0.00989851
1.52493e-05
0.00990006
1.00928e-05
5.1154e-06
0.00988753
1.24449e-05
0.00988929
8.32707e-06
4.35069e-06
0.00987873
9.47557e-06
0.00988067
6.39156e-06
3.41249e-06
0.00987213
6.38411e-06
0.00987419
4.33023e-06
2.34589e-06
0.00986772
3.21207e-06
0.00986987
2.18565e-06
1.19422e-06
0.00986552
0.00986771
3.79144e-05
0.0100088
3.59942e-05
0.0099847
3.36107e-05
0.00996265
3.08239e-05
0.00994271
2.76896e-05
0.00992492
2.42595e-05
0.00990932
2.05815e-05
0.00989591
1.67014e-05
0.00988473
1.26626e-05
0.00987576
8.50603e-06
0.00986904
4.27222e-06
0.00986455
0.00986231
-0.000646479
0.00528828
0.00064114
-0.00063651
0.00597323
-0.000612095
0.00664865
-0.000575201
0.0072935
-0.00052861
0.00789005
-0.000475536
0.00842479
-0.000419216
0.00888919
-0.000362563
0.00927977
-0.000307937
0.00959755
-0.000257049
0.00984717
-0.000210965
0.0100357
-0.000170188
0.0101717
-0.000134785
0.0102639
-0.000104511
0.010321
-7.89285e-05
0.0103507
-5.75105e-05
0.0103597
-3.97081e-05
0.0103535
-2.49998e-05
0.0103366
-1.29173e-05
0.0103125
-3.05753e-06
0.0102837
4.91802e-06
0.0102522
1.12887e-05
0.0102193
1.62836e-05
0.0101862
2.00897e-05
0.0101534
2.28623e-05
0.0101216
2.47307e-05
0.010091
2.58045e-05
0.0100619
2.61787e-05
0.0100346
2.59363e-05
0.0100091
2.51518e-05
0.00998549
2.38915e-05
0.00996391
2.22167e-05
0.00994438
2.01838e-05
0.00992696
1.78452e-05
0.00991166
1.52502e-05
0.00989851
1.24456e-05
0.00988753
9.4761e-06
0.00987873
6.38447e-06
0.00987213
3.21225e-06
0.00986773
0.00986552
-0.000651709
0.00529537
0.000644613
-0.000644127
0.00596565
-0.000622625
0.00662715
-0.000588974
0.00725985
-0.000545702
0.00784678
-0.000495769
0.00837486
-0.000442203
0.00883563
-0.000387779
0.00922534
-0.000334795
0.00954457
-0.000284966
0.00979734
-0.000239408
0.00999016
-0.000198703
0.010131
-0.000163005
0.0102282
-0.000132155
0.0102901
-0.000105793
0.0103243
-8.34531e-05
0.0103373
-6.4635e-05
0.0103347
-4.88523e-05
0.0103208
-3.56612e-05
0.0102993
-2.46747e-05
0.0102727
-1.55643e-05
0.010243
-8.05698e-06
0.0102118
-1.9277e-06
0.01018
3.0087e-06
0.0101485
6.90553e-06
0.0101177
9.8911e-06
0.010088
1.20745e-05
0.0100597
1.355e-05
0.0100331
1.44003e-05
0.0100082
1.46994e-05
0.00998519
1.45143e-05
0.00996409
1.39061e-05
1.29316e-05
1.16442e-05
1.00937e-05
8.3278e-06
6.39199e-06
4.3306e-06
2.18584e-06
-0.000655432
-0.000650083
-0.000631301
-0.000600686
-0.000560545
-0.000513613
-0.00046272
-0.000410509
-0.000359209
-0.000310525
-0.00026561
-0.000225114
-0.000189266
-0.000157986
-0.000130984
-0.000107856
-8.81465e-05
-7.14052e-05
-5.72128e-05
-4.51991e-05
-3.50465e-05
-2.64889e-05
-1.93057e-05
-1.33145e-05
-8.36404e-06
-4.32731e-06
-1.09619e-06
1.42235e-06
3.31099e-06
4.64272e-06
0.00126734
0.000628939
0.00127536
0.000633122
0.000635792
0.00123159
0.000619994
0.0012413
0.00062341
0.000625373
0.00119153
0.000609188
0.001203
0.00061194
0.00061329
0.00114727
0.000596469
0.00116056
0.000598654
0.00108465
0.000578577
0.00109932
0.000581797
0.000583506
0.00103164
0.000562359
0.00104828
0.000565155
0.000566472
0.000976147
0.000544096
0.000994756
0.000546547
0.000547548
0.000918783
0.000523819
0.000939339
0.00052599
0.000526743
0.0008602
0.000501575
0.000882667
0.000503523
0.000504086
0.000776919
0.00047407
0.000801064
0.00047743
0.000825388
0.0004792
0.000716076
0.000448289
0.000742045
0.000451462
0.000453087
0.000656111
0.000420761
0.000683813
0.00042376
0.000425266
0.000597697
0.000391597
0.000627029
0.000394428
0.000395829
0.00054149
0.000360918
0.000572342
0.000363575
0.00036488
0.000488121
0.000328848
0.000520376
0.000331321
0.000332531
0.000438193
0.000295518
0.000471724
0.00029779
0.000298902
0.00039227
0.000261061
0.000426946
0.000263113
0.00026412
0.000315424
0.000222696
0.00035087
0.000225615
0.000386558
0.000227426
0.000278168
0.000186824
0.000314465
0.000189318
0.000190866
0.000246461
0.000150273
0.000283469
0.00015231
0.000153575
0.000220658
0.00011318
0.000258235
0.000114732
0.000115698
0.000201047
7.56797e-05
0.000239052
7.67266e-05
7.7378e-05
0.000187849
3.79089e-05
0.00022614
3.84356e-05
3.87632e-05
0.000181214
0.000219647
)
;

boundaryField
{
    inlet
    {
        type            calculated;
        value           nonuniform 0();
    }
    outlet
    {
        type            calculated;
        value           nonuniform 0();
    }
    cylinder
    {
        type            calculated;
        value           nonuniform 0();
    }
    top
    {
        type            symmetryPlane;
        value           uniform 0;
    }
    bottom
    {
        type            symmetryPlane;
        value           uniform 0;
    }
    defaultFaces
    {
        type            empty;
        value           nonuniform 0();
    }
    procBoundary30to29
    {
        type            processor;
        value           nonuniform List<scalar> 
137
(
-0.000143308
-0.000150079
-0.000163548
-0.000183566
-0.000209912
-0.000242299
-0.000280372
-0.000257745
-0.000357817
-0.000404867
-0.000456056
-0.000510815
-0.000568538
-0.000628588
-0.0006903
-0.000752992
-0.000498
-0.000837962
-0.000898511
-0.000957889
-0.00101543
-0.00107049
-0.000592738
-0.00113455
-0.00118073
-0.00122265
-0.0012602
-0.000636088
-0.00528296
-0.00598322
-0.00667308
-0.00733041
-0.00793665
-0.00847788
-0.00894552
-0.00933643
-0.00965218
-0.00989806
-0.0100818
-0.0102125
-0.0102993
-0.0103513
-0.0103763
-0.0103811
-0.0103713
-0.0103513
-0.0103246
-0.0102935
-0.0102601
-0.0102257
-0.0101911
-0.0101572
-0.0101243
-0.0100928
-0.010063
-0.010035
-0.0100088
-0.0099847
-0.00996264
-0.00994271
-0.00992492
-0.00990932
-0.00989591
-0.00988472
-0.00987576
-0.00986904
-0.00986455
-0.00986231
-0.0100074
-0.00998278
-0.00996026
-0.00993992
-0.00992179
-0.00990589
-0.00989224
-0.00988084
-0.00987173
-0.00986488
-0.00986032
-0.00985804
-0.00528294
-0.000636086
-0.0059832
-0.00667306
-0.0073304
-0.00793664
-0.00847786
-0.00894551
-0.00933642
-0.00965218
-0.00989805
-0.0100818
-0.0102125
-0.0102993
-0.0103513
-0.0103763
-0.0103811
-0.0103713
-0.0103513
-0.0103246
-0.0102935
-0.0102601
-0.0102257
-0.0101911
-0.0101572
-0.0101243
-0.0100928
-0.010063
-3.93044e-05
-0.010035
-0.00126019
-0.00122264
-0.00118072
-0.00113455
-0.000592738
-0.00107049
-0.00101542
-0.000957884
-0.000898505
-0.000837957
-0.000498002
-0.000752987
-0.000690295
-0.000628583
-0.000568533
-0.00051081
-0.000456051
-0.000404863
-0.000357813
-0.000257751
-0.000280369
-0.000242297
-0.00020991
-0.000183564
-0.000163547
-0.000150079
-0.000143307
)
;
    }
    procBoundary30to31
    {
        type            processor;
        value           nonuniform List<scalar> 
137
(
0.00025841
0.000264756
0.000277374
0.000296115
0.000320762
0.000351028
0.000228318
0.000422364
0.000461732
0.000505357
0.000552729
0.000603296
0.000656471
0.000711639
0.000768163
0.000479625
0.000849858
0.000905329
0.00096015
0.00101369
0.00106532
0.000583904
0.00113005
0.00117437
0.00121508
0.00125172
0.00128418
0.000646682
0.00530415
0.00596032
0.00660838
0.00722925
0.00780665
0.00832794
0.00878475
0.00917314
0.00949327
0.00974866
0.00994525
0.0100905
0.0101924
0.0102589
0.0102973
0.0103142
0.010315
0.0103041
0.0102851
0.0102607
0.0102329
0.0102032
0.0101728
0.0101425
0.0101127
0.010084
0.0100565
0.0100306
0.0100063
0.00998385
0.00996325
0.00994458
0.00992789
0.00991322
0.0099006
0.00989006
0.00988161
0.00987526
0.00987102
0.0098689
0.00994499
0.00992793
0.00991294
0.00990006
0.0098893
0.00988067
0.00987419
0.00986987
0.00986771
0.00530413
0.000646675
0.0059603
0.00660837
0.00722924
0.00780664
0.00832793
0.00878474
0.00917313
0.00949327
0.00974865
0.00994525
0.0100905
0.0101924
0.0102589
0.0102973
0.0103142
0.010315
0.0103041
0.0102851
0.0102607
0.0102329
0.0102032
0.0101728
0.0101425
0.0101127
0.010084
0.0100565
0.0100306
0.0100063
0.00998386
5.48442e-06
0.00996325
0.00128418
0.00125172
0.00121508
0.00117436
0.000599482
0.00111447
0.00106532
0.00101368
0.000960144
0.000905324
0.000849852
0.000479621
0.000768158
0.000711634
0.000656466
0.000603291
0.000552725
0.000505353
0.000461729
0.000422361
0.000228316
0.000351025
0.00032076
0.000296113
0.000277372
0.000264755
0.00025841
)
;
    }
}


// ************************************************************************* //
