/*--------------------------------*- C++ -*----------------------------------*\
  =========                 |
  \\      /  F ield         | OpenFOAM: The Open Source CFD Toolbox
   \\    /   O peration     | Website:  https://openfoam.org
    \\  /    A nd           | Version:  7
     \\/     M anipulation  |
\*---------------------------------------------------------------------------*/
FoamFile
{
    version     2.0;
    format      ascii;
    class       volScalarField;
    location    "45";
    object      p;
}
// * * * * * * * * * * * * * * * * * * * * * * * * * * * * * * * * * * * * * //

dimensions      [0 2 -2 0 0 0 0];

internalField   nonuniform List<scalar> 
183
(
0.0939697
0.110216
0.109951
0.125024
0.125909
0.125431
0.141535
0.141347
0.140592
0.159668
0.158911
0.157521
0.177919
0.175962
0.198467
0.195819
0.220589
0.21716
0.240041
0.235329
0.264437
0.25885
0.283819
0.276921
0.310154
0.302318
0.328971
0.319833
0.356738
0.346636
0.374396
0.363048
0.39061
0.378113
0.418688
0.405285
0.43275
0.418335
0.444979
0.429682
0.455302
0.439258
0.480269
0.463655
0.447007
0.4871
0.469988
0.452883
0.491711
0.474264
0.456851
0.494072
0.476455
0.494169
0.476551
0.492004
0.474549
0.45713
0.487589
0.470465
0.453349
0.464323
0.447659
0.456161
0.440097
0.446031
0.430708
0.433994
0.419548
0.420125
0.406687
0.3922
0.379664
0.376175
0.364782
0.358707
0.348554
0.331072
0.321879
0.312439
0.30454
0.286216
0.279253
0.267009
0.261348
0.242703
0.237912
0.223413
0.219895
0.21594
0.201351
0.198607
0.180838
0.178776
0.161836
0.160323
0.144564
0.144227
0.143318
0.127978
0.12866
0.128056
0.113025
0.112579
0.0966504
0.0794091
0.0406193
0.0258315
0.0143197
0.0111617
0.00506411
-0.00313718
-0.00195702
0.00253648
-0.00236311
-0.0102037
-0.00966776
-0.00411896
0.00126461
-0.00111445
-0.00640129
-0.0042845
0.00308394
0.00100713
-0.00416898
0.00266165
0.100397
0.0614399
0.0415497
0.0266126
0.0193213
0.0127629
0.00417766
0.00246655
0.00343848
0.0014793
-0.00506494
-0.00562923
-0.00396607
0.000821268
-0.00100813
-0.00300163
-0.00452111
0.00266708
0.000203333
-0.00121318
0.00170719
0.103077
0.0622207
0.0422107
0.0282813
0.0183582
0.00742775
0.00581782
0.00374769
0.00287037
0.00166496
0.00215826
0.00323903
0.00443848
0.00105953
-0.00380515
-0.00369185
0.000203077
-0.000602621
-0.00526568
-0.00530164
-0.00055271
0.0819089
0.0412028
0.0264282
0.0161876
0.00796734
-0.00111819
3.93595e-05
0.00173699
-0.00086197
0.000527541
0.00124297
0.00361796
0.00475898
-0.0014667
-0.00741866
)
;

boundaryField
{
    inlet
    {
        type            zeroGradient;
    }
    outlet
    {
        type            fixedValue;
        value           nonuniform 0();
    }
    cylinder
    {
        type            zeroGradient;
    }
    top
    {
        type            symmetryPlane;
    }
    bottom
    {
        type            symmetryPlane;
    }
    defaultFaces
    {
        type            empty;
    }
    procBoundary5to4
    {
        type            processor;
        value           nonuniform List<scalar> 
106
(
0.140461
0.113487
0.140461
0.155757
0.155757
0.17343
0.17343
0.192689
0.192689
0.21329
0.21329
0.230259
0.252885
0.252885
0.269741
0.29416
0.29416
0.310474
0.336269
0.336269
0.351534
0.365541
0.391745
0.391745
0.403864
0.4144
0.423291
0.430485
0.43594
0.439625
0.458887
0.458887
0.45898
0.45898
0.439898
0.436395
0.431121
0.424109
0.415401
0.405048
0.393112
0.393112
0.367053
0.353224
0.338137
0.338137
0.312466
0.296322
0.296322
0.272009
0.255312
0.255312
0.232767
0.232767
0.211579
0.195385
0.195385
0.176141
0.176141
0.158445
0.158445
0.143093
0.143093
0.11642
0.113487
0.0767178
0.0538458
0.036849
0.0258473
0.0195618
0.0116073
0.00690312
0.00415088
0.00521609
0.000591396
-0.00115275
-0.00334591
0.000313552
-0.000865667
0.000608902
-0.00428486
0.0019955
-0.000735747
0.00180575
0.000483973
0.11642
0.0779652
0.0548888
0.0381066
0.0275605
0.0160579
0.0115572
0.00572939
0.00704443
0.00268917
0.00340453
0.00258934
0.00374133
0.00317808
-5.7624e-05
-0.00130791
-0.000539067
-0.000868319
-0.00179243
-0.00228156
-0.00123762
)
;
    }
    procBoundary5to6
    {
        type            processor;
        value           nonuniform List<scalar> 
115
(
0.0784341
0.0940128
0.0940128
0.108232
0.108232
0.12389
0.12389
0.141116
0.141116
0.159849
0.179334
0.179334
0.200593
0.200593
0.223445
0.244277
0.244277
0.269493
0.290292
0.290292
0.317512
0.33774
0.33774
0.366403
0.385414
0.402878
0.402878
0.431767
0.446932
0.460123
0.471258
0.471258
0.496639
0.504014
0.50899
0.511536
0.511636
0.509291
0.504515
0.480953
0.480953
0.472139
0.461201
0.448208
0.433242
0.404509
0.404509
0.387241
0.368425
0.339898
0.339898
0.31986
0.292758
0.292758
0.272142
0.247022
0.247022
0.226361
0.203576
0.203576
0.182361
0.182361
0.162714
0.162714
0.144282
0.127018
0.127018
0.111269
0.111269
0.0969004
0.0969004
0.0811958
0.063696
0.0275699
0.0162602
0.00675014
0.00499817
-0.000112167
-0.00690054
-0.00506039
-0.000133079
-0.00520068
-0.0122904
-0.0113446
-0.00522777
-0.000185888
-0.00232597
-0.00788133
-0.00478562
0.00183727
0.000187938
-0.00559587
0.00173327
-0.00593734
0.000661987
-0.000515035
-0.00846782
-0.00810042
-6.67346e-05
0.0662361
0.0283642
0.0170248
0.00843625
0.00175914
-0.00546974
-0.00360884
-0.0010352
-0.00347173
-0.00145633
-0.000499361
0.00189534
0.00296273
-0.0034851
-0.00593734
-0.00896627
)
;
    }
}


// ************************************************************************* //
