/*--------------------------------*- C++ -*----------------------------------*\
  =========                 |
  \\      /  F ield         | OpenFOAM: The Open Source CFD Toolbox
   \\    /   O peration     | Website:  https://openfoam.org
    \\  /    A nd           | Version:  7
     \\/     M anipulation  |
\*---------------------------------------------------------------------------*/
FoamFile
{
    version     2.0;
    format      ascii;
    class       volScalarField;
    location    "45";
    object      p;
}
// * * * * * * * * * * * * * * * * * * * * * * * * * * * * * * * * * * * * * //

dimensions      [0 2 -2 0 0 0 0];

internalField   nonuniform List<scalar> 
59400
(
-0.313415
-0.315141
-0.316614
-0.317816
-0.318877
-0.319805
-0.320589
-0.321225
-0.321714
-0.322056
-0.322251
-0.322299
-0.3222
-0.321955
-0.321566
-0.321032
-0.320357
-0.319541
-0.318587
-0.317497
-0.316275
-0.314923
-0.313445
-0.311846
-0.310128
-0.308298
-0.30636
-0.304315
-0.302161
-0.299938
-0.313763
-0.315474
-0.316934
-0.318125
-0.319174
-0.32009
-0.320862
-0.321486
-0.321965
-0.322296
-0.32248
-0.322517
-0.322407
-0.322152
-0.321752
-0.321209
-0.320523
-0.319697
-0.318734
-0.317634
-0.316403
-0.315042
-0.313555
-0.311947
-0.310222
-0.308384
-0.30644
-0.304389
-0.302222
-0.299995
-0.314459
-0.316141
-0.317574
-0.31874
-0.319765
-0.320658
-0.321407
-0.322009
-0.322464
-0.322774
-0.322936
-0.322951
-0.322821
-0.322545
-0.322124
-0.321561
-0.320855
-0.32001
-0.319027
-0.317908
-0.316658
-0.315279
-0.313775
-0.31215
-0.310409
-0.308556
-0.306599
-0.304536
-0.302341
-0.300109
-0.3155
-0.317138
-0.318531
-0.319661
-0.320651
-0.321508
-0.322222
-0.32279
-0.323213
-0.323488
-0.323618
-0.323602
-0.323439
-0.323132
-0.322681
-0.322086
-0.321351
-0.320476
-0.319464
-0.318317
-0.317039
-0.315632
-0.314102
-0.312451
-0.310686
-0.30881
-0.306834
-0.304753
-0.302516
-0.300275
-0.316882
-0.318463
-0.319803
-0.320885
-0.321828
-0.322639
-0.323306
-0.323829
-0.324206
-0.324438
-0.324524
-0.324465
-0.324261
-0.323912
-0.323419
-0.322784
-0.322009
-0.321094
-0.320043
-0.318858
-0.317542
-0.316099
-0.314533
-0.312848
-0.31105
-0.309144
-0.307142
-0.305036
-0.302744
-0.30049
-0.318602
-0.320111
-0.321386
-0.322409
-0.323293
-0.324045
-0.324656
-0.325122
-0.325443
-0.32562
-0.325652
-0.325539
-0.325282
-0.324881
-0.324337
-0.323651
-0.322825
-0.321861
-0.320761
-0.319528
-0.318165
-0.316676
-0.315065
-0.313337
-0.311497
-0.309552
-0.307518
-0.30538
-0.303019
-0.300748
-0.320654
-0.322079
-0.323276
-0.324227
-0.325041
-0.325724
-0.326266
-0.326665
-0.32692
-0.327031
-0.326998
-0.326821
-0.3265
-0.326036
-0.32543
-0.324683
-0.323797
-0.322773
-0.321615
-0.320323
-0.318903
-0.317358
-0.315692
-0.313912
-0.312021
-0.310029
-0.307955
-0.305779
-0.303334
-0.30104
-0.323033
-0.32436
-0.325466
-0.326336
-0.327069
-0.327671
-0.328134
-0.328454
-0.328631
-0.328666
-0.328557
-0.328305
-0.327911
-0.327374
-0.326696
-0.325877
-0.32492
-0.323827
-0.322599
-0.321239
-0.319752
-0.31814
-0.316411
-0.314568
-0.312617
-0.310569
-0.308447
-0.306227
-0.303688
-0.301338
-0.325731
-0.326948
-0.327953
-0.32873
-0.329371
-0.329882
-0.330254
-0.330485
-0.330574
-0.330521
-0.330326
-0.329989
-0.32951
-0.32889
-0.328129
-0.327229
-0.326191
-0.325017
-0.323709
-0.322271
-0.320706
-0.319019
-0.317214
-0.315299
-0.313278
-0.311165
-0.308987
-0.306722
-0.304101
-0.301596
-0.328743
-0.329837
-0.330729
-0.331402
-0.331941
-0.33235
-0.332621
-0.332752
-0.332742
-0.332592
-0.3323
-0.331867
-0.331293
-0.330579
-0.329726
-0.328733
-0.327604
-0.326339
-0.324942
-0.323415
-0.321762
-0.319987
-0.318097
-0.316099
-0.313998
-0.311809
-0.309567
-0.307232
-0.304446
-0.302025
-0.33206
-0.333021
-0.333788
-0.334348
-0.334774
-0.33507
-0.33523
-0.335251
-0.335132
-0.334873
-0.334474
-0.333935
-0.333256
-0.332438
-0.331481
-0.330386
-0.329155
-0.32779
-0.326292
-0.324665
-0.322913
-0.321041
-0.319054
-0.316962
-0.31477
-0.312494
-0.310179
-0.307772
-0.304829
-0.302395
-0.335676
-0.336491
-0.337124
-0.33756
-0.337863
-0.338037
-0.338075
-0.337975
-0.337737
-0.337359
-0.336843
-0.336188
-0.335394
-0.334461
-0.333391
-0.332183
-0.33084
-0.329363
-0.327755
-0.326017
-0.324155
-0.322174
-0.32008
-0.317882
-0.315586
-0.313212
-0.310814
-0.308326
-0.305212
-0.30273
-0.339584
-0.340242
-0.34073
-0.341032
-0.341202
-0.341244
-0.34115
-0.340919
-0.340551
-0.340046
-0.339402
-0.338621
-0.337701
-0.336644
-0.33545
-0.33412
-0.332655
-0.331056
-0.329326
-0.327468
-0.325485
-0.323383
-0.321169
-0.318853
-0.316441
-0.313957
-0.311462
-0.308882
-0.305577
-0.303039
-0.343775
-0.344266
-0.344598
-0.344758
-0.344786
-0.344684
-0.344449
-0.344078
-0.343571
-0.342927
-0.342146
-0.341228
-0.340174
-0.338983
-0.337656
-0.336193
-0.334596
-0.332865
-0.331003
-0.329013
-0.326898
-0.324664
-0.322318
-0.319871
-0.31733
-0.314721
-0.312117
-0.30943
-0.305914
-0.303317
-0.348242
-0.348556
-0.348723
-0.34873
-0.348606
-0.348353
-0.347966
-0.347445
-0.346789
-0.345997
-0.34507
-0.344006
-0.342807
-0.341473
-0.340003
-0.338398
-0.336659
-0.334787
-0.332784
-0.330651
-0.328393
-0.326014
-0.323524
-0.320932
-0.318247
-0.315498
-0.312769
-0.309961
-0.306208
-0.3035
-0.352979
-0.353105
-0.353097
-0.352942
-0.352657
-0.352242
-0.351695
-0.351015
-0.3502
-0.349251
-0.348168
-0.34695
-0.345598
-0.344111
-0.342489
-0.340733
-0.338843
-0.33682
-0.334665
-0.33238
-0.329967
-0.327434
-0.324786
-0.322035
-0.319191
-0.316285
-0.313414
-0.31047
-0.306454
-0.303646
-0.357977
-0.357906
-0.357713
-0.357387
-0.356932
-0.356347
-0.35563
-0.354781
-0.353799
-0.352684
-0.351436
-0.350055
-0.34854
-0.346892
-0.34511
-0.343195
-0.341146
-0.338963
-0.336647
-0.3342
-0.331623
-0.328922
-0.326105
-0.323181
-0.320161
-0.317079
-0.314048
-0.310946
-0.306632
-0.303696
-0.363231
-0.362951
-0.362564
-0.362059
-0.361425
-0.36066
-0.359765
-0.358738
-0.35758
-0.35629
-0.354869
-0.353316
-0.351631
-0.349814
-0.347865
-0.345782
-0.343566
-0.341215
-0.338731
-0.336112
-0.333362
-0.330483
-0.327482
-0.324371
-0.321158
-0.31788
-0.314667
-0.311383
-0.30673
-0.30363
-0.368733
-0.368234
-0.367643
-0.36695
-0.366128
-0.365175
-0.364092
-0.36288
-0.361537
-0.360065
-0.358463
-0.35673
-0.354868
-0.352875
-0.35075
-0.348493
-0.346103
-0.343578
-0.340917
-0.33812
-0.335187
-0.33212
-0.328926
-0.325612
-0.322187
-0.318692
-0.31527
-0.311776
-0.306739
-0.303434
-0.374475
-0.373748
-0.372943
-0.372053
-0.371034
-0.369885
-0.368606
-0.3672
-0.365666
-0.364003
-0.362212
-0.360293
-0.358246
-0.35607
-0.353765
-0.351328
-0.348757
-0.346052
-0.34321
-0.340228
-0.337105
-0.333842
-0.330443
-0.326913
-0.323259
-0.319522
-0.315863
-0.312123
-0.306647
-0.303085
-0.380448
-0.379483
-0.378456
-0.37736
-0.376137
-0.374782
-0.373301
-0.371693
-0.369959
-0.368099
-0.366113
-0.364001
-0.361764
-0.359399
-0.356907
-0.354285
-0.351531
-0.348641
-0.345613
-0.342442
-0.339125
-0.335659
-0.332046
-0.328287
-0.324387
-0.320383
-0.316454
-0.312426
-0.306443
-0.302555
-0.386646
-0.385432
-0.384172
-0.382863
-0.381428
-0.37986
-0.378168
-0.376351
-0.374411
-0.372347
-0.37016
-0.367849
-0.365416
-0.362859
-0.360176
-0.357365
-0.354424
-0.351347
-0.348131
-0.344769
-0.341256
-0.337584
-0.333751
-0.329755
-0.325591
-0.321296
-0.31706
-0.312694
-0.306117
-0.301808
-0.393057
-0.391584
-0.390085
-0.388554
-0.386898
-0.385111
-0.3832
-0.381168
-0.379015
-0.376741
-0.374348
-0.371834
-0.369201
-0.366447
-0.36357
-0.360569
-0.357439
-0.354175
-0.350771
-0.347219
-0.343509
-0.339632
-0.335579
-0.33134
-0.326901
-0.322291
-0.317709
-0.312944
-0.305665
-0.300805
-0.399672
-0.397931
-0.396182
-0.394422
-0.392539
-0.390525
-0.388391
-0.386137
-0.383766
-0.381277
-0.378672
-0.375951
-0.373114
-0.37016
-0.367089
-0.363895
-0.360577
-0.357127
-0.353538
-0.349799
-0.345899
-0.341823
-0.337554
-0.333074
-0.328355
-0.323411
-0.318444
-0.313209
-0.305089
-0.299493
-0.406479
-0.40446
-0.402454
-0.400458
-0.398341
-0.396094
-0.39373
-0.391249
-0.388655
-0.385947
-0.383126
-0.380194
-0.377151
-0.373997
-0.370728
-0.367344
-0.363839
-0.360206
-0.356437
-0.35252
-0.348439
-0.344175
-0.339703
-0.334995
-0.330002
-0.324717
-0.319332
-0.31355
-0.304412
-0.297808
-0.413463
-0.411159
-0.408888
-0.40665
-0.404293
-0.401808
-0.399208
-0.396497
-0.393675
-0.390743
-0.387705
-0.384559
-0.381309
-0.377952
-0.374487
-0.370913
-0.367224
-0.363414
-0.359474
-0.355389
-0.351142
-0.346709
-0.342059
-0.337148
-0.331908
-0.326297
-0.320483
-0.314088
-0.303729
-0.295721
-0.420612
-0.418014
-0.415472
-0.412986
-0.410385
-0.407657
-0.404817
-0.40187
-0.398817
-0.39566
-0.3924
-0.38904
-0.38558
-0.382021
-0.378362
-0.3746
-0.370732
-0.366752
-0.36265
-0.358412
-0.35402
-0.349446
-0.344652
-0.339584
-0.334148
-0.328262
-0.322053
-0.315027
-0.30325
-0.293247
-0.427908
-0.425011
-0.422192
-0.419454
-0.416603
-0.413627
-0.410545
-0.407359
-0.404073
-0.400687
-0.397205
-0.393629
-0.389959
-0.386199
-0.382346
-0.3784
-0.374359
-0.370216
-0.365964
-0.36159
-0.357077
-0.352397
-0.34751
-0.342351
-0.336806
-0.330748
-0.324237
-0.316583
-0.303049
-0.290047
-0.435335
-0.432132
-0.429032
-0.426038
-0.422934
-0.419709
-0.41638
-0.412954
-0.409432
-0.405817
-0.402111
-0.398318
-0.39444
-0.390478
-0.386434
-0.382308
-0.378097
-0.3738
-0.36941
-0.364919
-0.360312
-0.355566
-0.350648
-0.345493
-0.33998
-0.333953
-0.327361
-0.319126
-0.303341
-0.285666
-0.442874
-0.439362
-0.435977
-0.432723
-0.429365
-0.425887
-0.422311
-0.418643
-0.414884
-0.411038
-0.407109
-0.403099
-0.399012
-0.394851
-0.390618
-0.386314
-0.381939
-0.377494
-0.372977
-0.368384
-0.363708
-0.35894
-0.354059
-0.349029
-0.343772
-0.338185
-0.332175
-0.324486
-0.309421
-0.29024
-0.450505
-0.446682
-0.443009
-0.439495
-0.43588
-0.432149
-0.428324
-0.424413
-0.420418
-0.416342
-0.412188
-0.407963
-0.403668
-0.399309
-0.394888
-0.390408
-0.385872
-0.381284
-0.376646
-0.371961
-0.367233
-0.362468
-0.357673
-0.35286
-0.348056
-0.343341
-0.33885
-0.334502
-0.331817
-0.341773
-0.458209
-0.454071
-0.45011
-0.446335
-0.442463
-0.438478
-0.434406
-0.430253
-0.426021
-0.421715
-0.417339
-0.412898
-0.408397
-0.40384
-0.399232
-0.394578
-0.389883
-0.385153
-0.380394
-0.375618
-0.370837
-0.366071
-0.361353
-0.356731
-0.352302
-0.348247
-0.344749
-0.342115
-0.343766
-0.356211
-0.465964
-0.461512
-0.457262
-0.453225
-0.449098
-0.44486
-0.440541
-0.436146
-0.43168
-0.427145
-0.422548
-0.417893
-0.413187
-0.408434
-0.40364
-0.398811
-0.393955
-0.38908
-0.384197
-0.379321
-0.374473
-0.369682
-0.364995
-0.360479
-0.356257
-0.35252
-0.349404
-0.347193
-0.349283
-0.358872
-0.473747
-0.468982
-0.464445
-0.460148
-0.455766
-0.451277
-0.446713
-0.442079
-0.43738
-0.432619
-0.427803
-0.422936
-0.418026
-0.413077
-0.408097
-0.403093
-0.398073
-0.393048
-0.388033
-0.383043
-0.378106
-0.373255
-0.368542
-0.36404
-0.359871
-0.356207
-0.35312
-0.350819
-0.352379
-0.35937
-0.481537
-0.476459
-0.471637
-0.467082
-0.462448
-0.457712
-0.452905
-0.448035
-0.443106
-0.438122
-0.433089
-0.428013
-0.4229
-0.417756
-0.41259
-0.407408
-0.402221
-0.39704
-0.391879
-0.38676
-0.381707
-0.376757
-0.371961
-0.367387
-0.363143
-0.359369
-0.356078
-0.353401
-0.354085
-0.358718
-0.489309
-0.483922
-0.478817
-0.474008
-0.469125
-0.464144
-0.459098
-0.453996
-0.448841
-0.443637
-0.438391
-0.433107
-0.427794
-0.422456
-0.417102
-0.411741
-0.406381
-0.401035
-0.395718
-0.390449
-0.385253
-0.380166
-0.375232
-0.37051
-0.366089
-0.362071
-0.358418
-0.3552
-0.354898
-0.357473
-0.497038
-0.491346
-0.485962
-0.480902
-0.475774
-0.470553
-0.465274
-0.459944
-0.454567
-0.449148
-0.443691
-0.438203
-0.432691
-0.42716
-0.421619
-0.416074
-0.410536
-0.405016
-0.399528
-0.39409
-0.388726
-0.383464
-0.378343
-0.373409
-0.36873
-0.364376
-0.360268
-0.356433
-0.355148
-0.355965
-0.504701
-0.498706
-0.493047
-0.487741
-0.482374
-0.476918
-0.471409
-0.465857
-0.460264
-0.454633
-0.448971
-0.443282
-0.437573
-0.43185
-0.426119
-0.420389
-0.414666
-0.408963
-0.403291
-0.397665
-0.392105
-0.386635
-0.381284
-0.376087
-0.371091
-0.366337
-0.36172
-0.357242
-0.355012
-0.35429
-0.512268
-0.505976
-0.500047
-0.4945
-0.488898
-0.483213
-0.477482
-0.471714
-0.46591
-0.460073
-0.454209
-0.448323
-0.44242
-0.436505
-0.430584
-0.424664
-0.418751
-0.412855
-0.406984
-0.401152
-0.395373
-0.389665
-0.384048
-0.378545
-0.373186
-0.36799
-0.362835
-0.357712
-0.35458
-0.352476
-0.51971
-0.513126
-0.506933
-0.501151
-0.495322
-0.489415
-0.483468
-0.477489
-0.47148
-0.465443
-0.459383
-0.453303
-0.447208
-0.441102
-0.43499
-0.428877
-0.422767
-0.416667
-0.410585
-0.404529
-0.398508
-0.392535
-0.386622
-0.380779
-0.375024
-0.369358
-0.36365
-0.357889
-0.353897
-0.350534
-0.526998
-0.520128
-0.513677
-0.507666
-0.501617
-0.495494
-0.489339
-0.483157
-0.47695
-0.470719
-0.464467
-0.458197
-0.451913
-0.445617
-0.439312
-0.433002
-0.426689
-0.420376
-0.414069
-0.407772
-0.40149
-0.395229
-0.388992
-0.382783
-0.376607
-0.370453
-0.364186
-0.3578
-0.352984
-0.348462
-0.534098
-0.526948
-0.520246
-0.514014
-0.507751
-0.501422
-0.495065
-0.488689
-0.482291
-0.475872
-0.469434
-0.462979
-0.456508
-0.450022
-0.443523
-0.437012
-0.430488
-0.423954
-0.41741
-0.410857
-0.404294
-0.397723
-0.391142
-0.384544
-0.377929
-0.371275
-0.36445
-0.357454
-0.351847
-0.346253
-0.540975
-0.533551
-0.526606
-0.520161
-0.513694
-0.507166
-0.500617
-0.494054
-0.487472
-0.480872
-0.474254
-0.467618
-0.460962
-0.454288
-0.447593
-0.440877
-0.434137
-0.427371
-0.420578
-0.413754
-0.406895
-0.399996
-0.393051
-0.386048
-0.37898
-0.37182
-0.36444
-0.356849
-0.350484
-0.343897
-0.547589
-0.539901
-0.532721
-0.526071
-0.519409
-0.512692
-0.50596
-0.499219
-0.492462
-0.485688
-0.478895
-0.472081
-0.465245
-0.458382
-0.45149
-0.444564
-0.437601
-0.430596
-0.423542
-0.416433
-0.409263
-0.402021
-0.394697
-0.387276
-0.379745
-0.372075
-0.364147
-0.355978
-0.348884
-0.341378
-0.553901
-0.545958
-0.538552
-0.531708
-0.52486
-0.517964
-0.511059
-0.504148
-0.497225
-0.490284
-0.483323
-0.476336
-0.46932
-0.46227
-0.455178
-0.44804
-0.440848
-0.433594
-0.426269
-0.418864
-0.411368
-0.40377
-0.396054
-0.388203
-0.380204
-0.372026
-0.363558
-0.354827
-0.347034
-0.338677
-0.559868
-0.551679
-0.544059
-0.53703
-0.530008
-0.522943
-0.515875
-0.508805
-0.501724
-0.494624
-0.4875
-0.480345
-0.473153
-0.465915
-0.458623
-0.451268
-0.44384
-0.436329
-0.428723
-0.421011
-0.413178
-0.405211
-0.397093
-0.388806
-0.380335
-0.37165
-0.362653
-0.353378
-0.344915
-0.335772
-0.565443
-0.557021
-0.549197
-0.541996
-0.53481
-0.527588
-0.520369
-0.51315
-0.505919
-0.498668
-0.491388
-0.484069
-0.476703
-0.469278
-0.461784
-0.454208
-0.44654
-0.438764
-0.430869
-0.422838
-0.414658
-0.406313
-0.397785
-0.389056
-0.380112
-0.370926
-0.36141
-0.351609
-0.342507
-0.332641
-0.570579
-0.561936
-0.553922
-0.54656
-0.539224
-0.531857
-0.524498
-0.51714
-0.50977
-0.502376
-0.494946
-0.487468
-0.479931
-0.472319
-0.464621
-0.456822
-0.448906
-0.440859
-0.432665
-0.424309
-0.415773
-0.407041
-0.398097
-0.388924
-0.379508
-0.369827
-0.359807
-0.349498
-0.339786
-0.329258
-0.575225
-0.566376
-0.558186
-0.550677
-0.543203
-0.535705
-0.528217
-0.520733
-0.513234
-0.505705
-0.498131
-0.490499
-0.482793
-0.474996
-0.467092
-0.459065
-0.450898
-0.442573
-0.434074
-0.425383
-0.416484
-0.40736
-0.397996
-0.388378
-0.378494
-0.368327
-0.357817
-0.34702
-0.336728
-0.325594
-0.579329
-0.57029
-0.56194
-0.554298
-0.546702
-0.539085
-0.531482
-0.523882
-0.516264
-0.508609
-0.500899
-0.493118
-0.485245
-0.477263
-0.469153
-0.460896
-0.452472
-0.443864
-0.435053
-0.426022
-0.416753
-0.407233
-0.397448
-0.387385
-0.377039
-0.366398
-0.355412
-0.344148
-0.333306
-0.321623
-0.582838
-0.573626
-0.565133
-0.557374
-0.54967
-0.54195
-0.534246
-0.526542
-0.518816
-0.511043
-0.503204
-0.495278
-0.487242
-0.479076
-0.470759
-0.462268
-0.453585
-0.444688
-0.43556
-0.426183
-0.416542
-0.406624
-0.396417
-0.385914
-0.375113
-0.36401
-0.352567
-0.340856
-0.329495
-0.317315
-0.585696
-0.576332
-0.567713
-0.559853
-0.552058
-0.54425
-0.536458
-0.528665
-0.52084
-0.51296
-0.504999
-0.496932
-0.488737
-0.480388
-0.471863
-0.463138
-0.454191
-0.445002
-0.435553
-0.425827
-0.415811
-0.405494
-0.394868
-0.383931
-0.372686
-0.361134
-0.349252
-0.337117
-0.32527
-0.312644
-0.587849
-0.578352
-0.569627
-0.561685
-0.553815
-0.545935
-0.538071
-0.5302
-0.522289
-0.51431
-0.506234
-0.498034
-0.489682
-0.481152
-0.472419
-0.463457
-0.454245
-0.444762
-0.434989
-0.424913
-0.414521
-0.403807
-0.392767
-0.381403
-0.369725
-0.357742
-0.345442
-0.332907
-0.320604
-0.307581
-0.589238
-0.579632
-0.570823
-0.562817
-0.55489
-0.546955
-0.539034
-0.531099
-0.523114
-0.515046
-0.506863
-0.498534
-0.49003
-0.481321
-0.472379
-0.463181
-0.453702
-0.443922
-0.433825
-0.423398
-0.412633
-0.401525
-0.390078
-0.378299
-0.366203
-0.353806
-0.34111
-0.328199
-0.315473
-0.302101
-0.589809
-0.580118
-0.571246
-0.563196
-0.555231
-0.547259
-0.539296
-0.531311
-0.523264
-0.515117
-0.506835
-0.498384
-0.489731
-0.480845
-0.471698
-0.462262
-0.452516
-0.44244
-0.43202
-0.421244
-0.410108
-0.398615
-0.38677
-0.374587
-0.362089
-0.349299
-0.336232
-0.322971
-0.309855
-0.296179
-0.589506
-0.579755
-0.570844
-0.562771
-0.554787
-0.546796
-0.538807
-0.530788
-0.522691
-0.514475
-0.506102
-0.497535
-0.488738
-0.479678
-0.470327
-0.460656
-0.450644
-0.440274
-0.429531
-0.418411
-0.406912
-0.39504
-0.382809
-0.370238
-0.357357
-0.344196
-0.330783
-0.3172
-0.303727
-0.289793
-0.588273
-0.57849
-0.569564
-0.561489
-0.553507
-0.545515
-0.537518
-0.529478
-0.521344
-0.51307
-0.504615
-0.495939
-0.487003
-0.477774
-0.468221
-0.458318
-0.448043
-0.43738
-0.426321
-0.414862
-0.403007
-0.390769
-0.378166
-0.365225
-0.351982
-0.338475
-0.324742
-0.310867
-0.297072
-0.282923
-0.586058
-0.57627
-0.567354
-0.5593
-0.551341
-0.543367
-0.535379
-0.527333
-0.519175
-0.510855
-0.502327
-0.493548
-0.48448
-0.475086
-0.465336
-0.455203
-0.444669
-0.43372
-0.42235
-0.410561
-0.398362
-0.38577
-0.372812
-0.359522
-0.34594
-0.332113
-0.31809
-0.303953
-0.289871
-0.27555
-0.582807
-0.573045
-0.564166
-0.556156
-0.54824
-0.540303
-0.532342
-0.524307
-0.516138
-0.507782
-0.49919
-0.490318
-0.481123
-0.47157
-0.461628
-0.451272
-0.440484
-0.429256
-0.417584
-0.405475
-0.392945
-0.380017
-0.366723
-0.353105
-0.33921
-0.325093
-0.31081
-0.296443
-0.282109
-0.267658
-0.578473
-0.568766
-0.559952
-0.552008
-0.544157
-0.536278
-0.528361
-0.520352
-0.512186
-0.503806
-0.495161
-0.486203
-0.476889
-0.467184
-0.457056
-0.446483
-0.43545
-0.423951
-0.411988
-0.399574
-0.386728
-0.373482
-0.359875
-0.345954
-0.331775
-0.317397
-0.302888
-0.288324
-0.273775
-0.259234
-0.573008
-0.563387
-0.554665
-0.546812
-0.539049
-0.531247
-0.523393
-0.515425
-0.507276
-0.498884
-0.490196
-0.481162
-0.471738
-0.461888
-0.451582
-0.440801
-0.429532
-0.417774
-0.405533
-0.392828
-0.379686
-0.366143
-0.352247
-0.338052
-0.323617
-0.309012
-0.29431
-0.279584
-0.264857
-0.250267
-0.566368
-0.556867
-0.548264
-0.540526
-0.532872
-0.525168
-0.517394
-0.509484
-0.501366
-0.492975
-0.484255
-0.475155
-0.46563
-0.455644
-0.445171
-0.434191
-0.422698
-0.410694
-0.398191
-0.385214
-0.371796
-0.357981
-0.343823
-0.329382
-0.314726
-0.299926
-0.285067
-0.270216
-0.255349
-0.24075
-0.558515
-0.549164
-0.54071
-0.533111
-0.525588
-0.518003
-0.510327
-0.502491
-0.494419
-0.486042
-0.477301
-0.468145
-0.458529
-0.448419
-0.437788
-0.426623
-0.414919
-0.402684
-0.389938
-0.376709
-0.363039
-0.348979
-0.334588
-0.319934
-0.305089
-0.290132
-0.275153
-0.260213
-0.245245
-0.230675
-0.549411
-0.540244
-0.531968
-0.524531
-0.517161
-0.509715
-0.502156
-0.494411
-0.486399
-0.478049
-0.4693
-0.4601
-0.450405
-0.440181
-0.429406
-0.418069
-0.40617
-0.393723
-0.380753
-0.367296
-0.3534
-0.339123
-0.324532
-0.309699
-0.294701
-0.279624
-0.264563
-0.249573
-0.234541
-0.22004
-0.539027
-0.530075
-0.522005
-0.514755
-0.507561
-0.500273
-0.49285
-0.485212
-0.477274
-0.468965
-0.460222
-0.45099
-0.441229
-0.430905
-0.42
-0.408506
-0.39643
-0.383791
-0.37062
-0.35696
-0.342867
-0.328405
-0.313646
-0.29867
-0.283558
-0.268399
-0.253296
-0.238295
-0.223239
-0.208844
-0.527335
-0.518632
-0.510796
-0.503757
-0.49676
-0.48965
-0.48238
-0.474865
-0.467018
-0.458764
-0.450039
-0.44079
-0.430975
-0.420566
-0.409547
-0.397915
-0.385682
-0.372873
-0.359526
-0.345692
-0.331432
-0.316818
-0.301927
-0.286845
-0.271657
-0.256457
-0.241352
-0.226379
-0.211338
-0.197087
-0.514314
-0.505892
-0.498318
-0.491513
-0.484735
-0.477823
-0.470724
-0.463349
-0.455608
-0.447423
-0.438731
-0.429478
-0.419626
-0.409148
-0.398032
-0.386282
-0.373913
-0.360959
-0.347464
-0.333485
-0.319091
-0.304359
-0.289374
-0.274225
-0.259002
-0.243801
-0.228734
-0.213831
-0.198844
-0.184772
-0.49995
-0.49184
-0.484554
-0.478006
-0.471468
-0.464774
-0.457864
-0.450645
-0.443024
-0.434924
-0.42628
-0.417039
-0.407165
-0.396636
-0.385443
-0.373595
-0.361116
-0.348043
-0.334428
-0.320336
-0.305843
-0.29103
-0.275989
-0.260814
-0.245596
-0.230435
-0.215448
-0.200655
-0.185763
-0.171903
-0.484231
-0.476465
-0.469494
-0.463226
-0.456946
-0.450488
-0.443785
-0.436738
-0.429255
-0.421254
-0.412673
-0.403461
-0.393584
-0.383021
-0.371773
-0.359851
-0.347286
-0.334122
-0.32042
-0.306249
-0.291691
-0.276837
-0.26178
-0.246618
-0.231447
-0.216369
-0.201503
-0.18686
-0.1721
-0.158487
-0.467155
-0.459761
-0.453132
-0.447164
-0.441163
-0.43496
-0.428479
-0.421622
-0.414291
-0.406406
-0.397905
-0.388739
-0.378876
-0.368301
-0.357019
-0.345048
-0.332425
-0.319202
-0.305444
-0.291229
-0.276645
-0.261787
-0.246754
-0.231648
-0.216566
-0.201611
-0.186908
-0.172456
-0.157868
-0.144533
-0.448724
-0.441731
-0.435467
-0.429819
-0.424117
-0.418186
-0.411945
-0.405292
-0.39813
-0.390378
-0.381973
-0.37287
-0.363042
-0.352478
-0.341186
-0.329192
-0.31654
-0.303288
-0.289509
-0.275287
-0.260715
-0.245893
-0.230926
-0.215917
-0.200965
-0.186176
-0.171675
-0.157455
-0.143079
-0.130049
-0.428945
-0.422381
-0.416506
-0.411198
-0.405812
-0.400169
-0.394185
-0.387753
-0.380775
-0.373171
-0.364881
-0.355862
-0.346089
-0.335557
-0.324281
-0.312293
-0.299643
-0.286396
-0.27263
-0.258438
-0.243917
-0.229172
-0.214311
-0.19944
-0.184661
-0.170076
-0.155818
-0.141868
-0.127737
-0.115013
-0.407835
-0.401724
-0.396261
-0.391311
-0.386257
-0.38092
-0.375208
-0.369012
-0.362235
-0.354797
-0.346639
-0.337723
-0.328027
-0.317553
-0.30632
-0.294367
-0.28175
-0.268541
-0.254826
-0.240701
-0.226271
-0.211643
-0.19693
-0.182238
-0.167671
-0.153332
-0.139353
-0.125711
-0.111845
-0.0993843
-0.385413
-0.379781
-0.374749
-0.370175
-0.36547
-0.360453
-0.355028
-0.349084
-0.342524
-0.335269
-0.327263
-0.31847
-0.308875
-0.298483
-0.287321
-0.275433
-0.262883
-0.249748
-0.236121
-0.222102
-0.207801
-0.193331
-0.178806
-0.164334
-0.150018
-0.135963
-0.122303
-0.109004
-0.09546
-0.0834191
-0.361708
-0.356576
-0.351994
-0.347812
-0.343471
-0.33879
-0.333666
-0.32799
-0.321662
-0.314608
-0.306773
-0.298126
-0.288655
-0.278372
-0.26731
-0.255519
-0.243069
-0.230044
-0.216541
-0.202668
-0.188537
-0.174264
-0.159966
-0.145752
-0.131725
-0.117991
-0.104685
-0.0917589
-0.0785622
-0.0669976
-0.336752
-0.332141
-0.328027
-0.324251
-0.320288
-0.315956
-0.311149
-0.305754
-0.299676
-0.292841
-0.285197
-0.276717
-0.267396
-0.25725
-0.246317
-0.234656
-0.222341
-0.209462
-0.196122
-0.182433
-0.168511
-0.154474
-0.140441
-0.126522
-0.112821
-0.0994404
-0.0865207
-0.0740015
-0.0611823
-0.0500735
-0.310584
-0.306513
-0.302883
-0.299527
-0.295954
-0.291984
-0.287507
-0.28241
-0.276597
-0.269998
-0.262566
-0.254277
-0.245131
-0.23515
-0.224378
-0.21288
-0.200735
-0.18804
-0.174902
-0.161435
-0.14776
-0.133997
-0.120265
-0.106677
-0.0933333
-0.0803383
-0.0678335
-0.0557505
-0.0433353
-0.0326813
-0.28325
-0.279736
-0.276603
-0.273679
-0.270508
-0.266914
-0.262779
-0.257993
-0.252463
-0.246119
-0.23892
-0.230845
-0.2219
-0.212114
-0.201535
-0.190234
-0.178296
-0.165822
-0.152924
-0.139717
-0.126327
-0.112875
-0.0994796
-0.0862538
-0.0732973
-0.0607143
-0.0486489
-0.0370255
-0.0250353
-0.0148398
-0.254799
-0.251856
-0.249234
-0.246752
-0.243995
-0.240787
-0.237008
-0.232548
-0.227315
-0.221246
-0.2143
-0.206464
-0.197748
-0.188186
-0.177833
-0.166764
-0.15507
-0.142855
-0.130234
-0.117328
-0.10426
-0.0911532
-0.0781273
-0.0652936
-0.0527506
-0.0406019
-0.028995
-0.0178484
-0.00629763
0.00344051
-0.225286
-0.222927
-0.220827
-0.218797
-0.216464
-0.213652
-0.210241
-0.206121
-0.201203
-0.195427
-0.188757
-0.181184
-0.172725
-0.163418
-0.153324
-0.142523
-0.13111
-0.119192
-0.106888
-0.0943194
-0.0816104
-0.068884
-0.0562585
-0.0438438
-0.0317366
-0.0200394
-0.00890321
0.00175709
0.0128627
0.0221542
-0.194772
-0.193008
-0.191439
-0.18987
-0.187969
-0.185564
-0.182533
-0.178766
-0.174179
-0.168714
-0.162342
-0.155059
-0.146885
-0.137864
-0.128064
-0.117567
-0.106473
-0.0948919
-0.0829436
-0.0707509
-0.0584376
-0.046125
-0.0339294
-0.0219583
-0.0103053
0.000928854
0.0115896
0.0217643
0.0324315
0.0413019
-0.163319
-0.162161
-0.161131
-0.16003
-0.158569
-0.156581
-0.15394
-0.15054
-0.1463
-0.141167
-0.135115
-0.128146
-0.120286
-0.111584
-0.102112
-0.091956
-0.0812196
-0.0700153
-0.058463
-0.0466855
-0.0348049
-0.02294
-0.0112036
0.000300933
0.0114845
0.0222496
0.0324391
0.0421414
0.0523942
0.060892
-0.130997
-0.130452
-0.129969
-0.129342
-0.128329
-0.126766
-0.124526
-0.121506
-0.117629
-0.112846
-0.107137
-0.100508
-0.0929911
-0.0846406
-0.0755313
-0.0657546
-0.0554156
-0.0446284
-0.0335131
-0.0221909
-0.0107815
0.000600465
0.0118475
0.0228623
0.0335627
0.0438575
0.053589
0.0628471
0.0727331
0.0809415
-0.0978782
-0.0979523
-0.0980219
-0.0978748
-0.097315
-0.0961851
-0.0943569
-0.0917295
-0.0882306
-0.0838169
-0.0784731
-0.0722108
-0.0650666
-0.0570998
-0.0483893
-0.0390297
-0.0291281
-0.0187996
-0.00816345
0.00266115
0.0135586
0.0244197
0.0351441
0.0456433
0.0558455
0.0656703
0.0749647
0.0838234
0.0934221
0.101484
-0.0640371
-0.0647374
-0.0653629
-0.0657002
-0.0656
-0.0649105
-0.0635032
-0.0612808
-0.0581759
-0.0541502
-0.0491938
-0.0433235
-0.0365812
-0.0290306
-0.0207543
-0.01185
-0.00242645
0.00740093
0.0175142
0.0277969
0.0381382
0.0484359
0.0585985
0.0685492
0.0782311
0.0875816
0.0964613
0.104978
0.114409
0.122571
-0.0295543
-0.030884
-0.0320696
-0.032895
-0.0332591
-0.0330167
-0.0320393
-0.0302337
-0.0275376
-0.0239182
-0.0193709
-0.013918
-0.00760623
-0.000503772
0.00730313
0.0157141
0.0246192
0.0339026
0.0434479
0.053142
0.0628791
0.0725645
0.0821171
0.0914743
0.100598
0.109454
0.117926
0.126153
0.135562
0.144187
0.00548814
0.00352596
0.00177748
0.0004611
-0.000371343
-0.000581954
-4.2877e-05
0.00133492
0.00360794
0.00680351
0.0109206
0.0159318
0.0217852
0.0284084
0.0357118
0.0435925
0.0519391
0.060636
0.069568
0.0786248
0.0877056
0.0967228
0.105606
0.114307
0.122812
0.13112
0.139162
0.147122
0.156635
0.166139
0.0410044
0.0384076
0.0360946
0.0342852
0.032981
0.0323122
0.0324054
0.033345
0.0351816
0.0379366
0.0416037
0.0461497
0.0515184
0.0576329
0.0644002
0.0717153
0.0794654
0.0875345
0.0958084
0.104179
0.112549
0.120835
0.128977
0.136938
0.144728
0.152391
0.159935
0.167628
0.177388
0.188622
0.0769056
0.0736732
0.0707948
0.0684911
0.0667127
0.0655813
0.0652219
0.0657138
0.0671015
0.0694006
0.072599
0.0766583
0.0815174
0.0870957
0.093297
0.100014
0.107132
0.114535
0.12211
0.129747
0.137352
0.144842
0.152159
0.15927
0.166193
0.173009
0.179831
0.187046
0.196999
0.211898
0.1131
0.109232
0.105788
0.10299
0.100736
0.099138
0.0983203
0.0983562
0.0992838
0.101113
0.103825
0.107378
0.111706
0.116723
0.122331
0.128421
0.134876
0.141581
0.148419
0.155283
0.162075
0.16871
0.175119
0.181253
0.187095
0.192687
0.198128
0.203572
0.210794
0.226338
0.149493
0.14499
0.140982
0.13769
0.134959
0.132893
0.131612
0.131184
0.131642
0.132989
0.1352
0.138229
0.142005
0.14644
0.151432
0.15687
0.162637
0.168616
0.174691
0.180753
0.186701
0.192443
0.197898
0.202984
0.207616
0.211707
0.215117
0.216875
0.214101
0.209805
0.185986
0.180852
0.176282
0.172497
0.16929
0.166753
0.165006
0.164109
0.164089
0.164942
0.16664
0.169129
0.172336
0.17617
0.180527
0.185293
0.190353
0.195587
0.200882
0.206126
0.211219
0.216066
0.220578
0.224665
0.228222
0.231152
0.233336
0.233954
0.230925
0.228892
0.222482
0.216719
0.211591
0.207316
0.203633
0.200626
0.198409
0.197039
0.196533
0.196884
0.198057
0.199995
0.20262
0.205838
0.209544
0.213624
0.217962
0.22244
0.226944
0.231366
0.235605
0.239569
0.243169
0.246317
0.248921
0.250905
0.25219
0.252176
0.249863
0.250585
0.258877
0.25249
0.246809
0.242047
0.237892
0.234415
0.231728
0.229881
0.228885
0.228727
0.229367
0.230742
0.232774
0.235365
0.238409
0.241792
0.245399
0.249113
0.252823
0.256425
0.259819
0.262917
0.265637
0.267899
0.269625
0.270765
0.271263
0.270627
0.268339
0.269744
0.295068
0.288065
0.281836
0.276592
0.271967
0.268023
0.264866
0.262541
0.261052
0.260379
0.260479
0.261286
0.262716
0.264671
0.267045
0.269725
0.272596
0.275544
0.278461
0.281247
0.283808
0.286061
0.287931
0.289348
0.290251
0.290611
0.290397
0.28919
0.28668
0.28793
0.33095
0.323339
0.316569
0.31085
0.305761
0.301352
0.297728
0.294924
0.29294
0.291751
0.291307
0.291539
0.292362
0.293677
0.295377
0.297349
0.299482
0.301665
0.303794
0.305772
0.307513
0.308939
0.309983
0.310588
0.310704
0.310321
0.309427
0.307657
0.304807
0.30561
0.366418
0.358208
0.350908
0.34472
0.339173
0.334304
0.330215
0.326935
0.324457
0.322749
0.321759
0.321415
0.321629
0.3223
0.323324
0.324589
0.325985
0.327407
0.328753
0.329934
0.330867
0.331483
0.331723
0.331538
0.330891
0.329785
0.328216
0.325861
0.322579
0.322786
0.401365
0.392569
0.384747
0.3781
0.372102
0.366781
0.362231
0.358478
0.355508
0.353283
0.351748
0.350827
0.350431
0.35046
0.350809
0.351368
0.352032
0.352698
0.35327
0.353663
0.353802
0.353624
0.353077
0.352121
0.350728
0.348908
0.346666
0.343706
0.33993
0.339457
0.435686
0.426316
0.417986
0.41089
0.40445
0.398682
0.393679
0.389459
0.386
0.383261
0.381183
0.379688
0.378685
0.378074
0.377752
0.377611
0.377549
0.377467
0.377275
0.376892
0.376251
0.375293
0.373975
0.372263
0.370137
0.367612
0.364698
0.361121
0.356817
0.355618
0.469276
0.459348
0.450523
0.442988
0.436116
0.429912
0.424463
0.419782
0.41584
0.412593
0.409977
0.407912
0.406307
0.405063
0.404075
0.403242
0.402463
0.401643