/*--------------------------------*- C++ -*----------------------------------*\
  =========                 |
  \\      /  F ield         | OpenFOAM: The Open Source CFD Toolbox
   \\    /   O peration     | Website:  https://openfoam.org
    \\  /    A nd           | Version:  7
     \\/     M anipulation  |
\*---------------------------------------------------------------------------*/
FoamFile
{
    version     2.0;
    format      ascii;
    class       volVectorField;
    location    "15";
    object      U;
}
// * * * * * * * * * * * * * * * * * * * * * * * * * * * * * * * * * * * * * //

dimensions      [0 1 -1 0 0 0 0];

internalField   nonuniform List<vector> 
183
(
(0.0952251 -0.0101562 1.16459e-23)
(0.242878 -0.00815953 6.03228e-23)
(0.110345 -0.0290289 1.17106e-22)
(0.255695 -0.0232777 6.61467e-23)
(0.138997 -0.0474657 2.45544e-22)
(0.280013 -0.0380606 5.55727e-22)
(0.179092 -0.0652659 -7.85981e-23)
(0.314109 -0.0523261 4.61244e-22)
(0.228022 -0.082265 -7.93927e-23)
(0.355793 -0.0659354 -2.51257e-22)
(0.283075 -0.0983395 -4.8102e-22)
(0.402732 -0.0787934 1.56963e-21)
(0.341772 -0.113404 -1.46981e-21)
(0.45273 -0.0908416 -3.94548e-22)
(0.402057 -0.127398 -9.78057e-22)
(0.503916 -0.102047 -1.24788e-21)
(0.46233 -0.140278 8.60496e-22)
(0.554815 -0.112395 -8.98113e-22)
(0.521408 -0.152015 -4.44588e-22)
(0.604338 -0.121884 5.54137e-22)
(0.578436 -0.162594 3.43624e-21)
(0.651724 -0.130519 6.77088e-22)
(0.63281 -0.172012 -2.72564e-21)
(0.696473 -0.138316 -7.62084e-23)
(0.684113 -0.180279 -1.65554e-21)
(0.73828 -0.145299 -3.21012e-22)
(0.732069 -0.187422 1.57567e-21)
(0.776991 -0.1515 -4.26693e-22)
(0.776524 -0.193488 -8.99429e-22)
(0.812568 -0.156968 -2.68674e-22)
(0.817424 -0.198554 -4.34898e-21)
(0.845062 -0.161762 1.74515e-21)
(0.854811 -0.202633 1.15806e-20)
(0.874596 -0.165887 -2.67281e-21)
(0.89581 -0.132161 -4.19616e-22)
(0.888801 -0.205625 5.33678e-21)
(0.901343 -0.169291 -9.96267e-22)
(0.917269 -0.135319 8.72409e-22)
(0.919569 -0.207934 2.35348e-21)
(0.925499 -0.172283 -2.72151e-21)
(0.936532 -0.138208 -7.6931e-23)
(0.947348 -0.211145 2.77641e-21)
(0.947301 -0.17589 1.70722e-21)
(0.95381 -0.141412 3.90062e-22)
(0.972487 -0.213566 5.62254e-21)
(0.967064 -0.179021 -1.36737e-21)
(0.969358 -0.144366 -1.23024e-22)
(1.02026 -0.171335 0)
(1.01078 -0.143269 0)
(1.07183 -0.167562 0)
(1.04985 -0.13812 0)
(1.08327 -0.142958 0)
(1.059 -0.121815 0)
(1.09135 -0.133889 0)
(1.06773 -0.116414 0)
(1.09657 -0.118416 0)
(1.07381 -0.104384 0)
(1.09958 -0.106188 0)
(1.07793 -0.0953683 0)
(1.10137 -0.0950977 0)
(1.08097 -0.0864862 0)
(1.10216 -0.0847481 0)
(1.08301 -0.0779566 0)
(1.1022 -0.0753193 0)
(1.08429 -0.070018 0)
(1.10164 -0.0666954 0)
(1.08495 -0.0625788 0)
(1.1005 -0.0587627 0)
(1.08495 -0.055599 0)
(1.09888 -0.0514211 0)
(1.08438 -0.0490337 0)
(1.09703 -0.0446193 0)
(1.08348 -0.0428485 0)
(1.09526 -0.0382704 0)
(1.08256 -0.0369835 0)
(1.09363 -0.0323553 0)
(1.08171 -0.03143 0)
(1.09211 -0.0267862 0)
(1.08086 -0.0261332 0)
(1.0906 -0.0215344 0)
(1.07992 -0.0210799 0)
(1.08935 -0.0165125 0)
(1.07908 -0.0162115 0)
(1.08845 -0.0116617 0)
(1.0785 -0.0114805 0)
(1.08791 -0.00694992 0)
(1.07815 -0.00685237 0)
(1.08757 -0.00229479 0)
(1.07793 -0.00226823 0)
(1.10318 0.0258115 0)
(1.10103 0.0206398 0)
(1.09943 0.0157453 0)
(1.09831 0.0110875 0)
(1.09744 0.00658286 0)
(1.09688 0.00218384 0)
(1.01955 0.170748 0)
(1.07169 0.167048 0)
(1.08322 0.142484 0)
(1.09128 0.133391 0)
(1.09654 0.117956 0)
(1.09956 0.105777 0)
(1.10133 0.0947396 0)
(1.10212 0.0844806 0)
(1.10214 0.0750739 0)
(1.10137 0.066452 0)
(1.10017 0.0584899 0)
(1.09862 0.051108 0)
(1.09698 0.044303 0)
(1.09526 0.0379677 0)
(1.09355 0.0320967 0)
(1.09184 0.0265639 0)
(1.09035 0.0213456 0)
(1.08929 0.0163507 0)
(1.08856 0.0115448 0)
(1.08795 0.00686642 0)
(1.08753 0.00227931 0)
(1.01017 0.142969 0)
(1.04975 0.137889 0)
(1.05892 0.121565 0)
(1.06767 0.116147 0)
(1.07385 0.104141 0)
(1.07802 0.0951587 0)
(1.08107 0.0863187 0)
(1.08308 0.0778555 0)
(1.08424 0.069929 0)
(1.08461 0.0624747 0)
(1.08451 0.0554417 0)
(1.08404 0.0488116 0)
(1.0834 0.0425977 0)
(1.08263 0.0367356 0)
(1.08173 0.0312272 0)
(1.08069 0.0259807 0)
(1.07974 0.020975 0)
(1.07909 0.016133 0)
(1.07866 0.0114232 0)
(1.07827 0.00680475 0)
(1.07797 0.00225962 0)
(0.971238 0.212666 -5.86988e-21)
(0.965964 0.178408 1.46085e-21)
(0.968407 0.144049 1.86527e-22)
(0.945944 0.210245 -1.17739e-21)
(0.946056 0.175279 -2.11243e-21)
(0.952732 0.141095 -5.10579e-22)
(0.917992 0.207038 -1.72211e-21)
(0.924095 0.171677 2.82681e-21)
(0.935316 0.13789 1.25681e-22)
(0.887036 0.204727 -1.16309e-20)
(0.899766 0.168684 1.44857e-21)
(0.915905 0.134995 1.56698e-22)
(0.852842 0.201728 -4.26184e-21)
(0.872836 0.165273 2.09556e-21)
(0.815242 0.197641 -3.27437e-22)
(0.84311 0.161138 -1.48402e-21)
(0.774121 0.192567 3.28029e-21)
(0.810421 0.156331 1.60332e-22)
(0.729445 0.186488 -4.34144e-21)
(0.774649 0.150846 4.13454e-23)
(0.681275 0.17933 2.04511e-21)
(0.735749 0.144623 9.90295e-22)
(0.629773 0.171045 4.55825e-21)
(0.693767 0.137614 5.93479e-22)
(0.575222 0.161606 -3.6705e-21)
(0.648866 0.129787 -1.37198e-21)
(0.518053 0.151003 1.07936e-21)
(0.601362 0.121118 -1.19715e-22)
(0.458883 0.139238 -1.17188e-21)
(0.551766 0.111593 -6.43677e-22)
(0.398582 0.126327 1.08961e-21)
(0.500854 0.101204 8.23862e-22)
(0.338355 0.1123 1.42961e-21)
(0.449733 0.0899559 7.86551e-22)
(0.279823 0.097201 2.36302e-22)
(0.399897 0.0778643 -7.64521e-24)
(0.225067 0.0810915 6.81453e-23)
(0.353233 0.0649637 -4.85549e-22)
(0.176578 0.064059 8.23427e-23)
(0.311945 0.0513151 3.36323e-22)
(0.137069 0.0462294 -2.49896e-22)
(0.278362 0.0370163 -9.72507e-22)
(0.10913 0.02777 -1.1935e-22)
(0.254658 0.0222092 -2.38608e-22)
(0.0948103 0.00888407 -8.92816e-24)
(0.242524 0.00707868 7.66499e-23)
)
;

boundaryField
{
    inlet
    {
        type            uniformFixedValue;
        uniformValue    constant (1 0 0);
        value           nonuniform 0();
    }
    outlet
    {
        type            pressureInletOutletVelocity;
        value           nonuniform 0();
    }
    cylinder
    {
        type            fixedValue;
        value           nonuniform 0();
    }
    top
    {
        type            symmetryPlane;
    }
    bottom
    {
        type            symmetryPlane;
    }
    defaultFaces
    {
        type            empty;
    }
    procBoundary36to35
    {
        type            processor;
        value           nonuniform List<vector> 
87
(
(-0.0934433 -0.0112082 -1.30678e-23)
(-0.0756043 -0.0324388 2.71312e-22)
(-0.0418037 -0.053315 -1.08137e-21)
(0.00546856 -0.0735746 -1.74889e-21)
(0.0631654 -0.0929731 2.87911e-21)
(0.128215 -0.111354 1.08318e-21)
(0.19784 -0.128655 -4.47981e-22)
(0.269743 -0.144785 -1.67032e-21)
(0.342162 -0.159636 1.63575e-21)
(0.413796 -0.173137 4.87323e-21)
(0.48367 -0.18524 -7.63166e-21)
(0.551049 -0.195915 -6.1973e-21)
(0.615371 -0.205146 8.81428e-22)
(0.676201 -0.212928 2.86277e-21)
(0.733208 -0.219284 1.39459e-20)
(0.786153 -0.224272 -1.07599e-21)
(0.83489 -0.22791 2.31242e-20)
(0.879369 -0.23005 3.22967e-21)
(0.919632 -0.23106 6.72427e-21)
(0.955813 -0.232944 -8.65329e-21)
(0.988173 -0.23384 6.14586e-21)
(1.04028 -0.195146 0)
(1.04028 -0.195146 0)
(1.10672 -0.194115 0)
(1.1211 -0.16187 0)
(1.12668 -0.148064 0)
(1.12898 -0.129475 0)
(1.1291 -0.113827 0)
(1.12798 -0.100356 0)
(1.12606 -0.0882284 0)
(1.12367 -0.0774088 0)
(1.12099 -0.0677495 0)
(1.11798 -0.0590803 0)
(1.11474 -0.0512278 0)
(1.1115 -0.0441061 0)
(1.10853 -0.0375802 0)
(1.10587 -0.0316052 0)
(1.10351 -0.0260449 0)
(1.10132 -0.020862 0)
(1.09957 -0.0159472 0)
(1.09831 -0.0112313 0)
(1.09753 -0.00668401 0)
(1.09705 -0.00219862 0)
(1.11394 0.023413 0)
(1.11107 0.0186584 0)
(1.1089 0.0141971 0)
(1.10739 0.00998322 0)
(1.10625 0.00591824 0)
(1.10555 0.00196201 0)
(1.03943 0.19431 0)
(1.03943 0.19431 0)
(1.10642 0.193336 0)
(1.121 0.161246 0)
(1.12655 0.147451 0)
(1.12888 0.128918 0)
(1.12896 0.113325 0)
(1.1278 0.0998797 0)
(1.12589 0.0878373 0)
(1.12357 0.0770333 0)
(1.12072 0.0673972 0)
(1.11768 0.058747 0)
(1.11449 0.0509069 0)
(1.11141 0.0438252 0)
(1.10847 0.0373175 0)
(1.10573 0.0313663 0)
(1.10573 0.0313663 0)
(0.986769 0.232841 -3.99464e-21)
(0.954257 0.231932 3.69892e-21)
(0.917905 0.230045 -3.57752e-21)
(0.877453 0.229026 -4.28275e-21)
(0.83277 0.226878 -1.49429e-20)
(0.783815 0.223234 -9.52955e-21)
(0.730643 0.218242 -2.92973e-21)
(0.673408 0.211885 -7.16604e-21)
(0.612354 0.204102 -1.42098e-21)
(0.547821 0.194871 7.92099e-21)
(0.480252 0.184196 5.60313e-21)
(0.41022 0.172093 -6.71136e-21)
(0.338476 0.158592 -6.33651e-22)
(0.26601 0.14374 -4.51784e-21)
(0.19415 0.127607 4.87445e-21)
(0.124683 0.110304 -1.22366e-21)
(0.0599362 0.0919164 -1.23568e-21)
(0.00270249 0.0725052 1.15161e-21)
(-0.0439377 0.0522369 7.06056e-22)
(-0.0769551 0.0313557 -5.80515e-22)
(-0.0939058 0.0101275 1.71888e-22)
)
;
    }
    procBoundary36to37
    {
        type            processor;
        value           nonuniform List<vector> 
86
(
(0.366357 -0.00648 -5.0556e-24)
(0.377115 -0.0185174 -2.5413e-22)
(0.397576 -0.030271 9.38535e-22)
(0.426352 -0.0415869 3.37084e-22)
(0.461644 -0.0523489 -1.25522e-22)
(0.501494 -0.0624813 2.54336e-21)
(0.544013 -0.0719437 -2.75282e-21)
(0.587541 -0.0807232 -1.32139e-24)
(0.630744 -0.0888244 2.15919e-23)
(0.67262 -0.0962629 -4.59742e-22)
(0.712477 -0.103061 6.69683e-22)
(0.749874 -0.109245 -7.80846e-22)
(0.784568 -0.114846 -2.66585e-21)
(0.816461 -0.119899 -1.24301e-22)
(0.845564 -0.124446 -2.04667e-21)
(0.871966 -0.128531 -3.82568e-22)
(0.871966 -0.128531 -3.82568e-22)
(0.914571 -0.1041 -2.98429e-22)
(0.932233 -0.106777 1.17719e-21)
(0.947947 -0.109245 1.70573e-22)
(0.961901 -0.111812 -3.4273e-23)
(0.974308 -0.114278 -5.18206e-22)
(1.00689 -0.116477 0)
(1.03613 -0.111492 0)
(1.04361 -0.101799 0)
(1.052 -0.0987724 0)
(1.05797 -0.0899857 0)
(1.06234 -0.0836552 0)
(1.06572 -0.0767475 0)
(1.0682 -0.0699385 0)
(1.07002 -0.0634138 0)
(1.07127 -0.0571228 0)
(1.07188 -0.0510976 0)
(1.07189 -0.0453412 0)
(1.07154 -0.0398446 0)
(1.07115 -0.0345718 0)
(1.07079 -0.0295144 0)
(1.07039 -0.0246343 0)
(1.06984 -0.0199296 0)
(1.06932 -0.0153665 0)
(1.06896 -0.0109076 0)
(1.06875 -0.00651887 0)
(1.0686 -0.00216138 0)
(1.00638 0.116383 0)
(1.03603 0.111457 0)
(1.04351 0.101748 0)
(1.05196 0.0987383 0)
(1.05805 0.0899682 0)
(1.06248 0.0836473 0)
(1.06589 0.0767466 0)
(1.06833 0.0699625 0)
(1.06995 0.0634323 0)
(1.07086 0.0571247 0)
(1.07132 0.0510586 0)
(1.07144 0.045252 0)
(1.07143 0.0397253 0)
(1.07126 0.0344424 0)
(1.0709 0.0294114 0)
(1.07032 0.0245728 0)
(1.06974 0.0199136 0)
(1.06936 0.0153697 0)
(1.06913 0.0109098 0)
(1.06889 0.00650754 0)
(1.06867 0.00216141 0)
(0.973503 0.11416 4.58872e-22)
(0.960987 0.111688 3.65887e-22)
(0.946914 0.109115 -7.531e-22)
(0.931073 0.106636 -7.7741e-22)
(0.894289 0.131826 3.05675e-22)
(0.894289 0.131826 3.05675e-22)
(0.870282 0.128183 1.31862e-21)
(0.843714 0.124082 1.4465e-22)
(0.814446 0.119513 7.7523e-22)
(0.782395 0.114436 2.43188e-21)
(0.747556 0.108806 2.80237e-21)
(0.710034 0.102589 -1.80941e-21)
(0.670082 0.095755 -6.52017e-22)
(0.628152 0.0882774 6.61062e-22)
(0.58495 0.0801346 2.59083e-21)
(0.541489 0.0713121 -1.01913e-21)
(0.49912 0.0618063 -1.73561e-22)
(0.459511 0.0516323 -8.6917e-22)
(0.424558 0.0408324 6.86733e-23)
(0.396215 0.029485 -1.06291e-21)
(0.376264 0.0177086 -3.72678e-22)
(0.366067 0.00565936 5.41305e-24)
)
;
    }
}


// ************************************************************************* //
