/*--------------------------------*- C++ -*----------------------------------*\
  =========                 |
  \\      /  F ield         | OpenFOAM: The Open Source CFD Toolbox
   \\    /   O peration     | Website:  https://openfoam.org
    \\  /    A nd           | Version:  7
     \\/     M anipulation  |
\*---------------------------------------------------------------------------*/
FoamFile
{
    version     2.0;
    format      ascii;
    class       surfaceScalarField;
    location    "6";
    object      phi;
}
// * * * * * * * * * * * * * * * * * * * * * * * * * * * * * * * * * * * * * //

dimensions      [0 3 -1 0 0 0 0];

internalField   nonuniform List<scalar> 
79480
(
-2.14637e-06
2.14602e-06
3.55085e-10
-8.10052e-06
5.95318e-06
9.63504e-10
-1.75993e-05
9.49726e-06
1.492e-09
-3.04135e-05
1.28123e-05
1.94024e-09
-4.63419e-05
1.59261e-05
2.31155e-09
-6.52112e-05
1.88667e-05
2.61048e-09
-8.68767e-05
2.16626e-05
2.8424e-09
-0.000111223
2.43428e-05
3.01322e-09
-0.000138162
2.69366e-05
3.12923e-09
-0.00016764
2.94741e-05
3.19626e-09
-0.000199629
3.19858e-05
3.22004e-09
-0.000234133
3.45016e-05
3.2049e-09
-0.000271187
3.70507e-05
3.15425e-09
-0.00031085
3.966e-05
3.06989e-09
-0.000353207
4.23535e-05
2.95178e-09
-0.000398361
4.51517e-05
2.79845e-09
-0.000446435
4.80709e-05
2.60679e-09
-0.000497561
5.11237e-05
2.37246e-09
-0.000551881
5.43186e-05
2.0899e-09
-0.000609544
5.76612e-05
1.75286e-09
-0.0006707
6.11547e-05
1.35448e-09
-0.000735502
6.48009e-05
8.87544e-10
-0.000804103
6.86009e-05
3.44727e-10
-0.000876659
7.25557e-05
-2.80853e-10
-0.000953324
7.66664e-05
-9.96026e-10
-0.00103426
8.09347e-05
-1.80643e-09
-0.00111961
8.53549e-05
-2.71635e-09
-0.0012095
8.98993e-05
-3.72894e-09
-0.00130406
9.45633e-05
-4.84557e-09
9.94722e-05
-6.06227e-09
-0.00140353
-2.10515e-06
4.25117e-06
-7.95156e-06
1.17996e-05
-1.72864e-05
1.88321e-05
-2.98888e-05
2.54148e-05
-4.55641e-05
3.16013e-05
-6.41437e-05
3.74463e-05
-8.54859e-05
4.30048e-05
-0.000109476
4.83329e-05
-0.000136027
5.34876e-05
-0.00016508
5.85275e-05
-0.000196606
6.35117e-05
-0.000230604
6.8499e-05
-0.000267099
7.35459e-05
-0.000306144
7.87048e-05
-0.000347812
8.40223e-05
-0.000392199
8.9538e-05
-0.000439411
9.52832e-05
-0.000489568
0.000101281
-0.000542796
0.000107547
-0.000599224
0.000114089
-0.000658982
0.000120913
-0.000722199
0.000128017
-0.000789
0.000135402
-0.000859511
0.000143066
-0.000933852
0.000151008
-0.00101214
0.000159227
-0.0010945
0.000167711
-0.00118101
0.000176404
-0.00127173
0.000185287
0.000194606
-0.00136686
-2.02411e-06
6.27528e-06
-7.65844e-06
1.74339e-05
-1.66702e-05
2.78438e-05
-2.88548e-05
3.75994e-05
-4.40303e-05
4.67768e-05
-6.20374e-05
5.54534e-05
-8.27402e-05
6.37076e-05
-0.000106026
7.16189e-05
-0.000131808
7.92689e-05
-0.000160021
8.67413e-05
-0.00019063
9.41209e-05
-0.000223623
0.000101492
-0.000259013
0.000108935
-0.000296834
0.000116526
-0.000337144
0.000124332
-0.000380013
0.000132407
-0.000425525
0.000140795
-0.000473771
0.000149527
-0.000524846
0.000158622
-0.000578843
0.000168086
-0.000635851
0.000177921
-0.000695954
0.00018812
-0.000759224
0.000198673
-0.000825728
0.00020957
-0.000895521
0.000220801
-0.000968652
0.000232358
-0.00104516
0.00024422
-0.00112506
0.000256301
-0.00120832
0.000268553
0.00028133
-0.00129505
-1.90598e-06
8.18126e-06
-7.23055e-06
2.27585e-05
-1.57695e-05
3.63828e-05
-2.73418e-05
4.91716e-05
-4.17835e-05
6.12186e-05
-5.8949e-05
7.26189e-05
-7.87105e-05
8.34691e-05
-0.000100959
9.38676e-05
-0.000125606
0.000103915
-0.000152581
0.000113717
-0.000181838
0.000123377
-0.000213349
0.000133003
-0.000247109
0.000142695
-0.000283129
0.000152547
-0.000321438
0.000162641
-0.000362077
0.000173046
-0.000405093
0.000183812
-0.000450539
0.000194973
-0.000498462
0.000206545
-0.000548907
0.000218531
-0.000601906
0.000230919
-0.000657474
0.000243688
-0.000715614
0.000256812
-0.000776307
0.000270263
-0.000839518
0.000284012
-0.000905195
0.000298035
-0.000973276
0.000312301
-0.00104367
0.0003267
-0.00111625
0.000341131
0.000356046
-0.00119097
-1.75471e-06
9.93597e-06
-6.68147e-06
2.76853e-05
-1.46119e-05
4.43132e-05
-2.53939e-05
5.99536e-05
-3.88868e-05
7.47115e-05
-5.49616e-05
8.86936e-05
-7.35011e-05
0.000102009
-9.44011e-05
0.000114768
-0.000117571
0.000127085
-0.000142933
0.00013908
-0.000170429
0.000150873
-0.000200011
0.000162585
-0.00023165
0.000174334
-0.000265329
0.000186226
-0.000301043
0.000198354
-0.000338792
0.000210794
-0.00037858
0.0002236
-0.000420409
0.000236802
-0.000464273
0.000250409
-0.000510152
0.00026441
-0.000558007
0.000278774
-0.000607777
0.000293458
-0.000659372
0.000308407
-0.000712674
0.000323565
-0.000767537
0.000338874
-0.000823787
0.000354285
-0.00088124
0.000369753
-0.000939698
0.000385159
-0.000998898
0.000400331
0.00041579
-0.00105864
-1.5753e-06
1.15113e-05
-6.02851e-06
3.21385e-05
-1.32322e-05
5.15169e-05
-2.30677e-05
6.97891e-05
-3.54208e-05
8.70646e-05
-5.01818e-05
0.000103455
-6.72463e-05
0.000119073
-8.6515e-05
0.000134036
-0.000107896
0.000148466
-0.000131304
0.000162488
-0.000156664
0.000176232
-0.000183908
0.00018983
-0.00021298
0.000203406
-0.000243828
0.000217074
-0.000276407
0.000230933
-0.000310673
0.00024506
-0.000346579
0.000259506
-0.000384069
0.000274293
-0.000423076
0.000289416
-0.000463507
0.000304842
-0.000505246
0.000320513
-0.000548141
0.000336354
-0.000592005
0.000352271
-0.000636608
0.000368168
-0.00068168
0.000383946
-0.000726914
0.000399519
-0.000771989
0.000414829
-0.000816596
0.000429765
-0.000860352
0.000444087
0.000458326
-0.000902887
-1.37357e-06
1.28848e-05
-5.29194e-06
3.60568e-05
-1.16717e-05
5.78966e-05
-2.043e-05
7.85474e-05
-3.14814e-05
9.8116e-05
-4.47374e-05
0.000116711
-6.01069e-05
0.000134443
-7.7497e-05
0.000151426
-9.6814e-05
0.000167783
-0.000117965
0.000183638
-0.000140857
0.000199125
-0.000165402
0.000214374
-0.00019151
0.000229514
-0.000219095
0.000244659
-0.000248068
0.000259906
-0.000278336
0.000275329
-0.000309798
0.000290967
-0.000342336
0.000306831
-0.000375814
0.000322894
-0.000410067
0.000339094
-0.000444894
0.00035534
-0.000480053
0.000371513
-0.000515253
0.000387471
-0.00055015
0.000403065
-0.000584347
0.000418143
-0.000617399
0.000432571
-0.000648842
0.000446272
-0.000678257
0.00045918
-0.000705166
0.000470997
0.000482149
-0.000728989
-1.15594e-06
1.40408e-05
-4.49421e-06
3.93951e-05
-9.97626e-06
6.33787e-05
-1.75559e-05
8.61271e-05
-2.7177e-05
0.000107737
-3.87726e-05
0.000128306
-5.2266e-05
0.000147936
-6.75708e-05
0.000166731
-8.45921e-05
0.000184804
-0.000103228
0.000202274
-0.00012337
0.000219267
-0.000144905
0.000235909
-0.000167713
0.000252322
-0.00019167
0.000268616
-0.000216641
0.000284878
-0.000242484
0.000301172
-0.00026904
0.000317523
-0.000296129
0.00033392
-0.000323546
0.00035031
-0.00035105
0.000366599
-0.000378361
0.000382651
-0.000405145
0.000398297
-0.000431013
0.000413339
-0.00045551
0.000427563
-0.000478119
0.000440752
-0.000498259
0.000452712
-0.000515322
0.000463335
-0.000528782
0.000472639
-0.000538111
0.000480326
0.000486454
-0.000542416
-9.29142e-07
1.49699e-05
-3.65915e-06
4.21251e-05
-8.19494e-06
6.79145e-05
-1.45259e-05
9.24581e-05
-2.26242e-05
0.000115835
-3.24444e-05
0.000138127
-4.39235e-05
0.000159415
-5.69818e-05
0.000179789
-7.15235e-05
0.000199346
-8.74381e-05
0.000218189
-0.000104601
0.00023643
-0.000122876
0.000254184
-0.000142113
0.000271559
-0.000162147
0.00028865
-0.000182804
0.000305534
-0.000203886
0.000322254
-0.000225181
0.000338817
-0.000246446
0.000355185
-0.000267411
0.000371275
-0.000287763
0.000386951
-0.000307144
0.000402032
-0.000325139
0.000416292
-0.000341269
0.000429469
-0.00035498
0.000441274
-0.000365646
0.000451418
-0.000372565
0.000459631
-0.000374988
0.000465758
-0.00037228
0.000469931
-0.000363982
0.000472028
0.000471088
-0.000348616
-6.99994e-07
1.56699e-05
-2.81102e-06
4.42361e-05
-6.37809e-06
7.14815e-05
-1.14233e-05
9.75033e-05
-1.79449e-05
0.000122357
-2.59172e-05
0.000146099
-3.52903e-05
0.000168788
-4.59903e-05
0.000190489
-5.79208e-05
0.000211276
-7.09634e-05
0.000231231
-8.49787e-05
0.000250446
-9.9807e-05
0.000269012
-0.000115269
0.000287021
-0.000131166
0.000304547
-0.000147278
0.000321646
-0.000163361
0.000338338
-0.000179148
0.000354604
-0.000194341
0.000370378
-0.000208604
0.000385538
-0.000221562
0.000399908
-0.000232787
0.000413257
-0.000241793
0.000425299
-0.000248024
0.0004357
-0.000250847
0.000444097
-0.000249543
0.000450113
-0.000243309
0.000453398
-0.000231268
0.000453717
-0.000212594
0.000451257
-0.000187323
0.000446757
0.000436988
-0.000153224
-4.75108e-07
1.6145e-05
-1.97366e-06
4.57347e-05
-4.57562e-06
7.40835e-05
-8.33131e-06
0.000101259
-1.32618e-05
0.000127287
-1.93582e-05
0.000152195
-2.65818e-05
0.000176012
-3.48641e-05
0.000198772
-4.41075e-05
0.00022052
-5.41864e-05
0.00024131
-6.49473e-05
0.000261207
-7.62102e-05
0.000280275
-8.77688e-05
0.000298579
-9.93906e-05
0.000316169
-0.000110817
0.000333072
-0.000121759
0.000349281
-0.000131902
0.000364747
-0.000140894
0.000379369
-0.000148345
0.000392989
-0.000153822
0.000405385
-0.000156839
0.000416275
-0.000156853
0.000425312
-0.000153248
0.000432095
-0.000145328
0.000436178
-0.000132308
0.000437093
-0.00011331
0.000434399
-8.73655e-05
0.000427772
-5.3273e-05
0.000417165
-9.37029e-06
0.000402854
0.000389771
3.7847e-05
-2.60682e-07
1.64057e-05
-1.1697e-06
4.66437e-05
-2.83533e-06
7.57491e-05
-5.33055e-06
0.000103754
-8.69444e-06
0.000130651
-1.29316e-05
0.000156432
-1.80117e-05
0.000181092
-2.38702e-05
0.00020463
-3.0408e-05
0.000227057
-3.74926e-05
0.000248395
-4.49582e-05
0.000268672
-5.26063e-05
0.000287923
-6.02068e-05
0.00030618
-6.74976e-05
0.00032346
-7.41849e-05
0.000339759
-7.99423e-05
0.000355038
-8.44098e-05
0.000369214
-8.71906e-05
0.00038215
-8.78484e-05
0.000393647
-8.5902e-05
0.000403439
-8.08199e-05
0.000411193
-7.20125e-05
0.000416505
-5.88232e-05
0.000418906
-4.05173e-05
0.000417872
-1.62691e-05
0.000412845
1.48488e-05
0.000403282
5.38738e-05
0.000388747
0.000101881
0.000369158
0.000159292
0.000345443
0.000321498
0.000227565
-6.24155e-08
1.64681e-05
-4.1976e-07
4.70011e-05
-1.2013e-06
7.65307e-05
-2.49602e-06
0.000105049
-4.35548e-06
0.000132511
-6.79327e-06
0.00015887
-9.78464e-06
0.000184083
-1.32666e-05
0.000208112
-1.7138e-05
0.000230929
-2.12597e-05
0.000252517
-2.54549e-05
0.000272867
-2.95094e-05
0.000291978
-3.31725e-05
0.000309843
-3.61568e-05
0.000326444
-3.81391e-05
0.000341741
-3.87599e-05
0.000355659
-3.76229e-05
0.000368077
-3.42936e-05
0.000378821
-2.82971e-05
0.00038765
-1.91148e-05
0.000394257
-6.17956e-06
0.000398258
1.11297e-05
0.000399196
3.34959e-05
0.00039654
6.1675e-05
0.000389693
9.65092e-05
0.000378011
0.000138947
0.000360844
0.000190065
0.000337629
0.000251014
0.00030821
0.000322754
0.000273702
0.000237948
0.000406304
1.1531e-07
1.63528e-05
2.58188e-07
4.68582e-05
2.87478e-07
7.65014e-05
1.05206e-07
0.000105231
-3.46711e-07
0.000132963
-1.08593e-06
0.000159609
-2.08946e-06
0.000185087
-3.29361e-06
0.000209316
-4.59381e-06
0.000232229
-5.8445e-06
0.000253767
-6.85908e-06
0.000273882
-7.41016e-06
0.000292529
-7.22987e-06
0.000309663
-6.0104e-06
0.000325225
-3.4045e-06
0.000339135
9.74061e-07
0.000351281
7.55049e-06
0.000361501
1.67892e-05
0.000369582
2.9195e-05
0.000375244
4.5315e-05
0.000378137
6.57415e-05
0.000377831
9.11163e-05
0.000373821
0.000122138
0.000365518
0.000159569
0.000352261
0.000204257
0.000333323
0.000257151
0.000307949
0.000319351
0.000275429
0.00039212
0.00023544
0.00047672
0.000189102
0.000140424
0.000574243
2.68053e-07
1.60848e-05
8.49225e-07
4.6277e-05
1.59832e-06
7.57523e-05
2.41597e-06
0.000104413
3.24409e-06
0.000132135
4.06615e-06
0.000158787
4.90738e-06
0.000184246
5.83494e-06
0.000208389
6.95836e-06
0.000231106
8.42988e-06
0.000252296
1.04449e-05
0.000271867
1.32418e-05
0.000289732
1.71021e-05
0.000305802
2.23497e-05
0.000319977
2.93505e-05
0.000332135
3.85112e-05
0.00034212
5.0279e-05
0.000349733
6.51407e-05
0.00035472
8.36235e-05
0.000356762
0.000106295
0.000355465
0.000133765
0.000350361
0.00016669
0.000340896
0.000205777
0.000326432
0.000251792
0.000306245
0.00030558
0.000279535
0.000368088
0.000245441
0.000440423
0.000203094
0.000523938
0.000151926
0.000620143
9.28963e-05
2.99402e-05
0.000730628
3.93258e-07
1.56915e-05
1.34203e-06
4.53282e-05
2.70585e-06
7.43885e-05
4.39128e-06
0.000102728
6.34659e-06
0.000130179
8.56168e-06
0.000156572
1.10682e-05
0.000181739
1.39399e-05
0.000205517
1.72931e-05
0.000227753
2.12872e-05
0.000248302
2.61258e-05
0.000267028
3.20567e-05
0.000283801
3.93721e-05
0.000298487
4.84082e-05
0.000310941
5.95445e-05
0.000320998
7.32029e-05
0.000328461
8.98465e-05
0.00033309
0.000109979
0.000334588
0.000134144
0.000332597
0.000162924
0.000326685
0.000196944
0.000316341
0.000236873
0.000300968
0.000283426
0.000279878
0.00033738
0.000252292
0.000399583
0.000217331
0.000470991
0.000174034
0.00055272
0.000121365
0.000646198
5.84476e-05
0.000753152
-1.4058e-05
-9.29341e-05
0.000876027
4.89007e-07
1.52025e-05
1.72907e-06
4.40882e-05
3.59265e-06
7.25249e-05
5.99938e-06
0.000100321
8.91001e-06
0.000127269
1.23261e-05
0.000153156
1.62899e-05
0.000177775
2.08848e-05
0.000200922
2.62359e-05
0.000222401
3.25112e-05
0.000242026
3.99222e-05
0.000259617
4.8725e-05
0.000274998
5.92204e-05
0.000287991
7.17541e-05
0.000298407
8.67157e-05
0.000306037
0.000104538
0.000310639
0.000125697
0.000311931
0.00015071
0.000309576
0.000180132
0.000303174
0.000214563
0.000292254
0.000254643
0.000276261
0.000301058
0.000254553
0.000354545
0.000226392
0.000415902
0.000190934
0.00048601
0.000147224
0.000565852
9.4191e-05
0.000656584
3.06336e-05
0.000759707
-4.46754e-05
0.000877095
-0.000131447
-0.000228229
0.00101239
5.54522e-07
1.4648e-05
2.00679e-06
4.26359e-05
4.24989e-06
7.02818e-05
7.22309e-06
9.73481e-05
1.09054e-05
0.000123586
1.53148e-05
0.000148747
2.05084e-05
0.000172582
2.65824e-05
0.000194848
3.3673e-05
0.000215311
4.1958e-05
0.000233741
5.16578e-05
0.000249917
6.30364e-05
0.00026362
7.64026e-05
0.000274625
9.21101e-05
0.0002827
0.000110557
0.00028759
0.000132186
0.000289009
0.000157485
0.000286632
0.000186982
0.000280078
0.000221252
0.000268904
0.000260913
0.000252593
0.000306629
0.000230544
0.000359119
0.000202063
0.000419159
0.000166351
0.0004876
0.000122493
0.000565384
6.94403e-05
0.000653569
6.00619e-06
0.000753385
-6.91829e-05
0.000866423
-0.000157713
0.000994588
-0.000259612
-0.000376613
0.00114297
5.90106e-07
1.40579e-05
2.17573e-06
4.10503e-05
4.67754e-06
6.778e-05
8.06043e-06
9.39652e-05
1.23269e-05
0.00011932
1.75159e-05
0.000143558
2.37031e-05
0.000166394
3.10007e-05
0.000187551
3.95587e-05
0.000206753
4.95669e-05
0.000223733
6.12557e-05
0.000238229
7.48985e-05
0.000249977
9.08127e-05
0.000258711
0.000109361
0.000264152
0.000130951
0.000266
0.000156037
0.000263923
0.000185121
0.000257548
0.000218751
0.000246448
0.000257524
0.000230131
0.000302092
0.000208026
0.000353161
0.000179476
0.000411502
0.000143722
0.000477964
9.98892e-05
0.000553484
4.69728e-05
0.000639108
-1.61836e-05
0.000736021
-9.09069e-05
0.000845553
-0.000178715
0.000969403
-0.000281562
0.00110936
-0.000399567
-0.000539279
0.00127202
5.9713e-07
1.34607e-05
2.24046e-06
3.9407e-05
4.8845e-06
6.51359e-05
8.52501e-06
9.03247e-05
1.31925e-05
0.000114652
1.89512e-05
0.000137799
2.58988e-05
0.000159447
3.41667e-05
0.000179283
4.39219e-05
0.000196997
5.53686e-05
0.000212286
6.87501e-05
0.000224847
8.43517e-05
0.000234375
0.000102502
0.00024056
0.000123577
0.000243077
0.000147998
0.000241579
0.000176237
0.000235684
0.000208818
0.000224967
0.00024632
0.000208947
0.00028938
0.000187071
0.000338699
0.000158707
0.000395051
0.000123124
0.000459293
7.94797e-05
0.000532378
2.68041e-05
0.00061537
-3.60197e-05
0.000709462
-0.000110276
0.000815989
-0.000197434
0.000936415
-0.000299141
0.00107252
-0.000417663
0.00122578
-0.000552835
-0.000717632
0.00140414
5.78001e-07
1.28827e-05
2.20957e-06
3.77754e-05
4.88843e-06
6.24571e-05
8.6458e-06
8.65674e-05
1.35443e-05
0.000109754
1.96769e-05
0.000131666
2.71668e-05
0.000151957
3.61684e-05
0.000170281
4.68687e-05
0.000186297
5.94901e-05
0.000199665
7.42929e-05
0.000210044
9.15789e-05
0.000217089
0.000111694
0.000220445
0.000135033
0.000219739
0.00016204
0.000214572
0.000193215
0.000204508
0.00022912
0.000189062
0.00027038
0.000167687
0.000317692
0.000139759
0.000371836
0.000104563
0.000433682
6.12775e-05
0.000504206
8.95568e-06
0.000584502
-5.34913e-05
0.000675789
-0.000127307
0.000779426
-0.000213913
0.000896905
-0.000314912
0.0010298
-0.000432033
0.00117987
-0.000567737
0.00134815
-0.000721108
-0.000912802
0.00154332
5.36119e-07
1.23466e-05
2.0954e-06
3.62161e-05
4.71538e-06
5.98371e-05
8.46653e-06
8.28162e-05
1.34471e-05
0.000104773
1.97822e-05
0.000125331
2.76241e-05
0.000144115
3.71536e-05
0.000160752
4.85821e-05
0.000174869
6.21551e-05
0.000186092
7.81555e-05
0.000194044
9.69084e-05
0.000198336
0.000118785
0.000198568
0.00014421
0.000194314
0.000173663
0.000185119
0.000207688
0.000170482
0.000246902
0.000149848
0.000291999
0.00012259
0.000343764
8.7994e-05
0.000403082
4.5245e-05
0.000470951
-6.59146e-06
0.000548494
-6.8587e-05
0.000636963
-0.00014196
0.000737745
-0.000228089
0.000852347
-0.000328515
0.000982366
-0.000444931
0.0011294
-0.000579067
0.00129503
-0.000733371
0.00147968
-0.000905755
-0.00112506
0.00169194
4.75792e-07
1.18708e-05
1.91379e-06
3.47781e-05
4.39901e-06
5.73519e-05
8.04441e-06
7.91708e-05
1.29869e-05
9.98309e-05
1.9387e-05
0.000118931
2.74296e-05
0.000136072
3.73262e-05
0.000150855
4.93177e-05
0.000162877
6.36785e-05
0.000171731
8.07221e-05
0.000177
0.000100806
0.000178253
0.000124339
0.000175035
0.000151787
0.000166866
0.000183683
0.000153223
0.000220636
0.00013353
0.000263338
0.000107146
0.00031258
7.33486e-05
0.000369257
3.13162e-05
0.000434388
-1.98861e-05
0.000509119
-8.13224e-05
0.000594729
-0.000154197
0.000692627
-0.000239858
0.000804334
-0.000339796
0.000931436
-0.000455618
0.00107552
-0.000589016
0.00123806
-0.000741608
0.0014202
-0.000915505
0.00162171
-0.00110727
-0.00135326
0.00184991
4.02117e-07
1.14687e-05
1.68349e-06
3.34967e-05
3.97948e-06
5.50559e-05
7.44811e-06
7.57022e-05
1.22677e-05
9.50113e-05
1.86375e-05
0.000112562
2.67788e-05
0.000127931
3.69387e-05
0.000140695
4.93936e-05
0.000150422
6.44549e-05
0.00015667
8.24757e-05
0.00015898
0.000103858
0.000156871
0.00012906
0.000149833
0.00015861
0.000137317
0.000193111
0.000118722
0.000233255
9.33853e-05
0.000279837
6.0564e-05
0.000333764
1.94219e-05
0.000396066
-3.0986e-05
0.000467906
-9.17264e-05
0.000550581
-0.000163997
0.00064551
-0.000249126
0.000754215
-0.000348563
0.000878266
-0.000463847
0.00101921
-0.000596559
0.00117843
-0.000748239
0.00135708
-0.000920259
0.00155553
-0.00111395
0.00177305
-0.00132479
-0.00159453
0.00201433
3.20806e-07
1.11479e-05
1.42555e-06
3.2392e-05
3.50192e-06
5.29795e-05
6.75506e-06
7.2449e-05
1.14074e-05
9.0359e-05
1.76999e-05
0.000106269
2.5895e-05
0.000119736
3.62808e-05
0.000130309
4.91765e-05
0.000137527
6.49396e-05
0.000140907
8.39737e-05
0.000139945
0.000106738
0.000134106
0.00013376
0.000122812
0.000165641
0.000105435
0.000203078
8.12852e-05
0.000246868
4.95953e-05
0.000297925
9.50711e-06
0.000357289
-3.99413e-05
0.00042613
-9.9827e-05
0.000505751
-0.000171348
0.000597572
-0.000255818
0.0007031
-0.000354654
0.000823877
-0.000469339
0.000961392
-0.000601362
0.00111697
-0.000752133
0.00129157
-0.000922846
0.00148579
-0.00111448
0.00169895
-0.00132711
0.00193006
-0.0015559
-0.0018442
0.00217973
2.37945e-07
1.09099e-05
1.1624e-06
3.14675e-05
3.01442e-06
5.11275e-05
6.04799e-06
6.94155e-05
1.0532e-05
8.5875e-05
1.67528e-05
0.000100048
2.50186e-05
0.00011147
3.56651e-05
0.000119663
4.90624e-05
0.000124129
6.56241e-05
0.000124345
8.58168e-05
0.000119753
0.000110172
0.000109751
0.000139298
9.36853e-05
0.000173894
7.08388e-05
0.000214762
4.04169e-05
0.000262821
1.53667e-06
0.000319114
-4.67856e-05
0.000384814
-0.000105641
0.000461221
-0.000176234
0.000549743
-0.00025987
0.000651864
-0.000357939
0.000769083
-0.000471873
0.000902827
-0.000603083
0.00105433
-0.000752865
0.00122448
-0.000922284
0.00141362
-0.00111198
0.0016215
-0.00132236
0.00184629
-0.0015519
0.00208703
-0.00179664
-0.00209609
0.00233892
1.59708e-07
1.07502e-05
9.16729e-07
3.07105e-05
2.56576e-06
4.94785e-05
5.41083e-06
6.65704e-05
9.76967e-06
8.15162e-05
1.59779e-05
9.384e-05
2.43946e-05
0.000103053
3.54099e-05
0.000108648
4.94539e-05
0.000110085
6.70066e-05
0.000106792
8.86103e-05
9.8149e-05
0.000114882
8.3479e-05
0.000146527
6.20402e-05
0.000184353
3.30128e-05
0.000229281
-4.5112e-06
0.000282356
-5.15378e-05
0.000344746
-0.000109176
0.000417742
-0.000178638
0.000502734
-0.000261226
0.000601172
-0.000358308
0.000714508
-0.000471275
0.000844103
-0.000601467
0.000991103
-0.000750083
0.0011563
-0.000918058
0.00133993
-0.00110592
0.00154153
-0.00131358
0.00175984
-0.00154067
0.00199196
-0.00178402
0.00223707
-0.00204176
-0.00234308
0.00248406
9.20232e-08
1.06582e-05
7.10368e-07
3.00922e-05
2.20283e-06
4.7986e-05
4.92438e-06
6.38488e-05
9.24393e-06
7.71966e-05
1.55501e-05
8.75339e-05
2.42585e-05
9.4345e-05
3.58209e-05
9.70851e-05
5.07359e-05
9.51702e-05
6.95607e-05
8.79677e-05
9.2924e-05
7.47856e-05
0.00012154
5.48627e-05
0.000156222
2.7358e-05
0.000197894
-8.65875e-06
0.000247597
-5.42143e-05
0.000306494
-0.000110435
0.000375861
-0.000178542
0.000457062
-0.000259839
0.000551515
-0.000355678
0.000660619
-0.000467413
0.000785671
-0.000596327
0.000927737
-0.000743534
0.00108751
-0.00090986
0.00126515
-0.0010957
0.00146011
-0.00130087
0.00167097
-0.00152445
0.00189538
-0.00176508
0.00212977
-0.00201841
0.00237302
-0.00228501
-0.00257775
0.00260769
4.02315e-08
1.0618e-05
5.63047e-07
2.95694e-05
1.96809e-06
4.65809e-05
4.66185e-06
6.11551e-05
9.06665e-06
7.27918e-05
1.56279e-05
8.09726e-05
2.48232e-05
8.51497e-05
3.71729e-05
8.47354e-05
5.32522e-05
7.90909e-05
7.37042e-05
6.75157e-05
9.92536e-05
4.92363e-05
0.000130719
2.3397e-05
0.000169027
-1.09492e-05
0.000215214
-5.4846e-05
0.000270434
-0.000109434
0.000335945
-0.000175946
0.000413087
-0.000255685
0.00050324
-0.000349992
0.000607758
-0.000460196
0.000727877
-0.000587532
0.000864595
-0.000733046
0.00101853
-0.000897472
0.00118977
-0.0010811
0.00137769
-0.00128362
0.00158084
-0.00150403
0.00179691
-0.00174052
0.0020225
-0.00199066
0.00225391
-0.00224982
0.00248848
-0.00251959
-0.00279274
0.00270348
8.87238e-09
1.06091e-05
4.91368e-07
2.90869e-05
1.89733e-06
4.5175e-05
4.68507e-06
5.83673e-05
9.33228e-06
6.81446e-05
1.63448e-05
7.39601e-05
2.62671e-05
7.52274e-05
3.96942e-05
7.13083e-05
5.72847e-05
6.15004e-05
7.97742e-05
4.50261e-05
0.000107988
2.10225e-05
0.000142852
-1.14672e-05
0.000185401
-5.34977e-05
0.000236775
-0.000106221
0.000298217
-0.000170875
0.000371039
-0.000248768
0.000456588
-0.000341234
0.000556176
-0.00044958
0.00067099
-0.00057501
0.000801975
-0.000718517
0.000949693
-0.000880764
0.00111417
-0.00106195
0.00129476
-0.00126168
0.00148999
-0.00147885
0.00169753
-0.00171157
0.00191425
-0.00195724
0.00213605
-0.00221246
0.00235941
-0.00247317
0.0025784
-0.00273859
-0.00298415
0.00276981
1.58496e-09
1.06075e-05
5.07914e-07
2.85805e-05
2.01786e-06
4.3665e-05
5.04143e-06
5.53438e-05
1.01133e-05
6.30727e-05
1.78028e-05
6.62706e-05
2.87254e-05
6.43049e-05
4.35554e-05
5.64782e-05
6.30394e-05
4.20164e-05
8.80083e-05
2.00572e-05
0.000119389
-1.03579e-05
0.000158209
-5.02874e-05
0.000205599
-0.000100888
0.000262782
-0.000163404
0.000331049
-0.000239142
0.000411715
-0.000329434
0.000506058
-0.000435577
0.000615228
-0.00055875
0.000740131
-0.000699913
0.000881295
-0.00085968
0.00103872
-0.00103819
0.00121174
-0.00123497
0.00139891
-0.00144885
0.00159793
-0.00167787
0.00180569
-0.00191934
0.00201843
-0.00216998
0.00223181
-0.00242584
0.00244248
-0.00268384
0.00264338
-0.00293948
-0.00318477
0.002844
1.93621e-08
1.05882e-05
6.20542e-07
2.79794e-05
2.34758e-06
4.1938e-05
5.76229e-06
5.19291e-05
1.14577e-05
5.73773e-05
2.00689e-05
5.76594e-05
3.22852e-05
5.20885e-05
4.88631e-05
3.99004e-05
7.06383e-05
2.02412e-05
9.85365e-05
-7.84106e-06
0.00013358
-4.54012e-05
0.000176887
-9.35943e-05
0.000229662
-0.000153664
0.000293176
-0.000226918
0.00036872
-0.000314685
0.000457543
-0.000418258
0.000560771
-0.000538805
0.000679289
-0.000677268
0.00081361
-0.000834234
0.000963735
-0.00100981
0.00112901
-0.00120347
0.00130803
-0.00141399
0.00149856
-0.00163937
0.00169757
-0.00187688
0.0019014
-0.00212316
0.00210593
-0.00237451
0.00230699
-0.0026269
0.00250084
-0.00287769
0.00268318
-0.00312183
-0.0033601
0.00285851
6.41291e-08
1.0524e-05
8.33015e-07
2.72105e-05
2.89485e-06
3.98762e-05
6.86268e-06
4.79612e-05
1.33885e-05
5.08515e-05
2.31746e-05
4.78734e-05
3.69853e-05
3.82778e-05
5.56595e-05
2.12262e-05
8.01204e-05
-4.21974e-06
0.000111383
-3.91033e-05
0.000150552
-8.4571e-05
0.000198819
-0.000141861
0.000257431
-0.000212276
0.000327661
-0.000297147
0.00041074
-0.000397765
0.00050778
-0.000515297
0.000619658
-0.000650683
0.000746896
-0.000804506
0.000889516
-0.000976855
0.00104691
-0.0011672
0.00121773
-0.00137429
0.00139983
-0.00159609
0.00159029
-0.00182984
0.00178556
-0.00207215
0.00198165
-0.00231926
0.00217449
-0.00256735
0.00236028
-0.00281269
0.00253572
-0.00305313
0.00269821
-0.00328432
-0.00351077
0.00284888
1.35106e-07
1.03889e-05
1.14466e-06
2.62009e-05
3.65925e-06
3.73616e-05
8.34264e-06
4.32778e-05
1.59059e-05
4.32882e-05
2.71186e-05
3.66607e-05
4.28197e-05
2.25767e-05
6.3928e-05
1.17899e-07
9.14489e-05
-3.17406e-05
0.000126475
-7.41296e-05
0.00017018
-0.000128275
0.000223794
-0.000195475
0.000288574
-0.000277056
0.00036574
-0.000374313
0.000456398
-0.000488422
0.000561436
-0.000620334
0.000681398
-0.000770645
0.000816352
-0.00093946
0.000965753
-0.00112626
0.00112834
-0.00132979
0.00130208
-0.00154802
0.00148417
-0.00177818
0.00167119
-0.00201685
0.00185928
-0.00226025
0.0020445
-0.00250447
0.00222309
-0.00274594
0.00239195
-0.00298154
0.00254865
-0.00320983
0.0026918
-0.00342748
-0.00364146
0.00282248
2.30973e-07
1.0158e-05
1.55146e-06
2.48804e-05
4.63306e-06
3.428e-05
1.01896e-05
3.77213e-05
1.89908e-05
3.4487e-05
3.18722e-05
2.37793e-05
4.97449e-05
4.70396e-06
7.36027e-05
-2.37398e-05
0.000104523
-6.26613e-05
0.000143663
-0.000113269
0.000192237
-0.000176849
0.000251486
-0.000254725
0.000322626
-0.000348196
0.000406766
-0.000458453
0.000504813
-0.00058647
0.000617354
-0.000732875
0.000744516
-0.000897808
0.000885843
-0.00108079
0.00104018
-0.00128059
0.00120562
-0.00149522
0.0013795
-0.0017219
0.00155854
-0.00195722
0.00173902
-0.00219733
0.00191707
-0.00243831
0.00208907
-0.00267647
0.00225191
-0.00290878
0.00240331
-0.00313295
0.00254188
-0.00334839
0.00266741
-0.00355301
-0.00375496
0.00278091
3.498e-07
9.80816e-06
2.04698e-06
2.31832e-05
5.80329e-06
3.05237e-05
1.23818e-05
3.11427e-05
2.26095e-05
2.42594e-05
3.73856e-05
9.00318e-06
5.76888e-05
-1.55992e-05
8.45794e-05
-5.06305e-05
0.000119195
-9.72769e-05
0.000162734
-0.000156808
0.000216426
-0.000230541
0.000281481
-0.00031978
0.00035902
-0.000425735
0.00044998
-0.000549413
0.000554997
-0.000691487
0.000674277
-0.000852156
0.000807468
-0.001031
0.000953544
-0.00122686
0.00111074
-0.00143779
0.00127655
-0.00166104
0.00144783
-0.00189319
0.00162101
-0.00213039
0.00179231
-0.00236864
0.00195817
-0.00260417
0.0021155
-0.0028338
0.00226202
-0.00305529
0.0023964
-0.00326733
0.00251819
-0.00347019
0.00262812
-0.00366294
-0.00385421
0.00272737
4.8934e-07
9.31882e-06
2.6235e-06
2.10491e-05
7.15385e-06
2.59933e-05
1.48917e-05
2.34049e-05
2.67192e-05
1.24319e-05
4.35954e-05
-7.8731e-06
6.65599e-05
-3.85637e-05
9.67288e-05
-8.07994e-05
0.000135282
-0.00013583
0.000183436
-0.000204962
0.000242399
-0.000289504
0.000313305
-0.000390686
0.000397126
-0.000509556
0.000494558
-0.000646844
0.000605897
-0.000802826
0.000730909
-0.000977168
0.000868713
-0.0011688
0.0010177
-0.00137585
0.00117555
-0.00159563
0.00133926
-0.00182475
0.00150539
-0.00205932
0.00167028
-0.00229527
0.00183039
-0.00252874
0.00198265
-0.00275642
0.00212472
-0.00297588
0.00225519
-0.00318576
0.00237363
-0.00338577
0.00248043
-0.00357698
0.00257694
-0.00375945
-0.00394172
0.00266446
6.47341e-07
8.67148e-06
3.27297e-06
1.84235e-05
8.6676e-06
2.05987e-05
1.76894e-05
1.43831e-05
3.12727e-05
-1.15137e-06
5.04312e-05
-2.70317e-05
7.62563e-05
-6.43888e-05
0.000109906
-0.000114449
0.000152582
-0.000178506
0.000205488
-0.000257869
0.000269774
-0.00035379
0.000346447
-0.000467359
0.000436269
-0.000599378
0.000539635
-0.00075021
0.00065644
-0.000919631
0.000785961
-0.00110669
0.000926773
-0.00130961
0.00107672
-0.0015258
0.001233
-0.00175191
0.00139229
-0.00198404
0.00155103
-0.00221806
0.00170573
-0.00244997
0.00185328
-0.0026763
0.00199129
-0.00289443
0.00211824
-0.00310283
0.00223356
-0.00330108
0.00233759
-0.00348981
0.00243133
-0.00367072
0.00251653
-0.00384465
-0.00401967
0.00259448
8.21781e-07
7.8497e-06
3.98787e-06
1.52574e-05
1.03279e-05
1.42586e-05
2.07451e-05
3.96592e-06
3.6222e-05
-1.66283e-05
5.78202e-05
-4.86298e-05
8.66713e-05
-9.32399e-05
0.000123958
-0.000151736
0.000170879
-0.000225426
0.000228593
-0.000315584
0.000298147
-0.000423343
0.000380368
-0.00054958
0.000475753
-0.000694763
0.000584335
-0.000858792
0.00070556
-0.00104086
0.000838196
-0.00123932
0.000980292
-0.00145171
0.00112922
-0.00167473
0.00128182
-0.00190451
0.00143462
-0.00213684
0.00158417
-0.00236761
0.00172734
-0.00259314
0.00186164
-0.0028106
0.00198542
-0.00301821
0.00209795
-0.00321536
0.00219942
-0.00340256
0.00229076
-0.00358115
0.00237337
-0.00375333
0.00244915
-0.00392043
-0.00408984
0.00251931
1.01103e-06
6.83867e-06
4.76168e-06
1.15067e-05
1.21199e-05
6.90046e-06
2.40311e-05
-7.94529e-06
4.15212e-05
-3.41184e-05
6.56904e-05
-7.2799e-05
9.76973e-05
-0.000125247
0.000138729
-0.000192767
0.000189952
-0.00027665
0.000252444
-0.000378076
0.0003271
-0.000497999
0.000414517
-0.000636998
0.000514871
-0.000795117
0.000627785
-0.000971707
0.000752231
-0.0011653
0.000886472
-0.00137357
0.00102808
-0.00159332
0.00117407
-0.00182072
0.00132108
-0.00205152
0.00146569
-0.00228146
0.00160474
-0.00250666
0.00173563
-0.00272403
0.00185657
-0.00293153
0.00196664
-0.00312828
0.00206587
-0.00331459
0.00215501
-0.0034917
0.0022354
-0.00366154
0.00230864
-0.00382657
0.00237661
-0.0039884
-0.00415362
0.00244039
1.21387e-06