/*--------------------------------*- C++ -*----------------------------------*\
  =========                 |
  \\      /  F ield         | OpenFOAM: The Open Source CFD Toolbox
   \\    /   O peration     | Website:  https://openfoam.org
    \\  /    A nd           | Version:  7
     \\/     M anipulation  |
\*---------------------------------------------------------------------------*/
FoamFile
{
    version     2.0;
    format      ascii;
    class       volVectorField;
    location    "65";
    object      U;
}
// * * * * * * * * * * * * * * * * * * * * * * * * * * * * * * * * * * * * * //

dimensions      [0 1 -1 0 0 0 0];

internalField   nonuniform List<vector> 
183
(
(1.1576 0.259948 3.85355e-20)
(1.15101 0.246646 -1.89168e-20)
(1.14454 0.233466 6.94929e-21)
(1.16277 0.316896 7.1337e-20)
(1.15527 0.299122 5.62992e-20)
(1.14884 0.282349 4.10397e-20)
(1.1431 0.266707 1.99147e-20)
(1.13728 0.25291 9.2036e-21)
(1.16149 0.365616 -5.89273e-20)
(1.15267 0.344583 -1.86066e-20)
(1.14498 0.324862 -5.55962e-20)
(1.13839 0.306353 1.03407e-20)
(1.13285 0.288908 -1.23099e-19)
(1.15962 0.422458 -6.50946e-20)
(1.14969 0.397572 1.31305e-20)
(1.14088 0.374237 9.13439e-20)
(1.13315 0.352373 -2.00423e-20)
(1.15567 0.488562 1.66621e-19)
(1.14522 0.459357 -2.33554e-19)
(1.1356 0.431781 3.59454e-20)
(1.12703 0.405934 1.79276e-20)
(1.11948 0.381747 -1.03814e-19)
(1.13668 0.530473 -1.47121e-19)
(1.12766 0.498716 5.32259e-20)
(1.11877 0.46832 1.01081e-19)
(1.1107 0.439745 -6.04198e-20)
(1.11233 0.604194 -5.11237e-19)
(1.11188 0.573663 1.3158e-19)
(1.10596 0.540251 1.63481e-19)
(1.09859 0.507172 -6.56959e-20)
(1.06554 0.63979 -9.06122e-20)
(1.07804 0.615674 9.38876e-20)
(1.07847 0.583009 1.59967e-19)
(1.07414 0.54806 -2.6611e-19)
(0.918671 0.632694 4.01548e-19)
(0.994424 0.65943 3.43368e-19)
(1.02969 0.651354 2.49126e-20)
(1.04222 0.624612 -5.26122e-20)
(1.04389 0.590071 4.72539e-20)
(0.754852 0.569437 4.33785e-19)
(0.886462 0.647962 -3.5914e-19)
(0.958234 0.671211 -2.58339e-19)
(0.992109 0.66 -3.06358e-20)
(0.521864 0.42951 -1.27969e-19)
(0.726785 0.584065 -2.577e-19)
(0.851799 0.659857 1.95084e-19)
(0.920105 0.679718 1.76077e-19)
(0.209374 0.185636 -4.95998e-20)
(0.501249 0.441383 2.98989e-19)
(0.696286 0.595414 -5.71139e-20)
(0.815038 0.668245 -8.7142e-20)
(0.200861 0.191197 -1.54673e-19)
(0.47861 0.450566 9.8431e-20)
(0.663705 0.603316 -2.0565e-20)
(0.191376 0.195531 -4.05292e-20)
(0.454238 0.456933 -7.34385e-21)
(0.181041 0.198551 -2.96937e-20)
(0.428427 0.460374 -3.31459e-20)
(0.169993 0.200192 -3.30191e-20)
(0.168413 -0.198604 -3.99854e-20)
(0.179096 -0.196708 -3.88445e-20)
(0.426363 -0.459493 -8.43346e-21)
(0.189022 -0.193438 9.69966e-20)
(0.451471 -0.455535 -7.56834e-20)
(0.198051 -0.188862 -7.00697e-20)
(0.475044 -0.448656 -2.79208e-20)
(0.661353 -0.604343 -5.83796e-20)
(0.20607 -0.183076 2.69111e-19)
(0.496779 -0.438969 3.28368e-20)
(0.692991 -0.595882 1.33799e-19)
(0.813575 -0.672103 -3.18262e-20)
(0.516375 -0.426586 -1.14234e-19)
(0.72242 -0.58399 -1.23953e-19)
(0.849404 -0.663267 5.63949e-20)
(0.919485 -0.686023 -3.76627e-20)
(0.749281 -0.568865 1.78104e-20)
(0.883011 -0.650954 -1.39205e-19)
(0.956769 -0.67724 -1.0648e-20)
(0.992053 -0.668174 -2.11096e-19)
(0.914059 -0.635293 -1.80263e-20)
(0.992006 -0.665211 -1.652e-19)
(1.0289 -0.659447 1.19507e-19)
(1.04246 -0.63419 1.37871e-19)
(1.04475 -0.600541 -1.43044e-20)
(1.06392 -0.647841 1.10866e-20)
(1.07765 -0.625362 -7.37353e-21)
(1.07886 -0.593694 4.61533e-20)
(1.07504 -0.559347 2.43586e-20)
(1.11124 -0.614054 2.24042e-19)
(1.11174 -0.584631 -2.95854e-19)
(1.10648 -0.551892 2.38492e-19)
(1.09962 -0.519226 -5.77396e-20)
(1.13677 -0.542546 -7.74269e-20)
(1.12838 -0.511247 1.20779e-19)
(1.12006 -0.481124 5.20784e-20)
(1.11252 -0.452688 -5.66069e-20)
(1.15607 -0.501655 -1.84469e-19)
(1.14629 -0.472747 4.81452e-20)
(1.13731 -0.445321 -3.78763e-20)
(1.12935 -0.4195 -2.53936e-20)
(1.1224 -0.395233 4.64259e-20)
(1.16121 -0.436683 1.63125e-19)
(1.15199 -0.411822 4.40796e-21)
(1.14388 -0.388398 -1.06025e-20)
(1.13685 -0.366344 -9.92688e-21)
(1.13091 -0.345601 -4.71707e-20)
(1.16459 -0.38054 1.06246e-20)
(1.15657 -0.3593 3.83059e-20)
(1.14972 -0.339288 1.13839e-20)
(1.14405 -0.320437 -2.98161e-20)
(1.13954 -0.302637 1.6588e-20)
(1.16134 -0.31398 6.49029e-20)
(1.156 -0.296809 3.12539e-20)
(1.15143 -0.28076 -1.01097e-19)
(1.14676 -0.266524 2.26614e-21)
(1.16646 -0.274739 6.72518e-20)
(1.16104 -0.260922 -4.97098e-20)
(1.15555 -0.247282 3.5849e-20)
(1.13727 0.181941 -4.195e-21)
(1.12238 0.166633 -4.41264e-22)
(1.11428 0.127435 -7.06952e-21)
(1.10616 0.113225 3.13902e-21)
(1.0979 0.0935083 8.83745e-23)
(1.09397 0.0805256 1.22292e-21)
(1.08773 0.0716843 5.72991e-22)
(1.08065 0.0618711 1.64074e-21)
(1.07742 0.0524636 1.07439e-21)
(1.07496 0.046172 -8.45215e-22)
(1.07134 0.0418236 -2.45066e-23)
(1.0663 0.0375932 6.4569e-22)
(1.06217 0.031453 -2.49337e-23)
(1.06002 0.0280554 -2.26212e-23)
(1.05623 0.0223393 8.03912e-23)
(1.05662 0.0196096 3.66201e-22)
(1.05209 0.0169119 3.8866e-22)
(1.05046 0.0126542 -2.78053e-22)
(1.04874 0.0079039 2.46679e-23)
(1.05073 0.00473064 -6.2738e-23)
(1.04728 0.00390877 -8.31532e-22)
(1.06541 0.0383661 -3.26782e-22)
(1.0612 0.0320273 -2.53308e-22)
(1.0591 0.028529 -8.63739e-23)
(1.05535 0.0225824 1.05679e-23)
(1.05601 0.0198927 -3.37829e-22)
(1.05135 0.0173773 1.11706e-22)
(1.04955 0.0129586 2.48142e-22)
(1.04789 0.00786712 1.32441e-22)
(1.05015 0.00482901 7.00962e-22)
(1.0464 0.00417574 -4.79844e-23)
(1.08386 -0.054351 -3.28477e-22)
(1.07522 -0.0444614 4.01299e-22)
(1.07299 -0.0382466 4.10143e-23)
(1.06556 -0.0323347 3.09989e-21)
(1.06489 -0.0259402 -1.38835e-21)
(1.05932 -0.0223903 -1.57961e-22)
(1.06006 -0.0176722 -4.21982e-22)
(1.05462 -0.0169827 -5.04074e-22)
(1.05308 -0.0112015 -1.49681e-22)
(1.05168 -0.00847129 1.23313e-21)
(1.05269 -0.00536038 1.35808e-21)
(1.0514 -0.00502399 -3.77466e-22)
(1.04906 -0.00185755 2.72981e-22)
(1.14974 -0.195396 -7.96895e-21)
(1.13783 -0.176466 5.76871e-22)
(1.13145 -0.135422 4.37653e-21)
(1.12245 -0.117339 5.23458e-22)
(1.11616 -0.0966167 -2.0612e-21)
(1.10659 -0.0844117 -6.4096e-22)
(1.09719 -0.0714873 -1.90377e-22)
(1.0908 -0.0587085 -1.08258e-22)
(1.08533 -0.0528763 3.95991e-22)
(1.07667 -0.043252 -4.46928e-22)
(1.07417 -0.0372939 -4.3797e-23)
(1.06675 -0.0315217 -5.80987e-22)
(1.06585 -0.025426 4.06536e-24)
(1.06019 -0.0220031 2.51185e-22)
(1.06064 -0.0173376 -3.50428e-22)
(1.05531 -0.0164742 1.76142e-22)
(1.05386 -0.0109576 -1.51053e-21)
(1.05235 -0.0084622 -1.08716e-21)
(1.05311 -0.00534511 -2.33894e-22)
(1.05184 -0.0047904 -9.04543e-22)
(1.04974 -0.00169545 1.61416e-21)
)
;

boundaryField
{
    inlet
    {
        type            uniformFixedValue;
        uniformValue    constant (1 0 0);
        value           nonuniform 0();
    }
    outlet
    {
        type            pressureInletOutletVelocity;
        value           nonuniform 0();
    }
    cylinder
    {
        type            fixedValue;
        value           uniform (0 0 0);
    }
    top
    {
        type            symmetryPlane;
    }
    bottom
    {
        type            symmetryPlane;
    }
    defaultFaces
    {
        type            empty;
    }
    procBoundary12to11
    {
        type            processor;
        value           nonuniform List<vector> 
116
(
(1.13168 0.239009 6.52649e-20)
(1.12799 0.2727 9.45413e-20)
(1.13168 0.239009 6.52649e-20)
(1.12298 0.258432 4.98699e-20)
(1.12647 0.331899 8.09822e-20)
(1.12084 0.3127 -3.75285e-20)
(1.12799 0.2727 9.45413e-20)
(1.11623 0.294626 -8.31849e-20)
(1.12647 0.331899 8.09822e-20)
(1.11291 0.359119 1.02901e-19)
(1.10357 0.41303 8.71797e-20)
(1.11291 0.359119 1.02901e-19)
(1.09737 0.388076 -5.62419e-20)
(1.09142 0.475724 3.94231e-21)
(1.10357 0.41303 8.71797e-20)
(1.085 0.446265 -4.02771e-20)
(1.09142 0.475724 3.94231e-21)
(1.06859 0.513836 -8.51768e-20)
(1.06859 0.513836 -8.51768e-20)
(1.04137 0.553807 -5.95483e-20)
(1.00512 0.63091 3.18352e-21)
(1.04137 0.553807 -5.95483e-20)
(1.00833 0.59476 -1.62543e-19)
(1.00512 0.63091 3.18352e-21)
(0.9531 0.665625 1.18017e-19)
(0.9531 0.665625 1.18017e-19)
(0.880377 0.684844 7.58187e-20)
(0.880377 0.684844 7.58187e-20)
(0.776547 0.673011 5.84313e-20)
(0.776547 0.673011 5.84313e-20)
(0.629405 0.607653 5.22305e-20)
(0.629405 0.607653 5.22305e-20)
(0.593748 0.608341 1.49193e-20)
(0.401476 0.460802 -1.7317e-20)
(0.401476 0.460802 -1.7317e-20)
(0.158376 0.200404 -5.89683e-20)
(0.157117 -0.19907 -5.99036e-20)
(0.400026 -0.460437 2.4131e-20)
(0.400026 -0.460437 2.4131e-20)
(0.592933 -0.610498 2.58626e-20)
(0.627876 -0.609245 -9.02143e-20)
(0.627876 -0.609245 -9.02143e-20)
(0.775897 -0.677335 3.06589e-20)
(0.775897 -0.677335 3.06589e-20)
(0.880494 -0.69145 -1.244e-19)
(0.880494 -0.69145 -1.244e-19)
(0.953688 -0.673919 -2.117e-20)
(0.953688 -0.673919 -2.117e-20)
(1.00591 -0.640431 -8.81508e-20)
(1.00591 -0.640431 -8.81508e-20)
(1.00961 -0.605074 1.13711e-19)
(1.04263 -0.56481 -2.9834e-20)
(1.04263 -0.56481 -2.9834e-20)
(1.06991 -0.525492 -5.36958e-21)
(1.06991 -0.525492 -5.36958e-21)
(1.09291 -0.488026 -5.70417e-22)
(1.09291 -0.488026 -5.70417e-22)
(1.08694 -0.458695 6.11325e-21)
(1.10592 -0.426 -6.70406e-20)
(1.10592 -0.426 -6.70406e-20)
(1.10022 -0.400972 8.32566e-21)
(1.11643 -0.37243 2.52768e-21)
(1.11643 -0.37243 2.52768e-21)
(1.11146 -0.351012 5.48193e-20)
(1.1261 -0.326087 5.652e-21)
(1.1261 -0.326087 5.652e-21)
(1.12246 -0.30769 4.47253e-20)
(1.13581 -0.286075 -3.16906e-20)
(1.13581 -0.286075 -3.16906e-20)
(1.13196 -0.271436 -2.60052e-20)
(1.14214 -0.252254 -3.3023e-22)
(1.14214 -0.252254 -3.3023e-22)
(1.12736 0.185383 -4.32178e-21)
(1.11582 0.170507 -6.3843e-21)
(1.1092 0.130791 3.50945e-21)
(1.10231 0.115733 2.65116e-23)
(1.09475 0.0956083 -2.21291e-23)
(1.09159 0.0819474 -2.43391e-21)
(1.08592 0.0731735 -1.00327e-21)
(1.07884 0.0631667 7.99954e-22)
(1.07578 0.0532009 -5.07012e-24)
(1.07379 0.0466743 6.67894e-22)
(1.07049 0.0425061 9.53031e-23)
(1.07049 0.0425061 9.53031e-23)
(1.06455 0.039163 2.74061e-22)
(1.06022 0.0326247 -4.5432e-23)
(1.05815 0.0290057 4.3343e-23)
(1.05445 0.0228005 1.1758e-22)
(1.05542 0.0201602 -1.42568e-22)
(1.05062 0.017877 -3.62801e-22)
(1.04861 0.0132836 2.11688e-22)
(1.04702 0.00779924 -3.48655e-22)
(1.04958 0.00493147 3.80394e-22)
(1.04549 0.00447379 2.19389e-23)
(1.08238 -0.0558039 -4.52004e-22)
(1.07374 -0.0456765 2.70329e-22)
(1.07179 -0.039195 -3.61358e-22)
(1.06433 -0.0331498 9.33071e-22)
(1.06389 -0.0264376 -9.18971e-22)
(1.05843 -0.0227437 -5.83392e-23)
(1.05949 -0.0179897 3.75975e-22)
(1.05394 -0.0175168 -1.63811e-22)
(1.05227 -0.0114563 1.04416e-21)
(1.05099 -0.00844392 -6.66149e-23)
(1.05228 -0.00535084 -1.09031e-23)
(1.05098 -0.0052861 -4.45026e-22)
(1.04834 -0.00204818 4.51313e-22)
(1.13916 -0.198544 -6.28249e-22)
(1.13046 -0.180216 2.06389e-21)
(1.12572 -0.138975 -3.61685e-21)
(1.11804 -0.120006 -9.57895e-22)
(1.11296 -0.0990785 -1.45293e-21)
(1.1041 -0.0867697 1.45679e-21)
(1.09492 -0.0736217 3.45937e-22)
(1.08889 -0.0601945 -2.00202e-22)
(1.08889 -0.0601945 -2.00202e-22)
)
;
    }
    procBoundary12to13
    {
        type            processor;
        value           nonuniform List<vector> 
106
(
(1.17145 0.252468 -2.78676e-20)
(1.16414 0.239678 -1.94981e-20)
(1.15685 0.227258 2.29235e-20)
(1.1798 0.30806 -2.33392e-20)
(1.17144 0.291059 1.71508e-20)
(1.16416 0.274991 5.61467e-20)
(1.16416 0.274991 5.61467e-20)
(1.18125 0.355958 -2.91632e-20)
(1.17141 0.335813 -8.39639e-20)
(1.17141 0.335813 -8.39639e-20)
(1.18266 0.411867 -2.32121e-19)
(1.17148 0.388025 1.00325e-19)
(1.17148 0.388025 1.00325e-19)
(1.18251 0.476814 2.26903e-19)
(1.17066 0.448928 -3.37434e-20)
(1.17066 0.448928 -3.37434e-20)
(1.16614 0.51883 2.58065e-19)
(1.16614 0.51883 2.58065e-19)
(1.14485 0.590281 -3.53664e-19)
(1.1439 0.562135 3.21862e-19)
(1.1439 0.562135 3.21862e-19)
(1.09938 0.62541 1.04852e-19)
(1.09938 0.62541 1.04852e-19)
(0.94817 0.614219 2.76386e-19)
(1.02835 0.644515 -1.92312e-19)
(1.02835 0.644515 -1.92312e-19)
(0.780191 0.551744 3.0343e-19)
(0.780191 0.551744 3.0343e-19)
(0.540196 0.415064 5.64333e-19)
(0.540196 0.415064 5.64333e-19)
(0.216836 0.178952 -1.95583e-19)
(0.216836 0.178952 -1.95583e-19)
(0.213028 -0.17619 4.56465e-20)
(0.213028 -0.17619 4.56465e-20)
(0.53359 -0.411606 -5.62281e-20)
(0.53359 -0.411606 -5.62281e-20)
(0.773234 -0.550684 1.87285e-19)
(0.773234 -0.550684 1.87285e-19)
(0.942173 -0.616482 -7.84085e-20)
(1.02486 -0.650057 -6.21781e-20)
(1.02486 -0.650057 -6.21781e-20)
(1.09681 -0.633475 6.50702e-20)
(1.09681 -0.633475 6.50702e-20)
(1.14297 -0.600383 2.73827e-19)
(1.14318 -0.57346 -1.63382e-19)
(1.14318 -0.57346 -1.63382e-19)
(1.16576 -0.531419 -1.03511e-19)
(1.16576 -0.531419 -1.03511e-19)
(1.18256 -0.490561 -2.3275e-20)
(1.1715 -0.462996 1.78427e-19)
(1.1715 -0.462996 1.78427e-19)
(1.18414 -0.426873 1.70082e-19)
(1.17378 -0.40305 -3.77647e-20)
(1.17378 -0.40305 -3.77647e-20)
(1.18448 -0.371739 -8.26453e-20)
(1.17555 -0.351365 3.09675e-20)
(1.16784 -0.332129 -6.32266e-20)
(1.16784 -0.332129 -6.32266e-20)
(1.17795 -0.30677 -2.45088e-20)
(1.17182 -0.290253 1.90054e-20)
(1.17182 -0.290253 1.90054e-20)
(1.18089 -0.268062 1.91062e-20)
(1.17478 -0.254665 1.4275e-20)
(1.16849 -0.241686 -4.72188e-20)
(1.14681 0.178061 -1.72514e-20)
(1.12871 0.162394 -1.95489e-21)
(1.1192 0.123994 3.10741e-21)
(1.1099 0.110633 4.30892e-21)
(1.10095 0.0913648 -2.4978e-22)
(1.09628 0.0790381 1.32075e-21)
(1.08954 0.0701759 3.09281e-21)
(1.08243 0.0606056 -1.89406e-21)
(1.07899 0.0517068 7.22023e-22)
(1.07611 0.045611 -5.76806e-22)
(1.07222 0.04112 9.6274e-22)
(1.06721 0.0368424 -1.27614e-22)
(1.06314 0.0308961 -5.89917e-23)
(1.06093 0.0275833 4.57101e-23)
(1.0571 0.0220755 7.4707e-23)
(1.05725 0.0193148 3.42297e-22)
(1.05284 0.0164763 2.81743e-22)
(1.05134 0.0123669 3.57139e-22)
(1.04957 0.00791441 2.00381e-22)
(1.05133 0.00463617 2.84436e-22)
(1.04814 0.00366866 -1.03467e-21)
(1.16003 -0.191836 1.05481e-20)
(1.14504 -0.172353 5.11662e-21)
(1.13707 -0.13177 6.35539e-22)
(1.12677 -0.114539 -1.6996e-22)
(1.11932 -0.0940462 -2.13077e-23)
(1.10909 -0.0820142 4.44796e-22)
(1.09944 -0.0693607 -1.71167e-21)
(1.09266 -0.0571912 3.86858e-22)
(1.08678 -0.0513828 3.57618e-23)
(1.0781 -0.0420472 -1.28879e-22)
(1.07533 -0.0363354 1.7863e-22)
(1.06792 -0.0307092 4.28699e-22)
(1.06679 -0.0248952 -1.1912e-21)
(1.06104 -0.0215872 -3.38771e-22)
(1.06123 -0.0169888 1.65047e-22)
(1.05599 -0.0159869 -6.7267e-22)
(1.05461 -0.0107209 -9.29837e-22)
(1.053 -0.00842196 4.14832e-22)
(1.05354 -0.0053098 6.11703e-22)
(1.0523 -0.00458047 -7.12377e-22)
(1.05039 -0.00155676 2.27953e-21)
)
;
    }
}


// ************************************************************************* //
