/*--------------------------------*- C++ -*----------------------------------*\
  =========                 |
  \\      /  F ield         | OpenFOAM: The Open Source CFD Toolbox
   \\    /   O peration     | Website:  https://openfoam.org
    \\  /    A nd           | Version:  7
     \\/     M anipulation  |
\*---------------------------------------------------------------------------*/
FoamFile
{
    version     2.0;
    format      ascii;
    class       volScalarField;
    location    "15";
    object      p;
}
// * * * * * * * * * * * * * * * * * * * * * * * * * * * * * * * * * * * * * //

dimensions      [0 2 -2 0 0 0 0];

internalField   nonuniform List<scalar> 
183
(
0.0892811
0.0866846
0.0833815
0.0798861
0.0761972
0.0724186
0.0687702
0.065276
0.0618908
0.0587407
0.0558923
0.0532931
0.0509108
0.0487464
0.0468269
0.0452175
0.0438608
0.0427386
0.041888
0.041339
0.0410475
0.0831198
0.0809807
0.078754
0.0764058
0.0739859
0.0715122
0.0689746
0.0663926
0.063824
0.0612934
0.0588258
0.0564726
0.0542753
0.0522619
0.0504523
0.0488508
0.0474957
0.0464059
0.0455809
0.0450208
0.0447478
0.0908068
0.0842269
0.0912309
0.0845802
0.0915936
0.0849163
0.091968
0.0852267
0.0923326
0.0855304
0.0926812
0.0858174
0.0930147
0.0860861
0.0933328
0.0863372
0.0936342
0.0865706
0.0939177
0.0867863
0.0941822
0.0869842
0.0944267
0.0871641
0.09465
0.0873261
0.0955023
0.0948512
0.0874701
0.0956072
0.0950294
0.0875961
0.0956969
0.0951836
0.0877042
0.095772
0.0953131
0.0877943
0.0958312
0.0954174
0.0878666
0.0958758
0.0954963
0.0879209
0.0959083
0.0955496
0.0879575
0.0959286
0.0955769
0.0879761
0.0959325
0.0955775
0.0879769
0.0959196
0.0955514
0.0879599
0.0958943
0.0954987
0.0879249
0.0958546
0.0954199
0.0878721
0.0958001
0.0953155
0.0878015
0.0957297
0.0951864
0.0877128
0.0956451
0.0950337
0.0876063
0.0948577
0.0874817
0.0946583
0.0873391
0.0944362
0.0871785
0.0941928
0.0869999
0.0939292
0.0868034
0.0936465
0.0865889
0.0933458
0.0863566
0.0930282
0.0861066
0.0926951
0.0858389
0.0923464
0.0855528
0.0919818
0.0852493
0.0916112
0.0849413
0.0912438
0.0846053
0.0908203
0.0842524
0.0892927
0.0831476
0.0866923
0.0810035
0.0834056
0.0787651
0.079891
0.0764036
0.0761844
0.0739584
0.0724989
0.0714442
0.068843
0.0688887
0.0652219
0.0663141
0.0618362
0.0637421
0.0586375
0.0612267
0.0556927
0.0587914
0.0530071
0.056469
0.0505691
0.0542997
0.0484497
0.0522925
0.0466478
0.0504731
0.0451252
0.048871
0.0438385
0.0475171
0.0428162
0.0464138
0.0420774
0.045565
0.0415806
0.0449991
0.0413207
0.0447226
)
;

boundaryField
{
    inlet
    {
        type            zeroGradient;
    }
    outlet
    {
        type            fixedValue;
        value           nonuniform 0();
    }
    cylinder
    {
        type            zeroGradient;
    }
    top
    {
        type            symmetryPlane;
    }
    bottom
    {
        type            symmetryPlane;
    }
    defaultFaces
    {
        type            empty;
    }
    procBoundary0to1
    {
        type            processor;
        value           nonuniform List<scalar> 
86
(
0.0910792
0.0875986
0.0840078
0.0802624
0.076376
0.0724099
0.0683897
0.0644629
0.0607684
0.0572508
0.0538619
0.0507002
0.0478628
0.0453575
0.0431469
0.0411783
0.0395465
0.0382903
0.0373339
0.0366506
0.0363584
0.0924876
0.0928463
0.0931659
0.0934784
0.0937718
0.0940435
0.0942944
0.0945249
0.0947353
0.0949262
0.0950963
0.0952451
0.0953808
0.0953808
0.116358
0.116744
0.11708
0.117362
0.117591
0.117765
0.117881
0.117941
0.117943
0.11789
0.117779
0.117613
0.117391
0.117115
0.116785
0.0955614
0.0955614
0.0954377
0.0953096
0.0951634
0.0949974
0.0948116
0.094606
0.0943802
0.0941339
0.0938669
0.093578
0.09327
0.0929547
0.0926013
0.091217
0.0877204
0.0841103
0.0803727
0.0764418
0.0723071
0.0682002
0.0642685
0.0604918
0.0569318
0.0536113
0.0505665
0.0478313
0.0453463
0.0431128
0.0412029
0.0396685
0.0384363
0.0374668
0.0368386
0.0365677
)
;
    }
}


// ************************************************************************* //
