/*--------------------------------*- C++ -*----------------------------------*\
  =========                 |
  \\      /  F ield         | OpenFOAM: The Open Source CFD Toolbox
   \\    /   O peration     | Website:  https://openfoam.org
    \\  /    A nd           | Version:  7
     \\/     M anipulation  |
\*---------------------------------------------------------------------------*/
FoamFile
{
    version     2.0;
    format      ascii;
    class       volVectorField;
    location    "15";
    object      U;
}
// * * * * * * * * * * * * * * * * * * * * * * * * * * * * * * * * * * * * * //

dimensions      [0 1 -1 0 0 0 0];

internalField   nonuniform List<vector> 
183
(
(1.00262 0.0049951 0)
(1.00534 0.00318889 0)
(1.00674 0.00227871 0)
(1.00635 0.00146167 0)
(1.00538 0.000617758 0)
(1.00483 0.000445294 0)
(1.00423 0.000867913 0)
(1.00299 0.00142603 0)
(1.00201 0.00183303 0)
(1.00285 0.00254801 0)
(1.00407 0.00318966 0)
(1.00419 0.00356268 0)
(1.00277 0.00371172 0)
(1.0018 0.00350264 0)
(1.0022 0.00334649 0)
(1.00317 0.00317742 0)
(1.0027 0.002701 0)
(1.00219 0.00204137 0)
(1.00239 0.00150401 0)
(1.00309 0.000887072 0)
(1.00261 0.000287117 0)
(0.992084 0.00683083 0)
(0.990321 0.0089814 0)
(0.9901 0.0104121 0)
(0.991365 0.0116018 0)
(0.993278 0.0125809 0)
(0.995023 0.0130654 0)
(0.99665 0.013056 0)
(0.998487 0.0127207 0)
(0.999968 0.0122225 0)
(1.00008 0.0113879 0)
(0.999587 0.0103682 0)
(0.999653 0.0092891 0)
(1.00069 0.00822241 0)
(1.00149 0.00728492 0)
(1.00135 0.00629088 0)
(1.00074 0.00522643 0)
(1.00091 0.00423731 0)
(1.00124 0.00333825 0)
(1.00117 0.00239622 0)
(1.00082 0.00145008 0)
(1.00107 0.000481603 0)
(1.00034 0.00478554 -1.10445e-21)
(0.993559 0.00613893 4.3035e-21)
(0.999646 0.00446484 8.50592e-21)
(0.994017 0.00589364 -2.77443e-22)
(0.999022 0.00413986 -7.7181e-21)
(0.994439 0.00563658 6.86302e-22)
(0.998464 0.00387031 8.86566e-22)
(0.99482 0.00538345 -1.58562e-20)
(0.997974 0.00359932 -4.81372e-21)
(0.995159 0.00513554 2.23562e-21)
(0.997551 0.00332668 3.54666e-21)
(0.995456 0.00487409 4.712e-21)
(0.997192 0.00305918 1.59629e-20)
(0.995712 0.00460178 2.01164e-21)
(0.996893 0.00279788 -5.94063e-22)
(0.995929 0.00432197 -7.81144e-21)
(0.996646 0.00254253 3.40856e-22)
(0.996109 0.00403563 2.10067e-20)
(0.996444 0.00229324 4.92651e-21)
(0.996256 0.00374319 -9.29783e-21)
(0.99628 0.00205007 -1.97521e-20)
(0.996374 0.00344505 -7.92887e-21)
(0.996146 0.00181341 6.09018e-21)
(0.996467 0.00314163 1.9426e-20)
(0.996037 0.00158328 -1.52079e-20)
(0.996541 0.00283331 -2.95647e-20)
(0.987978 0.00818186 -2.1973e-21)
(0.995948 0.00135948 9.21301e-21)
(0.996597 0.00252044 7.47927e-21)
(0.988013 0.00714933 -1.004e-20)
(0.995874 0.00114182 1.67341e-20)
(0.996641 0.00220342 9.99658e-21)
(0.988043 0.0061013 6.70281e-21)
(0.995812 0.000929823 -3.79995e-21)
(0.996674 0.00188264 -2.30725e-21)
(0.988069 0.00503911 1.4522e-22)
(0.995762 0.000723124 -9.41834e-21)
(0.996699 0.00155854 -1.6086e-21)
(0.988093 0.0039696 -1.73941e-21)
(0.99572 0.000520888 -5.95399e-21)
(0.996718 0.00123159 3.26482e-21)
(0.988112 0.0029011 -2.88506e-21)
(0.995687 0.000322057 3.68976e-21)
(0.996732 0.00090231 -5.27721e-22)
(0.988128 0.00182732 -5.40962e-22)
(0.995662 0.000125978 3.36878e-21)
(0.996742 0.000571236 -2.30634e-21)
(0.988141 0.000737877 1.18264e-21)
(0.995643 -6.8044e-05 1.40646e-21)
(0.996749 0.000238939 1.07164e-21)
(0.988149 -0.000363345 1.26059e-21)
(0.995633 -0.000261028 1.31589e-21)
(0.996752 -9.40004e-05 1.13312e-21)
(0.988154 -0.00146115 -3.79572e-22)
(0.995632 -0.00045437 3.23985e-21)
(0.996751 -0.000426948 -2.35342e-21)
(0.988154 -0.00254936 -2.10361e-21)
(0.995638 -0.000649144 3.74748e-21)
(0.996747 -0.000759259 -3.54963e-22)
(0.988151 -0.0036281 -1.28497e-21)
(0.995654 -0.000846081 -5.78789e-21)
(0.996738 -0.00109034 3.26553e-21)
(0.988145 -0.00469276 -6.08766e-22)
(0.995678 -0.001046 -9.59271e-21)
(0.996724 -0.00141963 -1.59294e-21)
(0.988134 -0.00573782 6.8898e-21)
(0.995713 -0.00124977 -3.51682e-21)
(0.996702 -0.00174661 -2.49499e-21)
(0.988121 -0.00675185 -1.119e-20)
(0.995758 -0.00145908 1.80666e-20)
(0.996673 -0.00207076 1.06464e-20)
(0.995817 -0.00167259 9.84296e-21)
(0.996632 -0.0023917 6.849e-21)
(0.995893 -0.00189076 -1.51768e-20)
(0.996577 -0.002709 -2.90694e-20)
(0.995992 -0.00211579 4.97388e-21)
(0.996504 -0.00302214 1.92967e-20)
(0.996116 -0.00234654 -2.08487e-20)
(0.996411 -0.00333074 -6.73691e-21)
(0.996273 -0.00258306 4.80281e-21)
(0.996292 -0.00363437 -8.50617e-21)
(0.99647 -0.00282526 -4.27236e-22)
(0.996145 -0.00393254 2.07651e-20)
(0.996713 -0.00307303 -4.89215e-21)
(0.995964 -0.00422477 -6.34056e-21)
(0.99701 -0.00332638 1.61603e-20)
(0.995746 -0.00451061 2.3176e-21)
(0.997367 -0.00358555 -4.41568e-22)
(0.995489 -0.00478916 5.11128e-21)
(0.997789 -0.00384886 -5.74571e-21)
(0.995191 -0.00505688 2.73763e-21)
(0.998278 -0.00410935 -1.44394e-21)
(0.994852 -0.00530944 -1.46968e-20)
(0.998835 -0.00437574 -5.58758e-21)
(0.994471 -0.00556811 -1.98963e-24)
(0.999456 -0.00469537 6.66133e-21)
(0.994051 -0.00583238 -1.67309e-21)
(1.00014 -0.00500292 -1.75912e-21)
(0.993595 -0.00608398 3.33707e-21)
(1.0024 -0.00517679 0)
(0.992131 -0.00679606 0)
(1.00511 -0.00341401 0)
(0.990382 -0.00894366 0)
(1.00632 -0.00246351 0)
(0.990189 -0.0104036 0)
(1.00647 -0.0014995 0)
(0.991085 -0.0116741 0)
(1.00611 -0.000852552 0)
(0.992592 -0.0125907 0)
(1.00518 -0.000734698 0)
(0.994489 -0.0130414 0)
(1.00383 -0.000583299 0)
(0.996633 -0.013278 0)
(1.00266 -0.000986424 0)
(0.998607 -0.01303 0)
(1.00209 -0.00148673 0)
(0.999986 -0.0124774 0)
(1.00171 -0.0018831 0)
(1.00103 -0.011753 0)
(1.00118 -0.00257666 0)
(1.00192 -0.0107324 0)
(1.00082 -0.00282968 0)
(1.0025 -0.00976983 0)
(1.00125 -0.00318326 0)
(1.00235 -0.00865639 0)
(1.00286 -0.00342458 0)
(1.00128 -0.00749856 0)
(1.00414 -0.00363346 0)
(1.00025 -0.00625254 0)
(1.00388 -0.00349256 0)
(1.00019 -0.00510042 0)
(1.0028 -0.00304881 0)
(1.00074 -0.00409954 0)
(1.0029 -0.0025261 0)
(1.00065 -0.00316283 0)
(1.004 -0.00192908 0)
(0.999952 -0.00221592 0)
(1.00396 -0.00120001 0)
(0.999915 -0.00128378 0)
(1.00292 -0.000397993 0)
(1.00051 -0.00041782 0)
)
;

boundaryField
{
    inlet
    {
        type            uniformFixedValue;
        uniformValue    constant (1 0 0);
        value           uniform (1 0 0);
    }
    outlet
    {
        type            pressureInletOutletVelocity;
        value           nonuniform 0();
    }
    cylinder
    {
        type            fixedValue;
        value           nonuniform 0();
    }
    top
    {
        type            symmetryPlane;
    }
    bottom
    {
        type            symmetryPlane;
    }
    defaultFaces
    {
        type            empty;
    }
    procBoundary0to1
    {
        type            processor;
        value           nonuniform List<vector> 
86
(
(0.983328 0.0214263 0)
(0.982872 0.0268195 0)
(0.983849 0.0308876 0)
(0.98679 0.0333457 0)
(0.990352 0.0355995 0)
(0.993349 0.0360687 0)
(0.996296 0.0350594 0)
(0.999751 0.033811 0)
(1.00289 0.0323763 0)
(1.00357 0.0297614 0)
(1.00368 0.0269789 0)
(1.00466 0.02447 0)
(1.00714 0.0220202 0)
(1.00877 0.019797 0)
(1.0088 0.017087 0)
(1.00799 0.0142087 0)
(1.00898 0.0117668 0)
(1.00966 0.00941143 0)
(1.00954 0.00664213 0)
(1.00869 0.00401452 0)
(1.00946 0.00137563 0)
(0.984992 0.019638 1.25294e-21)
(0.98553 0.0188587 -6.83901e-23)
(0.986026 0.0180789 4.02708e-21)
(0.986458 0.0173044 5.98001e-21)
(0.986818 0.0165019 -2.27645e-20)
(0.987109 0.0156713 1.51497e-20)
(0.987337 0.0148162 1.13029e-20)
(0.987512 0.0139372 -3.62238e-21)
(0.987644 0.0130345 5.9665e-21)
(0.987744 0.0121074 -6.96564e-21)
(0.987821 0.0111604 7.36114e-21)
(0.987889 0.0101883 1.14276e-20)
(0.987937 0.00919432 -2.68836e-20)
(0.987937 0.00919432 -2.68836e-20)
(0.974649 0.00639988 -1.10159e-20)
(0.974323 0.00549387 4.31816e-21)
(0.974036 0.00460092 -1.08645e-20)
(0.973791 0.00372167 2.08342e-21)
(0.973589 0.00285521 -6.75638e-21)
(0.973432 0.00199938 3.92782e-21)
(0.973323 0.00115117 -2.3206e-21)
(0.973263 0.000306266 1.98882e-23)
(0.973251 -0.000535406 2.32985e-22)
(0.973287 -0.00137811 -1.19857e-21)
(0.97337 -0.00222749 4.816e-21)
(0.9735 -0.00308417 -6.79289e-21)
(0.973676 -0.00395124 3.53428e-21)
(0.973895 -0.00483115 -1.05292e-20)
(0.974155 -0.00572385 7.80557e-21)
(0.988102 -0.00778265 -5.51883e-22)
(0.988102 -0.00778265 -5.51883e-22)
(0.988076 -0.00881808 -2.49959e-20)
(0.988041 -0.00981546 1.05434e-20)
(0.987991 -0.0107939 5.92492e-21)
(0.987927 -0.0117493 -8.25349e-21)
(0.987838 -0.0126826 -5.40513e-22)
(0.987717 -0.0135927 -2.19489e-21)
(0.987551 -0.0144796 9.93149e-21)
(0.987331 -0.0153432 7.5906e-21)
(0.987046 -0.0161827 -2.21547e-20)
(0.986691 -0.0169945 -2.49452e-22)
(0.986265 -0.0177789 8.63539e-21)
(0.985775 -0.0185681 -2.20843e-21)
(0.985245 -0.0193577 -4.4428e-22)
(0.983613 -0.0212063 0)
(0.983106 -0.0264856 0)
(0.984464 -0.0306401 0)
(0.986677 -0.0335163 0)
(0.989421 -0.0352062 0)
(0.992932 -0.0354264 0)
(0.996861 -0.0357262 0)
(1.00039 -0.0345295 0)
(1.00286 -0.0326186 0)
(1.00485 -0.0306824 0)
(1.00677 -0.027853 0)
(1.00829 -0.025492 0)
(1.00883 -0.022577 0)
(1.00774 -0.0194697 0)
(1.00688 -0.0162543 0)
(1.00753 -0.0135009 0)
(1.00893 -0.0110026 0)
(1.00887 -0.00837503 0)
(1.0076 -0.0058223 0)
(1.00768 -0.00349354 0)
(1.00894 -0.00118766 0)
)
;
    }
}


// ************************************************************************* //
