/*--------------------------------*- C++ -*----------------------------------*\
  =========                 |
  \\      /  F ield         | OpenFOAM: The Open Source CFD Toolbox
   \\    /   O peration     | Website:  https://openfoam.org
    \\  /    A nd           | Version:  7
     \\/     M anipulation  |
\*---------------------------------------------------------------------------*/
FoamFile
{
    version     2.0;
    format      ascii;
    class       volScalarField;
    location    "60";
    object      p;
}
// * * * * * * * * * * * * * * * * * * * * * * * * * * * * * * * * * * * * * //

dimensions      [0 2 -2 0 0 0 0];

internalField   nonuniform List<scalar> 
183
(
-0.110322
-0.0984585
-0.0884129
-0.134596
-0.119957
-0.106847
-0.094929
-0.0836784
-0.149367
-0.131971
-0.11644
-0.102573
-0.0902138
-0.168351
-0.147364
-0.128776
-0.11228
-0.193214
-0.167496
-0.144884
-0.124976
-0.107418
-0.194227
-0.166314
-0.141895
-0.120525
-0.229494
-0.195074
-0.164786
-0.138367
-0.232248
-0.195574
-0.162862
-0.134273
-0.270936
-0.233011
-0.195223
-0.160385
-0.129565
-0.261309
-0.229234
-0.192824
-0.156906
-0.237504
-0.216801
-0.185984
-0.151338
-0.195454
-0.190419
-0.170791
-0.141458
-0.145992
-0.141963
-0.123571
-0.0954304
-0.0925
-0.0441393
-0.0423716
0.00751077
0.0113915
-0.03946
-0.0374693
-0.0898567
-0.0867098
-0.139422
-0.135189
-0.116452
-0.187782
-0.182557
-0.16261
-0.132799
-0.228436
-0.207454
-0.176215
-0.141019
-0.250697
-0.218261
-0.181363
-0.144918
-0.258665
-0.220323
-0.18207
-0.146797
-0.11561
-0.217852
-0.180808
-0.14779
-0.118976
-0.213476
-0.178821
-0.148375
-0.121875
-0.176645
-0.148722
-0.124363
-0.103118
-0.174474
-0.148892
-0.126476
-0.106821
-0.0895675
-0.148908
-0.128251
-0.110041
-0.0939663
-0.0797621
-0.129724
-0.112825
-0.0978292
-0.0845322
-0.0727731
-0.101218
-0.0887789
-0.077555
-0.0670158
-0.0923874
-0.081297
-0.0720022
-0.077666
-0.0712286
-0.0540743
-0.0466691
-0.0362861
-0.0306091
-0.024437
-0.0178235
-0.0135212
-0.0112259
-0.00840013
-0.00434757
-0.00124199
0.00137541
0.00304378
0.00403101
0.00599494
0.00833387
0.00873022
0.0081215
0.00992563
-0.00337073
-0.000207749
0.00240221
0.00394274
0.00472791
0.0067424
0.00928966
0.00957535
0.00877588
0.0108088
-0.00494563
-0.000211356
0.00275595
0.00573589
0.00783731
0.00785821
0.00875134
0.010373
0.011951
0.0118198
0.0111124
0.011546
0.013109
-0.0629359
-0.0594176
-0.0441018
-0.0386419
-0.0303685
-0.0240427
-0.0160901
-0.0112048
-0.0067684
-0.00190633
0.00120294
0.00426813
0.00646301
0.00680669
0.00792166
0.00950282
0.0109942
0.0110016
0.0105368
0.0109659
0.0122965
)
;

boundaryField
{
    inlet
    {
        type            zeroGradient;
    }
    outlet
    {
        type            fixedValue;
        value           nonuniform 0();
    }
    cylinder
    {
        type            zeroGradient;
    }
    top
    {
        type            symmetryPlane;
    }
    bottom
    {
        type            symmetryPlane;
    }
    defaultFaces
    {
        type            empty;
    }
    procBoundary12to11
    {
        type            processor;
        value           nonuniform List<scalar> 
116
(
-0.0744467
-0.0789926
-0.0744467
-0.0683882
-0.0976138
-0.0845822
-0.0789926
-0.0730268
-0.0976138
-0.0919045
-0.1018
-0.0919045
-0.0853642
-0.115377
-0.1018
-0.0953644
-0.115377
-0.109489
-0.109489
-0.102825
-0.124108
-0.102825
-0.0953444
-0.124108
-0.117514
-0.117514
-0.108804
-0.108804
-0.0959425
-0.0959425
-0.0754676
-0.0754676
-0.0268157
0.00807104
0.00807104
0.0591482
0.0623208
0.0121777
0.0121777
-0.021528
-0.0693109
-0.0693109
-0.0882997
-0.0882997
-0.0995431
-0.0995431
-0.106614
-0.106614
-0.111628
-0.111628
-0.0824473
-0.0885897
-0.0885897
-0.0940488
-0.0940488
-0.0988772
-0.0988772
-0.0789233
-0.0845754
-0.0845754
-0.0683757
-0.0744043
-0.0744043
-0.0610661
-0.0672299
-0.0672299
-0.0562073
-0.0621799
-0.0621799
-0.0522268
-0.0584776
-0.0584776
-0.066132
-0.0635669
-0.0483073
-0.0420975
-0.0326697
-0.0277651
-0.0222508
-0.0157829
-0.0116554
-0.00985546
-0.00740723
-0.00740723
-0.00242279
0.000838876
0.00346236
0.00486133
0.00540629
0.00748241
0.0102817
0.010442
0.00941795
0.0117204
-0.00310174
0.00149921
0.00433229
0.00724291
0.0092655
0.008927
0.00956075
0.0112429
0.0129436
0.0126614
0.0116655
0.0121071
0.0139548
-0.051673
-0.0518711
-0.0383141
-0.0340132
-0.0269218
-0.0212734
-0.0135948
-0.00901387
-0.00901387
)
;
    }
    procBoundary12to13
    {
        type            processor;
        value           nonuniform List<scalar> 
106
(
-0.125148
-0.112717
-0.101854
-0.152038
-0.136694
-0.12289
-0.12289
-0.16913
-0.150919
-0.150919
-0.190847
-0.168891
-0.168891
-0.218963
-0.192086
-0.192086
-0.222469
-0.222469
-0.261972
-0.226047
-0.226047
-0.267777
-0.267777
-0.310876
-0.271662
-0.271662
-0.304109
-0.304109
-0.282753
-0.282753
-0.243484
-0.243484
-0.234625
-0.234625
-0.272366
-0.272366
-0.29217
-0.29217
-0.297245
-0.257659
-0.257659
-0.252055
-0.252055
-0.244626
-0.208547
-0.208547
-0.203658
-0.203658
-0.199026
-0.172367
-0.172367
-0.170333
-0.148792
-0.148792
-0.148557
-0.130923
-0.115213
-0.115213
-0.117248
-0.10419
-0.10419
-0.106659
-0.0950655
-0.0850028
-0.0887897
-0.0786159
-0.0597269
-0.0511392
-0.0398104
-0.033382
-0.0266048
-0.0198339
-0.0153137
-0.0125556
-0.00941091
-0.00534489
-0.00226394
0.000378337
0.0021638
0.00332058
0.00524347
0.00741221
0.00790712
0.0074586
0.0090702
-0.0738056
-0.0667218
-0.0498035
-0.0431817
-0.0337726
-0.0268189
-0.0185729
-0.01336
-0.00857214
-0.0035829
-0.000324252
0.00283868
0.00513956
0.00577438
0.00707825
0.00863535
0.0100708
0.0102058
0.00994367
0.0103706
0.0115142
)
;
    }
}


// ************************************************************************* //
