/*--------------------------------*- C++ -*----------------------------------*\
  =========                 |
  \\      /  F ield         | OpenFOAM: The Open Source CFD Toolbox
   \\    /   O peration     | Website:  https://openfoam.org
    \\  /    A nd           | Version:  7
     \\/     M anipulation  |
\*---------------------------------------------------------------------------*/
FoamFile
{
    version     2.0;
    format      ascii;
    class       volScalarField;
    location    "45";
    object      p;
}
// * * * * * * * * * * * * * * * * * * * * * * * * * * * * * * * * * * * * * //

dimensions      [0 2 -2 0 0 0 0];

internalField   nonuniform List<scalar> 
36
(
-0.492735
-0.436144
-0.38183
-0.320155
-0.256349
-0.197591
-0.147307
-0.106104
-0.0726656
-0.437622
-0.386742
-0.33181
-0.268259
-0.364632
-0.364632
-0.437622
-0.386742
-0.33181
-0.268259
-0.492735
-0.436144
-0.38183
-0.320155
-0.256349
-0.197591
-0.147307
-0.106104
-0.0726656
-0.0555538
-0.0359397
-0.0202992
-0.00888405
0.0281554
0.0297792
0.0307894
0.0311614
)
;

boundaryField
{
    inlet
    {
        type            zeroGradient;
    }
    outlet
    {
        type            fixedValue;
        value           nonuniform 0();
    }
    cylinder
    {
        type            zeroGradient;
    }
    top
    {
        type            symmetryPlane;
    }
    bottom
    {
        type            symmetryPlane;
    }
    defaultFaces
    {
        type            empty;
    }
    procBoundary21to19
    {
        type            processor;
        value           nonuniform List<scalar> 9(-0.0617746 -0.03171 -0.204348 -0.0617746 -0.03171 0.0374566 0.0385905 0.0392676 0.039455);
    }
    procBoundary21to20
    {
        type            processor;
        value           nonuniform List<scalar> 
24
(
-0.204095
-0.146856
-0.0994753
-0.0459135
-0.321332
-0.267485
-0.204095
-0.321332
-0.274427
-0.274427
-0.321332
-0.321332
-0.267485
-0.204348
-0.204095
-0.204095
-0.146856
-0.0994753
-0.0459135
-0.0266607
-0.013777
-0.001664
0.00645415
0.0258394
)
;
    }
    procBoundary21to22
    {
        type            processor;
        value           nonuniform List<scalar> 
20
(
-0.41756
-0.359507
-0.29833
-0.240297
-0.189015
-0.145705
-0.109837
-0.0805274
-0.41756
-0.359507
-0.29833
-0.240297
-0.189015
-0.145705
-0.109837
3.99517e-05
0.0190451
0.0211415
0.0224713
0.0230452
)
;
    }
    procBoundary21to23
    {
        type            processor;
        value           nonuniform List<scalar> 7(-0.530387 -0.470003 -0.530387 -0.470003 -0.0566729 -0.037746 -0.0236333);
    }
    procBoundary21to24
    {
        type            processor;
        value           uniform -0.0814861;
    }
}


// ************************************************************************* //
