/*--------------------------------*- C++ -*----------------------------------*\
  =========                 |
  \\      /  F ield         | OpenFOAM: The Open Source CFD Toolbox
   \\    /   O peration     | Website:  https://openfoam.org
    \\  /    A nd           | Version:  7
     \\/     M anipulation  |
\*---------------------------------------------------------------------------*/
FoamFile
{
    version     2.0;
    format      ascii;
    class       volScalarField;
    location    "65";
    object      p;
}
// * * * * * * * * * * * * * * * * * * * * * * * * * * * * * * * * * * * * * //

dimensions      [0 2 -2 0 0 0 0];

internalField   nonuniform List<scalar> 
40000
(
-0.229423
-0.230299
-0.230958
-0.231498
-0.231985
-0.23242
-0.23281
-0.233164
-0.233489
-0.233792
-0.234079
-0.234353
-0.234617
-0.234872
-0.235117
-0.235352
-0.235574
-0.235781
-0.23597
-0.236138
-0.236281
-0.236397
-0.236483
-0.236539
-0.236565
-0.236562
-0.236534
-0.236484
-0.236415
-0.236344
-0.229307
-0.230187
-0.230849
-0.231391
-0.231879
-0.232314
-0.232704
-0.233056
-0.23338
-0.23368
-0.233963
-0.234233
-0.23449
-0.234737
-0.234973
-0.235196
-0.235405
-0.235596
-0.235766
-0.235911
-0.236028
-0.236114
-0.236166
-0.236182
-0.236163
-0.236108
-0.236022
-0.235906
-0.235759
-0.235608
-0.229297
-0.230175
-0.230835
-0.231374
-0.23186
-0.232293
-0.23268
-0.233028
-0.233348
-0.233643
-0.23392
-0.234183
-0.234432
-0.234669
-0.234894
-0.235104
-0.235298
-0.235471
-0.23562
-0.235741
-0.235831
-0.235884
-0.235899
-0.235872
-0.235803
-0.235693
-0.235544
-0.235358
-0.23513
-0.234895
-0.229391
-0.230261
-0.230914
-0.231448
-0.231928
-0.232356
-0.232737
-0.23308
-0.233393
-0.233681
-0.233951
-0.234204
-0.234443
-0.234669
-0.234881
-0.235077
-0.235253
-0.235407
-0.235534
-0.235629
-0.235689
-0.235708
-0.235682
-0.23561
-0.235489
-0.235319
-0.235104
-0.234845
-0.234529
-0.234207
-0.229589
-0.230444
-0.231087
-0.231613
-0.232084
-0.232503
-0.232876
-0.233211
-0.233514
-0.233794
-0.234053
-0.234296
-0.234524
-0.234736
-0.234934
-0.235113
-0.235271
-0.235404
-0.235507
-0.235575
-0.235603
-0.235586
-0.235518
-0.235397
-0.23522
-0.234987
-0.234703
-0.234367
-0.23396
-0.233549
-0.229888
-0.230724
-0.231352
-0.231865
-0.232325
-0.232733
-0.233095
-0.233419
-0.233712
-0.23398
-0.234227
-0.234457
-0.234671
-0.234869
-0.23505
-0.235212
-0.23535
-0.235461
-0.235539
-0.235579
-0.235573
-0.235518
-0.235406
-0.235234
-0.234998
-0.234699
-0.234342
-0.233927
-0.233424
-0.232926
-0.230286
-0.231097
-0.231707
-0.232204
-0.232649
-0.233043
-0.233392
-0.233702
-0.233982
-0.234236
-0.23447
-0.234685
-0.234884
-0.235066
-0.235229
-0.235372
-0.235489
-0.235577
-0.235628
-0.235638
-0.235598
-0.235502
-0.235345
-0.235119
-0.234823
-0.234454
-0.234019
-0.233521
-0.232917
-0.232323
-0.230779
-0.23156
-0.232147
-0.232626
-0.233053
-0.233431
-0.233764
-0.234058
-0.234323
-0.234561
-0.234779
-0.234978
-0.235159
-0.235323
-0.235468
-0.235589
-0.235685
-0.235747
-0.235772
-0.23575
-0.235675
-0.235538
-0.235333
-0.235052
-0.234691
-0.234249
-0.233734
-0.233149
-0.232439
-0.231739
-0.231361
-0.232109
-0.23267
-0.233128
-0.233535
-0.233894
-0.234207
-0.234484
-0.23473
-0.234951
-0.235151
-0.235331
-0.235493
-0.235637
-0.235761
-0.235861
-0.235933
-0.23597
-0.235966
-0.235913
-0.235801
-0.235623
-0.235369
-0.235031
-0.234603
-0.234084
-0.233483
-0.232808
-0.231986
-0.231166
-0.232029
-0.232739
-0.233272
-0.233705
-0.23409
-0.234426
-0.234719
-0.234976
-0.235202
-0.235402
-0.235581
-0.235741
-0.235882
-0.236005
-0.236106
-0.236183
-0.23623
-0.23624
-0.236207
-0.236121
-0.235973
-0.235752
-0.235448
-0.235052
-0.234556
-0.233956
-0.233264
-0.232494
-0.231555
-0.230591
-0.232775
-0.233445
-0.233947
-0.234354
-0.234713
-0.235026
-0.235296
-0.235529
-0.235732
-0.23591
-0.236066
-0.236203
-0.236321
-0.23642
-0.236497
-0.236549
-0.23657
-0.236553
-0.23649
-0.236371
-0.236186
-0.235922
-0.235568
-0.235113
-0.234546
-0.233862
-0.233074
-0.232204
-0.231146
-0.22999
-0.233596
-0.234222
-0.234691
-0.235069
-0.235402
-0.235688
-0.235932
-0.236139
-0.236317
-0.23647
-0.236601
-0.236712
-0.236805
-0.236878
-0.236929
-0.236954
-0.236948
-0.236903
-0.236809
-0.236657
-0.236435
-0.236128
-0.235724
-0.235209
-0.23457
-0.233799
-0.232908
-0.231933
-0.23076
-0.229306
-0.234484
-0.235066
-0.2355
-0.235848
-0.23615
-0.236408
-0.236623
-0.236803
-0.236953
-0.237077
-0.23718
-0.237263
-0.237327
-0.237373
-0.237396
-0.237393
-0.237357
-0.237282
-0.237158
-0.236972
-0.236713
-0.236364
-0.235911
-0.235336
-0.234625
-0.233765
-0.232764
-0.231677
-0.230407
-0.228472
-0.235435
-0.23597
-0.236368
-0.236684
-0.236955
-0.237181
-0.237366
-0.237515
-0.237633
-0.237727
-0.237798
-0.23785
-0.237884
-0.237898
-0.237891
-0.237857
-0.237792
-0.237685
-0.237529
-0.237309
-0.237013
-0.236623
-0.236121
-0.235489
-0.234706
-0.233756
-0.232641
-0.231429
-0.230075
-0.227726
-0.236443
-0.236931
-0.237292
-0.237574
-0.237812
-0.238005
-0.238156
-0.238271
-0.238355
-0.238414
-0.238452
-0.238469
-0.238469
-0.238449
-0.238408
-0.238342
-0.238243
-0.238104
-0.237915
-0.237661
-0.237328
-0.236897
-0.236349
-0.23566
-0.234807
-0.233767
-0.232538
-0.231187
-0.229582
-0.227165
-0.237503
-0.237945
-0.238268
-0.238515
-0.238718
-0.238875
-0.238989
-0.239067
-0.239115
-0.239136
-0.239135
-0.239114
-0.239076
-0.239019
-0.238941
-0.238839
-0.238705
-0.238532
-0.238307
-0.238018
-0.237649
-0.237178
-0.236584
-0.235841
-0.23492
-0.233792
-0.23245
-0.230955
-0.229116
-0.226455
-0.238611
-0.239008
-0.239293
-0.239504
-0.239669
-0.239788
-0.239863
-0.239901
-0.239907
-0.239886
-0.239843
-0.239781
-0.2397
-0.239602
-0.239484
-0.239342
-0.23917
-0.238959
-0.238698
-0.238373
-0.237966
-0.237456
-0.236817
-0.236022
-0.235037
-0.233824
-0.232368
-0.230727
-0.228673
-0.225607
-0.239766
-0.240118
-0.240364
-0.240538
-0.240664
-0.240742
-0.240775
-0.240769
-0.24073
-0.240663
-0.240573
-0.240464
-0.240337
-0.240194
-0.240031
-0.239846
-0.239632
-0.23938
-0.23908
-0.238716
-0.23827
-0.237719
-0.237038
-0.236192
-0.235146
-0.233853
-0.232283
-0.230495
-0.228241
-0.224632
-0.240965
-0.241274
-0.241481
-0.241617
-0.241702
-0.241737
-0.241724
-0.24167
-0.241581
-0.241463
-0.241322
-0.241161
-0.240983
-0.240789
-0.240577
-0.240344
-0.240084
-0.239788
-0.239444
-0.239039
-0.238551
-0.237959
-0.237233
-0.236338
-0.235233
-0.233864
-0.232185
-0.23025
-0.227822
-0.223531
-0.242207
-0.242475
-0.242645
-0.242741
-0.242782
-0.24277
-0.242708
-0.242602
-0.242459
-0.242285
-0.242088
-0.24187
-0.241635
-0.241385
-0.241119
-0.240833
-0.240522
-0.240177
-0.239786
-0.239335
-0.238803
-0.238166
-0.237394
-0.236448
-0.235284
-0.233842
-0.23206
-0.229977
-0.227418
-0.222309
-0.243496
-0.243724
-0.243855
-0.24391
-0.243906
-0.243844
-0.243728
-0.243565
-0.243363
-0.243129
-0.242869
-0.242589
-0.242292
-0.24198
-0.241654
-0.241309
-0.240942
-0.240542
-0.2401
-0.239598
-0.239017
-0.238332
-0.237509
-0.23651
-0.235285
-0.233772
-0.231891
-0.229657
-0.227027
-0.220982
-0.244833
-0.245023
-0.245115
-0.245127
-0.245075
-0.24496
-0.244786
-0.244562
-0.244295
-0.243994
-0.243666
-0.243318
-0.242952
-0.242573
-0.242181
-0.241772
-0.241342
-0.240883
-0.240383
-0.239826
-0.239191
-0.238451
-0.237573
-0.236516
-0.235226
-0.233639
-0.231663
-0.22927
-0.22664
-0.219577
-0.246224
-0.246376
-0.246429
-0.246396
-0.246293
-0.24612
-0.245884
-0.245593
-0.245257
-0.244884
-0.244482
-0.244058
-0.243618
-0.243166
-0.242701
-0.242222
-0.241725
-0.2412
-0.240637
-0.240018
-0.239323
-0.238523
-0.237584
-0.236461
-0.235101
-0.233434
-0.231364
-0.228799
-0.226238
-0.218138
-0.247675
-0.247791
-0.247802
-0.247723
-0.247564
-0.24733
-0.247027
-0.246664
-0.246252
-0.2458
-0.245318
-0.244814
-0.244293
-0.243761
-0.243218
-0.242663
-0.242092
-0.241496
-0.240864
-0.240177
-0.239415
-0.238548
-0.237541
-0.236346
-0.234906
-0.233153
-0.230988
-0.228239
-0.225793
-0.216723
-0.249195
-0.249274
-0.249243
-0.249113
-0.248896
-0.248595
-0.24822
-0.247779
-0.247285
-0.246749
-0.24618
-0.245589
-0.244982
-0.244364
-0.243737
-0.2431
-0.24245
-0.241777
-0.241069
-0.240309
-0.239473
-0.238533
-0.237449
-0.236173
-0.234645
-0.232797
-0.230534
-0.227595
-0.225271
-0.215407
-0.250794
-0.250835
-0.250759
-0.250576
-0.250295
-0.249923
-0.249469
-0.248945
-0.248363
-0.247736
-0.247075
-0.24639
-0.245691
-0.244981
-0.244265
-0.243541
-0.242805
-0.242049
-0.24126
-0.24042
-0.239505
-0.238483
-0.237314
-0.235949
-0.234325
-0.232371
-0.230001
-0.22689
-0.224632
-0.21428
-0.252485
-0.252485
-0.252361
-0.252119
-0.25177
-0.251321
-0.250783
-0.250169
-0.249493
-0.248769
-0.24801
-0.247226
-0.246428
-0.245622
-0.24481
-0.243994
-0.243167
-0.242323
-0.241448
-0.240522
-0.23952
-0.238408
-0.237147
-0.235683
-0.233952
-0.231886
-0.22939
-0.226146
-0.223803
-0.213373
-0.254281
-0.254237
-0.254059
-0.253754
-0.253331
-0.252799
-0.252171
-0.251461
-0.250684
-0.249857
-0.248994
-0.248106
-0.247204
-0.246296
-0.245384
-0.24447
-0.243549
-0.242611
-0.241643
-0.240624
-0.239527
-0.238318
-0.236953
-0.235381
-0.233537
-0.231354
-0.228715
-0.225401
-0.222662
-0.212557
-0.256197
-0.256102
-0.255867
-0.255493
-0.254989
-0.254368
-0.253642
-0.25283
-0.251947
-0.251011
-0.250038
-0.249041
-0.24803
-0.247015
-0.245999
-0.244983
-0.243961
-0.242924
-0.241857
-0.240737
-0.239536
-0.238218
-0.23674
-0.235049
-0.233084
-0.23079
-0.228025
-0.224764
-0.221233
-0.212018
-0.258249
-0.258097
-0.257797
-0.257347
-0.256756
-0.256038
-0.255209
-0.254288
-0.253293
-0.252243
-0.251154
-0.250042
-0.248919
-0.247792
-0.246667
-0.245544
-0.244417
-0.243275
-0.242101
-0.240871
-0.239555
-0.238115
-0.236507
-0.234683
-0.232588
-0.230189
-0.227346
-0.224315
-0.220082
-0.213977
-0.260453
-0.260236
-0.259863
-0.25933
-0.258645
-0.257823
-0.256884
-0.255847
-0.254733
-0.253563
-0.252354
-0.251123
-0.249883
-0.248641
-0.247403
-0.246168
-0.244929
-0.243674
-0.242384
-0.241032
-0.239587
-0.238007
-0.236251
-0.234274
-0.232029
-0.229506
-0.2266
-0.223788
-0.219764
-0.221269
-0.262827
-0.262535
-0.262081
-0.261456
-0.260668
-0.259735
-0.258678
-0.257519
-0.256281
-0.254986
-0.253652
-0.252298
-0.250936
-0.249575
-0.248219
-0.246866
-0.245509
-0.244132
-0.242714
-0.241226
-0.239632
-0.237892
-0.235962
-0.233803
-0.231378
-0.228692
-0.225687
-0.222833
-0.219101
-0.219922
-0.265389
-0.26501
-0.264465
-0.26374
-0.26284
-0.261787
-0.260605
-0.259318
-0.25795
-0.256525
-0.255062
-0.25358
-0.252093
-0.250608
-0.249129
-0.247652
-0.246168
-0.244658
-0.243097
-0.241453
-0.239687
-0.237759
-0.235625
-0.23325
-0.230606
-0.227705
-0.22452
-0.221427
-0.217628
-0.216902
-0.268155
-0.267676
-0.267029
-0.266194
-0.265174
-0.263994
-0.26268
-0.261258
-0.259755
-0.258194
-0.256598
-0.254984
-0.253367
-0.251753
-0.250145
-0.248536
-0.246913
-0.245255
-0.243532
-0.241709
-0.239745
-0.237597
-0.235225
-0.232596
-0.229691
-0.226525
-0.223087
-0.219652
-0.215611
-0.213576
-0.271143
-0.27055
-0.269789
-0.268835
-0.267685
-0.266369
-0.264915
-0.263352
-0.261708
-0.260007
-0.258273
-0.256524
-0.254772
-0.253024
-0.251278
-0.249526
-0.24775
-0.245925
-0.244017
-0.241988
-0.239794
-0.237391
-0.234744
-0.231824
-0.228619
-0.225148
-0.221406
-0.217592
-0.213254
-0.210152
-0.274369
-0.273646
-0.27276
-0.271675
-0.270386
-0.268926
-0.267325
-0.265615
-0.263824
-0.261979
-0.260103
-0.258213
-0.256321
-0.25443
-0.252536
-0.250627
-0.248681
-0.246666
-0.244546
-0.242278
-0.239818
-0.237125
-0.234166
-0.230921
-0.227385
-0.22358
-0.219511
-0.215322
-0.21068
-0.206816
-0.277848
-0.276979
-0.275955
-0.274728
-0.273291
-0.271678
-0.269924
-0.26806
-0.266118
-0.264124
-0.2621
-0.260064
-0.258024
-0.255981
-0.253927
-0.251843
-0.249703
-0.247471
-0.245106
-0.242564
-0.239801
-0.23678
-0.233476
-0.229878
-0.225988
-0.221836
-0.217433
-0.212896
-0.207974
-0.203569
-0.281594
-0.280562
-0.279387
-0.278009
-0.276413
-0.274639
-0.272724
-0.270702
-0.268602
-0.266454
-0.264278
-0.262089
-0.259892
-0.257684
-0.255452
-0.253171
-0.250811
-0.248329
-0.245683
-0.242828
-0.239724
-0.236342
-0.232663
-0.228688
-0.224433
-0.21993
-0.215201
-0.210348
-0.205178
-0.200397
-0.28562
-0.284408
-0.283068
-0.281528
-0.279765
-0.277822
-0.27574
-0.273552
-0.271291
-0.268983
-0.266648
-0.264296
-0.261931
-0.259542
-0.25711
-0.254606
-0.251992
-0.249225
-0.246258
-0.243051
-0.23957
-0.235793
-0.231716
-0.227352
-0.222725
-0.217878
-0.212838
-0.207701
-0.202314
-0.197264
-0.289937
-0.288527
-0.28701
-0.285297
-0.283358
-0.281239
-0.278983
-0.276625
-0.274196
-0.271722
-0.269219
-0.266694
-0.264144
-0.261553
-0.258896
-0.256137
-0.253233
-0.250138
-0.24681
-0.243211
-0.239318
-0.235121
-0.23063
-0.225868
-0.220872
-0.215691
-0.21036
-0.204966
-0.199387
-0.194137
-0.294554
-0.292928
-0.291221
-0.289325
-0.287202
-0.2849
-0.282464
-0.27993
-0.277328
-0.27468
-0.271999
-0.269286
-0.266532
-0.263714
-0.260799
-0.257747
-0.254511
-0.251046
-0.247314
-0.243286
-0.238951
-0.234314
-0.229397
-0.224238
-0.218881
-0.21338
-0.207776
-0.202149
-0.196397
-0.190985
-0.299477
-0.297619
-0.295709
-0.293622
-0.291306
-0.288815
-0.286194
-0.283478
-0.280695
-0.277863
-0.27499
-0.272071
-0.269089
-0.266012
-0.262803
-0.259415
-0.255802
-0.251923
-0.247746
-0.243256
-0.238455
-0.233363
-0.228017
-0.222464
-0.216757
-0.210952
-0.205091
-0.199248
-0.193337
-0.187783
-0.30471
-0.302603
-0.30048
-0.298193
-0.295678
-0.292991
-0.290179
-0.287275
-0.284302
-0.281275
-0.278194
-0.275045
-0.271804
-0.268432
-0.264885
-0.261115
-0.257079
-0.252741
-0.248081
-0.2431
-0.237814
-0.23226
-0.226485
-0.220547
-0.214503
-0.208408
-0.202306
-0.196261
-0.190199
-0.184512
-0.310255
-0.307883
-0.305536
-0.303041
-0.300321
-0.297434
-0.294425
-0.291325
-0.288153
-0.284914
-0.281603
-0.278196
-0.27466
-0.270951
-0.267019
-0.262818
-0.25831
-0.253471
-0.248295
-0.242798
-0.237016
-0.230997
-0.2248
-0.218488
-0.21212
-0.20575
-0.199419
-0.193182
-0.186975
-0.181157
-0.316107
-0.313456
-0.310875
-0.308168
-0.305238
-0.302145
-0.298933
-0.295629
-0.292243
-0.288774
-0.285206
-0.281507
-0.277635
-0.27354
-0.269172
-0.26449
-0.259463
-0.254083
-0.248363
-0.242335
-0.236049
-0.229568
-0.222959
-0.216286
-0.209608
-0.202975
-0.196425
-0.190004
-0.183656
-0.177706
-0.32226
-0.319316
-0.316495
-0.313569
-0.310425
-0.307121
-0.303701
-0.30018
-0.296565
-0.292842
-0.288985
-0.284954
-0.280698
-0.276165
-0.271308
-0.266093
-0.260504
-0.25455
-0.248263
-0.241692
-0.234903
-0.227968
-0.220957
-0.213937
-0.206962
-0.200078
-0.193318
-0.186718
-0.180233
-0.174149
-0.328701
-0.325454
-0.322386
-0.319238
-0.315877
-0.312358
-0.308719
-0.30497
-0.301104
-0.297098
-0.292915
-0.288505
-0.283813
-0.278787
-0.273386
-0.267589
-0.261399
-0.254844
-0.247973
-0.240856
-0.233568
-0.226189
-0.21879
-0.211436
-0.204177
-0.197052
-0.19009
-0.183317
-0.176696
-0.170478
-0.335414
-0.331854
-0.328534
-0.325163
-0.321581
-0.317841
-0.313975
-0.30998
-0.305838
-0.301516
-0.296963
-0.292123
-0.286938
-0.281362
-0.275364
-0.268941
-0.262115
-0.254936
-0.247474
-0.239812
-0.232034
-0.224223
-0.21645
-0.208776
-0.201244
-0.193889
-0.186732
-0.179791
-0.173038
-0.166684
-0.342375
-0.338495
-0.334922
-0.331325
-0.32752
-0.323554
-0.319447
-0.315187
-0.31074
-0.30606
-0.301087
-0.295761
-0.290025
-0.283841
-0.277196
-0.270107
-0.262619
-0.254803
-0.246747
-0.238545
-0.230289
-0.222061
-0.213929
-0.205948
-0.198156
-0.190578
-0.183233
-0.176129
-0.169248
-0.16276
-0.349554
-0.34535
-0.341523
-0.337701
-0.333672
-0.329471
-0.325109
-0.320558
-0.315771
-0.310687
-0.305242
-0.29937
-0.293023
-0.286176
-0.278838
-0.271049
-0.262878
-0.254419
-0.245772
-0.237041
-0.228321
-0.219692
-0.211217
-0.202942
-0.1949
-0.18711
-0.179583
-0.172323
-0.165317
-0.158697
-0.356916
-0.352386
-0.348306
-0.344261
-0.340004
-0.335559
-0.330924
-0.326054
-0.320885
-0.315348
-0.309371
-0.302892
-0.295875
-0.288316
-0.280245
-0.271729
-0.262864
-0.25376
-0.244532
-0.235287
-0.226119
-0.217106
-0.208302
-0.199747
-0.191466
-0.183472
-0.175771
-0.168362
-0.161237
-0.154488
-0.364416
-0.359563
-0.355234
-0.350968
-0.346479
-0.34178
-0.33685
-0.331625
-0.326031
-0.319985
-0.313415
-0.306269
-0.298526
-0.290207
-0.28137
-0.272112
-0.262548
-0.252805
-0.243008
-0.233265
-0.223669
-0.214288
-0.205171
-0.196349
-0.18784
-0.179652
-0.171786
-0.164235
-0.156997
-0.150126
-0.372005
-0.366832
-0.36226
-0.357775
-0.353051
-0.348083
-0.342832
-0.337217
-0.331145
-0.324533
-0.317309
-0.309435
-0.300916
-0.291798
-0.282172
-0.27216
-0.2619
-0.251531
-0.241182
-0.230962
-0.220956
-0.211225
-0.20181
-0.192735
-0.184011
-0.175639
-0.167617
-0.159933
-0.152588
-0.145602
-0.379624
-0.374141
-0.369333
-0.364631
-0.359667
-0.354414
-0.348813
-0.342762
-0.336162
-0.328922
-0.320983
-0.312327
-0.302985
-0.293038
-0.282608
-0.271841
-0.260894
-0.249916
-0.239036
-0.228359
-0.217964
-0.207902
-0.198206
-0.188892
-0.179964
-0.17142
-0.163251
-0.155445
-0.148002
-0.14091
-0.387208
-0.381426
-0.376391
-0.371477
-0.366265
-0.360707
-0.354722
-0.348191
-0.341005
-0.333078
-0.324366
-0.314878
-0.304677
-0.293879
-0.282637
-0.271123
-0.259505
-0.247938
-0.23655
-0.22544
-0.214677
-0.204303
-0.194343
-0.184804
-0.175687
-0.166983
-0.158679
-0.150761
-0.14323
-0.136041
-0.394684
-0.388619
-0.383368
-0.378243
-0.372776
-0.366891
-0.360485
-0.353425
-0.345597
-0.336924
-0.327385
-0.317021
-0.305933
-0.294273
-0.282223
-0.269973
-0.257706
-0.245576
-0.233707
-0.222188
-0.211078
-0.200412
-0.190205
-0.180459
-0.171166
-0.162316
-0.15389
-0.145873
-0.138263
-0.13099
-0.401974
-0.395644
-0.390188
-0.384856
-0.379122
-0.372885
-0.36602
-0.35838
-0.349853
-0.34038
-0.329967
-0.318693
-0.3067
-0.294175
-0.281327
-0.268364
-0.255473
-0.242808
-0.230485
-0.218583
-0.207151
-0.196214
-0.185779
-0.175841
-0.166389
-0.157406
-0.148872
-0.140771
-0.133094
-0.12575
-0.408994
-0.402419
-0.396773
-0.391233
-0.385222
-0.378605
-0.371239
-0.362969
-0.35369
-0.343366
-0.332039
-0.319831
-0.306925
-0.293541
-0.279915
-0.266266
-0.252782
-0.239614
-0.226866
-0.214608
-0.202878
-0.191691
-0.181048
-0.170937
-0.161343
-0.152244
-0.143617
-0.135446
-0.127714
-0.120315
-0.415652
-0.408858
-0.403034
-0.397289
-0.390986
-0.383961
-0.376052
-0.367102
-0.35702
-0.345802
-0.333532
-0.320376
-0.306558
-0.292333
-0.277955
-0.263651
-0.24961
-0.235971
-0.22283
-0.210244
-0.198242
-0.186829
-0.175998
-0.165734
-0.156015
-0.146818
-0.138115
-0.12989
-0.122118
-0.114682
-0.421855
-0.414868
-0.408882
-0.402931
-0.39632
-0.388856
-0.380363
-0.370686
-0.359758
-0.347611
-0.334377
-0.320269
-0.305553
-0.290512
-0.275416
-0.260495
-0.245933
-0.23186
-0.218359
-0.205475
-0.193227
-0.181612
-0.170616
-0.160219
-0.150395
-0.141117
-0.132357
-0.124096
-0.116299
-0.108846
-0.427504
-0.420354
-0.414219
-0.408063
-0.401128
-0.393195
-0.384077
-0.373631
-0.361818
-0.348717
-0.334511
-0.319459
-0.303868
-0.288044
-0.272269
-0.256773
-0.241731
-0.227261
-0.213434
-0.200283
-0.187817
-0.176025
-0.164888
-0.15438
-0.144472
-0.135134
-0.126335
-0.118057
-0.110251
-0.102801
-0.432499
-0.425216
-0.418949
-0.412585
-0.40531
-0.396878
-0.387098
-0.375846
-0.363121
-0.349051
-0.333874
-0.317897
-0.301462
-0.284896
-0.268487
-0.252461
-0.236982
-0.222155
-0.208038
-0.194652
-0.181997
-0.170055
-0.158801
-0.148205
-0.138235
-0.128857
-0.120041
-0.111764
-0.103968
-0.0965431
-0.43674
-0.429356
-0.422972
-0.416398
-0.408766
-0.399806
-0.389332
-0.377244
-0.363587
-0.348545
-0.33241
-0.315538
-0.2983
-0.281039
-0.264045
-0.247538
-0.231667
-0.216524
-0.202154
-0.188568
-0.175754
-0.16369
-0.152345
-0.141686
-0.131676
-0.122281
-0.113467
-0.105212
-0.0974436
-0.0900668
-0.440125
-0.432674
-0.426188
-0.419403
-0.411397
-0.401884
-0.390687
-0.377742
-0.363144
-0.347138
-0.330071
-0.312342
-0.294349
-0.276446
-0.258922
-0.241983
-0.225768
-0.210353
-0.195768
-0.182015
-0.169075
-0.156918
-0.14551
-0.134812
-0.124787
-0.115397
-0.106607
-0.0983949
-0.0906747
-0.0833696
-0.442555
-0.435071
-0.428498
-0.421499
-0.413105
-0.403018
-0.391078
-0.377262
-0.361726
-0.344775
-0.326811
-0.308272
-0.28958
-0.271095
-0.253096
-0.235781
-0.21927
-0.203625
-0.188866
-0.174983
-0.161949
-0.14973
-0.138287
-0.127577
-0.117561
-0.108199
-0.0994558
-0.0913073
-0.0836583
-0.0764513
-0.443933
-0.436451
-0.429805
-0.422591
-0.413797
-0.403118
-0.390421
-0.375733
-0.359271
-0.341406
-0.32259
-0.303299
-0.28397
-0.264963
-0.24655
-0.228913
-0.212157
-0.19633
-0.181437
-0.167461
-0.154368
-0.142118
-0.130668
-0.119974
-0.109992
-0.100682
-0.0920054
-0.0839412
-0.0763889
-0.0693069
-0.444167
-0.43672
-0.430018
-0.422587
-0.413383
-0.402101
-0.388642
-0.373089
-0.355727
-0.336988
-0.317376
-0.297396
-0.277496
-0.258034
-0.23927
-0.221369
-0.204419
-0.188455
-0.173471
-0.15944
-0.146324
-0.134076
-0.12265
-0.111999
-0.102077
-0.0928396
-0.0842494
-0.0762861
-0.0688498
-0.0619033
-0.44317
-0.435793
-0.429048
-0.421401
-0.411781
-0.399891
-0.385673
-0.369273
-0.351046
-0.331486
-0.311141
-0.290541
-0.270142
-0.250295
-0.231243
-0.213136
-0.196046
-0.179993
-0.164961
-0.150915
-0.137812
-0.125599
-0.114229
-0.103649
-0.0938136
-0.0846727
-0.0761873
-0.0683393
-0.0610187
-0.0541581
-0.440861
-0.433587
-0.426814
-0.418953
-0.408915
-0.396418
-0.381454
-0.364237
-0.345191
-0.324869
-0.303862
-0.282719
-0.261895
-0.241734
-0.222461
-0.204207
-0.18703
-0.170937
-0.155901
-0.141882
-0.128828
-0.116686
-0.105403
-0.0949255
-0.0852032
-0.076184
-0.0678281
-0.0601201
-0.0529096
-0.0459996
-0.437168
-0.430029
-0.423242
-0.415172
-0.404718
-0.391624
-0.375936
-0.35794
-0.33813
-0.317116
-0.295524
-0.273916
-0.252747
-0.232344
-0.212917
-0.194578
-0.177369
-0.161284
-0.14629
-0.132338
-0.119373
-0.107337
-0.0961737
-0.0858288
-0.0762483
-0.0673775
-0.0591808
-0.0516467
-0.0445786
-0.0375934
-0.432024
-0.425052
-0.418268
-0.409994
-0.399131
-0.385456
-0.369075
-0.350349
-0.32984
-0.308211
-0.286116
-0.264128
-0.242693
-0.222123
-0.202609
-0.184245
-0.167059
-0.151034
-0.136128
-0.122285
-0.109447
-0.097553
-0.0865437
-0.0763626
-0.0669528
-0.0582585
-0.0502504
-0.0428994
-0.0359207
-0.0292421
-0.425376
-0.418601
-0.411833
-0.403365
-0.392107
-0.377875
-0.360841
-0.341442
-0.320307
-0.298145
-0.275635
-0.253352
-0.231733
-0.211071
-0.191538
-0.173211
-0.156104
-0.140189
-0.125416
-0.111726
-0.0990545
-0.0873391
-0.0765176
-0.0665324
-0.0573234
-0.048835
-0.0410392
-0.0338866
-0.0270624
-0.0207235
-0.417178
-0.410627
-0.403893
-0.395242
-0.383607
-0.368849
-0.351211
-0.331205
-0.309523
-0.286916
-0.264081
-0.241592
-0.21987
-0.199192
-0.179708
-0.161481
-0.144508
-0.128753
-0.114161
-0.100666
-0.0882002
-0.0767024
-0.066103
-0.0563447
-0.0473663
-0.039112
-0.0315536
-0.0246263
-0.018003
-0.0119891
-0.407395
-0.401095
-0.39441
-0.385591
-0.373603
-0.358358
-0.340173
-0.319632
-0.297489
-0.274529
-0.251462
-0.228855
-0.207115
-0.186495
-0.167129
-0.149061
-0.132278
-0.116735
-0.102368
-0.0891147
-0.0768958
-0.0656491
-0.0553071
-0.0458081
-0.0370902
-0.0290975
-0.0218024
-0.0151282
-0.00873325
-0.00303725
-0.396001
-0.389979
-0.383359
-0.374391
-0.362079
-0.346392
-0.327723
-0.306728
-0.284214
-0.260996
-0.237791
-0.215156
-0.193478
-0.172992
-0.153811
-0.135963
-0.119426
-0.104146
-0.0900539
-0.0770798
-0.0651486
-0.0541913
-0.0441407
-0.034933
-0.0265051
-0.0188013
-0.0117954
-0.00539919
0.000748191
0.00612026
-0.382986
-0.377264
-0.370727
-0.36163
-0.349028
-0.332952
-0.313868
-0.292503
-0.269712
-0.246334
-0.223085
-0.200511
-0.178979
-0.1587
-0.139769
-0.122203
-0.105966
-0.0909983
-0.077227
-0.0645767
-0.0529722
-0.0423414
-0.0326163
-0.0237316
-0.0156229
-0.0082349
-0.00154344
0.00455241
0.010435
0.015471
-0.368346
-0.362947
-0.356511
-0.347309
-0.334456
-0.318048
-0.298625
-0.276979
-0.254008
-0.230567
-0.20737
-0.184945
-0.163637
-0.143637
-0.125025
-0.107798
-0.0919156
-0.0773097
-0.0639043
-0.0516207
-0.0403819
-0.0301142
-0.0207483
-0.0122177
-0.00445695
0.00258849
0.0089411
0.0147156
0.0203164
0.0250019
-0.35209
-0.347034
-0.340718
-0.331439
-0.318378
-0.301701
-0.282019
-0.260184
-0.23713
-0.213725
-0.190673
-0.168483
-0.147479
-0.127831
-0.109598
-0.09277
-0.0772945
-0.0630994
-0.0501048
-0.0382296
-0.0273951
-0.0175264
-0.00855295
-0.000407279
0.00697715
0.0136539
0.0196439
0.0250768
0.0303786
0.0346986
-0.334241
-0.329545
-0.323369
-0.314041
-0.300821
-0.283941
-0.264082
-0.242152
-0.219116
-0.195845
-0.173029
-0.15116
-0.130536
-0.111307
-0.0935166
-0.077143
-0.0621263
-0.0483895
-0.0358497
-0.0244237
-0.0140314
-0.00459687
0.0039515
0.0116821
0.0186623
0.0249446
0.0305487
0.0356199
0.0406052
0.0445454
-0.314827
-0.31051
-0.304493
-0.295149
-0.28182
-0.264806
-0.244857
-0.222929
-0.20001
-0.176965
-0.154476
-0.133009
-0.112839
-0.0940966
-0.0768095
-0.0609451
-0.0464373
-0.033205
-0.0211626
-0.0102255
-0.000312263
0.00865389
0.0167453
0.0240311
0.0305796
0.0364421
0.0416372
0.0463268
0.0509772
0.0545241
-0.293893
-0.289968
-0.28413
-0.274805
-0.26142
-0.244347
-0.224395
-0.202568
-0.179863
-0.157125
-0.135057
-0.114073
-0.0944288
-0.0762363
-0.0595098
-0.0442073
-0.0302567
-0.0175734
-0.00606963
0.00434043
0.013739
0.0222035
0.0298069
0.0366191
0.042709
0.0481262
0.0528895
0.057177
0.0614729
0.0646127
-0.271489
-0.267969
-0.262332
-0.253061
-0.239677
-0.22262
-0.202758
-0.181125
-0.158698
-0.136395
-0.114823
-0.0943957
-0.0753455
-0.0577643
-0.0416539
-0.0269636
-0.0136163
-0.00152457
0.00940103
0.0192473
0.0280971
0.0360281
0.0431136
0.0494242
0.0550287
0.0599756
0.0642839
0.0681482
0.0720667
0.0747812
-0.247679
-0.244573
-0.239159
-0.22998
-0.216656
-0.199692
-0.180002
-0.158628
-0.136625
-0.11482
-0.0938239
-0.0740266
-0.0556347
-0.0387229
-0.0232809
-0.00925068
0.00344932
0.014909
0.025219
0.0344668
0.0427352
0.0501024
0.0566416
0.0624234
0.0675167
0.0719682
0.0757981
0.0792159
0.0827283
0.0849935
-0.222533
-0.219849
-0.214679
-0.205633
-0.192429
-0.175628
-0.156177
-0.135195
-0.113681
-0.0924596
-0.0721173
-0.0530177
-0.035345
-0.0191572
-0.00443312
0.00889198
0.0209033
0.0316929
0.0413519
0.0499684
0.0576252
0.0644
0.0703658
0.0755932
0.0801503
0.0840818
0.0874091
0.0903546
0.0934259
0.0952191
-0.196132
-0.193872
-0.18897
-0.180099
-0.167066
-0.15049
-0.131398
-0.110878
-0.0899376
-0.0693793
-0.0497627
-0.0314247
-0.0145281
0.000884662
0.0148446
0.0274224
0.0387065
0.0487902
0.0577656
0.0657203
0.0727371
0.0788932
0.0842608
0.08891
0.0929072
0.0962943
0.0990952
0.101542
0.104135
0.105434
-0.168547
-0.166734
-0.162117
-0.153453
-0.140645
-0.124394
-0.105728
-0.0857539
-0.0654678
-0.0456474
-0.0268233
-0.00930627
0.00676145
0.0213517
0.0345046
0.0462962
0.0568174
0.0661625
0.0744239
0.0816891
0.0880401
0.0935533
0.0983003
0.10235
0.105765
0.108584
0.110837
0.112765
0.114838
0.115576
-0.13985
-0.138536
-0.134214
-0.125788
-0.11328
-0.0974164
-0.0792538
-0.0599049
-0.0403489
-0.0213353
-0.00336538
0.0132759
0.0284661
0.0421904
0.0544972
0.0654669
0.0751924
0.0837691
0.0912891
0.0978395
0.103502
0.108351
0.112458
0.115888
0.118701
0.120931
0.12262
0.124012
0.125486
0.125485
-0.110125
-0.109417
-0.105352
-0.0972116
-0.0850577
-0.0696488
-0.052065
-0.0334163
-0.0146605
0.00348257
0.0205418
0.0362575
0.0505261
0.0633451
0.0747702
0.0848857
0.0937863
0.101568
0.108322
0.114135
0.119088
0.123256
0.126706
0.129503
0.131697
0.133322
0.134441
0.135267
0.135965
0.134989
-0.0796214
-0.0793693
-0.0756419
-0.0678274
-0.0560784
-0.04119
-0.0242557
-0.00637652
0.0115144
0.028729
0.0448264
0.0595718
0.0728793
0.0847578
0.0952696
0.104502
0.112552
0.119514
0.125481
0.130538
0.134765
0.138235
0.141017
0.143169
0.144736
0.145758
0.14632
0.146537
0.146218
0.144135
-0.0483713
-0.048552
-0.0451942
-0.037742
-0.0264481
-0.012142
0.00407741
0.0211232
0.0380907
0.0543247
0.0694148
0.0831501
0.0954616
0.106369
0.11594
0.124264
0.13144
0.137563
0.142724
0.147008
0.150495
0.153256
0.155359
0.15686
0.157802
0.158241
0.158284
0.157879
0.156465
0.153474
-0.0164661
-0.0170977
-0.0141222
-0.00706583
0.00372421
0.0173905
0.0328348
0.0489895
0.064981
0.0801882
0.0942311
0.106922
0.118207
0.128117
0.136723
0.144119
0.150401
0.155667
0.160007
0.163505
0.166239
0.168282
0.169699
0.170544
0.170864
0.170741
0.170283
0.169237
0.166797
0.165089
0.0159686
0.0148771
0.0174577
0.0240864
0.0343269
0.0473004
0.0619151
0.0771269
0.0920961
0.106237
0.119198
0.130815
0.14105
0.149939
0.157561
0.16401
0.169384
0.17378
0.177286
0.179986
0.181959
0.183275
0.183999
0.184185
0.183885
0.183192
0.182184
0.180537
0.177761
0.176734
0.0488064
0.0472523
0.0494257
0.055597
0.065246
0.0774787
0.091215
0.105439
0.119346
0.132386
0.144238
0.154757
0.16392
0.171772
0.178394
0.183883
0.188337
0.19185
0.194513
0.196409
0.197612
0.198196
0.198223
0.197748
0.196827
0.195552
0.193973
0.191772
0.188718
0.187638
0.0819207
0.0799046
0.0816594
0.0873462
0.0963658
0.107815
0.12063
0.133827
0.146639
0.158551
0.169271
0.178674
0.18675
0.193551
0.199162
0.203681
0.207206
0.20983
0.211644
0.212728
0.213159
0.213007
0.212334
0.211195
0.209651
0.207787
0.205638
0.202925
0.199562
0.198152
0.115184
0.112708
0.114035
0.119213
0.12757
0.138198
0.150056
0.162194
0.173884
0.184646
0.194217
0.202491
0.20947
0.215211
0.219805
0.223347
0.225938
0.22767
0.228631
0.228902
0.228558
0.227668
0.226294
0.224492
0.22232
0.219863
0.217144
0.213921
0.210186
0.208342
0.148468
0.145537
0.146427
0.151076
0.158741
0.168517
0.179388
0.190441
0.200989
0.210586
0.218997
0.226134
0.23201
0.236688
0.240261
0.242825
0.244481
0.245319
0.245427
0.244885
0.243767
0.24214
0.240067
0.237601
0.234803
0.23175
0.228463
0.224724
0.220578
0.218253
0.181645
0.178264
0.178711
0.182812
0.189761
0.198659
0.208521
0.21847
0.227862
0.236286
0.243531
0.249529
0.2543
0.257916
0.260469
0.262058
0.26278
0.262728
0.261986
0.260635
0.258746
0.256386
0.253616
0.250489
0.247066
0.243419
0.239565
0.235306
0.230725
0.227895
0.214585
0.210762
0.210762
0.214301
0.220515
0.228516
0.23735
0.246184
0.254412
0.26166
0.26774
0.272601
0.276272
0.278831
0.280369
0.280988
0.280784
0.279847
0.278262
0.276107
0.273453
0.270366
0.266905
0.263124
0.259079
0.254842
0.250423
0.245643
0.240618
0.237269
0.247162
0.242905
0.242456
0.245422
0.250887
0.257976
0.265773
0.273486
0.28055
0.286624
0.291545
0.295277
0.297858
0.299368
0.299902
0.299561
0.298439
0.296627
0.294209
0.291259
0.28785
0.284044
0.2799
0.275471
0.270812
0.26599
0.261012
0.255715