/*--------------------------------*- C++ -*----------------------------------*\
  =========                 |
  \\      /  F ield         | OpenFOAM: The Open Source CFD Toolbox
   \\    /   O peration     | Website:  https://openfoam.org
    \\  /    A nd           | Version:  7
     \\/     M anipulation  |
\*---------------------------------------------------------------------------*/
FoamFile
{
    version     2.0;
    format      ascii;
    class       volVectorField;
    location    "5";
    object      U;
}
// * * * * * * * * * * * * * * * * * * * * * * * * * * * * * * * * * * * * * //

dimensions      [0 1 -1 0 0 0 0];

internalField   nonuniform List<vector> 
183
(
(0.993656 -9.58604e-05 -2.35323e-24)
(0.995172 -7.02496e-05 8.53882e-24)
(0.99366 -0.000287628 2.37068e-24)
(0.995175 -0.000210829 -7.19236e-25)
(0.993668 -0.000479152 3.31527e-23)
(0.99518 -0.000351309 1.49622e-23)
(0.993681 -0.000670269 -5.80486e-23)
(0.995187 -0.000491622 -7.66371e-24)
(0.993699 -0.00086082 -3.9476e-24)
(0.995197 -0.000631693 -5.3652e-24)
(0.993721 -0.00105065 -1.11675e-23)
(0.995211 -0.000771445 5.25216e-23)
(0.993749 -0.00123959 3.72767e-23)
(0.995228 -0.000910794 7.1126e-24)
(0.993784 -0.00142745 6.95925e-23)
(0.995249 -0.00104964 -1.55327e-22)
(0.993825 -0.0016144 -2.27909e-22)
(0.995274 -0.0011879 -7.95661e-25)
(0.993873 -0.00180003 2.36357e-23)
(0.995305 -0.00132548 6.08668e-23)
(0.993929 -0.00198415 -1.82512e-22)
(0.99534 -0.00146227 4.86594e-25)
(0.993992 -0.00216736 1.51416e-22)
(0.995381 -0.00159817 7.72477e-23)
(0.994063 -0.00235296 1.57397e-22)
(0.995429 -0.00173324 -3.38801e-23)
(0.994141 -0.00253454 -1.48398e-22)
(0.995482 -0.00186742 7.06582e-23)
(0.994227 -0.00270363 -3.15105e-23)
(0.995542 -0.00200188 -9.77769e-23)
(0.994318 -0.00286827 -2.83674e-22)
(0.995605 -0.00213959 4.8634e-23)
(0.994413 -0.00303452 2.39543e-23)
(0.995672 -0.0022664 1.17865e-22)
(0.994512 -0.00319997 1.70033e-22)
(0.995742 -0.00238457 5.54717e-23)
(0.994612 -0.00336262 -6.13875e-23)
(0.995813 -0.00250683 1.28226e-22)
(0.99471 -0.00351631 -8.18821e-23)
(0.995884 -0.00262375 1.51527e-22)
(0.994804 -0.00367149 -1.72965e-23)
(0.995952 -0.00274116 -2.43201e-24)
(0.995066 -0.00426055 0)
(0.996146 -0.00318614 0)
(0.996995 -0.00240184 0)
(0.99546 -0.00464331 0)
(0.996446 -0.00351035 0)
(0.997225 -0.00266872 0)
(0.996078 -0.00521993 0)
(0.996903 -0.00396222 0)
(0.997567 -0.00302091 0)
(0.996791 -0.00560665 0)
(0.99744 -0.00428516 0)
(0.997972 -0.00328394 0)
(0.997556 -0.00590105 0)
(0.998019 -0.00453406 0)
(0.998413 -0.00348927 0)
(0.998336 -0.00608895 0)
(0.998618 -0.00470326 0)
(0.998872 -0.00363482 0)
(0.999115 -0.00617755 0)
(0.999222 -0.0047948 0)
(0.999339 -0.00372015 0)
(0.999883 -0.00616978 0)
(0.999821 -0.00481032 0)
(0.999806 -0.00374605 0)
(1.00063 -0.00607214 0)
(1.00041 -0.00475384 0)
(1.00027 -0.00371488 0)
(1.00098 -0.00462946 0)
(1.00071 -0.00362927 0)
(1.00152 -0.0044418 0)
(1.00114 -0.0034924 0)
(1.00202 -0.00419586 0)
(1.00155 -0.00330786 0)
(1.00249 -0.00389691 0)
(1.00192 -0.0030796 0)
(1.00292 -0.00355039 0)
(1.00227 -0.00281179 0)
(1.0033 -0.00316184 0)
(1.00257 -0.0025088 0)
(1.00363 -0.00273689 0)
(1.00284 -0.00217512 0)
(1.00391 -0.00228115 0)
(1.00307 -0.00181538 0)
(1.00414 -0.00180027 0)
(1.00325 -0.00143423 0)
(1.00431 -0.00129987 0)
(1.00339 -0.00103641 0)
(1.00443 -0.000785541 0)
(1.00349 -0.000626669 0)
(1.00448 -0.000262795 0)
(1.00353 -0.000209706 0)
(0.995066 0.00426068 0)
(0.99546 0.00464343 0)
(0.996078 0.00522005 0)
(0.996791 0.00560677 0)
(0.997556 0.00590117 0)
(0.998336 0.00608905 0)
(0.999116 0.00617765 0)
(0.999883 0.00616988 0)
(1.00063 0.00607223 0)
(1.00134 0.00589091 0)
(1.00202 0.00563254 0)
(1.00265 0.00530396 0)
(1.00323 0.00491218 0)
(1.00376 0.00446419 0)
(1.00423 0.00396695 0)
(1.00464 0.00342736 0)
(1.00498 0.00285221 0)
(1.00525 0.00224814 0)
(1.00546 0.00162173 0)
(1.0056 0.000979434 0)
(1.00567 0.000327552 0)
(0.996146 0.00318626 0)
(0.996446 0.00351046 0)
(0.996903 0.00396233 0)
(0.99744 0.00428527 0)
(0.99802 0.00453415 0)
(0.998618 0.00470336 0)
(0.999222 0.00479489 0)
(0.999821 0.0048104 0)
(1.00041 0.00475392 0)
(1.00098 0.00462953 0)
(1.00152 0.00444186 0)
(1.00202 0.00419592 0)
(1.00249 0.00389696 0)
(1.00292 0.00355044 0)
(1.0033 0.00316189 0)
(1.00363 0.00273692 0)
(1.00391 0.00228118 0)
(1.00414 0.0018003 0)
(1.00431 0.00129989 0)
(1.00443 0.000785551 0)
(1.00448 0.000262799 0)
(0.996995 0.00240194 0)
(0.997225 0.00266881 0)
(0.997568 0.00302101 0)
(0.997973 0.00328402 0)
(0.998413 0.00348936 0)
(0.998872 0.0036349 0)
(0.994804 0.00367162 -1.94501e-23)
(0.995952 0.00274127 9.29261e-24)
(0.99471 0.00351644 3.1559e-22)
(0.995884 0.00262386 -1.1536e-22)
(0.994612 0.00336274 5.63963e-23)
(0.995813 0.00250694 -1.66778e-22)
(0.994512 0.0032001 7.60137e-23)
(0.995742 0.00238468 -1.07824e-22)
(0.994413 0.00303464 -1.27407e-22)
(0.995672 0.00226651 8.90593e-23)
(0.994318 0.00286839 1.53924e-22)
(0.995605 0.0021397 -1.73358e-22)
(0.994227 0.00270375 -3.38107e-23)
(0.995542 0.002002 -5.49237e-23)
(0.994141 0.00253467 9.21592e-23)
(0.995482 0.00186754 1.30508e-23)
(0.994063 0.00235309 5.09522e-23)
(0.995429 0.00173335 1.28381e-23)
(0.993992 0.00216749 -1.12662e-22)
(0.995382 0.00159828 3.56627e-23)
(0.993929 0.00198428 7.80576e-23)
(0.99534 0.00146239 -3.95831e-23)
(0.993873 0.00180016 1.22241e-22)
(0.995305 0.00132559 3.69526e-23)
(0.993825 0.00161453 4.14362e-23)
(0.995274 0.00118802 -6.12697e-23)
(0.993784 0.00142757 -9.26039e-23)
(0.995249 0.00104976 -2.1855e-23)
(0.993749 0.00123972 5.18568e-23)
(0.995228 0.000910907 4.02472e-23)
(0.993721 0.00105078 -1.8509e-23)
(0.995211 0.000771558 8.35779e-23)
(0.993699 0.000860948 7.40566e-24)
(0.995197 0.000631806 -3.77458e-23)
(0.993681 0.000670398 1.30588e-23)
(0.995187 0.000491735 -5.13373e-23)
(0.993668 0.000479281 3.11488e-23)
(0.99518 0.000351422 3.40579e-23)
(0.99366 0.000287757 -1.61189e-23)
(0.995175 0.000210942 -1.42753e-23)
(0.993656 9.5989e-05 1.31281e-23)
(0.995172 7.03627e-05 3.00047e-25)
)
;

boundaryField
{
    inlet
    {
        type            uniformFixedValue;
        uniformValue    constant (1 0 0);
        value           nonuniform 0();
    }
    outlet
    {
        type            pressureInletOutletVelocity;
        value           nonuniform 0();
    }
    cylinder
    {
        type            fixedValue;
        value           nonuniform 0();
    }
    top
    {
        type            symmetryPlane;
    }
    bottom
    {
        type            symmetryPlane;
    }
    defaultFaces
    {
        type            empty;
    }
    procBoundary40to39
    {
        type            processor;
        value           nonuniform List<vector> 
85
(
(0.991583 -0.00013349 1.54553e-24)
(0.991591 -0.000400436 2.30141e-24)
(0.991607 -0.00066684 -2.96404e-23)
(0.991631 -0.000932367 4.76498e-24)
(0.991663 -0.00119672 -1.73252e-23)
(0.991704 -0.00145969 9.57812e-23)
(0.991754 -0.00172106 -2.161e-22)
(0.991813 -0.00198052 1.57751e-22)
(0.991882 -0.00224373 -1.36932e-22)
(0.991961 -0.00249647 -1.97803e-22)
(0.99205 -0.00273597 -2.39094e-22)
(0.992151 -0.00297663 3.16102e-22)
(0.992262 -0.00321445 -1.46476e-22)
(0.992382 -0.00344804 -6.07705e-23)
(0.99251 -0.00367774 3.40844e-23)
(0.992647 -0.00390353 -1.95907e-23)
(0.992788 -0.00412551 4.87787e-23)
(0.992932 -0.00434492 3.97063e-22)
(0.993074 -0.00456027 2.29802e-22)
(0.993213 -0.00476275 -7.22241e-23)
(0.993344 -0.00496774 -8.39106e-24)
(0.993704 -0.00574636 0)
(0.994229 -0.00617851 0)
(0.99507 -0.00690672 0)
(0.996023 -0.00735293 0)
(0.997031 -0.00768858 0)
(0.998046 -0.0078821 0)
(0.999049 -0.00795038 0)
(1.00003 -0.00789804 0)
(1.00097 -0.00773513 0)
(1.00134 -0.00589083 0)
(1.00134 -0.00589083 0)
(1.00202 -0.00563246 0)
(1.00265 -0.00530389 0)
(1.00323 -0.00491211 0)
(1.00376 -0.00446413 0)
(1.00423 -0.0039669 0)
(1.00464 -0.00342732 0)
(1.00498 -0.00285217 0)
(1.00525 -0.00224812 0)
(1.00546 -0.00162171 0)
(1.0056 -0.000979422 0)
(1.00567 -0.000327548 0)
(0.993704 0.0057465 0)
(0.994229 0.00617865 0)
(0.99507 0.00690685 0)
(0.996023 0.00735306 0)
(0.997031 0.00768871 0)
(0.998046 0.00788222 0)
(0.999049 0.00795049 0)
(1.00003 0.00789815 0)
(1.00097 0.00773523 0)
(1.00186 0.0074709 0)
(1.0027 0.00711441 0)
(1.00348 0.00667503 0)
(1.0042 0.00616189 0)
(1.00484 0.00558385 0)
(1.00541 0.00494951 0)
(1.0059 0.00426715 0)
(1.00632 0.00354478 0)
(1.00665 0.00279009 0)
(1.0069 0.00201054 0)
(1.00706 0.00121339 0)
(1.00715 0.000405638 0)
(0.993344 0.00496788 1.99685e-23)
(0.993213 0.00476289 -1.34513e-22)
(0.993074 0.00456041 -2.34667e-22)
(0.992932 0.00434506 -1.94774e-22)
(0.992788 0.00412566 -4.7682e-22)
(0.992647 0.00390368 1.95501e-22)
(0.99251 0.00367788 -1.93233e-22)
(0.992382 0.00344818 4.36267e-22)
(0.992262 0.0032146 -1.45446e-22)
(0.992151 0.00297678 -7.89457e-23)
(0.99205 0.00273612 2.31827e-23)
(0.991961 0.0024966 1.67805e-22)
(0.991882 0.00224387 1.98106e-22)
(0.991813 0.00198068 9.23656e-23)
(0.991754 0.00172121 -1.84901e-22)
(0.991704 0.00145984 1.47151e-22)
(0.991663 0.00119687 -1.99111e-23)
(0.991631 0.000932515 1.44917e-23)
(0.991607 0.000666988 2.33429e-23)
(0.991591 0.000400583 -5.31784e-23)
(0.991583 0.000133638 1.31336e-23)
)
;
    }
    procBoundary40to41
    {
        type            processor;
        value           nonuniform List<vector> 
87
(
(0.996299 -5.23194e-05 3.80102e-24)
(0.996301 -0.000157044 2.92304e-24)
(0.996304 -0.000261728 -2.49871e-23)
(0.996309 -0.000366339 1.69581e-23)
(0.996315 -0.000470845 2.19146e-23)
(0.996324 -0.000575203 3.44931e-23)
(0.996335 -0.000679366 -1.16296e-22)
(0.996349 -0.000783275 4.63592e-23)
(0.996366 -0.000886863 -5.6998e-23)
(0.996387 -0.000990057 -8.96409e-24)
(0.996411 -0.00109278 -8.42656e-23)
(0.996439 -0.00119495 1.34496e-22)
(0.996472 -0.0012965 -6.81225e-23)
(0.996509 -0.00139731 6.97695e-23)
(0.99655 -0.00149731 -4.00937e-23)
(0.996595 -0.00159792 8.93337e-23)
(0.996644 -0.00170228 -4.80739e-23)
(0.996695 -0.00179964 -8.6535e-25)
(0.996747 -0.00188851 5.98928e-23)
(0.996799 -0.00197588 2.89161e-25)
(0.99685 -0.00206479 6.95583e-23)
(0.99685 -0.00206479 6.95583e-23)
(0.99766 -0.0018208 0)
(0.997837 -0.00203947 0)
(0.998095 -0.00231221 0)
(0.998403 -0.00252316 0)
(0.998739 -0.0026898 0)
(0.999091 -0.00281127 0)
(0.999452 -0.00288635 0)
(0.999815 -0.00291522 0)
(1.00017 -0.00289918 0)
(1.00053 -0.0028399 0)
(1.00086 -0.00273952 0)
(1.00118 -0.00260062 0)
(1.00148 -0.00242612 0)
(1.00176 -0.00221918 0)
(1.00201 -0.00198322 0)
(1.00222 -0.00172183 0)
(1.0024 -0.00143871 0)
(1.00255 -0.0011377 0)
(1.00267 -0.000822705 0)
(1.00274 -0.000497685 0)
(1.00278 -0.000166584 0)
(0.999339 0.00372023 0)
(0.999806 0.00374613 0)
(1.00027 0.00371495 0)
(1.00071 0.00362934 0)
(1.00114 0.00349246 0)
(1.00155 0.00330792 0)
(1.00192 0.00307965 0)
(1.00227 0.00281184 0)
(1.00257 0.00250884 0)
(1.00284 0.00217516 0)
(1.00307 0.0018154 0)
(1.00325 0.00143425 0)
(1.00339 0.00103643 0)
(1.00349 0.000626679 0)
(1.00353 0.000209709 0)
(0.99766 0.00182088 0)
(0.99685 0.00206489 -7.57938e-23)
(0.997837 0.00203956 0)
(0.998096 0.00231229 0)
(0.998403 0.00252324 0)
(0.998739 0.00268988 0)
(0.999339 0.00372023 0)
(0.999091 0.00281134 0)
(0.99685 0.00206489 -7.57938e-23)
(0.996799 0.00197597 -2.27531e-23)
(0.996747 0.00188861 -2.86798e-23)
(0.996695 0.00179974 1.10481e-22)
(0.996644 0.00170238 -1.0676e-22)
(0.996595 0.00159802 -4.50436e-23)
(0.99655 0.0014974 -5.27034e-23)
(0.996509 0.00139741 2.65274e-23)
(0.996472 0.0012966 -3.73662e-23)
(0.996439 0.00119505 3.64515e-23)
(0.996411 0.00109287 3.2534e-24)
(0.996387 0.000990155 -7.85479e-23)
(0.996366 0.000886962 8.07682e-23)
(0.996349 0.000783373 1.21668e-22)
(0.996335 0.000679464 -4.83263e-23)
(0.996324 0.000575302 3.01849e-23)
(0.996315 0.000470944 2.62263e-23)
(0.996309 0.000366439 -1.3167e-23)
(0.996304 0.000261827 -1.42844e-23)
(0.996301 0.000157143 -1.27484e-23)
(0.996299 5.24186e-05 -1.65691e-24)
)
;
    }
}


// ************************************************************************* //
