/*--------------------------------*- C++ -*----------------------------------*\
  =========                 |
  \\      /  F ield         | OpenFOAM: The Open Source CFD Toolbox
   \\    /   O peration     | Website:  https://openfoam.org
    \\  /    A nd           | Version:  7
     \\/     M anipulation  |
\*---------------------------------------------------------------------------*/
FoamFile
{
    version     2.0;
    format      ascii;
    class       volVectorField;
    location    "80";
    object      U;
}
// * * * * * * * * * * * * * * * * * * * * * * * * * * * * * * * * * * * * * //

dimensions      [0 1 -1 0 0 0 0];

internalField   nonuniform List<vector> 
183
(
(1.10649 0.259302 -4.66681e-20)
(1.10263 0.244182 6.39026e-21)
(1.09782 0.295544 -6.19172e-20)
(1.09464 0.278401 1.70761e-20)
(1.09121 0.263368 -2.8392e-20)
(1.08669 0.339056 2.83706e-20)
(1.08295 0.318701 1.32933e-20)
(1.08014 0.299587 -2.59693e-21)
(1.06989 0.365404 -4.85151e-20)
(1.06645 0.343108 -3.0372e-20)
(1.05414 0.419375 -4.06567e-20)
(1.05076 0.39317 1.07652e-19)
(1.04798 0.368767 -3.97604e-20)
(1.03117 0.451003 -1.1994e-19)
(1.02884 0.422314 3.66339e-21)
(1.02704 0.395654 -2.39803e-20)
(1.00464 0.484155 -1.1155e-19)
(1.00369 0.452792 6.91812e-20)
(0.973214 0.55535 -2.61875e-21)
(0.974026 0.518725 -4.40828e-21)
(0.974837 0.484539 3.48989e-20)
(0.934536 0.593358 -2.84922e-21)
(0.938587 0.554417 3.558e-20)
(0.94175 0.517424 7.78639e-21)
(0.897215 0.590441 1.04182e-21)
(0.903736 0.551136 -7.25748e-23)
(0.848025 0.624847 -1.75415e-20)
(0.85977 0.584905 -1.60397e-20)
(0.787783 0.653286 3.80654e-20)
(0.808143 0.616853 -9.32334e-21)
(0.711371 0.6672 2.80634e-20)
(0.745952 0.6428 -1.20689e-20)
(0.76848 0.605937 -2.80201e-20)
(0.611823 0.651942 -4.26237e-20)
(0.668643 0.654474 5.99933e-21)
(0.704458 0.629089 -5.59096e-20)
(0.570121 0.637676 1.04477e-19)
(0.626339 0.638232 -5.34036e-20)
(0.444035 0.57162 -1.43939e-19)
(0.528891 0.619705 4.83154e-20)
(0.584769 0.618539 -1.42978e-20)
(0.40698 0.553575 2.52656e-20)
(0.488469 0.59811 3.73077e-20)
(0.259638 0.415056 2.13319e-19)
(0.370732 0.53199 -5.02396e-20)
(0.449179 0.572998 1.35226e-19)
(0.232183 0.396994 -5.71898e-20)
(0.335618 0.506984 -9.33647e-20)
(0.0847054 0.170067 5.96456e-20)
(0.205689 0.37611 3.59008e-19)
(0.301947 0.4787 1.14713e-19)
(0.0732151 0.160051 5.99118e-20)
(0.18042 0.352536 7.40011e-20)
(0.0623195 0.148751 -2.99235e-19)
(0.156625 0.326427 1.74824e-19)
(0.0521427 0.136249 2.44509e-19)
(0.134537 0.297957 6.7023e-20)
(0.0428001 0.122637 -3.6647e-20)
(0.114371 0.267322 -1.11946e-19)
(0.0343971 0.108021 2.48476e-19)
(0.0270282 0.092515 -2.38442e-19)
(0.0207759 0.0762405 5.9258e-21)
(0.0157103 0.0593283 -6.40047e-20)
(0.0118881 0.0419148 1.05834e-19)
(0.00935213 0.0241412 -5.25025e-20)
(0.00813122 0.00615247 -3.74517e-21)
(0.00823957 -0.0119045 1.17043e-21)
(0.00967677 -0.0298818 -3.36412e-20)
(0.0124278 -0.0476323 -9.67583e-20)
(0.016463 -0.0650108 3.11001e-20)
(0.0217385 -0.0818756 1.28467e-19)
(0.0281965 -0.0980897 -2.3289e-20)
(0.0357658 -0.113522 1.14248e-19)
(0.0443623 -0.12805 -7.91918e-20)
(0.118553 -0.282131 2.73778e-20)
(0.0538899 -0.141557 1.84864e-19)
(0.139238 -0.312568 -1.12181e-19)
(0.0642414 -0.15394 -1.83519e-19)
(0.161828 -0.34081 -1.94464e-19)
(0.0752991 -0.165103 2.4951e-19)
(0.186103 -0.366659 -3.88507e-19)
(0.0869366 -0.174965 -3.80292e-19)
(0.211828 -0.38994 1.75288e-19)
(0.310935 -0.499036 -1.7963e-19)
(0.238748 -0.410496 -1.79417e-19)
(0.345272 -0.52695 2.83288e-19)
(0.266594 -0.428194 2.88863e-21)
(0.381015 -0.551548 -2.35314e-19)
(0.461486 -0.596299 -5.62851e-20)
(0.417848 -0.572686 1.94143e-19)
(0.501522 -0.620982 -2.1785e-19)
(0.455439 -0.590244 -3.7788e-20)
(0.542646 -0.642113 2.47875e-21)
(0.599635 -0.642564 4.99976e-20)
(0.584526 -0.659587 7.35179e-20)
(0.641953 -0.661813 9.52303e-20)
(0.62682 -0.673321 -5.48846e-20)
(0.684956 -0.677586 -1.70861e-19)
(0.721149 -0.652514 5.16386e-20)
(0.728328 -0.689821 1.58919e-20)
(0.763344 -0.665803 -2.92022e-20)
(0.785775 -0.628559 6.95874e-22)
(0.805823 -0.675854 -9.39922e-21)
(0.826115 -0.639104 6.59466e-20)
(0.866625 -0.646724 -2.58034e-20)
(0.878087 -0.606184 2.201e-20)
(0.91613 -0.61141 -7.506e-21)
(0.922325 -0.571434 1.13241e-21)
(0.957745 -0.574465 1.59595e-20)
(0.960615 -0.536805 -5.48216e-21)
(0.993438 -0.537918 8.08122e-21)
(0.994014 -0.503083 1.69234e-20)
(1.02436 -0.502569 1.34826e-20)
(1.02322 -0.470566 3.089e-20)
(1.05124 -0.468705 2.34102e-20)
(1.04879 -0.439369 -1.55115e-20)
(1.04686 -0.412029 -4.34244e-21)
(1.07463 -0.43641 4.43009e-20)
(1.07117 -0.409537 -4.59858e-20)
(1.06831 -0.384432 1.1296e-20)
(1.09084 -0.381101 4.15697e-20)
(1.08742 -0.358082 2.19079e-20)
(1.10834 -0.354099 -2.92907e-20)
(1.10481 -0.333028 2.92751e-20)
(1.10243 -0.31326 3.1881e-20)
(1.12092 -0.309306 -5.60735e-22)
(1.11844 -0.291618 -1.03603e-20)
(1.11584 -0.276169 4.47648e-20)
(1.13181 -0.272106 -3.54116e-20)
(1.12853 -0.256593 1.92557e-20)
(1.10422 0.187412 8.56852e-21)
(1.09922 0.17379 -6.4342e-21)
(1.09536 0.134666 -3.6046e-21)
(1.09089 0.118368 5.12522e-21)
(1.08469 0.0980778 -1.42265e-21)
(1.08319 0.0833915 -3.77132e-21)
(1.07899 0.0751603 2.19199e-21)
(1.07208 0.0652366 -9.74815e-22)
(1.06937 0.0542047 -5.72594e-22)
(1.06861 0.0471525 -5.29099e-22)
(1.06625 0.0435206 -1.6631e-22)
(1.06125 0.0398042 -9.29485e-23)
(1.05688 0.0331131 4.20823e-22)
(1.05493 0.0293914 -1.50005e-22)
(1.05137 0.0229383 5.52783e-22)
(1.05272 0.0203497 1.24179e-22)
(1.04788 0.0183607 -6.53065e-22)
(1.04566 0.0136 4.46727e-22)
(1.04419 0.00769251 -4.6278e-22)
(1.04708 0.00502613 -3.12859e-22)
(1.04265 0.00478473 1.24514e-21)
(1.04467 0.0139691 -5.73212e-22)
(1.0433 0.00754491 1.02613e-21)
(1.04655 0.00513441 -2.48743e-22)
(1.0417 0.00515343 -5.3422e-22)
(1.05552 -0.0205036 -3.32027e-21)
(1.05718 -0.0160069 2.45844e-21)
(1.05126 -0.0166387 -3.12566e-23)
(1.04914 -0.0103177 -2.07889e-21)
(1.04806 -0.00699542 -1.5839e-22)
(1.05002 -0.00432848 -1.78597e-21)
(1.04861 -0.00537887 8.50948e-22)
(1.04528 -0.00232149 -2.50538e-21)
(1.13038 -0.19948 -4.64996e-21)
(1.12393 -0.182247 3.72024e-21)
(1.12147 -0.138146 1.88558e-21)
(1.11463 -0.118697 -7.93606e-22)
(1.11052 -0.0966207 -4.16612e-22)
(1.102 -0.0845472 1.04066e-21)
(1.09242 -0.071367 1.36899e-22)
(1.08617 -0.0568924 1.52795e-22)
(1.08145 -0.0517098 -4.52573e-22)
(1.07232 -0.0415749 -4.85131e-22)
(1.07038 -0.0356765 -1.23551e-21)
(1.06212 -0.0301665 5.88117e-22)
(1.06183 -0.023249 -1.52481e-21)
(1.05632 -0.020183 1.10902e-21)
(1.05762 -0.015691 -1.15776e-21)
(1.05182 -0.0160124 1.50208e-22)
(1.04994 -0.0100067 1.0125e-21)
(1.04872 -0.00709521 4.09993e-22)
(1.0503 -0.00438984 -8.2524e-22)
(1.04893 -0.00503894 3.06926e-23)
)
;

boundaryField
{
    inlet
    {
        type            uniformFixedValue;
        uniformValue    constant (1 0 0);
        value           nonuniform 0();
    }
    outlet
    {
        type            pressureInletOutletVelocity;
        value           nonuniform 0();
    }
    cylinder
    {
        type            fixedValue;
        value           uniform (0 0 0);
    }
    top
    {
        type            symmetryPlane;
    }
    bottom
    {
        type            symmetryPlane;
    }
    defaultFaces
    {
        type            empty;
    }
    procBoundary10to9
    {
        type            processor;
        value           nonuniform List<vector> 
144
(
(1.0884 0.24769 -1.32462e-20)
(1.07791 0.281995 -4.4184e-20)
(1.0884 0.24769 -1.32462e-20)
(1.07541 0.266588 -9.66018e-21)
(1.06378 0.322251 6.43337e-21)
(1.07791 0.281995 -4.4184e-20)
(1.06197 0.302673 -6.0126e-20)
(1.06378 0.322251 6.43337e-21)
(1.04578 0.346019 -1.52395e-20)
(1.04578 0.346019 -1.52395e-20)
(1.02568 0.370853 -9.09459e-21)
(1.00315 0.423706 -3.50969e-21)
(1.02568 0.370853 -9.09459e-21)
(1.00297 0.396709 -8.81878e-22)
(1.00315 0.423706 -3.50969e-21)
(0.975878 0.45285 3.813e-21)
(0.975878 0.45285 3.813e-21)
(0.944777 0.482993 2.96269e-20)
(0.944777 0.482993 2.96269e-20)
(0.909317 0.513976 -2.87123e-21)
(0.909317 0.513976 -2.87123e-21)
(0.868844 0.545474 4.13321e-21)
(0.868844 0.545474 4.13321e-21)
(0.822412 0.576729 -5.84926e-20)
(0.822412 0.576729 -5.84926e-20)
(0.785353 0.565912 9.65371e-21)
(0.729276 0.592116 -1.04675e-19)
(0.729276 0.592116 -1.04675e-19)
(0.663575 0.612192 1.17977e-19)
(0.663575 0.612192 1.17977e-19)
(0.623571 0.59217 1.9934e-20)
(0.544234 0.59548 -1.82382e-19)
(0.544234 0.59548 -1.82382e-19)
(0.505021 0.56916 1.04211e-19)
(0.411331 0.5445 2.51488e-19)
(0.411331 0.5445 2.51488e-19)
(0.375222 0.512769 -1.92086e-19)
(0.270013 0.447307 -1.16303e-19)
(0.270013 0.447307 -1.16303e-19)
(0.240093 0.412996 1.92099e-19)
(0.212444 0.375979 3.06808e-19)
(0.187299 0.336488 -1.52674e-19)
(0.0963208 0.234735 2.55761e-19)
(0.0963208 0.234735 2.55761e-19)
(0.0805595 0.200424 -2.8607e-19)
(0.0672381 0.164631 2.46504e-19)
(0.0564836 0.127611 -1.28062e-19)
(0.0483987 0.0896299 7.71274e-20)
(0.043061 0.0509586 4.26734e-20)
(0.0405222 0.0118756 4.0466e-21)
(0.040808 -0.0273377 2.44737e-20)
(0.0439177 -0.0663985 -4.23488e-21)
(0.0498243 -0.105025 -5.00123e-20)
(0.0584746 -0.142939 -1.52233e-19)
(0.0697894 -0.179867 2.05662e-19)
(0.0836642 -0.215543 -4.06096e-19)
(0.0999699 -0.249712 1.7007e-19)
(0.0999699 -0.249712 1.7007e-19)
(0.193356 -0.357946 -1.03969e-19)
(0.219266 -0.397207 -4.835e-20)
(0.247662 -0.433961 2.35623e-19)
(0.278305 -0.467975 -2.06905e-19)
(0.278305 -0.467975 -2.06905e-19)
(0.385923 -0.536829 -4.52919e-19)
(0.422853 -0.568197 1.70152e-19)
(0.422853 -0.568197 1.70152e-19)
(0.518263 -0.593995 1.54882e-19)
(0.558307 -0.619923 -1.47716e-19)
(0.558307 -0.619923 -1.47716e-19)
(0.638725 -0.616393 -2.26135e-19)
(0.679518 -0.636025 8.21255e-20)
(0.679518 -0.636025 8.21255e-20)
(0.745851 -0.615102 -9.94925e-20)
(0.745851 -0.615102 -9.94925e-20)
(0.802345 -0.587828 -4.39652e-20)
(0.840087 -0.598326 1.03992e-19)
(0.840087 -0.598326 1.03992e-19)
(0.886825 -0.566036 5.61037e-21)
(0.886825 -0.566036 5.61037e-21)
(0.9276 -0.533565 -3.53539e-20)
(0.9276 -0.533565 -3.53539e-20)
(0.963388 -0.501689 3.62156e-20)
(0.963388 -0.501689 3.62156e-20)
(0.994856 -0.470723 -1.63556e-20)
(0.994856 -0.470723 -1.63556e-20)
(1.02253 -0.440811 8.49105e-21)
(1.02253 -0.440811 8.49105e-21)
(1.02221 -0.413121 2.16524e-20)
(1.0454 -0.386519 2.74988e-21)
(1.0454 -0.386519 2.74988e-21)
(1.06607 -0.360959 8.36028e-21)
(1.06607 -0.360959 8.36028e-21)
(1.08489 -0.336508 2.83355e-21)
(1.08489 -0.336508 2.83355e-21)
(1.08345 -0.316275 1.99665e-20)
(1.10092 -0.295146 1.57613e-20)
(1.10092 -0.295146 1.57613e-20)
(1.09935 -0.279369 3.88095e-21)
(1.11373 -0.260195 7.09829e-21)
(1.11373 -0.260195 7.09829e-21)
(1.09344 0.189538 -3.50224e-22)
(1.0923 0.176355 -6.53787e-21)
(1.09 0.137667 -4.01701e-22)
(1.08674 0.120621 2.63896e-21)
(1.08119 0.100003 -1.09795e-21)
(1.08062 0.0845049 -4.81821e-21)
(1.07723 0.0764655 2.63579e-23)
(1.07023 0.0666085 2.92394e-21)
(1.06755 0.0548687 -1.03007e-21)
(1.06739 0.0473725 -1.95399e-22)
(1.06552 0.0440393 -1.67246e-22)
(1.06046 0.0406214 -3.22199e-22)
(1.0559 0.0337471 7.62091e-22)
(1.05394 0.0298571 4.94289e-22)
(1.05046 0.0230782 -1.19335e-21)
(1.05218 0.0205598 4.59462e-24)
(1.04719 0.0189285 1.05087e-21)
(1.04719 0.0189285 1.05087e-21)
(1.04366 0.0143689 5.48603e-23)
(1.0424 0.00735437 1.72611e-21)
(1.04603 0.00524686 1.91892e-22)
(1.04075 0.00556211 -7.73567e-22)
(1.05472 -0.020778 -2.54887e-21)
(1.05675 -0.0162961 3.21749e-21)
(1.05071 -0.0173005 -1.63894e-21)
(1.04832 -0.0106534 -2.19708e-21)
(1.04739 -0.00684768 -1.15491e-22)
(1.04974 -0.00423028 -2.34292e-21)
(1.04831 -0.00575953 -2.95334e-22)
(1.04456 -0.00262535 1.10225e-21)
(1.1192 -0.202039 1.42769e-23)
(1.11619 -0.185587 3.22601e-21)
(1.11537 -0.141874 2.47316e-22)
(1.1099 -0.121422 -1.1099e-21)
(1.1072 -0.0990992 4.52919e-22)
(1.09964 -0.0870217 5.89426e-22)
(1.09019 -0.0737845 -1.14206e-21)
(1.08428 -0.0584702 2.03457e-21)
(1.08012 -0.0532498 -8.76995e-22)
(1.071 -0.0428883 -9.66736e-22)
(1.06934 -0.036708 1.60712e-21)
(1.061 -0.0311 5.08291e-22)
(1.06088 -0.0237643 -3.2567e-21)
(1.06088 -0.0237643 -3.2567e-21)
)
;
    }
    procBoundary10to11
    {
        type            processor;
        value           nonuniform List<vector> 
123
(
(1.12124 0.254416 4.93248e-20)
(1.11638 0.23992 -8.14142e-20)
(1.11496 0.290569 -8.28824e-20)
(1.11083 0.273922 4.28727e-20)
(1.11083 0.273922 4.28727e-20)
(1.10641 0.333905 -9.89417e-20)
(1.10162 0.314128 1.68803e-20)
(1.10162 0.314128 1.68803e-20)
(1.09132 0.360809 -1.37315e-19)
(1.09132 0.360809 -1.37315e-19)
(1.07894 0.41494 -8.99962e-20)
(1.07404 0.389304 3.43439e-20)
(1.07404 0.389304 3.43439e-20)
(1.05818 0.447536 -6.97797e-20)
(1.05818 0.447536 -6.97797e-20)
(1.03405 0.48189 -6.13012e-20)
(1.03405 0.48189 -6.13012e-20)
(1.00743 0.553983 1.4529e-19)
(1.00599 0.517923 2.30001e-21)
(1.00599 0.517923 2.30001e-21)
(0.971522 0.59369 1.39087e-20)
(0.971522 0.59369 1.39087e-20)
(0.927463 0.632089 6.89338e-20)
(0.887881 0.629919 -2.40003e-20)
(0.887881 0.629919 -2.40003e-20)
(0.829667 0.660528 2.29337e-20)
(0.829667 0.660528 2.29337e-20)
(0.754206 0.676373 8.23312e-21)
(0.754206 0.676373 8.23312e-21)
(0.653651 0.662446 1.66495e-20)
(0.653651 0.662446 1.66495e-20)
(0.519207 0.596752 1.96978e-20)
(0.48156 0.586033 1.32609e-19)
(0.48156 0.586033 1.32609e-19)
(0.316314 0.442307 -1.85453e-19)
(0.287777 0.430187 1.57891e-19)
(0.287777 0.430187 1.57891e-19)
(0.108936 0.185986 1.37894e-20)
(0.0966584 0.178731 2.33189e-19)
(0.0966584 0.178731 2.33189e-19)
(0.0990191 -0.183455 2.57828e-20)
(0.0990191 -0.183455 2.57828e-20)
(0.111405 -0.190517 -2.55684e-19)
(0.295084 -0.442925 -5.4415e-21)
(0.295084 -0.442925 -5.4415e-21)
(0.323923 -0.454604 -1.27633e-19)
(0.493443 -0.60413 -5.00483e-21)
(0.493443 -0.60413 -5.00483e-21)
(0.531504 -0.614281 2.74597e-20)
(0.669174 -0.683262 -1.83897e-20)
(0.669174 -0.683262 -1.83897e-20)
(0.771744 -0.69848 -2.65701e-20)
(0.771744 -0.69848 -2.65701e-20)
(0.848301 -0.682651 -1.49332e-20)
(0.848301 -0.682651 -1.49332e-20)
(0.907057 -0.651424 -1.09705e-20)
(0.907057 -0.651424 -1.09705e-20)
(0.954002 -0.614025 3.18129e-20)
(0.954002 -0.614025 3.18129e-20)
(0.992898 -0.575166 -2.64603e-21)
(0.992898 -0.575166 -2.64603e-21)
(1.02591 -0.536952 3.67294e-20)
(1.02591 -0.536952 3.67294e-20)
(1.05427 -0.500206 -4.06216e-20)
(1.05427 -0.500206 -4.06216e-20)
(1.07877 -0.465201 7.15429e-20)
(1.07877 -0.465201 7.15429e-20)
(1.09996 -0.431995 7.3697e-20)
(1.09503 -0.405699 1.30658e-20)
(1.09503 -0.405699 1.30658e-20)
(1.11289 -0.376576 1.69048e-20)
(1.11289 -0.376576 1.69048e-20)
(1.12876 -0.349056 6.58366e-20)
(1.12424 -0.328553 -4.92958e-20)
(1.12424 -0.328553 -4.92958e-20)
(1.13885 -0.304438 5.37704e-20)
(1.1354 -0.287207 -5.36622e-20)
(1.1354 -0.287207 -5.36622e-20)
(1.14726 -0.26722 -3.12396e-20)
(1.14289 -0.252227 9.4841e-21)
(1.11465 0.184809 -6.73995e-21)
(1.10591 0.170743 7.92923e-21)
(1.10051 0.131545 -2.86954e-21)
(1.09482 0.116061 8.09611e-21)
(1.088 0.0961244 3.35618e-21)
(1.08567 0.0821866 -4.1735e-21)
(1.08075 0.0738055 4.31375e-22)
(1.07391 0.0639199 9.42382e-22)
(1.07114 0.0535407 -5.11047e-22)
(1.06983 0.0468422 5.48397e-22)
(1.06701 0.0429497 -5.19468e-22)
(1.06207 0.0390143 -4.85486e-23)
(1.05786 0.0325132 2.30549e-22)
(1.0559 0.0289313 5.39173e-23)
(1.05228 0.0227635 2.14186e-22)
(1.05329 0.0201146 -3.05788e-22)
(1.04859 0.0178344 -5.96082e-22)
(1.04663 0.0132582 3.27385e-22)
(1.04507 0.00779929 -5.45451e-22)
(1.04763 0.00492219 5.89502e-22)
(1.04358 0.00445459 2.834e-23)
(1.04598 -0.002059 -2.01275e-21)
(1.14133 -0.196423 7.52552e-21)
(1.13151 -0.178456 -3.09411e-21)
(1.12734 -0.134316 -6.12757e-22)
(1.11914 -0.115849 -9.31819e-22)
(1.11372 -0.0940002 1.18714e-21)
(1.10436 -0.0820083 1.06732e-21)
(1.09462 -0.068976 -5.5587e-22)
(1.08803 -0.0552897 4.86704e-23)
(1.0828 -0.0501379 -5.10418e-22)
(1.07366 -0.0402657 3.18791e-22)
(1.07143 -0.0346429 -3.89287e-22)
(1.06324 -0.0292459 1.03547e-21)
(1.06275 -0.0227206 -1.01483e-21)
(1.0571 -0.019819 -6.33619e-23)
(1.05807 -0.0153525 4.17301e-22)
(1.0524 -0.0154209 -1.79875e-22)
(1.0507 -0.00971563 1.14252e-21)
(1.04935 -0.00714884 -7.34287e-23)
(1.0506 -0.0044175 -1.32534e-23)
(1.04598 -0.002059 -2.01275e-21)
(1.04925 -0.00473769 -4.94233e-22)
)
;
    }
}


// ************************************************************************* //
