/*--------------------------------*- C++ -*----------------------------------*\
  =========                 |
  \\      /  F ield         | OpenFOAM: The Open Source CFD Toolbox
   \\    /   O peration     | Website:  https://openfoam.org
    \\  /    A nd           | Version:  7
     \\/     M anipulation  |
\*---------------------------------------------------------------------------*/
FoamFile
{
    version     2.0;
    format      ascii;
    class       volScalarField;
    location    "10";
    object      p;
}
// * * * * * * * * * * * * * * * * * * * * * * * * * * * * * * * * * * * * * //

dimensions      [0 2 -2 0 0 0 0];

internalField   nonuniform List<scalar> 
183
(
-0.291505
-0.293399
-0.291828
-0.293682
-0.292441
-0.294216
-0.293322
-0.294984
-0.294443
-0.295964
-0.295768
-0.297126
-0.297987
-0.298439
-0.299192
-0.299872
-0.300509
-0.301396
-0.301911
-0.302984
-0.303375
-0.304885
-0.305053
-0.306429
-0.306475
-0.308002
-0.307922
-0.307771
-0.309396
-0.309093
-0.310909
-0.310443
-0.309912
-0.311839
-0.311114
-0.312373
-0.311405
-0.31372
-0.312526
-0.313759
-0.312347
-0.313493
-0.31192
-0.314823
-0.313016
-0.311332
-0.31433
-0.312413
-0.310629
-0.313731
-0.31169
-0.309732
-0.312971
-0.310678
-0.30834
-0.308944
-0.305893
-0.305814
-0.301697
-0.300612
-0.295242
-0.286473
-0.279735
-0.275757
-0.268391
-0.260994
-0.255885
-0.248491
-0.255339
-0.247947
-0.275195
-0.267832
-0.28589
-0.279156
-0.300004
-0.294635
-0.305192
-0.301069
-0.311157
-0.308321
-0.305255
-0.312377
-0.310065
-0.307706
-0.313153
-0.311093
-0.309111
-0.313766
-0.311833
-0.310026
-0.31427
-0.312451
-0.310748
-0.31294
-0.311353
-0.313217
-0.311796
-0.313188
-0.311989
-0.31185
-0.310875
-0.31133
-0.310602
-0.310415
-0.309949
-0.309413
-0.30892
-0.308616
-0.307545
-0.307466
-0.307314
-0.305995
-0.306043
-0.304478
-0.304647
-0.302603
-0.302998
-0.301048
-0.301565
-0.299559
-0.300197
-0.298162
-0.298917
-0.295526
-0.296888
-0.294242
-0.295766
-0.293164
-0.294829
-0.292327
-0.294104
-0.29176
-0.293615
-0.291482
-0.293377
-0.052901
-0.0515353
-0.0507334
-0.0501834
-0.229721
-0.198224
-0.170977
-0.151548
-0.133895
-0.119824
-0.107745
-0.0976605
-0.0890828
-0.0818164
-0.0756176
-0.0702134
-0.0657096
-0.0618037
-0.0585832
-0.0558862
-0.0536674
-0.0519213
-0.0505887
-0.0498142
-0.0492665
-0.222929
-0.19208
-0.229162
-0.19767
-0.170373
-0.150937
-0.133173
-0.119026
-0.106697
-0.0965088
-0.0878258
-0.0803508
-0.0741803
-0.0688694
-0.0644363
-0.0608142
-0.057696
-0.0552491
-0.0531571
-0.0516484
-0.0504877
-0.049736
-0.0492922
)
;

boundaryField
{
    inlet
    {
        type            zeroGradient;
    }
    outlet
    {
        type            fixedValue;
        value           nonuniform 0();
    }
    cylinder
    {
        type            zeroGradient;
    }
    top
    {
        type            symmetryPlane;
    }
    bottom
    {
        type            symmetryPlane;
    }
    defaultFaces
    {
        type            empty;
    }
    procBoundary25to24
    {
        type            processor;
        value           nonuniform List<scalar> 
134
(
-0.29726
-0.29726
-0.298879
-0.300587
-0.302352
-0.304616
-0.304616
-0.30628
-0.307971
-0.30961
-0.30961
-0.311264
-0.31248
-0.31248
-0.313303
-0.313303
-0.314867
-0.315187
-0.315187
-0.315143
-0.315143
-0.316717
-0.316376
-0.316376
-0.315895
-0.315895
-0.315305
-0.315305
-0.314464
-0.311765
-0.311765
-0.30954
-0.30954
-0.305554
-0.305554
-0.299223
-0.293
-0.293
-0.283145
-0.283145
-0.271551
-0.263677
-0.263677
-0.250638
-0.242907
-0.250102
-0.242372
-0.242372
-0.271003
-0.263131
-0.263131
-0.28258
-0.28258
-0.298633
-0.292413
-0.292413
-0.304947
-0.304947
-0.312348
-0.308927
-0.308927
-0.313872
-0.313872
-0.314728
-0.314728
-0.315332
-0.315332
-0.315823
-0.315823
-0.31617
-0.314598
-0.314598
-0.31465
-0.31465
-0.314337
-0.312782
-0.312782
-0.31197
-0.31197
-0.310766
-0.309131
-0.309131
-0.307508
-0.305842
-0.304206
-0.304206
-0.301965
-0.300233
-0.29856
-0.296978
-0.296978
-0.223484
-0.192628
-0.166022
-0.147096
-0.130018
-0.116487
-0.104831
-0.0951266
-0.086866
-0.0798707
-0.0738941
-0.0686658
-0.0643112
-0.0605223
-0.0574032
-0.0547868
-0.0526284
-0.0509215
-0.0496225
-0.0488764
-0.0483303
-0.216684
-0.186456
-0.165424
-0.165424
-0.146486
-0.129295
-0.115677
-0.103749
-0.0939416
-0.0855669
-0.0783434
-0.0724012
-0.0672717
-0.0629977
-0.0595157
-0.0565057
-0.0541508
-0.0521221
-0.0506718
-0.0495541
-0.0488263
-0.0483921
)
;
    }
    procBoundary25to26
    {
        type            processor;
        value           nonuniform List<scalar> 
139
(
-0.294569
-0.294829
-0.295319
-0.296023
-0.296921
-0.296921
-0.298655
-0.299778
-0.301002
-0.302303
-0.303659
-0.303659
-0.305175
-0.306466
-0.306466
-0.307585
-0.308741
-0.308741
-0.30936
-0.31036
-0.31036
-0.310451
-0.311347
-0.311347
-0.311004
-0.311004
-0.310459
-0.310459
-0.309779
-0.309779
-0.308949
-0.308949
-0.307784
-0.307784
-0.305851
-0.305851
-0.302512
-0.302512
-0.297152
-0.297152
-0.289501
-0.289501
-0.283456
-0.272926
-0.272926
-0.265978
-0.253962
-0.253962
-0.260437
-0.253409
-0.260437
-0.272353
-0.288897
-0.272353
-0.282858
-0.288897
-0.296522
-0.296522
-0.301863
-0.301863
-0.305198
-0.305198
-0.307139
-0.307139
-0.308321
-0.308321
-0.309171
-0.309171
-0.309872
-0.309872
-0.310436
-0.310436
-0.310798
-0.310798
-0.309908
-0.30984
-0.30984
-0.308852
-0.308259
-0.308259
-0.307122
-0.306032
-0.306032
-0.304767
-0.303281
-0.303281
-0.301957
-0.30069
-0.299502
-0.29775
-0.29775
-0.296725
-0.295869
-0.295208
-0.294762
-0.294546
-0.0538604
-0.052462
-0.0516336
-0.0510811
-0.235967
-0.20375
-0.17592
-0.156033
-0.137777
-0.123175
-0.110665
-0.100193
-0.0912954
-0.0837552
-0.0773313
-0.0717478
-0.0670923
-0.0630679
-0.0597455
-0.0569676
-0.0546876
-0.0546876
-0.235407
-0.203191
-0.175311
-0.155421
-0.137059
-0.122389
-0.109649
-0.0990743
-0.0900783
-0.0823465
-0.0759451
-0.0704505
-0.0658573
-0.0620955
-0.0588687
-0.0563294
-0.0541734
-0.0526069
-0.0514042
-0.0506287
-0.0501755
)
;
    }
}


// ************************************************************************* //
