/*--------------------------------*- C++ -*----------------------------------*\
  =========                 |
  \\      /  F ield         | OpenFOAM: The Open Source CFD Toolbox
   \\    /   O peration     | Website:  https://openfoam.org
    \\  /    A nd           | Version:  7
     \\/     M anipulation  |
\*---------------------------------------------------------------------------*/
FoamFile
{
    version     2.0;
    format      ascii;
    class       surfaceScalarField;
    location    "73";
    object      phi;
}
// * * * * * * * * * * * * * * * * * * * * * * * * * * * * * * * * * * * * * //

dimensions      [0 3 -1 0 0 0 0];

internalField   nonuniform List<scalar> 
79480
(
-7.93332e-07
2.11277e-06
-1.31944e-06
-3.04818e-06
5.22571e-06
-2.97086e-06
-6.70446e-06
7.39866e-06
-3.74238e-06
-1.17013e-05
8.65302e-06
-3.65615e-06
-1.79767e-05
9.027e-06
-2.75164e-06
-2.54677e-05
8.5723e-06
-1.08129e-06
-3.41112e-05
7.35053e-06
1.29298e-06
-4.38441e-05
5.42861e-06
4.30427e-06
-5.46036e-05
2.87326e-06
7.88627e-06
-6.63277e-05
-2.55065e-07
1.19792e-05
-7.89551e-05
-3.90811e-06
1.65355e-05
-9.24256e-05
-8.05541e-06
2.15259e-05
-0.00010668
-1.26887e-05
2.69431e-05
-0.00012166
-1.78251e-05
3.28049e-05
-0.000137308
-2.35082e-05
3.9156e-05
-0.000153567
-2.98074e-05
4.60664e-05
-0.000170381
-3.68157e-05
5.36301e-05
-0.000187697
-4.46455e-05
6.19611e-05
-0.000205461
-5.34243e-05
7.1189e-05
-0.000223627
-6.32888e-05
8.14549e-05
-0.000242154
-7.43802e-05
9.2907e-05
-0.000261012
-8.68401e-05
0.000105698
-0.000280189
-0.000100808
0.000119984
-0.000299694
-0.000116418
0.000135924
-0.000319571
-0.000133806
0.000153683
-0.0003399
-0.000153108
0.000173437
-0.000360804
-0.000174472
0.000195376
-0.000382448
-0.000198065
0.000219709
-0.000405032
-0.000224089
0.000246672
-0.000252796
0.000276578
-0.000428814
-7.9935e-07
2.91212e-06
-3.07233e-06
7.49868e-06
-6.75952e-06
1.10859e-05
-1.18008e-05
1.36943e-05
-1.81345e-05
1.53608e-05
-2.56985e-05
1.61362e-05
-3.44298e-05
1.60819e-05
-4.42659e-05
1.52646e-05
-5.51442e-05
1.37516e-05
-6.70034e-05
1.16041e-05
-7.97829e-05
8.8714e-06
-9.34236e-05
5.58526e-06
-0.000107868
1.7553e-06
-0.000123059
-2.63415e-06
-0.000138941
-7.62535e-06
-0.000155462
-1.32865e-05
-0.000172569
-1.97092e-05
-0.00019021
-2.70043e-05
-0.000208338
-3.52966e-05
-0.000226908
-4.47186e-05
-0.000245883
-5.54046e-05
-0.000265239
-6.74849e-05
-0.000284964
-8.10817e-05
-0.000305076
-9.63063e-05
-0.000325622
-0.00011326
-0.000346692
-0.000132038
-0.000368423
-0.000152741
-0.000390996
-0.000175491
-0.000414635
-0.00020045
-0.000227807
-0.000439623
-7.98659e-07
3.71078e-06
-3.07136e-06
9.77138e-06
-6.76038e-06
1.47749e-05
-1.18071e-05
1.87409e-05
-1.81511e-05
2.17048e-05
-2.57311e-05
2.37162e-05
-3.4485e-05
2.48358e-05
-4.43507e-05
2.51303e-05
-5.52663e-05
2.46672e-05
-6.71705e-05
2.35083e-05
-8.00034e-05
2.17043e-05
-9.37064e-05
1.92883e-05
-0.000108223
1.62715e-05
-0.000123497
1.26399e-05
-0.000139475
8.35283e-06
-0.000156105
3.34362e-06
-0.000173336
-2.47795e-06
-0.000191119
-9.22123e-06
-0.000209407
-1.70088e-05
-0.000228156
-2.59698e-05
-0.000247328
-3.62324e-05
-0.000266896
-4.79171e-05
-0.000286848
-6.11298e-05
-0.000307196
-7.59578e-05
-0.000327988
-9.24683e-05
-0.000349313
-0.000110713
-0.000371316
-0.000130738
-0.000394193
-0.000152615
-0.000418187
-0.000176456
-0.000202377
-0.000443617
-7.91064e-07
4.50185e-06
-3.04455e-06
1.20249e-05
-6.70544e-06
1.84358e-05
-1.17174e-05
2.37529e-05
-1.8022e-05
2.80094e-05
-2.55593e-05
3.12536e-05
-3.42685e-05
3.3545e-05
-4.40878e-05
3.49497e-05
-5.4956e-05
3.55353e-05
-6.68119e-05
3.53643e-05
-7.95958e-05
3.44881e-05
-9.3249e-05
3.29415e-05
-0.000107715
3.07373e-05
-0.000122938
2.78633e-05
-0.000138866
2.42804e-05
-0.000155446
1.99234e-05
-0.000172627
1.47032e-05
-0.000190359
8.51144e-06
-0.000208595
1.2266e-06
-0.000227286
-7.27824e-06
-0.000246391
-1.71275e-05
-0.000265875
-2.84336e-05
-0.000285716
-4.12886e-05
-0.000305917
-5.57573e-05
-0.000326512
-7.1873e-05
-0.000347585
-8.96396e-05
-0.000369279
-0.000109044
-0.000391799
-0.000130094
-0.000415412
-0.000152844
-0.000177317
-0.000440472
-7.76504e-07
5.27835e-06
-2.99165e-06
1.424e-05
-6.59407e-06
2.20382e-05
-1.15306e-05
2.86894e-05
-1.77453e-05
3.42241e-05
-2.51802e-05
3.86885e-05
-3.37757e-05
4.21404e-05
-4.3471e-05
4.46451e-05
-5.4205e-05
4.62693e-05
-6.59167e-05
4.7076e-05
-7.85459e-05
4.71173e-05
-9.20335e-05
4.64291e-05
-0.000106322
4.5026e-05
-0.000121356
4.28972e-05
-0.000137081
4.00054e-05
-0.000153444
3.62862e-05
-0.000170392
3.16513e-05
-0.000187873
2.59923e-05
-0.000205834
1.91873e-05
-0.000224221
1.11093e-05
-0.000242984
1.63496e-06
-0.000262074
-9.34346e-06
-0.000281454
-2.19083e-05
-0.000301107
-3.61046e-05
-0.000321046
-5.19332e-05
-0.000341338
-6.93484e-05
-0.000362112
-8.82698e-05
-0.00038358
-0.000108626
-0.000406029
-0.000130395
-0.000153485
-0.00042986
-7.55056e-07
6.03341e-06
-2.91287e-06
1.63978e-05
-6.42668e-06
2.5552e-05
-1.12471e-05
3.35098e-05
-1.73214e-05
4.02984e-05
-2.45938e-05
4.59609e-05
-3.30063e-05
5.05529e-05
-4.24989e-05
5.41377e-05
-5.30107e-05
5.67812e-05
-6.44803e-05
5.85456e-05
-7.68467e-05
5.94837e-05
-9.00497e-05
5.96321e-05
-0.00010403
5.90066e-05
-0.000118731
5.75979e-05
-0.000134095
5.53697e-05
-0.000150067
5.22583e-05
-0.000166591
4.81752e-05
-0.00018361
4.30106e-05
-0.000201063
3.66404e-05
-0.000218888
2.89346e-05
-0.00023702
1.97676e-05
-0.000255395
9.03087e-06
-0.00027395
-3.35273e-06
-0.000292641
-1.74144e-05
-0.000311448
-3.31256e-05
-0.000330406
-5.03906e-05
-0.000349623
-6.9053e-05
-0.000369304
-8.89456e-05
-0.000389755
-0.000109944
-0.000131804
-0.000411436
-7.26941e-07
6.76035e-06
-2.80898e-06
1.84799e-05
-6.20472e-06
2.89477e-05
-1.08692e-05
3.81743e-05
-1.67533e-05
4.61824e-05
-2.38037e-05
5.30114e-05
-3.19641e-05
5.87133e-05
-4.11753e-05
6.33489e-05
-5.13763e-05
6.69822e-05
-6.2505e-05
6.96742e-05
-7.44987e-05
7.14774e-05
-8.72953e-05
7.24287e-05
-0.000100833
7.25447e-05
-0.000115052
7.18168e-05
-0.000129892
7.02095e-05
-0.000145293
6.76588e-05
-0.000161192
6.40749e-05
-0.000177527
5.93454e-05
-0.000194228
5.33414e-05
-0.00021122
4.59267e-05
-0.000228422
3.69688e-05
-0.000245743
2.63529e-05
-0.000263095
1.39993e-05
-0.000280393
-1.16728e-07
-0.000297575
-1.59439e-05
-0.000314626
-3.3339e-05
-0.000331617
-5.20621e-05
-0.000348734
-7.18283e-05
-0.000366298
-9.23805e-05
-0.00011327
-0.000384832
-6.92523e-07
7.45287e-06
-2.68123e-06
2.04686e-05
-5.93071e-06
3.21972e-05
-1.04009e-05
4.26445e-05
-1.60464e-05
5.18279e-05
-2.28168e-05
5.97818e-05
-3.06573e-05
6.65538e-05
-3.95093e-05
7.22009e-05
-4.93112e-05
7.67841e-05
-5.99995e-05
8.03626e-05
-7.15096e-05
8.29875e-05
-8.37763e-05
8.46954e-05
-9.67343e-05
8.55027e-05
-0.000110319
8.54013e-05
-0.000124464
8.43551e-05
-0.000139105
8.22994e-05
-0.000154172
7.91417e-05
-0.000169591
7.47648e-05
-0.000185283
6.9033e-05
-0.000201156
6.18002e-05
-0.000217109
5.29215e-05
-0.000233025
4.2269e-05
-0.000248778
2.97516e-05
-0.000264235
1.53409e-05
-0.000279279
-9.0051e-07
-0.00029383
-1.87878e-05
-0.000307897
-3.79944e-05
-0.000321633
-5.80929e-05
-0.000335358
-7.86557e-05
-9.89674e-05
-0.00034966
-6.52307e-07
8.10518e-06
-2.53139e-06
2.23477e-05
-5.60822e-06
3.5274e-05
-9.8479e-06
4.68842e-05
-1.52089e-05
5.71889e-05
-2.16435e-05
6.62164e-05
-2.90983e-05
7.40085e-05
-3.75148e-05
8.06174e-05
-4.68306e-05
8.60999e-05
-5.69801e-05
9.05121e-05
-6.78954e-05
9.39028e-05
-7.95072e-05
9.63072e-05
-9.17454e-05
9.77408e-05
-0.000104539
9.81947e-05
-0.000117815
9.76316e-05
-0.0001315
9.59845e-05
-0.000145515
9.31569e-05
-0.000159776
8.90252e-05
-0.000174187
8.34438e-05
-0.000188639
7.62529e-05
-0.000203008
6.72898e-05
-0.000217144
5.64055e-05
-0.00023088
4.34875e-05
-0.000244029
2.84899e-05
-0.000256402
1.14726e-05
-0.000267837
-7.35273e-06
-0.000278258
-2.75739e-05
-0.000287753
-4.85979e-05
-0.000296626
-6.97824e-05
-9.0087e-05
-0.000305506
-6.06931e-07
8.71211e-06
-2.3617e-06
2.41024e-05
-5.24183e-06
3.81542e-05
-9.21755e-06
5.08599e-05
-1.42511e-05
6.22225e-05
-2.02973e-05
7.22625e-05
-2.73035e-05
8.10148e-05
-3.52111e-05
8.8525e-05
-4.3956e-05
9.48448e-05
-5.34695e-05
0.000100026
-6.36795e-05
0.000104113
-7.45112e-05
0.000107139
-8.58878e-05
0.000109117
-9.77304e-05
0.000110037
-0.000109957
0.000109859
-0.000122484
0.000108511
-0.000135219
0.000105892
-0.000148064
0.00010187
-0.000160907
9.62864e-05
-0.000173617
8.89636e-05
-0.000186043
7.97156e-05
-0.000198002
6.83645e-05
-0.000209279
5.47643e-05
-0.000219626
3.88365e-05
-0.000228772
2.06191e-05
-0.000236453
3.2786e-07
-0.000242478
-2.15489e-05
-0.00024684
-4.4236e-05
-0.000249795
-6.68268e-05
-8.79307e-05
-0.000251951
-5.5716e-07
9.26927e-06
-2.17486e-06
2.57201e-05
-4.83704e-06
4.08164e-05
-8.51881e-06
5.45417e-05
-1.31859e-05
6.68896e-05
-1.87948e-05
7.78714e-05
-2.52936e-05
8.75136e-05
-3.26224e-05
9.58539e-05
-4.07146e-05
0.000102937
-4.94974e-05
0.000108808
-5.88932e-05
0.000113509
-6.88201e-05
0.000117066
-7.91927e-05
0.00011949
-8.9922e-05
0.000120766
-0.000100915
0.000120851
-0.000112073
0.000119669
-0.00012329
0.00011711
-0.00013445
0.00011303
-0.00014542
0.000107256
-0.000156046
9.95898e-05
-0.000166146
8.98154e-05
-0.0001755
7.77181e-05
-0.000183842
6.31069e-05
-0.00019086
4.58537e-05
-0.000196192
2.59511e-05
-0.000199456
3.59231e-06
-0.000200315
-2.06902e-05
-0.000198625
-4.59254e-05
-0.000194566
-7.08858e-05
-9.39068e-05
-0.00018859
-5.03869e-07
9.77314e-06
-1.97395e-06
2.71902e-05
-4.40019e-06
4.32426e-05
-7.76199e-06
5.79035e-05
-1.20278e-05
7.11554e-05
-1.71555e-05
8.29991e-05
-2.30926e-05
9.34506e-05
-2.97772e-05
0.000102539
-3.7139e-05
0.000110299
-4.50998e-05
0.000116769
-5.3575e-05
0.000121984
-6.24738e-05
0.000125965
-7.17001e-05
0.000128716
-8.11522e-05
0.000130219
-9.07226e-05
0.000130422
-0.000100296
0.000129243
-0.000109748
0.000126561
-0.00011894
0.000122222
-0.000127715
0.000116031
-0.000135891
0.000107766
-0.000143252
9.71768e-05
-0.000149538
8.40041e-05
-0.000154433
6.8001e-05
-0.000157552
4.89728e-05
-0.000158442
2.68413e-05
-0.000156591
1.74186e-06
-0.000151489
-2.57924e-05
-0.000142803
-5.46113e-05
-0.000130664
-8.30249e-05
-0.000109432
-0.00011514
-4.48025e-07
1.02212e-05
-1.76242e-06
2.85046e-05
-3.93832e-06
4.54185e-05
-6.95861e-06
6.09238e-05
-1.07936e-05
7.49904e-05
-1.54013e-05
8.76067e-05
-2.07277e-05
9.87771e-05
-2.67079e-05
0.000108519
-3.32665e-05
0.000116857
-4.03184e-05
0.000123821
-4.77701e-05
0.000129435
-5.55199e-05
0.000133715
-6.34586e-05
0.000136655
-7.14691e-05
0.000138229
-7.94258e-05
0.000138379
-8.71933e-05
0.00013701
-9.46233e-05
0.000133991
-0.000101551
0.00012915
-0.000107791
0.000122271
-0.000113128
0.000113103
-0.000117307
0.000101356
-0.000120025
8.67215e-05
-0.00012091
6.8886e-05
-0.00011951
4.75727e-05
-0.000115276
2.26072e-05
-0.000107567
-5.96738e-06
-9.56739e-05
-3.76851e-05
-7.89595e-05
-7.13256e-05
-5.75018e-05
-0.000104483
-0.000134602
-3.23309e-05
-3.90664e-07
1.06118e-05
-1.54392e-06
2.96579e-05
-3.45899e-06
4.73336e-05
-6.12103e-06
6.35858e-05
-9.50098e-06
7.83704e-05
-1.35558e-05
9.16615e-05
-1.82287e-05
0.00010345
-2.34502e-05
0.00011374
-2.91382e-05
0.000122545
-3.51993e-05
0.000129882
-4.1529e-05
0.000135765
-4.80124e-05
0.000140198
-5.45243e-05
0.000143167
-6.09291e-05
0.000144634
-6.70795e-05
0.000144529
-7.28151e-05
0.000142746
-7.79596e-05
0.000139136
-8.23167e-05
0.000133507
-8.56647e-05
0.000125619
-8.77488e-05
0.000115187
-8.82712e-05
0.000101879
-8.68781e-05
8.53284e-05
-8.31423e-05
6.51502e-05
-7.6542e-05
4.09725e-05
-6.64375e-05
1.25028e-05
-5.20578e-05
-2.03471e-05
-3.25187e-05
-5.72242e-05
-6.90264e-06
-9.69417e-05
2.58445e-05
-0.00013723
-0.000171354
6.25961e-05
-3.32862e-07
1.09447e-05
-1.32227e-06
3.06473e-05
-2.97006e-06
4.89813e-05
-5.26216e-06
6.58779e-05
-8.16863e-06
8.12768e-05
-1.16438e-05
9.51367e-05
-1.56268e-05
0.000107433
-2.00416e-05
0.000118155
-2.4798e-05
0.000127302
-2.97919e-05
0.000134876
-3.4906e-05
0.000140879
-4.00095e-05
0.000145301
-4.49584e-05
0.000148116
-4.95948e-05
0.00014927
-5.37457e-05
0.00014868
-5.72209e-05
0.000146221
-5.98102e-05
0.000141725
-6.1279e-05
0.000134976
-6.13628e-05
0.000125703
-5.97597e-05
0.000113584
-5.61204e-05
9.82393e-05
-5.00347e-05
7.92427e-05
-4.10138e-05
5.61293e-05
-2.84671e-05
2.84258e-05
-1.16701e-05
-4.29425e-06
1.02675e-05
-4.22847e-05
3.84208e-05
-8.53775e-05
7.39817e-05
-0.000132503
0.0001176
-0.000180848
-0.000223116
0.000169362
-2.75703e-07
1.12204e-05
-1.10132e-06
3.14729e-05
-2.47946e-06
5.03595e-05
-4.39502e-06
6.77935e-05
-6.8154e-06
8.36972e-05
-9.6906e-06
9.80119e-05
-1.29535e-05
0.000110696
-1.65202e-05
0.000121722
-2.02902e-05
0.000131072
-2.41467e-05
0.000138733
-2.79569e-05
0.000144689
-3.15715e-05
0.000148916
-3.48245e-05
0.000151369
-3.75319e-05
0.000151978
-3.94903e-05
0.000150638
-4.04745e-05
0.000147205
-4.02342e-05
0.000141485
-3.84891e-05
0.000133231
-3.49241e-05
0.000122138
-2.91807e-05
0.00010784
-2.08486e-05
8.99072e-05
-9.45226e-06
6.78464e-05
5.56557e-06
4.11115e-05
2.48693e-05
9.12199e-06
4.926e-05
-2.86849e-05
7.97265e-05
-7.27512e-05
0.0001175
-0.000123151
0.000163998
-0.000179001
0.000220433
-0.000237283
-0.000290087
0.000287405
-2.20241e-07
1.14406e-05
-8.84794e-07
3.21374e-05
-1.99488e-06
5.14696e-05
-3.53225e-06
6.93308e-05
-5.45956e-06
8.56245e-05
-7.72048e-06
0.000100273
-1.02398e-05
0.000113215
-1.29233e-05
0.000124405
-1.56583e-05
0.000133807
-1.83129e-05
0.000141387
-2.07362e-05
0.000147113
-2.27574e-05
0.000150937
-2.41849e-05
0.000152796
-2.48046e-05
0.000152597
-2.43781e-05
0.000150212
-2.26392e-05
0.000145466
-1.92907e-05
0.000138136
-1.39995e-05
0.00012794
-6.39017e-06
0.000114529
3.96163e-06
9.74885e-05
1.75389e-05
7.63299e-05
3.48933e-05
5.0492e-05
5.66613e-05
1.93436e-05
8.35838e-05
-1.78006e-05
0.00011654
-6.16412e-05
0.000156597
-0.000112808
0.000205094
-0.000171648
0.000263676
-0.000237583
0.000334009
-0.000307616
-0.000373497
0.000417419
-1.6746e-07
1.16081e-05
-6.76165e-07
3.26462e-05
-1.52346e-06
5.23169e-05
-2.68556e-06
7.04929e-05
-4.1181e-06
8.70571e-05
-5.75612e-06
0.000101911
-7.514e-06
0.000114973
-9.28526e-06
0.000126176
-1.09423e-05
0.000135464
-1.23357e-05
0.000142781
-1.32938e-05
0.000148071
-1.36207e-05
0.000151264
-1.30958e-05
0.000152271
-1.14704e-05
0.000150972
-8.46589e-06
0.000147207
-3.76948e-06
0.00014077
2.9698e-06
0.000131397
1.21466e-05
0.000118763
2.42051e-05
0.00010247
3.96466e-05
8.2047e-05
5.9037e-05
5.69396e-05
8.30169e-05
2.65121e-05
0.000112313
-9.95243e-06
0.000147753
-5.3241e-05
0.000190294
-0.000104182
0.000241063
-0.000163577
0.000301456
-0.000232042
0.00037327
-0.000309396
0.000458502
-0.000392848
-0.000474478
0.000559483
-1.18227e-07
1.17263e-05
-4.78483e-07
3.30064e-05
-1.07146e-06
5.29099e-05
-1.86518e-06
7.12866e-05
-2.80574e-06
8.79976e-05
-3.8171e-06
0.000102922
-4.80081e-06
0.000115957
-5.63552e-06
0.000127011
-6.17624e-06
0.000136004
-6.25327e-06
0.000142858
-5.67075e-06
0.000147488
-4.20485e-06
0.000149798
-1.60139e-06
0.000149668
2.4271e-06
0.000146944
8.20494e-06
0.000141429
1.60977e-05
0.000132877
2.65171e-05
0.000120978
3.99271e-05
0.000105353
5.685e-05
8.55474e-05
7.78737e-05
6.10233e-05
0.000103658
3.11548e-05
0.000134945
-4.77404e-06
0.00017256
-4.75676e-05
0.000217428
-9.81097e-05
0.000270586
-0.00015734
0.000333208
-0.000226199
0.000406696
-0.000305529
0.000492885
-0.000395585
0.000593941
-0.000493904
-0.000593925
0.000713388
-7.32505e-08
1.17996e-05
-2.94214e-07
3.32274e-05
-6.43881e-07
5.32595e-05
-1.07926e-06
7.1722e-05
-1.53414e-06
8.84525e-05
-1.91873e-06
0.000103307
-2.11909e-06
0.000116157
-1.99634e-06
0.000126888
-1.38527e-06
0.000135393
-9.27417e-08
0.000141565
2.10441e-06
0.000145291
5.46207e-06
0.000146441
1.02719e-05
0.000144858
1.68653e-05
0.00014035
2.56176e-05
0.000132677
3.69535e-05
0.000121541
5.13525e-05
0.000106579
6.93557e-05
8.73496e-05
9.15718e-05
6.33312e-05
0.000118684
3.3911e-05
0.000151456
-1.61718e-06
0.000190736
-4.40543e-05
0.000237461
-9.42924e-05
0.000292656
-0.000153304
0.000357436
-0.00022212
0.000433014
-0.000301778
0.000520748
-0.000393263
0.000622392
-0.00049723
0.000740058
-0.00061157
-0.000732379
0.000878512
-3.30251e-08
1.18326e-05
-1.25091e-07
3.33194e-05
-2.44169e-07
5.33786e-05
-3.33245e-07
7.18111e-05
-3.10859e-07
8.84301e-05
-7.06265e-08
0.000103067
5.19621e-07
0.000115567
1.61937e-06
0.000125789
3.41713e-06
0.000133596
6.13277e-06
0.00013885
1.00205e-05
0.000141403
1.53723e-05
0.000141089
2.25221e-05
0.000137708
3.185e-05
0.000131022
4.37885e-05
0.000120739
5.88276e-05
0.000106502
7.75217e-05
8.78846e-05
0.000100496
6.43754e-05
0.000128453
3.53743e-05
0.000162178
1.86143e-07
0.000202543
-4.19825e-05
0.000250509
-9.20204e-05
0.000307122
-0.000150905
0.000373503
-0.000219686
0.00045084
-0.000299456
0.000540364
-0.000391302
0.000643348
-0.000496247
0.000761344
-0.000615227
0.000896173
-0.000746399
-0.000889868
0.00105366
1.87814e-09
1.18307e-05
2.80131e-08
3.32933e-05
1.26147e-07
5.32805e-05
3.70643e-07
7.15666e-05
8.61288e-07
8.79395e-05
1.72409e-06
0.000102204
3.1127e-06
0.000114178
5.21022e-06
0.000123691
8.23184e-06
0.000130574
1.24279e-05
0.000134654
1.80877e-05
0.000135744
2.55438e-05
0.000133633
3.51771e-05
0.000128075
4.74227e-05
0.000118777
6.27756e-05
0.000105386
8.17978e-05
8.74799e-05
0.000105125
6.45576e-05
0.000133472
3.60278e-05
0.000167642
1.20468e-06
0.000208525
-4.06973e-05
0.000257104
-9.05614e-05
0.000314447
-0.000149364
0.0003817
-0.000218158
0.000460064
-0.00029805
0.000550771
-0.000390163
0.000655039
-0.000495569
0.00077401
-0.000615219
0.000908909
-0.000750125
0.00106107
-0.00089856
-0.00106576
0.00123696
3.23283e-08
1.17984e-05
1.65465e-07
3.31602e-05
4.67742e-07
5.29782e-05
1.03393e-06
7.10004e-05
1.98526e-06
8.69881e-05
3.47056e-06
0.000100718
5.66813e-06
0.000111981
8.78826e-06
0.000120571
1.30765e-05
0.000126286
1.88178e-05
0.000128912
2.63408e-05
0.00012822
3.60239e-05
0.00012395
4.83005e-05
0.000115798
6.36658e-05
0.000103411
8.26842e-05
8.63673e-05
0.000105995
6.41687e-05
0.000134322
3.62307e-05
0.000168476
1.87441e-06
0.000209359
-3.9679e-05
0.00025797
-8.93077e-05
0.000315393
-0.000147985
0.000382793
-0.000216764
0.000461392
-0.000296757
0.000552437
-0.000389095
0.000657153
-0.000494879
0.000776682
-0.000615098
0.000911984
-0.000750521
0.00106381
-0.00090195
0.00123288
-0.00106764
-0.00125848
0.00142561
5.76633e-08
1.17407e-05
2.88413e-07
3.29294e-05
7.83706e-07
5.24829e-05
1.66226e-06
7.01219e-05
3.07013e-06
8.55803e-05
5.18233e-06
9.86063e-05
8.20533e-06
0.000108958
1.23803e-05
0.000116396
1.79874e-05
0.000120679
2.53503e-05
0.000121549
3.48425e-05
0.000118728
4.6893e-05
0.000111899
6.19936e-05
0.000100698
8.07062e-05
8.46987e-05
0.00010367
6.34036e-05
0.000131608
3.62301e-05
0.000165336
2.50326e-06
0.000205761
-3.85508e-05
0.000253888
-8.78059e-05
0.000310812
-0.000146232
0.000377709
-0.000214881
0.000455811
-0.000294867
0.00054638
-0.000387325
0.000650651
-0.000493365
0.000769769
-0.000613997
0.000904706
-0.000750036
0.00105616
-0.000901978
0.00122428
-0.00107007
0.00140922
-0.00125257
-0.00146523
0.00161597
7.90508e-08
1.16617e-05
3.99483e-07
3.2609e-05
1.07967e-06
5.18027e-05
2.2656e-06
6.89359e-05
4.13152e-06
8.37143e-05
6.88218e-06
9.58556e-05
1.07559e-05
0.000105084
1.60289e-05
0.000111123
2.30202e-05
0.000113687
3.20974e-05
0.000112472
4.36837e-05
0.000107142
5.82649e-05
9.7318e-05
7.63971e-05
8.25656e-05
9.87146e-05
6.23812e-05
0.000125937
3.61809e-05
0.000158877
3.29073e-06
0.000198441
-3.70607e-05
0.000245634
-8.57439e-05
0.000301554
-0.000143726
0.000367379
-0.000212057
0.000444348
-0.00029185
0.000533725
-0.000384243
0.000636748
-0.000490348
0.000754563
-0.00061118
0.000888135
-0.000747569
0.00103815
-0.000900051
0.00120494
-0.00106877
0.00138792
-0.00125305
0.00158694
-0.0014516
-0.00168295
0.00180467
9.74004e-08
1.15643e-05
5.0242e-07
3.2204e-05
1.36382e-06
5.09413e-05
2.85826e-06
6.74415e-05
5.19164e-06
8.1381e-05
8.60208e-06
9.24452e-05
1.33638e-05
0.000100322
1.97923e-05
0.000104695
2.82502e-05
0.000105229
3.91544e-05
0.000101568
5.29835e-05
9.33129e-05
7.02859e-05
8.00157e-05
9.16879e-05
6.11635e-05
0.000117902
3.61673e-05
0.000149732
4.35054e-06
0.000188081
-3.50578e-05
0.000233947
-8.29269e-05
0.000288424
-0.000140221
0.000352688
-0.00020799
0.000427975
-0.000287343
0.000515543
-0.000379419
0.000616629
-0.000485329
0.000732372
-0.00060609
0.000863726
-0.000742534
0.00101136
-0.000895203
0.00117553
-0.00106422
0.00135607
-0.00124931
0.00155159
-0.00144857
0.00176189
-0.00166189
-0.00190636
0.0019853
1.14012e-07
1.14503e-05
6.02123e-07
3.17159e-05
1.64682e-06
4.98966e-05
3.45875e-06
6.56296e-05
6.27899e-06
7.85607e-05
1.03828e-05
8.83414e-05
1.60845e-05
9.46206e-05
2.37433e-05
9.70357e-05
3.37709e-05
9.52019e-05
4.66385e-05
8.87003e-05
6.28862e-05
7.70653e-05
8.31305e-05
5.97713e-05
0.000108074
3.62205e-05
0.000138509
5.73138e-06
0.00017533
-3.24696e-05
0.000219524
-7.92519e-05
0.000272176
-0.000135579
0.000334453
-0.000202499
0.000407583
-0.000281119
0.000492816
-0.000372576
0.000591377
-0.000477981
0.000704395
-0.000598347
0.00083281
-0.000734506
0.000977273
-0.000886997
0.00113802
-0.00105595
0.00131476
-0.00124096
0.00150665
-0.0014412
0.00171157
-0.00165349
0.00192937
-0.00187969
-0.00212943
0.00215244
1.30485e-07
1.13198e-05
7.04546e-07
3.11418e-05
1.94154e-06
4.86596e-05
4.08932e-06
6.34818e-05
7.42768e-06
7.52223e-05
1.22729e-05
8.34962e-05
1.89836e-05
8.79099e-05
2.79678e-05
8.80514e-05
3.9691e-05
8.34786e-05
5.46849e-05
7.37065e-05
7.35558e-05
5.81943e-05
9.69942e-05
3.63329e-05
0.000125781
7.43323e-06
0.000160796
-2.92829e-05
0.000203013
-7.46871e-05
0.000253505
-0.000129744
0.000313424
-0.000195499
0.000383985
-0.00027306
0.000466427
-0.000363561
0.000561961
-0.00046811
0.0006717
-0.00058772
0.000796571
-0.000723218
0.000937206
-0.000875141
0.00109383
-0.00104362
0.00126612
-0.00122824
0.00145314
-0.00142798
0.00165323
-0.00164129
0.00186376
-0.00186403
0.00208421
-0.00210014
-0.0023455
0.00230028
1.48666e-07
1.11711e-05
8.16516e-07
3.04739e-05
2.26266e-06
4.72135e-05
4.7753e-06
6.09692e-05
8.67639e-06
7.13213e-05
1.43271e-05
7.78454e-05
2.2135e-05
8.01021e-05
3.25614e-05
7.7625e-05
4.61311e-05
6.9909e-05
6.34409e-05
5.63967e-05
8.51691e-05
3.64661e-05
0.000112083
9.41886e-06
0.000145046
-2.55295e-05
0.000185018
-6.92545e-05
0.000233052
-0.000122722
0.000290288
-0.000186979
0.000357921
-0.000263132
0.000437176
-0.000352315
0.000529249
-0.000455634
0.000635239
-0.000574099
0.000756055
-0.000708536
0.000892315
-0.000859478
0.00104422
-0.00102705
0.00121146
-0.00121086
0.00139309
-0.00140987
0.00158746
-0.00162235
0.00179212
-0.00184595
0.00200426
-0.00207617
0.00222137
-0.00231726
-0.00254747
0.00242335
1.70576e-07
1.10005e-05
9.45489e-07
2.9699e-05
2.62619e-06
4.55328e-05
5.54419e-06
5.80512e-05
1.0067e-05
6.67985e-05
1.66046e-05
7.13078e-05
2.56176e-05
7.10891e-05
3.76256e-05
6.56169e-05
5.32174e-05
5.43172e-05
7.30595e-05
3.65545e-05
9.79054e-05
1.16202e-05
0.000128602
-2.12773e-05
0.00016609
-6.30184e-05
0.000211408
-0.000114572
0.000265672
-0.000176986
0.000330063
-0.00025137
0.000405787
-0.000338856
0.000494024
-0.000440552
0.000595859
-0.000557468
0.000712189
-0.000690429
0.00084362
-0.000839967
0.000990349
-0.00100621
0.00115205
-0.00118875
0.00132777
-0.00138658
0.00151589
-0.00159799
0.00171413
-0.00182059
0.00191946
-0.00205128
0.00212932
-0.00228602
0.0023374
-0.00252534
-0.00272896
0.00251888
1.98335e-07
1.08022e-05
1.09926e-06
2.87981e-05
3.04884e-06
4.35832e-05
6.42458e-06
5.46754e-05
1.16428e-05
6.15803e-05
1.91661e-05
6.37845e-05
2.95122e-05
6.07431e-05
4.32632e-05
5.18658e-05
6.1076e-05
3.65045e-05
8.36901e-05
1.39404e-05
0.000111936
-1.66254e-05
0.000146737
-5.60783e-05
0.000189109
-0.000105391
0.000240151
-0.000165614
0.000301024
-0.000237859
0.000372915
-0.000323261
0.00045699
-0.000422931
0.000554321
-0.000537883
0.000665798
-0.000668945
0.000792023
-0.000816654
0.000933192
-0.000981137
0.00108898
-0.001162
0.00125845
-0.00135822
0.00143998
-0.00156811
0.00163129
-0.00178929
0.00182951
-0.00201882
0.00203132
-0.00225309
0.00223433
-0.00248903
0.00243226
-0.00272327
-0.002941
0.0026443
2.34078e-07
1.05681e-05
1.28565e-06
2.77465e-05
3.54728e-06
4.13216e-05
7.44498e-06
5.07777e-05
1.34468e-05
5.55784e-05
2.20714e-05
5.51599e-05
3.38973e-05
4.89172e-05
4.95728e-05
3.61903e-05
6.98255e-05
1.62519e-05
9.54694e-05
-1.17036e-05
0.00012741
-4.85661e-05
0.000166643
-9.53115e-05
0.000214247
-0.000152994
0.000271361
-0.000222728
0.000339157
-0.000305655
0.000418786
-0.00040289
0.000511311
-0.000515456
0.000617621
-0.000644193
0.000738321
-0.000789645
0.00087362
-0.000951953
0.00102321
-0.00113073
0.00118618
-0.00132496
0.00136092
-0.00153297
0.00154518
-0.00175237
0.0017361
-0.00198021
0.0019304
-0.00221312
0.00212469
-0.00244738
0.00231602
-0.00268037
0.00250046
-0.00290771
-0.00312645
0.00268591
2.79851e-07
1.02883e-05
1.51216e-06
2.65142e-05
4.13752e-06
3.86962e-05
8.63252e-06
4.62827e-05
1.55197e-05
4.86912e-05
2.53766e-05
4.5303e-05
3.88456e-05
3.54482e-05
5.66435e-05
1.83924e-05
7.95699e-05
-6.67452e-06
0.000108512
-4.06458e-05
0.000144446
-8.44999e-05
0.000188429
-0.000139294
0.00024158
-0.000206146
0.000305055
-0.000286203
0.000379993
-0.000380592
0.000467451
-0.000490348
0.000568322
-0.000616327
0.000683225
-0.000759096
0.000812393
-0.000918813
0.000955553
-0.00109511
0.00111183
-0.001287
0.00127967
-0.00149281
0.00145686
-0.00171016
0.00164058
-0.00193609
0.00182756
-0.00216719
0.00201436
-0.00239992
0.00219766
-0.00263068
0.00237451
-0.00285722
0.00254232
-0.00307551
-0.00328719
0.00270306
3.37539e-07
9.95073e-06
1.78568e-06
2.50661e-05
4.83412e-06
3.56477e-05
1.00118e-05
4.1105e-05
1.78979e-05
4.08051e-05
2.91311e-05
3.40697e-05
4.44197e-05
2.01596e-05
6.45498e-05
-1.73769e-06
9.03918e-05
-3.25166e-05
0.000122902
-7.31561e-05
0.000163117
-0.000124715
0.000212138
-0.000188315
0.000271102
-0.000265111
0.00034114
-0.000356241
0.000423308
-0.00046276
0.000518506
-0.000585547
0.000627378
-0.000725199
0.000750191
-0.000881909
0.000886722
-0.00105534
0.00103616
-0.00124455
0.00119701
-0.00144786
0.00136714
-0.00166293
0.00154378
-0.0018868
0.00172372
-0.00211603
0.00190353
-0.002347
0.00207985
-0.00257623
0.0022497
-0.00280053
0.00241064
-0.00301816
0.00256095
-0.00322582
-0.00342798
0.00270174
4.08784e-07
9.54195e-06
2.11218e-06
2.33627e-05
5.64972e-06
3.21102e-05
1.1604e-05
3.51508e-05
2.06121e-05
3.1797e-05
3.33755e-05
2.13063e-05
5.06688e-05
2.86635e-06
7.33465e-05
-2.44154e-05
0.000102346
-6.15161e-05
0.000138684
-0.000109494
0.000183442
-0.000169473
0.000237744
-0.000242617
0.00030271
-0.000330077
0.000379399
-0.00043293
0.000468726
-0.000552087
0.000571363
-0.000688184
0.000687627
-0.000841463
0.000817359
-0.00101164
0.00095982
-0.00119781
0.00111362
-0.00139835
0.0012767
-0.00161094
0.00144637
-0.00183261
0.00161951
-0.00205993
0.00179272
-0.00228924
0.00196266
-0.00251694
0.00212631
-0.00273989
0.00228131
-0.00295553
0.00242594
-0.00316279
0.00255948
-0.00335936
-0.00355129
0.00268279
4.94938e-07
9.04701e-06
2.49657e-06
2.13611e-05
6.59447e-06
2.80123e-05
1.34255e-05
2.83197e-05
2.36857e-05
2.15368e-05
3.81394e-05
6.85265e-06
5.76262e-05
-1.66205e-05
8.30657e-05
-4.98549e-05
0.000115455
-9.39053e-05
0.000155858
-0.000149897
0.000205382
-0.000218998
0.000265142
-0.000302376
0.000336199
-0.000401134
0.000419489
-0.000516219
0.00051572
-0.000648318
0.000625265
-0.00079773
0.000748044
-0.000964242
0.000883412
-0.00114701
0.00103008
-0.00134448
0.00118611
-0.00155437
0.00134891
-0.00177374
0.00151544
-0.00199914
0.00168236
-0.00222686
0.00184636
-0.00245323
0.00200442
-0.002675
0.00215411
-0.00288957
0.00229379
-0.00309521
0.0024226
-0.0032916
0.00254072
-0.00347748
-0.00365971
0.00264913
5.97025e-07
8.44998e-06
2.94248e-06
1.90156e-05
7.67577e-06
2.3279e-05
1.54881e-05
2.05074e-05
2.71342e-05
9.89074e-06
4.34398e-05
-9.45297e-06
6.53069e-05
-3.84877e-05
9.37136e-05
-7.82615e-05
0.000129705
-0.000129897
0.000174375
-0.000194567
0.000228831
-0.000273454
0.000294141
-0.000367686
0.00037126
-0.000478254
0.000460942
-0.000605901
0.000563624
-0.000751
0.000679312
-0.000913419
0.000807473
-0.0010924
0.000946943
-0.00128648
0.0010959
-0.00149343
0.00125189
-0.00171036
0.00141195
-0.00193381
0.00157284
-0.00216002
0.00173124
-0.00238526
0.00188415
-0.00260614
0.00202908
-0.00281993
0.00216432
-0.00302481
0.00228902
-0.00321991
0.00240312
-0.0034057
0.00250753
-0.00358189
-0.00375559
0.00260342
7.15737e-07
7.73425e-06
3.45229e-06
1.62791e-05
8.89814e-06
1.78332e-05
1.77981e-05
1.16074e-05
3.09641e-05
-3.27526e-06
4.92808e-05
-2.77696e-05
7.37067e-05
-6.29136e-05
0.000105269
-0.000109824
0.000145046
-0.000169674
0.000194138
-0.000243659
0.00025362
-0.000332935
0.000324471
-0.000438537
0.000407489
-0.000561271
0.000503183
-0.000701595
0.000611658
-0.000859474
0.000732499
-0.00103426
0.000864684
-0.00122459
0.00100653
-0.00142833
0.00115573
-0.00164263
0.00130944
-0.00186407
0.00146447
-0.00208884
0.00161757
-0.00231312
0.00176569
-0.00253339
0.0019063
-0.00274675
0.00203759
-0.00295122
0.0021586
-0.00314582
0.00226924
-0.00333055
0.00237012
-0.00350659
0.00246267
-0.00367443
-0.00384108
0.00254815
8.51444e-07
6.8828e-06
4.02708e-06
1.31034e-05
1.02632e-05
1.15971e-05
2.03565e-05
1.51411e-06
3.51734e-05
-1.80922e-05
5.56527e-05
-4.82489e-05
8.28015e-05
-9.00625e-05
0.000117683
-0.000144705
0.000161389
-0.00021338
0.000214998
-0.000297269
0.000279516
-0.000397452
0.000355785
-0.000514806
0.000444392
-0.000649878
0.000545544
-0.000802747
0.000658959
-0.000972889
0.000783766
-0.00115907
0.000918447
-0.00135927
0.00106084
-0.00157072
0.00120824
-0.00179003
0.00135755
-0.00201338
0.00150555
-0.00223684
0.00164919
-0.00245675
0.00178584
-0.00267004
0.0019136
-0.00287451
0.00203137
-0.00306899
0.00213892
-0.00325337
0.00223679
-0.00342843
0.00232611
-0.0035959
0.00240858
-0.0037569
-0.00391801
0.00248551
1.00422e-06
5.87858e-06
4.66676e-06
9.44087e-06
1.17696e-05
4.49422e-06
2.31589e-05
-9.87517e-06
3.97514e-05
-3.46847e-05
6.25327e-05
-7.10303e-05
9.25479e-05
-0.000120078
0.000130879
-0.000183036
0.000178608
-0.000261109
0.00023676
-0.000355421
0.000306227
-0.00046692
0.00038767
-0.000596249
0.000481406
-0.000743613
0.000587291
-0.000908632