/*--------------------------------*- C++ -*----------------------------------*\
  =========                 |
  \\      /  F ield         | OpenFOAM: The Open Source CFD Toolbox
   \\    /   O peration     | Website:  https://openfoam.org
    \\  /    A nd           | Version:  7
     \\/     M anipulation  |
\*---------------------------------------------------------------------------*/
FoamFile
{
    version     2.0;
    format      ascii;
    class       volVectorField;
    location    "73";
    object      U;
}
// * * * * * * * * * * * * * * * * * * * * * * * * * * * * * * * * * * * * * //

dimensions      [0 1 -1 0 0 0 0];

internalField   nonuniform List<vector> 
40000
(
(-0.000202506 0.00133929 -2.23611e-21)
(-0.00121102 0.0030688 6.92921e-21)
(-0.00333542 0.00399183 -4.41772e-21)
(-0.00631548 0.00420802 -4.09265e-24)
(-0.0100082 0.00381888 -6.23099e-24)
(-0.0143179 0.00292458 2.95583e-24)
(-0.0191465 0.00162159 -7.34058e-21)
(-0.0243993 -5.96814e-07 1.74408e-21)
(-0.0299884 -0.00186241 -4.98693e-21)
(-0.035833 -0.00389675 -1.57488e-21)
(-0.0418585 -0.00605079 0)
(-0.0479966 -0.0082869 -5.67835e-21)
(-0.0541849 -0.0105827 0)
(-0.0603668 -0.0129301 0)
(-0.0664911 -0.0153335 -4.81204e-21)
(-0.0725117 -0.0178069 4.54615e-21)
(-0.0783877 -0.0203717 -2.1424e-21)
(-0.0840827 -0.0230529 -1.33616e-24)
(-0.0895654 -0.0258765 1.90312e-21)
(-0.0948097 -0.0288671 0)
(-0.0997953 -0.0320462 -1.68722e-21)
(-0.104509 -0.0354309 -4.77333e-21)
(-0.108944 -0.0390335 5.97565e-21)
(-0.113105 -0.0428625 -2.79863e-21)
(-0.117006 -0.0469232 7.89108e-21)
(-0.120675 -0.0512199 4.93668e-21)
(-0.124151 -0.0557573 -9.25188e-21)
(-0.127482 -0.060542 8.66418e-21)
(-0.130725 -0.0655854 -2.02167e-21)
(-0.133955 -0.0709108 -3.80779e-21)
(-0.000263333 0.00195764 0)
(-0.00136701 0.00474416 4.6483e-21)
(-0.00356986 0.00656988 8.87135e-21)
(-0.00661343 0.00755014 -8.4663e-21)
(-0.0103572 0.00779822 -4.05982e-21)
(-0.0147083 0.00742471 1.54497e-20)
(-0.0195711 0.00653638 -3.68899e-21)
(-0.0248528 0.0052327 -7.02299e-21)
(-0.0304677 0.00360272 -3.69928e-23)
(-0.0363366 0.00172258 -1.8994e-20)
(-0.0423862 -0.000346395 5.99626e-21)
(-0.0485493 -0.00255865 2.27645e-20)
(-0.0547642 -0.00488445 -1.07741e-20)
(-0.0609751 -0.00730893 -5.08066e-24)
(-0.0671311 -0.00983025 -4.85236e-21)
(-0.0731866 -0.012457 6.19043e-24)
(-0.0791008 -0.015205 0)
(-0.0848376 -0.0180946 0)
(-0.0903656 -0.0211468 1.53251e-20)
(-0.0956589 -0.0243812 0)
(-0.100697 -0.0278138 6.77885e-21)
(-0.105466 -0.0314553 -6.38747e-21)
(-0.109961 -0.0353111 1.29947e-23)
(-0.114186 -0.0393811 0)
(-0.118156 -0.0436615 1.05941e-20)
(-0.121899 -0.0481465 -9.88608e-21)
(-0.125457 -0.0528317 9.25192e-21)
(-0.128883 -0.0577173 -8.66421e-21)
(-0.132238 -0.0628112 8.12622e-21)
(-0.135598 -0.0681287 -2.29025e-20)
(-0.000355175 0.00257554 -9.01622e-21)
(-0.00160215 0.00641978 -9.2681e-21)
(-0.00391548 0.00915037 0)
(-0.00704155 0.010898 0)
(-0.0108442 0.0117875 0)
(-0.0152344 0.0119395 7.78774e-21)
(-0.0201201 0.0114708 0)
(-0.0254118 0.0104907 7.01395e-21)
(-0.0310266 0.00909767 1.33371e-20)
(-0.0368875 0.00737682 1.26676e-20)
(-0.0429233 0.00539801 0)
(-0.0490682 0.0032148 4.19929e-23)
(-0.0552618 0.000864371 -2.16691e-20)
(-0.0614492 -0.00163155 2.05093e-20)
(-0.0675802 -0.00426484 9.65977e-21)
(-0.0736095 -0.00703834 9.14951e-21)
(-0.0794965 -0.00996278 -8.62984e-21)
(-0.0852052 -0.0130534 1.63275e-20)
(-0.0907039 -0.0163266 -3.0718e-20)
(-0.0959661 -0.0197972 -2.89219e-23)
(-0.100971 -0.0234757 -2.72621e-20)
(-0.105703 -0.0273668 2.5678e-20)
(-0.110157 -0.0314687 0)
(-0.114334 -0.0357728 0)
(-0.118251 -0.0402653 1.06903e-20)
(-0.121935 -0.04493 0)
(-0.125431 -0.0497517 0)
(-0.128796 -0.0547232 0)
(-0.132094 -0.0598481 -1.63828e-20)
(-0.135405 -0.0651325 1.52689e-20)
(-0.00047756 0.00318648 9.01622e-21)
(-0.00191515 0.00807884 -1.44874e-23)
(-0.00437014 0.0117086 4.06866e-23)
(-0.00759684 0.014221 -1.70674e-20)
(-0.0114652 0.0157515 -1.62855e-20)
(-0.0158913 0.0164306 3.93226e-23)
(-0.0207878 0.0163845 -2.96506e-20)
(-0.0260694 0.015732 1.41297e-20)
(-0.0316568 0.0145806 -2.68694e-20)
(-0.0374761 0.0130243 2.55227e-20)
(-0.0434586 0.0111414 -1.20934e-20)
(-0.0495405 0.00899327 2.29798e-20)
(-0.0556631 0.00662471 2.16691e-20)
(-0.0617726 0.0040643 8.37329e-23)
(-0.0678196 0.00132647 -1.94768e-20)
(-0.0737593 -0.00158593 0)
(-0.0795513 -0.00467848 2.98271e-23)
(-0.0851591 -0.00796166 1.63983e-20)
(-0.0905509 -0.0114474 -2.6819e-23)
(-0.0956988 -0.015146 -3.94571e-23)
(-0.10058 -0.019063 2.73264e-20)
(-0.105179 -0.0231973 -2.5678e-20)
(-0.109486 -0.0275399 0)
(-0.113502 -0.0320736 2.27848e-20)
(-0.117239 -0.0367743 5.42348e-23)
(-0.120726 -0.0416134 -6.0055e-20)
(-0.124008 -0.0465638 1.87465e-20)
(-0.127149 -0.0516082 3.51986e-20)
(-0.13021 -0.0567438 1.63828e-20)
(-0.133282 -0.0619654 1.53757e-20)
(-0.000629446 0.00378394 3.63476e-20)
(-0.00230334 0.00970441 -1.87373e-20)
(-0.00492986 0.0142195 1.78953e-20)
(-0.00827421 0.0174879 1.71007e-20)
(-0.0122141 0.0196548 0)
(-0.016672 0.0208593 -3.12861e-20)
(-0.0215663 0.0212367 -1.49648e-20)
(-0.0268168 0.0209146 -2.83365e-20)
(-0.0323485 0.0200091 1.34176e-20)
(-0.0380914 0.0186227 1.03813e-22)
(-0.0439798 0.0168417 2.43204e-20)
(-0.0499524 0.0147357 2.31212e-20)
(-0.0559525 0.0123566 -4.36003e-20)
(-0.0619276 0.00973998 2.07113e-20)
(-0.0678294 0.00690642 -8.53816e-23)
(-0.0736135 0.00386443 0)
(-0.0792396 0.000613455 -1.73815e-20)
(-0.084671 -0.00285252 -3.29564e-20)
(-0.0898747 -0.0065413 4.6586e-20)
(-0.0948215 -0.010459 1.46862e-20)
(-0.0994867 -0.0146068 0)
(-0.103851 -0.0189783 -2.59401e-20)
(-0.107901 -0.0235578 0)
(-0.111635 -0.0283193 -6.85386e-20)
(-0.115061 -0.0332273 4.28806e-20)
(-0.118205 -0.03824 -5.45997e-23)
(-0.121115 -0.043315 3.77925e-20)
(-0.123857 -0.0484222 -5.28369e-20)
(-0.126491 -0.0535476 3.31265e-20)
(-0.12912 -0.0586717 1.54705e-20)
(-0.000809224 0.00436148 -1.82077e-20)
(-0.00276266 0.0112797 1.87595e-20)
(-0.00558879 0.0166584 -2.38206e-23)
(-0.0090665 0.0206678 -5.16801e-20)
(-0.0130829 0.0234617 0)
(-0.0175676 0.0251868 3.12861e-20)
(-0.0224459 0.0259865 -3.00197e-20)
(-0.0276435 0.0259961 5.67847e-20)
(-0.0330905 0.0253402 0)
(-0.0387212 0.0241289 -2.56265e-20)
(-0.0444734 0.0224566 -2.43204e-20)
(-0.050289 0.0204003 -2.30605e-20)
(-0.0561133 0.0180193 -6.57972e-20)
(-0.0618955 0.0153559 3.12231e-23)
(-0.0675883 0.0124367 -5.66808e-23)
(-0.0731481 0.00927589 -2.49162e-23)
(-0.0785344 0.00587759 5.25787e-20)
(-0.0837099 0.00224001 -1.60494e-22)
(-0.0886405 -0.00164098 1.54901e-22)
(-0.0932948 -0.00576793 -2.92223e-20)
(-0.0976453 -0.0101383 -8.78843e-23)
(-0.101669 -0.0147412 5.19571e-20)
(-0.105347 -0.0195547 -7.34783e-20)
(-0.108673 -0.0245442 2.29069e-20)
(-0.11165 -0.0296624 0)
(-0.114298 -0.034852 0)
(-0.116666 -0.0400526 -3.77923e-20)
(-0.118826 -0.0452158 3.55812e-20)
(-0.120827 -0.0503104 -3.31093e-20)
(-0.122793 -0.0552967 0)
(-0.00101474 0.0049129 -1.83535e-20)
(-0.00328775 0.0127887 0)
(-0.00633934 0.0190013 1.80355e-20)
(-0.00996458 0.0237307 1.03739e-19)
(-0.0140613 0.0271376 -3.29832e-20)
(-0.0185672 0.029375 0)
(-0.0234151 0.0305931 -1.34777e-22)
(-0.0285374 0.0309346 2.85751e-20)
(-0.0338699 0.0305308 -2.71337e-20)
(-0.0393518 0.0294997 0)
(-0.0449249 0.0279428 0)
(-0.0505342 0.0259445 -4.65328e-20)
(-0.0561277 0.0235711 6.58966e-20)
(-0.0616563 0.0208713 -2.08067e-20)
(-0.0670739 0.0178779 0)
(-0.0723374 0.0146103 3.7264e-20)
(-0.0774063 0.0110772 -3.50385e-20)
(-0.0822423 0.00728073 3.31627e-20)
(-0.0868098 0.00321985 -6.25211e-20)
(-0.0910752 -0.00110516 -8.86051e-20)
(-0.0950071 -0.00568888 2.77153e-20)
(-0.0985775 -0.0105168 2.61583e-20)
(-0.101763 -0.0155617 2.4461e-20)
(-0.104548 -0.020781 0)
(-0.106928 -0.0261155 -4.34816e-20)
(-0.108918 -0.0314903 0)
(-0.110565 -0.0368229 0)
(-0.111945 -0.0420407 -7.13566e-20)
(-0.113093 -0.0470857 -1.12025e-22)
(-0.11415 -0.0518883 -9.38952e-20)
(-0.00124336 0.00543236 1.83535e-20)
(-0.00387203 0.0142158 3.80405e-20)
(-0.0071723 0.0212253 3.64206e-20)
(-0.0109575 0.0266477 -3.46506e-20)
(-0.0151372 0.0306488 0)
(-0.0196581 0.0333867 0)
(-0.0244608 0.035017 3.00722e-20)
(-0.029485 0.0356883 -2.8706e-20)
(-0.0346728 0.0355384 -8.32473e-23)
(-0.0399686 0.0346919 5.19444e-20)
(-0.0453186 0.0332571 0)
(-0.0506712 0.0313253 4.65326e-20)
(-0.055977 0.0289693 0)
(-0.061189 0.0262444 0)
(-0.0662622 0.0231892 6.7721e-23)
(-0.071154 0.0198281 3.73902e-20)
(-0.0758235 0.0161742 -3.5374e-20)
(-0.0802316 0.012233 6.67931e-20)
(-0.0843407 0.00800618 -3.1494e-20)
(-0.0881141 0.00349608 8.88153e-20)
(-0.0915166 -0.00129001 0)
(-0.0945144 -0.0063352 0)
(-0.097077 -0.0116084 4.95823e-20)
(-0.0991797 -0.0170601 0)
(-0.100809 -0.0226192 4.33562e-20)
(-0.101968 -0.0281924 -4.08948e-20)
(-0.1027 -0.0336705 3.83025e-20)
(-0.103088 -0.0389483 -3.59603e-20)
(-0.103143 -0.0439287 6.70315e-20)
(-0.103016 -0.0484974 9.40377e-20)
(-0.001492 0.00591456 0)
(-0.00450786 0.0155472 -3.80405e-20)
(-0.00807702 0.023309 1.88968e-22)
(-0.0120328 0.0293916 0)
(-0.0162971 0.0339636 -6.67699e-20)
(-0.0208259 0.0371864 -4.54181e-23)
(-0.0255682 0.0392197 3.02646e-20)
(-0.0304713 0.0402169 0)
(-0.0354839 0.0403211 2.73411e-20)
(-0.0405558 0.0396626 -5.19442e-20)
(-0.0456377 0.0383561 0)
(-0.0506818 0.036499 0)
(-0.0556414 0.0341707 -4.44366e-20)
(-0.0604713 0.0314325 4.20102e-20)
(-0.0651278 0.0283285 -3.96797e-20)
(-0.0695685 0.0248881 0)
(-0.073752 0.0211285 -3.56804e-20)
(-0.0776381 0.0170583 -1.00527e-19)
(-0.0811867 0.0126813 -4.83203e-23)
(-0.084358 0.00800119 -4.25754e-23)
(-0.0871118 0.00302596 2.80705e-20)
(-0.0894081 -0.00222656 5.28986e-20)
(-0.0912081 -0.0077231 -9.92781e-20)
(-0.0924768 -0.013409 4.6847e-20)
(-0.0931878 -0.0192025 -1.21561e-22)
(-0.0933321 -0.0249913 1.25383e-23)
(-0.0929443 -0.0306354 2.82342e-23)
(-0.0921117 -0.035988 3.60842e-20)
(-0.0908151 -0.0408965 0)
(-0.0891891 -0.0451799 0)
(-0.00175722 0.00635481 3.72524e-20)
(-0.00518672 0.0167701 1.57515e-22)
(-0.00904168 0.0252334 1.9704e-22)
(-0.0131764 0.0319375 -7.02942e-20)
(-0.0175258 0.0370523 6.68898e-20)
(-0.0220549 0.0407406 0)
(-0.0267214 0.0431647 0)
(-0.0314803 0.0444813 5.7967e-20)
(-0.0362868 0.0448379 -5.50429e-20)
(-0.0410964 0.0443695 9.5163e-23)
(-0.0458646 0.0431964 9.94008e-20)
(-0.050547 0.0414219 4.71236e-20)
(-0.0550998 0.0391313 -8.92416e-20)
(-0.0594797 0.0363914 4.2216e-20)
(-0.0636437 0.033252 4.00067e-20)
(-0.0675496 0.0297471 -3.77626e-20)
(-0.0711552 0.025898 7.12343e-20)
(-0.0744187 0.0217158 1.01339e-19)
(-0.0772972 0.0172063 6.38292e-20)
(-0.0797471 0.0123736 3.00499e-20)
(-0.081723 0.00722536 -5.64452e-20)
(-0.0831779 0.00177878 0)
(-0.0840637 -0.00393278 1.22388e-22)
(-0.0843339 -0.00985198 4.72255e-20)
(-0.0839477 -0.0158889 4.40943e-20)
(-0.0828789 -0.0219126 -8.29489e-20)
(-0.0811489 -0.0277507 -3.87526e-20)
(-0.0788505 -0.0332041 7.26995e-20)
(-0.0759304 -0.0380461 0)
(-0.0724366 -0.0419999 -6.34988e-20)
(-0.00203532 0.0067492 3.74232e-20)
(-0.00589941 0.0178738 -7.70499e-20)
(-0.0100535 0.0269814 6.66048e-23)
(-0.0143735 0.0342633 -1.90633e-22)
(-0.0188071 0.0398882 0)
(-0.0233282 0.0440186 0)
(-0.0279032 0.0468178 0)
(-0.0324945 0.0484445 -5.82571e-20)
(-0.037064 0.0490494 5.53183e-20)
(-0.0415726 0.0487714 -5.24491e-20)
(-0.0459805 0.0477356 -9.97136e-20)
(-0.0502468 0.0460503 -6.82194e-23)
(-0.0543302 0.0438063 8.97591e-20)
(-0.0581891 0.0410762 4.25643e-20)
(-0.0617812 0.0379146 0)
(-0.0650639 0.0343603 -7.61619e-20)
(-0.0679939 0.0304382 1.07885e-19)
(-0.0705268 0.0261624 -1.01456e-19)
(-0.072617 0.0215396 -6.38916e-20)
(-0.0742161 0.0165741 -1.81014e-19)
(-0.0752732 0.0112723 -8.2062e-23)
(-0.0757334 0.0056492 -6.48835e-23)
(-0.0755389 -0.000264126 1.11746e-22)
(-0.0746306 -0.00641072 -9.43568e-20)
(-0.0729515 -0.0126959 1.33265e-19)
(-0.0704556 -0.018974 -4.49004e-22)
(-0.0671446 -0.0250388 0)
(-0.0631177 -0.03063 -7.26981e-20)
(-0.0582965 -0.0354297 6.82501e-20)
(-0.0524956 -0.0390305 6.35635e-20)
(-0.00232244 0.00709462 0)
(-0.00663631 0.0188495 -3.88156e-20)
(-0.0110992 0.0285391 3.70833e-20)
(-0.0156084 0.0363501 7.08625e-20)
(-0.0201239 0.0424476 3.39192e-20)
(-0.0246282 0.0469926 -6.45254e-20)
(-0.0290955 0.0501475 -1.26891e-22)
(-0.0334957 0.0520718 -5.8485e-20)
(-0.0377969 0.0529181 0)
(-0.0419654 0.0528285 5.29747e-20)
(-0.0459654 0.0519316 0)
(-0.0497596 0.0503406 0)
(-0.053309 0.0481513 -9.01259e-20)
(-0.0565731 0.0454411 -8.52682e-20)
(-0.0595098 0.0422699 1.21288e-19)
(-0.0620757 0.0386809 7.61612e-20)
(-0.0642256 0.0347026 2.4666e-22)
(-0.0659124 0.0303517 -6.80585e-20)
(-0.0670861 0.0256363 1.28443e-19)
(-0.0676936 0.0205602 3.08313e-24)
(-0.0676773 0.0151278 1.14298e-19)
(-0.0669741 0.00935061 0)
(-0.065516 0.00325524 0)
(-0.0632304 -0.00310524 9.52502e-20)
(-0.0600437 -0.00963639 -1.33502e-19)
(-0.0558872 -0.0161825 1.25186e-19)
(-0.0507358 -0.0225065 -7.84797e-20)
(-0.0446978 -0.0282831 7.34046e-20)
(-0.0377138 -0.0330839 -1.36797e-19)
(-0.0290941 -0.0363102 6.39217e-20)
(-0.00261469 0.00738891 -3.79964e-20)
(-0.00738762 0.0196907 0)
(-0.0121651 0.0298953 0)
(-0.0168649 0.038182 -7.1535e-20)
(-0.0214587 0.0447106 1.36391e-19)
(-0.0259364 0.0496383 -6.48742e-20)
(-0.0302796 0.0531256 -1.93696e-22)
(-0.0344648 0.0553315 5.87895e-20)
(-0.0384661 0.0564091 0)
(-0.0422544 0.0565027 1.65385e-22)
(-0.0457982 0.0557441 6.54563e-23)
(-0.0490627 0.0542503 -9.55834e-20)
(-0.0520109 0.0521215 -3.65418e-22)
(-0.054603 0.04944 -4.29144e-20)
(-0.0567965 0.0462706 -1.21751e-19)
(-0.0585464 0.0426606 7.67987e-20)
(-0.0598049 0.0386423 -7.24364e-20)
(-0.0605209 0.034235 1.37158e-19)
(-0.0606398 0.0294483 -1.29306e-19)
(-0.060102 0.0242855 -1.21828e-19)
(-0.0588426 0.0187488 1.8994e-22)
(-0.05679 0.0128452 -5.39913e-20)
(-0.0538648 0.00659498 5.08374e-20)
(-0.0499812 4.39808e-05 5.15373e-22)
(-0.0450484 -0.00671909 -1.3467e-19)
(-0.0389746 -0.013536 -8.42284e-20)
(-0.0317001 -0.0201458 1.57325e-19)
(-0.0233348 -0.0261658 -1.47125e-19)
(-0.0139305 -0.0310382 6.8547e-20)
(-0.00203707 -0.0337166 -1.3848e-22)
(-0.00290823 0.00763086 1.14255e-19)
(-0.00814365 0.0203931 -3.9214e-20)
(-0.0132375 0.0310422 -7.51269e-20)
(-0.018127 0.0397474 2.15173e-19)
(-0.0227936 0.046661 3.78249e-22)
(-0.0272339 0.0519355 0)
(-0.0314358 0.0557277 0)
(-0.0353817 0.0581949 5.91559e-20)
(-0.0390508 0.0594901 -5.60587e-20)
(-0.0424183 0.0597585 5.33442e-20)
(-0.0454558 0.0591343 -5.06805e-20)
(-0.0481311 0.0577378 -9.63477e-20)
(-0.0504083 0.0556732 1.818e-19)
(-0.0522476 0.0530271 -4.30524e-20)
(-0.0536053 0.0498687 8.12211e-20)
(-0.054434 0.0462499 -1.542e-19)
(-0.0546821 0.0422066 -1.36546e-22)
(-0.0542936 0.0377611 1.00317e-22)
(-0.0532076 0.0329244 1.29741e-19)
(-0.0513573 0.0277 -9.34002e-23)
(-0.0486691 0.0220878 0)
(-0.0450615 0.0160902 0)
(-0.0404439 0.00972021 -5.13008e-20)
(-0.0347166 0.0030135 -1.91705e-19)
(-0.0277725 -0.00395241 1.34891e-19)
(-0.019497 -0.0110256 -3.91789e-22)
(-0.00979571 -0.0179334 -1.58034e-19)
(0.00124693 -0.0242565 1.47477e-19)
(0.0134952 -0.0293291 -6.90741e-20)
(0.0288729 -0.0312267 6.40248e-20)
(-0.00319941 0.00782023 0)
(-0.00889503 0.0209549 0)
(-0.0143033 0.0319752 7.57484e-20)
(-0.0193786 0.041038 -1.44118e-19)
(-0.0241109 0.0482868 1.59077e-22)
(-0.0285016 0.0538677 -6.56415e-20)
(-0.032544 0.0579331 1.87597e-19)
(-0.0362254 0.0606373 -1.78452e-19)
(-0.0395289 0.0621322 1.79623e-24)
(-0.0424334 0.0625633 -5.36123e-20)
(-0.0449131 0.0620662 -1.52964e-19)
(-0.0469373 0.060764 1.44508e-19)
(-0.0484705 0.0587641 0)
(-0.049472 0.0561574 0)
(-0.0498962 0.0530172 8.17279e-20)
(-0.0496919 0.0493997 1.55161e-19)
(-0.0488025 0.0453446 -7.3125e-20)
(-0.0471658 0.0408775 0)
(-0.044713 0.0360114 -6.52837e-20)
(-0.0413683 0.0307505 -1.11175e-22)
(-0.0370483 0.0250933 -5.82599e-20)
(-0.0316602 0.0190381 0)
(-0.0251011 0.0125904 -5.18022e-20)
(-0.0172579 0.0057745 4.81989e-20)
(-0.00800751 -0.00134741 -9.0458e-20)
(0.00278565 -0.00863873 2.54185e-19)
(0.0152418 -0.0158336 -2.39412e-22)
(0.02928 -0.0225052 7.42698e-20)
(0.0449051 -0.0278169 0)
(0.0641918 -0.0290474 -6.48038e-20)
(-0.00348489 0.00795777 -7.72343e-20)
(-0.00963302 0.0213766 7.93993e-20)
(-0.0153498 0.0326931 2.51119e-22)
(-0.0206043 0.0420498 -7.25292e-20)
(-0.0253928 0.0495802 0)
(-0.0297202 0.0554231 -1.32142e-19)
(-0.0335834 0.0597255 1.42795e-22)
(-0.0369734 0.0626381 5.94563e-20)
(-0.0398765 0.0643105 -2.84979e-24)
(-0.042274 0.064888 -5.04275e-23)
(-0.0441418 0.0645069 1.53151e-19)
(-0.04545 0.0632923 4.85141e-20)
(-0.0461624 0.0613546 4.61678e-20)
(-0.0462366 0.0587883 -8.70397e-20)
(-0.0456234 0.0556706 8.22205e-20)
(-0.044267 0.0520619 -7.76307e-20)
(-0.0421043 0.0480061 7.35847e-20)
(-0.0390649 0.043532 -6.93545e-20)
(-0.0350707 0.0386558 0)
(-0.0300351 0.0333828 -6.19706e-20)
(-0.0238626 0.0277115 1.16254e-19)
(-0.0164479 0.0216373 5.50585e-20)
(-0.00767449 0.0151596 -5.1983e-20)
(0.0025843 0.00829143 1.93861e-19)
(0.014466 0.00107783 -4.54383e-20)
(0.0281241 -0.00636744 8.52932e-20)
(0.0437012 -0.013803 -7.95222e-20)
(0.0611211 -0.0208076 2.41188e-22)
(0.080475 -0.0263694 0)
(0.104356 -0.0271916 -1.28584e-19)
(-0.0037617 0.00804513 -2.08144e-22)
(-0.0103497 0.0216609 -7.98904e-20)
(-0.0163654 0.0331978 0)
(-0.0217893 0.0427824 -7.31812e-20)
(-0.0266222 0.0505376 6.9626e-20)
(-0.0308701 0.0565942 -1.59716e-22)
(-0.0345323 0.0610932 0)
(-0.0376019 0.0641809 -1.71236e-22)
(-0.0400673 0.0660044 -5.69495e-20)
(-0.0419111 0.0667077 5.41418e-20)
(-0.0431098 0.0664275 0)
(-0.0436331 0.0652901 -9.74658e-20)
(-0.0434432 0.0634086 9.26212e-20)
(-0.0424946 0.0608804 0)
(-0.0407335 0.0577866 0)
(-0.0380977 0.0541918 0)
(-0.0345159 0.0501437 0)
(-0.0299081 0.0456754 6.97684e-20)
(-0.0241845 0.0408063 -6.57115e-20)
(-0.0172458 0.0355443 1.85869e-19)
(-0.00898249 0.0298892 -1.16867e-19)
(0.000725378 0.0238356 -1.09883e-19)
(0.0120087 0.017379 1.54992e-19)
(0.0250084 0.0105234 3.45506e-22)
(0.039875 0.00329771 -9.13507e-20)
(0.0567748 -0.00421127 -8.52901e-20)
(0.075871 -0.0118 -7.99955e-20)
(0.0970913 -0.0190813 1.49313e-19)
(0.120504 -0.0249652 -1.38966e-19)
(0.14966 -0.0254293 2.57067e-19)
(-0.00402738 0.0080848 1.56328e-19)
(-0.011038 0.021813 -2.20446e-22)
(-0.0173393 0.0334944 -1.53934e-19)
(-0.0229198 0.0432395 1.46778e-19)
(-0.0277819 0.0511598 -7.0185e-20)
(-0.0319314 0.0573783 -6.66947e-20)
(-0.0353677 0.0620293 6.34527e-20)
(-0.038085 0.0652546 6.03595e-20)
(-0.0400721 0.0671982 -1.14779e-19)
(-0.0413117 0.0680024 -1.6352e-19)
(-0.0417797 0.0678039 -5.16764e-20)
(-0.0414442 0.0667297 1.95683e-19)
(-0.0402644 0.0648948 -2.77811e-19)
(-0.0381906 0.0623995 8.76582e-20)
(-0.0351627 0.0593284 0)
(-0.0311104 0.0557498 0)
(-0.0259529 0.051716 0)
(-0.0195979 0.0472642 1.40108e-19)
(-0.0119426 0.0424178 -6.5954e-20)
(-0.00287239 0.0371887 -6.23899e-20)
(0.00773808 0.0315793 -1.17278e-19)
(0.0200251 0.025586 1.10396e-19)
(0.0341352 0.0192032 -5.18875e-20)
(0.0502237 0.01243 -9.75174e-20)
(0.0684518 0.00528254 -1.58831e-22)
(0.088993 -0.00217824 -1.71344e-19)
(0.112025 -0.00979315 2.40131e-19)
(0.137482 -0.0172429 -2.24195e-19)
(0.165268 -0.0234861 6.99156e-20)
(0.200377 -0.0235759 -6.38038e-20)
(-0.00427997 0.00808002 -7.84075e-20)
(-0.0116921 0.0218394 8.06544e-20)
(-0.0182619 0.0335907 7.70903e-20)
(-0.0239825 0.0434277 -2.21425e-19)
(-0.0288552 0.0514515 7.01696e-20)
(-0.0328834 0.0577767 6.70302e-20)
(-0.0360653 0.0625315 0)
(-0.0383939 0.0658529 0)
(-0.0398574 0.0678815 5.74647e-20)
(-0.0404372 0.0687579 1.09083e-19)
(-0.0401071 0.0686179 -2.07618e-19)
(-0.0388323 0.0675893 -2.33148e-22)
(-0.0365676 0.0657884 0)
(-0.0332573 0.0633181 0)
(-0.0288337 0.0602661 -8.33364e-20)
(-0.0232166 0.0567046 -1.15076e-22)
(-0.0163133 0.0526901 7.43006e-20)
(-0.00801806 0.0482644 -7.00808e-20)
(0.00178763 0.0434558 -1.32642e-19)
(0.0132351 0.038281 1.24681e-19)
(0.0264673 0.032747 5.8858e-20)
(0.0416383 0.026854 -1.66186e-19)
(0.0589107 0.0205991 -1.04133e-19)
(0.0784531 0.0139807 9.76674e-20)
(0.100435 0.0070082 9.17369e-20)
(0.125029 -0.000277346 8.57743e-20)
(0.152417 -0.0077591 0)
(0.182548 -0.0152045 0)
(0.214981 -0.0217775 1.39135e-19)
(0.256713 -0.0214429 0)
(-0.00451807 0.0080346 7.93807e-20)
(-0.0123072 0.0217485 -8.13891e-20)
(-0.0191249 0.0334966 1.55746e-19)
(-0.0249649 0.0433573 -4.16495e-22)
(-0.0298252 0.051421 0)
(-0.0337046 0.0577953 0)
(-0.0365981 0.0626025 0)
(-0.0384963 0.0659748 -6.09416e-20)
(-0.0393848 0.0680498 5.78669e-20)
(-0.0392422 0.0689659 0)
(-0.0380392 0.0688583 1.039e-19)
(-0.035736 0.0678547 9.86063e-20)
(-0.0322817 0.0660728 -9.36384e-20)
(-0.0276128 0.0636176 8.83344e-20)
(-0.021652 0.0605799 -8.25735e-23)
(-0.0143077 0.0570353 -7.8925e-20)
(-0.00547331 0.0530451 -7.46921e-20)
(0.00497234 0.0486558 2.11448e-19)
(0.0171651 0.0439012 6.62786e-20)
(0.0312545 0.038804 -1.25342e-19)
(0.0474023 0.0333771 -5.89997e-20)
(0.0657801 0.0276269 5.5232e-20)
(0.0865658 0.0215562 0)
(0.109939 0.0151677 -9.8039e-20)
(0.136072 0.00847071 -9.19117e-20)
(0.165126 0.00149527 0)
(0.197268 -0.00567404 8.00983e-20)
(0.23249 -0.0128831 -1.50113e-19)
(0.269762 -0.0196869 -2.08958e-19)
(0.31873 -0.0188184 0)
(-0.00474082 0.00795279 -1.59004e-19)
(-0.0128795 0.0215499 8.21086e-20)
(-0.0199206 0.0332244 -1.56429e-19)
(-0.025855 0.0430406 -4.16978e-22)
(-0.0306745 0.0510801 0)
(-0.0343716 0.0574441 0)
(-0.0369363 0.0622496 6.45944e-20)
(-0.038355 0.0656248 1.22749e-19)
(-0.0386092 0.0677046 0)
(-0.0376733 0.0686253 0)
(-0.0355125 0.0685211 -2.09307e-19)
(-0.032081 0.0675201 9.92234e-20)
(-0.0273203 0.0657407 -1.47795e-22)
(-0.021157 0.06329 0)
(-0.0135026 0.0602616 -1.7356e-22)
(-0.0042517 0.056735 7.91653e-20)
(0.0067175 0.0527758 -2.34291e-22)
(0.0195436 0.048436 -2.82212e-19)
(0.0343808 0.0437556 -6.65219e-20)
(0.0513978 0.0387637 1.25338e-19)
(0.0707745 0.0334811 1.18216e-19)
(0.0926988 0.0279223 -4.45261e-23)
(0.11736 0.0220983 1.04544e-19)
(0.144943 0.0160199 1.9616e-19)
(0.175615 0.00970277 9.19075e-20)
(0.209512 0.00317522 8.6026e-20)
(0.24676 -0.00349713 8.00777e-20)
(0.287423 -0.0101957 1.49107e-19)
(0.329616 -0.017072 -1.07843e-21)
(0.386285 -0.0154821 6.24369e-20)
(-0.00494792 0.0078391 1.60461e-19)
(-0.013406 0.0212535 -2.47057e-19)
(-0.0206422 0.0327872 1.57332e-19)
(-0.0266406 0.0424923 1.50112e-19)
(-0.0313847 0.0504433 7.15148e-20)
(-0.0348588 0.0567363 -2.8855e-23)
(-0.0370461 0.0614846 -6.44499e-20)
(-0.0379272 0.064813 -1.22748e-19)
(-0.0374779 0.0668539 2.72341e-22)
(-0.0356664 0.0677422 2.21514e-19)
(-0.0324511 0.0676113 -1.05367e-19)
(-0.027778 0.0665894 1.98955e-19)
(-0.0215788 0.064796 2.52909e-23)
(-0.0137687 0.06234 -1.77903e-19)
(-0.00424567 0.0593179 -1.34213e-22)
(0.00711103 0.0558131 0)
(0.0204405 0.051896 3.74864e-19)
(0.0358996 0.0476245 7.06193e-20)
(0.0536618 0.0430452 0)
(0.0739139 0.0381953 6.28696e-20)
(0.0968523 0.0331041 -5.91348e-20)
(0.122677 0.0277957 2.22654e-19)
(0.151582 0.0222916 -3.13676e-19)
(0.183746 0.0166136 9.81951e-20)
(0.219318 0.0107877 0)
(0.258391 0.00484802 8.59098e-20)
(0.301008 -0.00114957 -1.6038e-19)
(0.347348 -0.00704482 1.49143e-19)
(0.394391 -0.0137952 -1.38607e-19)
(0.458957 -0.0112266 -1.26778e-19)
(-0.00513949 0.00769785 -1.61195e-19)
(-0.0138848 0.0208699 -4.90263e-22)
(-0.021283 0.0321991 -7.88922e-20)
(-0.027309 0.0417283 -7.52652e-20)
(-0.0319356 0.0495272 -1.44e-19)
(-0.0351371 0.0556888 6.84657e-20)
(-0.0368886 0.0603237 1.36614e-22)
(-0.0371631 0.0635546 -1.2361e-19)
(-0.0359288 0.0655123 -1.75629e-19)
(-0.0331461 0.0663308 5.88952e-23)
(-0.0287645 0.0661431 1.04984e-19)
(-0.0227199 0.0650776 -1.99286e-19)
(-0.0149321 0.0632552 9.43572e-20)
(-0.00530291 0.0607867 8.93243e-20)
(0.00628545 0.0577719 -1.29246e-22)
(0.0199707 0.0542983 7.95766e-20)
(0.0359103 0.0504415 -1.5009e-19)
(0.0542802 0.0462659 0)
(0.0752719 0.0418258 -1.33655e-19)
(0.0990884 0.0371668 1.25878e-19)
(0.125938 0.0323281 -1.18458e-19)
(0.156023 0.0273448 -1.11333e-19)
(0.189534 0.0222499 0)
(0.226626 0.0170774 -2.94275e-19)
(0.267408 0.0118655 1.48622e-22)
(0.311906 0.00665837 -4.29288e-19)
(0.360028 0.0015006 2.40702e-19)
(0.412097 -0.00330522 -2.9781e-19)
(0.463736 -0.00971249 1.38598e-19)
(0.535938 -0.00587234 -1.25265e-19)
(-0.00531565 0.00753341 8.08416e-20)
(-0.0143135 0.0204092 8.30857e-20)
(-0.0218362 0.0314742 7.98094e-20)
(-0.0278462 0.0407654 -2.42167e-22)
(-0.0323044 0.0483503 -2.21517e-22)
(-0.0351736 0.0543209 0)
(-0.036419 0.0587868 0)
(-0.0360045 0.0618702 0)
(-0.0338891 0.0637012 0)
(-0.0300234 0.0644136 0)
(-0.024346 0.0641406 1.05543e-19)
(-0.0167805 0.0630115 -1.00043e-19)
(-0.0072327 0.0611487 9.46565e-20)
(0.00441127 0.0586656 1.18297e-22)
(0.0182864 0.0556655 -8.44025e-20)
(0.034549 0.0522406 -7.90013e-23)
(0.0533754 0.0484726 -1.50611e-19)
(0.0749595 0.0444329 1.4199e-19)
(0.0995086 0.0401841 1.33651e-19)
(0.127237 0.0357814 -1.25868e-19)
(0.158355 0.0312748 2.36913e-19)
(0.193059 0.0267105 0)
(0.231513 0.0221336 -2.09029e-19)
(0.27383 0.0175898 2.86674e-22)
(0.320046 0.0131288 4.37409e-22)
(0.370091 0.00880464 8.01832e-22)
(0.42369 0.00463765 -7.94069e-20)
(0.481279 0.00117101 1.48667e-19)
(0.537085 -0.00467477 1.37616e-19)
(0.616077 0.000748639 6.48357e-20)
(-0.00547688 0.00734975 0)
(-0.0146902 0.019881 8.3807e-20)
(-0.0222939 0.0306262 -7.95966e-20)
(-0.0282364 0.0396205 -1.785e-22)
(-0.0324649 0.0469319 1.45385e-19)
(-0.0349298 0.052654 -6.91919e-20)
(-0.035585 0.0568975 0)
(-0.0343838 0.0597854 0)
(-0.0312741 0.0614485 -1.18227e-19)
(-0.0261947 0.0620214 1.12157e-19)
(-0.0190713 0.0616384 1.06302e-19)
(-0.00981298 0.0604303 0)
(0.00169057 0.0585218 9.50379e-20)
(0.0155709 0.0560294 0)
(0.0319816 0.0530606 -1.69236e-19)
(0.0510979 0.0497133 2.39637e-19)
(0.0731142 0.0460756 2.26061e-19)
(0.0982401 0.042227 -7.09474e-20)
(0.126693 0.0382394 9.35842e-24)
(0.158689 0.0341781 -1.88923e-19)
(0.19443 0.0301037 0)
(0.234085 0.0260738 0)
(0.27777 0.0221439 1.0452e-19)
(0.325522 0.0183694 1.95746e-19)
(0.377271 0.0148075 -5.06562e-23)
(0.432809 0.0115183 1.71259e-19)
(0.49164 0.0084788 1.59548e-19)
(0.554214 0.00652596 0)
(0.613623 0.00144201 -1.37606e-19)
(0.698015 0.00875244 1.88038e-19)
(-0.00562347 0.00715014 8.23507e-20)
(-0.0150121 0.0192935 0)
(-0.0226467 0.0296676 1.99069e-22)
(-0.0284607 0.0383096 -7.68029e-20)
(-0.0323866 0.0452917 7.32993e-20)
(-0.0343614 0.0507113 6.94623e-20)
(-0.0343266 0.0546824 -1.03452e-22)
(-0.0322232 0.0573305 6.29022e-20)
(-0.0279864 0.0587888 0)
(-0.0215413 0.0591938 -2.25187e-19)
(-0.0127983 0.058682 2.69875e-22)
(-0.00165004 0.0573865 0)
(0.0120318 0.0554352 9.53856e-20)
(0.0283979 0.0529489 -2.6976e-19)
(0.0476211 0.0500401 8.48706e-20)
(0.0698947 0.0468129 -8.00146e-20)
(0.0954286 0.0433633 -1.50888e-19)
(0.124442 0.0397794 -2.13339e-19)
(0.157154 0.0361426 0)
(0.19377 0.0325285 0)
(0.234462 0.0290079 1.1839e-19)
(0.279348 0.0256476 1.11142e-19)
(0.328463 0.0225111 -1.04409e-19)
(0.381731 0.0196582 0)
(0.438934 0.0171472 0)
(0.499677 0.0150343 0)
(0.563237 0.013245 1.58207e-19)
(0.629865 0.0128622 -7.31881e-20)
(0.692187 0.00870617 1.37547e-19)
(0.779638 0.0179604 1.2236e-19)
(-0.00575537 0.00693715 -1.64933e-19)
(-0.0152751 0.0186534 8.48973e-20)
(-0.0228829 0.0286094 -8.12572e-20)
(-0.0284966 0.0368481 7.74471e-20)
(-0.0320336 0.0434492 -7.32992e-20)
(-0.0334168 0.0485169 6.9822e-20)
(-0.0325744 0.0521705 -6.64273e-20)
(-0.0294336 0.0545402 -1.25614e-19)
(-0.0239152 0.055763 1.19578e-19)
(-0.0159285 0.0559787 2.25937e-19)
(-0.00536693 0.0553271 1.06774e-19)
(0.00789544 0.0539453 -1.01111e-19)
(0.0240063 0.0519654 2.62178e-22)
(0.0431359 0.0495131 -5.33418e-23)
(0.0654755 0.0467074 8.50504e-20)
(0.0912339 0.0436597 0)
(0.120631 0.0404742 1.50984e-19)
(0.153886 0.0372482 3.55674e-19)
(0.191206 0.0340726 -6.69805e-20)
(0.232765 0.0310321 0)
(0.278681 0.0282057 -2.36678e-19)
(0.328987 0.025666 -1.11003e-19)
(0.383601 0.0234786 -1.0398e-19)
(0.442288 0.0217006 9.76247e-20)
(0.504637 0.0203821 -9.07838e-20)
(0.570018 0.0195592 8.5142e-20)
(0.637506 0.0191265 -8.52636e-22)
(0.706852 0.0202174 1.456e-19)
(0.771324 0.0171913 -1.36019e-19)
(0.858602 0.0283102 -2.44562e-19)
(-0.00587193 0.00671247 8.34331e-20)
(-0.0154735 0.0179658 8.53654e-20)
(-0.0229876 0.0274605 -2.97911e-22)
(-0.028317 0.0352496 4.75281e-22)
(-0.031364 0.0414233 0)
(-0.032037 0.0460954 -2.73153e-22)
(-0.0302498 0.0493931 -2.00547e-19)
(-0.0259147 0.051453 0)
(-0.0189365 0.0524176 -1.19988e-19)
(-0.00920698 0.0524318 -4.5369e-19)
(0.00339916 0.0516403 1.07376e-19)
(0.0190277 0.050185 -1.01506e-19)
(0.0378462 0.0482038 -1.91164e-19)
(0.0600437 0.0458288 1.80788e-19)
(0.0858269 0.0431862 0)
(0.115415 0.0403955 8.02183e-20)
(0.149026 0.0375697 -2.2696e-19)
(0.186869 0.034815 -7.1177e-20)
(0.229117 0.0322304 -2.00936e-19)
(0.275887 0.0299077 0)
(0.327208 0.0279295 2.36457e-19)
(0.382992 0.0263682 1.10997e-19)
(0.442992 0.0252835 0)
(0.506776 0.0247193 9.70173e-20)
(0.573696 0.0247062 0)
(0.642849 0.0252393 -8.4084e-20)
(0.713148 0.026238 -2.34888e-19)
(0.783546 0.0285365 -2.90195e-19)
(0.849321 0.0270196 -1.33656e-19)
(0.93212 0.0396461 -2.30012e-21)
(-0.00597164 0.00647686 -8.34331e-20)
(-0.0155991 0.0172337 3.51625e-22)
(-0.0229422 0.0262277 8.20903e-20)
(-0.0278895 0.0335259 -7.79223e-20)
(-0.0303291 0.0392319 -7.42875e-20)
(-0.0301545 0.0434718 1.40918e-19)
(-0.0272644 0.0463831 6.7166e-20)
(-0.0215551 0.0481107 1.27308e-19)
(-0.0129141 0.0488047 1.20112e-19)
(-0.00121417 0.0486165 1.14048e-19)
(0.0136899 0.0476974 2.15651e-19)
(0.0319639 0.0461957 -3.40914e-22)
(0.0537945 0.0442563 0)
(0.0793865 0.0420188 -9.04043e-20)
(0.108957 0.0396177 -1.65366e-22)
(0.142724 0.037181 1.18754e-22)
(0.180894 0.03483 2.27049e-19)
(0.223641 0.0326786 0)
(0.271078 0.0308314 1.33927e-19)
(0.323234 0.0293822 0)
(0.38001 0.028411 -1.36599e-22)
(0.441151 0.0279811 -1.10523e-19)
(0.506205 0.028135 2.07229e-19)
(0.574498 0.0288902 -9.74277e-20)
(0.645124 0.0302451 -1.80193e-19)
(0.716897 0.0321343 8.3957e-20)
(0.788606 0.0345621 3.12142e-19)
(0.858293 0.0376746 7.20551e-20)
(0.924351 0.0384177 3.31262e-19)
(0.997221 0.0514727 6.16333e-20)
(-0.00605194 0.00623015 8.42637e-20)
(-0.0156409 0.016458 -1.72903e-19)
(-0.0227234 0.0249157 0)
(-0.0271761 0.0316869 0)
(-0.0288732 0.0368916 7.4738e-20)
(-0.0276935 0.040671 -3.03005e-22)
(-0.0235204 0.0431747 -1.34492e-19)