/*--------------------------------*- C++ -*----------------------------------*\
  =========                 |
  \\      /  F ield         | OpenFOAM: The Open Source CFD Toolbox
   \\    /   O peration     | Website:  https://openfoam.org
    \\  /    A nd           | Version:  7
     \\/     M anipulation  |
\*---------------------------------------------------------------------------*/
FoamFile
{
    version     2.0;
    format      ascii;
    class       volVectorField;
    location    "5";
    object      U;
}
// * * * * * * * * * * * * * * * * * * * * * * * * * * * * * * * * * * * * * //

dimensions      [0 1 -1 0 0 0 0];

internalField   nonuniform List<vector> 
928
(
(0.978344 -0.000238637 7.53131e-24)
(0.979063 -0.000229795 -7.55539e-24)
(0.979756 -0.000221321 -1.1915e-24)
(0.980424 -0.000213199 4.48079e-24)
(0.981068 -0.000205414 -1.5516e-24)
(0.978358 -0.000714914 -4.47147e-23)
(0.979077 -0.000688409 -2.4499e-24)
(0.979769 -0.000663008 1.0246e-23)
(0.980437 -0.000638663 4.37585e-24)
(0.98108 -0.000615328 -1.15095e-24)
(0.978386 -0.0011907 -1.40518e-23)
(0.979104 -0.00114655 1.73836e-23)
(0.979795 -0.00110425 7.68542e-24)
(0.980462 -0.0010637 -2.5011e-23)
(0.981104 -0.00102483 4.57086e-24)
(0.978428 -0.00166566 7.78496e-23)
(0.979144 -0.00160392 5.60747e-23)
(0.979834 -0.00154475 -4.23656e-23)
(0.980499 -0.00148803 3.00401e-24)
(0.98114 -0.00143367 -7.94122e-23)
(0.978485 -0.00213948 3.72361e-23)
(0.979198 -0.00206019 -2.54084e-23)
(0.979886 -0.00198421 4.69792e-23)
(0.980549 -0.00191137 -7.16774e-23)
(0.981187 -0.00184156 2.31985e-23)
(0.978555 -0.00261183 4.70094e-23)
(0.979265 -0.00251508 5.92088e-23)
(0.97995 -0.00242234 -6.49924e-23)
(0.98061 -0.00233345 -4.27531e-23)
(0.981246 -0.00224824 6.6625e-23)
(0.978638 -0.00308241 1.06541e-23)
(0.979345 -0.00296827 -1.05008e-22)
(0.980027 -0.00285888 2.0604e-22)
(0.980684 -0.00275401 -7.08859e-23)
(0.981317 -0.00265347 -2.10531e-22)
(0.978735 -0.00355091 -1.13562e-22)
(0.979438 -0.00341949 4.90324e-23)
(0.980116 -0.00329352 -1.06219e-22)
(0.980769 -0.00317276 1.98783e-22)
(0.981399 -0.00305699 -1.22072e-22)
(0.978845 -0.00401703 -2.23872e-23)
(0.979544 -0.00386845 -3.23695e-23)
(0.980217 -0.00372602 1.21763e-22)
(0.980866 -0.00358947 8.03369e-23)
(0.981492 -0.00345855 -1.33318e-22)
(0.978967 -0.00448049 -6.06479e-23)
(0.979661 -0.00431487 8.85426e-24)
(0.98033 -0.00415609 8.02724e-23)
(0.980974 -0.00400387 -1.11469e-23)
(0.981596 -0.00385792 1.93908e-22)
(0.982195 -0.00371796 -1.85017e-22)
(0.979102 -0.00494101 3.2073e-23)
(0.97979 -0.00475849 1.86681e-22)
(0.980453 -0.0045835 -9.33755e-23)
(0.981093 -0.00441573 -1.0749e-22)
(0.98171 -0.00425485 8.17796e-24)
(0.982305 -0.00410058 1.51407e-23)
(0.979249 -0.00539834 1.38716e-22)
(0.979931 -0.00519906 -1.23776e-22)
(0.980588 -0.005008 -1.10048e-23)
(0.981223 -0.00482481 -6.0366e-23)
(0.981834 -0.00464914 4.98849e-23)
(0.982424 -0.00448067 -4.31477e-23)
(0.980083 -0.00563634 -1.35724e-22)
(0.980734 -0.00542936 1.12184e-22)
(0.981362 -0.0052309 -7.28965e-23)
(0.981968 -0.00504057 1.53131e-22)
(0.982553 -0.00485804 -9.82052e-23)
(0.980245 -0.00607012 2.68585e-22)
(0.98089 -0.00584738 -2.96987e-23)
(0.981512 -0.00563379 8.7636e-23)
(0.982112 -0.00542895 2.47655e-22)
(0.982691 -0.00523248 -3.23683e-22)
(0.980418 -0.00650016 -3.22426e-22)
(0.981055 -0.00626184 1.75339e-23)
(0.981671 -0.00603329 1.44644e-22)
(0.982264 -0.00581409 -1.22609e-22)
(0.982837 -0.00560384 5.3301e-24)
(0.9806 -0.00692629 5.04209e-23)
(0.98123 -0.00667256 -6.04942e-23)
(0.981838 -0.00642922 2.38686e-22)
(0.982425 -0.00619582 -3.38842e-22)
(0.982992 -0.00597192 3.6028e-22)
(0.980792 -0.0073483 1.89737e-22)
(0.981414 -0.00707937 -4.6146e-22)
(0.982015 -0.00682141 4.7019e-22)
(0.982595 -0.00657397 -2.43413e-22)
(0.983155 -0.00633659 5.57833e-23)
(0.980992 -0.00776604 7.8099e-23)
(0.981606 -0.00748209 8.78861e-25)
(0.982199 -0.00720971 -1.93206e-22)
(0.982772 -0.0069484 2.17993e-22)
(0.983325 -0.0066977 -2.18083e-22)
(0.9812 -0.00817935 -2.97592e-22)
(0.981806 -0.00788058 1.43423e-22)
(0.982392 -0.00759396 -2.96619e-23)
(0.982957 -0.00731896 2.88631e-22)
(0.983502 -0.0070551 -4.94635e-22)
(0.981417 -0.00858809 5.29516e-24)
(0.982014 -0.00827471 -1.44296e-22)
(0.982591 -0.00797403 1.16127e-22)
(0.983148 -0.00768553 -2.06063e-23)
(0.983686 -0.00740868 4.63575e-24)
(0.98164 -0.00899213 -5.42729e-22)
(0.982228 -0.00866434 2.81613e-22)
(0.982797 -0.00834981 -4.03613e-23)
(0.983346 -0.00804799 3.06476e-22)
(0.983876 -0.00775833 -1.15203e-22)
(0.98187 -0.00939137 3.61079e-23)
(0.982449 -0.00904938 1.64516e-22)
(0.983009 -0.0087212 -1.92033e-22)
(0.983549 -0.00840624 -1.47315e-22)
(0.984072 -0.00810395 -2.58558e-23)
(0.982106 -0.00978571 1.22108e-22)
(0.982676 -0.00942973 -8.67233e-24)
(0.983226 -0.00908809 1.8477e-23)
(0.983759 -0.00876019 4.59431e-24)
(0.984273 -0.00844546 -2.63693e-22)
(0.984771 -0.00814333 -4.29971e-25)
(0.982907 -0.00980532 -3.08687e-25)
(0.983449 -0.00945042 3.84168e-23)
(0.983973 -0.00910977 -2.04591e-22)
(0.984479 -0.00878277 2.19838e-23)
(0.984968 -0.00846884 -1.52543e-22)
(0.983144 -0.0101761 2.45491e-22)
(0.983676 -0.00980814 -1.60035e-22)
(0.984191 -0.00945493 7.60331e-24)
(0.984689 -0.00911583 1.53862e-22)
(0.985171 -0.00879027 -3.89162e-22)
(0.983385 -0.0105419 1.27003e-22)
(0.983908 -0.0101611 1.68857e-22)
(0.984414 -0.00979555 1.29162e-22)
(0.984903 -0.00944455 -1.70205e-22)
(0.985376 -0.00910753 -2.30631e-22)
(0.98363 -0.0109027 2.83734e-22)
(0.984143 -0.0105093 -2.60627e-22)
(0.98464 -0.0101315 1.88902e-24)
(0.98512 -0.00976878 7.43804e-23)
(0.985585 -0.00942047 8.24097e-23)
(0.983877 -0.0112588 1.92455e-22)
(0.984381 -0.0108529 -9.59771e-23)
(0.984869 -0.0104631 2.50463e-22)
(0.985341 -0.0100889 -5.00004e-23)
(0.985797 -0.00972942 -2.84884e-22)
(0.984128 -0.0116121 2.81304e-22)
(0.984622 -0.0111938 -5.31618e-23)
(0.985101 -0.0107922 -7.0194e-23)
(0.985564 -0.0104064 1.19355e-22)
(0.986012 -0.0100359 -2.29285e-22)
(0.984381 -0.01196 1.22085e-22)
(0.984865 -0.0115295 -3.38498e-22)
(0.985335 -0.0111161 9.45938e-23)
(0.985789 -0.0107191 -7.68004e-23)
(0.986229 -0.0103377 1.28047e-22)
(0.984814 -0.0125031 0)
(0.985282 -0.0120544 0)
(0.985735 -0.0116235 0)
(0.986174 -0.0112094 0)
(0.986599 -0.0108117 0)
(0.985437 -0.0131308 0)
(0.985881 -0.0126635 0)
(0.986311 -0.0122143 0)
(0.986728 -0.0117826 0)
(0.987133 -0.0113677 0)
(0.986071 -0.0137517 0)
(0.986491 -0.0132658 0)
(0.986899 -0.0127985 0)
(0.987294 -0.0123492 0)
(0.987677 -0.0119173 0)
(0.986719 -0.0143398 0)
(0.987115 -0.0138367 0)
(0.987498 -0.0133527 0)
(0.987871 -0.0128872 0)
(0.988233 -0.0124394 0)
(0.987381 -0.0148902 0)
(0.987751 -0.0143716 0)
(0.988111 -0.0138725 0)
(0.988461 -0.0133923 0)
(0.988801 -0.01293 0)
(0.988056 -0.0154043 0)
(0.988401 -0.0148718 0)
(0.988737 -0.0143591 0)
(0.989064 -0.0138655 0)
(0.989382 -0.0133903 0)
(0.988745 -0.0158815 0)
(0.989064 -0.0153368 0)
(0.989376 -0.0148121 0)
(0.989679 -0.0143066 0)
(0.989975 -0.0138197 0)
(0.989448 -0.0163215 0)
(0.989741 -0.0157661 0)
(0.990028 -0.0152308 0)
(0.990308 -0.0147149 0)
(0.990581 -0.0142178 0)
(0.990165 -0.0167237 0)
(0.990432 -0.0161592 0)
(0.990694 -0.0156149 0)
(0.990949 -0.01509 0)
(0.991199 -0.014584 0)
(0.990895 -0.017088 0)
(0.991136 -0.0165159 0)
(0.991372 -0.015964 0)
(0.991604 -0.0154316 0)
(0.99183 -0.0149181 0)
(0.991637 -0.017414 0)
(0.991852 -0.0168359 0)
(0.992063 -0.016278 0)
(0.99227 -0.0157394 0)
(0.992473 -0.0152197 0)
(0.992672 -0.014718 2.32098e-29)
(0.992391 -0.0177017 0)
(0.992579 -0.0171191 0)
(0.992765 -0.0165565 0)
(0.992947 -0.0160132 0)
(0.993127 -0.0154886 0)
(0.993303 -0.014982 0)
(0.993155 -0.017951 0)
(0.993317 -0.0173654 0)
(0.993477 -0.0167996 0)
(0.993635 -0.0162528 0)
(0.993791 -0.0157246 0)
(0.993944 -0.0152143 0)
(0.993928 -0.018162 0)
(0.994063 -0.0175749 0)
(0.994197 -0.0170071 0)
(0.994331 -0.0164583 0)
(0.994463 -0.0159277 0)
(0.994594 -0.0154149 -1.69916e-29)
(0.994708 -0.0183351 0)
(0.994816 -0.0177476 0)
(0.994926 -0.0171793 0)
(0.995035 -0.0166297 0)
(0.995143 -0.016098 0)
(0.995252 -0.0155838 0)
(0.995493 -0.0184704 0)
(0.995576 -0.017884 0)
(0.99566 -0.0173164 0)
(0.995744 -0.0167671 0)
(0.99583 -0.0162355 0)
(0.995916 -0.0157211 -9.30283e-30)
(0.996281 -0.0185684 0)
(0.996339 -0.0179843 0)
(0.996398 -0.0174186 0)
(0.996459 -0.0168708 0)
(0.996521 -0.0163405 0)
(0.996584 -0.015827 0)
(0.997072 -0.0186296 0)
(0.997104 -0.018049 0)
(0.997138 -0.0174864 0)
(0.997176 -0.0169413 0)
(0.997215 -0.0164132 0)
(0.997256 -0.0159017 0)
(0.997862 -0.0186548 0)
(0.997869 -0.0180788 0)
(0.99788 -0.0175203 0)
(0.997893 -0.0169789 0)
(0.99791 -0.0164541 0)
(0.997929 -0.0159456 0)
(0.99865 -0.0186446 0)
(0.998633 -0.0180742 0)
(0.99862 -0.0175209 0)
(0.998611 -0.0169842 0)
(0.998605 -0.0164637 0)
(0.998603 -0.0159591 0)
(0.999434 -0.0185997 0)
(0.999393 -0.018036 0)
(0.999357 -0.0174888 0)
(0.999326 -0.0169578 0)
(0.999298 -0.0164426 0)
(0.999274 -0.0159427 0)
(1.00021 -0.0185212 0)
(1.00015 -0.017965 0)
(1.00009 -0.0174248 0)
(1.00004 -0.0169004 0)
(0.999988 -0.0163912 0)
(0.999943 -0.0158971 9.74933e-32)
(1.00098 -0.0184099 0)
(1.0009 -0.0178621 0)
(1.00082 -0.0173298 0)
(1.00074 -0.0168127 0)
(1.00067 -0.0163105 0)
(1.00061 -0.0158227 4.75547e-31)
(1.00175 -0.0182668 0)
(1.00164 -0.0177281 0)
(1.00154 -0.0172045 0)
(1.00144 -0.0166956 0)
(1.00135 -0.016201 0)
(1.00127 -0.0157205 0)
(1.0025 -0.0180929 0)
(1.00237 -0.0175641 0)
(1.00224 -0.0170499 0)
(1.00213 -0.0165498 0)
(1.00202 -0.0160636 0)
(1.00192 -0.015591 -4.79997e-30)
(1.00324 -0.0178892 0)
(1.00309 -0.017371 0)
(1.00294 -0.0168668 0)
(1.00281 -0.0163762 0)
(1.00268 -0.0158991 0)
(1.00256 -0.015435 0)
(1.00396 -0.0176569 0)
(1.00379 -0.0171499 0)
(1.00363 -0.0166563 0)
(1.00348 -0.0161759 0)
(1.00333 -0.0157083 0)
(1.00319 -0.0152534 0)
(1.00467 -0.017397 0)
(1.00449 -0.0169017 0)
(1.0043 -0.0164193 0)
(1.00413 -0.0159496 0)
(1.00397 -0.0154922 0)
(1.00381 -0.015047 0)
(1.00537 -0.0171106 0)
(1.00516 -0.0166275 0)
(1.00496 -0.0161568 0)
(1.00478 -0.0156983 0)
(1.00459 -0.0152516 0)
(1.00442 -0.0148167 0)
(1.00605 -0.0167988 0)
(1.00582 -0.0163284 0)
(1.00561 -0.0158699 0)
(1.0054 -0.015423 0)
(1.00521 -0.0149875 0)
(1.00501 -0.0145632 0)
(1.00647 -0.0160054 0)
(1.00624 -0.0155594 0)
(1.00602 -0.0151246 0)
(1.0058 -0.0147007 0)
(1.0056 -0.0142876 1.35928e-29)
(1.0071 -0.0156594 0)
(1.00685 -0.0152264 0)
(1.00661 -0.0148041 0)
(1.00638 -0.0143922 0)
(1.00616 -0.0139906 0)
(1.00771 -0.0152916 0)
(1.00745 -0.0148719 0)
(1.00719 -0.0144624 0)
(1.00695 -0.0140628 0)
(1.00671 -0.0136731 0)
(1.0083 -0.0149029 0)
(1.00802 -0.0144968 0)
(1.00776 -0.0141004 0)
(1.0075 -0.0137136 0)
(1.00725 -0.0133361 0)
(1.00887 -0.0144944 0)
(1.00858 -0.0141022 0)
(1.0083 -0.0137192 0)
(1.00803 -0.0133453 0)
(1.00777 -0.0129803 0)
(1.00942 -0.0140669 0)
(1.00912 -0.0136888 0)
(1.00883 -0.0133195 0)
(1.00854 -0.0129589 0)
(1.00827 -0.0126067 0)
(1.00995 -0.0136215 0)
(1.00964 -0.0132578 0)
(1.00933 -0.0129024 0)
(1.00904 -0.0125552 0)
(1.00875 -0.0122161 0)
(1.01047 -0.0131591 0)
(1.01014 -0.0128099 0)
(1.00982 -0.0124686 0)
(1.00952 -0.0121351 0)
(1.00922 -0.0118093 3.07754e-29)
(1.01096 -0.0126806 0)
(1.01062 -0.0123461 0)
(1.01029 -0.0120191 0)
(1.00997 -0.0116995 0)
(1.00967 -0.0113871 0)
(1.01142 -0.0121868 0)
(1.01108 -0.0118673 0)
(1.01074 -0.0115547 0)
(1.01041 -0.0112491 0)
(1.01009 -0.0109504 0)
(1.01187 -0.0116787 0)
(1.01151 -0.0113742 0)
(1.01117 -0.0110763 0)
(1.01083 -0.0107849 0)
(1.0105 -0.0105 0)
(1.0123 -0.0111572 0)
(1.01193 -0.0108678 0)
(1.01158 -0.0105846 0)
(1.01123 -0.0103075 0)
(1.01089 -0.0100366 0)
(1.0127 -0.0106229 0)
(1.01233 -0.0103488 0)
(1.01196 -0.0100804 0)
(1.01161 -0.00981781 0)
(1.01126 -0.00956094 0)
(1.01309 -0.0100768 0)
(1.0127 -0.00981799 0)
(1.01233 -0.00956457 0)
(1.01197 -0.00931654 0)
(1.01161 -0.00907387 -3.90485e-29)
(1.01345 -0.00951966 0)
(1.01305 -0.00927621 0)
(1.01267 -0.00903783 0)
(1.0123 -0.00880446 0)
(1.01194 -0.00857609 -2.93749e-29)
(1.01378 -0.00895217 0)
(1.01339 -0.0087242 0)
(1.013 -0.00850092 0)
(1.01262 -0.00828231 0)
(1.01225 -0.00806832 0)
(1.0141 -0.00837513 0)
(1.01369 -0.00816269 0)
(1.0133 -0.00795459 0)
(1.01292 -0.00775079 0)
(1.01254 -0.00755127 0)
(1.01439 -0.00778927 0)
(1.01398 -0.00759241 0)
(1.01358 -0.00739954 0)
(1.01319 -0.00721063 0)
(1.01281 -0.00702565 0)
(1.01466 -0.0071953 0)
(1.01425 -0.00701407 0)
(1.01384 -0.00683648 0)
(1.01345 -0.00666251 0)
(1.01306 -0.00649213 0)
(1.01491 -0.00659394 0)
(1.01449 -0.00642837 0)
(1.01408 -0.0062661 0)
(1.01368 -0.00610711 0)
(1.01329 -0.0059514 0)
(1.01514 -0.00598586 0)
(1.01471 -0.00583598 0)
(1.0143 -0.00568907 0)
(1.01389 -0.00554512 0)
(1.0135 -0.00540411 0)
(1.01534 -0.00537175 0)
(1.01491 -0.00523759 0)
(1.01449 -0.00510607 0)
(1.01409 -0.00497719 0)
(1.01369 -0.00485092 7.73901e-29)
(1.01552 -0.00475227 0)
(1.01509 -0.00463385 0)
(1.01467 -0.00451775 0)
(1.01426 -0.00440397 0)
(1.01386 -0.00429248 0)
(1.01568 -0.00412808 0)
(1.01525 -0.00402542 0)
(1.01482 -0.00392476 0)
(1.01441 -0.0038261 0)
(1.014 -0.00372942 0)
(1.01582 -0.00349982 0)
(1.01538 -0.00341293 0)
(1.01495 -0.00332773 0)
(1.01453 -0.00324422 0)
(1.01413 -0.00316237 -3.5033e-29)
(1.01593 -0.00286814 0)
(1.01549 -0.00279704 0)
(1.01506 -0.00272731 0)
(1.01464 -0.00265895 0)
(1.01423 -0.00259196 0)
(1.01602 -0.00223366 0)
(1.01558 -0.00217835 0)
(1.01515 -0.00212411 0)
(1.01473 -0.00207093 0)
(1.01432 -0.00201881 3.55266e-29)
(1.01609 -0.00159702 0)
(1.01565 -0.0015575 0)
(1.01521 -0.00151875 0)
(1.01479 -0.00148076 0)
(1.01438 -0.00144352 0)
(1.01614 -0.000958832 0)
(1.01569 -0.000935122 0)
(1.01526 -0.000911868 0)
(1.01483 -0.00088907 0)
(1.01442 -0.000866724 0)
(1.01616 -0.000319716 0)
(1.01571 -0.000311812 0)
(1.01528 -0.00030406 0)
(1.01485 -0.00029646 0)
(1.01444 -0.000289011 -3.65303e-29)
(0.984813 0.0125023 0)
(0.985436 0.0131301 0)
(0.986071 0.013751 0)
(0.986719 0.0143391 0)
(0.98738 0.0148895 0)
(0.988055 0.0154035 0)
(0.988744 0.0158808 0)
(0.989447 0.0163208 0)
(0.990164 0.016723 0)
(0.990894 0.0170873 0)
(0.991637 0.0174133 0)
(0.99239 0.017701 0)
(0.993154 0.0179503 0)
(0.993927 0.0181614 0)
(0.994707 0.0183344 0)
(0.995492 0.0184697 0)
(0.996281 0.0185678 0)
(0.997071 0.0186291 0)
(0.997861 0.0186542 0)
(0.99865 0.018644 0)
(0.999434 0.0185992 0)
(1.00021 0.0185207 0)
(1.00098 0.0184094 0)
(1.00174 0.0182663 0)
(1.0025 0.0180924 0)
(1.00324 0.0178887 0)
(1.00396 0.0176564 0)
(1.00467 0.0173966 0)
(1.00537 0.0171102 0)
(1.00605 0.0167983 0)
(1.00671 0.0164622 0)
(1.00735 0.0161028 0)
(1.00798 0.0157212 0)
(1.00858 0.0153184 0)
(1.00917 0.0148955 0)
(1.00973 0.0144535 0)
(1.01028 0.0139933 0)
(1.0108 0.0135159 0)
(1.0113 0.0130222 0)
(1.01178 0.0125132 0)
(1.01224 0.0119897 0)
(1.01268 0.0114526 0)
(1.01309 0.0109027 0)
(1.01348 0.0103409 0)
(1.01385 0.00976798 0)
(1.01419 0.00918467 0)
(1.01451 0.00859175 0)
(1.01481 0.00798997 0)
(1.01509 0.00738004 0)
(1.01534 0.00676269 0)
(1.01557 0.0061386 0)
(1.01578 0.00550845 0)
(1.01597 0.00487292 0)
(1.01613 0.00423267 0)
(1.01627 0.00358834 0)
(1.01638 0.00294057 0)
(1.01648 0.00229001 0)
(1.01654 0.00163727 0)
(1.01659 0.000982981 0)
(1.01661 0.000327766 0)
(0.985281 0.0120537 0)
(0.98588 0.0126627 0)
(0.986491 0.013265 0)
(0.987114 0.013836 0)
(0.987751 0.0143709 0)
(0.9884 0.0148711 0)
(0.989064 0.0153361 0)
(0.989741 0.0157654 0)
(0.990432 0.0161585 0)
(0.991135 0.0165153 0)
(0.991851 0.0168353 0)
(0.992579 0.0171185 0)
(0.993316 0.0173648 0)
(0.994062 0.0175742 0)
(0.994816 0.017747 0)
(0.995575 0.0178834 0)
(0.996338 0.0179837 0)
(0.997103 0.0180485 0)
(0.997869 0.0180782 0)
(0.998632 0.0180736 0)
(0.999393 0.0180355 0)
(1.00015 0.0179645 0)
(1.0009 0.0178616 0)
(1.00164 0.0177276 0)
(1.00237 0.0175636 0)
(1.00309 0.0173706 0)
(1.00379 0.0171495 0)
(1.00448 0.0169013 0)
(1.00516 0.0166271 0)
(1.00582 0.016328 0)
(1.00647 0.016005 0)
(1.0071 0.015659 0)
(1.00771 0.0152912 0)
(1.0083 0.0149026 0)
(1.00887 0.014494 0)
(1.00942 0.0140666 0)
(1.00995 0.0136212 0)
(1.01046 0.0131588 0)
(1.01096 0.0126803 0)
(1.01142 0.0121866 0)
(1.01187 0.0116785 0)
(1.0123 0.0111569 0)
(1.0127 0.0106227 0)
(1.01308 0.0100766 0)
(1.01344 0.00951945 0)
(1.01378 0.00895198 0)
(1.0141 0.00837496 0)
(1.01439 0.00778911 0)
(1.01466 0.00719515 0)
(1.01491 0.0065938 0)
(1.01514 0.00598574 0)
(1.01534 0.00537164 0)
(1.01552 0.00475217 0)
(1.01568 0.004128 0)
(1.01582 0.00349975 0)
(1.01593 0.00286808 0)
(1.01602 0.00223362 0)
(1.01609 0.00159699 0)
(1.01613 0.000958813 0)
(1.01616 0.00031971 0)
(0.985735 0.0116227 0)
(0.986311 0.0122136 0)
(0.986898 0.0127978 0)
(0.987498 0.013352 0)
(0.988111 0.0138718 0)
(0.988736 0.0143584 0)
(0.989375 0.0148114 0)
(0.990028 0.0152301 0)
(0.990693 0.0156142 0)
(0.991372 0.0159634 0)
(0.992062 0.0162773 0)
(0.992764 0.0165559 0)
(0.993476 0.016799 0)
(0.994197 0.0170065 0)
(0.994925 0.0171787 0)
(0.995659 0.0173158 0)
(0.996397 0.017418 0)
(0.997138 0.0174858 0)
(0.997879 0.0175197 0)
(0.998619 0.0175203 0)
(0.999357 0.0174883 0)
(1.00009 0.0174243 0)
(1.00082 0.0173293 0)
(1.00153 0.017204 0)
(1.00224 0.0170494 0)
(1.00294 0.0168664 0)
(1.00363 0.0166559 0)
(1.0043 0.0164189 0)
(1.00496 0.0161564 0)
(1.00561 0.0158695 0)
(1.00624 0.015559 0)
(1.00685 0.015226 0)
(1.00745 0.0148715 0)
(1.00802 0.0144965 0)
(1.00858 0.0141018 0)
(1.00912 0.0136885 0)
(1.00964 0.0132575 0)
(1.01014 0.0128096 0)
(1.01062 0.0123459 0)
(1.01108 0.011867 0)
(1.01151 0.011374 0)
(1.01193 0.0108675 0)
(1.01233 0.0103485 0)
(1.0127 0.00981777 0)
(1.01305 0.00927601 0)
(1.01338 0.00872401 0)
(1.01369 0.00816252 0)
(1.01398 0.00759225 0)
(1.01425 0.00701392 0)
(1.01449 0.00642823 0)
(1.01471 0.00583586 0)
(1.01491 0.00523748 0)
(1.01509 0.00463376 0)
(1.01525 0.00402534 0)
(1.01538 0.00341286 0)
(1.01549 0.00279698 0)
(1.01558 0.00217831 0)
(1.01565 0.00155747 0)
(1.01569 0.000935103 0)
(1.01571 0.000311806 0)
(0.986174 0.0112087 0)
(0.986728 0.0117819 0)
(0.987293 0.0123485 0)
(0.987871 0.0128865 0)
(0.988461 0.0133916 0)
(0.989063 0.0138649 0)
(0.989679 0.0143059 0)
(0.990307 0.0147142 0)
(0.990949 0.0150894 0)
(0.991603 0.015431 0)
(0.992269 0.0157388 0)
(0.992947 0.0160126 0)
(0.993634 0.0162522 0)
(0.99433 0.0164577 0)
(0.995034 0.0166291 0)
(0.995744 0.0167665 0)
(0.996458 0.0168703 0)
(0.997175 0.0169407 0)
(0.997893 0.0169784 0)
(0.99861 0.0169837 0)
(0.999325 0.0169573 0)
(1.00004 0.0168999 0)
(1.00074 0.0168122 0)
(1.00144 0.0166951 0)
(1.00213 0.0165493 0)
(1.00281 0.0163758 0)
(1.00348 0.0161754 0)
(1.00413 0.0159491 0)
(1.00477 0.0156979 0)
(1.0054 0.0154226 0)
(1.00602 0.0151242 0)
(1.00661 0.0148037 0)
(1.00719 0.014462 0)
(1.00776 0.0141001 0)
(1.0083 0.0137189 0)
(1.00883 0.0133192 0)
(1.00933 0.0129021 0)
(1.00982 0.0124683 0)
(1.01029 0.0120189 0)
(1.01074 0.0115545 0)
(1.01117 0.011076 0)
(1.01157 0.0105843 0)
(1.01196 0.0100802 0)
(1.01233 0.00956436 0)
(1.01267 0.00903763 0)
(1.013 0.00850074 0)
(1.0133 0.00795442 0)
(1.01358 0.00739938 0)
(1.01384 0.00683633 0)
(1.01408 0.00626596 0)
(1.0143 0.00568895 0)
(1.01449 0.00510597 0)
(1.01467 0.00451766 0)
(1.01482 0.00392468 0)
(1.01495 0.00332766 0)
(1.01506 0.00272725 0)
(1.01515 0.00212406 0)
(1.01521 0.00151872 0)
(1.01526 0.000911849 0)
(1.01528 0.000304054 0)
(0.986599 0.0108109 0)
(0.987133 0.011367 0)
(0.987677 0.0119165 0)
(0.988233 0.0124387 0)
(0.988801 0.0129294 0)
(0.989381 0.0133896 0)
(0.989975 0.0138191 0)
(0.99058 0.0142171 0)
(0.991199 0.0145834 0)
(0.99183 0.0149174 0)
(0.992473 0.015219 0)
(0.993126 0.015488 0)
(0.99379 0.015724 0)
(0.994463 0.0159272 0)
(0.995143 0.0160974 0)
(0.995829 0.0162349 0)
(0.99652 0.0163399 0)
(0.997214 0.0164127 0)
(0.99791 0.0164536 0)
(0.998604 0.0164632 0)
(0.999298 0.0164421 0)
(0.999987 0.0163908 0)
(1.00067 0.01631 0)
(1.00135 0.0162005 0)
(1.00202 0.0160631 0)
(1.00268 0.0158986 0)
(1.00333 0.0157079 0)
(1.00397 0.0154918 0)
(1.00459 0.0152512 0)
(1.0052 0.0149871 0)
(1.0058 0.0147003 0)
(1.00638 0.0143918 0)
(1.00695 0.0140625 0)
(1.0075 0.0137132 0)
(1.00803 0.013345 0)
(1.00854 0.0129586 0)
(1.00904 0.0125549 0)
(1.00951 0.0121348 0)
(1.00997 0.0116992 0)
(1.01041 0.0112489 0)
(1.01083 0.0107846 0)
(1.01123 0.0103073 0)
(1.01161 0.00981759 0)
(1.01197 0.00931634 0)
(1.0123 0.00880427 0)
(1.01262 0.00828212 0)
(1.01292 0.00775062 0)
(1.01319 0.00721047 0)
(1.01345 0.00666236 0)
(1.01368 0.00610698 0)
(1.01389 0.005545 0)
(1.01409 0.00497708 0)
(1.01426 0.00440387 0)
(1.01441 0.00382602 0)
(1.01453 0.00324415 0)
(1.01464 0.0026589 0)
(1.01473 0.00207088 0)
(1.01479 0.00148073 0)
(1.01483 0.000889051 0)
(1.01485 0.000296454 0)
(0.984381 0.0119592 -1.21312e-22)
(0.984865 0.0115288 3.35265e-22)
(0.985334 0.0111154 -9.46326e-23)
(0.985788 0.0107183 7.37502e-23)
(0.986228 0.010337 -1.27708e-22)
(0.984128 0.0116113 -2.84139e-22)
(0.984622 0.0111931 5.25502e-23)
(0.9851 0.0107914 7.07299e-23)
(0.985563 0.0104057 -1.18521e-22)
(0.986012 0.0100352 2.28079e-22)
(0.983877 0.011258 -1.79055e-22)
(0.984381 0.0108521 1.10913e-22)
(0.984869 0.0104624 -2.40335e-22)
(0.985341 0.0100881 6.26693e-23)
(0.985797 0.00972869 2.94292e-22)
(0.983629 0.0109019 -2.92629e-22)
(0.984143 0.0105085 2.39333e-22)
(0.98464 0.0101307 -9.32773e-24)
(0.98512 0.00976803 -9.44543e-23)
(0.985585 0.00941974 -9.92418e-23)
(0.983385 0.0105412 -1.32157e-22)
(0.983908 0.0101604 -1.5599e-22)
(0.984413 0.0097948 -1.33075e-22)
(0.984903 0.00944381 1.69373e-22)
(0.985376 0.00910679 2.34756e-22)
(0.983144 0.0101753 -2.49826e-22)
(0.983676 0.00980737 1.52329e-22)
(0.984191 0.00945417 -1.71393e-23)
(0.984689 0.00911509 -1.3272e-22)
(0.98517 0.00878953 3.87184e-22)
(0.982907 0.00980453 1.59598e-23)
(0.983449 0.00944965 2.41289e-22)
(0.983972 0.00910902 -7.65145e-23)
(0.984479 0.00878202 -2.51245e-23)
(0.984968 0.0084681 1.61894e-22)
(0.982106 0.0097849 -1.15091e-22)
(0.982675 0.00942894 -1.93175e-23)
(0.983226 0.00908732 -1.53315e-23)
(0.983758 0.00875943 2.62927e-22)
(0.984273 0.00844471 -3.74188e-24)
(0.98477 0.0081426 -2.74171e-24)
(0.98187 0.00939056 2.84451e-22)
(0.982449 0.00904859 -1.78587e-22)
(0.983008 0.00872042 1.70857e-22)
(0.983549 0.00840548 1.67044e-22)
(0.984072 0.0081032 5.78848e-24)
(0.98164 0.00899132 5.4389e-22)
(0.982228 0.00866355 -2.22885e-22)
(0.982796 0.00834904 5.74961e-23)
(0.983346 0.00804722 -2.84123e-22)
(0.983876 0.00775758 1.4846e-22)
(0.981416 0.00858728 -5.71015e-23)
(0.982014 0.00827391 1.08621e-22)
(0.982591 0.00797325 -1.21573e-22)
(0.983148 0.00768476 -7.58491e-24)
(0.983686 0.00740793 -2.54937e-23)
(0.9812 0.00817854 3.34254e-22)
(0.981806 0.00787979 -1.26162e-22)
(0.982391 0.00759317 6.07566e-23)
(0.982956 0.00731819 -3.03122e-22)
(0.983502 0.00705434 5.06362e-22)
(0.980992 0.00776523 -6.51491e-23)
(0.981606 0.00748129 1.90399e-23)
(0.982199 0.00720892 1.53313e-22)
(0.982772 0.00694763 -2.1145e-22)
(0.983325 0.00669694 1.81344e-22)
(0.980792 0.00734749 -2.09218e-22)
(0.981414 0.00707857 3.99067e-22)
(0.982015 0.00682063 -1.45835e-22)
(0.982595 0.0065732 -2.61813e-23)
(0.983155 0.00633584 -6.19298e-23)
(0.9806 0.00692547 -5.36079e-23)
(0.98123 0.00667176 9.79757e-23)
(0.981838 0.00642844 -2.37072e-22)
(0.982425 0.00619505 3.35931e-22)
(0.982992 0.00597117 -3.4605e-22)
(0.980418 0.00649935 3.22748e-22)
(0.981055 0.00626104 -1.46737e-23)
(0.98167 0.00603251 -2.0539e-22)
(0.982264 0.00581332 1.04069e-22)
(0.982837 0.00560308 3.66182e-23)
(0.980245 0.0060693 -2.67696e-22)
(0.98089 0.00584658 6.17249e-23)
(0.981512 0.005633 2.56616e-22)
(0.982112 0.00542818 -5.20054e-22)
(0.98269 0.00523173 3.33621e-22)
(0.980083 0.00563553 1.63339e-22)
(0.980734 0.00542856 -1.46519e-22)
(0.981362 0.00523011 5.54985e-23)
(0.981968 0.0050398 -1.64443e-22)
(0.982553 0.00485728 6.68398e-23)
(0.979249 0.00539751 -1.49727e-22)
(0.979931 0.00519824 6.40679e-23)
(0.980588 0.0050072 5.6886e-24)
(0.981222 0.00482402 9.39707e-23)
(0.981834 0.00464837 -4.3637e-23)
(0.982424 0.00447991 4.24488e-23)
(0.979102 0.00494018 -1.46868e-23)
(0.97979 0.00475767 -1.71989e-22)
(0.980453 0.0045827 8.39864e-23)
(0.981093 0.00441494 5.8118e-23)
(0.98171 0.00425408 -3.21826e-24)
(0.982305 0.00409982 -2.78719e-23)
(0.978967 0.00447966 6.48066e-23)
(0.979661 0.00431405 2.45893e-23)
(0.980329 0.00415529 -8.20661e-23)
(0.980974 0.00400308 2.08708e-23)
(0.981596 0.00385714 -4.00665e-23)
(0.982195 0.0037172 5.24419e-23)
(0.978845 0.0040162 1.60188e-24)
(0.979543 0.00386763 2.39737e-23)
(0.980217 0.00372521 -1.14078e-22)
(0.980866 0.00358868 -8.2847e-23)
(0.981492 0.00345777 1.27942e-22)
(0.978735 0.00355007 1.27792e-22)
(0.979438 0.00341867 -5.48677e-23)
(0.980116 0.00329272 1.09387e-22)
(0.980769 0.00317197 -1.88877e-22)
(0.981399 0.00305621 1.10606e-22)
(0.978638 0.00308158 -2.08526e-23)
(0.979345 0.00296746 8.50223e-23)
(0.980027 0.00285807 -2.05337e-22)
(0.980684 0.00275321 5.44811e-23)
(0.981317 0.00265269 2.16739e-22)
(0.978555 0.002611 5.72935e-23)
(0.979265 0.00251426 -1.0614e-22)
(0.97995 0.00242154 5.82481e-23)
(0.98061 0.00233266 5.11156e-23)
(0.981246 0.00224746 -6.79299e-23)
(0.978485 0.00213864 -5.21791e-23)
(0.979198 0.00205938 -1.5923e-24)
(0.979886 0.0019834 -3.66396e-23)
(0.980548 0.00191058 8.55276e-23)
(0.981187 0.00184078 -2.2471e-23)
(0.978428 0.00166483 -7.94378e-23)
(0.979144 0.0016031 -4.30862e-23)
(0.979834 0.00154394 4.87686e-23)
(0.980499 0.00148724 -1.87107e-23)
(0.98114 0.00143289 8.54388e-23)
(0.978386 0.00118986 1.85989e-23)
(0.979104 0.00114573 -2.55736e-23)
(0.979795 0.00110344 -1.62579e-23)
(0.980462 0.00106291 2.94991e-23)
(0.981104 0.00102406 -1.26396e-23)
(0.978358 0.000714081 4.27724e-23)
(0.979077 0.00068759 3.60505e-24)
(0.979769 0.000662202 -9.458e-24)
(0.980437 0.000637871 -7.0812e-25)
(0.98108 0.000614549 1.91228e-24)
(0.978344 0.000237805 -9.6257e-24)
(0.979063 0.000228976 8.56536e-24)
(0.979756 0.000220515 1.55863e-24)
(0.980424 0.000212407 -6.37433e-24)
(0.981068 0.000204635 1.87747e-24)
)
;

boundaryField
{
    inlet
    {
        type            uniformFixedValue;
        uniformValue    constant (1 0 0);
        value           nonuniform 0();
    }
    outlet
    {
        type            pressureInletOutletVelocity;
        value           nonuniform 0();
    }
    cylinder
    {
        type            fixedValue;
        value           nonuniform 0();
    }
    top
    {
        type            symmetryPlane;
    }
    bottom
    {
        type            symmetryPlane;
    }
    defaultFaces
    {
        type            empty;
    }
    procBoundary50to49
    {
        type            processor;
        value           nonuniform List<vector> 
185
(
(0.977597 -0.000247864 4.5217e-24)
(0.977611 -0.000742571 -2.88626e-23)
(0.977641 -0.00123676 -1.766e-23)
(0.977685 -0.00173008 -1.01985e-25)
(0.977744 -0.0022222 6.33208e-23)
(0.977817 -0.00271278 1.42117e-23)
(0.977904 -0.00320149 -7.41662e-23)
(0.978005 -0.00368801 -6.16602e-23)
(0.97812 -0.00417204 -4.5384e-23)
(0.978248 -0.00465327 1.6214e-22)
(0.978389 -0.00513142 9.48346e-23)
(0.978542 -0.0056062 -5.05577e-23)
(0.979408 -0.00585222 8.07858e-23)
(0.979408 -0.00585222 8.07858e-23)
(0.979577 -0.00630241 4.92046e-22)
(0.979757 -0.00674868 -2.00701e-22)
(0.979947 -0.00719084 5.56797e-23)
(0.980147 -0.00762869 7.59156e-23)
(0.980356 -0.00806206 1.19043e-22)
(0.980573 -0.00849079 -2.811e-22)
(0.980798 -0.00891473 1.69175e-22)
(0.981031 -0.00933375 -5.6782e-22)
(0.98127 -0.00974776 -3.22447e-22)
(0.981516 -0.0101566 -2.86619e-22)
(0.982347 -0.0101751 -2.71884e-22)
(0.982347 -0.0101751 -2.71884e-22)
(0.982593 -0.0105594 -2.25105e-22)
(0.982844 -0.0109386 2.11975e-22)
(0.983099 -0.0113125 3.53924e-23)
(0.983357 -0.0116815 2.31236e-22)
(0.983618 -0.0120476 6.34271e-24)
(0.983881 -0.0124081 -3.56855e-22)
(0.984331 -0.0129701 0)
(0.984979 -0.0136171 0)
(0.985639 -0.0142571 0)
(0.986312 -0.0148628 0)
(0.987 -0.0154291 0)
(0.987701 -0.0159573 0)
(0.988417 -0.016447 0)
(0.989147 -0.0168977 0)
(0.989891 -0.0173091 0)
(0.990649 -0.0176808 0)
(0.991419 -0.0180127 0)
(0.9922 -0.0183047 0)
(0.992992 -0.0185569 0)
(0.993792 -0.0187693 0)
(0.994599 -0.0189422 0)
(0.995411 -0.0190761 0)
(0.996226 -0.0191714 0)
(0.997043 -0.0192287 0)
(0.997859 -0.0192488 0)
(0.998672 -0.0192324 0)
(0.99948 -0.0191804 0)
(1.00028 -0.0190938 0)
(1.00108 -0.0189736 0)
(1.00186 -0.0188207 0)
(1.00263 -0.0186364 0)
(1.00339 -0.0184216 0)
(1.00414 -0.0181775 0)
(1.00487 -0.0179053 0)
(1.00558 -0.0176062 0)
(1.00628 -0.0172811 0)
(1.00671 -0.0164626 0)
(1.00671 -0.0164626 0)
(1.00735 -0.0161032 0)
(1.00798 -0.0157216 0)
(1.00859 -0.0153188 0)
(1.00917 -0.0148959 0)
(1.00974 -0.0144538 0)
(1.01028 -0.0139936 0)
(1.0108 -0.0135162 0)
(1.0113 -0.0130225 0)
(1.01178 -0.0125134 0)
(1.01224 -0.0119899 0)
(1.01268 -0.0114528 0)
(1.01309 -0.010903 0)
(1.01348 -0.0103411 0)
(1.01385 -0.00976819 0)
(1.01419 -0.00918486 0)
(1.01452 -0.00859193 0)
(1.01481 -0.00799013 0)
(1.01509 -0.00738019 0)
(1.01534 -0.00676282 0)
(1.01558 -0.00613872 0)
(1.01578 -0.00550856 0)
(1.01597 -0.00487302 0)
(1.01613 -0.00423275 0)
(1.01627 -0.00358841 0)
(1.01638 -0.00294063 0)
(1.01648 -0.00229005 0)
(1.01655 -0.0016373 0)
(1.01659 -0.000983001 0)
(1.01661 -0.000327772 0)
(0.984331 0.0129693 0)
(0.984978 0.0136163 0)
(0.985638 0.0142564 0)
(0.986312 0.0148621 0)
(0.986999 0.0154283 0)
(0.987701 0.0159565 0)
(0.988417 0.0164463 0)
(0.989147 0.016897 0)
(0.989891 0.0173084 0)
(0.990648 0.0176802 0)
(0.991418 0.0180121 0)
(0.9922 0.0183041 0)
(0.992991 0.0185562 0)
(0.993791 0.0187686 0)
(0.994598 0.0189416 0)
(0.995411 0.0190755 0)
(0.996226 0.0191708 0)
(0.997042 0.0192281 0)
(0.997858 0.0192482 0)
(0.998671 0.0192319 0)
(0.99948 0.0191799 0)
(1.00028 0.0190933 0)
(1.00108 0.0189731 0)
(1.00186 0.0188202 0)
(1.00263 0.0186359 0)
(1.00339 0.0184211 0)
(1.00414 0.0181771 0)
(1.00487 0.0179049 0)
(1.00558 0.0176057 0)
(1.00628 0.0172807 0)
(1.00696 0.0169309 0)
(1.00762 0.0165575 0)
(1.00826 0.0161616 0)
(1.00888 0.0157442 0)
(1.00948 0.0153064 0)
(1.01006 0.0148493 0)
(1.01062 0.0143738 0)
(1.01115 0.013881 0)
(1.01166 0.0133717 0)
(1.01215 0.0128469 0)
(1.01262 0.0123076 0)
(1.01306 0.0117545 0)
(1.01349 0.0111886 0)
(1.01389 0.0106107 0)
(1.01426 0.0100216 0)
(1.01461 0.0094221 0)
(1.01494 0.00881292 0)