/*--------------------------------*- C++ -*----------------------------------*\
  =========                 |
  \\      /  F ield         | OpenFOAM: The Open Source CFD Toolbox
   \\    /   O peration     | Website:  https://openfoam.org
    \\  /    A nd           | Version:  7
     \\/     M anipulation  |
\*---------------------------------------------------------------------------*/
FoamFile
{
    version     2.0;
    format      ascii;
    class       volScalarField;
    location    "42";
    object      p;
}
// * * * * * * * * * * * * * * * * * * * * * * * * * * * * * * * * * * * * * //

dimensions      [0 2 -2 0 0 0 0];

internalField   nonuniform List<scalar> 
40000
(
-0.231465
-0.232342
-0.233003
-0.233544
-0.234033
-0.23447
-0.234863
-0.235219
-0.235548
-0.235856
-0.236148
-0.236428
-0.236698
-0.23696
-0.237214
-0.237458
-0.237692
-0.237911
-0.238115
-0.238298
-0.238459
-0.238595
-0.238704
-0.238785
-0.238838
-0.238865
-0.23887
-0.238856
-0.238826
-0.238797
-0.231564
-0.232435
-0.233091
-0.233629
-0.234114
-0.234549
-0.234939
-0.235293
-0.235619
-0.235925
-0.236214
-0.236492
-0.23676
-0.23702
-0.237272
-0.237515
-0.237746
-0.237963
-0.238164
-0.238345
-0.238504
-0.238636
-0.238742
-0.238819
-0.238868
-0.23889
-0.23889
-0.238871
-0.238834
-0.2388
-0.231766
-0.232625
-0.233272
-0.233803
-0.234282
-0.23471
-0.235095
-0.235444
-0.235766
-0.236066
-0.236352
-0.236625
-0.23689
-0.237146
-0.237394
-0.237632
-0.23786
-0.238073
-0.23827
-0.238446
-0.238599
-0.238726
-0.238825
-0.238894
-0.238935
-0.238948
-0.238939
-0.23891
-0.23886
-0.238819
-0.232068
-0.232909
-0.233543
-0.234064
-0.234533
-0.234953
-0.235329
-0.23567
-0.235985
-0.236279
-0.236558
-0.236825
-0.237084
-0.237334
-0.237576
-0.237809
-0.238031
-0.238238
-0.238429
-0.238598
-0.238744
-0.238862
-0.238952
-0.23901
-0.239038
-0.239038
-0.239014
-0.238971
-0.238901
-0.238849
-0.232468
-0.233286
-0.233902
-0.234409
-0.234865
-0.235273
-0.235639
-0.235971
-0.236276
-0.236561
-0.236831
-0.23709
-0.237341
-0.237583
-0.237818
-0.238043
-0.238257
-0.238457
-0.238639
-0.238799
-0.238935
-0.239043
-0.239119
-0.239163
-0.239174
-0.239155
-0.239113
-0.239051
-0.238955
-0.238886
-0.232961
-0.23375
-0.234346
-0.234835
-0.235276
-0.23567
-0.236022
-0.236341
-0.236635
-0.236909
-0.237168
-0.237417
-0.237657
-0.23789
-0.238114
-0.23833
-0.238535
-0.238725
-0.238897
-0.239046
-0.23917
-0.239263
-0.239324
-0.239349
-0.23934
-0.239298
-0.239231
-0.239144
-0.239014
-0.238922
-0.233543
-0.234299
-0.23487
-0.235339
-0.235761
-0.236138
-0.236475
-0.236779
-0.237058
-0.237319
-0.237565
-0.237801
-0.238029
-0.23825
-0.238463
-0.238667
-0.23886
-0.239038
-0.239198
-0.239335
-0.239443
-0.239521
-0.239562
-0.239566
-0.239531
-0.23946
-0.239363
-0.239246
-0.239074
-0.238951
-0.234208
-0.234927
-0.23547
-0.235916
-0.236317
-0.236674
-0.236992
-0.237279
-0.237542
-0.237787
-0.238018
-0.238239
-0.238452
-0.238659
-0.238858
-0.239049
-0.239229
-0.239393
-0.239538
-0.23966
-0.239752
-0.23981
-0.239829
-0.239807
-0.239742
-0.239637
-0.239503
-0.23935
-0.239128
-0.23896
-0.234951
-0.235628
-0.23614
-0.236561
-0.236938
-0.237274
-0.237571
-0.237838
-0.238082
-0.238308
-0.238521
-0.238725
-0.238922
-0.239112
-0.239295
-0.23947
-0.239634
-0.239783
-0.239912
-0.240016
-0.240089
-0.240125
-0.24012
-0.240068
-0.239969
-0.239823
-0.239646
-0.239449
-0.239168
-0.238937
-0.235764
-0.236397
-0.236876
-0.237269
-0.237621
-0.237932
-0.238206
-0.238451
-0.238673
-0.238878
-0.239071
-0.239255
-0.239432
-0.239603
-0.239769
-0.239926
-0.240072
-0.240203
-0.240313
-0.240398
-0.24045
-0.240462
-0.240429
-0.240345
-0.240206
-0.240014
-0.239785
-0.239537
-0.23919
-0.238861
-0.236641
-0.237228
-0.237672
-0.238036
-0.238359
-0.238643
-0.238892
-0.239112
-0.23931
-0.239491
-0.239661
-0.239822
-0.239977
-0.240127
-0.240272
-0.240408
-0.240534
-0.240645
-0.240735
-0.240799
-0.240827
-0.240814
-0.24075
-0.24063
-0.240448
-0.240204
-0.239913
-0.239607
-0.239191
-0.238698
-0.237576
-0.238115
-0.238523
-0.238855
-0.239148
-0.239404
-0.239625
-0.239817
-0.239988
-0.240143
-0.240287
-0.240422
-0.240552
-0.240678
-0.240799
-0.240912
-0.241016
-0.241104
-0.241172
-0.241212
-0.241216
-0.241174
-0.241078
-0.240919
-0.240691
-0.240388
-0.240027
-0.239655
-0.239177
-0.238367
-0.238562
-0.239053
-0.239423
-0.239722
-0.239984
-0.240208
-0.240399
-0.240561
-0.240703
-0.240828
-0.240942
-0.241049
-0.241151
-0.241249
-0.241343
-0.24143
-0.241508
-0.241572
-0.241615
-0.24163
-0.241607
-0.241536
-0.241406
-0.241207
-0.240928
-0.240562
-0.240121
-0.239676
-0.239156
-0.23782
-0.239593
-0.240036
-0.240368
-0.240633
-0.240861
-0.241053
-0.24121
-0.24134
-0.241448
-0.241541
-0.241622
-0.241697
-0.241767
-0.241834
-0.241898
-0.241956
-0.242006
-0.242042
-0.242058
-0.242046
-0.241995
-0.241893
-0.241728
-0.241486
-0.241155
-0.240722
-0.240197
-0.239648
-0.238986
-0.237631
-0.240664
-0.241059
-0.241353
-0.241584
-0.241777
-0.241933
-0.242055
-0.242149
-0.242221
-0.242277
-0.242322
-0.242361
-0.242395
-0.242427
-0.242457
-0.242483
-0.242501
-0.242507
-0.242494
-0.242452
-0.24237
-0.242237
-0.242035
-0.241751
-0.241366
-0.240864
-0.24025
-0.23959
-0.238736
-0.237303
-0.241771
-0.24212
-0.242375
-0.24257
-0.242727
-0.242846
-0.24293
-0.242985
-0.243018
-0.243033
-0.243038
-0.243036
-0.243031
-0.243024
-0.243015
-0.243004
-0.242988
-0.24296
-0.242914
-0.24284
-0.242727
-0.24256
-0.242322
-0.241994
-0.241555
-0.240982
-0.240276
-0.239499
-0.238461
-0.23678
-0.24291
-0.243214
-0.243432
-0.243591
-0.24371
-0.243789
-0.243833
-0.243846
-0.243834
-0.243806
-0.243766
-0.243719
-0.243669
-0.243618
-0.243567
-0.243515
-0.243459
-0.243394
-0.243312
-0.243203
-0.243056
-0.242854
-0.242578
-0.242207
-0.241715
-0.241073
-0.24027
-0.239369
-0.238153
-0.236089
-0.244079
-0.244341
-0.244522
-0.244643
-0.244723
-0.244761
-0.244761
-0.244728
-0.244669
-0.244592
-0.244502
-0.244405
-0.244306
-0.244206
-0.244108
-0.24401
-0.24391
-0.243803
-0.243681
-0.243535
-0.24335
-0.243111
-0.242797
-0.242383
-0.241838
-0.241127
-0.240227
-0.239199
-0.237811
-0.235236
-0.245278
-0.2455
-0.245644
-0.245729
-0.245768
-0.245762
-0.245714
-0.245632
-0.245521
-0.24539
-0.245246
-0.245094
-0.244939
-0.244786
-0.244635
-0.244486
-0.244337
-0.244184
-0.244018
-0.243829
-0.243604
-0.243325
-0.24297
-0.242511
-0.241915
-0.241138
-0.240142
-0.238982
-0.237442
-0.23422
-0.246506
-0.246692
-0.2468
-0.246847
-0.246843
-0.246791
-0.246693
-0.246557
-0.24639
-0.2462
-0.245996
-0.245783
-0.245568
-0.245355
-0.245146
-0.24494
-0.244737
-0.244532
-0.244317
-0.244082
-0.243812
-0.24349
-0.243091
-0.242586
-0.241937
-0.241094
-0.240005
-0.238711
-0.237055
-0.233048
-0.247768
-0.24792
-0.247993
-0.248001
-0.247953
-0.247851
-0.247699
-0.247504
-0.247276
-0.247023
-0.246753
-0.246474
-0.246193
-0.245914
-0.24564
-0.245373
-0.24511
-0.244847
-0.244578
-0.244291
-0.243972
-0.243602
-0.243156
-0.2426
-0.241896
-0.240988
-0.239808
-0.238373
-0.236654
-0.231738
-0.249068
-0.249188
-0.249226
-0.249194
-0.249099
-0.248944
-0.248735
-0.248478
-0.248183
-0.24786
-0.247519
-0.247168
-0.246814
-0.246464
-0.24612
-0.245785
-0.245456
-0.245131
-0.244801
-0.244458
-0.244084
-0.243661
-0.243161
-0.242551
-0.241787
-0.240811
-0.239541
-0.237956
-0.236238
-0.23032
-0.250413
-0.250502
-0.250506
-0.250432
-0.250288
-0.250077
-0.249804
-0.24948
-0.249114
-0.248716
-0.248298
-0.247869
-0.247437
-0.247009
-0.246589
-0.246179
-0.24578
-0.245386
-0.244991
-0.244585
-0.244151
-0.243669
-0.24311
-0.242439
-0.241608
-0.240559
-0.239201
-0.237449
-0.235796
-0.228839
-0.25181
-0.25187
-0.251839
-0.251721
-0.251525
-0.251253
-0.250914
-0.250517
-0.250074
-0.249596
-0.249094
-0.248581
-0.248065
-0.247554
-0.247052
-0.246563
-0.246086
-0.245619
-0.245154
-0.244679
-0.244179
-0.243632
-0.243008
-0.242268
-0.241364
-0.240233
-0.238784
-0.23685
-0.235307
-0.227359
-0.25327
-0.253302
-0.253234
-0.253069
-0.252817
-0.252481
-0.25207
-0.251595
-0.251069
-0.250505
-0.249915
-0.249312
-0.248706
-0.248106
-0.247517
-0.246944
-0.246385
-0.245839
-0.245297
-0.244749
-0.244177
-0.243559
-0.242862
-0.242047
-0.24106
-0.239839
-0.238295
-0.236173
-0.234743
-0.225961
-0.254806
-0.254809
-0.254701
-0.254486
-0.254174
-0.253769
-0.253281
-0.252723
-0.252108
-0.251452
-0.250768
-0.25007
-0.249369
-0.248675
-0.247994
-0.247331
-0.246686
-0.246056
-0.245433
-0.244807
-0.244157
-0.243461
-0.242685
-0.241785
-0.240707
-0.239385
-0.237736
-0.235439
-0.234067
-0.224744
-0.256432
-0.256402
-0.256251
-0.255983
-0.255606
-0.255126
-0.254556
-0.253909
-0.2532
-0.252447
-0.251664
-0.250865
-0.250064
-0.249271
-0.248494
-0.247737
-0.247001
-0.246283
-0.245575
-0.244864
-0.244131
-0.24335
-0.242486
-0.241493
-0.240315
-0.238884
-0.237111
-0.234674
-0.233209
-0.22375
-0.258163
-0.258096
-0.257899
-0.257572
-0.257123
-0.256563
-0.255905
-0.255163
-0.254355
-0.253499
-0.252611
-0.251708
-0.250803
-0.249907
-0.24903
-0.248175
-0.247344
-0.246533
-0.245735
-0.244934
-0.244111
-0.243237
-0.242276
-0.241181
-0.239894
-0.23835
-0.236433
-0.23392
-0.232047
-0.222866
-0.260015
-0.259906
-0.259656
-0.259264
-0.258739
-0.258093
-0.25734
-0.256497
-0.255585
-0.254621
-0.253624
-0.252611
-0.251598
-0.250596
-0.249614
-0.248658
-0.247728
-0.24682
-0.245926
-0.245029
-0.244107
-0.24313
-0.242061
-0.240854
-0.239451
-0.237797
-0.235751
-0.233284
-0.230608
-0.222297
-0.262005
-0.261848
-0.261538
-0.261074
-0.260466
-0.259727
-0.258873
-0.257924
-0.256901
-0.255824
-0.254713
-0.253587
-0.252462
-0.25135
-0.250261
-0.2492
-0.248167
-0.247158
-0.246161
-0.245159
-0.244128
-0.243036
-0.241845
-0.240509
-0.238978
-0.237218
-0.235088
-0.232844
-0.22945
-0.224285
-0.264152
-0.263936
-0.263559
-0.263017
-0.262318
-0.261478
-0.260516
-0.259455
-0.258316
-0.257121
-0.255893
-0.25465
-0.25341
-0.252185
-0.250986
-0.249816
-0.248676
-0.247558
-0.246451
-0.245333
-0.244179
-0.242955
-0.241621
-0.240136
-0.238456
-0.236568
-0.234364
-0.232324
-0.229108
-0.231603
-0.266474
-0.266189
-0.265735
-0.265105
-0.264307
-0.26336
-0.262284
-0.261104
-0.259844
-0.258527
-0.257177
-0.255814
-0.254455
-0.253115
-0.251801
-0.250518
-0.249265
-0.248031
-0.246802
-0.245555
-0.24426
-0.242881
-0.241379
-0.239715
-0.237853
-0.235794
-0.233475
-0.231367
-0.2284
-0.230113
-0.268989
-0.268622
-0.268081
-0.267355
-0.266449
-0.265386
-0.264189
-0.262884
-0.261498
-0.260055
-0.258579
-0.257092
-0.255612
-0.254152
-0.25272
-0.251319
-0.249944
-0.248584
-0.247219
-0.245824
-0.244365
-0.242805
-0.241104
-0.239225
-0.237139
-0.234855
-0.232336
-0.229955
-0.22688
-0.226956
-0.271714
-0.271251
-0.270612
-0.26978
-0.268757
-0.26757
-0.266245
-0.26481
-0.263291
-0.261718
-0.260113
-0.258499
-0.256894
-0.25531
-0.253755
-0.252228
-0.250721
-0.249221
-0.247703
-0.246137
-0.244488
-0.242714
-0.240778
-0.238644
-0.236291
-0.233727
-0.230931
-0.228173
-0.224817
-0.223513
-0.274666
-0.274092
-0.273344
-0.272394
-0.271246
-0.269927
-0.268466
-0.266894
-0.265239
-0.26353
-0.261792
-0.260048
-0.258314
-0.256601
-0.254915
-0.253252
-0.251601
-0.249943
-0.248249
-0.246486
-0.244613
-0.242591
-0.240381
-0.237954
-0.235292
-0.232405
-0.229282
-0.226109
-0.222418
-0.219983
-0.277862
-0.277161
-0.276289
-0.275213
-0.273929
-0.272469
-0.270865
-0.26915
-0.267353
-0.265505
-0.26363
-0.261751
-0.259883
-0.258035
-0.256209
-0.254397
-0.252585
-0.250746
-0.24885
-0.246857
-0.244726
-0.242418
-0.239897
-0.23714
-0.234135
-0.230896
-0.227418
-0.223837
-0.219805
-0.216554
-0.281315
-0.28047
-0.279463
-0.278248
-0.276818
-0.275209
-0.273456
-0.271591
-0.269648
-0.267656
-0.26564
-0.263621
-0.261612
-0.25962
-0.257642
-0.255665
-0.253669
-0.251623
-0.249492
-0.247234
-0.244807
-0.242175
-0.239308
-0.23619
-0.232818
-0.229211
-0.225373
-0.22141
-0.217064
-0.213226
-0.28504
-0.284034
-0.282877
-0.281513
-0.279928
-0.278161
-0.276251
-0.274232
-0.272137
-0.269996
-0.267833
-0.265668
-0.26351
-0.261362
-0.259215
-0.257052
-0.254846
-0.252562
-0.25016
-0.247598
-0.244837
-0.241844
-0.2386
-0.235097
-0.231343
-0.227365
-0.223175
-0.218865
-0.214238
-0.209985
-0.289048
-0.287863
-0.286544
-0.285019
-0.283269
-0.281337
-0.279263
-0.277083
-0.274831
-0.272536
-0.270221
-0.267901
-0.265583
-0.263263
-0.260927
-0.258552
-0.256105
-0.253546
-0.250834
-0.247928
-0.244794
-0.241408
-0.237761
-0.233857
-0.229717
-0.225373
-0.220846
-0.216223
-0.211349
-0.206795
-0.293351
-0.291969
-0.290473
-0.288778
-0.286854
-0.284748
-0.282504
-0.280158
-0.277744
-0.275288
-0.272812
-0.270327
-0.267834
-0.265322
-0.262772
-0.260154
-0.257428
-0.254555
-0.251491
-0.248201
-0.244659
-0.240852
-0.236783
-0.23247
-0.227944
-0.223245
-0.218402
-0.213496
-0.208403
-0.20362
-0.297955
-0.296359
-0.294674
-0.292798
-0.290691
-0.288405
-0.285985
-0.283467
-0.280884
-0.278261
-0.275614
-0.27295
-0.270262
-0.267534
-0.264739
-0.26184
-0.258796
-0.255564
-0.252106
-0.248394
-0.244412
-0.240161
-0.235659
-0.230936
-0.226031
-0.220991
-0.215851
-0.210688
-0.205396
-0.200428
-0.302868
-0.30104
-0.299154
-0.297087
-0.294791
-0.292317
-0.289715
-0.28702
-0.284261
-0.28146
-0.27863
-0.275768
-0.272863
-0.269889
-0.266812
-0.263591
-0.260182
-0.256547
-0.252653
-0.248483
-0.244036
-0.239326
-0.234386
-0.229255
-0.223983
-0.218618
-0.2132
-0.207799
-0.202325
-0.197193
-0.308093
-0.306016
-0.303918
-0.301652
-0.299158
-0.296492
-0.293702
-0.290822
-0.287879
-0.28489
-0.281859
-0.278778
-0.275625
-0.272369
-0.268968
-0.265379
-0.261559
-0.257475
-0.253106
-0.248448
-0.243515
-0.238338
-0.232959
-0.227429
-0.221802
-0.216129
-0.210449
-0.204825
-0.199179
-0.193896
-0.31363
-0.31129
-0.308968
-0.306496
-0.303798
-0.300934
-0.29795
-0.294879
-0.291742
-0.288549
-0.285297
-0.281968
-0.278533
-0.274952
-0.271181
-0.267174
-0.262895
-0.258319
-0.25344
-0.248269
-0.242837
-0.237188
-0.231376
-0.225458
-0.219491
-0.213524
-0.207596
-0.20176
-0.195951
-0.190519
-0.319477
-0.316858
-0.314303
-0.311619
-0.308713
-0.305645
-0.302461
-0.29919
-0.295846
-0.29243
-0.288931
-0.285322
-0.281564
-0.277611
-0.273417
-0.268942
-0.264156
-0.259048
-0.253629
-0.247927
-0.241988
-0.235869
-0.229633
-0.22334
-0.217047
-0.210801
-0.204637
-0.198599
-0.192631
-0.187051
-0.325626
-0.322715
-0.31992
-0.317018
-0.313899
-0.310623
-0.307234
-0.303751
-0.300184
-0.296523
-0.292746
-0.288816
-0.284687
-0.280311
-0.275642
-0.270646
-0.265308
-0.259634
-0.25365
-0.247404
-0.240957
-0.234375
-0.227726
-0.221073
-0.214468
-0.207955
-0.201564
-0.195331
-0.189209
-0.183481
-0.332066
-0.328851
-0.32581
-0.322687
-0.319352
-0.315863
-0.312259
-0.308553
-0.304742
-0.300807
-0.296715
-0.292419
-0.287868
-0.283012
-0.277813
-0.272248
-0.266317
-0.260046
-0.253481
-0.246687
-0.239734
-0.232699
-0.225651
-0.218651
-0.211747
-0.204979
-0.198371
-0.19195
-0.185677
-0.1798
-0.338779
-0.335252
-0.33196
-0.328614
-0.32506
-0.321352
-0.317524
-0.313579
-0.3095
-0.305257
-0.300806
-0.296093
-0.291064
-0.285672
-0.279888
-0.273707
-0.267148
-0.260258
-0.253102
-0.245758
-0.238309
-0.230833
-0.2234
-0.216067
-0.208878
-0.201864
-0.195047
-0.188444
-0.182026
-0.175999
-0.345743
-0.341897
-0.338351
-0.334781
-0.331005
-0.327074
-0.32301
-0.318804
-0.314429
-0.309839
-0.304981
-0.299795
-0.294228
-0.288242
-0.281823
-0.274984
-0.267769
-0.260244
-0.252492
-0.244605
-0.23667
-0.228768
-0.220965
-0.213314
-0.205851
-0.198602
-0.191583
-0.184805
-0.178245
-0.172071
-0.352929
-0.348759
-0.344959
-0.341165
-0.337166
-0.333003
-0.328689
-0.3242
-0.319492
-0.31451
-0.309191
-0.303474
-0.297309
-0.290673
-0.283571
-0.27604
-0.268147
-0.259978
-0.251634
-0.243213
-0.234807
-0.226494
-0.218337
-0.21038
-0.202655
-0.195182
-0.187969
-0.181022
-0.174325
-0.168008
-0.360302
-0.355806
-0.351754
-0.347737
-0.343512
-0.339108
-0.334526
-0.329725
-0.324645
-0.319221
-0.313383
-0.307072
-0.300251
-0.292913
-0.285087
-0.276836
-0.268251
-0.259438
-0.250508
-0.241567
-0.232705
-0.223999
-0.215503
-0.207255
-0.19928
-0.191591
-0.184194
-0.177085
-0.170257
-0.163801
-0.367818
-0.362998
-0.358697
-0.354459
-0.350005
-0.34535
-0.340479
-0.335332
-0.329836
-0.323915
-0.317498
-0.310532
-0.302997
-0.294909
-0.286325
-0.277336
-0.268053
-0.2586
-0.249097
-0.239652
-0.230354
-0.221271
-0.212451
-0.203927
-0.195714
-0.18782
-0.180245
-0.172984
-0.166032
-0.159443
-0.375427
-0.370288
-0.365744
-0.361288
-0.356601
-0.351682
-0.346495
-0.340965
-0.335003
-0.328527
-0.321469
-0.313788
-0.305487
-0.29661
-0.287243
-0.277503
-0.267523
-0.257441
-0.247382
-0.237452
-0.227736
-0.218295
-0.209169
-0.200381
-0.191942
-0.183854
-0.176113
-0.168708
-0.16164
-0.154926
-0.383073
-0.377623
-0.372842
-0.368171
-0.363246
-0.358046
-0.352516
-0.34656
-0.34008
-0.332989
-0.325228
-0.316776
-0.307663
-0.297964
-0.287797
-0.277303
-0.266636
-0.255941
-0.245345
-0.234952
-0.224839
-0.215058
-0.205641
-0.196605
-0.187953
-0.179683
-0.171786
-0.164248
-0.157072
-0.150242
-0.390691
-0.384941
-0.379933
-0.37505
-0.36988
-0.36438
-0.358474
-0.352047
-0.344992
-0.337226
-0.328703
-0.319429
-0.309465
-0.298922
-0.287946
-0.276705
-0.265364
-0.254076
-0.242967
-0.232133
-0.221644
-0.211543
-0.201853
-0.192584
-0.183733
-0.175293
-0.167252
-0.159593
-0.152319
-0.145384
-0.398208
-0.392173
-0.386949
-0.381857
-0.376435
-0.370613
-0.364293
-0.357347
-0.34966
-0.34116
-0.331822
-0.321682
-0.310838
-0.299436
-0.287653
-0.275677
-0.263683
-0.251827
-0.240229
-0.22898
-0.218137
-0.207736
-0.197791
-0.188304
-0.179269
-0.170674
-0.162501
-0.154735
-0.147373
-0.140345
-0.405547
-0.399246
-0.393817
-0.388518
-0.382833
-0.376665
-0.369893
-0.362377
-0.354003
-0.344713
-0.33451
-0.323469
-0.311725
-0.299461
-0.286881
-0.274188
-0.261568
-0.249171
-0.237113
-0.225473
-0.2143
-0.203619
-0.193438
-0.183752
-0.174549
-0.165813
-0.157524
-0.149664
-0.142226
-0.135119
-0.412623
-0.406077
-0.400457
-0.394952
-0.388993
-0.382451
-0.375187
-0.367049
-0.357934
-0.347803
-0.336696
-0.324727
-0.312074
-0.298953
-0.285594
-0.272211
-0.258993
-0.246087
-0.233598
-0.221594
-0.210116
-0.199178
-0.188781
-0.178913
-0.169559
-0.160699
-0.152309
-0.144371
-0.13687
-0.1297
-0.419347
-0.41258
-0.406782
-0.401073
-0.394825
-0.387881
-0.380083
-0.371275
-0.361367
-0.350351
-0.338308
-0.325396
-0.311835
-0.297873
-0.283759
-0.269719
-0.255937
-0.242554
-0.229665
-0.217327
-0.205569
-0.194397
-0.183804
-0.173775
-0.164289
-0.155322
-0.146848
-0.138848
-0.131299
-0.124083
-0.425625
-0.418662
-0.412702
-0.406789
-0.400238
-0.392861
-0.384487
-0.374961
-0.364216
-0.35228
-0.339279
-0.32542
-0.310961
-0.296182
-0.281347
-0.266685
-0.252377
-0.238553
-0.225297
-0.212654
-0.200642
-0.18926
-0.178494
-0.168325
-0.158726
-0.149671
-0.141131
-0.133087
-0.125506
-0.118265
-0.431358
-0.42423
-0.418121
-0.412004
-0.405134
-0.397294
-0.388303
-0.378017
-0.366396
-0.353513
-0.339544
-0.324744
-0.30941
-0.293845
-0.278327
-0.263084
-0.24829
-0.234063
-0.220474
-0.207556
-0.195319
-0.183753
-0.172839
-0.16255
-0.15286
-0.143737
-0.135151
-0.127082
-0.119484
-0.11224
-0.436447
-0.429184
-0.422943
-0.41662
-0.409414
-0.401081
-0.391436
-0.380352
-0.367826
-0.35398
-0.339044
-0.323319
-0.30714
-0.29083
-0.274673
-0.258894
-0.243657
-0.229066
-0.215179
-0.20202
-0.189586
-0.177863
-0.166824
-0.156441
-0.14668
-0.13751
-0.128898
-0.120824
-0.113229
-0.106003
-0.440792
-0.433426
-0.427066
-0.420537
-0.412977
-0.404124
-0.393791
-0.381879
-0.368427
-0.353613
-0.337722
-0.321101
-0.304116
-0.287107
-0.27036
-0.254093
-0.238457
-0.223544
-0.209397
-0.196029
-0.18343
-0.171577
-0.16044
-0.149986
-0.140179
-0.130984
-0.122368
-0.114308
-0.106734
-0.099548
-0.44429
-0.436854
-0.430393
-0.423654
-0.415725
-0.406325
-0.395276
-0.382513
-0.368126
-0.352351
-0.335527
-0.318048
-0.300305
-0.282649
-0.265365
-0.248661
-0.232674
-0.21748
-0.203112
-0.18957
-0.176838
-0.164885
-0.153677
-0.143177
-0.133348
-0.12415
-0.115551
-0.107528
-0.0999946
-0.0928738
-0.446842
-0.439371
-0.432823
-0.425872
-0.41756
-0.40759
-0.395805
-0.382177
-0.366855
-0.350137
-0.332416
-0.314125
-0.295678
-0.277433
-0.259669
-0.242581
-0.226291
-0.210861
-0.19631
-0.182631
-0.169798
-0.157776
-0.146525
-0.136007
-0.126179
-0.117003
-0.108444
-0.100477
-0.0930089
-0.0859807
-0.448352
-0.44088
-0.434259
-0.427096
-0.418387
-0.407831
-0.395294
-0.380798
-0.364554
-0.346921
-0.328348
-0.3093
-0.29021
-0.271438
-0.253253
-0.235836
-0.219293
-0.203672
-0.188981
-0.175202
-0.162303
-0.150242
-0.138979
-0.128468
-0.118668
-0.109536
-0.101038
-0.0931484
-0.085771
-0.0788653
-0.448727
-0.441289
-0.434611
-0.427233
-0.418118
-0.406964
-0.393669
-0.378311
-0.361168
-0.342661
-0.323288
-0.303546
-0.28388
-0.264646
-0.246102
-0.228414
-0.21167
-0.195905
-0.181115
-0.167275
-0.154344
-0.142279
-0.131032
-0.120557
-0.11081
-0.101745
-0.0933248
-0.0855285
-0.0782629
-0.071496
-0.44788
-0.440509
-0.433788
-0.426196
-0.416668
-0.40491
-0.39086
-0.374658
-0.35665
-0.33732
-0.317209
-0.296843
-0.276671
-0.257044
-0.238205
-0.220303
-0.203411
-0.18755
-0.172705
-0.158842
-0.145917
-0.13388
-0.122682
-0.112272
-0.102604
-0.0936283
-0.0853051
-0.0776147
-0.0704614
-0.0637868
-0.445729
-0.438458
-0.431709
-0.423906
-0.413963
-0.401602
-0.386808
-0.36979
-0.350961
-0.330867
-0.310089
-0.289172
-0.268569
-0.24862
-0.229552
-0.211496
-0.19451
-0.178601
-0.163745
-0.149901
-0.137019
-0.125045
-0.113927
-0.103612
-0.0940508
-0.0851902
-0.0769888
-0.0694321
-0.0623889
-0.0556444
-0.4422
-0.435063
-0.428301
-0.420289
-0.409933
-0.396977
-0.381462
-0.363664
-0.344069
-0.323279
-0.301911
-0.280523
-0.259567
-0.239368
-0.220137
-0.201988
-0.184962
-0.169054
-0.154233
-0.140449
-0.127648
-0.115773
-0.104768
-0.0945795
-0.085153
-0.0764341
-0.0683862
-0.0610049
-0.0541189
-0.0471974
-0.437229
-0.430256
-0.423497
-0.415283
-0.404521
-0.390986
-0.374778
-0.356248
-0.335952
-0.314541
-0.292664
-0.270888
-0.249658
-0.229284
-0.209958
-0.191776
-0.174765
-0.15891
-0.144168
-0.130487
-0.117806
-0.106066
-0.0952087
-0.0851768
-0.0759143
-0.0673649
-0.0595008
-0.0522977
-0.0454702
-0.0388833
-0.43076
-0.423982
-0.417239
-0.408832
-0.397676
-0.383585
-0.366724
-0.34752
-0.326593
-0.304643
-0.282344
-0.260265
-0.238842
-0.218369
-0.199016
-0.180863
-0.163923
-0.14817
-0.133555
-0.120018
-0.107497
-0.095929
-0.0852525
-0.0754095
-0.0663415
-0.0579919
-0.050334
-0.0433205
-0.0366321
-0.0304033
-0.422745
-0.41619
-0.40948
-0.400892
-0.38936
-0.374744
-0.357278
-0.337463
-0.315984
-0.293583
-0.270951
-0.248658
-0.227125
-0.206626
-0.187314
-0.169252
-0.152439
-0.136839
-0.122396
-0.109048
-0.0967263
-0.0853678
-0.0749071
-0.0652847
-0.0564406
-0.048319
-0.040892
-0.0340957
-0.027601
-0.0217029
-0.413151
-0.406846
-0.400185
-0.391429
-0.379545
-0.364441
-0.346425
-0.326073
-0.304127
-0.281366
-0.258493
-0.236074
-0.214513
-0.194064
-0.174862
-0.156951
-0.14032
-0.124924
-0.110701
-0.097585
-0.0855035
-0.0743902
-0.0641799
-0.0548105
-0.0462205
-0.0383542
-0.0311842
-0.0246343
-0.0183631
-0.0127812
-0.401951
-0.395922
-0.389326
-0.380421
-0.368212
-0.352666
-0.334163
-0.313351
-0.291028
-0.268002
-0.244982
-0.222526
-0.201019
-0.180696
-0.16167
-0.143971
-0.127578
-0.112437
-0.0984814
-0.085639
-0.0738375
-0.0630072
-0.0530816
-0.0439972
-0.035691
-0.0281075
-0.0212205
-0.0149427
-0.00891438
-0.00365239
-0.389132
-0.383402
-0.376889
-0.367855
-0.355356
-0.339418
-0.320497
-0.299311
-0.276704
-0.253508
-0.230437
-0.208032
-0.186661
-0.166536
-0.147753
-0.130328
-0.114227
-0.0993914
-0.0857485
-0.0732234
-0.0617416
-0.0512313
-0.0416247
-0.0328569
-0.0248637
-0.0175901
-0.0110117
-0.00502877
0.000739598
0.00567042
-0.374691
-0.369282
-0.36287
-0.353731
-0.340981
-0.324708
-0.305444
-0.28397
-0.261175
-0.237908
-0.214879
-0.192615
-0.17146
-0.151606
-0.133132
-0.116038
-0.100284
-0.0858032
-0.072519
-0.0603537
-0.0492308
-0.0390771
-0.0298233
-0.0214035
-0.0137523
-0.00681536
-0.000570116
0.00509678
0.0105884
0.0151738
-0.358637
-0.35357
-0.347277
-0.33806
-0.3251
-0.308555
-0.289026
-0.267357
-0.244472
-0.221232
-0.198339
-0.176301
-0.155441
-0.135929
-0.117827
-0.101124
-0.0857696
-0.0716918
-0.0588114
-0.0470477
-0.0363226
-0.0265613
-0.0176938
-0.00965278
-0.00237204
0.00420197
0.0100901
0.0154206
0.0206182
0.0248435
-0.340989
-0.336282
-0.330128
-0.320862
-0.30774
-0.290988
-0.271277
-0.249507
-0.226631
-0.203517
-0.180851
-0.159123
-0.138634
-0.119533
-0.101866
-0.0856095
-0.0707062
-0.0570795
-0.0446468
-0.0333255
-0.0230361
-0.0137027
-0.00525408
0.00237775
0.00926004
0.0154452
0.0209529
0.0259268
0.0308127
0.0346634
-0.321779
-0.317449
-0.311453
-0.30217
-0.288936
-0.272046
-0.252237
-0.230462
-0.207697
-0.184802
-0.162451
-0.141117
-0.121073
-0.10245
-0.0852769
-0.0695221
-0.0551203
-0.0419909
-0.0300487
-0.0192097
-0.00939283
-0.000521587
0.00747601
0.014669
0.0211252
0.0268959
0.0319999
0.0365972
0.0411531
0.0446157
-0.301047
-0.297108
-0.291291
-0.282025
-0.268733
-0.251777
-0.23196
-0.210281
-0.187711
-0.165126
-0.143184
-0.122322
-0.102795
-0.0847137
-0.0680934
-0.0528929
-0.0390409
-0.0264534
-0.0150431
-0.00472462
0.0045839
0.0129597
0.0204752
0.0272002
0.0332033
0.0385342
0.0432114
0.0474116
0.0516177
0.0546781
-0.278844
-0.27531
-0.269693
-0.260479
-0.247185
-0.23024
-0.210513
-0.189037
-0.166694
-0.144543
-0.123096
-0.102783
-0.0838415
-0.0663635
-0.0503514
-0.0357557
-0.0224998
-0.0104969
0.000341902
0.0101031
0.018869
0.0267173
0.0337208
0.0399497
0.0454728
0.0503386
0.0545659
0.0583476
0.062181
0.0648208
-0.255234
-0.252113
-0.246718
-0.237594
-0.224356
-0.207502
-0.187941
-0.166688
-0.1448
-0.123121
-0.102241
-0.0825498
-0.0642581
-0.0474413
-0.03209
-0.018147
-0.00553131
0.00584636
0.0160761
0.0252451
0.0334359
0.0407262
0.0471889
0.0528945
0.0579117
0.0622873
0.066041
0.0693808
0.0728127
0.0750079
-0.230286
-0.227586
-0.222434
-0.213441
-0.200319
-0.183625
-0.164285
-0.143421
-0.122022
-0.100912
-0.0806752
-0.0616736
-0.0440929
-0.0279922
-0.0133513
-0.000106143
0.0118278
0.022542
0.0321273
0.0406712
0.0482562
0.0549599
0.0608548
0.0660114
0.0704976
0.0743579
0.0776139
0.0804859
0.0834812
0.0852086
-0.204079
-0.201804
-0.196918
-0.188097
-0.175144
-0.158663
-0.139679
-0.119269
-0.0984355
-0.0779793
-0.0584587
-0.0402103
-0.0233975
-0.00806418
0.00581999
0.018325
0.0295385
0.0395534
0.0484613
0.0563495
0.0633004
0.0693909
0.0746931
0.0792767
0.083208
0.0865287
0.0892629
0.0916409
0.094162
0.0953997
-0.176687
-0.174857
-0.170254
-0.161639
-0.148905
-0.132745
-0.114179
-0.094306
-0.0741184
-0.054391
-0.035654
-0.0182181
-0.00222641
0.012292
0.0253765
0.0371022
0.0475594
0.0568421
0.0650422
0.0722467
0.0785376
0.0839907
0.0886775
0.0926665
0.0960206
0.0987781
0.100969
0.102832
0.104838
0.105518
-0.14818
-0.146846
-0.142536
-0.134157
-0.121718
-0.105939
-0.0878691
-0.0686136
-0.0491476
-0.0302185
-0.0123271
0.00424123
0.0193632
0.0330231
0.0452685
0.056179
0.0658471
0.0743675
0.0818322
0.0883278
0.0939354
0.0987299
0.102782
0.106157
0.108913
0.111086
0.112717
0.114049
0.115459
0.115404
-0.11864
-0.117908
-0.113857
-0.105759
-0.0936693
-0.0783392
-0.0608406
-0.0422772
-0.0236029
-0.00553589
0.011453
0.0271037
0.0413116
0.0540734
0.065444
0.0755069
0.0843563
0.0920875
0.0987922
0.104556
0.10946
0.113578
0.116978
0.119724
0.121867
0.123439
0.124504
0.125274
0.125913
0.124886
-0.0883111
-0.0880411
-0.0843241
-0.0765485
-0.0648591
-0.0500432
-0.0331866
-0.0153848
0.00243294
0.0195797
0.0356148
0.0503028
0.0635568
0.0753851
0.085849
0.0950355
0.10304
0.109958
0.115881
0.120894
0.125077
0.128503
0.13124
0.133346
0.134866
0.135839
0.136352
0.136516
0.136142
0.134012
-0.0572352
-0.0573972
-0.0540483
-0.0466318
-0.0353927
-0.0211528
-0.00500385
0.0119726
0.0288749
0.045049
0.0600845
0.0737699
0.086035
0.0968987
0.106428
0.114713
0.12185
0.127934
0.133057
0.137302
0.14075
0.143472
0.145534
0.146994
0.147893
0.148288
0.148285
0.147832
0.146368
0.143335
-0.0254991
-0.0261107
-0.0231428
-0.016119
-0.00537888
0.00822752
0.0236086
0.0397016
0.0556357
0.0707908
0.0847866
0.0974346
0.108681
0.118553
0.127124
0.134485
0.140735
0.145968
0.150275
0.153739
0.15644
0.158447
0.159828
0.160637
0.160919
0.160755
0.160255
0.159165
0.156683
0.154931
0.00677267
0.00570173
0.0082764
0.0148757
0.0250711
0.0379909
0.0525494
0.067707
0.0826265
0.0967224
0.109644
0.121225
0.131427
0.140285
0.147878
0.154299
0.159645
0.164013
0.167491
0.170163
0.172107
0.173392
0.174085
0.174239
0.173904
0.173175
0.172129
0.170443
0.167629
0.16656
0.0394535
0.0379206
0.0400896
0.0462347
0.0558434
0.0680285
0.0817155
0.0958923
0.109757
0.12276
0.134578
0.145069
0.154205
0.162032
0.168631
0.174097
0.178528
0.182019
0.184659
0.186531
0.18771
0.188268
0.188268
0.187764
0.186813
0.185506
0.183892
0.181656
0.178568
0.177448
0.0724172
0.0704227
0.0721747
0.0778386
0.0868227
0.0982302
0.111003
0.12416
0.136936
0.148818
0.159511
0.168892
0.176947
0.183729
0.189322
0.193824
0.197331
0.199938
0.201734
0.202799
0.20321
0.203035
0.202339
0.201176
0.199605
0.197713
0.195533
0.192789
0.189394
0.187947
0.105537
0.103083
0.104408
0.109567
0.117893
0.128485
0.140307
0.152412
0.164073
0.174811
0.184362
0.192619
0.199583
0.205311
0.209892
0.213422
0.216
0.21772
0.218667
0.218923
0.218563
0.217656
0.216263
0.214439
0.212245
0.209763
0.207017
0.203765
0.200002
0.198123
0.138683
0.135775
0.136665
0.141297
0.148936
0.158681
0.169523
0.180549
0.191075
0.200655
0.209051
0.216177
0.222043
0.226714
0.230279
0.232836
0.234484
0.235314
0.235413
0.23486
0.23373
0.23209
0.230001
0.227518
0.2247
0.221626
0.218315
0.214551
0.210378
0.208021
0.171729
0.168372
0.168821
0.172908
0.179835
0.188709
0.198546
0.208475
0.217851
0.226263
0.2335
0.239492
0.244259
0.247872
0.250422
0.252008
0.252727
0.252671
0.251924
0.250566
0.248669
0.246299
0.243517
0.240377
0.236937
0.233272
0.229398
0.225116
0.220511
0.217652
0.204546
0.200747
0.20075
0.204279
0.210475
0.218456
0.227272
0.236091
0.244309
0.251551
0.257628
0.262488
0.266161
0.268721
0.270261
0.270882
0.270679
0.269742
0.268156
0.265998
0.26334
0.260246
0.256777
0.252985
0.248927
0.244674
0.240238
0.235438
0.230391
0.227016
0.237007
0.232774
0.23233
0.235288
0.24074
0.247814
0.255598
0.263302
0.270362
0.276435
0.281358
0.285094
0.28768
0.289196
0.289737
0.289402
0.288285
0.286477
0.284061
0.281113
0.277702
0.273893
0.269744
0.265308
0.260638
0.255804
0.250811
0.245497
0.240005