/*--------------------------------*- C++ -*----------------------------------*\
  =========                 |
  \\      /  F ield         | OpenFOAM: The Open Source CFD Toolbox
   \\    /   O peration     | Website:  https://openfoam.org
    \\  /    A nd           | Version:  7
     \\/     M anipulation  |
\*---------------------------------------------------------------------------*/
FoamFile
{
    version     2.0;
    format      ascii;
    class       volScalarField;
    location    "70";
    object      p;
}
// * * * * * * * * * * * * * * * * * * * * * * * * * * * * * * * * * * * * * //

dimensions      [0 2 -2 0 0 0 0];

internalField   nonuniform List<scalar> 
183
(
-0.427295
-0.42811
-0.434577
-0.43571
-0.442468
-0.443911
-0.450926
-0.452658
-0.459873
-0.461864
-0.46395
-0.471404
-0.47383
-0.481127
-0.483854
-0.490858
-0.493807
-0.500425
-0.503517
-0.509662
-0.512804
-0.516601
-0.521519
-0.525338
-0.529546
-0.533267
-0.540319
-0.544479
-0.546474
-0.550309
-0.555158
-0.558934
-0.559115
-0.562317
-0.564848
-0.567288
-0.566702
-0.568334
-0.56923
-0.56882
-0.568728
-0.567774
-0.564845
-0.562276
-0.555158
-0.550727
-0.538162
-0.531772
-0.513181
-0.505179
-0.481139
-0.472392
-0.444541
-0.436131
-0.406522
-0.399301
-0.3697
-0.339998
-0.335682
-0.307624
-0.279472
-0.260703
-0.247613
-0.280008
-0.266716
-0.310521
-0.2984
-0.285949
-0.325385
-0.314975
-0.336323
-0.328239
-0.342676
-0.337027
-0.345082
-0.341221
-0.345267
-0.342106
-0.345138
-0.341721
-0.346008
-0.341866
-0.348394
-0.343544
-0.352172
-0.346945
-0.341971
-0.351696
-0.346433
-0.357161
-0.352083
-0.358209
-0.353277
-0.364207
-0.35991
-0.366236
-0.362181
-0.371972
-0.368725
-0.374632
-0.371616
-0.379882
-0.377643
-0.374872
-0.383027
-0.380983
-0.386477
-0.384643
-0.390236
-0.388629
-0.395245
-0.394322
-0.392959
-0.399443
-0.398767
-0.397667
-0.404024
-0.403617
-0.409044
-0.408923
-0.41456
-0.414743
-0.42063
-0.421126
-0.0301104
-0.0243675
-0.0194561
-0.0154409
-0.0120111
-0.00918808
-0.00687673
-0.00498027
-0.00351342
-0.00239432
-0.00175075
-0.00131715
-0.215609
-0.165312
-0.130604
-0.103525
-0.0832278
-0.0678092
-0.0550253
-0.0448325
-0.0364946
-0.0295789
-0.0238802
-0.0190026
-0.0150213
-0.0116159
-0.008815
-0.00652304
-0.00463838
-0.213272
-0.163773
-0.125545
-0.098427
-0.0754064
-0.0578824
-0.0433513
-0.0319558
-0.0224887
-0.0148184
-0.00860032
-0.00345486
0.000708921
0.00406946
0.00685176
0.00898509
0.0108069
0.0120315
0.0130435
0.0136188
0.0139826
0.000130442
0.00355695
0.00639054
0.00856551
0.0104132
0.0116668
0.0126955
0.0132825
0.0136476
)
;

boundaryField
{
    inlet
    {
        type            zeroGradient;
    }
    outlet
    {
        type            fixedValue;
        value           nonuniform 0();
    }
    cylinder
    {
        type            zeroGradient;
    }
    top
    {
        type            symmetryPlane;
    }
    bottom
    {
        type            symmetryPlane;
    }
    defaultFaces
    {
        type            empty;
    }
    procBoundary26to25
    {
        type            processor;
        value           nonuniform List<scalar> 
139
(
-0.425848
-0.432856
-0.440514
-0.448788
-0.45761
-0.469196
-0.469196
-0.478754
-0.488387
-0.497928
-0.507218
-0.518425
-0.518425
-0.526602
-0.536814
-0.536814
-0.543298
-0.551764
-0.551764
-0.556263
-0.562313
-0.562313
-0.564906
-0.568067
-0.568067
-0.568939
-0.568939
-0.566541
-0.566541
-0.559452
-0.559452
-0.54605
-0.54605
-0.52523
-0.52523
-0.497257
-0.497257
-0.464009
-0.464009
-0.428262
-0.428262
-0.392593
-0.364048
-0.364048
-0.331519
-0.304851
-0.304851
-0.277677
-0.254855
-0.2416
-0.274254
-0.274254
-0.305966
-0.293047
-0.293047
-0.322149
-0.322149
-0.335016
-0.335016
-0.343545
-0.343545
-0.347757
-0.347757
-0.348919
-0.348919
-0.348887
-0.348887
-0.349213
-0.349213
-0.350713
-0.350713
-0.353522
-0.353522
-0.357321
-0.356846
-0.356846
-0.361803
-0.362704
-0.362704
-0.367866
-0.369701
-0.369701
-0.374557
-0.377051
-0.377051
-0.381536
-0.384539
-0.38782
-0.391383
-0.391383
-0.395663
-0.399581
-0.403855
-0.40855
-0.413739
-0.419486
-0.00317703
-0.00206424
-0.00143048
-0.00099143
-0.217286
-0.165227
-0.130103
-0.103075
-0.0824735
-0.0670865
-0.0543273
-0.0441674
-0.0358855
-0.029025
-0.023373
-0.0185302
-0.0145839
-0.0112034
-0.00842528
-0.00615342
-0.00317703
-0.00428037
-0.207324
-0.159368
-0.122012
-0.0954879
-0.0730765
-0.056008
-0.0417944
-0.0306834
-0.0214158
-0.0139055
-0.00781943
-0.00277154
0.00130813
0.00460122
0.00733103
0.00942191
0.0112175
0.0124115
0.0134061
0.0139691
0.0143318
)
;
    }
    procBoundary26to27
    {
        type            processor;
        value           nonuniform List<scalar> 
134
(
-0.428643
-0.436631
-0.445227
-0.454368
-0.454368
-0.466166
-0.476503
-0.486925
-0.497218
-0.507174
-0.507174
-0.520947
-0.529758
-0.537625
-0.537625
-0.54906
-0.55455
-0.55455
-0.562722
-0.565481
-0.565481
-0.569086
-0.569086
-0.56866
-0.567029
-0.567029
-0.559236
-0.559236
-0.54428
-0.54428
-0.521131
-0.521131
-0.490163
-0.490163
-0.4535
-0.4535
-0.414358
-0.414358
-0.375802
-0.375802
-0.344624
-0.310331
-0.310331
-0.280865
-0.280865
-0.25379
-0.25379
-0.272978
-0.30384
-0.272978
-0.292139
-0.30384
-0.319265
-0.319265
-0.330613
-0.330613
-0.337089
-0.337089
-0.33927
-0.33927
-0.339023
-0.339023
-0.33851
-0.33851
-0.339283
-0.339283
-0.337585
-0.341392
-0.341392
-0.346866
-0.346866
-0.348195
-0.355195
-0.355195
-0.357738
-0.364941
-0.364941
-0.368126
-0.371685
-0.378464
-0.378464
-0.382382
-0.386631
-0.391232
-0.396223
-0.402798
-0.402798
-0.408409
-0.414555
-0.421288
-0.0306209
-0.0248355
-0.0198913
-0.0158433
-0.0123896
-0.00954482
-0.00721466
-0.00530621
-0.00383335
-0.00270836
-0.00205579
-0.00162703
-0.21294
-0.165118
-0.130774
-0.103811
-0.0838963
-0.0684564
-0.0556781
-0.045462
-0.0370753
-0.0370753
-0.219439
-0.168172
-0.129105
-0.101388
-0.0777203
-0.0597484
-0.0448895
-0.0332079
-0.0235395
-0.015708
-0.0093588
-0.00411613
-0.00411613
-0.000427557
0.00306365
0.0059474
0.00816321
0.0100365
0.0113176
0.0123626
0.0129604
0.0133271
)
;
    }
}


// ************************************************************************* //
