/*--------------------------------*- C++ -*----------------------------------*\
  =========                 |
  \\      /  F ield         | OpenFOAM: The Open Source CFD Toolbox
   \\    /   O peration     | Website:  https://openfoam.org
    \\  /    A nd           | Version:  7
     \\/     M anipulation  |
\*---------------------------------------------------------------------------*/
FoamFile
{
    version     2.0;
    format      ascii;
    class       volVectorField;
    location    "39";
    object      U;
}
// * * * * * * * * * * * * * * * * * * * * * * * * * * * * * * * * * * * * * //

dimensions      [0 1 -1 0 0 0 0];

internalField   nonuniform List<vector> 
40000
(
(-0.000177256 0.000303416 -1.91086e-21)
(-0.00111266 0.000824121 5.91886e-21)
(-0.00311353 0.00127064 -3.77752e-21)
(-0.00593671 0.00164989 -3.93539e-24)
(-0.00944821 0.0019671 -9.09859e-25)
(-0.0135577 0.00222697 2.88047e-24)
(-0.0181715 0.00243422 -6.27838e-21)
(-0.0231985 0.00259357 1.49285e-21)
(-0.0285538 0.00270955 -4.2618e-21)
(-0.034159 0.00278662 -1.34852e-21)
(-0.0399413 0.00282902 0)
(-0.0458342 0.00284082 -4.85707e-21)
(-0.0517774 0.00282584 0)
(-0.0577166 0.00278768 0)
(-0.0636033 0.00272967 -4.11761e-21)
(-0.0693945 0.0026549 3.8906e-21)
(-0.0750533 0.00256624 -1.83716e-21)
(-0.0805476 0.00246642 -1.52414e-24)
(-0.0858512 0.00235809 1.63233e-21)
(-0.0909434 0.0022439 0)
(-0.0958099 0.00212666 -1.44826e-21)
(-0.100443 0.00200934 -4.0864e-21)
(-0.104842 0.00189526 5.12032e-21)
(-0.109017 0.00178798 -2.40461e-21)
(-0.112984 0.00169128 6.77042e-21)
(-0.116774 0.00160897 4.23408e-21)
(-0.120426 0.0015444 -7.93837e-21)
(-0.123985 0.00149975 7.43749e-21)
(-0.1275 0.00147595 -1.74092e-21)
(-0.13104 0.00147584 -3.26436e-21)
(-0.0002067 0.00088119 0)
(-0.00118863 0.00239433 3.94936e-21)
(-0.00322196 0.00369238 7.56769e-21)
(-0.00606601 0.00479557 -7.22216e-21)
(-0.00958832 0.00571902 -3.46046e-21)
(-0.0136996 0.00647625 1.31766e-20)
(-0.0183071 0.0070809 -3.14521e-21)
(-0.0233207 0.00754643 -5.98851e-21)
(-0.0286564 0.00788593 -8.56299e-24)
(-0.0342361 0.00811209 -1.62046e-20)
(-0.0399879 0.00823712 5.12063e-21)
(-0.0458458 0.00827268 1.9436e-20)
(-0.0517497 0.0082298 -9.20278e-21)
(-0.0576457 0.00811881 -4.65162e-24)
(-0.0634854 0.00794938 -4.12523e-21)
(-0.0692261 0.0077305 -1.48551e-24)
(-0.0748307 0.00747063 0)
(-0.0802672 0.00717782 0)
(-0.085509 0.00685994 1.30706e-20)
(-0.0905351 0.00652501 0)
(-0.0953304 0.00618142 5.79433e-21)
(-0.0998865 0.00583832 -5.44863e-21)
(-0.104203 0.00550574 -6.18313e-25)
(-0.108287 0.00519468 0)
(-0.112157 0.00491682 9.03083e-21)
(-0.115841 0.00468397 -8.46829e-21)
(-0.119378 0.00450681 7.93836e-21)
(-0.122815 0.00439241 -7.43748e-21)
(-0.126199 0.00434433 6.96441e-21)
(-0.129602 0.00437177 -1.95885e-20)
(-0.000264801 0.0014509 -7.65879e-21)
(-0.00133862 0.00394352 -7.89375e-21)
(-0.00343609 0.00608299 0)
(-0.00632148 0.00790235 0)
(-0.00986524 0.00942625 0)
(-0.0139801 0.0106767 6.60414e-21)
(-0.0185753 0.011676 0)
(-0.0235625 0.0124461 5.97996e-21)
(-0.028859 0.0130085 1.13721e-20)
(-0.0343883 0.0133838 1.08021e-20)
(-0.0400795 0.0135922 0)
(-0.0458674 0.0136527 7.06673e-24)
(-0.051693 0.0135833 -1.84242e-20)
(-0.0575028 0.0134012 1.74366e-20)
(-0.0632489 0.0131221 8.23858e-21)
(-0.0688888 0.0127609 7.78992e-21)
(-0.0743852 0.0123314 -7.34746e-21)
(-0.0797061 0.0118469 1.38744e-20)
(-0.0848242 0.0113203 -2.61489e-20)
(-0.0897179 0.0107649 -2.95743e-25)
(-0.0943709 0.0101946 -2.31812e-20)
(-0.0987737 0.00962446 2.18094e-20)
(-0.102924 0.00907129 0)
(-0.106828 0.0085536 0)
(-0.110501 0.00809127 9.03763e-21)
(-0.113972 0.00770464 0)
(-0.11728 0.0074124 0)
(-0.120474 0.00722744 0)
(-0.123595 0.00715704 -1.3934e-20)
(-0.126721 0.00721725 1.30585e-20)
(-0.00035065 0.0020074 7.65879e-21)
(-0.00156037 0.00545819 7.8824e-24)
(-0.00375289 0.00842245 3.69944e-23)
(-0.00669962 0.0109451 -1.4469e-20)
(-0.0102753 0.0130599 -1.38258e-20)
(-0.0143956 0.0147967 1.70994e-23)
(-0.0189726 0.016186 -2.51616e-20)
(-0.0239204 0.017258 1.19833e-20)
(-0.0291586 0.018042 -2.27872e-20)
(-0.0346127 0.0185666 2.16438e-20)
(-0.0402133 0.0188593 -1.02685e-20)
(-0.0458968 0.0189465 1.94691e-20)
(-0.0516052 0.0188531 1.84242e-20)
(-0.0572858 0.0186025 1.64417e-23)
(-0.0628914 0.0182167 -1.65032e-20)
(-0.0683799 0.017716 0)
(-0.0737141 0.0171195 9.38165e-25)
(-0.0788613 0.0164455 1.38836e-20)
(-0.0837937 0.0157118 7.56182e-25)
(-0.0884885 0.0149365 -7.83723e-24)
(-0.0929278 0.0141388 2.31888e-20)
(-0.0971001 0.0133396 -2.18093e-20)
(-0.101001 0.0125625 0)
(-0.104633 0.0118334 1.92625e-20)
(-0.108012 0.011181 4.52072e-24)
(-0.111162 0.010635 -5.08542e-20)
(-0.114125 0.0102232 1.58888e-20)
(-0.116952 0.00996606 2.97744e-20)
(-0.119677 0.00987645 1.39339e-20)
(-0.122384 0.00997837 1.30659e-20)
(-0.000462924 0.00254575 3.07507e-20)
(-0.00185063 0.00692546 -1.58443e-20)
(-0.00416786 0.0106915 1.51517e-20)
(-0.00719529 0.0138998 1.44993e-20)
(-0.010813 0.0165919 0)
(-0.0149406 0.0188054 -2.64659e-20)
(-0.0194937 0.0205782 -1.26274e-20)
(-0.0243896 0.021948 -2.39857e-20)
(-0.0295509 0.0229519 1.13939e-20)
(-0.0349053 0.0236256 2.90657e-23)
(-0.0403857 0.024004 2.05646e-20)
(-0.0459303 0.0241202 1.95159e-20)
(-0.0514826 0.0240059 -3.69036e-20)
(-0.0569912 0.0236905 1.74739e-20)
(-0.0624095 0.0232019 -1.89985e-23)
(-0.0676959 0.0225656 0)
(-0.0728131 0.0218059 -1.47201e-20)
(-0.0777281 0.0209456 -2.78007e-20)
(-0.0824123 0.020007 3.93029e-20)
(-0.0868412 0.0190129 1.23508e-20)
(-0.0909949 0.0179873 0)
(-0.094859 0.0169566 -2.18437e-20)
(-0.0984259 0.0159508 0)
(-0.101696 0.0150038 -5.78089e-20)
(-0.10468 0.0141534 3.61654e-20)
(-0.107402 0.0134397 -5.15911e-24)
(-0.109902 0.0129017 3.18e-20)
(-0.112236 0.0125694 -4.46616e-20)
(-0.114427 0.0124647 2.78883e-20)
(-0.116571 0.0126214 1.30663e-20)
(-0.00059991 0.00306138 -1.53956e-20)
(-0.00220516 0.00833326 1.58439e-20)
(-0.00467523 0.0128722 -1.70494e-24)
(-0.00780182 0.0167434 -4.36253e-20)
(-0.0114715 0.0199959 0)
(-0.0156082 0.0226735 2.64659e-20)
(-0.020132 0.0248211 -2.52992e-20)
(-0.0249638 0.0264835 4.80042e-20)
(-0.0300297 0.0277045 0)
(-0.0352605 0.0285269 -2.16728e-20)
(-0.0405915 0.0289922 -2.05645e-20)
(-0.0459632 0.0291402 -1.94949e-20)
(-0.0513207 0.0290086 -5.54687e-20)
(-0.0566141 0.028633 2.7031e-24)
(-0.0617979 0.0280465 -1.77347e-23)
(-0.066831 0.0272798 -1.37439e-23)
(-0.0716761 0.0263617 4.42481e-20)
(-0.0762999 0.0253193 -3.4498e-23)
(-0.0806724 0.0241791 3.13273e-23)
(-0.0847674 0.0229678 -2.4671e-20)
(-0.0885626 0.021714 -1.98851e-23)
(-0.0920403 0.0204491 4.37004e-20)
(-0.0951887 0.0192092 -6.16282e-20)
(-0.0980041 0.0180361 1.92768e-20)
(-0.100493 0.0169772 0)
(-0.102675 0.0160847 0)
(-0.104592 0.0154109 -3.17997e-20)
(-0.106303 0.0149988 2.98008e-20)
(-0.10782 0.0148835 -2.78836e-20)
(-0.109248 0.0151129 0)
(-0.000759564 0.00355013 -1.5447e-20)
(-0.00261889 0.00967054 0)
(-0.00526805 0.0149478 1.52176e-20)
(-0.00851121 0.0194549 8.74354e-20)
(-0.0122422 0.0232468 -2.77997e-20)
(-0.0163899 0.0263732 0)
(-0.0208791 0.0288849 -5.18732e-23)
(-0.0256352 0.0308329 2.4078e-20)
(-0.030588 0.0322673 -2.28634e-20)
(-0.0356715 0.0332373 0)
(-0.0408243 0.0337906 0)
(-0.0459891 0.0339732 -3.91162e-20)
(-0.0511132 0.0338287 5.54971e-20)
(-0.0561483 0.033398 -1.75033e-20)
(-0.06105 0.0327194 0)
(-0.0657779 0.0318283 3.12954e-20)
(-0.0702949 0.0307578 -2.94866e-20)
(-0.0745671 0.0295388 2.78548e-20)
(-0.0785633 0.0282013 -5.24777e-20)
(-0.0822551 0.0267756 -7.41885e-20)
(-0.0856175 0.0252939 2.32523e-20)
(-0.0886287 0.0237923 2.18801e-20)
(-0.0912723 0.0223125 2.05385e-20)
(-0.093539 0.0209037 0)
(-0.0954296 0.0196237 -3.624e-20)
(-0.0969594 0.018538 0)
(-0.0981698 0.0177153 0)
(-0.0991241 0.0172159 -5.96156e-20)
(-0.0998208 0.0170943 -1.05068e-23)
(-0.10037 0.0174191 -7.84228e-20)
(-0.000939558 0.00400836 1.5447e-20)
(-0.00308605 0.0109275 3.19486e-20)
(-0.00593836 0.0169033 3.05901e-20)
(-0.00931426 0.0220149 -2.91709e-20)
(-0.0131154 0.026322 0)
(-0.0172759 0.0298789 0)
(-0.0217255 0.0327416 2.5314e-20)
(-0.0263946 0.0349664 -2.41279e-20)
(-0.0312169 0.0366092 -3.88232e-23)
(-0.0361302 0.0377249 4.3586e-20)
(-0.0410761 0.0383669 0)
(-0.0460003 0.0385868 3.91161e-20)
(-0.0508522 0.0384336 0)
(-0.0555854 0.0379534 0)
(-0.0601568 0.0371893 1.74948e-23)
(-0.0645268 0.0361809 3.13204e-20)
(-0.0686584 0.0349651 -2.95858e-20)
(-0.072517 0.0335761 5.58031e-20)
(-0.0760702 0.0320471 -2.62961e-20)
(-0.0792876 0.030411 7.42307e-20)
(-0.0821405 0.0287033 0)
(-0.0846029 0.0269633 0)
(-0.0866529 0.0252378 4.11877e-20)
(-0.0882745 0.0235831 0)
(-0.0894615 0.0220673 3.62146e-20)
(-0.0902225 0.0207707 -3.39982e-20)
(-0.0905972 0.0197816 3.18383e-20)
(-0.0906551 0.0191835 -2.98258e-20)
(-0.0903782 0.0190585 5.58175e-20)
(-0.0898706 0.0195059 7.84578e-20)
(-0.00113735 0.00443295 0)
(-0.0036003 0.0120957 -3.19486e-20)
(-0.00667743 0.0187256 9.07991e-23)
(-0.0102008 0.0244063 0)
(-0.0140801 0.0292008 -5.59857e-20)
(-0.018255 0.033167 -3.5128e-23)
(-0.0226605 0.0363652 2.53872e-20)
(-0.0272315 0.0388562 0)
(-0.0319065 0.0407008 2.29496e-20)
(-0.0366269 0.041959 -4.35858e-20)
(-0.0413377 0.0426895 0)
(-0.0459874 0.0429489 0)
(-0.0505282 0.0427913 -3.71651e-20)
(-0.0549153 0.0422676 3.51356e-20)
(-0.0591072 0.041425 -3.3199e-20)
(-0.0630649 0.0403072 0)
(-0.0667518 0.0389542 -2.96712e-20)
(-0.0701327 0.0374034 -8.37975e-20)
(-0.0731738 0.0356902 -1.31607e-23)
(-0.0758422 0.0338496 -9.5982e-24)
(-0.0781057 0.0319191 2.33255e-20)
(-0.0799335 0.0299408 4.38683e-20)
(-0.0812972 0.027965 -8.23999e-20)
(-0.0821734 0.0260542 3.87114e-20)
(-0.082547 0.0242866 -7.87849e-24)
(-0.0824181 0.0227583 2.13405e-23)
(-0.0818221 0.0215806 2.33141e-23)
(-0.0808363 0.0208671 2.98475e-20)
(-0.079425 0.0207376 0)
(-0.077657 0.0213369 0)
(-0.00135025 0.00482141 3.11824e-20)
(-0.0041549 0.0131682 9.93531e-23)
(-0.00747593 0.0204039 9.87913e-23)
(-0.01116 0.0266145 -5.88146e-20)
(-0.0151249 0.0318653 5.60258e-20)
(-0.0193154 0.0362167 0)
(-0.023672 0.0397322 0)
(-0.0281344 0.0424764 4.8489e-20)
(-0.0326454 0.0445144 -4.6043e-20)
(-0.0371504 0.0459106 3.88169e-23)
(-0.0415978 0.0467282 8.30103e-20)
(-0.0459393 0.0470287 3.93328e-20)
(-0.0501292 0.0468705 -7.44584e-20)
(-0.0541251 0.046309 3.5209e-20)
(-0.0578868 0.0453953 3.33057e-20)
(-0.0613762 0.0441765 -3.14374e-20)
(-0.0645567 0.0426957 5.93059e-20)
(-0.0673926 0.0409926 8.40268e-20)
(-0.0698486 0.0391042 5.28072e-20)
(-0.0718892 0.0370672 2.48442e-20)
(-0.0734786 0.0349199 -4.67235e-20)
(-0.0745806 0.0327056 0)
(-0.0751599 0.0304771 3.43561e-23)
(-0.0751844 0.0283016 3.87864e-20)
(-0.0746291 0.0262661 3.63151e-20)
(-0.0734825 0.0244829 -6.81498e-20)
(-0.0717726 0.0230894 -3.1902e-20)
(-0.0695866 0.0222372 5.9706e-20)
(-0.0668742 0.022095 0)
(-0.0636044 0.0228697 -5.22416e-20)
(-0.0015755 0.00517193 3.12573e-20)
(-0.00474293 0.0141396 -6.43968e-20)
(-0.0083242 0.0219293 2.22755e-23)
(-0.0121804 0.0286275 -9.75094e-23)
(-0.0162371 0.0343002 0)
(-0.0204443 0.0390097 0)
(-0.0247471 0.0428217 0)
(-0.0290904 0.0458039 -4.86203e-20)
(-0.0334209 0.0480246 4.61676e-20)
(-0.037688 0.0495522 -4.37932e-20)
(-0.0418437 0.0504542 -8.31426e-20)
(-0.0458423 0.050796 -2.59813e-23)
(-0.049641 0.0506404 7.46604e-20)
(-0.0531992 0.0500464 3.5339e-20)
(-0.056478 0.0490688 0)
(-0.0594402 0.047758 -6.30882e-20)
(-0.0620492 0.0461596 8.92777e-20)
(-0.0642687 0.044315 -8.40645e-20)
(-0.0660617 0.0422627 -5.28362e-20)
(-0.0673901 0.0400397 -1.4929e-19)
(-0.0682139 0.0376845 -2.89772e-24)
(-0.0684916 0.0352403 5.45115e-24)
(-0.0681804 0.0327605 3.28682e-23)
(-0.0672387 0.0303148 -7.75237e-20)
(-0.0656299 0.0279974 1.09148e-19)
(-0.0633286 0.0259355 -5.55255e-23)
(-0.0603504 0.0242952 0)
(-0.0567961 0.0232739 -5.9705e-20)
(-0.0526184 0.0230995 5.5831e-20)
(-0.0475483 0.0240613 5.24787e-20)
(-0.00181036 0.00548332 0)
(-0.00535739 0.0150062 -3.23581e-20)
(-0.00921244 0.0232953 3.09139e-20)
(-0.0132505 0.0304357 5.91036e-20)
(-0.0174042 0.0364933 2.82689e-20)
(-0.0216281 0.0415309 -5.37831e-20)
(-0.0258722 0.0456156 -6.23061e-23)
(-0.0300854 0.0488176 -4.87234e-20)
(-0.0342187 0.0512081 0)
(-0.0382253 0.0528586 4.40299e-20)
(-0.0420601 0.0538402 0)
(-0.0456806 0.0542222 0)
(-0.0490462 0.0540709 -7.48077e-20)
(-0.0521182 0.053449 -7.07266e-20)
(-0.0548589 0.0524147 1.00378e-19)
(-0.0572317 0.0510209 6.30876e-20)
(-0.0591999 0.0493156 7.06381e-23)
(-0.0607263 0.0473417 -5.61775e-20)
(-0.0617719 0.0451386 1.05832e-19)
(-0.0622959 0.0427431 4.1981e-24)
(-0.062254 0.0401927 9.37934e-20)
(-0.0615989 0.0375292 0)
(-0.06028 0.0348046 0)
(-0.0582455 0.0320888 7.77017e-20)
(-0.055446 0.0294798 -1.09149e-19)
(-0.0518398 0.0271178 1.02297e-19)
(-0.047424 0.0251981 -6.3856e-20)
(-0.0423149 0.0239675 5.97328e-20)
(-0.0365203 0.0237288 -1.11659e-19)
(-0.0293065 0.0249377 5.25284e-20)
(-0.00205215 0.00575509 -3.15765e-20)
(-0.00599145 0.0157662 0)
(-0.0101309 0.0244979 0)
(-0.0143584 0.0320327 -5.94613e-20)
(-0.018613 0.0384351 1.13409e-19)
(-0.022853 0.0437678 -5.3966e-20)
(-0.0270324 0.0480988 -9.89786e-23)
(-0.0311043 0.0514997 4.88765e-20)
(-0.0350232 0.0540442 0)
(-0.0387456 0.0558065 7.24963e-23)
(-0.0422296 0.0568609 1.92267e-23)
(-0.0454352 0.0572799 -7.92222e-20)
(-0.0483239 0.0571333 -1.49728e-22)
(-0.0508585 0.056487 -3.54693e-20)
(-0.0530025 0.0554021 -1.00545e-19)
(-0.0547193 0.0539342 6.32989e-20)
(-0.055972 0.0521332 -5.97034e-20)
(-0.0567218 0.0500434 1.12654e-19)
(-0.0569277 0.0477045 -1.06112e-19)
(-0.0565454 0.0451528 -9.98428e-20)
(-0.0555263 0.0424241 3.23897e-23)
(-0.0538169 0.0395575 -4.41324e-20)
(-0.0513584 0.0366015 4.14191e-20)
(-0.0480883 0.0336233 5.64789e-23)
(-0.0439435 0.0307211 -1.09372e-19)
(-0.038864 0.0280439 -6.82763e-20)
(-0.0328227 0.0258125 1.27734e-19)
(-0.0259401 0.0243174 -1.19465e-19)
(-0.0183323 0.0239559 5.58276e-20)
(-0.00875971 0.0257081 7.67024e-23)
(-0.00229838 0.00598743 9.48926e-20)
(-0.00663856 0.0164189 -3.25599e-20)
(-0.0110702 0.0255352 -6.23888e-20)
(-0.0154927 0.0334146 1.78691e-19)
(-0.0198503 0.0401193 2.09767e-22)
(-0.0241045 0.0457113 0)
(-0.0282124 0.050259 0)
(-0.0321306 0.0538351 4.90608e-20)
(-0.0358167 0.0565148 -4.65205e-20)
(-0.0392301 0.0583751 4.42127e-20)
(-0.0423316 0.0594929 -4.19341e-20)
(-0.0450833 0.0599436 -7.95545e-20)
(-0.0474487 0.0598002 1.50265e-19)
(-0.0493914 0.0591314 -3.55424e-20)
(-0.0508757 0.0580012 6.70319e-20)
(-0.0518646 0.0564675 -1.26849e-19)
(-0.0523202 0.0545821 -1.1844e-23)
(-0.0522018 0.0523905 4.97457e-23)
(-0.0514655 0.0499326 1.06213e-19)
(-0.0500633 0.047244 -4.35766e-23)
(-0.0479413 0.0443581 0)
(-0.0450395 0.0413107 0)
(-0.0412906 0.0381451 -4.15621e-20)
(-0.0366211 0.0349227 -1.55623e-19)
(-0.0309534 0.0317375 1.09409e-19)
(-0.0242083 0.0287408 -4.45944e-23)
(-0.0163367 0.0261715 -1.27776e-19)
(-0.00744517 0.0243604 1.19384e-19)
(0.0023993 0.0238576 -5.58648e-20)
(0.0143631 0.0261769 5.20065e-20)
(-0.00254674 0.00618111 0)
(-0.00729264 0.0169657 0)
(-0.0120214 0.0264077 6.27403e-20)
(-0.0166421 0.0345801 -1.19519e-19)
(-0.0211031 0.0415424 8.41249e-23)
(-0.0253677 0.0473554 -5.43889e-20)
(-0.0293957 0.0520873 1.55364e-19)
(-0.0331462 0.0558116 -1.47721e-19)
(-0.0365794 0.058605 -3.97254e-24)
(-0.039657 0.0605466 -4.43497e-20)
(-0.0423419 0.0617155 -1.26271e-19)
(-0.0445981 0.0621902 1.19364e-19)
(-0.0463899 0.0620461 0)
(-0.0476819 0.0613551 0)
(-0.0484379 0.0601833 6.72541e-20)
(-0.0486203 0.0585913 1.27195e-19)
(-0.048189 0.0566325 -5.99541e-20)
(-0.0471008 0.0543536 0)
(-0.0453081 0.051795 -5.32219e-20)
(-0.0427578 0.0489914 1.08663e-23)
(-0.0393902 0.045974 -4.71633e-20)
(-0.0351378 0.0427745 0)
(-0.0299246 0.0394302 -4.16222e-20)
(-0.0236653 0.0359942 3.89834e-20)
(-0.0162678 0.0325515 -7.2939e-20)
(-0.00763289 0.0292486 2.04984e-19)
(0.00231091 0.0263323 -8.8819e-23)
(0.0134702 0.0241729 5.97058e-20)
(0.0258814 0.0234892 0)
(0.0407317 0.0261803 -5.24017e-20)
(-0.00279525 0.00633754 -6.3902e-20)
(-0.00794816 0.0174092 6.56933e-20)
(-0.0129761 0.0271178 1.55551e-22)
(-0.0177957 0.0355305 -6.00239e-20)
(-0.0223581 0.0427038 0)
(-0.0266274 0.0486969 -1.09272e-19)
(-0.0305649 0.0535777 8.36294e-23)
(-0.0341313 0.0574203 4.92138e-20)
(-0.037289 0.0603027 3.55376e-24)
(-0.0400011 0.0623057 -2.09342e-24)
(-0.0422321 0.063511 1.26389e-19)
(-0.0439469 0.0639991 3.99347e-20)
(-0.0451104 0.0638484 3.78829e-20)
(-0.0456871 0.0631331 -7.14408e-20)
(-0.0456397 0.0619221 6.74853e-20)
(-0.0449286 0.060278 -6.36292e-20)
(-0.0435109 0.0582562 6.00734e-20)
(-0.0413395 0.0559048 -5.66199e-20)
(-0.0383617 0.0532648 0)
(-0.0345182 0.0503704 -5.02545e-20)
(-0.0297422 0.0472511 9.4245e-20)
(-0.0239576 0.0439346 4.43513e-20)
(-0.0170784 0.040452 -4.16582e-20)
(-0.00900778 0.0368465 1.56027e-19)
(0.000361359 0.0331905 -3.65661e-20)
(0.0111481 0.0296172 6.83857e-20)
(0.0234492 0.0263684 -6.38134e-20)
(0.0371837 0.0238413 8.5846e-23)
(0.0524587 0.0229114 0)
(0.0707553 0.0259318 -1.03447e-19)
(-0.00304221 0.00645858 -1.14289e-22)
(-0.00860023 0.0177533 -6.59935e-20)
(-0.0139265 0.02767 0)
(-0.0189431 0.0362696 -6.04271e-20)
(-0.0236022 0.0436056 5.75206e-20)
(-0.0278675 0.0497357 -9.59809e-23)
(-0.0317009 0.0547275 0)
(-0.035064 0.0586555 -8.55509e-23)
(-0.0379199 0.0615992 -4.69706e-20)
(-0.040233 0.063641 4.46344e-20)
(-0.0419683 0.0648647 0)
(-0.0430908 0.0653532 -8.00841e-20)
(-0.0435653 0.0651874 7.59696e-20)
(-0.0433549 0.064444 0)
(-0.0424204 0.0631942 0)
(-0.0407191 0.061503 0)
(-0.0382037 0.059428 0)
(-0.0348216 0.0570188 5.67086e-20)
(-0.0305135 0.0543174 -5.34112e-20)
(-0.0252123 0.0513585 1.50641e-19)
(-0.018842 0.0481705 -9.44609e-20)
(-0.0113166 0.0447781 -8.86352e-20)
(-0.00253881 0.0412066 1.24881e-19)
(0.00760056 0.0374897 6.31701e-23)
(0.0192229 0.0336844 -7.31334e-20)
(0.0324659 0.0299039 -6.83838e-20)
(0.047454 0.0263705 -6.39042e-20)
(0.0641171 0.0234814 1.19283e-19)
(0.0825856 0.0222294 -1.11116e-19)
(0.104919 0.0256012 2.06545e-19)
(-0.00328628 0.00654655 1.28926e-19)
(-0.00924465 0.0180029 -1.32208e-22)
(-0.0148655 0.0280701 -1.26966e-19)
(-0.0200742 0.0368031 1.21116e-19)
(-0.024822 0.0442522 -5.78702e-20)
(-0.0290713 0.0504742 -5.50047e-20)
(-0.0327832 0.0555367 5.2331e-20)
(-0.0359193 0.0595148 4.9726e-20)
(-0.0384429 0.0624893 -9.45101e-20)
(-0.0403182 0.0645444 -1.34459e-19)
(-0.04151 0.065766 -4.23985e-20)
(-0.0419829 0.0662395 1.6063e-19)
(-0.0417 0.0660479 -2.27787e-19)
(-0.0406221 0.0652704 7.17992e-20)
(-0.0387065 0.0639809 0)
(-0.0359061 0.0622466 0)
(-0.0321676 0.0601273 0)
(-0.0274311 0.0576749 1.13653e-19)
(-0.0216284 0.0549332 -5.34954e-20)
(-0.0146826 0.0519377 -5.03884e-20)
(-0.0065066 0.0487173 -9.45733e-20)
(0.00299782 0.0452953 8.88165e-20)
(0.0139407 0.0416929 -4.16971e-20)
(0.0264445 0.0379353 -7.81971e-20)
(0.0406443 0.0340649 -1.00207e-22)
(0.0566935 0.0301702 -1.36704e-19)
(0.0747434 0.0264413 1.91686e-19)
(0.0947346 0.0232416 -1.79025e-19)
(0.116756 0.0216139 5.58826e-20)
(0.143786 0.0253563 -5.13572e-20)
(-0.00352648 0.00660406 -6.46177e-20)
(-0.00987789 0.0181639 6.64932e-20)
(-0.0157867 0.0283255 6.35665e-20)
(-0.0211789 0.0371381 -1.82473e-19)
(-0.0260037 0.0446501 5.78663e-20)
(-0.0302205 0.0509177 5.52278e-20)
(-0.0337888 0.0560085 0)
(-0.0366691 0.059999 0)
(-0.0388236 0.0629714 4.72927e-20)
(-0.0402159 0.065012 8.96925e-20)
(-0.0408094 0.0662088 -1.70302e-19)
(-0.0405667 0.0666495 -8.71668e-23)
(-0.0394484 0.0664195 0)
(-0.0374116 0.0656007 0)
(-0.0344087 0.0642693 -6.79092e-20)
(-0.030386 0.0624951 3.71806e-23)
(-0.0252824 0.0603406 6.04227e-20)
(-0.0190285 0.0578603 -5.6854e-20)
(-0.0115453 0.0551002 -1.07175e-19)
(-0.0027433 0.0520984 1.00679e-19)
(0.00747813 0.0488852 4.73117e-20)
(0.0192314 0.0454846 -1.33402e-19)
(0.0326411 0.0419163 -8.3325e-20)
(0.0478439 0.0382003 7.83041e-20)
(0.0649874 0.0343665 7.3261e-20)
(0.0842365 0.0304791 6.84112e-20)
(0.105766 0.0266879 0)
(0.129527 0.0232907 0)
(0.155468 0.021277 1.10774e-19)
(0.187927 0.0254154 0)
(-0.00376214 0.00663393 6.52597e-20)
(-0.010497 0.0182426 -6.69827e-20)
(-0.016684 0.0284442 1.28153e-19)
(-0.0222475 0.0372836 -2.77986e-22)
(-0.0271327 0.0448078 0)
(-0.0312953 0.0510733 0)
(-0.0346918 0.0561487 0)
(-0.0372807 0.0601121 -5.00826e-20)
(-0.0390223 0.0630478 4.75558e-20)
(-0.039878 0.0650442 0)
(-0.0398089 0.0661917 8.52273e-20)
(-0.0387745 0.0665804 8.07953e-20)
(-0.0367313 0.0662985 -7.63797e-20)
(-0.033631 0.0654301 7.21489e-20)
(-0.0294192 0.0640543 -9.47104e-23)
(-0.0240338 0.0622438 -6.42237e-20)
(-0.0174038 0.0600639 -6.05473e-20)
(-0.00944769 0.0575721 1.70982e-19)
(-7.31735e-05 0.054818 5.35309e-20)
(0.0108241 0.0518429 -1.00884e-19)
(0.0233607 0.0486806 -4.73467e-20)
(0.0376654 0.0453577 4.44563e-20)
(0.0538786 0.0418955 0)
(0.0721512 0.0383127 -7.81858e-20)
(0.0926419 0.0346317 -7.31702e-20)
(0.115521 0.0308966 0)
(0.140976 0.0272164 6.36716e-20)
(0.168981 0.0238039 -1.19266e-19)
(0.199192 0.021452 -1.66302e-19)
(0.237851 0.0260492 0)
(-0.00399288 0.00663902 -1.30684e-19)
(-0.0110994 0.0182456 6.74682e-20)
(-0.0175515 0.0284349 -1.28631e-19)
(-0.0232694 0.0372491 -2.87044e-22)
(-0.0281932 0.0447349 0)
(-0.0322734 0.0509502 0)
(-0.0354628 0.0559656 5.30611e-20)
(-0.0377166 0.0598615 1.00774e-19)
(-0.0389921 0.0627246 0)
(-0.0392476 0.064646 0)
(-0.0384405 0.0657189 -1.71316e-19)
(-0.0365257 0.066036 8.10994e-20)
(-0.0334538 0.0656881 -1.39771e-22)
(-0.0291694 0.0647623 0)
(-0.0236093 0.0633406 -3.27145e-23)
(-0.0167007 0.0614986 6.43431e-20)
(-0.00836016 0.0593052 -1.60551e-22)
(0.00150798 0.0568217 -2.28248e-19)
(0.013012 0.0541017 -5.37037e-20)
(0.0262734 0.0511913 1.00882e-19)
(0.0414264 0.0481289 9.47435e-20)
(0.0586175 0.0449465 -8.67518e-23)
(0.0780031 0.0416697 8.34581e-20)
(0.099747 0.0383204 1.56361e-19)
(0.124015 0.0349192 7.31675e-20)
(0.150974 0.0314977 6.83416e-20)
(0.180811 0.0281312 6.35992e-20)
(0.213538 0.0249509 1.1852e-19)
(0.248311 0.0223741 -7.51415e-22)
(0.293928 0.0275613 4.98442e-20)
(-0.00421853 0.00662212 1.31717e-19)
(-0.0116829 0.0181793 -2.02905e-19)
(-0.018383 0.0283064 1.29263e-19)
(-0.0242333 0.0370445 1.23344e-19)
(-0.0291674 0.044442 5.87512e-20)
(-0.0331295 0.0505592 -4.0435e-23)
(-0.0360677 0.0554698 -5.29707e-20)
(-0.037933 0.0592574 -1.00773e-19)
(-0.0386785 0.0620118 2.37245e-22)
(-0.0382581 0.0638276 1.81459e-19)
(-0.0366239 0.0648006 -8.62018e-20)
(-0.0337247 0.0650269 1.62478e-19)
(-0.0295035 0.0646003 -1.07248e-22)
(-0.0238956 0.0636109 -1.4488e-19)
(-0.0168267 0.0621439 -1.65171e-23)
(-0.00821101 0.0602786 0)
(0.00204976 0.0580878 3.03333e-19)
(0.0140678 0.0556373 5.70104e-20)
(0.0279695 0.0529859 0)
(0.0438949 0.0501852 5.04587e-20)
(0.0619972 0.0472803 -4.74613e-20)
(0.0824399 0.0443099 1.77939e-19)
(0.105394 0.0413073 -2.50354e-19)
(0.131031 0.0383006 7.82383e-20)
(0.159518 0.0353149 0)
(0.191005 0.0323773 6.82179e-20)
(0.225653 0.0295411 -1.27326e-19)
(0.263541 0.026891 1.18483e-19)
(0.30307 0.0242599 -1.10191e-19)
(0.35629 0.0302591 -1.0107e-19)
(-0.00443902 0.00658581 -1.32235e-19)
(-0.0122452 0.0180498 -3.59578e-22)
(-0.0191721 0.0280671 -6.47926e-20)
(-0.0251268 0.03668 -6.18206e-20)
(-0.0300351 0.0439401 -1.18212e-19)
(-0.0338346 0.0499121 5.62091e-20)
(-0.0364673 0.0546739 7.95307e-23)
(-0.037879 0.0583131 -1.01368e-19)
(-0.0380177 0.0609237 -1.43888e-19)
(-0.0368312 0.062604 1.46982e-22)
(-0.0342651 0.0634536 8.5947e-20)
(-0.0302598 0.0635719 -1.62692e-19)
(-0.0247489 0.0630563 7.69879e-20)
(-0.0176561 0.0620004 7.26745e-20)
(-0.00889372 0.0604932 -1.00312e-23)
(0.00163932 0.0586181 6.45686e-20)
(0.0140586 0.0564525 -1.21427e-19)
(0.0284947 0.0540675 0)
(0.0450934 0.0515279 -1.07558e-19)
(0.0640141 0.0488924 1.01058e-19)
(0.0854277 0.0462137 -9.48788e-20)
(0.109512 0.0435393 -8.90102e-20)
(0.136447 0.0409113 0)
(0.166404 0.0383674 -2.34246e-19)
(0.199538 0.0359409 1.61761e-22)
(0.235967 0.0336611 -3.40993e-19)
(0.275789 0.0315691 1.91114e-19)
(0.319178 0.0297721 -2.36679e-19)
(0.36352 0.0272943 1.10184e-19)
(0.424734 0.0344195 -9.98008e-20)
(-0.00465426 0.00653231 6.62962e-20)
(-0.0127835 0.0178623 6.8174e-20)
(-0.0199109 0.0277246 6.54764e-20)
(-0.0259349 0.0361649 -1.88281e-22)
(-0.030773 0.0432405 -1.67585e-22)
(-0.0343548 0.0490218 0)
(-0.0366159 0.0535922 0)
(-0.0374958 0.0570447 0)
(-0.0369359 0.0594783 0)
(-0.0348767 0.0609957 0)
(-0.0312551 0.0617012 8.62796e-20)
(-0.0260018 0.061698 -8.15857e-20)
(-0.0190382 0.0610876 7.71931e-20)
(-0.0102744 0.0599678 8.47753e-24)
(0.000393069 0.0584319 -6.85284e-20)
(0.0130828 0.0565682 1.50685e-23)
(0.0279293 0.0544595 -1.21726e-19)
(0.045083 0.0521831 1.14496e-19)
(0.0647091 0.0498109 1.07555e-19)
(0.0869848 0.0474094 -1.00943e-19)
(0.112095 0.0450403 1.89853e-19)
(0.140227 0.0427606 0)
(0.171557 0.0406227 -1.66648e-19)
(0.206244 0.0386744 3.19819e-22)
(0.244411 0.0369588 3.8141e-22)
(0.286118 0.0355109 5.58914e-22)
(0.331358 0.034361 -6.31792e-20)
(0.380413 0.0337316 1.18196e-19)
(0.429461 0.0316243 1.09717e-19)
(0.498626 0.0402547 5.2086e-20)
(-0.00486398 0.00646335 0)
(-0.0132945 0.0176212 6.87319e-20)
(-0.0205903 0.0272854 -6.52977e-20)
(-0.0266405 0.0355081 -1.34517e-22)
(-0.0313536 0.0423541 1.19262e-19)
(-0.0346511 0.0479014 -5.67565e-20)
(-0.0364611 0.0522404 0)
(-0.0367157 0.0554707 0)
(-0.0353484 0.0576974 -9.6756e-20)
(-0.0322909 0.0590288 9.17883e-20)
(-0.0274697 0.0595739 8.68424e-20)
(-0.0208032 0.0594412 0)
(-0.0121989 0.0587366 7.74098e-20)
(-0.0015508 0.0575629 0)
(0.0112624 0.0560186 -1.37287e-19)
(0.0263786 0.0541978 1.94086e-19)
(0.0439522 0.0521895 1.82625e-19)
(0.0641532 0.0500783 -5.72813e-20)
(0.0871645 0.047944 -1.16426e-22)
(0.113177 0.0458617 -1.5169e-19)
(0.142382 0.0439028 0)
(0.174964 0.0421338 0)
(0.211083 0.0406172 8.33682e-20)
(0.250861 0.0394101 1.55873e-19)
(0.294363 0.038564 -1.03282e-22)
(0.341561 0.0381185 1.36169e-19)
(0.392297 0.0380848 1.26865e-19)
(0.446913 0.0388885 0)
(0.500407 0.0373574 -1.0971e-19)
(0.576826 0.0478798 1.50439e-19)
(-0.00506758 0.0063801 6.74711e-20)
(-0.0137735 0.0173295 0)
(-0.0211988 0.0267547 1.60848e-22)
(-0.0272229 0.0347171 -6.29895e-20)
(-0.0317451 0.041291 6.01176e-20)
(-0.0346784 0.046564 5.6951e-20)
(-0.0359425 0.0506353 -1.1028e-22)
(-0.0354614 0.0536122 5.15159e-20)
(-0.0331591 0.055607 0)
(-0.0289568 0.0567344 -1.84111e-19)
(-0.0227686 0.0571095 2.65752e-22)
(-0.0144989 0.0568463 0)
(-0.00403877 0.0560567 7.7615e-20)
(0.00873577 0.054849 -2.1932e-19)
(0.0239655 0.053328 6.89376e-20)
(0.0418082 0.0515943 -6.47278e-20)
(0.0624379 0.0497445 -1.21937e-19)
(0.086042 0.047871 -1.72084e-19)
(0.112816 0.0460621 0)
(0.142957 0.0444024 0)
(0.176651 0.0429721 9.48586e-20)
(0.214062 0.0418469 8.87892e-20)
(0.25531 0.0410973 -8.34111e-20)
(0.300453 0.0407865 0)
(0.34946 0.0409704 0)
(0.402179 0.0416869 0)
(0.458267 0.0429177 1.26267e-19)
(0.517988 0.0453216 -5.85046e-20)
(0.575558 0.0445599 1.10263e-19)
(0.657645 0.0572846 9.72809e-20)
(-0.00526396 0.00628307 -1.3515e-19)
(-0.0142145 0.0169887 6.95759e-20)
(-0.0217221 0.026136 -6.66382e-20)
(-0.0276575 0.0337978 6.35222e-20)
(-0.0319103 0.0400605 -6.01176e-20)
(-0.0343847 0.045023 5.72429e-20)
(-0.0349917 0.0487948 -5.446e-20)
(-0.0336456 0.0514924 -1.02908e-19)
(-0.0302601 0.0532364 9.78913e-20)
(-0.0247438 0.054149 1.84779e-19)
(-0.0169968 0.0543524 8.71601e-20)
(-0.00690711 0.0539674 -8.25373e-20)
(0.00565218 0.0531124 2.19706e-22)
(0.0208245 0.0519026 2.32405e-23)
(0.0387706 0.05045 6.90865e-20)
(0.0596677 0.0488629 0)
(0.0837068 0.0472461 1.22012e-19)
(0.111087 0.0457004 2.86775e-19)
(0.142009 0.0443232 -5.39582e-20)
(0.176662 0.0432074 0)
(0.21521 0.0424413 -1.89699e-19)
(0.25777 0.042107 -8.8858e-20)
(0.304396 0.042279 -8.30435e-20)
(0.355041 0.0430212 7.79679e-20)
(0.409543 0.0443867 -7.24571e-20)
(0.467571 0.0464015 6.79544e-20)
(0.528598 0.0490221 -3.44528e-22)
(0.592541 0.0530426 1.16761e-19)
(0.653766 0.0532842 -1.09051e-19)
(0.738774 0.0683596 -1.95867e-19)
(-0.00545132 0.00617211 6.83751e-20)
(-0.0146094 0.0165991 6.99994e-20)
(-0.0221431 0.0254311 -2.36844e-22)
(-0.0279151 0.0327548 4.00662e-22)
(-0.0318061 0.0386708 0)
(-0.033711 0.0432912 -2.40969e-22)
(-0.0335314 0.0467374 -1.64422e-19)
(-0.0311713 0.0491364 0)
(-0.0265322 0.0506184 -9.8284e-20)
(-0.0195088 0.0513142 -3.71069e-19)
(-0.00998527 0.0513543 8.77724e-20)
(0.00216836 0.0508672 -8.28234e-20)
(0.0170981 0.0499791 -1.55648e-19)
(0.0349674 0.0488132 1.47092e-19)
(0.055956 0.0474897 0)
(0.0802576 0.0461254 6.49188e-20)
(0.108075 0.0448338 -1.83575e-19)
(0.13961 0.0437245 -5.74568e-20)
(0.175053 0.0429029 -1.61867e-19)
(0.21457 0.042469 0)
(0.258274 0.0425157 1.89675e-19)
(0.306209 0.0431269 8.88535e-20)
(0.358321 0.0443746 0)
(0.414423 0.046315 7.76505e-20)
(0.474174 0.0489889 0)
(0.537021 0.0523957 -6.73358e-20)
(0.602264 0.056503 -1.88332e-19)
(0.669131 0.0619657 -2.3316e-19)
(0.733531 0.0636569 -1.07972e-19)
(0.817139 0.0809809 -3.42105e-21)
(-0.00562701 0.00604637 -6.83751e-20)
(-0.0149477 0.0161594 2.92883e-22)
(-0.0224406 0.0246399 6.73316e-20)
(-0.0279616 0.031591 -6.39227e-20)
(-0.0313832 0.037129 -6.09402e-20)
(-0.0325908 0.0413813 1.15566e-19)
(-0.0314762 0.0444824 5.50983e-20)
(-0.0279317 0.0465715 1.04356e-19)
(-0.0218456 0.0477892 9.8344e-20)
(-0.0130974 0.0482766 9.33584e-20)
(-0.00155355 0.0481732 1.76286e-19)
(0.0129345 0.0476167 -3.04502e-22)
(0.0305323 0.0467421 0)
(0.051422 0.0456818 -7.35282e-20)
(0.0757994 0.044565 -2.15965e-22)
(0.103869 0.0435175 1.30734e-22)
(0.135835 0.0426617 1.83675e-19)
(0.171889 0.0421149 0)
(0.212194 0.0419887 1.07862e-19)
(0.25686 0.0423866 0)
(0.305926 0.0434011 2.5714e-24)
(0.359321 0.0451104 -8.86022e-20)
(0.416843 0.047574 1.66087e-19)
(0.478122 0.0508289 -7.7896e-20)
(0.542603 0.0548913 -1.44645e-19)
(0.60948 0.0597167 6.75493e-20)
(0.677908 0.0653396 2.50853e-19)
(0.746175 0.0718839 5.79697e-20)
(0.813135 0.0759404 2.68213e-19)
(0.88908 0.0946694 5.10917e-20)
(-0.00578743 0.00590437 6.91147e-20)
(-0.0152164 0.0156667 -1.41822e-19)
(-0.0225895 0.0237611 0)
(-0.0277578 0.030308 0)
(-0.030586 0.0354415 6.13316e-20)
(-0.0309503 0.0393057 -2.65144e-22)
(-0.0287319 0.04205 -1.10294e-19)
(-0.023811 0.0438266 -1.04554e-19)
(-0.0160613 0.0447884 3.99702e-22)
(-0.00534586 0.0450872 4.16371e-22)
(0.00848685 0.0448734 -8.81479e-20)
(0.0256044 0.0442947 1.66231e-19)