/*--------------------------------*- C++ -*----------------------------------*\
  =========                 |
  \\      /  F ield         | OpenFOAM: The Open Source CFD Toolbox
   \\    /   O peration     | Website:  https://openfoam.org
    \\  /    A nd           | Version:  7
     \\/     M anipulation  |
\*---------------------------------------------------------------------------*/
FoamFile
{
    version     2.0;
    format      ascii;
    class       surfaceScalarField;
    location    "10";
    object      phi;
}
// * * * * * * * * * * * * * * * * * * * * * * * * * * * * * * * * * * * * * //

dimensions      [0 3 -1 0 0 0 0];

internalField   nonuniform List<scalar> 
1652
(
-8.59953e-05
4.15621e-06
-1.65116e-09
-9.00844e-05
4.0909e-06
-1.79578e-09
-9.41284e-05
4.04596e-06
-1.9481e-09
-9.81563e-05
4.02997e-06
-2.10796e-09
4.06317e-06
-2.27523e-09
-0.000102217
-8.3955e-05
-8.78108e-05
7.9467e-06
-9.16026e-05
7.83779e-06
-9.53591e-05
7.78641e-06
7.83328e-06
-9.91292e-05
-8.32726e-05
1.13365e-05
-8.65608e-05
1.11259e-05
-8.97751e-05
1.10007e-05
1.10226e-05
-9.29644e-05
-7.64879e-05
1.40291e-05
-7.90223e-05
1.36603e-05
-8.14252e-05
1.34036e-05
1.33425e-05
-8.3745e-05
-6.74832e-05
1.57951e-05
-6.90156e-05
1.51928e-05
-7.03399e-05
1.47279e-05
1.45061e-05
-7.15035e-05
-5.62933e-05
1.64077e-05
-5.65785e-05
1.5478e-05
-5.65598e-05
1.47091e-05
1.42295e-05
-5.62832e-05
-4.29608e-05
1.56436e-05
-4.17573e-05
1.42745e-05
-4.0136e-05
1.30878e-05
1.22316e-05
-3.81381e-05
-2.75343e-05
1.32826e-05
-2.46032e-05
1.13433e-05
-2.11347e-05
9.61939e-06
8.22783e-06
-1.7131e-05
-1.00694e-05
-5.16558e-06
6.43949e-06
4.6516e-07
3.98865e-06
2.04713e-06
6.64586e-06
1.64543e-05
-6.46342e-07
2.43993e-05
-3.95636e-06
-6.74649e-06
3.3193e-05
4.02212e-05
-1.015e-05
5.07873e-05
-1.45225e-05
-1.83178e-05
6.23586e-05
6.6047e-05
-2.22905e-05
7.94604e-05
-2.79359e-05
-3.29345e-05
9.40771e-05
9.38497e-05
0.000110342
-4.44277e-05
-5.08497e-05
0.000128257
0.000143341
-6.42227e-05
-7.23126e-05
0.000164804
0.000178367
-9.75378e-05
0.000203592
-0.000126791
0.000244593
-0.000160303
0.00028767
0.000332719
0.000160307
0.000332718
0.000126794
0.000287669
9.75414e-05
0.000244592
0.000178367
6.42261e-05
7.23162e-05
0.000203592
0.00014334
4.44312e-05
5.08535e-05
0.000164803
9.38491e-05
2.22938e-05
0.000110341
2.79395e-05
3.29384e-05
0.000128256
6.60464e-05
1.01535e-05
7.94598e-05
1.45262e-05
1.83217e-05
9.40764e-05
4.02206e-05
6.49819e-07
5.07866e-05
3.96011e-06
6.75049e-06
6.23579e-05
1.64538e-05
-6.43594e-06
2.43987e-05
-3.98482e-06
-2.04305e-06
3.31922e-05
-1.00699e-05
-1.32793e-05
-5.16611e-06
-1.13397e-05
4.64576e-07
-9.6155e-06
-8.22361e-06
6.64514e-06
-2.75347e-05
-1.56402e-05
-2.46037e-05
-1.42708e-05
-2.11353e-05
-1.30838e-05
-1.22273e-05
-1.71316e-05
-4.29612e-05
-1.64043e-05
-4.17577e-05
-1.54743e-05
-4.01365e-05
-1.47051e-05
-1.42251e-05
-3.81387e-05
-5.62937e-05
-1.57916e-05
-5.6579e-05
-1.5189e-05
-5.65602e-05
-1.47238e-05
-1.45017e-05
-5.62837e-05
-6.74835e-05
-1.40256e-05
-6.9016e-05
-1.36565e-05
-7.03403e-05
-1.33995e-05
-1.3338e-05
-7.15039e-05
-7.64881e-05
-1.1333e-05
-7.90225e-05
-1.11221e-05
-8.14255e-05
-1.09966e-05
-1.10181e-05
-8.37454e-05
-8.32728e-05
-7.94312e-06
-8.6561e-05
-7.83391e-06
-8.97753e-05
-7.78222e-06
-7.82875e-06
-9.29647e-05
-8.39551e-05
-4.15291e-06
-8.78109e-05
-4.08731e-06
-9.16027e-05
-4.04207e-06
-9.53592e-05
-4.02576e-06
-4.05863e-06
-9.91293e-05
-8.59953e-05
-9.00844e-05
-9.41285e-05
-9.81563e-05
-0.000102217
-0.000103859
1.64462e-06
-3.25018e-09
1.04616e-06
-3.40271e-09
-0.000100709
3.22429e-06
2.02456e-06
-9.44218e-05
4.68172e-06
2.87547e-06
-8.50217e-05
5.95842e-06
3.53869e-06
-7.2543e-05
6.99786e-06
3.95555e-06
-5.70332e-05
7.74792e-06
4.05171e-06
-3.85547e-05
8.16453e-06
3.79602e-06
-1.71708e-05
8.20436e-06
-1.65162e-05
3.14139e-06
-3.28869e-06
7.06438e-06
7.78583e-06
8.1436e-06
2.06218e-06
-5.16036e-06
3.39843e-05
6.99454e-06
3.55751e-05
4.71359e-07
-7.49781e-06
6.36403e-05
5.71284e-06
6.56359e-05
-1.5243e-06
-1.03702e-05
9.58175e-05
3.97242e-06
9.83097e-05
-4.01648e-06
-1.37605e-05
0.000130442
1.78704e-06
0.000133457
-7.03157e-06
-1.76781e-05
0.000167431
-8.3988e-07
0.000170962
-1.0563e-05
0.000175412
-2.21278e-05
-3.40915e-05
0.000206709
-3.95652e-06
0.000210713
-1.45674e-05
0.00021569
-2.7104e-05
-3.98435e-05
0.000248104
-7.46759e-06
0.00025259
-1.9053e-05
0.000258082
-3.25961e-05
-4.61069e-05
0.000291538
-1.13359e-05
0.000296473
-2.39877e-05
0.000302463
-3.85866e-05
-5.28639e-05
0.0003369
-1.5517e-05
0.000342249
-2.93366e-05
0.000348712
-4.505e-05
0.000355936
-6.00876e-05
-7.51419e-05
0.000384079
-1.99558e-05
0.000389803
-3.50611e-05
0.000396707
-5.19543e-05
0.000404362
-6.77418e-05
-8.33252e-05
0.000432964
0.000439024
-4.11211e-05
0.000446332
-5.92621e-05
0.00045437
-7.57799e-05
-9.18207e-05
0.000489808
-4.74786e-05
0.000497477
-6.6931e-05
0.00050584
-8.41426e-05
0.000514566
-0.000100547
-0.000115936
0.000542059
-5.41034e-05
0.000550041
-7.49129e-05
0.000558652
-9.27534e-05
0.000567503
-0.000109398
-0.000124762
0.000595701
0.00060394
-8.31515e-05
0.000612697
-0.000101511
0.000621531
-0.000118232
-0.000133402
0.000659107
-9.15759e-05
0.000667871
-0.000110274
0.000676499
-0.000126861
0.00068474
-0.000141643
-0.000154889
0.00071551
0.000724076
-0.000118841
0.000732245
-0.000135029
0.000739818
-0.000149216
-0.000161837
0.000781214
-0.000126906
0.000788576
-0.00014239
0.000795144
-0.000155785
0.000800983
-0.000167676
-0.000178526
0.000839146
-0.000134022
0.000845243
-0.000148487
0.000850401
-0.000160943
0.000854789
-0.000172064
-0.000182313
0.000897694
0.000901927
-0.00015272
0.000905197
-0.000164213
0.000907769
-0.000174636
-0.000184387
0.000958295
-0.000154286
0.000959123
-0.000165041
0.00095949
-0.000175004
0.000959573
-0.00018447
-0.000193549
0.0010138
0.00101162
-0.000162862
0.00100943
-0.000172812
0.00100729
-0.000182327
-0.000191494
0.00350704
-0.00015247
0.00349808
-0.000163857
0.00349024
-0.00017448
0.00348327
-0.000184523
-0.000194088
0.00399709
-0.000127065
0.00397438
-0.000141141
0.00395397
-0.000154077
0.00393554
-0.000166091
-0.000177343
0.00446717
-9.27226e-05
0.00443529
-0.000109254
0.00440578
-0.000124568
0.00437849
-0.0001388
-0.00015208
0.00490396
-5.38778e-05
0.00486695
-7.22452e-05
0.00483189
-8.95076e-05
0.00479879
-0.0001057
-0.000120889
0.00530076
-1.33073e-05
0.00526151
-3.2987e-05
0.00522371
-5.17103e-05
0.00518746
-6.94504e-05
-8.62212e-05
0.00565454
2.72544e-05
0.00561495
6.60933e-06
0.00557643
-1.31873e-05
0.00553906
-3.2089e-05
-5.00834e-05
0.00596425
6.65841e-05
0.00592565
4.52132e-05
0.00588783
2.46339e-05
0.00585085
4.88678e-06
-1.40106e-05
0.00623018
0.00010372
0.00619357
8.18286e-05
0.0061575
6.07051e-05
0.00612201
4.03746e-05
2.08492e-05
0.00645373
0.000137889
0.00641987
0.000115687
0.00638633
9.42402e-05
0.00635315
7.35585e-05
5.3646e-05
0.00663723
0.000168515
0.0066067
0.00014622
0.00657627
0.000124664
0.00654599
0.000103847
8.3766e-05
0.00678383
0.000195222
0.006757
0.000173053
0.00673007
0.000151596
0.00670307
0.000130847
0.000110795
0.00689725
0.000217841
0.00687431
0.000196001
0.00685107
0.000174837
0.00682757
0.000154339
0.000134498
0.00698156
0.000236389
0.0069625
0.000215057
0.00694299
0.000194353
0.00692306
0.000174268
0.000154792
0.00704092
0.000251037
0.00702562
0.000230358
0.00700972
0.000210252
0.00699328
0.000190712
0.000171731
0.00707943
0.000262073
0.00706763
0.000242154
0.00705514
0.000222751
0.00704199
0.000203859
0.000185473
0.0071009
0.000269856
0.00709229
0.000250771
0.00708289
0.000232144
0.00707278
0.000213971
0.000196253
0.00710879
0.000274786
0.00710299
0.000256576
0.00709636
0.000238767
0.00708898
0.00022136
0.000204356
0.00710611
0.000277266
0.00710274
0.000259946
0.00709853
0.000242974
0.00709354
0.000226355
0.000210091
0.00709541
0.000277684
0.00709411
0.000261249
0.00709197
0.000245114
0.00708903
0.000229286
0.00021377
0.0070788
0.000276396
0.00707923
0.000260826
0.00707883
0.000245513
0.00707765
0.000230465
0.00021569
0.00705799
0.000273718
0.00705984
0.000258983
0.00706088
0.000244467
0.00706117
0.000230179
0.000216128
0.00703432
0.00026992
0.00703732
0.000255985
0.00703955
0.000242234
0.00704105
0.000228679
0.00021533
0.00700881
0.00026523
0.00701274
0.000252056
0.00701594
0.000239036
0.00701843
0.000226184
0.00021351
0.00698225
0.000259837
0.00698693
0.000247384
0.0069909
0.00023506
0.00699421
0.000222879
0.00021085
0.00695523
0.000253893
0.00696049
0.000242122
0.00696509
0.000230459
0.00696905
0.000218915
0.000207504
0.00692816
0.000247521
0.00693389
0.000236395
0.00693899
0.000225358
0.00694348
0.000214421
0.000203597
0.00690135
0.000240818
0.00690744
0.000230302
0.00691294
0.000219858
0.00691787
0.000209499
0.000199235
0.00687502
0.000233862
0.0068814
0.000223922
0.00688722
0.000214042
0.00689248
0.000204231
0.000194501
0.00684932
0.000226713
0.00685592
0.00021732
0.00686199
0.000207974
0.00686753
0.000198685
0.000189463
0.00682434
0.00021942
0.00683112
0.000210545
0.00683738
0.000201707
0.00684315
0.000192914
0.000184179
0.00680016
0.000212021
0.00680707
0.000203639
0.00681349
0.000195283
0.00681944
0.000186964
0.000178692
0.00677683
0.000204547
0.00678383
0.000196632
0.00679038
0.000188736
0.00679647
0.000180869
0.00017304
0.00675436
0.000197022
0.00676144
0.000189552
0.00676808
0.000182094
0.00677429
0.000174658
0.000167253
0.00673277
0.000189465
0.0067399
0.000182419
0.00674662
0.000175379
0.00675292
0.000168356
0.000161356
0.00671207
0.000181893
0.00671924
0.00017525
0.00672601
0.000168611
0.00673238
0.000161981
0.000155371
0.00669226
0.000174316
0.00669945
0.00016806
0.00670626
0.000161802
0.00671269
0.000155551
0.000149314
0.00667333
0.000166746
0.00668054
0.000160859
0.00668737
0.000154967
0.00669384
0.000149079
0.000143199
0.00665529
0.00015919
0.00666249
0.000153656
0.00666934
0.000148116
0.00667584
0.000142575
0.00013704
0.00663811
0.000151654
0.00664531
0.00014646
0.00665217
0.000141256
0.00665869
0.00013605
0.000130846
0.00662179
0.000144144
0.00662898
0.000139275
0.00663584
0.000134395
0.00664238
0.00012951
0.000124626
0.00660633
0.000136662
0.0066135
0.000132106
0.00662035
0.000127538
0.0066269
0.000122963
0.000118387
0.00659171
0.000129212
0.00659886
0.000124957
0.0066057
0.000120689
0.00661225
0.000116413
0.000112135
0.00657792
0.000121794
0.00658504
0.00011783
0.00659188
0.000113852
0.00659843
0.000109865
0.000105874
0.00656495
0.000114411
0.00657205
0.000110727
0.00657887
0.000107029
0.00658542
0.000103322
9.96101e-05
0.00655279
0.000107062
0.00655987
0.000103649
0.00656668
0.000100223
0.00657321
9.67868e-05
9.33449e-05
0.00654144
9.9747e-05
0.00654849
9.65972e-05
0.00655528
9.3434e-05
0.00656181
9.02609e-05
8.70816e-05
0.00653088
9.24655e-05
0.00653791
8.9571e-05
0.00654468
8.66633e-05
0.00655119
8.37459e-05
8.08219e-05
0.00652111
8.52163e-05
0.00652811
8.257e-05
0.00653487
7.99111e-05
0.00654137
7.72426e-05
7.45675e-05
0.00651212
7.79979e-05
0.0065191
7.55934e-05
0.00652583
7.3177e-05
0.00653232
7.07514e-05
6.83192e-05
0.0065039
7.08085e-05
0.00651086
6.86401e-05
0.00651757
6.64606e-05
0.00652405
6.42723e-05
6.20776e-05
0.00649645
6.36459e-05
0.00650338
6.17085e-05
0.00651008
5.97608e-05
0.00651655
5.7805e-05
5.58431e-05
0.00648976
5.6508e-05
0.00649668
5.4797e-05
0.00650336
5.30766e-05
0.00650982
5.13489e-05
4.96155e-05
0.00648383
4.93921e-05
0.00649073
4.79036e-05
0.0064974
4.64067e-05
0.00650384
4.49032e-05
4.33947e-05
0.00647865
4.22959e-05
0.00648553
4.10264e-05
0.00649219
3.97497e-05
0.00649862
3.84672e-05
3.71802e-05
0.00647423
3.52168e-05
0.00648109
3.41635e-05
0.00648774
3.31041e-05
0.00649416
3.20399e-05
3.09718e-05
0.00647055
2.81525e-05
0.0064774
2.73131e-05
0.00648404
2.64688e-05
0.00649045
2.56204e-05
2.4769e-05
0.00646762
2.1101e-05
0.00647446
2.04736e-05
0.00648108
1.98423e-05
0.00648749
1.9208e-05
1.85712e-05
0.00646542
1.40602e-05
0.00647226
1.36431e-05
0.00647887
1.32234e-05
0.00648528
1.28015e-05
1.23779e-05
0.00646397
7.0277e-06
0.00647079
6.81958e-06
0.00647741
6.6101e-06
0.00648381
6.39949e-06
6.18802e-06
0.00646324
0.00647006
0.00647667
0.00648307
0.00022042
0.00679276
0.000212472
0.00676935
0.000204496
0.00674683
0.00019651
0.00672521
0.000188529
0.0067045
0.000180563
0.00668468
0.000172621
0.00666576
0.00016471
0.00664773
0.000156833
0.00663057
0.000148996
0.00661428
0.000141201
0.00659885
0.000133449
0.00658426
0.000125741
0.0065705
0.000118077
0.00655756
0.000110457
0.00654544
0.00010288
0.00653412
9.53438e-05
0.0065236
8.78472e-05
0.00651386
8.03879e-05
0.0065049
7.29634e-05
0.00649671
6.5571e-05
0.00648929
5.82079e-05
0.00648263
5.08709e-05
0.00647672
4.35569e-05
0.00647156
3.62629e-05
0.00646715
2.89861e-05
0.00646349
2.1724e-05
0.00646057
1.44743e-05
0.00645838
7.2342e-06
0.00645694
0.00645622
-0.000152473
0.00350704
0.000162865
-0.000127068
0.00399709
-9.27251e-05
0.00446717
-5.38799e-05
0.00490396
-1.33092e-05
0.00530076
2.72527e-05
0.00565454
6.65826e-05
0.00596425
0.000103718
0.00623018
0.000137888
0.00645372
0.000168514
0.00663723
0.000195221
0.00678383
0.00021784
0.00689725
0.000236388
0.00698156
0.000251037
0.00704092
0.000262073
0.00707943
0.000269856
0.0071009
0.000274786
0.00710879
0.000277266
0.00710611
0.000277684
0.00709541
0.000276396
0.0070788
0.000273718
0.00705799
0.00026992
0.00703432
0.000265231
0.00700881
0.000259838
0.00698225
0.000253894
0.00695523
0.000247522
0.00692816
0.000240819
0.00690135
0.000233862
0.00687502
0.000226713
0.00684931
0.00021942
0.00682434
0.000212022
0.00680016
0.000204548
0.00677683
0.000197023
0.00675436
0.000189466
0.00673277
0.000181893
0.00671207
0.000174317
0.00669226
0.000166746
0.00667333
0.00015919
0.00665529
0.000151655
0.00663811
0.000144144
0.00662179
0.000136662
0.00660633
0.000129212
0.00659171
0.000121795
0.00657792
0.000114411
0.00656495
0.000107062
0.00655279
9.97473e-05
0.00654144
9.24658e-05
0.00653088
8.52166e-05
0.00652111
7.79981e-05
0.00651212
7.08087e-05
0.0065039
6.36462e-05
0.00649645
5.65082e-05
0.00648976
4.93923e-05
0.00648383
4.2296e-05
0.00647865
3.52169e-05
0.00647423
2.81526e-05
0.00647055
2.11011e-05
0.00646762
1.40603e-05
0.00646542
7.02772e-06
0.00646397
0.00646324
-0.000163861
0.00349808
0.000172816
-0.000141144
0.00397437
-0.000109257
0.00443528
-7.22474e-05
0.00486695
-3.29889e-05
0.0052615
6.60766e-06
0.00561495
4.52118e-05
0.00592565
8.18275e-05
0.00619356
0.000115686
0.00641987
0.000146219
0.0066067
0.000173052
0.006757
0.000196001
0.0068743
0.000215057
0.0069625
0.000230358
0.00702562
0.000242154
0.00706763
0.000250772
0.00709228
0.000256576
0.00710299
0.000259946
0.00710274
0.000261249
0.0070941
0.000260827
0.00707923
0.000258984
0.00705984
0.000255985
0.00703732
0.000252056
0.00701274
0.000247384
0.00698693
0.000242123
0.00696049
0.000236395
0.00693389
0.000230302
0.00690744
0.000223923
0.0068814
0.000217321
0.00685592
0.000210546
0.00683111
0.000203639
0.00680707
0.000196633
0.00678383
0.000189552
0.00676144
0.000182419
0.0067399
0.000175251
0.00671924
0.00016806
0.00669945
0.000160859
0.00668053
0.000153657
0.00666249
0.00014646
0.00664531
0.000139275
0.00662898
0.000132106
0.0066135
0.000124957
0.00659886
0.00011783
0.00658504
0.000110727
0.00657205
0.00010365
0.00655987
9.65976e-05
0.00654849
8.95713e-05
0.00653791
8.25703e-05
0.00652811
7.55937e-05
0.0065191
6.86404e-05
0.00651086
6.17087e-05
0.00650338
5.47972e-05
0.00649668
4.79037e-05
0.00649073
4.10265e-05
0.00648553
3.41636e-05
0.00648109
2.73132e-05
0.0064774
2.04736e-05
0.00647446
1.36432e-05
0.00647226
6.81961e-06
0.00647079
0.00647006
-0.000174483
0.00349024
0.000182331
-0.00015408
0.00395397
-0.000124571
0.00440578
-8.95098e-05
0.00483189
-5.17122e-05
0.00522371
-1.31889e-05
0.00557642
2.46325e-05
0.00588783
6.07039e-05
0.00615749
9.42392e-05
0.00638633
0.000124664
0.00657627
0.000151596
0.00673007
0.000174837
0.00685106
0.000194353
0.00694298
0.000210252
0.00700972
0.000222751
0.00705513
0.000232144
0.00708289
0.000238767
0.00709636
0.000242974
0.00709853
0.000245115
0.00709196
0.000245514
0.00707883
0.000244467
0.00706088
0.000242235
0.00703955
0.000239037
0.00701594
0.000235061
0.0069909
0.000230459
0.00696509
0.000225358
0.00693899
0.000219859
0.00691294
0.000214042
0.00688721
0.000207974
0.00686198
0.000201707
0.00683738
0.000195283
0.00681349
0.000188737
0.00679038
0.000182095
0.00676808
0.00017538
0.00674662
0.000168611
0.00672601
0.000161803
0.00670626
0.000154968
0.00668737
0.000148116
0.00666934
0.000141257
0.00665217
0.000134395
0.00663584
0.000127538
0.00662035
0.000120689
0.0066057
0.000113852
0.00659188
0.00010703
0.00657887
0.000100223
0.00656668
9.34344e-05
0.00655528
8.66637e-05
0.00654468
7.99114e-05
0.00653487
7.31773e-05
0.00652583
6.64608e-05
0.00651757
5.97611e-05
0.00651008
5.30768e-05
0.00650336
4.64069e-05
0.0064974
3.97498e-05
0.00649219
3.31043e-05
0.00648774
2.64689e-05
0.00648404
1.98424e-05
0.00648108
1.32234e-05
0.00647887
6.61012e-06
0.00647741
0.00647667
-0.000184526
0.00348326
0.000191498
-0.000166094
0.00393554
-0.000138803
0.00437848
-0.000105702
0.00479879
-6.94523e-05
0.00518746
-3.20906e-05
0.00553906
4.88543e-06
0.00585085
4.03735e-05
0.006122
7.35576e-05
0.00635315
0.000103847
0.00654598
0.000130846
0.00670307
0.000154339
0.00682757
0.000174268
0.00692305
0.000190712
0.00699328
0.000203859
0.00704199
0.000213972
0.00707278
0.00022136
0.00708897
0.000226355
0.00709353
0.000229286
0.000230466
0.00023018
0.00022868
0.000226185
0.000222879
0.000218916
0.000214422
0.000209499
0.000204231
0.000198685
0.000192915
0.000186965
0.000180869
0.000174659
0.000168357
0.000161982
0.000155552
0.000149079
0.000142576
0.00013605
0.000129511
0.000122963
0.000116414
0.000109866
0.000103323
9.67873e-05
9.02613e-05
8.37463e-05
7.7243e-05
7.07517e-05
6.42726e-05
5.78052e-05
5.13491e-05
4.49034e-05
3.84673e-05
3.204e-05
2.56206e-05
1.92081e-05
1.28015e-05
6.39952e-06
-0.000194091
-0.000177346
-0.000152083
-0.000120891
-8.62231e-05
-5.0085e-05
-1.40119e-05
2.08481e-05
5.36452e-05
8.37654e-05
0.000110795
0.000134497
0.000154792
0.000171731
0.000185473
0.000196253
0.000204357
0.0010138
0.000154289
0.00101162
0.000165045
0.00100943
0.000175007
0.00100729
0.000184474
0.000193553
0.000958294
0.000152723
0.000959121
0.000164217
0.000959489
0.00017464
0.000959571
0.000184391
0.000897693
0.000134026
0.000901925
0.000148491
0.000905195
0.000160947
0.000907767
0.000172069
0.000182318
0.000839145
0.00012691
0.000845241
0.000142394
0.000850399
0.000155789
0.000854788
0.00016768
0.00017853
0.000781213
0.000118845
0.000788574
0.000135033
0.000795143
0.000149221
0.000800981
0.000161842
0.000715509
9.15799e-05
0.000724075
0.000110279
0.000732243
0.000126865
0.000739816
0.000141648
0.000154894
0.000659106
8.31557e-05
0.000667869
0.000101515
0.000676498
0.000118237
0.000684739
0.000133407
0.0005957
5.41076e-05
0.000603939
7.49173e-05
0.000612696
9.2758e-05
0.00062153
0.000109403
0.000124767
0.000542059
4.7483e-05
0.00055004
6.69356e-05
0.000558651
8.41474e-05
0.000567501
0.000100552
0.000115941
0.000489807
4.11257e-05
0.000497476
5.92669e-05
0.000505838
7.57849e-05
0.000514565
9.18259e-05
0.000432964
1.99603e-05
0.000439024
3.50659e-05
0.000446331
5.19593e-05
0.000454369
6.7747e-05
8.33306e-05
0.000384078
1.55217e-05
0.000389802
2.93415e-05
0.000396706
4.50551e-05
0.00040436
6.0093e-05
7.51475e-05
0.000336899
1.13408e-05
0.000342248
2.39927e-05
0.000348711
3.85919e-05
0.000355935
5.28695e-05
0.000291537
7.47265e-06
0.000296472
1.90582e-05
0.000302462
3.26016e-05
4.61127e-05
0.000248103
3.96181e-06
0.000252589
1.45728e-05
0.00025808
2.71097e-05
3.98494e-05
0.000206708
8.45479e-07
0.000210712
1.05685e-05
0.000215688
2.21336e-05
3.40976e-05
0.00016743
-1.78152e-06
0.000170961
7.03731e-06
0.000175411
1.76841e-05
0.000130441
-3.96676e-06
0.000133456
4.02237e-06
1.37666e-05
9.58167e-05
-5.70704e-06
9.83086e-05
1.53038e-06
1.03765e-05
6.36397e-05
-6.98889e-06
6.56346e-05
-4.64493e-07
7.50395e-06
3.39832e-05
-7.77988e-06
3.55743e-05
-2.05561e-06
5.1668e-06
7.06351e-06
-8.19825e-06
8.14277e-06
-3.13487e-06
3.29525e-06
-1.71716e-05
-8.15832e-06
-1.6517e-05
-3.78944e-06
-3.85554e-05
-7.7416e-06
-4.04503e-06
-5.70338e-05
-6.99146e-06
-3.94863e-06
-7.25434e-05
-5.952e-06
-3.53207e-06
-8.50221e-05
-4.67528e-06
-2.86877e-06
-9.44221e-05
-3.21782e-06
-2.01781e-06
-0.000100709
-1.63813e-06
-1.03937e-06
-0.000103859
)
;

boundaryField
{
    inlet
    {
        type            calculated;
        value           nonuniform 0();
    }
    outlet
    {
        type            calculated;
        value           nonuniform 0();
    }
    cylinder
    {
        type            calculated;
        value           nonuniform 0();
    }
    top
    {
        type            symmetryPlane;
        value           uniform 0;
    }
    bottom
    {
        type            symmetryPlane;
        value           uniform 0;
    }
    defaultFaces
    {
        type            empty;
        value           nonuniform 0();
    }
    procBoundary18to17
    {
        type            processor;
        value           nonuniform List<scalar> 
201
(
8.18407e-05
8.00154e-05
8.09576e-06
7.98828e-05
7.37953e-05
6.57172e-05
5.56806e-05
4.37249e-05
2.98953e-05
1.42434e-05
9.10862e-06
-9.3685e-06
-3.07175e-05
-5.39065e-05
-7.88611e-05
-3.72791e-05
-0.000123546
-0.000155052
-8.75382e-05
-0.00021534
-0.000254158
-0.000294721
-0.000198302
-0.00037964
-0.000428327
-0.000428327
-0.000198305
-0.000379639
-0.00029472
-0.000254157
-0.000215339
-8.75415e-05
-0.000155051
-0.000123546
-3.72823e-05
-7.88606e-05
-5.3906e-05
-3.0717e-05
-9.368e-06
9.10534e-06
1.42438e-05
2.98957e-05
4.37252e-05
5.5681e-05
6.57175e-05
7.37955e-05
7.9883e-05
8.09247e-06
8.00155e-05
8.18408e-05
-2.45929e-05
-0.000483451
-0.000535435
-0.000588824
-6.09804e-05
-0.000650683
-0.000707001
-0.000100084
-0.000773149
-0.00083203
-0.000892194
-0.000139522
-0.000956729
-0.00101584
-0.000152254
-0.00351743
-0.0040225
-0.00450152
-0.00494281
-0.00534134
-0.00569511
-0.00600358
-0.00626732
-0.0064879
-0.00666786
-0.00681054
-0.00691987
-0.00700011
-0.00705557
-0.00709047
-0.00710869
-0.00711372
-0.00710859
-0.00709583
-0.00707752
-0.00705532
-0.00703052
-0.00700412
-0.00697686
-0.00694928
-0.00692179
-0.00689465
-0.00686806
-0.00684217
-0.00681705
-0.00679276
-0.00676935
-0.00674683
-0.00672521
-0.0067045
-0.00668468
-0.00666576
-0.00664773
-0.00663057
-0.00661428
-0.00659885
-0.00658426
-0.0065705
-0.00655756
-0.00654544
-0.00653412
-0.0065236
-0.00651386
-0.0065049
-0.00649671
-0.00648929
-0.00648263
-0.00647672
-0.00647156
-0.00646715
-0.00646349
-0.00646056
-0.00645838
-0.00645694
-0.00645622
-0.00678487
-0.0067614
-0.00673886
-0.00671723
-0.00669652
-0.00667672
-0.00665782
-0.00663982
-0.0066227
-0.00660645
-0.00659105
-0.0065765
-0.00656279
-0.0065499
-0.00653782
-0.00652655
-0.00651606
-0.00650637
-0.00649744
-0.00648929
-0.0064819
-0.00647526
-0.00646938
-0.00646424
-0.00645985
-0.00645621
-0.0064533
-0.00645113
-0.0064497
-0.00644898
-0.00351743
-0.000152258
-0.0040225
-0.00450151
-0.0049428
-0.00534133
-0.0056951
-0.00600358
-0.00626732
-0.00648789
-0.00666785
-0.00681054
-0.00691987
-0.0070001
-0.00705557
-0.00709046
-0.00710869
-0.00711372
-0.00710859
-0.00709583
-0.00707751
-0.00705531
-0.00703052
-0.00700412
-0.00697686
-0.00694928
-0.00692179
-0.00689465
-0.00686806
-0.00684217
-0.000228319
-0.00681705
-0.00101583
-0.000956728
-0.000139525
-0.000892193
-0.000832029
-0.000773148
-0.000100088
-0.000707001
-0.000650682
-6.09844e-05
-0.000588823
-0.000535434
-0.00048345
-2.45972e-05
)
;
    }
    procBoundary18to19
    {
        type            processor;
        value           nonuniform List<scalar> 
197
(
-0.000104901
-0.000101687
-9.52728e-05
-8.5685e-05
-7.29598e-05
-5.71294e-05
-3.8299e-05
1.84912e-06
-1.50766e-05
1.00153e-05
3.79125e-05
6.85083e-05
0.0001017
0.000137375
2.88611e-05
0.000180642
0.000221442
0.000264345
0.00030922
6.7333e-05
0.000363745
0.000412545
0.000462866
0.000107089
0.000523413
0.000576329
0.000630171
0.000147134
0.000692496
0.000746766
0.000173308
0.000806201
0.000858577
0.000909843
0.000193633
0.000959488
0.00100524
0.000200341
0.00347701
0.0039188
0.00435322
0.0047676
0.00515279
0.00550293
0.00581478
0.00608715
0.00632035
0.00651587
0.00667604
0.00680387
0.00690276
0.00697634
0.00702825
0.007062
0.00708087
0.0070878
0.00708536
0.00707573
0.00706073
0.00704185
0.00702025
0.00699687
0.0069724
0.00694739
0.00692223
0.00689722
0.00687257
0.00684844
0.00682493
0.00680213
0.00678008
0.00675882
0.00673837
0.00671875
0.00669996
0.006682
0.00666488
0.0066486
0.00663314
0.00661851
0.00660469
0.00659168
0.00657948
0.00656807
0.00655745
0.00654762
0.00653857
0.00653029
0.00652279
0.00651604
0.00651006
0.00650484
0.00650037
0.00649666
0.00649369
0.00649147
0.00649
0.00648926
0.00708903
0.00707765
0.00706117
0.00704105
0.00701843
0.00699421
0.00696905
0.00694348
0.00691786
0.00689248
0.00686753
0.00684315
0.00681944
0.00679647
0.00677429
0.00675292
0.00673238
0.00671269
0.00669384
0.00667584
0.00665869
0.00664238
0.0066269
0.00661225
0.00659843
0.00658542
0.00657321
0.00656181
0.00655119
0.00654137
0.00653232
0.00652405
0.00651655
0.00650982
0.00650384
0.00649863
0.00649416
0.00649045
0.0064875
0.00648528
0.00648381
0.00648307
0.00347701
0.000200345
0.00391879
0.00435322
0.0047676
0.00515279
0.00550292
0.00581478
0.00608714
0.00632035
0.00651586
0.00667604
0.00680387
0.00690276
0.00697634
0.00702824
0.007062
0.00708087
0.000210092
0.0070878
0.00100523
0.000959486
0.000193638
0.000909841
0.000858575
0.000806199
0.000173312
0.000746764
0.000692495
0.000147138
0.000630169
0.000576328
0.000523411
0.000107095
0.000462864
0.000412543
0.000363743
6.73388e-05
0.000309219
0.000264344
0.00022144
0.000180641
2.88674e-05
0.000137374
0.000101699
6.85072e-05
3.79115e-05
1.00143e-05
-1.50775e-05
1.85573e-06
-3.82998e-05
-5.71302e-05
-7.296e-05
-8.56854e-05
-9.52731e-05
-0.000101687
-0.000104901
)
;
    }
}


// ************************************************************************* //
