/*--------------------------------*- C++ -*----------------------------------*\
  =========                 |
  \\      /  F ield         | OpenFOAM: The Open Source CFD Toolbox
   \\    /   O peration     | Website:  https://openfoam.org
    \\  /    A nd           | Version:  7
     \\/     M anipulation  |
\*---------------------------------------------------------------------------*/
FoamFile
{
    version     2.0;
    format      ascii;
    class       volVectorField;
    location    "70";
    object      U;
}
// * * * * * * * * * * * * * * * * * * * * * * * * * * * * * * * * * * * * * //

dimensions      [0 1 -1 0 0 0 0];

internalField   nonuniform List<vector> 
183
(
(0.577941 0.435027 3.01987e-22)
(0.521236 0.762422 -5.24059e-22)
(0.460598 0.633515 -8.30275e-22)
(0.544414 0.414054 -4.51936e-21)
(0.461372 0.766333 4.45263e-23)
(0.44608 0.618732 -7.03633e-22)
(0.508974 0.39104 -3.17581e-21)
(0.402812 0.769202 7.06575e-21)
(0.432728 0.601404 2.17617e-21)
(0.470573 0.365252 3.61187e-21)
(0.347294 0.770905 -4.12357e-21)
(0.422379 0.581596 1.37632e-21)
(0.296305 0.771173 -5.98782e-21)
(0.416857 0.559445 -5.19438e-21)
(0.250804 0.769605 3.44504e-21)
(0.417563 0.535154 2.78376e-21)
(0.21099 0.765591 -9.67953e-22)
(0.425292 0.508973 3.25725e-21)
(0.176306 0.758239 1.24009e-20)
(0.440254 0.481175 8.17355e-21)
(0.14577 0.746503 -4.28481e-21)
(0.462263 0.452033 5.30753e-21)
(0.118648 0.729398 2.17597e-21)
(0.490971 0.421804 3.42307e-21)
(0.0952828 0.706145 -1.12314e-21)
(0.525996 0.390748 -4.3655e-21)
(0.0776859 0.676315 1.6025e-21)
(0.566934 0.359162 -6.69737e-21)
(0.0694673 0.640224 7.86744e-21)
(0.613232 0.32742 -1.32339e-21)
(0.0748415 0.599153 -8.67636e-21)
(0.66406 0.295963 4.21225e-21)
(0.0969813 0.555121 8.63717e-21)
(0.718261 0.265281 -6.76016e-21)
(0.136664 0.510363 -2.01767e-21)
(0.774459 0.235913 1.10915e-20)
(0.1921 0.466794 -4.82791e-21)
(0.831333 0.208424 7.73838e-21)
(0.259925 0.425775 -9.56327e-21)
(0.887886 0.183259 1.2318e-21)
(0.336709 0.388 3.29867e-22)
(0.943695 0.160549 -2.24723e-21)
(0.421131 0.35516 -3.78814e-21)
(0.999391 0.141812 7.2307e-21)
(0.524985 0.326313 1.60758e-21)
(1.05799 0.127944 -1.72434e-21)
(0.869272 0.219303 0)
(1.22802 0.0486877 0)
(1.12732 0.16053 0)
(1.29617 -0.0208314 0)
(1.19137 0.100687 0)
(1.27694 -0.0332311 0)
(1.19078 0.0662643 0)
(1.23577 -0.0387328 0)
(1.17676 0.0442912 0)
(1.20298 -0.0381891 0)
(1.15982 0.0261053 0)
(1.17924 -0.0338982 0)
(1.14536 0.0144057 0)
(1.15755 -0.030251 0)
(1.13206 0.00607764 0)
(1.13955 -0.0272163 0)
(1.1211 0.00113144 0)
(1.12495 -0.0240543 0)
(1.11184 -0.00155755 0)
(1.1134 -0.0212792 0)
(1.10367 -0.00294103 0)
(1.10404 -0.0185821 0)
(1.09621 -0.00326564 0)
(1.09615 -0.0158884 0)
(1.08947 -0.00336866 0)
(1.08944 -0.0135598 0)
(1.08407 -0.00296146 0)
(1.08414 -0.0112492 0)
(1.07923 -0.00263762 0)
(1.07951 -0.00930444 0)
(1.07565 -0.00213129 0)
(1.07597 -0.00745153 0)
(1.06904 -0.0126805 0)
(1.07224 -0.00167215 0)
(1.07266 -0.00581819 0)
(1.06648 -0.00990322 0)
(1.06983 -0.00129912 0)
(1.07021 -0.00438298 0)
(1.06467 -0.00743721 0)
(1.06801 -0.000829555 0)
(1.06836 -0.00298828 0)
(1.06336 -0.00512533 0)
(1.06708 -0.000599596 0)
(1.06732 -0.00183813 0)
(1.06266 -0.00306883 0)
(1.06626 -5.96021e-05 0)
(1.06653 -0.000508012 0)
(1.0621 -0.00093996 0)
(1.09943 0.375848 0)
(1.0443 0.359703 0)
(1.08281 0.235395 0)
(1.08053 0.200841 0)
(1.08656 0.139555 0)
(1.0834 0.105835 0)
(1.08032 0.0778507 0)
(1.07748 0.0580868 0)
(1.07588 0.0432743 0)
(1.07389 0.0325296 0)
(1.07269 0.0243432 0)
(1.07073 0.0182225 0)
(1.06942 0.0136951 0)
(1.06738 0.0100816 0)
(1.06608 0.00759795 0)
(1.06414 0.00538877 0)
(1.06277 0.0040296 0)
(1.06148 0.00268348 0)
(1.0608 0.00186913 0)
(1.06005 0.000953424 0)
(1.05947 0.000367567 0)
(1.03139 0.385463 0)
(0.940343 0.318085 0)
(0.945027 0.231405 0)
(0.95483 0.186877 0)
(0.973596 0.131496 0)
(0.998322 0.0959152 0)
(1.01852 0.0672352 0)
(1.03309 0.0477849 0)
(1.04326 0.0340532 0)
(1.04945 0.024691 0)
(1.05371 0.0180066 0)
(1.05573 0.0132287 0)
(1.05707 0.0098314 0)
(1.05719 0.0072048 0)
(1.05735 0.00545272 0)
(1.05677 0.00391985 0)
(1.05637 0.00299286 0)
(1.05594 0.00205205 0)
(1.05581 0.00145873 0)
(1.05549 0.000763994 0)
(1.05515 0.000290101 0)
(1.08676 0.462059 -1.28054e-20)
(0.965846 0.467499 3.3963e-21)
(1.08201 0.478281 -1.17249e-21)
(0.942893 0.486049 -5.78128e-21)
(1.07668 0.491028 3.52435e-21)
(0.918911 0.50151 1.3721e-21)
(1.07055 0.507956 2.87895e-20)
(0.893552 0.520354 -1.29667e-20)
(1.0633 0.526042 3.83151e-20)
(0.866486 0.540508 -9.90387e-21)
(1.05464 0.543737 -7.27837e-21)
(0.837469 0.559944 -4.37737e-21)
(1.04428 0.56136 6.33149e-21)
(0.806307 0.578287 8.74089e-21)
(1.03198 0.57915 -7.23854e-21)
(0.773033 0.595522 4.05361e-21)
(1.01746 0.597016 8.72032e-21)
(0.738076 0.611456 -2.94437e-21)
(1.00048 0.614816 -1.46277e-20)
(0.702323 0.625834 -6.69457e-21)
(0.98077 0.632426 -1.60811e-21)
(0.667044 0.638447 1.35623e-20)
(0.958042 0.649703 2.42463e-21)
(0.633683 0.649137 -6.28809e-21)
(0.932019 0.666455 -1.04072e-20)
(0.603562 0.657777 -6.3473e-21)
(0.902415 0.682446 -1.92791e-20)
(0.577582 0.664269 2.4206e-21)
(0.86895 0.697424 1.88555e-20)
(0.556029 0.668543 -4.46162e-21)
(0.831363 0.711158 -8.8683e-21)
(0.538537 0.670553 -1.78326e-21)
(0.747889 0.515605 -5.8263e-21)
(0.789459 0.723467 -1.64951e-20)
(0.524215 0.670274 2.33539e-21)
(0.711486 0.503137 1.79327e-20)
(0.743165 0.734241 -2.38191e-21)
(0.511848 0.66769 -1.51345e-21)
(0.676694 0.488612 -2.43132e-21)
(0.692603 0.743448 7.6392e-22)
(0.500152 0.662777 -1.1397e-21)
(0.643235 0.4723 2.38352e-21)
(0.638184 0.751137 -1.77293e-21)
(0.488031 0.655486 -3.68291e-22)
(0.610573 0.454406 -6.95394e-22)
(0.580675 0.757412 5.35418e-22)
(0.47484 0.645754 1.74479e-22)
)
;

boundaryField
{
    inlet
    {
        type            uniformFixedValue;
        uniformValue    constant (1 0 0);
        value           nonuniform 0();
    }
    outlet
    {
        type            pressureInletOutletVelocity;
        value           nonuniform 0();
    }
    cylinder
    {
        type            fixedValue;
        value           nonuniform 0();
    }
    top
    {
        type            symmetryPlane;
    }
    bottom
    {
        type            symmetryPlane;
    }
    defaultFaces
    {
        type            empty;
    }
    procBoundary33to32
    {
        type            processor;
        value           nonuniform List<vector> 
86
(
(0.161673 -0.238516 -1.25704e-21)
(0.10816 -0.281204 -4.13586e-21)
(0.0491574 -0.324473 1.08455e-20)
(-0.0155054 -0.367279 -1.4416e-20)
(0.428142 0.335952 -1.90997e-20)
(0.428142 0.335952 -1.90997e-20)
(0.380452 0.302799 -7.05787e-21)
(0.325921 0.266428 -8.77082e-22)
(0.262838 0.228619 1.38708e-20)
(0.190316 0.191771 6.63475e-21)
(0.109882 0.158041 -1.2823e-20)
(0.0270479 0.129407 -2.69138e-21)
(-0.0491083 0.106792 -2.13459e-21)
(-0.107633 0.0903382 -7.83672e-21)
(-0.138577 0.0797436 -6.88589e-21)
(-0.136001 0.0742457 3.28678e-21)
(-0.0992464 0.0726836 -3.40517e-21)
(-0.0323475 0.0737453 -3.85526e-21)
(0.0578941 0.0761433 6.18462e-22)
(0.164418 0.0790306 1.66707e-22)
(0.282491 0.0805678 1.58568e-21)
(0.412226 0.0768505 3.14709e-21)
(0.765099 0.107117 0)
(1.0018 0.13923 0)
(1.08629 0.0985605 0)
(1.11495 0.0694033 0)
(1.12414 0.044778 0)
(1.12594 0.0287832 0)
(1.12485 0.0181592 0)
(1.12075 0.0120285 0)
(1.11542 0.00790337 0)
(1.10971 0.0055193 0)
(1.10366 0.00382857 0)
(1.0975 0.00296973 0)
(1.09146 0.00211792 0)
(1.08654 0.00183326 0)
(1.08174 0.00139818 0)
(1.0782 0.00122709 0)
(1.07451 0.00103235 0)
(1.07191 0.000759802 0)
(1.06981 0.000656517 0)
(1.06879 0.000240651 0)
(1.06779 0.000276558 0)
(1.28789 0.266003 0)
(1.25601 0.230168 0)
(1.21977 0.161374 0)
(1.17731 0.127539 0)
(1.15219 0.100849 0)
(1.13122 0.0771305 0)
(1.1168 0.0597209 0)
(1.10584 0.0451686 0)
(1.09774 0.0334768 0)
(1.09012 0.0246582 0)
(1.08445 0.017711 0)
(1.07861 0.0125028 0)
(1.07447 0.00874345 0)
(1.07001 0.00574006 0)
(1.06715 0.00393733 0)
(1.06389 0.0022661 0)
(1.06175 0.00157159 0)
(1.05989 0.000741244 0)
(1.05896 0.000554239 0)
(1.05801 0.000124309 0)
(1.05731 0.00012939 0)
(1.25531 0.360187 -3.28113e-20)
(1.24267 0.386499 -2.20782e-20)
(1.22746 0.409208 4.64264e-21)
(1.2093 0.43296 -1.22184e-20)
(1.18775 0.455597 3.32924e-20)
(1.16247 0.475897 -7.7774e-21)
(1.13346 0.493641 2.3876e-21)
(1.10102 0.508652 3.24598e-20)
(1.06565 0.520769 1.02128e-20)
(1.02794 0.529952 -1.03799e-20)
(0.988507 0.536253 1.92437e-20)
(0.947968 0.539722 1.51102e-20)
(0.906903 0.540379 2.90346e-20)
(0.865872 0.538236 -6.45072e-20)
(0.825405 0.53333 4.06252e-20)
(0.785923 0.525746 -1.69578e-20)
(0.785923 0.525746 -1.69578e-20)
(0.447643 -0.0501729 9.2248e-21)
(0.382958 -0.0838506 2.71485e-21)
(0.322269 -0.119593 -7.34361e-21)
(0.265902 -0.157394 1.63331e-21)
(0.213097 -0.197112 1.27373e-21)
)
;
    }
    procBoundary33to34
    {
        type            processor;
        value           nonuniform List<vector> 
85
(
(0.737479 0.061374 -1.4446e-21)
(0.746659 0.0375634 1.32877e-21)
(0.759415 0.0140679 3.45948e-21)
(0.776136 -0.00893799 -3.95541e-23)
(0.796838 -0.0314113 -4.60167e-21)
(0.821224 -0.0531938 -1.38382e-21)
(0.848793 -0.0739669 1.80057e-20)
(0.878952 -0.093463 -3.29461e-21)
(0.911103 -0.111441 1.88871e-20)
(0.944695 -0.127696 -5.65147e-21)
(0.979234 -0.142055 -1.05373e-20)
(1.01427 -0.154369 1.19416e-20)
(1.04937 -0.164515 -1.09195e-20)
(1.08411 -0.172395 -1.07615e-20)
(1.11805 -0.177946 -3.85574e-21)
(1.15079 -0.181134 -9.16811e-21)
(1.18197 -0.181985 2.42697e-20)
(1.2113 -0.180659 -3.02921e-21)
(1.23856 -0.177313 1.37416e-20)
(1.26352 -0.171343 -3.1102e-21)
(1.28581 -0.162414 1.38026e-20)
(1.34129 -0.148692 0)
(1.32063 -0.162687 0)
(1.27372 -0.12823 0)
(1.22764 -0.108448 0)
(1.18657 -0.0985667 0)
(1.16012 -0.0808348 0)
(1.13949 -0.0702081 0)
(1.1243 -0.0581237 0)
(1.11185 -0.0487208 0)
(1.10182 -0.0406926 0)
(1.09345 -0.0339974 0)
(1.08634 -0.0282926 0)
(1.08038 -0.0235593 0)
(1.07575 -0.0193725 0)
(1.07189 -0.0158458 0)
(1.07189 -0.0158458 0)
(1.06313 -0.0123123 0)
(1.06131 -0.00940654 0)
(1.05996 -0.00694084 0)
(1.05898 -0.00473333 0)
(1.05844 -0.00280073 0)
(1.058 -0.000869613 0)
(0.652825 0.341516 0)
(0.718713 0.155241 0)
(0.807264 0.0775956 0)
(0.862329 0.0165311 0)
(0.90073 0.00417619 0)
(0.940291 0.00026774 0)
(0.975064 0.000773053 0)
(1.00232 0.000791276 0)
(1.02211 0.00083254 0)
(1.03544 0.00102345 0)
(1.04464 0.00121304 0)
(1.05038 0.00135453 0)
(1.05427 0.00147789 0)
(1.05633 0.00140246 0)
(1.05768 0.00139017 0)
(1.05795 0.00113505 0)
(1.05795 0.00103774 0)
(1.05773 0.000750393 0)
(1.05762 0.000600988 0)
(1.05731 0.000297742 0)
(1.05698 0.000131356 0)
(0.584774 0.395709 -7.30076e-21)
(0.564563 0.404963 -9.1286e-22)
(0.549765 0.403113 -5.60086e-21)
(0.54197 0.399254 -1.13802e-20)
(0.541553 0.395283 -3.42838e-22)
(0.547795 0.389496 -7.65958e-21)
(0.559163 0.381078 1.87901e-20)
(0.573907 0.370209 7.65644e-21)
(0.590604 0.357038 7.27796e-21)
(0.608322 0.341549 -5.05412e-23)
(0.626464 0.323782 7.29239e-21)
(0.644508 0.303905 6.3794e-21)
(0.66184 0.282196 -1.91147e-20)
(0.677753 0.259012 -8.22562e-21)
(0.691581 0.234758 1.03235e-20)
(0.702868 0.209845 -9.75374e-21)
(0.71151 0.184637 5.28216e-21)
(0.717813 0.159419 5.04389e-22)
(0.722478 0.134408 -6.13675e-21)
(0.726515 0.109726 5.35405e-22)
(0.731115 0.0854027 1.60415e-22)
)
;
    }
}


// ************************************************************************* //
