/*--------------------------------*- C++ -*----------------------------------*\
  =========                 |
  \\      /  F ield         | OpenFOAM: The Open Source CFD Toolbox
   \\    /   O peration     | Website:  https://openfoam.org
    \\  /    A nd           | Version:  7
     \\/     M anipulation  |
\*---------------------------------------------------------------------------*/
FoamFile
{
    version     2.0;
    format      ascii;
    class       volVectorField;
    location    "50";
    object      U;
}
// * * * * * * * * * * * * * * * * * * * * * * * * * * * * * * * * * * * * * //

dimensions      [0 1 -1 0 0 0 0];

internalField   nonuniform List<vector> 
928
(
(0.656823 -0.000372595 5.61696e-25)
(0.657995 -0.000369622 -1.73187e-25)
(0.659158 -0.000366647 -1.98036e-26)
(0.660313 -0.000363665 -2.6897e-26)
(0.661459 -0.000360672 5.46773e-26)
(0.657096 -0.00111731 3.0093e-26)
(0.658266 -0.0011084 -4.30442e-27)
(0.659428 -0.00109948 2.32754e-25)
(0.660581 -0.00109054 -1.70001e-25)
(0.661725 -0.00108157 -3.91195e-26)
(0.657642 -0.00186044 -2.38174e-24)
(0.658809 -0.00184561 2.60342e-24)
(0.659967 -0.00183078 -3.74144e-25)
(0.661116 -0.00181591 -2.30595e-25)
(0.662257 -0.00180099 -5.15602e-25)
(0.658459 -0.00260095 -6.59826e-25)
(0.659621 -0.00258025 -1.28732e-24)
(0.660774 -0.00255953 -4.30332e-25)
(0.661918 -0.00253877 6.1388e-25)
(0.663054 -0.00251794 1.5023e-25)
(0.659547 -0.0033378 -5.31293e-25)
(0.660702 -0.00331127 8.03907e-25)
(0.661848 -0.00328473 -5.0822e-25)
(0.662985 -0.00325813 -5.11975e-25)
(0.664114 -0.00323143 2.83032e-26)
(0.660903 -0.00406996 -2.61484e-25)
(0.662049 -0.00403767 7.77298e-25)
(0.663187 -0.00400536 -2.26711e-24)
(0.664316 -0.00397299 1.25626e-24)
(0.665436 -0.00394051 -6.50786e-25)
(0.662525 -0.00479641 6.59628e-25)
(0.66366 -0.00475844 4.50673e-24)
(0.664787 -0.00472045 -2.84672e-24)
(0.665906 -0.00468239 1.24146e-25)
(0.667016 -0.00464421 2.84799e-27)
(0.664408 -0.00551615 -7.3068e-24)
(0.665532 -0.00547259 1.15381e-24)
(0.666647 -0.00542902 -4.40147e-25)
(0.667754 -0.00538538 3.57495e-24)
(0.668853 -0.00534159 -1.78927e-24)
(0.666551 -0.0062282 -5.10333e-24)
(0.667661 -0.00617917 1.48293e-24)
(0.668763 -0.00613012 1.45199e-24)
(0.669856 -0.00608099 -3.90868e-25)
(0.670942 -0.00603172 5.36262e-25)
(0.668948 -0.00693161 -7.32264e-24)
(0.670043 -0.00687721 8.82748e-24)
(0.67113 -0.00682281 -6.73817e-24)
(0.672209 -0.00676832 1.11791e-24)
(0.67328 -0.00671368 1.37912e-24)
(0.671595 -0.00762542 -5.12927e-24)
(0.672674 -0.0075658 -1.73225e-24)
(0.673745 -0.00750618 3.11677e-24)
(0.674808 -0.00744647 -2.96154e-25)
(0.675863 -0.0073866 1.64087e-24)
(0.674488 -0.00830875 -2.97336e-24)
(0.675549 -0.00824404 7.98658e-24)
(0.676602 -0.00817934 -2.21841e-25)
(0.677647 -0.00811456 -4.95574e-25)
(0.678685 -0.00804962 4.49427e-24)
(0.677621 -0.00898069 -5.62767e-24)
(0.678662 -0.00891105 -4.00359e-24)
(0.679696 -0.00884143 7.51909e-24)
(0.680723 -0.00877173 -5.15027e-24)
(0.681743 -0.00870188 -7.81164e-25)
(0.680988 -0.00964041 -1.58385e-24)
(0.682009 -0.009566 6.59618e-24)
(0.683023 -0.00949162 2.37557e-25)
(0.68403 -0.00941718 2.52588e-24)
(0.685029 -0.00934259 -2.66275e-24)
(0.684582 -0.0102871 6.74633e-24)
(0.685582 -0.0102081 -5.03313e-24)
(0.686575 -0.0101291 -1.85314e-24)
(0.68756 -0.0100501 1.88912e-24)
(0.688539 -0.00997096 1.09164e-24)
(0.688399 -0.01092 3.81834e-24)
(0.689375 -0.0108365 -6.96974e-25)
(0.690346 -0.0107532 2.82051e-24)
(0.69131 -0.0106698 -2.40871e-24)
(0.692267 -0.0105862 1.45034e-24)
(0.692429 -0.0115382 -1.5141e-23)
(0.693382 -0.0114506 -7.07372e-25)
(0.69433 -0.011363 -1.78242e-24)
(0.69527 -0.0112754 6.08441e-26)
(0.696205 -0.0111877 2.82361e-25)
(0.696667 -0.0121413 7.27346e-24)
(0.697596 -0.0120496 6.07392e-24)
(0.698519 -0.011958 -2.04866e-24)
(0.699436 -0.0118664 2.28979e-24)
(0.700347 -0.0117748 3.64847e-24)
(0.701104 -0.0127284 -1.84627e-23)
(0.702008 -0.0126329 -9.55628e-24)
(0.702906 -0.0125375 8.34028e-24)
(0.703799 -0.0124421 1.25349e-25)
(0.704686 -0.0123467 -4.28702e-24)
(0.705734 -0.0132989 1.51471e-23)
(0.706612 -0.0131998 -1.03728e-23)
(0.707484 -0.0131008 1.88747e-24)
(0.708352 -0.0130019 5.98414e-24)
(0.709214 -0.0129029 3.83926e-24)
(0.710547 -0.0138524 -3.16319e-24)
(0.711398 -0.0137498 -2.65047e-24)
(0.712245 -0.0136475 1.38996e-24)
(0.713087 -0.0135452 -8.84654e-24)
(0.713924 -0.0134429 1.47968e-24)
(0.715535 -0.0143882 -1.72012e-23)
(0.71636 -0.0142825 5.59627e-24)
(0.717181 -0.0141769 1.69681e-23)
(0.717996 -0.0140715 -3.77972e-24)
(0.718807 -0.0139661 3.58076e-24)
(0.720691 -0.0149059 -6.83976e-24)
(0.721489 -0.0147972 -1.22038e-23)
(0.722282 -0.0146887 -6.58646e-25)
(0.723071 -0.0145803 7.7621e-25)
(0.723856 -0.0144721 1.4142e-24)
(0.726005 -0.0154051 3.26203e-24)
(0.726775 -0.0152936 -1.98147e-23)
(0.727542 -0.0151824 7.34982e-24)
(0.728304 -0.0150713 1.72946e-23)
(0.729063 -0.0149604 -1.14963e-23)
(0.731468 -0.0158853 -1.72701e-24)
(0.732211 -0.0157713 2.22388e-24)
(0.732951 -0.0156575 1.45638e-23)
(0.733687 -0.015544 -1.01851e-23)
(0.734418 -0.0154306 -5.58432e-24)
(0.737072 -0.0163463 2.96554e-23)
(0.737788 -0.01623 1.55115e-24)
(0.7385 -0.0161139 -3.01547e-24)
(0.739209 -0.0159981 -9.33438e-24)
(0.739915 -0.0158825 -1.04091e-24)
(0.740617 -0.015767 -1.83675e-24)
(0.742807 -0.0167878 -4.19942e-24)
(0.743496 -0.0166693 2.17309e-24)
(0.744181 -0.0165512 -3.10411e-24)
(0.744863 -0.0164334 -8.35262e-24)
(0.745542 -0.0163158 1.93466e-23)
(0.746218 -0.0161983 -8.12461e-24)
(0.748665 -0.0172096 -9.94058e-25)
(0.749327 -0.0170892 1.09379e-23)
(0.749985 -0.0169692 -1.64709e-23)
(0.750641 -0.0168496 7.97395e-24)
(0.751294 -0.0167302 -1.51213e-24)
(0.751944 -0.0166109 -5.30777e-24)
(0.755271 -0.0174895 2.78536e-23)
(0.755903 -0.0173679 -1.54547e-23)
(0.756532 -0.0172466 6.99898e-24)
(0.757159 -0.0171257 -9.15816e-24)
(0.757784 -0.0170049 4.15186e-24)
(0.76132 -0.01787 3.01216e-23)
(0.761925 -0.0177469 -5.42426e-24)
(0.762529 -0.0176242 -3.5797e-24)
(0.76313 -0.0175019 -8.87634e-24)
(0.76373 -0.0173798 9.60711e-24)
(0.771629 -0.018472 0)
(0.772187 -0.0183468 0)
(0.772742 -0.018222 0)
(0.773296 -0.0180976 0)
(0.773848 -0.0179735 0)
(0.786673 -0.0192109 0)
(0.787158 -0.0190836 0)
(0.787642 -0.0189569 0)
(0.788125 -0.0188307 0)
(0.788607 -0.0187048 0)
(0.802184 -0.0198477 0)
(0.802597 -0.0197192 0)
(0.803009 -0.0195913 0)
(0.80342 -0.019464 0)
(0.803831 -0.0193372 0)
(0.818062 -0.0203809 0)
(0.818402 -0.0202521 0)
(0.818742 -0.020124 0)
(0.819082 -0.0199966 0)
(0.819423 -0.0198697 0)
(0.834206 -0.0208115 0)
(0.834475 -0.0206832 0)
(0.834744 -0.0205557 0)
(0.835014 -0.020429 0)
(0.835285 -0.0203029 0)
(0.85052 -0.0211411 0)
(0.850719 -0.0210141 0)
(0.850918 -0.0208881 0)
(0.851119 -0.0207629 0)
(0.851322 -0.0206384 0)
(0.866908 -0.0213723 0)
(0.867038 -0.0212475 0)
(0.867171 -0.0211236 0)
(0.867305 -0.0210006 0)
(0.867441 -0.0208786 0)
(0.883278 -0.0215086 0)
(0.883343 -0.0213864 0)
(0.88341 -0.0212654 0)
(0.88348 -0.0211454 0)
(0.883552 -0.0210265 0)
(0.899542 -0.0215537 0)
(0.899545 -0.0214349 0)
(0.89955 -0.0213174 0)
(0.899558 -0.021201 0)
(0.899569 -0.0210857 0)
(0.915619 -0.0215124 0)
(0.915562 -0.0213975 0)
(0.915509 -0.021284 0)
(0.915458 -0.0211717 0)
(0.915411 -0.0210606 0)
(0.93143 -0.0213897 0)
(0.931318 -0.0212792 0)
(0.93121 -0.0211702 0)
(0.931104 -0.0210625 0)
(0.931003 -0.0209561 0)
(0.946904 -0.0211912 0)
(0.946741 -0.0210855 0)
(0.946582 -0.0209813 0)
(0.946426 -0.0208786 0)
(0.946274 -0.0207773 0)
(0.961977 -0.0209228 0)
(0.961767 -0.0208223 0)
(0.961561 -0.0207233 0)
(0.961358 -0.0206258 0)
(0.96116 -0.0205298 0)
(0.976591 -0.0205908 0)
(0.976339 -0.0204955 0)
(0.97609 -0.0204019 0)
(0.975845 -0.0203099 0)
(0.975604 -0.0202196 0)
(0.990696 -0.0202013 0)
(0.990405 -0.0201116 0)
(0.990118 -0.0200235 0)
(0.989835 -0.0199372 0)
(0.989556 -0.0198526 0)
(1.00425 -0.0197608 0)
(1.00392 -0.0196767 0)
(1.0036 -0.0195944 0)
(1.00329 -0.0195138 0)
(1.00297 -0.019435 0)
(1.01721 -0.0192759 0)
(1.01685 -0.0191974 0)
(1.0165 -0.0191207 0)
(1.01616 -0.0190459 0)
(1.01582 -0.0189729 0)
(1.02955 -0.0187527 0)
(1.02917 -0.0186798 0)
(1.0288 -0.0186088 0)
(1.02843 -0.0185397 0)
(1.02806 -0.0184725 0)
(1.04125 -0.0181975 0)
(1.04085 -0.0181302 0)
(1.04046 -0.0180647 0)
(1.04006 -0.0180012 0)
(1.03968 -0.0179396 0)
(1.05229 -0.0176163 0)
(1.05188 -0.0175543 0)
(1.05147 -0.0174943 0)
(1.05106 -0.0174362 0)
(1.05065 -0.0173802 0)
(1.06267 -0.0170147 0)
(1.06224 -0.016958 0)
(1.06182 -0.0169032 0)
(1.0614 -0.0168504 0)
(1.06098 -0.0167997 0)
(1.07238 -0.0163982 0)
(1.07194 -0.0163465 0)
(1.07151 -0.0162967 0)
(1.07108 -0.0162489 0)
(1.07065 -0.0162033 0)
(1.08142 -0.0157718 0)
(1.08098 -0.0157248 0)
(1.08054 -0.0156798 0)
(1.0801 -0.0156368 0)
(1.07967 -0.0155959 0)
(1.0898 -0.01514 0)
(1.08936 -0.0150975 0)
(1.08891 -0.015057 0)
(1.08848 -0.0150185 0)
(1.08804 -0.0149821 0)
(1.09754 -0.0145072 0)
(1.09709 -0.0144688 0)
(1.09665 -0.0144325 0)
(1.09621 -0.0143982 0)
(1.09578 -0.014366 0)
(1.10464 -0.0138769 0)
(1.1042 -0.0138424 0)
(1.10376 -0.01381 0)
(1.10333 -0.0137796 0)
(1.10289 -0.0137513 0)
(1.11114 -0.0132526 0)
(1.1107 -0.0132217 0)
(1.11027 -0.0131928 0)
(1.10984 -0.013166 0)
(1.10941 -0.0131413 0)
(1.11705 -0.0126371 0)
(1.11662 -0.0126095 0)
(1.11619 -0.0125839 0)
(1.11577 -0.0125603 0)
(1.11535 -0.0125388 0)
(1.1224 -0.0120329 0)
(1.12198 -0.0120083 0)
(1.12156 -0.0119856 0)
(1.12114 -0.011965 0)
(1.12073 -0.0119464 0)
(1.12722 -0.011442 0)
(1.12681 -0.0114201 0)
(1.1264 -0.0114001 0)
(1.12599 -0.0113821 0)
(1.12559 -0.0113661 0)
(1.13153 -0.0108661 0)
(1.13113 -0.0108465 0)
(1.13074 -0.0108289 0)
(1.13034 -0.0108132 0)
(1.12994 -0.0107995 0)
(1.13538 -0.0103063 0)
(1.13499 -0.0102889 0)
(1.1346 -0.0102733 0)
(1.13422 -0.0102597 0)
(1.13383 -0.010248 0)
(1.13878 -0.00976356 0)
(1.1384 -0.00974803 0)
(1.13803 -0.00973433 0)
(1.13765 -0.00972251 0)
(1.13728 -0.00971262 0)
(1.14177 -0.00923852 0)
(1.14141 -0.00922464 0)
(1.14104 -0.00921255 0)
(1.14068 -0.00920229 0)
(1.14032 -0.00919391 0)
(1.14438 -0.00873144 0)
(1.14403 -0.008719 0)
(1.14368 -0.0087083 0)
(1.14333 -0.00869939 0)
(1.14299 -0.0086923 0)
(1.14665 -0.00824237 0)
(1.14631 -0.00823117 0)
(1.14597 -0.00822167 0)
(1.14564 -0.0082139 0)
(1.1453 -0.0082079 0)
(1.1486 -0.00777112 0)
(1.14827 -0.007761 0)
(1.14795 -0.00775253 0)
(1.14762 -0.00774572 0)
(1.1473 -0.00774063 0)
(1.15026 -0.00731733 0)
(1.14995 -0.00730814 0)
(1.14963 -0.00730053 0)
(1.14932 -0.00729454 0)
(1.14901 -0.00729019 0)
(1.15167 -0.00688047 0)
(1.15136 -0.00687207 0)
(1.15106 -0.0068652 0)
(1.15076 -0.00685988 0)
(1.15046 -0.00685614 0)
(1.15284 -0.00645987 0)
(1.15254 -0.00645216 0)
(1.15225 -0.00644591 0)
(1.15196 -0.00644114 0)
(1.15167 -0.00643789 0)
(1.1538 -0.00605477 0)
(1.15352 -0.00604765 0)
(1.15324 -0.00604192 0)
(1.15296 -0.00603761 0)
(1.15268 -0.00603475 0)
(1.15458 -0.00566433 0)
(1.15431 -0.00565772 0)
(1.15404 -0.00565244 0)
(1.15377 -0.00564851 0)
(1.1535 -0.00564595 0)
(1.1552 -0.00528766 0)
(1.15494 -0.00528149 0)
(1.15468 -0.0052766 0)
(1.15442 -0.00527298 0)
(1.15416 -0.00527066 0)
(1.15569 -0.00492381 0)
(1.15543 -0.00491805 0)
(1.15518 -0.00491348 0)
(1.15493 -0.00491012 0)
(1.15468 -0.00490799 0)
(1.15605 -0.00457185 0)
(1.15581 -0.00456646 0)
(1.15556 -0.00456218 0)
(1.15532 -0.00455905 0)
(1.15507 -0.00455706 0)
(1.15631 -0.00423082 0)
(1.15608 -0.00422577 0)
(1.15584 -0.00422176 0)
(1.1556 -0.00421882 0)
(1.15537 -0.00421695 0)
(1.15649 -0.00389979 0)
(1.15626 -0.00389506 0)
(1.15603 -0.0038913 0)
(1.1558 -0.00388854 0)
(1.15557 -0.00388677 0)
(1.1566 -0.00357784 0)
(1.15638 -0.00357342 0)
(1.15615 -0.0035699 0)
(1.15593 -0.0035673 0)
(1.1557 -0.00356562 0)
(1.15665 -0.00326407 0)
(1.15643 -0.00325996 0)
(1.15622 -0.00325668 0)
(1.156 -0.00325424 0)
(1.15578 -0.00325265 0)
(1.15666 -0.00295763 0)
(1.15645 -0.00295383 0)
(1.15623 -0.00295079 0)
(1.15602 -0.00294851 0)
(1.15581 -0.00294702 0)
(1.15664 -0.0026577 0)
(1.15643 -0.00265422 0)
(1.15622 -0.00265142 0)
(1.15601 -0.00264932 0)
(1.1558 -0.00264792 0)
(1.15659 -0.00236351 0)
(1.15638 -0.00236036 0)
(1.15618 -0.00235781 0)
(1.15597 -0.00235589 0)
(1.15577 -0.00235459 0)
(1.15653 -0.00207432 0)
(1.15632 -0.0020715 0)
(1.15612 -0.00206922 0)
(1.15592 -0.00206749 0)
(1.15572 -0.0020663 0)
(1.15646 -0.00178943 0)
(1.15626 -0.00178696 0)
(1.15606 -0.00178496 0)
(1.15586 -0.00178342 0)
(1.15566 -0.00178237 0)
(1.15639 -0.00150819 0)
(1.15619 -0.00150608 0)
(1.15599 -0.00150436 0)
(1.15579 -0.00150304 0)
(1.1556 -0.00150212 0)
(1.15632 -0.00122997 0)
(1.15612 -0.00122823 0)
(1.15593 -0.0012268 0)
(1.15573 -0.00122571 0)
(1.15554 -0.00122494 0)
(1.15626 -0.000954178 0)
(1.15607 -0.00095281 0)
(1.15587 -0.000951692 0)
(1.15568 -0.000950827 0)
(1.15549 -0.000950217 0)
(1.15621 -0.000680245 0)
(1.15602 -0.000679262 0)
(1.15583 -0.000678457 0)
(1.15564 -0.000677833 0)
(1.15544 -0.00067739 0)
(1.15618 -0.000407627 0)
(1.15599 -0.000407034 0)
(1.1558 -0.000406549 0)
(1.15561 -0.000406172 0)
(1.15541 -0.000405903 0)
(1.15616 -0.00013579 0)
(1.15597 -0.000135592 0)
(1.15578 -0.000135429 0)
(1.15559 -0.000135303 0)
(1.1554 -0.000135213 0)
(1.10509 0.0139134 0)
(1.11158 0.0132855 0)
(1.11748 0.0126667 0)
(1.12282 0.0120595 0)
(1.12763 0.0114659 0)
(1.13193 0.0108875 0)
(1.13577 0.0103255 0)
(1.13915 0.00978092 0)
(1.14213 0.00925418 0)
(1.14474 0.00874562 0)
(1.14699 0.00825525 0)
(1.14893 0.00778287 0)
(1.15058 0.0073281 0)
(1.15197 0.00689038 0)
(1.15313 0.00646903 0)
(1.15408 0.00606328 0)
(1.15485 0.00567226 0)
(1.15546 0.00529507 0)
(1.15594 0.00493076 0)
(1.1563 0.00457836 0)
(1.15655 0.00423693 0)
(1.15672 0.0039055 0)
(1.15682 0.00358316 0)
(1.15687 0.00326901 0)
(1.15688 0.00296218 0)
(1.15685 0.00266187 0)
(1.1568 0.00236728 0)
(1.15673 0.00207768 0)
(1.15666 0.00179237 0)
(1.15658 0.0015107 0)
(1.15651 0.00123204 0)
(1.15645 0.000955798 0)
(1.15641 0.000681408 0)
(1.15637 0.000408327 0)
(1.15636 0.000136023 0)
(0.771629 0.018472 0)
(0.786673 0.0192109 0)
(0.802184 0.0198477 0)
(0.818062 0.020381 0)
(0.834206 0.0208115 0)
(0.85052 0.0211411 0)
(0.866908 0.0213724 0)
(0.883278 0.0215086 0)
(0.899542 0.0215537 0)
(0.915619 0.0215124 0)
(0.93143 0.0213897 0)
(0.946904 0.0211912 0)
(0.961977 0.0209229 0)
(0.976591 0.0205908 0)
(0.990696 0.0202013 0)
(1.00425 0.0197609 0)
(1.01721 0.0192759 0)
(1.02955 0.0187527 0)
(1.04125 0.0181975 0)
(1.05229 0.0176163 0)
(1.06267 0.0170148 0)
(1.07238 0.0163983 0)
(1.08142 0.0157718 0)
(1.0898 0.0151401 0)
(1.09754 0.0145072 0)
(1.10464 0.0138769 0)
(1.11114 0.0132526 0)
(1.11705 0.0126372 0)
(1.1224 0.012033 0)
(1.12722 0.0114421 0)
(1.13153 0.0108661 0)
(1.13538 0.0103063 0)
(1.13878 0.00976358 0)
(1.14177 0.00923854 0)
(1.14438 0.00873146 0)
(1.14665 0.00824239 0)
(1.1486 0.00777114 0)
(1.15026 0.00731735 0)
(1.15167 0.00688048 0)
(1.15284 0.00645988 0)
(1.1538 0.00605478 0)
(1.15458 0.00566434 0)
(1.1552 0.00528767 0)
(1.15569 0.00492382 0)
(1.15605 0.00457186 0)
(1.15631 0.00423083 0)
(1.15649 0.0038998 0)
(1.1566 0.00357784 0)
(1.15665 0.00326407 0)
(1.15666 0.00295763 0)
(1.15664 0.00265771 0)
(1.15659 0.00236352 0)
(1.15653 0.00207433 0)
(1.15646 0.00178944 0)
(1.15639 0.0015082 0)
(1.15632 0.00122997 0)
(1.15626 0.000954181 0)
(1.15621 0.000680247 0)
(1.15618 0.000407628 0)
(1.15616 0.00013579 0)
(0.772187 0.0183468 0)
(0.787158 0.0190837 0)
(0.802597 0.0197192 0)
(0.818402 0.0202522 0)
(0.834475 0.0206832 0)
(0.850719 0.0210142 0)
(0.867039 0.0212475 0)
(0.883343 0.0213865 0)
(0.899545 0.021435 0)
(0.915562 0.0213976 0)
(0.931318 0.0212793 0)
(0.946741 0.0210856 0)
(0.961767 0.0208223 0)
(0.976339 0.0204956 0)
(0.990405 0.0201116 0)
(1.00392 0.0196768 0)
(1.01685 0.0191974 0)
(1.02917 0.0186798 0)
(1.04085 0.0181302 0)
(1.05188 0.0175543 0)
(1.06224 0.016958 0)
(1.07194 0.0163465 0)
(1.08098 0.0157248 0)
(1.08936 0.0150975 0)
(1.09709 0.0144688 0)
(1.1042 0.0138425 0)
(1.1107 0.0132217 0)
(1.11662 0.0126095 0)
(1.12198 0.0120083 0)
(1.12681 0.0114201 0)
(1.13113 0.0108465 0)
(1.13499 0.0102889 0)
(1.1384 0.00974805 0)
(1.14141 0.00922466 0)
(1.14403 0.00871902 0)
(1.14631 0.00823119 0)
(1.14827 0.00776102 0)
(1.14995 0.00730816 0)
(1.15136 0.00687209 0)
(1.15254 0.00645217 0)
(1.15352 0.00604766 0)
(1.15431 0.00565773 0)
(1.15494 0.00528151 0)
(1.15543 0.00491806 0)
(1.15581 0.00456647 0)
(1.15608 0.00422578 0)
(1.15626 0.00389507 0)
(1.15638 0.00357342 0)
(1.15643 0.00325996 0)
(1.15645 0.00295383 0)
(1.15643 0.00265423 0)
(1.15638 0.00236036 0)
(1.15632 0.00207151 0)
(1.15626 0.00178697 0)
(1.15619 0.00150608 0)
(1.15612 0.00122823 0)
(1.15607 0.000952812 0)
(1.15602 0.000679263 0)
(1.15599 0.000407035 0)
(1.15597 0.000135592 0)
(0.772742 0.0182221 0)
(0.787642 0.018957 0)
(0.803009 0.0195914 0)
(0.818742 0.0201241 0)
(0.834744 0.0205557 0)
(0.850918 0.0208881 0)
(0.867171 0.0211236 0)
(0.88341 0.0212654 0)
(0.89955 0.0213174 0)
(0.915509 0.021284 0)
(0.93121 0.0211702 0)
(0.946582 0.0209814 0)
(0.961561 0.0207233 0)
(0.97609 0.020402 0)
(0.990118 0.0200236 0)
(1.0036 0.0195944 0)
(1.0165 0.0191208 0)
(1.0288 0.0186088 0)
(1.04046 0.0180647 0)
(1.05147 0.0174943 0)
(1.06182 0.0169032 0)
(1.07151 0.0162967 0)
(1.08054 0.0156798 0)
(1.08891 0.015057 0)
(1.09665 0.0144325 0)
(1.10376 0.01381 0)
(1.11027 0.0131929 0)
(1.11619 0.0125839 0)
(1.12156 0.0119857 0)
(1.1264 0.0114001 0)
(1.13074 0.0108289 0)
(1.1346 0.0102733 0)
(1.13803 0.00973435 0)
(1.14104 0.00921257 0)
(1.14368 0.00870832 0)
(1.14597 0.00822169 0)
(1.14795 0.00775254 0)
(1.14963 0.00730055 0)
(1.15106 0.00686522 0)
(1.15225 0.00644592 0)
(1.15324 0.00604194 0)
(1.15404 0.00565245 0)
(1.15468 0.00527661 0)
(1.15518 0.0049135 0)
(1.15556 0.00456219 0)
(1.15584 0.00422177 0)
(1.15603 0.00389131 0)
(1.15615 0.00356991 0)
(1.15622 0.00325668 0)
(1.15623 0.00295079 0)
(1.15622 0.00265143 0)
(1.15618 0.00235782 0)
(1.15612 0.00206923 0)
(1.15606 0.00178496 0)
(1.15599 0.00150436 0)
(1.15593 0.00122681 0)
(1.15587 0.000951694 0)
(1.15583 0.000678459 0)
(1.1558 0.00040655 0)
(1.15578 0.00013543 0)
(0.773296 0.0180977 0)
(0.788125 0.0188307 0)
(0.80342 0.0194641 0)
(0.819082 0.0199966 0)
(0.835014 0.020429 0)
(0.851119 0.0207629 0)
(0.867305 0.0210007 0)
(0.88348 0.0211455 0)
(0.899558 0.021201 0)
(0.915458 0.0211717 0)
(0.931104 0.0210625 0)
(0.946426 0.0208786 0)
(0.961358 0.0206258 0)
(0.975845 0.02031 0)
(0.989835 0.0199372 0)
(1.00329 0.0195138 0)
(1.01616 0.0190459 0)
(1.02843 0.0185397 0)
(1.04006 0.0180012 0)
(1.05106 0.0174363 0)
(1.0614 0.0168504 0)
(1.07108 0.016249 0)
(1.0801 0.0156368 0)
(1.08848 0.0150185 0)
(1.09621 0.0143982 0)
(1.10333 0.0137796 0)
(1.10984 0.013166 0)
(1.11577 0.0125603 0)
(1.12114 0.011965 0)
(1.12599 0.0113821 0)
(1.13034 0.0108132 0)
(1.13422 0.0102597 0)
(1.13765 0.00972253 0)
(1.14068 0.00920231 0)
(1.14333 0.00869941 0)
(1.14564 0.00821392 0)
(1.14762 0.00774574 0)
(1.14932 0.00729456 0)
(1.15076 0.00685989 0)
(1.15196 0.00644116 0)
(1.15296 0.00603763 0)
(1.15377 0.00564852 0)
(1.15442 0.00527299 0)
(1.15493 0.00491014 0)
(1.15532 0.00455906 0)
(1.1556 0.00421883 0)
(1.1558 0.00388854 0)
(1.15593 0.00356731 0)
(1.156 0.00325425 0)
(1.15602 0.00294852 0)
(1.15601 0.00264933 0)
(1.15597 0.0023559 0)
(1.15592 0.00206749 0)
(1.15586 0.00178343 0)
(1.15579 0.00150304 0)
(1.15573 0.00122571 0)
(1.15568 0.00095083 0)
(1.15564 0.000677835 0)
(1.15561 0.000406173 0)
(1.15559 0.000135303 0)
(0.773848 0.0179736 0)
(0.788607 0.0187049 0)
(0.803831 0.0193373 0)
(0.819423 0.0198698 0)
(0.835285 0.020303 0)
(0.851322 0.0206385 0)
(0.867441 0.0208786 0)
(0.883552 0.0210265 0)
(0.899569 0.0210857 0)
(0.915411 0.0210607 0)
(0.931003 0.0209561 0)
(0.946274 0.0207773 0)
(0.96116 0.0205299 0)
(0.975604 0.0202196 0)
(0.989556 0.0198526 0)
(1.00297 0.019435 0)
(1.01582 0.0189729 0)
(1.02806 0.0184725 0)
(1.03968 0.0179397 0)
(1.05065 0.0173802 0)
(1.06098 0.0167997 0)
(1.07065 0.0162033 0)
(1.07967 0.0155959 0)
(1.08804 0.0149821 0)
(1.09578 0.014366 0)
(1.10289 0.0137513 0)
(1.10941 0.0131413 0)
(1.11535 0.0125388 0)
(1.12073 0.0119464 0)
(1.12559 0.0113661 0)
(1.12994 0.0107995 0)
(1.13383 0.0102481 0)
(1.13728 0.00971264 0)
(1.14032 0.00919393 0)
(1.14299 0.00869232 0)
(1.1453 0.00820792 0)
(1.1473 0.00774065 0)
(1.14901 0.00729021 0)
(1.15046 0.00685615 0)
(1.15167 0.0064379 0)
(1.15268 0.00603476 0)
(1.1535 0.00564596 0)
(1.15416 0.00527067 0)
(1.15468 0.004908 0)
(1.15507 0.00455707 0)
(1.15537 0.00421696 0)
(1.15557 0.00388678 0)
(1.1557 0.00356563 0)
(0.76132 0.01787 -2.94342e-23)
(0.761926 0.0177469 5.45407e-24)
(0.762529 0.0176243 3.23508e-24)
(0.76313 0.0175019 9.59234e-24)
(0.76373 0.0173798 -9.82893e-24)
(0.754636 0.0176116 -1.83938e-23)
(0.755271 0.0174896 1.83721e-24)
(0.755903 0.0173679 1.5665e-23)
(0.756532 0.0172467 -6.78746e-24)
(0.757159 0.0171257 9.50353e-24)
(0.757784 0.0170049 -3.8228e-24)
(0.748665 0.0172096 -3.85997e-25)
(0.749327 0.0170892 -8.54665e-24)
(0.749985 0.0169693 1.67699e-23)
(0.750641 0.0168496 -9.73923e-24)
(0.751294 0.0167302 -1.2022e-24)
(0.751944 0.016611 4.03473e-24)
(0.742807 0.0167878 4.10734e-24)
(0.743496 0.0166694 -1.84672e-24)
(0.744181 0.0165512 4.58071e-24)
(0.744863 0.0164334 1.20476e-23)
(0.745543 0.0163158 -1.63022e-23)
(0.737072 0.0163464 -2.95053e-23)
(0.737788 0.01623 -2.38702e-24)
(0.7385 0.016114 2.37518e-24)
(0.739209 0.0159982 6.66293e-24)
(0.739915 0.0158826 7.85891e-26)
(0.731468 0.0158854 3.33787e-24)
(0.732211 0.0157713 -3.77583e-24)
(0.732951 0.0156576 -1.79174e-23)
(0.733687 0.0155441 1.11912e-23)
(0.734418 0.0154307 6.58273e-24)
(0.726005 0.0154051 -1.15216e-25)
(0.726775 0.0152936 1.30761e-23)
(0.727542 0.0151824 -1.36781e-24)
(0.728304 0.0150714 -1.37155e-23)
(0.729063 0.0149604 6.31039e-24)
(0.720691 0.014906 -6.39129e-24)
(0.721489 0.0147972 1.25804e-23)
(0.722282 0.0146887 -8.85708e-24)
(0.723072 0.0145804 -8.8118e-24)
(0.723856 0.0144721 -9.69826e-25)
(0.715535 0.0143883 2.85793e-23)
(0.71636 0.0142825 -4.62113e-24)
(0.717181 0.014177 -1.62166e-23)
(0.717996 0.0140715 1.01647e-23)
(0.718807 0.0139661 -1.57763e-24)
(0.710547 0.0138524 -7.64689e-24)
(0.711398 0.0137499 4.51489e-24)
(0.712245 0.0136475 2.99057e-24)
(0.713087 0.0135452 3.32112e-24)
(0.713924 0.0134429 -2.11258e-24)
(0.705734 0.013299 -8.48836e-24)
(0.706612 0.0131998 1.01521e-23)
(0.707484 0.0131009 -1.24867e-24)
(0.708352 0.0130019 -4.57631e-24)
(0.709214 0.012903 1.17024e-24)
(0.701104 0.0127284 1.7407e-23)
(0.702008 0.0126329 7.62117e-24)
(0.702906 0.0125375 -1.35263e-23)
(0.703799 0.0124422 -1.58817e-24)
(0.704686 0.0123468 6.98568e-25)
(0.696667 0.0121413 -5.92804e-24)
(0.697596 0.0120496 -6.20503e-24)
(0.698519 0.0119581 3.37899e-24)
(0.699436 0.0118665 4.53015e-24)
(0.700347 0.0117748 -3.41462e-24)
(0.692429 0.0115383 1.57058e-23)
(0.693382 0.0114506 3.81167e-25)
(0.69433 0.0113631 2.81424e-24)
(0.69527 0.0112755 -3.14331e-24)
(0.696205 0.0111878 -1.2877e-24)
(0.688399 0.01092 -6.60281e-24)
(0.689375 0.0108366 7.1561e-24)
(0.690346 0.0107532 -4.93353e-25)
(0.69131 0.0106698 2.45998e-24)
(0.692267 0.0105863 -2.76046e-24)
(0.684582 0.0102871 -4.54076e-24)
(0.685582 0.0102081 6.69579e-25)
(0.686575 0.0101292 -1.20016e-24)
(0.68756 0.0100502 -2.50798e-24)
(0.688539 0.00997101 2.84575e-24)
(0.680988 0.00964046 2.08262e-24)
(0.682009 0.00956605 -2.46482e-24)
(0.683023 0.00949167 1.77221e-24)
(0.68403 0.00941723 -2.10771e-24)
(0.685029 0.00934264 1.49042e-24)
(0.677621 0.00898074 2.75093e-24)
(0.678662 0.0089111 -9.92481e-25)
(0.679696 0.00884148 -9.96416e-24)
(0.680723 0.00877178 3.92254e-24)
(0.681743 0.00870193 -1.06394e-24)
(0.674488 0.00830879 6.11269e-24)
(0.675549 0.00824409 -4.85461e-24)
(0.676602 0.00817938 5.23152e-24)
(0.677647 0.00811461 7.11587e-25)
(0.678685 0.00804967 -2.83111e-24)
(0.671595 0.00762547 7.15373e-24)
(0.672674 0.00756585 5.46805e-24)
(0.673745 0.00750623 -5.37418e-24)
(0.674808 0.00744652 2.40429e-24)
(0.675863 0.00738666 -8.27313e-25)
(0.668948 0.00693165 5.92376e-24)
(0.670043 0.00687726 -8.98214e-24)
(0.67113 0.00682286 7.22086e-24)
(0.672209 0.00676838 -2.23338e-24)
(0.67328 0.00671374 -1.45551e-24)
(0.666551 0.00622825 5.07855e-24)
(0.667661 0.00617922 -4.9704e-24)
(0.668763 0.00613017 -2.12591e-25)
(0.669856 0.00608104 -5.12182e-25)
(0.670942 0.00603177 -5.84418e-25)
(0.664408 0.00551619 5.87489e-24)
(0.665532 0.00547264 7.42029e-26)
(0.666647 0.00542907 -7.05084e-25)
(0.667754 0.00538543 -1.41925e-24)
(0.668853 0.00534164 1.23353e-24)
(0.662525 0.00479645 -6.67505e-26)
(0.66366 0.00475849 -2.12972e-24)
(0.664787 0.0047205 2.20803e-24)
(0.665906 0.00468245 -4.52971e-25)
(0.667016 0.00464426 -4.71263e-26)
(0.660903 0.00407 -2.4065e-25)
(0.662049 0.00403772 -2.8327e-24)
(0.663187 0.00400541 1.57234e-24)
(0.664316 0.00397304 -2.27018e-24)
(0.665436 0.00394057 6.56566e-25)
(0.659547 0.00333785 2.19587e-24)
(0.660702 0.00331132 -1.23223e-24)
(0.661848 0.00328478 1.42808e-24)
(0.662985 0.00325818 3.19176e-25)
(0.664114 0.00323149 -3.4784e-25)
(0.65846 0.002601 -7.45695e-25)
(0.659621 0.0025803 8.85041e-25)
(0.660774 0.00255958 1.5134e-24)
(0.661918 0.00253882 -6.45606e-25)
(0.663054 0.00251799 2.55689e-25)
(0.657642 0.00186049 2.81801e-24)
(0.658809 0.00184566 -1.64433e-24)
(0.659967 0.00183083 2.40511e-25)
(0.661116 0.00181596 5.35591e-25)
(0.662257 0.00180104 5.37438e-25)
(0.657096 0.00111735 -4.61628e-25)
(0.658266 0.00110844 -2.49593e-25)
(0.659428 0.00109953 -1.84803e-25)
(0.660581 0.00109059 3.72719e-26)
(0.661725 0.00108163 -1.04072e-25)
(0.656823 0.000372642 -6.48634e-25)
(0.657995 0.000369671 2.73073e-25)
(0.659158 0.000366697 -1.48074e-25)
(0.660313 0.000363716 9.71284e-26)
(0.661459 0.000360725 -2.71958e-26)
)
;

boundaryField
{
    inlet
    {
        type            uniformFixedValue;
        uniformValue    constant (1 0 0);
        value           nonuniform 0();
    }
    outlet
    {
        type            pressureInletOutletVelocity;
        value           nonuniform 0();
    }
    cylinder
    {
        type            fixedValue;
        value           nonuniform 0();
    }
    top
    {
        type            symmetryPlane;
    }
    bottom
    {
        type            symmetryPlane;
    }
    defaultFaces
    {
        type            empty;
    }
    procBoundary61to60
    {
        type            processor;
        value           nonuniform List<vector> 
183
(
(0.655641 -0.000375569 8.3454e-25)
(0.655916 -0.00112622 4.69618e-25)
(0.656466 -0.00187527 4.86916e-25)
(0.657289 -0.00262166 1.52777e-24)
(0.658384 -0.00336434 -2.25492e-24)
(0.659749 -0.00410227 -4.58841e-24)
(0.661381 -0.0048344 9.03874e-25)
(0.663276 -0.00555974 3.34965e-24)
(0.665433 -0.00627728 -9.33564e-24)
(0.667845 -0.00698606 -1.46287e-24)
(0.670509 -0.00768512 -1.19874e-23)
(0.67342 -0.00837354 6.54769e-24)
(0.676572 -0.00905043 -9.68186e-24)
(0.67996 -0.00971494 -1.23075e-24)
(0.683576 -0.0103662 9.06314e-24)
(0.687415 -0.0110035 -1.27461e-23)
(0.691469 -0.0116261 -4.11519e-24)
(0.695732 -0.0122332 7.2871e-24)
(0.700195 -0.0128241 -1.66507e-23)
(0.70485 -0.0133983 1.27894e-23)
(0.70969 -0.0139552 1.29198e-23)
(0.714705 -0.0144943 -9.09008e-24)
(0.719888 -0.015015 5.53755e-26)
(0.72523 -0.015517 1.5368e-23)
(0.730721 -0.0159998 1.67755e-23)
(0.736352 -0.0164632 8.22129e-24)
(0.742116 -0.0169068 -1.28297e-23)
(0.748001 -0.0173305 7.81788e-24)
(0.754636 -0.0176116 9.94891e-24)
(0.754636 -0.0176116 9.94891e-24)
(0.760712 -0.0179935 2.45692e-23)
(0.77107 -0.0185978 0)
(0.786187 -0.0193388 0)
(0.801771 -0.0199768 0)
(0.817722 -0.0205105 0)
(0.833939 -0.0209406 0)
(0.850323 -0.021269 0)
(0.866779 -0.0214983 0)
(0.883215 -0.0216318 0)
(0.899542 -0.0216737 0)
(0.915678 -0.0216285 0)
(0.931545 -0.0215015 0)
(0.94707 -0.0212983 0)
(0.962191 -0.0210249 0)
(0.976848 -0.0206876 0)
(0.99099 -0.0202927 0)
(1.00458 -0.0198467 0)
(1.01757 -0.0193561 0)
(1.02993 -0.0188274 0)
(1.04165 -0.0182667 0)
(1.05271 -0.0176801 0)
(1.0631 -0.0170734 0)
(1.07282 -0.0164519 0)
(1.08186 -0.0158208 0)
(1.09025 -0.0151845 0)
(1.09798 -0.0145475 0)
(1.10509 -0.0139133 0)
(1.11158 -0.0132854 0)
(1.11748 -0.0126667 0)
(1.12282 -0.0120595 0)
(1.12763 -0.0114659 0)
(1.13193 -0.0108875 0)
(1.13577 -0.0103255 0)
(1.13915 -0.0097809 0)
(1.14213 -0.00925416 0)
(1.14474 -0.0087456 0)
(1.14699 -0.00825523 0)
(1.14893 -0.00778285 0)
(1.15058 -0.00732808 0)
(1.15197 -0.00689036 0)
(1.15313 -0.00646902 0)
(1.15408 -0.00606327 0)
(1.15485 -0.00567225 0)
(1.15546 -0.00529506 0)
(1.15594 -0.00493075 0)
(1.1563 -0.00457835 0)
(1.15655 -0.00423692 0)
(1.15672 -0.00390549 0)
(1.15682 -0.00358315 0)
(1.15687 -0.003269 0)
(1.15688 -0.00296218 0)
(1.15685 -0.00266186 0)
(1.1568 -0.00236727 0)
(1.15673 -0.00207768 0)
(1.15666 -0.00179237 0)
(1.15658 -0.0015107 0)
(1.15651 -0.00123204 0)
(1.15645 -0.000955796 0)
(1.15641 -0.000681406 0)
(1.15637 -0.000408326 0)
(1.15636 -0.000136023 0)
(1.10553 0.0139517 0)
(1.11202 0.0133202 0)
(1.11791 0.0126981 0)
(1.12325 0.0120879 0)
(1.12804 0.0114916 0)
(1.13234 0.0109108 0)
(1.13616 0.0103466 0)
(1.13953 0.00980001 0)
(1.1425 0.00927154 0)
(1.14509 0.00876145 0)
(1.14733 0.00826974 0)
(1.14925 0.00779618 0)
(1.15089 0.00734037 0)
(1.15227 0.00690174 0)
(1.15342 0.0064796 0)
(1.15436 0.00607313 0)
(1.15512 0.00568147 0)
(1.15573 0.0053037 0)
(1.15619 0.00493885 0)
(1.15654 0.00458595 0)
(1.15679 0.00424404 0)
(1.15695 0.00391215 0)
(1.15705 0.00358936 0)
(1.15709 0.00327476 0)
(1.15709 0.00296748 0)
(1.15706 0.0026667 0)
(1.157 0.00237164 0)
(1.15693 0.00208157 0)
(1.15686 0.00179577 0)
(1.15678 0.0015136 0)
(1.15671 0.00123443 0)
(1.15665 0.000957663 0)
(1.1566 0.000682746 0)
(1.15656 0.000409132 0)
(1.15655 0.000136292 0)
(0.77107 0.0185978 0)
(0.786187 0.0193388 0)
(0.801771 0.0199769 0)
(0.817722 0.0205106 0)
(0.833939 0.0209407 0)
(0.850323 0.0212691 0)
(0.866779 0.0214983 0)
(0.883215 0.0216319 0)
(0.899542 0.0216737 0)
(0.915678 0.0216285 0)
(0.931545 0.0215016 0)
(0.94707 0.0212984 0)
(0.962191 0.021025 0)
(0.976848 0.0206876 0)
(0.99099 0.0202927 0)
(1.00458 0.0198467 0)
(1.01757 0.0193561 0)
(1.02993 0.0188274 0)
(1.04165 0.0182667 0)
(1.05271 0.0176801 0)
(1.0631 0.0170734 0)
(1.07282 0.0164519 0)
(1.08186 0.0158208 0)
(1.09025 0.0151846 0)
(1.09798 0.0145475 0)