/*--------------------------------*- C++ -*----------------------------------*\
  =========                 |
  \\      /  F ield         | OpenFOAM: The Open Source CFD Toolbox
   \\    /   O peration     | Website:  https://openfoam.org
    \\  /    A nd           | Version:  7
     \\/     M anipulation  |
\*---------------------------------------------------------------------------*/
FoamFile
{
    version     2.0;
    format      ascii;
    class       volVectorField;
    location    "45";
    object      U;
}
// * * * * * * * * * * * * * * * * * * * * * * * * * * * * * * * * * * * * * //

dimensions      [0 1 -1 0 0 0 0];

internalField   nonuniform List<vector> 
183
(
(0.701549 0.204992 -9.99408e-23)
(0.684137 0.218311 -1.51656e-23)
(0.689478 0.203756 -5.8226e-23)
(0.669177 0.221178 1.74168e-22)
(0.67687 0.202869 -3.70944e-23)
(0.653905 0.224313 -4.94055e-22)
(0.663706 0.202331 -7.19773e-23)
(0.638458 0.227645 2.64057e-22)
(0.650006 0.202129 6.56817e-22)
(0.622998 0.231092 -5.75797e-23)
(0.635827 0.202232 -1.73036e-21)
(0.607706 0.234562 -6.4663e-22)
(0.621271 0.202601 5.87429e-22)
(0.592783 0.237958 1.50443e-21)
(0.606478 0.203182 1.00957e-21)
(0.578441 0.24118 -1.03159e-21)
(0.59163 0.203917 -1.96157e-21)
(0.564903 0.244126 -9.92993e-23)
(0.576939 0.204742 9.87845e-22)
(0.552391 0.246702 1.04502e-21)
(0.562646 0.205593 2.16033e-21)
(0.541125 0.248817 -2.33153e-21)
(0.549014 0.206407 -7.67189e-22)
(0.531311 0.250394 1.76207e-21)
(0.536317 0.207122 -8.82426e-22)
(0.523144 0.251364 -2.36299e-22)
(0.524833 0.207688 -1.17092e-21)
(0.516794 0.251678 2.26149e-22)
(0.514834 0.208058 1.91784e-21)
(0.512409 0.251299 4.81279e-22)
(0.50658 0.208196 -1.31917e-21)
(0.510114 0.250208 -9.70144e-22)
(0.500311 0.208078 1.59917e-21)
(0.510007 0.248404 -1.87193e-22)
(0.496247 0.207687 -7.10163e-23)
(0.512175 0.245898 1.52656e-23)
(0.494607 0.207019 2.48932e-22)
(0.516716 0.242725 -1.13829e-21)
(0.49565 0.206083 4.52815e-22)
(0.523812 0.238981 7.18543e-22)
(0.49978 0.204932 -2.02879e-22)
(0.533921 0.234674 -1.99965e-23)
(0.523366 0.201696 0)
(0.576708 0.21783 0)
(0.633402 0.19067 0)
(0.701041 0.179277 0)
(0.785999 0.177822 0)
(0.854468 0.143891 0)
(0.935322 0.163245 0)
(0.999484 0.11504 0)
(1.05316 0.0567921 0)
(1.04118 0.141773 0)
(1.10017 0.0907671 0)
(1.13468 0.0361644 0)
(1.09586 0.116071 0)
(1.14827 0.0712993 0)
(1.16916 0.0251718 0)
(1.11484 0.091381 0)
(1.15966 0.0558389 0)
(1.17296 0.0191567 0)
(1.11674 0.0704706 0)
(1.1541 0.0435693 0)
(1.16349 0.0152295 0)
(1.11313 0.0537437 0)
(1.14381 0.0337076 0)
(1.15081 0.0120766 0)
(1.1087 0.0406233 0)
(1.13371 0.0257325 0)
(1.13882 0.00930937 0)
(1.1047 0.030458 0)
(1.12506 0.0193533 0)
(1.12851 0.00691745 0)
(1.10128 0.0226315 0)
(1.11787 0.0143164 0)
(1.11986 0.00490138 0)
(1.09836 0.0166369 0)
(1.11192 0.0103905 0)
(1.11265 0.00327097 0)
(1.09586 0.0120754 0)
(1.10701 0.0073759 0)
(1.10667 0.0020029 0)
(1.09374 0.00863394 0)
(1.10297 0.00510323 0)
(1.10174 0.00106513 0)
(1.09196 0.00606157 0)
(1.09968 0.00342708 0)
(1.09773 0.00041818 0)
(1.09048 0.00415745 0)
(1.09704 0.00222007 0)
(1.09451 1.22312e-05 0)
(1.08929 0.00275642 0)
(1.09497 0.00137548 0)
(1.09202 -0.000196031 0)
(1.09346 0.000799737 0)
(1.09019 -0.000248642 0)
(1.09246 0.000409631 0)
(1.08899 -0.000194708 0)
(1.09196 0.000125407 0)
(1.08839 -7.35577e-05 0)
(0.975532 0.233724 0)
(1.02704 0.230179 0)
(1.06402 0.214928 0)
(1.0922 0.198245 0)
(1.10921 0.175891 0)
(1.11904 0.154456 0)
(1.12378 0.133595 0)
(1.12545 0.114936 0)
(1.12525 0.0984171 0)
(1.12386 0.083956 0)
(1.12174 0.0713488 0)
(1.1192 0.060363 0)
(1.11647 0.0507689 0)
(1.11371 0.0423518 0)
(1.11105 0.0349166 0)
(1.10859 0.0282893 0)
(1.10644 0.0223149 0)
(1.10466 0.0168524 0)
(1.1033 0.0117731 0)
(1.10238 0.00695956 0)
(1.1019 0.00230263 0)
(0.944147 0.211777 0)
(0.990872 0.200259 0)
(1.02599 0.183945 0)
(1.05205 0.167734 0)
(1.06884 0.149442 0)
(1.08035 0.132745 0)
(1.08806 0.116684 0)
(1.09323 0.102183 0)
(1.09658 0.089057 0)
(1.09857 0.0772756 0)
(1.09953 0.0667296 0)
(1.09974 0.0572943 0)
(1.09941 0.0488395 0)
(1.09871 0.0412355 0)
(1.09779 0.0343586 0)
(1.09678 0.0280927 0)
(1.09579 0.0223295 0)
(1.09492 0.0169663 0)
(1.09422 0.0119061 0)
(1.09372 0.00705774 0)
(1.09347 0.00233782 0)
(0.941412 0.236711 8.67098e-23)
(0.913989 0.215228 -4.22703e-22)
(0.929901 0.236869 6.98572e-22)
(0.903922 0.215434 4.40572e-22)
(0.91818 0.236796 -1.08139e-21)
(0.893848 0.215293 -3.087e-23)
(0.906278 0.236716 -2.68143e-21)
(0.883807 0.215102 1.01902e-21)
(0.894234 0.23647 2.35333e-21)
(0.873832 0.21478 6.36665e-22)
(0.882099 0.235969 -4.78797e-21)
(0.863946 0.214282 -1.01457e-21)
(0.869929 0.235205 2.60368e-21)
(0.854157 0.213632 6.75891e-22)
(0.857784 0.234182 -4.33466e-22)
(0.844451 0.212875 -1.04272e-21)
(0.845727 0.232899 -2.23155e-22)
(0.834797 0.212052 1.07884e-22)
(0.833813 0.231356 -1.37511e-21)
(0.825145 0.211212 1.2794e-21)
(0.822093 0.229563 1.56096e-21)
(0.815431 0.210407 -1.78116e-21)
(0.810599 0.227541 -7.92407e-23)
(0.805579 0.209693 1.66404e-21)
(0.799351 0.225319 -3.56635e-21)
(0.795506 0.20913 8.14383e-22)
(0.788341 0.222935 2.09706e-21)
(0.785128 0.208777 -8.15483e-22)
(0.777545 0.22044 7.29317e-22)
(0.774364 0.208687 1.24758e-21)
(0.766909 0.217891 -4.75346e-22)
(0.763139 0.208911 -1.28347e-21)
(0.756363 0.215349 9.91318e-22)
(0.751395 0.209489 2.10906e-22)
(0.745816 0.212882 -1.4273e-23)
(0.739086 0.210454 9.93018e-23)
(0.735167 0.210554 1.00692e-22)
(0.726192 0.211822 -5.05951e-22)
(0.724308 0.208429 -2.95221e-23)
(0.712713 0.213598 1.91603e-22)
(0.713134 0.20656 -1.19658e-22)
(0.698677 0.21577 1.48134e-23)
)
;

boundaryField
{
    inlet
    {
        type            uniformFixedValue;
        uniformValue    constant (1 0 0);
        value           nonuniform 0();
    }
    outlet
    {
        type            pressureInletOutletVelocity;
        value           nonuniform 0();
    }
    cylinder
    {
        type            fixedValue;
        value           nonuniform 0();
    }
    top
    {
        type            symmetryPlane;
    }
    bottom
    {
        type            symmetryPlane;
    }
    defaultFaces
    {
        type            empty;
    }
    procBoundary45to44
    {
        type            processor;
        value           nonuniform List<vector> 
85
(
(0.658388 0.124665 5.32251e-24)
(0.650448 0.120099 -2.20522e-22)
(0.642463 0.115767 6.54824e-23)
(0.63428 0.111709 1.13309e-21)
(0.625779 0.107955 -1.19503e-21)
(0.616882 0.104528 -1.75289e-21)
(0.607564 0.101443 1.37831e-21)
(0.597857 0.0987077 -2.25508e-21)
(0.587849 0.0963248 5.34683e-23)
(0.577683 0.094293 1.4172e-21)
(0.567547 0.0926081 1.14156e-21)
(0.55767 0.0912637 5.35239e-22)
(0.548306 0.0902529 -1.44577e-21)
(0.539729 0.0895699 -3.37081e-22)
(0.532218 0.0892074 8.31435e-22)
(0.526048 0.0891596 3.89932e-22)
(0.521488 0.0894214 -2.34287e-22)
(0.518792 0.0899862 1.24868e-22)
(0.518195 0.0908306 -1.16971e-24)
(0.519909 0.0919149 2.24812e-22)
(0.524091 0.0934155 -3.72052e-22)
(0.544045 0.101763 0)
(0.645945 0.12285 0)
(0.786806 0.138719 0)
(0.914876 0.144628 0)
(1.00006 0.133705 0)
(1.0449 0.111395 0)
(1.06568 0.0869793 0)
(1.07555 0.0656795 0)
(1.0811 0.0487385 0)
(1.08471 0.0357209 0)
(1.08714 0.0258723 0)
(1.08869 0.0184791 0)
(1.08957 0.0129702 0)
(1.09 0.00890883 0)
(1.09012 0.00595861 0)
(1.09005 0.00385811 0)
(1.08985 0.00239995 0)
(1.0896 0.0014204 0)
(1.0884 0.00172131 0)
(1.0884 0.00172131 0)
(1.08781 0.000933722 0)
(1.08751 0.000294064 0)
(0.965557 0.211444 0)
(1.03713 0.223131 0)
(1.09312 0.215497 0)
(1.13504 0.203275 0)
(1.15851 0.180916 0)
(1.1682 0.157369 0)
(1.16918 0.133889 0)
(1.16576 0.112961 0)
(1.16041 0.0948836 0)
(1.15435 0.0794876 0)
(1.14814 0.066442 0)
(1.14212 0.0553824 0)
(1.13647 0.0459724 0)
(1.1313 0.0379153 0)
(1.12667 0.0309553 0)
(1.12262 0.0248755 0)
(1.11921 0.0194918 0)
(1.11648 0.0146437 0)
(1.11444 0.01019 0)
(1.11307 0.00600671 0)
(1.11237 0.0019841 0)
(0.923508 0.207791 -3.40641e-21)
(0.9094 0.205486 2.37131e-21)
(0.895058 0.20287 -9.58933e-22)
(0.880527 0.200261 -3.33876e-21)
(0.865854 0.197506 -3.5484e-21)
(0.851081 0.194528 1.08651e-21)
(0.836261 0.191338 1.33127e-22)
(0.821453 0.187953 2.19436e-22)
(0.80673 0.184379 -7.38065e-22)
(0.792176 0.180615 8.8215e-22)
(0.777885 0.17666 -5.49096e-22)
(0.763959 0.172516 -4.67153e-22)
(0.750503 0.168186 4.56135e-22)
(0.737614 0.163678 -1.71508e-21)
(0.725375 0.159009 3.02865e-21)
(0.713848 0.1542 -2.14393e-21)
(0.703059 0.149283 -8.16266e-23)
(0.692998 0.144298 7.57273e-22)
(0.683611 0.139291 3.72884e-23)
(0.674806 0.134314 -2.28097e-22)
(0.66645 0.12942 -6.17441e-24)
)
;
    }
    procBoundary45to46
    {
        type            processor;
        value           nonuniform List<vector> 
85
(
(0.648263 0.238892 -5.74366e-23)
(0.630243 0.243696 -3.49118e-23)
(0.612831 0.248196 1.10824e-22)
(0.596258 0.252292 -3.44351e-22)
(0.580756 0.255889 3.88504e-22)
(0.56655 0.258903 -4.26947e-22)
(0.553857 0.261255 3.76937e-22)
(0.542874 0.262883 3.3625e-22)
(0.533777 0.263736 6.55272e-22)
(0.526713 0.263776 -2.9478e-22)
(0.521796 0.262982 5.74742e-22)
(0.519105 0.261346 -7.28548e-22)
(0.518684 0.258874 -4.2075e-22)
(0.520542 0.255581 9.41463e-22)
(0.524659 0.251498 3.94859e-23)
(0.530989 0.246661 -1.15093e-21)
(0.539471 0.241115 -9.88749e-23)
(0.550043 0.234909 6.47349e-22)
(0.562665 0.228111 6.47325e-22)
(0.577378 0.220839 8.06729e-22)
(0.594433 0.21312 4.97942e-22)
(0.654821 0.186393 0)
(0.785094 0.134705 0)
(0.927863 0.0898108 0)
(0.927863 0.0898108 0)
(1.10816 -0.021391 0)
(1.16296 -0.0285323 0)
(1.18211 -0.0276413 0)
(1.1801 -0.0236945 0)
(1.16953 -0.0194601 0)
(1.15712 -0.0159527 0)
(1.14544 -0.0132813 0)
(1.13515 -0.0112475 0)
(1.12628 -0.00965693 0)
(1.11869 -0.00835132 0)
(1.11227 -0.00722342 0)
(1.10688 -0.00619817 0)
(1.10244 -0.00522616 0)
(1.09884 -0.00427748 0)
(1.09602 -0.00333424 0)
(1.09395 -0.00238716 0)
(1.09259 -0.00143349 0)
(1.09191 -0.000477547 0)
(0.947335 0.175621 0)
(0.975867 0.168033 0)
(1.00112 0.15556 0)
(1.02265 0.142128 0)
(1.03894 0.127482 0)
(1.05165 0.114061 0)
(1.06131 0.101232 0)
(1.0686 0.0895833 0)
(1.074 0.0789397 0)
(1.0779 0.0692622 0)
(1.08059 0.0604646 0)
(1.08234 0.0524591 0)
(1.08338 0.0451551 0)
(1.08386 0.0384648 0)
(1.08395 0.0323048 0)
(1.08378 0.026596 0)
(1.08348 0.0212625 0)
(1.08315 0.0162312 0)
(1.08285 0.0114309 0)
(1.08262 0.00679369 0)
(1.08249 0.00225376 0)
(0.926883 0.178196 9.53356e-24)
(0.919821 0.178803 -3.53475e-22)
(0.912458 0.179442 3.16306e-22)
(0.904712 0.180222 4.81202e-23)
(0.896498 0.181119 4.96478e-22)
(0.887735 0.182155 -6.76544e-22)
(0.878343 0.183384 9.26179e-23)
(0.868249 0.184856 -1.17753e-22)
(0.857384 0.186618 -1.7709e-22)
(0.845694 0.188708 -3.97355e-22)
(0.833139 0.191158 1.58828e-22)
(0.819697 0.19399 -1.32184e-22)
(0.80537 0.197213 2.4265e-22)
(0.790179 0.200827 -9.74705e-24)
(0.774171 0.204813 2.53861e-22)
(0.757418 0.209141 -2.56289e-22)
(0.740015 0.213766 3.69437e-22)
(0.722085 0.21863 -1.4312e-22)
(0.703769 0.22366 -5.70374e-23)
(0.685235 0.228775 -2.13937e-23)
(0.666665 0.233885 -3.8107e-23)
)
;
    }
}


// ************************************************************************* //
