/*--------------------------------*- C++ -*----------------------------------*\
  =========                 |
  \\      /  F ield         | OpenFOAM: The Open Source CFD Toolbox
   \\    /   O peration     | Website:  https://openfoam.org
    \\  /    A nd           | Version:  7
     \\/     M anipulation  |
\*---------------------------------------------------------------------------*/
FoamFile
{
    version     2.0;
    format      ascii;
    class       volScalarField;
    location    "45";
    object      p;
}
// * * * * * * * * * * * * * * * * * * * * * * * * * * * * * * * * * * * * * //

dimensions      [0 2 -2 0 0 0 0];

internalField   nonuniform List<scalar> 
183
(
-0.127724
-0.141823
-0.118402
-0.132421
-0.137656
-0.109353
-0.122932
-0.132973
-0.100612
-0.113408
-0.128121
-0.0921889
-0.103892
-0.123076
-0.0840698
-0.0944226
-0.117798
-0.0762289
-0.0850341
-0.112232
-0.0686374
-0.0757575
-0.106313
-0.0612718
-0.0666211
-0.0999764
-0.0576477
-0.0931584
-0.048852
-0.0858102
-0.0402415
-0.0779042
-0.0318214
-0.0694421
-0.0236005
-0.0604587
-0.0155917
-0.0510236
-0.00780305
-0.0412358
-0.000258881
-0.0312135
0.00690366
-0.0210909
0.0134386
-0.0110771
0.0195911
-0.00140537
0.0269661
0.00862874
0.0520985
0.0489881
0.0696489
0.0751307
0.0761463
0.0888833
0.0706568
0.083573
0.0605258
0.0724228
0.0483918
0.0594475
0.0373352
0.0470545
0.0271504
0.0354734
0.0180411
0.0251594
0.0101324
0.0163589
0.0034524
0.00902491
-0.0021048
0.00300792
-0.00667313
-0.0018714
-0.0103882
-0.00579496
-0.0133784
-0.00892481
-0.0157542
-0.0113947
-0.0176057
-0.0133105
-0.0190053
-0.0147541
-0.0200082
-0.0157867
-0.0206549
-0.0164518
-0.0209718
-0.0167769
-0.228402
-0.195602
-0.159063
-0.123209
-0.0954552
-0.0752103
-0.060571
-0.0501652
-0.0427413
-0.0374485
-0.0337
-0.0310613
-0.0292166
-0.0279385
-0.0270635
-0.0264744
-0.0260859
-0.0258366
-0.0256829
-0.0255959
-0.0255574
-0.168149
-0.139806
-0.112946
-0.0883411
-0.0695971
-0.0553827
-0.0448711
-0.037324
-0.0318792
-0.0280095
-0.0253024
-0.0234397
-0.0221879
-0.0213721
-0.0208613
-0.0205589
-0.0203935
-0.0203134
-0.0202815
-0.0202734
-0.0202736
-0.230665
-0.177662
-0.231959
-0.178929
-0.23289
-0.179003
-0.233309
-0.179405
-0.233194
-0.17983
-0.232545
-0.179987
-0.231351
-0.179851
-0.229591
-0.179449
-0.227241
-0.178773
-0.224278
-0.177802
-0.220678
-0.17652
-0.216421
-0.174914
-0.206874
-0.211495
-0.172979
-0.199873
-0.205899
-0.17071
-0.192208
-0.199647
-0.168112
-0.183943
-0.192768
-0.165195
-0.175162
-0.18531
-0.161974
-0.165973
-0.177335
-0.158473
-0.156502
-0.168918
-0.154716
-0.146883
-0.160141
-0.13725
-0.151085
)
;

boundaryField
{
    inlet
    {
        type            zeroGradient;
    }
    outlet
    {
        type            fixedValue;
        value           nonuniform 0();
    }
    cylinder
    {
        type            zeroGradient;
    }
    top
    {
        type            symmetryPlane;
    }
    bottom
    {
        type            symmetryPlane;
    }
    defaultFaces
    {
        type            empty;
    }
    procBoundary38to37
    {
        type            processor;
        value           nonuniform List<scalar> 
86
(
-0.13333
-0.127639
-0.121845
-0.116013
-0.110211
-0.104506
-0.0989636
-0.0936469
-0.0886121
-0.0541207
-0.0541207
-0.0471895
-0.0405014
-0.0340991
-0.028043
-0.0223984
-0.0172045
-0.0124717
-0.00833067
-0.00522117
-0.00321084
0.000151065
0.0163327
0.0265235
0.0304998
0.0295742
0.0251439
0.0198599
0.0136406
0.00744948
0.00158334
-0.00373588
-0.0083961
-0.0123804
-0.0157266
-0.0184941
-0.0207511
-0.0225621
-0.0239838
-0.0250639
-0.0258403
-0.0263424
-0.0265892
-0.237157
-0.212219
-0.17344
-0.131965
-0.100728
-0.0788496
-0.0637271
-0.0533372
-0.0461964
-0.0412496
-0.0378296
-0.0354793
-0.033856
-0.0327367
-0.0319699
-0.0314511
-0.0311055
-0.0308807
-0.0307394
-0.0306579
-0.0306207
-0.233189
-0.234766
-0.236228
-0.236667
-0.236327
-0.23526
-0.233453
-0.230899
-0.227595
-0.223538
-0.218727
-0.213167
-0.213167
-0.169901
-0.167715
-0.164992
-0.161743
-0.157991
-0.153773
-0.149139
-0.144145
-0.138854
)
;
    }
    procBoundary38to39
    {
        type            processor;
        value           nonuniform List<scalar> 
86
(
-0.142182
-0.142182
-0.124816
-0.124141
-0.123189
-0.121931
-0.120336
-0.118375
-0.116015
-0.113221
-0.109956
-0.106182
-0.101865
-0.0969691
-0.0914672
-0.0853392
-0.0785763
-0.0711843
-0.0631858
-0.0546237
-0.045572
-0.0360866
-0.00219578
0.0277131
0.0418743
0.0422904
0.0383322
0.0344695
0.0297337
0.0235754
0.0170892
0.0110613
0.00578694
0.00132641
-0.00237184
-0.00539713
-0.00784329
-0.00979461
-0.0113216
-0.0124802
-0.0133137
-0.0138528
-0.0141171
-0.101538
-0.0802523
-0.0630508
-0.048171
-0.0377829
-0.0297314
-0.023999
-0.020021
-0.0173104
-0.0155786
-0.0145452
-0.0140014
-0.0137932
-0.0138038
-0.013946
-0.0141557
-0.0143859
-0.0146033
-0.0147842
-0.0149131
-0.0149805
-0.112893
-0.114224
-0.113987
-0.114424
-0.115287
-0.116147
-0.116947
-0.117743
-0.118557
-0.11938
-0.1202
-0.12101
-0.121799
-0.122556
-0.123265
-0.123911
-0.124472
-0.124929
-0.125258
-0.150732
-0.150732
-0.146546
)
;
    }
}


// ************************************************************************* //
