/*--------------------------------*- C++ -*----------------------------------*\
  =========                 |
  \\      /  F ield         | OpenFOAM: The Open Source CFD Toolbox
   \\    /   O peration     | Website:  https://openfoam.org
    \\  /    A nd           | Version:  7
     \\/     M anipulation  |
\*---------------------------------------------------------------------------*/
FoamFile
{
    version     2.0;
    format      ascii;
    class       volVectorField;
    location    "70";
    object      U;
}
// * * * * * * * * * * * * * * * * * * * * * * * * * * * * * * * * * * * * * //

dimensions      [0 1 -1 0 0 0 0];

internalField   nonuniform List<vector> 
183
(
(1.00472 0.0011309 0)
(1.00636 -0.000935173 0)
(1.00596 -0.00177094 0)
(1.00344 -0.00264821 0)
(1.00109 -0.00350758 0)
(1.00026 -0.00344719 0)
(1.0003 -0.00266112 0)
(0.999744 -0.00185573 0)
(0.999722 -0.00117836 0)
(1.0012 -0.000204953 0)
(1.00276 0.000614342 0)
(1.00305 0.00135423 0)
(1.00207 0.00176924 0)
(1.00219 0.00191708 0)
(1.0023 0.00210307 0)
(1.00292 0.0020969 0)
(1.00219 0.00189022 0)
(1.00162 0.00144964 0)
(1.00178 0.0011031 0)
(1.0024 0.000655549 0)
(1.00191 0.000210416 0)
(0.991637 0.00732612 0)
(0.99077 0.00924349 0)
(0.99184 0.0104491 0)
(0.99444 0.0115134 0)
(0.997199 0.0124607 0)
(0.999066 0.0128534 0)
(1.00021 0.0126805 0)
(1.0014 0.0122063 0)
(1.00203 0.0115684 0)
(1.00148 0.0106096 0)
(1.00061 0.00954387 0)
(1.00047 0.00839012 0)
(1.00108 0.00732429 0)
(1.0011 0.00634809 0)
(1.00095 0.00533228 0)
(1.00054 0.00436791 0)
(1.0009 0.00347025 0)
(1.00124 0.00270503 0)
(1.00111 0.00191518 0)
(1.00073 0.00114831 0)
(1.00095 0.000378799 0)
(1.00248 0.00125267 -1.22278e-21)
(0.99289 0.00678512 4.76769e-21)
(1.00177 0.00106547 9.2881e-21)
(0.99329 0.00660298 -3.12895e-22)
(1.0011 0.00086838 -8.44447e-21)
(0.993669 0.00641197 7.58656e-22)
(1.00047 0.000699748 9.67903e-22)
(0.994023 0.00620637 -1.75766e-20)
(0.99989 0.000550057 -5.2752e-21)
(0.994347 0.00600057 2.47985e-21)
(0.999364 0.000414229 3.86477e-21)
(0.99464 0.00579116 5.22517e-21)
(0.998896 0.000291633 1.75035e-20)
(0.994902 0.00556257 2.23129e-21)
(0.998483 0.000182633 -6.58453e-22)
(0.995132 0.005321 -8.66393e-21)
(0.998124 8.5286e-05 3.71887e-22)
(0.995332 0.0050689 2.33141e-20)
(0.997819 -4.68571e-06 5.41967e-21)
(0.995504 0.00480694 -1.03177e-20)
(0.99755 -8.48923e-05 -2.1685e-20)
(0.995653 0.00453563 -8.80442e-21)
(0.997317 -0.000156305 6.68245e-21)
(0.995781 0.00425571 2.15925e-20)
(0.997116 -0.000222169 -1.67246e-20)
(0.995892 0.00396786 -3.28761e-20)
(0.991137 0.0050342 -2.34449e-21)
(0.996941 -0.000283261 1.01264e-20)
(0.995989 0.00367277 8.31202e-21)
(0.991127 0.00404384 -1.083e-20)
(0.99679 -0.00034085 1.84418e-20)
(0.996077 0.00337123 1.11315e-20)
(0.991094 0.00303762 7.25204e-21)
(0.996659 -0.00039645 -4.17984e-21)
(0.996158 0.00306403 -2.57074e-21)
(0.991042 0.00201844 1.53745e-22)
(0.996545 -0.000451635 -1.03878e-20)
(0.996233 0.00275201 -1.79481e-21)
(0.990972 0.000989178 -1.87684e-21)
(0.996447 -0.000508028 -6.57863e-21)
(0.996305 0.00243601 3.64458e-21)
(0.990888 -4.77412e-05 -3.12139e-21)
(0.996364 -0.000567294 4.07235e-21)
(0.996376 0.00211676 -5.87535e-22)
(0.990793 -0.00109059 -5.8984e-22)
(0.996292 -0.000631089 3.72238e-21)
(0.996446 0.00179566 -2.57967e-21)
(0.990687 -0.00213836 1.28505e-21)
(0.996232 -0.000700833 1.55679e-21)
(0.996515 0.00147373 1.1994e-21)
(0.990575 -0.00318606 1.37278e-21)
(0.996181 -0.000777641 1.45967e-21)
(0.996584 0.00115115 1.27065e-21)
(0.990459 -0.00422415 -4.11607e-22)
(0.996139 -0.000863559 3.60081e-21)
(0.996653 0.000828742 -2.64103e-21)
(0.99034 -0.00524738 -2.30615e-21)
(0.996104 -0.000960253 4.17144e-21)
(0.99672 0.000507477 -4.01457e-22)
(0.99022 -0.00625493 -1.41435e-21)
(0.996076 -0.00106823 -6.43277e-21)
(0.996784 0.000188086 3.67392e-21)
(0.990101 -0.00724556 -6.65105e-22)
(0.996054 -0.0011882 -1.06891e-20)
(0.996843 -0.00012891 -1.79341e-21)
(0.989985 -0.00821755 7.55419e-21)
(0.996038 -0.00132079 -3.93619e-21)
(0.996896 -0.00044307 -2.81612e-21)
(0.989873 -0.00916921 -1.23107e-20)
(0.99603 -0.00146643 2.01669e-20)
(0.996938 -0.000754016 1.2031e-20)
(0.996033 -0.00162524 1.1031e-20)
(0.996967 -0.00106145 7.77204e-21)
(0.996051 -0.00179702 -1.69915e-20)
(0.996978 -0.00136514 -3.29456e-20)
(0.996087 -0.00198139 5.59335e-21)
(0.996967 -0.00166486 2.18966e-20)
(0.99615 -0.00217773 -2.34396e-20)
(0.996928 -0.00196044 -7.66163e-21)
(0.996246 -0.0023853 5.37942e-21)
(0.996857 -0.00225164 -9.70495e-21)
(0.996383 -0.00260327 -4.93429e-22)
(0.996749 -0.00253819 2.36939e-20)
(0.99657 -0.00283081 -5.53823e-21)
(0.9966 -0.00281977 -7.24032e-21)
(0.996815 -0.0030674 1.82742e-20)
(0.996406 -0.00309605 2.66158e-21)
(0.997124 -0.00331233 -4.75324e-22)
(0.996165 -0.00336648 5.88061e-21)
(0.997501 -0.00356274 -6.51779e-21)
(0.995878 -0.00362958 3.17163e-21)
(0.997947 -0.00381392 -1.64088e-21)
(0.995545 -0.00388278 -1.69277e-20)
(0.998463 -0.00407246 -6.38027e-21)
(0.995168 -0.00412819 -6.97692e-24)
(0.999042 -0.00437756 7.62297e-21)
(0.994751 -0.00437856 -1.93911e-21)
(0.999684 -0.00465945 -2.00158e-21)
(0.994301 -0.00463266 3.86907e-21)
(1.0018 -0.00474221 0)
(0.992869 -0.00535227 0)
(1.00414 -0.00272788 0)
(0.991318 -0.00753898 0)
(1.00471 -0.00145468 0)
(0.991624 -0.00904921 0)
(1.00427 -0.000202229 0)
(0.993077 -0.0103655 0)
(1.00372 0.000722672 0)
(0.994905 -0.0112951 0)
(1.00289 0.000985074 0)
(0.996871 -0.0116864 0)
(1.0014 0.00106151 0)
(0.999075 -0.0117862 0)
(1.00053 0.000605336 0)
(1.00073 -0.011422 0)
(1.00037 -6.81698e-06 0)
(1.0016 -0.010773 0)
(1.00049 -0.000514638 0)
(1.00202 -0.00999707 0)
(1.00078 -0.00131593 0)
(1.00211 -0.0089445 0)
(1.00093 -0.00165539 0)
(1.00202 -0.00800116 0)
(1.00189 -0.00221271 0)
(1.00137 -0.00688952 0)
(1.00227 -0.00249785 0)
(1.00092 -0.00585668 0)
(1.00284 -0.00278534 0)
(1.00046 -0.00478665 0)
(1.00207 -0.00268518 0)
(1.00075 -0.00386781 0)
(1.00171 -0.00235622 0)
(1.00087 -0.00307881 0)
(1.00207 -0.00205277 0)
(1.00048 -0.00230545 0)
(1.00299 -0.00156591 0)
(0.999778 -0.00159419 0)
(1.00282 -0.000993932 0)
(0.999802 -0.000902536 0)
(1.00183 -0.000319651 0)
(1.00038 -0.000296202 0)
)
;

boundaryField
{
    inlet
    {
        type            uniformFixedValue;
        uniformValue    constant (1 0 0);
        value           uniform (1 0 0);
    }
    outlet
    {
        type            pressureInletOutletVelocity;
        value           nonuniform 0();
    }
    cylinder
    {
        type            fixedValue;
        value           nonuniform 0();
    }
    top
    {
        type            symmetryPlane;
    }
    bottom
    {
        type            symmetryPlane;
    }
    defaultFaces
    {
        type            empty;
    }
    procBoundary0to1
    {
        type            processor;
        value           nonuniform List<vector> 
86
(
(0.984503 0.0179361 0)
(0.98409 0.0236393 0)
(0.985865 0.0276241 0)
(0.990504 0.0297859 0)
(0.995396 0.0315887 0)
(0.998695 0.0313756 0)
(1.00081 0.0296752 0)
(1.00356 0.0278875 0)
(1.00542 0.0260428 0)
(1.0051 0.0232458 0)
(1.00438 0.0206122 0)
(1.00474 0.0181762 0)
(1.00653 0.0160551 0)
(1.00651 0.0141436 0)
(1.00672 0.0118597 0)
(1.00594 0.0097738 0)
(1.00694 0.00801361 0)
(1.00754 0.0064328 0)
(1.00736 0.00449973 0)
(1.00654 0.00271994 0)
(1.00725 0.000941469 0)
(0.986661 0.0160489 1.35185e-21)
(0.987381 0.0153394 -4.37462e-23)
(0.988075 0.0146185 4.33087e-21)
(0.988708 0.0138831 6.37904e-21)
(0.989273 0.0131054 -2.43942e-20)
(0.989747 0.0122921 1.62349e-20)
(0.990135 0.0114513 1.21139e-20)
(0.990446 0.0105717 -3.83619e-21)
(0.990686 0.00960099 6.38401e-21)
(0.990865 0.00871198 -7.50765e-21)
(0.990991 0.00788497 7.91715e-21)
(0.991074 0.00695677 1.23348e-20)
(0.991121 0.00600572 -2.89833e-20)
(0.991121 0.00600572 -2.89833e-20)
(0.976198 -0.000264606 -1.15799e-20)
(0.976033 -0.00095553 4.58301e-21)
(0.975913 -0.00163365 -1.1458e-20)
(0.975838 -0.00229796 2.2311e-21)
(0.975817 -0.00295754 -7.15418e-21)
(0.975822 -0.00361035 4.15103e-21)
(0.975867 -0.00425638 -2.4485e-21)
(0.975954 -0.00490501 2.16914e-23)
(0.976083 -0.005556 2.46012e-22)
(0.976256 -0.00620521 -1.28739e-21)
(0.97647 -0.00685242 5.14172e-21)
(0.976726 -0.00750241 -7.24375e-21)
(0.977023 -0.00816025 3.74829e-21)
(0.97736 -0.00883044 -1.12868e-20)
(0.977736 -0.00951738 8.33796e-21)
(0.989765 -0.0100991 -5.73938e-22)
(0.989765 -0.0100991 -5.73938e-22)
(0.989661 -0.0110057 -2.75639e-20)
(0.989558 -0.0118878 1.16084e-20)
(0.989453 -0.0127443 6.55688e-21)
(0.989341 -0.0135743 -9.13513e-21)
(0.989214 -0.0143773 -5.79072e-22)
(0.989063 -0.0151527 -2.49686e-21)
(0.988878 -0.0159005 1.10752e-20)
(0.988648 -0.0166205 8.50546e-21)
(0.988366 -0.0173124 -2.47869e-20)
(0.988024 -0.0179734 -2.64887e-22)
(0.987623 -0.0186046 9.67856e-21)
(0.987171 -0.019235 -2.50837e-21)
(0.986689 -0.0198687 -5.08702e-22)
(0.985216 -0.0213587 0)
(0.985263 -0.0258194 0)
(0.987521 -0.0294712 0)
(0.990668 -0.0319468 0)
(0.993742 -0.0332605 0)
(0.996945 -0.0332248 0)
(1.00076 -0.033151 0)
(1.00347 -0.0315136 0)
(1.00511 -0.0292513 0)
(1.00622 -0.0270987 0)
(1.0068 -0.0240823 0)
(1.00748 -0.0216602 0)
(1.0068 -0.0186643 0)
(1.00685 -0.0159099 0)
(1.00616 -0.0130674 0)
(1.00718 -0.0108254 0)
(1.00746 -0.0087776 0)
(1.00697 -0.00652321 0)
(1.00574 -0.0045392 0)
(1.00586 -0.00269305 0)
(1.00699 -0.000929884 0)
)
;
    }
}


// ************************************************************************* //
