/*--------------------------------*- C++ -*----------------------------------*\
  =========                 |
  \\      /  F ield         | OpenFOAM: The Open Source CFD Toolbox
   \\    /   O peration     | Website:  https://openfoam.org
    \\  /    A nd           | Version:  7
     \\/     M anipulation  |
\*---------------------------------------------------------------------------*/
FoamFile
{
    version     2.0;
    format      ascii;
    class       volVectorField;
    location    "25";
    object      U;
}
// * * * * * * * * * * * * * * * * * * * * * * * * * * * * * * * * * * * * * //

dimensions      [0 1 -1 0 0 0 0];

internalField   nonuniform List<vector> 
183
(
(1.20177 0.294097 -3.12047e-21)
(1.19595 0.284193 -2.88797e-21)
(1.19099 0.274514 1.94287e-20)
(1.1866 0.265285 9.14049e-21)
(1.18228 0.25712 9.27953e-21)
(0.766128 0.193279 -7.22084e-20)
(0.93606 0.256497 1.23335e-20)
(1.06504 0.307256 3.61784e-20)
(1.1531 0.342643 7.3799e-21)
(1.20606 0.363196 -6.23647e-20)
(1.2326 0.371603 2.08164e-21)
(1.24147 0.371283 -3.5543e-20)
(1.23993 0.36539 5.44269e-20)
(1.23311 0.356334 -5.77164e-20)
(1.2242 0.34572 3.73594e-21)
(1.21498 0.334493 -1.70072e-20)
(1.20633 0.32316 2.40961e-20)
(1.19861 0.311975 4.54062e-20)
(1.19197 0.301071 1.33989e-20)
(1.18637 0.290497 9.17068e-22)
(1.18166 0.280212 -1.36967e-20)
(1.1775 0.270479 1.90393e-20)
(1.17341 0.261821 4.619e-22)
(0.12439 0.0211677 -3.99802e-20)
(0.367534 0.0766619 -8.19418e-20)
(0.598474 0.149537 2.65512e-20)
(0.802541 0.223681 1.44783e-19)
(0.967404 0.288404 -1.26694e-19)
(1.08789 0.337714 8.35865e-21)
(1.16652 0.369864 7.33074e-20)
(1.21101 0.38653 -3.08336e-20)
(1.23099 0.391211 6.5833e-21)
(1.2354 0.387738 2.42627e-20)
(1.23116 0.379357 2.55723e-21)
(1.2229 0.368394 1.27895e-20)
(1.21337 0.356302 4.31936e-20)
(1.20398 0.343888 6.21411e-21)
(0.135862 0.0279397 4.5803e-20)
(0.39365 0.0951049 1.51994e-19)
(0.631124 0.176541 7.38345e-20)
(0.834481 0.25529 1.02346e-20)
(0.993319 0.320783 -4.98351e-20)
(1.10507 0.368011 -8.51389e-20)
(1.1747 0.396534 9.22648e-20)
(1.21154 0.409175 1.45142e-19)
(0.146907 0.0355182 -2.2146e-20)
(0.417948 0.115099 -2.32071e-19)
(0.660359 0.20499 1.21239e-19)
(0.861661 0.287743 -6.86145e-20)
(0.147049 -0.0355517 3.50597e-21)
(0.418274 -0.115182 2.42065e-19)
(0.66077 -0.205095 -3.20822e-20)
(0.862068 -0.287833 1.40659e-20)
(0.135998 -0.0279669 6.59674e-20)
(0.393968 -0.095177 2.2847e-19)
(0.631537 -0.17664 4.31333e-21)
(0.834904 -0.255384 -9.64526e-20)
(0.993684 -0.320842 -5.43807e-20)
(1.10535 -0.368016 1.09396e-19)
(1.17488 -0.396483 -4.44625e-20)
(1.21164 -0.409075 -8.44999e-21)
(1.22595 -0.410032 -4.62699e-20)
(0.124517 -0.0211889 -5.31604e-20)
(0.367841 -0.0767227 -7.16754e-20)
(0.598885 -0.149628 -1.9377e-19)
(0.802974 -0.223776 3.24858e-20)
(0.967791 -0.288476 1.16896e-19)
(1.08819 -0.337743 2.68458e-20)
(1.16672 -0.369843 -4.52455e-20)
(1.21113 -0.386464 -7.8576e-20)
(1.23106 -0.391113 4.37761e-20)
(1.23544 -0.387622 -7.11432e-21)
(1.2312 -0.379236 -3.74128e-20)
(1.22296 -0.368278 6.97004e-20)
(1.21345 -0.356199 -2.32874e-20)
(1.20409 -0.343805 -2.07277e-20)
(1.19553 -0.331501 -2.91849e-20)
(0.936463 -0.256578 8.13145e-20)
(1.06537 -0.307304 -9.56634e-20)
(1.15333 -0.34265 4.92537e-20)
(1.2062 -0.363163 3.51243e-20)
(1.23268 -0.371539 3.69909e-21)
(1.24152 -0.371201 -2.77905e-20)
(1.23997 -0.365301 -1.95758e-20)
(1.23316 -0.356251 -5.94673e-20)
(1.22427 -0.345649 3.04737e-20)
(1.21508 -0.334441 -1.92072e-20)
(1.20645 -0.323132 3.66538e-20)
(1.19878 -0.311975 -4.54564e-20)
(1.19217 -0.301102 -1.39608e-20)
(1.18661 -0.290562 3.13701e-20)
(1.18193 -0.280317 -3.31491e-20)
(1.1778 -0.270625 -2.41291e-20)
(1.17373 -0.261999 7.40692e-22)
(1.20194 -0.294159 3.66178e-21)
(1.19615 -0.28429 -2.93917e-20)
(1.19121 -0.27465 2.74026e-20)
(1.18685 -0.265462 -4.12159e-21)
(1.18256 -0.25733 -1.0507e-20)
(1.17242 0.224932 -5.62988e-22)
(1.15196 0.206935 3.30187e-21)
(1.14738 0.173244 -2.15457e-21)
(1.13987 0.159537 1.42723e-21)
(1.13427 0.138845 1.83095e-21)
(1.1303 0.125317 -4.94102e-22)
(1.12566 0.112099 -1.65274e-21)
(1.12084 0.1004 6.24589e-22)
(1.11721 0.0892907 6.73959e-22)
(1.11499 0.0797692 -1.21464e-21)
(1.11122 0.0716619 -5.14149e-22)
(1.10714 0.0633769 8.24568e-22)
(1.10353 0.0553754 -2.08849e-22)
(1.10076 0.0483054 -1.37099e-21)
(1.09851 0.0404982 -1.42458e-22)
(1.09717 0.0347224 -7.94766e-22)
(1.09375 0.0279807 -1.89994e-22)
(1.09251 0.0217524 -4.57547e-22)
(1.09077 0.0151019 -4.62204e-22)
(1.09172 0.00875626 2.22445e-22)
(1.08947 0.00417104 -7.83458e-22)
(1.16452 0.227354 3.64646e-21)
(1.14553 0.209405 -6.691e-21)
(1.14212 0.174629 1.60137e-21)
(1.13553 0.16079 1.78658e-21)
(1.13043 0.139724 -5.47342e-24)
(1.12707 0.126018 -9.25974e-23)
(1.12277 0.112761 1.16897e-21)
(1.11819 0.100952 -2.999e-22)
(1.11482 0.0896828 2.74904e-22)
(1.11294 0.0801149 1.49442e-21)
(1.10933 0.0720836 2.76158e-21)
(1.10531 0.0637745 -1.58838e-22)
(1.10178 0.0557111 1.01917e-21)
(1.09908 0.0485846 1.1877e-21)
(1.09695 0.0406711 1.24434e-21)
(1.09574 0.0349439 1.33405e-21)
(1.09228 0.0281985 6.68706e-22)
(1.09105 0.0219175 1.8043e-21)
(1.08932 0.0151373 9.02601e-22)
(1.09045 0.00880529 3.88933e-22)
(1.08804 0.00429458 1.80294e-21)
(1.16489 -0.227789 -4.01272e-21)
(1.14596 -0.20982 2.64817e-21)
(1.14293 -0.175885 -1.89654e-21)
(1.13531 -0.161596 1.67882e-21)
(1.13135 -0.14131 -1.64436e-22)
(1.12642 -0.127947 1.16469e-22)
(1.12123 -0.114662 1.22624e-21)
(1.11682 -0.101245 -1.1796e-21)
(1.11433 -0.0917637 1.02056e-21)
(1.10832 -0.0808296 6.51961e-22)
(1.10705 -0.0708733 -6.12493e-22)
(1.10249 -0.0631012 -2.24591e-23)
(1.10116 -0.0532066 9.41952e-22)
(1.0992 -0.0469605 7.46936e-22)
(1.09736 -0.0393535 -6.55705e-22)
(1.09499 -0.0334329 5.51078e-22)
(1.09259 -0.0266409 -6.52357e-22)
(1.09192 -0.0200157 1.68228e-23)
(1.0922 -0.0142858 7.62717e-22)
(1.09115 -0.00907019 -3.79704e-22)
(1.08971 -0.00302867 -1.74479e-24)
(1.17273 -0.225388 9.12032e-22)
(1.15232 -0.207357 7.54218e-22)
(1.14812 -0.174466 -9.75065e-22)
(1.1396 -0.160341 -1.46281e-21)
(1.13506 -0.140357 -1.66254e-21)
(1.12963 -0.12708 4.72919e-22)
(1.1242 -0.113893 -7.48745e-22)
(1.11948 -0.100701 -4.01458e-22)
(1.11671 -0.0911805 -6.75561e-22)
(1.11066 -0.0803769 -9.11645e-22)
(1.10911 -0.0705428 -1.52822e-21)
(1.1045 -0.0627879 -6.27159e-22)
(1.10299 -0.0530835 -1.73269e-21)
(1.10083 -0.0468165 -5.66021e-22)
(1.09888 -0.0392167 -4.42947e-22)
(1.09646 -0.0332651 -1.36827e-21)
(1.09408 -0.0265317 4.51295e-22)
(1.09332 -0.0200124 -1.39518e-21)
(1.09347 -0.0142653 -1.21813e-21)
(1.09242 -0.00898509 -2.47711e-22)
(1.09105 -0.00298446 -1.05812e-21)
)
;

boundaryField
{
    inlet
    {
        type            uniformFixedValue;
        uniformValue    constant (1 0 0);
        value           nonuniform 0();
    }
    outlet
    {
        type            pressureInletOutletVelocity;
        value           nonuniform 0();
    }
    cylinder
    {
        type            fixedValue;
        value           uniform (0 0 0);
    }
    top
    {
        type            symmetryPlane;
    }
    bottom
    {
        type            symmetryPlane;
    }
    defaultFaces
    {
        type            empty;
    }
    procBoundary16to15
    {
        type            processor;
        value           nonuniform List<vector> 
90
(
(1.19538 0.331561 8.43008e-20)
(1.18785 0.319514 3.00161e-20)
(1.18145 0.307846 1.73012e-20)
(1.17613 0.296582 4.35179e-20)
(1.17171 0.285668 3.9932e-20)
(1.16785 0.275391 -3.2792e-20)
(1.16405 0.266235 2.80831e-20)
(1.2259 0.410166 1.28109e-19)
(1.22668 0.403655 -6.66692e-20)
(1.2204 0.39291 -3.65652e-20)
(1.21119 0.380133 -7.7768e-20)
(1.20134 0.366617 3.12589e-20)
(1.19538 0.331561 8.43008e-20)
(1.19196 0.353042 3.64178e-21)
(1.01375 0.353295 6.79969e-20)
(1.11678 0.397882 1.47134e-19)
(1.17797 0.42248 8.35832e-21)
(1.2259 0.410166 1.28109e-19)
(1.208 0.431027 8.60603e-20)
(0.15735 0.0438434 9.12301e-21)
(0.440072 0.136434 -2.3254e-19)
(0.685827 0.234551 -5.88887e-20)
(1.01375 0.353295 6.79969e-20)
(0.883887 0.320669 -5.62487e-20)
(0.157497 -0.0438832 1.04133e-19)
(0.440399 -0.136527 4.30858e-20)
(0.686229 -0.23466 -3.71743e-20)
(0.884272 -0.32075 1.47724e-19)
(1.01409 -0.353336 1.40103e-19)
(1.01409 -0.353336 1.40103e-19)
(1.11702 -0.39786 7.0742e-20)
(1.17811 -0.422395 -1.45655e-20)
(1.20808 -0.430891 -9.83115e-20)
(1.21767 -0.428233 1.35557e-19)
(1.22672 -0.403503 -1.85318e-19)
(1.22672 -0.403503 -1.85318e-19)
(1.22044 -0.392755 6.07284e-22)
(1.21125 -0.379983 1.6668e-20)
(1.20143 -0.36648 -5.50622e-20)
(1.1921 -0.352923 7.42732e-22)
(1.18373 -0.33963 -9.88309e-20)
(1.18804 -0.319481 -1.97266e-20)
(1.18804 -0.319481 -1.97266e-20)
(1.18168 -0.307843 -1.67127e-21)
(1.1764 -0.296613 5.31257e-20)
(1.17202 -0.285738 -2.03646e-20)
(1.16819 -0.275501 2.81045e-20)
(1.16442 -0.266375 -2.81897e-20)
(1.15627 0.229601 -7.07864e-21)
(1.13905 0.211819 3.28643e-21)
(1.13665 0.175976 1.66497e-21)
(1.13122 0.161997 -1.68073e-21)
(1.12653 0.140603 2.28747e-21)
(1.12385 0.126694 -1.14946e-21)
(1.1199 0.113433 -2.3762e-21)
(1.11553 0.101515 1.36124e-21)
(1.11242 0.0900629 -6.83535e-22)
(1.11091 0.0804438 1.91563e-21)
(1.10747 0.0725158 1.60825e-21)
(1.10349 0.0641909 5.20347e-22)
(1.10003 0.0560603 2.42037e-21)
(1.09739 0.0488695 1.02985e-21)
(1.09539 0.0408366 7.41479e-22)
(1.09432 0.0351695 9.23124e-22)
(1.09081 0.0284336 -3.8606e-22)
(1.08957 0.0220929 -9.88229e-22)
(1.08786 0.0151602 8.21268e-22)
(1.08918 0.00885726 -1.2126e-21)
(1.08659 0.0044371 -3.46154e-22)
(1.1567 -0.230011 7.11137e-21)
(1.13955 -0.212223 -3.31281e-21)
(1.13754 -0.177266 -1.6788e-21)
(1.13104 -0.162798 1.69179e-21)
(1.1276 -0.142259 -1.29724e-21)
(1.12325 -0.128813 -2.06018e-21)
(1.11824 -0.115454 1.92481e-21)
(1.11415 -0.101786 2.0595e-23)
(1.11197 -0.0923614 1.16408e-21)
(1.10598 -0.0812987 -5.91485e-22)
(1.10499 -0.0712089 -1.34745e-21)
(1.10047 -0.0634256 6.99136e-22)
(1.09932 -0.0533186 -1.43762e-21)
(1.09757 -0.047092 -2.80489e-22)
(1.09584 -0.0394926 1.69168e-21)
(1.09352 -0.0336118 -4.52423e-22)
(1.09109 -0.0267565 -2.03767e-21)
(1.09052 -0.0200056 -2.66328e-21)
(1.09095 -0.0142993 1.13734e-21)
(1.08989 -0.00916759 -2.47327e-21)
(1.08836 -0.0030826 -2.49927e-21)
)
;
    }
    procBoundary16to17
    {
        type            processor;
        value           nonuniform List<vector> 
88
(
(1.21087 0.286977 -2.31065e-22)
(1.20488 0.277723 7.41116e-21)
(1.19973 0.268629 1.85331e-21)
(1.19516 0.259875 1.58528e-20)
(1.1907 0.252177 -2.42187e-22)
(0.725628 0.164428 -2.84038e-20)
(0.899436 0.225405 4.46488e-21)
(1.03644 0.27691 3.19379e-20)
(1.13414 0.315055 2.07922e-20)
(1.1963 0.339277 -4.82054e-20)
(1.23033 0.351395 -2.69646e-20)
(1.2446 0.354324 1.7246e-20)
(1.24652 0.351041 1.92857e-20)
(1.24168 0.343997 1.33561e-20)
(1.23377 0.334926 1.14315e-20)
(1.22496 0.324916 2.46548e-21)
(1.21639 0.314582 -9.91794e-21)
(1.20859 0.304252 1.13345e-20)
(1.20859 0.304252 1.13345e-20)
(0.112668 0.0152414 -1.61578e-20)
(0.339994 0.0599428 7.65685e-20)
(0.562837 0.124278 1.47443e-19)
(0.562837 0.124278 1.47443e-19)
(0.112786 -0.0152571 8.56074e-20)
(0.340287 -0.0599922 -1.05756e-20)
(0.563239 -0.124359 -5.35072e-20)
(0.766565 -0.193372 1.07396e-19)
(0.766565 -0.193372 1.07396e-19)
(0.89985 -0.225491 5.03129e-21)
(1.03678 -0.276974 -9.48433e-21)
(1.13439 -0.315085 5.14371e-21)
(1.19647 -0.339272 1.74971e-20)
(1.23043 -0.351362 1.16055e-20)
(1.24465 -0.354273 6.54276e-20)
(1.24656 -0.350984 -1.04484e-20)
(1.24172 -0.343944 5.46064e-21)
(1.23383 -0.334886 -1.69452e-20)
(1.22504 -0.324894 -2.69451e-21)
(1.21649 -0.314585 2.88517e-21)
(1.20873 -0.304282 -3.05419e-20)
(1.20873 -0.304282 -3.05419e-20)
(1.21101 -0.287066 2.31781e-22)
(1.20505 -0.277847 -7.42201e-21)
(1.19992 -0.268792 -1.85684e-21)
(1.19537 -0.260079 -1.58874e-20)
(1.19093 -0.252414 2.41609e-22)
(1.18005 0.222354 1.88013e-21)
(1.15829 0.204417 5.4541e-23)
(1.15247 0.171828 -6.48353e-22)
(1.1442 0.15825 1.16912e-21)
(1.13805 0.137961 7.41331e-22)
(1.13353 0.124599 -3.07361e-22)
(1.12854 0.111446 5.6233e-22)
(1.12348 0.0998568 -1.77778e-22)
(1.11959 0.0888907 7.13304e-22)
(1.11707 0.0794128 2.59845e-22)
(1.11313 0.0712496 5.58688e-22)
(1.10898 0.0629958 6.8402e-22)
(1.10528 0.0550517 4.14389e-22)
(1.10243 0.0480314 -7.76419e-23)
(1.10007 0.0403207 2.32668e-22)
(1.09861 0.0345055 -7.39324e-23)
(1.09522 0.0277774 -2.21528e-23)
(1.09396 0.0215961 3.99709e-22)
(1.0922 0.0150574 4.13104e-22)
(1.093 0.00870979 7.16952e-23)
(1.09088 0.00406274 1.78218e-22)
(1.18032 -0.222825 -1.88651e-21)
(1.15859 -0.204842 -5.5529e-23)
(1.15314 -0.173013 6.50878e-22)
(1.14389 -0.159046 -1.17335e-21)
(1.13873 -0.139401 -7.42038e-22)
(1.13285 -0.126215 3.05817e-22)
(1.12716 -0.113142 -5.54273e-22)
(1.12215 -0.10016 1.74454e-22)
(1.1191 -0.0906116 -6.95695e-22)
(1.11299 -0.0799398 -2.46773e-22)
(1.11117 -0.0702172 -5.36745e-22)
(1.1065 -0.0624829 -6.61496e-22)
(1.1048 -0.0529513 -4.05193e-22)
(1.10247 -0.0466631 7.57615e-23)
(1.10041 -0.0390821 -2.3179e-22)
(1.09794 -0.0331065 7.43342e-23)
(1.09555 -0.0264273 2.26017e-23)
(1.0947 -0.0199986 -4.08124e-22)
(1.09474 -0.0142395 -4.26297e-22)
(1.09369 -0.00890995 -7.34478e-23)
(1.09237 -0.00294816 -1.83974e-22)
)
;
    }
}


// ************************************************************************* //
