/*--------------------------------*- C++ -*----------------------------------*\
  =========                 |
  \\      /  F ield         | OpenFOAM: The Open Source CFD Toolbox
   \\    /   O peration     | Website:  https://openfoam.org
    \\  /    A nd           | Version:  7
     \\/     M anipulation  |
\*---------------------------------------------------------------------------*/
FoamFile
{
    version     2.0;
    format      ascii;
    class       volScalarField;
    location    "65";
    object      p;
}
// * * * * * * * * * * * * * * * * * * * * * * * * * * * * * * * * * * * * * //

dimensions      [0 2 -2 0 0 0 0];

internalField   nonuniform List<scalar> 
8820
(
-0.25842
-0.259844
-0.260726
-0.261376
-0.261923
-0.262387
-0.262787
-0.26314
-0.263449
-0.263712
-0.263923
-0.264072
-0.264153
-0.26416
-0.264091
-0.263952
-0.263761
-0.26355
-0.26331
-0.262966
-0.262999
-0.25892
-0.260303
-0.261159
-0.261793
-0.262327
-0.262782
-0.263178
-0.26353
-0.263844
-0.264118
-0.264344
-0.264515
-0.264623
-0.264662
-0.264632
-0.264538
-0.264397
-0.264244
-0.264074
-0.26381
-0.263943
-0.259612
-0.260936
-0.261757
-0.262365
-0.262879
-0.263317
-0.263702
-0.264048
-0.26436
-0.264637
-0.264872
-0.265057
-0.265184
-0.265245
-0.265239
-0.26517
-0.265054
-0.264929
-0.264793
-0.264569
-0.264762
-0.260483
-0.261733
-0.262509
-0.263083
-0.263567
-0.263982
-0.264348
-0.264681
-0.264985
-0.26526
-0.265497
-0.265689
-0.265825
-0.265897
-0.265901
-0.265838
-0.265723
-0.265594
-0.265454
-0.265224
-0.265427
-0.261517
-0.26268
-0.263401
-0.263933
-0.264381
-0.264765
-0.265105
-0.265418
-0.265708
-0.265973
-0.266207
-0.266398
-0.266536
-0.26661
-0.266611
-0.266536
-0.266396
-0.26623
-0.266047
-0.265759
-0.265906
-0.262699
-0.263762
-0.26442
-0.264902
-0.265306
-0.26565
-0.265958
-0.266243
-0.266512
-0.266762
-0.266986
-0.267171
-0.267304
-0.267371
-0.267358
-0.267255
-0.267068
-0.26683
-0.266562
-0.266167
-0.266158
-0.264009
-0.264962
-0.26555
-0.265975
-0.266326
-0.266624
-0.266891
-0.267141
-0.267382
-0.26761
-0.267818
-0.267992
-0.268115
-0.268168
-0.268133
-0.267991
-0.267736
-0.267394
-0.266998
-0.266442
-0.266103
-0.265428
-0.266265
-0.266775
-0.267136
-0.267427
-0.26767
-0.267887
-0.268095
-0.268299
-0.268499
-0.268684
-0.268841
-0.26895
-0.268986
-0.268924
-0.268735
-0.268398
-0.267926
-0.267361
-0.266599
-0.26567
-0.266937
-0.267655
-0.268082
-0.26837
-0.268593
-0.268771
-0.26893
-0.269085
-0.269244
-0.269407
-0.269564
-0.269698
-0.269788
-0.269805
-0.269713
-0.269475
-0.269052
-0.268436
-0.267665
-0.266648
-0.265294
-0.26852
-0.269116
-0.269456
-0.269665
-0.26981
-0.269914
-0.270002
-0.270094
-0.270197
-0.270313
-0.270432
-0.270537
-0.270603
-0.270598
-0.270477
-0.270191
-0.269682
-0.268917
-0.267898
-0.266452
-0.264815
-0.270161
-0.270639
-0.270886
-0.27101
-0.271067
-0.271084
-0.271089
-0.271103
-0.271138
-0.271194
-0.271264
-0.27133
-0.271366
-0.271333
-0.271183
-0.27085
-0.270259
-0.269347
-0.268075
-0.266175
-0.263914
-0.271851
-0.272213
-0.272366
-0.272395
-0.272353
-0.272271
-0.272178
-0.2721
-0.27205
-0.272031
-0.272037
-0.272052
-0.272045
-0.271977
-0.271791
-0.271411
-0.270741
-0.269684
-0.268162
-0.265815
-0.26261
-0.273584
-0.273837
-0.273892
-0.273818
-0.273665
-0.273467
-0.27326
-0.273072
-0.272918
-0.272807
-0.272732
-0.272677
-0.272613
-0.272496
-0.272262
-0.271827
-0.271074
-0.269872
-0.2681
-0.265354
-0.260911
-0.275361
-0.275513
-0.275466
-0.27528
-0.275002
-0.274673
-0.274332
-0.274014
-0.273737
-0.273512
-0.273336
-0.273192
-0.273049
-0.272862
-0.272562
-0.272054
-0.271206
-0.269849
-0.267817
-0.264771
-0.258832
-0.277191
-0.277248
-0.277096
-0.276786
-0.276368
-0.27589
-0.275398
-0.274929
-0.274508
-0.274147
-0.273847
-0.27359
-0.273347
-0.273066
-0.272673
-0.272066
-0.271099
-0.26957
-0.267242
-0.264039
-0.256443
-0.279092
-0.279059
-0.278796
-0.278349
-0.277776
-0.277132
-0.276467
-0.275826
-0.27524
-0.274722
-0.274276
-0.273884
-0.273515
-0.273114
-0.272602
-0.271864
-0.270744
-0.269023
-0.26635
-0.263137
-0.253905
-0.28109
-0.280968
-0.280584
-0.279989
-0.279244
-0.278414
-0.277558
-0.276726
-0.275954
-0.275259
-0.274646
-0.274098
-0.273581
-0.273035
-0.272374
-0.271473
-0.270168
-0.268234
-0.265179
-0.262052
-0.251474
-0.283219
-0.283003
-0.282489
-0.281729
-0.280795
-0.279762
-0.278696
-0.277656
-0.27668
-0.275791
-0.274994
-0.274271
-0.273584
-0.27287
-0.272033
-0.270941
-0.269415
-0.267244
-0.263817
-0.260741
-0.249389
-0.285521
-0.285201
-0.284543
-0.283601
-0.28246
-0.281206
-0.279915
-0.27865
-0.277456
-0.276359
-0.275362
-0.274448
-0.273573
-0.272668
-0.27163
-0.270317
-0.268548
-0.266106
-0.262384
-0.259097
-0.247635
-0.288047
-0.287602
-0.28678
-0.285638
-0.284273
-0.282781
-0.281251
-0.279749
-0.278326
-0.277009
-0.2758
-0.274678
-0.273596
-0.272475
-0.271207
-0.269647
-0.267623
-0.264905
-0.261074
-0.257138
-0.246177
-0.290845
-0.290251
-0.289242
-0.287879
-0.286271
-0.284529
-0.282745
-0.280997
-0.279335
-0.277787
-0.276354
-0.275007
-0.273692
-0.272324
-0.270788
-0.268945
-0.26665
-0.26369
-0.260019
-0.255394
-0.246847
-0.293974
-0.293194
-0.291971
-0.290366
-0.288497
-0.286488
-0.284441
-0.282437
-0.280528
-0.278738
-0.277064
-0.275469
-0.273888
-0.272227
-0.27037
-0.268186
-0.265564
-0.262353
-0.258821
-0.254376
-0.253329
-0.297487
-0.296477
-0.29501
-0.293138
-0.290989
-0.2887
-0.286381
-0.284112
-0.281945
-0.2799
-0.277962
-0.276084
-0.27419
-0.272175
-0.269924
-0.267319
-0.264282
-0.260751
-0.256968
-0.252828
-0.250638
-0.301437
-0.300146
-0.2984
-0.296237
-0.293789
-0.291207
-0.288603
-0.286059
-0.283621
-0.281299
-0.279065
-0.276857
-0.274585
-0.272138
-0.269403
-0.266282
-0.262727
-0.258722
-0.254483
-0.24993
-0.246317
-0.305872
-0.304243
-0.302182
-0.299702
-0.296936
-0.294045
-0.291146
-0.288314
-0.285585
-0.282954
-0.280377
-0.277774
-0.275043
-0.27207
-0.268753
-0.265018
-0.260847
-0.256254
-0.251423
-0.246262
-0.241589
-0.310835
-0.308808
-0.306394
-0.30357
-0.300467
-0.297253
-0.294043
-0.290903
-0.287853
-0.284869
-0.281884
-0.278805
-0.275518
-0.271917
-0.26792
-0.263485
-0.258626
-0.253382
-0.247919
-0.242146
-0.23663
-0.316363
-0.313875
-0.311072
-0.307878
-0.304417
-0.300863
-0.297323
-0.293847
-0.290433
-0.287032
-0.283558
-0.279901
-0.275951
-0.27162
-0.266857
-0.261658
-0.256071
-0.250163
-0.244087
-0.237757
-0.231686
-0.322484
-0.319475
-0.316245
-0.312658
-0.308819
-0.304905
-0.301008
-0.297156
-0.293317
-0.289417
-0.28535
-0.281002
-0.276279
-0.271123
-0.265526
-0.259527
-0.253206
-0.246651
-0.240004
-0.233197
-0.226679
-0.329221
-0.32563
-0.32194
-0.317937
-0.313701
-0.309402
-0.305113
-0.300827
-0.296482
-0.291977
-0.287197
-0.282038
-0.276435
-0.270377
-0.263902
-0.257093
-0.250054
-0.242887
-0.235717
-0.228496
-0.22162
-0.336585
-0.332357
-0.328178
-0.323739
-0.319084
-0.314369
-0.309635
-0.304838
-0.299882
-0.294648
-0.289022
-0.28293
-0.276356
-0.269338
-0.261968
-0.254359
-0.246633
-0.238895
-0.231249
-0.223664
-0.216462
-0.344575
-0.339661
-0.334969
-0.330077
-0.324978
-0.319803
-0.314555
-0.309146
-0.30345
-0.297344
-0.290736
-0.283602
-0.275981
-0.267973
-0.259709
-0.251327
-0.242953
-0.234686
-0.226602
-0.218688
-0.211181
-0.353177
-0.347536
-0.342312
-0.336951
-0.331376
-0.325685
-0.319829
-0.313681
-0.307097
-0.299966
-0.292246
-0.283974
-0.275258
-0.26625
-0.257113
-0.247995
-0.239014
-0.230255
-0.221767
-0.213548
-0.205748
-0.362358
-0.355959
-0.350192
-0.344344
-0.338252
-0.331966
-0.325386
-0.318348
-0.310711
-0.302404
-0.293453
-0.283973
-0.274138
-0.264142
-0.254165
-0.244352
-0.234805
-0.225587
-0.216723
-0.20822
-0.200138
-0.372067
-0.36489
-0.358572
-0.352216
-0.345552
-0.338571
-0.331123
-0.323025
-0.314164
-0.304539
-0.294263
-0.283531
-0.272576
-0.261621
-0.250845
-0.24038
-0.230304
-0.220659
-0.211446
-0.202674
-0.194323
-0.382224
-0.374262
-0.367391
-0.3605
-0.353191
-0.34539
-0.336908
-0.327568
-0.317318
-0.306252
-0.294583
-0.282584
-0.27053
-0.258655
-0.247126
-0.236052
-0.225485
-0.215441
-0.205904
-0.196881
-0.188277
-0.392726
-0.383986
-0.376561
-0.369098
-0.36105
-0.352282
-0.342582
-0.331816
-0.320026
-0.307425
-0.294327
-0.28107
-0.267955
-0.255209
-0.242976
-0.231335
-0.220312
-0.209899
-0.200065
-0.19081
-0.181974
-0.403439
-0.393943
-0.385964
-0.377878
-0.368978
-0.359073
-0.347963
-0.335596
-0.322143
-0.307945
-0.293412
-0.278931
-0.264805
-0.251242
-0.238355
-0.226191
-0.214748
-0.203997
-0.193895
-0.184428
-0.175387
-0.4142
-0.403983
-0.395448
-0.386674
-0.376788
-0.365564
-0.352855
-0.338733
-0.323525
-0.307705
-0.291761
-0.276106
-0.261031
-0.246711
-0.233222
-0.220579
-0.208754
-0.197699
-0.18736
-0.177706
-0.168491
-0.424816
-0.413927
-0.40483
-0.395289
-0.384266
-0.371535
-0.35705
-0.341051
-0.324036
-0.306603
-0.289298
-0.272537
-0.256582
-0.241566
-0.22753
-0.214454
-0.202289
-0.190966
-0.180427
-0.170614
-0.161262
-0.435065
-0.423565
-0.413896
-0.403492
-0.391172
-0.376751
-0.360341
-0.342382
-0.323549
-0.304545
-0.285951
-0.268164
-0.251403
-0.235759
-0.221232
-0.207774
-0.195311
-0.183763
-0.173062
-0.163122
-0.153677
-0.444703
-0.432664
-0.422404
-0.411031
-0.397249
-0.380975
-0.362524
-0.342566
-0.321944
-0.301444
-0.28165
-0.262926
-0.245442
-0.229239
-0.214281
-0.200493
-0.187781
-0.176052
-0.165232
-0.155203
-0.145716
-0.453465
-0.440964
-0.43009
-0.417634
-0.402236
-0.383969
-0.363408
-0.341458
-0.319115
-0.297215
-0.276328
-0.256766
-0.238643
-0.221956
-0.206631
-0.19257
-0.179661
-0.167801
-0.156907
-0.14683
-0.137357
-0.461069
-0.448192
-0.436674
-0.423021
-0.405866
-0.385509
-0.362814
-0.338925
-0.314962
-0.291784
-0.269922
-0.249626
-0.230957
-0.213862
-0.198239
-0.183965
-0.170915
-0.158976
-0.148057
-0.137979
-0.12858
-0.467228
-0.454062
-0.441869
-0.426908
-0.407886
-0.385384
-0.360584
-0.334851
-0.309399
-0.285081
-0.262372
-0.241456
-0.222334
-0.204915
-0.189064
-0.174642
-0.16151
-0.149547
-0.138655
-0.128629
-0.119369
-0.471652
-0.458286
-0.445384
-0.429023
-0.408056
-0.383405
-0.356576
-0.329133
-0.30235
-0.277046
-0.253627
-0.232207
-0.212734
-0.195075
-0.179073
-0.164569
-0.151414
-0.139481
-0.128668
-0.118753
-0.109693
-0.47406
-0.460582
-0.446942
-0.429106
-0.40616
-0.379408
-0.350674
-0.321689
-0.293752
-0.267627
-0.243642
-0.221841
-0.20212
-0.184312
-0.168237
-0.15372
-0.1406
-0.128746
-0.118054
-0.108297
-0.0994756
-0.474184
-0.460679
-0.446278
-0.426922
-0.402011
-0.373254
-0.342781
-0.312452
-0.283554
-0.256782
-0.23238
-0.210326
-0.190466
-0.172605
-0.15654
-0.142082
-0.129058
-0.117331
-0.106793
-0.0971927
-0.0885536
-0.471777
-0.458328
-0.443156
-0.422268
-0.39545
-0.364835
-0.332827
-0.301371
-0.27172
-0.244482
-0.219818
-0.19764
-0.177755
-0.159938
-0.14397
-0.129649
-0.11679
-0.105254
-0.0949232
-0.0854566
-0.0767701
-0.466621
-0.453308
-0.437368
-0.414973
-0.386357
-0.354073
-0.320761
-0.288416
-0.258227
-0.230709
-0.20594
-0.183774
-0.163979
-0.146308
-0.130527
-0.116422
-0.103804
-0.0925396
-0.0824984
-0.0732346
-0.0643993
-0.45853
-0.445429
-0.428745
-0.404906
-0.374644
-0.340918
-0.30656
-0.273573
-0.243067
-0.215458
-0.190744
-0.168725
-0.149138
-0.131717
-0.116219
-0.102413
-0.0901125
-0.0791916
-0.0694572
-0.0603446
-0.052167
-0.447358
-0.434542
-0.417158
-0.391975
-0.360261
-0.325351
-0.29022
-0.256849
-0.22625
-0.198737
-0.174237
-0.152503
-0.133248
-0.11618
-0.101067
-0.0876431
-0.075737
-0.0652175
-0.0558354
-0.0470352
-0.0395718
-0.433001
-0.42054
-0.402519
-0.37613
-0.343194
-0.307382
-0.271764
-0.238268
-0.207797
-0.180569
-0.156442
-0.135126
-0.116341
-0.0997361
-0.0850817
-0.0721301
-0.060695
-0.0506413
-0.0416845
-0.0332947
-0.0264995
-0.415397
-0.40336
-0.384789
-0.357363
-0.323464
-0.287047
-0.251235
-0.217873
-0.18775
-0.160992
-0.137406
-0.116657
-0.0984299
-0.0824012
-0.0683067
-0.0559073
-0.0450163
-0.0354944
-0.0270287
-0.0191008
-0.012958
-0.394532
-0.382984
-0.363971
-0.335705
-0.301123
-0.264414
-0.2287
-0.195725
-0.166166
-0.140067
-0.117167
-0.0971187
-0.0795762
-0.0642229
-0.0507825
-0.0390158
-0.0287394
-0.0198122
-0.011892
-0.00446451
0.00100678
-0.370435
-0.359441
-0.340109
-0.311228
-0.276264
-0.239577
-0.204243
-0.171903
-0.14312
-0.117851
-0.0957929
-0.0765734
-0.0598347
-0.0452571
-0.0325604
-0.0215044
-0.0119103
-0.00363545
0.00369241
0.0105822
0.0153525
-0.343184
-0.3328
-0.313295
-0.284046
-0.249015
-0.21264
-0.177956
-0.1465
-0.118695
-0.0944273
-0.0733567
-0.0550934
-0.0392713
-0.0255678
-0.0137012
-0.00343124
0.00541561
0.012984
0.0196757
0.0259934
0.0300531
-0.312894
-0.303178
-0.283667
-0.254325
-0.219503
-0.183689
-0.149978
-0.119631
-0.0929934
-0.0698895
-0.0499459
-0.0327603
-0.0179621
-0.00522738
0.00572613
0.0151369
0.0231727
0.0299804
0.0359919
0.041712
0.045085
-0.279714
-0.270738
-0.251412
-0.222212
-0.187769
-0.152971
-0.120451
-0.0914239
-0.0661335
-0.0443442
-0.0256585
-0.00966538
0.00400756
0.0156842
0.0256457
0.0341271
0.0412891
0.0472825
0.0525727
0.0576725
0.0603541
-0.243818
-0.235693
-0.21671
-0.187715
-0.15422
-0.120628
-0.089534
-0.0620238
-0.0382438
-0.0179089
-0.000602614
0.0140913
0.0265448
0.0370801
0.045976
0.0534622
0.0596938
0.0648319
0.0693735
0.0738064
0.0756428
-0.205408
-0.19827
-0.179627
-0.15134
-0.118989
-0.0868501
-0.0573993
-0.0315848
-0.00946414
0.00928886
0.0251049
0.0384018
0.0495493
0.0588665
0.0666284
0.0730592
0.0783159
0.0825815
0.0863627
0.0900338
0.090802
-0.16471
-0.158729
-0.140571
-0.113276
-0.0822944
-0.0518422
-0.0242309
-0.000271932
0.0200561
0.0371133
0.0513395
0.0631514
0.0729143
0.0809427
0.0875059
0.0928246
0.0970688
0.10045
0.103436
0.106229
0.106108
-0.122101
-0.117295
-0.0998833
-0.0737496
-0.0443742
-0.0158211
0.00977732
0.0317404
0.0501592
0.065421
0.0779703
0.08822
0.096529
0.103205
0.108508
0.112658
0.115843
0.118289
0.120369
0.122198
0.121861
-0.0780294
-0.0741947
-0.0577957
-0.033035
-0.00548053
0.0209867
0.0444227
0.0642699
0.0806806
0.0940627
0.104862
0.113484
0.12028
0.125548
0.129539
0.132469
0.134537
0.135951
0.13694
0.13768
0.137126
-0.0326578
-0.0298486
-0.0146071
0.00858114
0.0341238
0.0583463
0.079495
0.0971277
0.11145
0.122884
0.131874
0.138817
0.144054
0.147871
0.15051
0.152182
0.15309
0.153385
0.153068
0.152201
0.15194
0.0136792
0.0153923
0.0293598
0.0508017
0.0741693
0.0960166
0.114778
0.13012
0.142292
0.151728
0.158864
0.16409
0.167733
0.170069
0.17133
0.171723
0.171436
0.170566
0.169064
0.167198
0.166392
0.0606181
0.0611868
0.0737736
0.0933224
0.114382
0.133752
0.150053
0.16305
0.17303
0.180432
0.185687
0.189171
0.1912
0.192037
0.191905
0.191002
0.189492
0.187435
0.184804
0.182023
0.180382
0.107795
0.107187
0.1183
0.135836
0.154485
0.171306
0.185098
0.195717
0.203482
0.208835
0.212196
0.213928
0.214336
0.21367
0.212143
0.209941
0.207211
0.203994
0.200297
0.19661
0.194037
0.154844
0.153041
0.162603
0.178035
0.194202
0.20843
0.219691
0.227922
0.23347
0.236773
0.238243
0.238228
0.237021
0.234859
0.231945
0.228452
0.224512
0.220155
0.21542
0.21082
0.207303
0.201401
0.198394
0.206351
0.219614
0.233259
0.244879
0.253612
0.259467
0.262813
0.264085
0.263681
0.261939
0.259135
0.255496
0.251214
0.246451
0.241322
0.235856
0.23011
0.224601
0.220136
0.247105
0.242899
0.249213
0.260275
0.271387
0.280412
0.286642
0.290155
0.291334
0.290609
0.288366
0.284928
0.280558
0.275474
0.269853
0.263847
0.257561
0.251018
0.24429
0.237886
0.232478
0.291601
0.286212
0.29087
0.299724
0.308323
0.314792
0.31857
0.319794
0.318858
0.316187
0.312153
0.307065
0.301175
0.294685
0.287765
0.280556
0.273149
0.265568
0.257893
0.250612
0.244275
0.334545
0.328
0.331009
0.337677
0.343812
0.347791
0.34919
0.348197
0.345218
0.340668
0.334905
0.328226
0.320869
0.313026
0.304856
0.296489
0.288007
0.279432
0.270851
0.262718
0.255474
0.375606
0.367942
0.369331
0.373864
0.377609
0.379188
0.378302
0.375186
0.37025
0.363901
0.356486
0.348287
0.33953
0.330396
0.321034
0.311563
0.302058
0.292539
0.283097
0.274146
0.266024
0.414466
0.405731
0.405552
0.408026
0.409482
0.408773
0.405717
0.400587
0.393799
0.385748
0.376769
0.367131
0.357051
0.346698
0.33621
0.325698
0.315228
0.304822
0.29457
0.284839
0.275878
0.450825
0.441079
0.439402
0.439918
0.439211
0.43635
0.431258
0.424241
0.415716
0.406072
0.395631
0.384649
0.373331
0.361839
0.350301
0.338817
0.327448
0.316217
0.305209
0.294745
0.284989
0.484405
0.473717
0.470631
0.469313
0.466592
0.461734
0.454756
0.445994
0.435866
0.424751
0.412959
0.400736
0.388277
0.375734
0.363227
0.350848
0.338652
0.326661
0.314959
0.303813
0.293316
0.514948
0.503396
0.499009
0.496004
0.491436
0.484756
0.476059
0.465708
0.454121
0.441668
0.428648
0.415297
0.401802
0.388304
0.374917
0.361725
0.348778
0.336101
0.323769
0.311998
0.300821
0.54222
0.529892
0.524327
0.5198
0.513575
0.50526
0.495027
0.483257
0.470367
0.456718
0.442602
0.428245
0.413825
0.399476
0.385305
0.371388
0.357773
0.344484
0.331592
0.31926
0.307471
0.566012
0.553003
0.5464
0.540534
0.532855
0.523112
0.511536
0.498527
0.4845
0.469809
0.454737
0.439503
0.424276
0.409186
0.394331
0.379783
0.365585
0.351766
0.338385
0.325561
0.313235
0.586143
0.572555
0.565065
0.55806
0.549146
0.538191
0.525478
0.51142
0.496431
0.480859
0.464978
0.449002
0.433093
0.417376
0.401944
0.386862
0.372174
0.357906
0.344113
0.330871
0.318087
0.60246
0.588401
0.580188
0.572253
0.562335
0.550397
0.536762
0.521853
0.506085
0.489798
0.473263
0.456685
0.440225
0.424
0.4081
0.392587
0.377501
0.362871
0.348744
0.335162
0.322005
0.61484
0.600423
0.591658
0.583015
0.572333
0.559648
0.545313
0.52976
0.5134
0.496572
0.47954
0.462507
0.445628
0.429019
0.412765
0.396925
0.381537
0.366633
0.352254
0.338413
0.324973
0.623188
0.60853
0.599391
0.59027
0.579072
0.565884
0.551077
0.535089
0.518332
0.501139
0.483772
0.466433
0.449272
0.432404
0.415912
0.399852
0.384262
0.369173
0.354624
0.340609
0.326977
0.627442
0.612661
0.603333
0.593967
0.582507
0.569062
0.554016
0.537807
0.520847
0.503469
0.485933
0.468438
0.451134
0.434135
0.417522
0.401351
0.385658
0.370476
0.355841
0.341738
0.328009
0.627571
0.612788
0.603454
0.594082
0.582614
0.569163
0.55411
0.537896
0.520931
0.503549
0.486009
0.468511
0.451204
0.434203
0.417587
0.401414
0.385719
0.370536
0.355899
0.341795
0.328064
0.623573
0.608909
0.599755
0.590613
0.579394
0.566186
0.551361
0.535357
0.518585
0.501379
0.484001
0.466652
0.449482
0.432607
0.416107
0.400041
0.384445
0.369351
0.354798
0.340779
0.327142
0.615482
0.601054
0.592264
0.583587
0.57287
0.560151
0.545786
0.530206
0.513822
0.496973
0.479922
0.462873
0.445979
0.429357
0.413091
0.39724
0.381843
0.366931
0.352544
0.338697
0.325248
0.603358
0.589285
0.581036
0.573054
0.563086
0.551101
0.537423
0.522477
0.506675
0.490359
0.473797
0.457197
0.440715
0.424472
0.408556
0.393028
0.377928
0.363287
0.34915
0.335559
0.322389
0.587296
0.57369
0.566155
0.559089
0.55011
0.539095
0.526328
0.512221
0.497189
0.481579
0.465665
0.449659
0.433723
0.417983
0.402529
0.387429
0.372723
0.35844
0.344635
0.331381
0.31858
0.56742
0.554389
0.54773
0.541791
0.534034
0.524217
0.512574
0.499505
0.485426
0.470689
0.455576
0.440305
0.425045
0.409926
0.395046
0.380475
0.366256
0.352419
0.339022
0.326184
0.313838
0.543881
0.531528
0.525898
0.521284
0.514966
0.506565
0.496252
0.484412
0.47146
0.457757
0.443592
0.429192
0.414733
0.400351
0.386149
0.372205
0.358565
0.345255
0.332344
0.319995
0.308184
0.516862
0.505281
0.500819
0.497713
0.49304
0.486259
0.477471
0.46704
0.455381
0.442865
0.429789
0.416388
0.402849
0.389312
0.37589
0.362666
0.349691
0.336989
0.324636
0.312846
0.301643
0.486571
0.475849
0.472679
0.471248
0.468406
0.463435
0.456354
0.447501
0.437292
0.426106
0.41425
0.401971
0.389462
0.376875
0.364328
0.351913
0.339685
0.327666
0.315941
0.304773
0.294247
0.45324
0.443457
0.441686
0.442076
0.441235
0.438248
0.433041
0.425922
0.417308
0.407584
0.397071
0.386027
0.374653
0.363111
0.351529
0.340005
0.328601
0.317338
0.306304
0.295816
0.286029
0.417127
0.408353
0.408071
0.410406
0.411715
0.410867
0.407685
0.402442
0.395554
0.387415
0.378358
0.368651
0.358509
0.348101
0.337565
0.327008
0.3165
0.306059
0.295777
0.286021
0.277026
0.378512
0.370805
0.372084
0.376466
0.38005
0.381476
0.380452
0.377213
0.372168
0.365723
0.358223
0.349948
0.341123
0.33193
0.322514
0.312995
0.303447
0.293891
0.284417
0.275438
0.267281
0.337694
0.331102
0.333992
0.340497
0.346458
0.350272
0.351521
0.350395
0.347298
0.342643
0.336788
0.330027
0.322597
0.314689
0.306461
0.298041
0.289513
0.280897
0.272281
0.264119
0.256837
0.294988
0.28955
0.29408
0.30276
0.311173
0.317464
0.321081
0.322161
0.321098
0.318315
0.314181
0.309005
0.303036
0.296476
0.289493
0.282228
0.274771
0.267145
0.259433
0.25212
0.245744
0.250726
0.246469
0.252648
0.263524
0.274438
0.283272
0.28933
0.292689
0.293732
0.292887
0.290537
0.287004
0.282551
0.277391
0.271703
0.265637
0.259297
0.252707
0.245938
0.2395
0.234052
0.205253
0.202192
0.210007
0.223074
0.236508
0.247926
0.256474
0.262166
0.265368
0.266512
0.265994
0.264151
0.261257
0.257539
0.253185
0.248357
0.243171
0.237654
0.231864
0.226321
0.221813
0.158921
0.157061
0.166476
0.181701
0.197645
0.21166
0.222727
0.230785
0.236179
0.239347
0.240696
0.240575
0.239272
0.237025
0.234035
0.230474
0.226472
0.22206
0.217278
0.212641
0.209081
0.112092
0.111426
0.122384
0.139704
0.15812
0.174716
0.188303
0.19874
0.206344
0.211553
0.214787
0.216407
0.216714
0.215958
0.214351
0.212077
0.209281
0.206004
0.202256
0.19853
0.195912
0.0651286
0.0656374
0.0780646
0.0973888
0.118204
0.137339
0.153425
0.16623
0.17604
0.183293
0.188415
0.19178
0.193703
0.194446
0.19423
0.19325
0.191671
0.18955
0.186862
0.184038
0.18235
0.0183957
0.0200479
0.033851
0.0550605
0.0781742
0.0997757
0.118313
0.133455
0.14545
0.154728
0.161726
0.166827
0.17036
0.172597
0.173769
0.174082
0.173722
0.172783
0.171219
0.169304
0.168447
-0.0277434
-0.0249956
-0.00992255
0.0130264
0.0383062
0.0622735
0.0831887
0.100613
0.114751
0.126022
0.134867
0.141681
0.146803
0.150517
0.153064
0.154652
0.155483
0.155705
0.155319
0.154389
0.154073
-0.0729263
-0.0691526
-0.0529256
-0.0284101
-0.00112642
0.0250769
0.0482711
0.0679024
0.084122
0.097335
0.107984
0.116473
0.12315
0.128311
0.132206
0.135049
0.137037
0.138375
0.139287
0.139948
0.139342
-0.116819
-0.112074
-0.0948366
-0.0689525
-0.0398547
-0.0115734
0.0137755
0.0355157
0.0537373
0.0688245
0.0812192
0.0913314
0.0995178
0.106084
0.111288
0.115349
0.118452
0.120821
0.122823
0.12457
0.124184
-0.159257
-0.153342
-0.135357
-0.108315
-0.0776168
-0.0474431
-0.0200883
0.00364156
0.0237668
0.0406446
0.0547121
0.066383
0.0760204
0.0839365
0.0903987
0.0956262
0.0997879
0.103094
0.106004
0.108719
0.108553
-0.199797
-0.192727
-0.174255
-0.146224
-0.114161
-0.0823065
-0.0531181
-0.0275382
-0.0056252
0.0129444
0.0285982
0.0417512
0.0527708
0.0619737
0.0696332
0.075972
0.081146
0.0853368
0.0890452
0.0926418
0.093367
-0.238063
-0.230007
-0.211193
-0.182453
-0.14925
-0.115948
-0.0851206
-0.0578497
-0.0342814
-0.0141333
0.00300802
0.0175558
0.0298796
0.0402994
0.049092
0.0564857
0.0626347
0.0676987
0.0721693
0.07653
0.078323
-0.27383
-0.264923
-0.245763
-0.216816
-0.182666
-0.148162
-0.115913
-0.0871284
-0.0620528
-0.0404529
-0.0219343
-0.00608882
0.00745325
0.0190136
0.0288716
0.0372605
0.0443402
0.0502601
0.0554807
0.0605102
0.0631479
-0.306895
-0.297248
-0.2779
-0.248808
-0.214278
-0.17876
-0.145322
-0.11522
-0.0888003
-0.0658874
-0.0461121
-0.029075
-0.0144082
-0.00178978
0.00906035
0.0183791
0.0263332
0.0330683
0.0390116
0.0446634
0.0479927
-0.337088
-0.326772
-0.307425
-0.278423
-0.243681
-0.2076
-0.173192
-0.141983
-0.114395
-0.0903197
-0.0694177
-0.0513029
-0.0356119
-0.0220243
-0.0102603
-8.14455e-05
0.00868475
0.0161818
0.022807
0.0290586
0.0330749
-0.364259
-0.353331
-0.334153
-0.30551
-0.270833
-0.234438
-0.199378
-0.167286
-0.138721
-0.113644
-0.0917535
-0.0726818
-0.0560732
-0.0416102
-0.0290147
-0.0180482
-0.00853326
-0.000328176
0.00693526
0.0137612
0.0184883
-0.388293
-0.376812
-0.357945
-0.32991
-0.295608
-0.259187
-0.223746
-0.191017
-0.161675
-0.135766
-0.113033
-0.09313
-0.0757162
-0.0604755
-0.047134
-0.0354546
-0.0252554
-0.0163959
-0.00853778
-0.00117149
0.00425676
-0.409115
-0.397144
-0.378712
-0.351507
-0.317878
-0.281745
-0.246202
-0.213083
-0.183175
-0.156604
-0.133181
-0.112575
-0.0944755
-0.0785561
-0.0645572
-0.0522425
-0.0414261
-0.0319695
-0.023563
-0.0156932
-0.00959279
-0.426695
-0.4143
-0.39641
-0.370229
-0.337554
-0.302017
-0.266663
-0.233406
-0.203146
-0.176102
-0.152135
-0.130956
-0.112297
-0.0957961
-0.0812331
-0.0683629
-0.0569992
-0.0470079
-0.0381073
-0.0297718
-0.0230171
-0.441049
-0.428298
-0.411036
-0.386048
-0.354582
-0.319938
-0.285063
-0.251925
-0.221531
-0.194198
-0.169853
-0.148253
-0.129114
-0.112148
-0.0971208
-0.0837751
-0.0719362
-0.0614754
-0.0521464
-0.0433966
-0.0359687
-0.452238
-0.439202
-0.422632
-0.398973
-0.368943
-0.335471
-0.301359
-0.268598
-0.238291
-0.210854
-0.186289
-0.164399
-0.144921
-0.127595
-0.11218
-0.0984462
-0.0862069
-0.0753399
-0.0656556
-0.0565915
-0.0484385
-0.460366
-0.447119
-0.431283
-0.409053
-0.380652
-0.348607
-0.31553
-0.2834
-0.253402
-0.226049
-0.201421
-0.179376
-0.159684
-0.142101
-0.126397
-0.112357
-0.0997939
-0.0885771
-0.0785801
-0.0693686
-0.0605432
-0.465581
-0.452198
-0.43712
-0.416381
-0.38976
-0.359367
-0.327579
-0.296328
-0.266857
-0.239775
-0.215243
-0.193177
-0.173387
-0.15565
-0.13975
-0.125486
-0.112675
-0.10118
-0.0908832
-0.0814565
-0.0728103
-0.468065
-0.454627
-0.440311
-0.421087
-0.396353
-0.367799
-0.337532
-0.307393
-0.278664
-0.252037
-0.227757
-0.205804
-0.186029
-0.168238
-0.152232
-0.137823
-0.124839
-0.113144
-0.102633
-0.0930631
-0.0844597
-0.468037
-0.454627
-0.441064
-0.423343
-0.400554
-0.373984
-0.345437
-0.316628
-0.288846
-0.262853
-0.238977
-0.217267
-0.197619
-0.179871
-0.163844
-0.149365
-0.136276
-0.124446
-0.113773
-0.104036
-0.0952369
-0.465743
-0.452446
-0.439613
-0.423351
-0.40252
-0.37803
-0.351368
-0.324083
-0.297439
-0.272253
-0.248931
-0.227588
-0.208175
-0.190563
-0.174597
-0.160119
-0.146983
-0.135065
-0.124261
-0.114356
-0.105307
-0.461448
-0.448352
-0.436222
-0.421346
-0.402438
-0.380074
-0.355419
-0.329825
-0.304496
-0.28028
-0.257652
-0.236798
-0.217723
-0.200336
-0.184507
-0.170098
-0.156973
-0.145012
-0.134119
-0.124092
-0.114832
-0.455433
-0.442627
-0.431167
-0.417584
-0.400524
-0.380281
-0.357709
-0.333938
-0.310079
-0.286986
-0.265188
-0.244939
-0.226299
-0.209221
-0.193604
-0.179328
-0.16627
-0.154319
-0.143385
-0.133294
-0.123886
-0.447985
-0.435555
-0.424734
-0.412338
-0.397015
-0.37884
-0.358378
-0.336525
-0.314265
-0.292431
-0.271591
-0.252056
-0.233945
-0.217256
-0.20192
-0.187839
-0.174906
-0.163018
-0.152095
-0.141991
-0.132496
-0.43939
-0.427421
-0.417211
-0.405887
-0.392165
-0.37596
-0.357586
-0.337701
-0.317141
-0.296686
-0.276919
-0.258202
-0.24071
-0.224486
-0.209497
-0.195669
-0.182914
-0.171139
-0.160273
-0.150201
-0.140679
-0.429925
-0.418496
-0.408874
-0.398512
-0.386236
-0.371866
-0.355509
-0.3376
-0.318807
-0.299827
-0.281237
-0.263436
-0.246646
-0.230958
-0.216377
-0.202858
-0.19033
-0.178716
-0.167949
-0.157948
-0.148451
-0.419855
-0.409035
-0.399985
-0.390479
-0.37949
-0.366792
-0.352339
-0.336367
-0.319369
-0.301937
-0.284614
-0.267815
-0.251806
-0.236722
-0.222608
-0.209446
-0.197192
-0.185779
-0.175152
-0.165257
-0.155833
-0.409422
-0.399272
-0.390782
-0.382041
-0.372179
-0.360974
-0.348278
-0.334162
-0.318948
-0.303105
-0.287119
-0.271401
-0.256247
-0.241831
-0.228236
-0.21548
-0.203539
-0.192367
-0.181915
-0.172154
-0.162844
-0.398844
-0.389413
-0.381478
-0.373423
-0.364541
-0.354645
-0.343533
-0.331153
-0.317672
-0.303427
-0.288827
-0.274256
-0.260022
-0.246334
-0.23331
-0.221002
-0.209411
-0.198513
-0.188269
-0.178668
-0.169506
-0.388313
-0.379636
-0.372254
-0.36482
-0.356789
-0.348022
-0.338308
-0.327513
-0.315676
-0.303005
-0.289813
-0.276439
-0.263185
-0.250281
-0.237877
-0.226057
-0.214851
-0.204257
-0.194247
-0.184826
-0.17584
-0.377991
-0.370087
-0.363259
-0.356398
-0.349104
-0.341302
-0.332799
-0.323418
-0.313104
-0.301947
-0.290158
-0.278012
-0.265786
-0.253717
-0.24198
-0.230687
-0.219898
-0.209634
-0.199883
-0.190659
-0.181869
-0.368009
-0.360885
-0.35461
-0.348285
-0.341638
-0.334656
-0.327185
-0.319039
-0.3101
-0.300365
-0.289944
-0.279035
-0.267874
-0.256686
-0.24566
-0.234932
-0.22459
-0.21468
-0.205209
-0.196194
-0.187618
-0.358471
-0.352119
-0.346393
-0.340578
-0.334507
-0.328224
-0.321623
-0.314534
-0.30681
-0.298378
-0.28926
-0.279572
-0.269493
-0.259223
-0.24895
-0.238826
-0.228961
-0.219428
-0.210257
-0.201463
-0.19311
-0.349453
-0.343852
-0.338668
-0.333343
-0.327794
-0.322113
-0.316242
-0.310046
-0.303372
-0.296104
-0.288197
-0.279688
-0.270691
-0.261364
-0.251879
-0.242395
-0.23304
-0.223907
-0.215056
-0.206492
-0.198369
-0.341007
-0.336125
-0.331471
-0.326618
-0.321552
-0.316398
-0.311144
-0.305693
-0.29991
-0.29366
-0.286849
-0.279451
-0.271511
-0.263137
-0.25447
-0.245661
-0.236848
-0.228142
-0.21963
-0.211308
-0.203418
-0.333164
-0.328959
-0.324816
-0.320421
-0.315808
-0.311124
-0.306397
-0.30157
-0.296532
-0.291154
-0.285313
-0.278935
-0.272005
-0.264572
-0.25674
-0.248636
-0.240399
-0.232147
-0.223998
-0.215934
-0.208279
-0.325935
-0.322359
-0.318704
-0.314749
-0.310565
-0.306311
-0.302044
-0.297742
-0.293327
-0.288682
-0.28368
-0.278215
-0.272223
-0.265701
-0.258702
-0.251325
-0.243693
-0.235928
-0.22817
-0.220386
-0.212978
-0.319317
-0.316315
-0.31312
-0.309588
-0.305813
-0.301958
-0.298102
-0.294251
-0.290356
-0.286323
-0.282034
-0.277365
-0.272223
-0.266557
-0.260372
-0.253727
-0.246724
-0.239475
-0.232141
-0.224675
-0.217533
-0.313295
-0.310809
-0.308043
-0.304913
-0.301528
-0.298049
-0.294568
-0.291113
-0.287659
-0.284138
-0.280445
-0.276458
-0.272065
-0.26718
-0.261766
-0.25584
-0.249475
-0.242765
-0.23589
-0.228789
-0.221991
-0.307843
-0.305815
-0.303443
-0.300691
-0.297678
-0.294558
-0.291426
-0.288326
-0.285255
-0.282165
-0.278969
-0.275556
-0.271807
-0.267614
-0.262908
-0.257663
-0.251923
-0.245759
-0.239369
-0.232695
-0.226335
-0.302926
-0.301297
-0.299284
-0.296887
-0.294227
-0.291448
-0.288647
-0.285875
-0.283144
-0.280423
-0.277644
-0.27471
-0.271503
-0.267908
-0.263828
-0.259205
-0.254048
-0.248405
-0.242504
-0.236288
-0.23064
-0.298503
-0.297218
-0.29553
-0.293463
-0.291136
-0.288682
-0.286195