/*--------------------------------*- C++ -*----------------------------------*\
  =========                 |
  \\      /  F ield         | OpenFOAM: The Open Source CFD Toolbox
   \\    /   O peration     | Website:  https://openfoam.org
    \\  /    A nd           | Version:  7
     \\/     M anipulation  |
\*---------------------------------------------------------------------------*/
FoamFile
{
    version     2.0;
    format      ascii;
    class       volScalarField;
    location    "65";
    object      p;
}
// * * * * * * * * * * * * * * * * * * * * * * * * * * * * * * * * * * * * * //

dimensions      [0 2 -2 0 0 0 0];

internalField   nonuniform List<scalar> 
8820
(
-0.411163
-0.413779
-0.415144
-0.415946
-0.41649
-0.416838
-0.417035
-0.417097
-0.417004
-0.416709
-0.416153
-0.415277
-0.414039
-0.412425
-0.410465
-0.408232
-0.405845
-0.40349
-0.40124
-0.398517
-0.395658
-0.416738
-0.419588
-0.421158
-0.422197
-0.423033
-0.423723
-0.424307
-0.42479
-0.425133
-0.425267
-0.425097
-0.424517
-0.423421
-0.421724
-0.419372
-0.416365
-0.412774
-0.408782
-0.404418
-0.399042
-0.393805
-0.422955
-0.425957
-0.427698
-0.428965
-0.430098
-0.431151
-0.432155
-0.433103
-0.433943
-0.434579
-0.434882
-0.434696
-0.433847
-0.432165
-0.429503
-0.425762
-0.420948
-0.415221
-0.408566
-0.400325
-0.392427
-0.429803
-0.432861
-0.434731
-0.436211
-0.43764
-0.439067
-0.440515
-0.441966
-0.443353
-0.444557
-0.445416
-0.445723
-0.445234
-0.443689
-0.440831
-0.436446
-0.430448
-0.422947
-0.413874
-0.402575
-0.391723
-0.437231
-0.440245
-0.442198
-0.443867
-0.44558
-0.447381
-0.449284
-0.451259
-0.453225
-0.455045
-0.456523
-0.457404
-0.457377
-0.456088
-0.453167
-0.448268
-0.441185
-0.43194
-0.420403
-0.405944
-0.391874
-0.445156
-0.448026
-0.450008
-0.451835
-0.453811
-0.455969
-0.458317
-0.460816
-0.463369
-0.46582
-0.467946
-0.469447
-0.46995
-0.469011
-0.466145
-0.460872
-0.452844
-0.441959
-0.428022
-0.410451
-0.392945
-0.453463
-0.456094
-0.458051
-0.459993
-0.462194
-0.464679
-0.467439
-0.470434
-0.473547
-0.476606
-0.479363
-0.48148
-0.482524
-0.481972
-0.479236
-0.473705
-0.464876
-0.452496
-0.436326
-0.415867
-0.39475
-0.462015
-0.464323
-0.466198
-0.468205
-0.47058
-0.47334
-0.476468
-0.479893
-0.483502
-0.487104
-0.490424
-0.49309
-0.494618
-0.494418
-0.491809
-0.486067
-0.476539
-0.462802
-0.444599
-0.421566
-0.396506
-0.470658
-0.472574
-0.474312
-0.476328
-0.478813
-0.481777
-0.485187
-0.488965
-0.492977
-0.497015
-0.500783
-0.503875
-0.505763
-0.505801
-0.50323
-0.497235
-0.487027
-0.47202
-0.45196
-0.426555
-0.39619
-0.479238
-0.480712
-0.482261
-0.484224
-0.486747
-0.489829
-0.493427
-0.497448
-0.501741
-0.506077
-0.510138
-0.513488
-0.51556
-0.515656
-0.512961
-0.506587
-0.495644
-0.479427
-0.457717
-0.430193
-0.392006
-0.487607
-0.488611
-0.489924
-0.491771
-0.49425
-0.497356
-0.501033
-0.505173
-0.509605
-0.514082
-0.51826
-0.521677
-0.523723
-0.523662
-0.520633
-0.513698
-0.501908
-0.484501
-0.461151
-0.431369
-0.393444
-0.495639
-0.496161
-0.497202
-0.49887
-0.501222
-0.504251
-0.50789
-0.512016
-0.51644
-0.520892
-0.525
-0.528296
-0.530098
-0.529658
-0.526071
-0.518364
-0.505571
-0.486909
-0.46197
-0.430471
-0.391266
-0.503228
-0.503288
-0.504024
-0.505452
-0.507596
-0.510446
-0.51393
-0.517909
-0.522178
-0.526447
-0.53032
-0.533277
-0.534643
-0.533614
-0.52926
-0.520587
-0.506637
-0.486635
-0.460138
-0.427229
-0.38636
-0.510313
-0.509937
-0.510349
-0.511484
-0.513341
-0.515916
-0.519131
-0.522838
-0.526814
-0.530749
-0.53422
-0.536677
-0.53742
-0.535613
-0.530306
-0.520503
-0.505269
-0.483878
-0.455892
-0.421782
-0.379459
-0.516864
-0.516092
-0.516169
-0.516964
-0.518465
-0.520676
-0.523519
-0.526839
-0.530398
-0.533864
-0.536791
-0.538597
-0.538556
-0.535807
-0.529389
-0.518323
-0.501722
-0.47895
-0.449618
-0.414554
-0.371324
-0.522891
-0.521772
-0.521508
-0.521926
-0.523012
-0.524782
-0.527163
-0.529995
-0.533028
-0.535911
-0.538169
-0.539191
-0.538224
-0.534388
-0.526726
-0.514295
-0.496291
-0.472204
-0.441755
-0.40606
-0.362617
-0.52844
-0.527023
-0.526418
-0.526432
-0.527055
-0.52832
-0.530165
-0.532425
-0.534841
-0.53704
-0.538521
-0.538641
-0.536619
-0.531567
-0.522547
-0.508678
-0.489277
-0.46399
-0.432727
-0.396801
-0.353848
-0.533589
-0.53192
-0.530979
-0.530568
-0.530693
-0.531406
-0.532655
-0.534277
-0.536
-0.53743
-0.538035
-0.537141
-0.533946
-0.527559
-0.517081
-0.501725
-0.480962
-0.454617
-0.422872
-0.387133
-0.345278
-0.538447
-0.536559
-0.535287
-0.53444
-0.534043
-0.534171
-0.534781
-0.535712
-0.536679
-0.537263
-0.5369
-0.534886
-0.530401
-0.522569
-0.510555
-0.493688
-0.471615
-0.44433
-0.412359
-0.377035
-0.336666
-0.543139
-0.541052
-0.539451
-0.538162
-0.537233
-0.536754
-0.536697
-0.536897
-0.537052
-0.536717
-0.535294
-0.532052
-0.526166
-0.516796
-0.503198
-0.48484
-0.46154
-0.43342
-0.401283
-0.366042
-0.327211
-0.547803
-0.545519
-0.543589
-0.541855
-0.540384
-0.539294
-0.538551
-0.537987
-0.537279
-0.535949
-0.533369
-0.528788
-0.521398
-0.510423
-0.49524
-0.475478
-0.451119
-0.42237
-0.390083
-0.354217
-0.316642
-0.55258
-0.550082
-0.547817
-0.545639
-0.543633
-0.541923
-0.54048
-0.539119
-0.53749
-0.535084
-0.531244
-0.525216
-0.516234
-0.503622
-0.486907
-0.465898
-0.440732
-0.411727
-0.379675
-0.343883
-0.307565
-0.557605
-0.554857
-0.552245
-0.549623
-0.547084
-0.544754
-0.542596
-0.5404
-0.537786
-0.534211
-0.529001
-0.521425
-0.510789
-0.49655
-0.478409
-0.456357
-0.430676
-0.40179
-0.370438
-0.33641
-0.302496
-0.562998
-0.559948
-0.55697
-0.553901
-0.550831
-0.547877
-0.544981
-0.541903
-0.538227
-0.53338
-0.526692
-0.51748
-0.505159
-0.489347
-0.469927
-0.447059
-0.421144
-0.392675
-0.362383
-0.330219
-0.298308
-0.568857
-0.565442
-0.562075
-0.558553
-0.554946
-0.551355
-0.547689
-0.543668
-0.538837
-0.532608
-0.524337
-0.513423
-0.499422
-0.482128
-0.461601
-0.438141
-0.412225
-0.384381
-0.355291
-0.324998
-0.295342
-0.575258
-0.571407
-0.567621
-0.563635
-0.55948
-0.555228
-0.550744
-0.5457
-0.539608
-0.531883
-0.521936
-0.509282
-0.493642
-0.474986
-0.45353
-0.429674
-0.403932
-0.376824
-0.348952
-0.320407
-0.292668
-0.58225
-0.577889
-0.573652
-0.569184
-0.564461
-0.559509
-0.55414
-0.547975
-0.540506
-0.531173
-0.519474
-0.505073
-0.487863
-0.467981
-0.445765
-0.421675
-0.396219
-0.369881
-0.34317
-0.316187
-0.290166
-0.589856
-0.584914
-0.580194
-0.575222
-0.569896
-0.564189
-0.557848
-0.550449
-0.541477
-0.530429
-0.516926
-0.500797
-0.482111
-0.461145
-0.438319
-0.414115
-0.389008
-0.363422
-0.33777
-0.312156
-0.287559
-0.598073
-0.592488
-0.587253
-0.581748
-0.575775
-0.569238
-0.561819
-0.553053
-0.542448
-0.529592
-0.514256
-0.496447
-0.476391
-0.454478
-0.431171
-0.406936
-0.382198
-0.357313
-0.332602
-0.308165
-0.28477
-0.606879
-0.600597
-0.594817
-0.588745
-0.582066
-0.574606
-0.565979
-0.555703
-0.543336
-0.528595
-0.511422
-0.492
-0.470692
-0.447957
-0.424269
-0.400057
-0.375681
-0.351428
-0.327539
-0.304107
-0.281704
-0.616227
-0.609206
-0.602857
-0.596179
-0.588719
-0.580219
-0.570236
-0.558295
-0.544046
-0.527363
-0.508376
-0.487426
-0.464981
-0.441536
-0.417546
-0.393386
-0.369348
-0.345653
-0.322473
-0.299893
-0.278318
-0.626047
-0.618262
-0.611321
-0.60399
-0.595658
-0.58598
-0.574477
-0.560715
-0.544477
-0.525821
-0.505062
-0.482681
-0.459211
-0.435154
-0.410921
-0.386825
-0.363092
-0.339883
-0.317312
-0.295455
-0.274571
-0.636247
-0.627685
-0.620134
-0.612094
-0.60278
-0.591767
-0.578567
-0.562833
-0.544519
-0.523885
-0.501421
-0.477711
-0.453324
-0.428736
-0.404304
-0.380275
-0.356812
-0.334023
-0.311976
-0.290737
-0.270434
-0.646711
-0.637374
-0.629195
-0.620378
-0.609954
-0.597432
-0.582354
-0.564511
-0.544061
-0.521473
-0.497385
-0.472454
-0.44725
-0.422201
-0.397603
-0.373639
-0.350414
-0.327989
-0.306397
-0.285689
-0.265883
-0.657293
-0.647199
-0.638373
-0.6287
-0.617018
-0.602801
-0.585672
-0.565606
-0.542992
-0.518499
-0.492884
-0.46684
-0.440909
-0.415462
-0.390726
-0.366822
-0.343809
-0.321705
-0.300514
-0.280269
-0.260898
-0.667822
-0.657001
-0.647508
-0.636884
-0.623784
-0.607684
-0.588343
-0.565971
-0.541198
-0.514874
-0.48784
-0.460792
-0.43422
-0.40843
-0.38358
-0.359738
-0.336916
-0.3151
-0.294272
-0.274439
-0.255461
-0.678098
-0.666593
-0.65641
-0.644728
-0.630039
-0.611872
-0.590187
-0.56546
-0.538569
-0.51051
-0.482174
-0.454227
-0.427097
-0.401015
-0.376078
-0.352302
-0.329662
-0.308114
-0.287622
-0.268167
-0.249556
-0.687898
-0.675762
-0.664858
-0.652
-0.635549
-0.615149
-0.591019
-0.563933
-0.534994
-0.505317
-0.475803
-0.447064
-0.419454
-0.393132
-0.368135
-0.344436
-0.321976
-0.300688
-0.28052
-0.26142
-0.243168
-0.696973
-0.684269
-0.672608
-0.658448
-0.640068
-0.617295
-0.590663
-0.561251
-0.53037
-0.499207
-0.468642
-0.439217
-0.411206
-0.384696
-0.359673
-0.336069
-0.313797
-0.292771
-0.272925
-0.254171
-0.236282
-0.705056
-0.691852
-0.679395
-0.663805
-0.643343
-0.618094
-0.588947
-0.557287
-0.524594
-0.492091
-0.460608
-0.430604
-0.40227
-0.375629
-0.350617
-0.327133
-0.305068
-0.284315
-0.264797
-0.246392
-0.228883
-0.711867
-0.698238
-0.68494
-0.667796
-0.645125
-0.617339
-0.585712
-0.551919
-0.51757
-0.483884
-0.451619
-0.421144
-0.392569
-0.365856
-0.3409
-0.31757
-0.295735
-0.275276
-0.256103
-0.238058
-0.220959
-0.717118
-0.70314
-0.688957
-0.670146
-0.645172
-0.614835
-0.580813
-0.545039
-0.509208
-0.474506
-0.441599
-0.410763
-0.382031
-0.355311
-0.33046
-0.307324
-0.285753
-0.265617
-0.246812
-0.229151
-0.2125
-0.72052
-0.706271
-0.691159
-0.670588
-0.643256
-0.610407
-0.574119
-0.536546
-0.499426
-0.463881
-0.430475
-0.399391
-0.37059
-0.343933
-0.319244
-0.296347
-0.275077
-0.255295
-0.236892
-0.219654
-0.203498
-0.72179
-0.707347
-0.69127
-0.668871
-0.639171
-0.6039
-0.565517
-0.526354
-0.488152
-0.451942
-0.418184
-0.386968
-0.358191
-0.331671
-0.307204
-0.284596
-0.263666
-0.24427
-0.226299
-0.209527
-0.193904
-0.720657
-0.706097
-0.689028
-0.664764
-0.632736
-0.595182
-0.554914
-0.514392
-0.475322
-0.438632
-0.404671
-0.373443
-0.344787
-0.318484
-0.294306
-0.272039
-0.251491
-0.232511
-0.214991
-0.198685
-0.183563
-0.716872
-0.70227
-0.684196
-0.658065
-0.623799
-0.584147
-0.542234
-0.500601
-0.460887
-0.423904
-0.389891
-0.358774
-0.330342
-0.304341
-0.280523
-0.258658
-0.238542
-0.22002
-0.202972
-0.18707
-0.172218
-0.710211
-0.695639
-0.676563
-0.648605
-0.612237
-0.570714
-0.527423
-0.484939
-0.44481
-0.407722
-0.373812
-0.342934
-0.31483
-0.28922
-0.265839
-0.244443
-0.224818
-0.206815
-0.190294
-0.174788
-0.159934
-0.700479
-0.686008
-0.665957
-0.63625
-0.597962
-0.554828
-0.510446
-0.467381
-0.427067
-0.390065
-0.356414
-0.325903
-0.298236
-0.273111
-0.250248
-0.22939
-0.21032
-0.192899
-0.176925
-0.161808
-0.147787
-0.68752
-0.67322
-0.65224
-0.620902
-0.580918
-0.536464
-0.49129
-0.447918
-0.407651
-0.370925
-0.337688
-0.307675
-0.280558
-0.256014
-0.233753
-0.213511
-0.195066
-0.178274
-0.162877
-0.148296
-0.135239
-0.671217
-0.657156
-0.635318
-0.602505
-0.561083
-0.515619
-0.469965
-0.426559
-0.386568
-0.350306
-0.317641
-0.288258
-0.261806
-0.237943
-0.216367
-0.196812
-0.179059
-0.162953
-0.148196
-0.134245
-0.122108
-0.651493
-0.637738
-0.615137
-0.581039
-0.538466
-0.49232
-0.446498
-0.403332
-0.363842
-0.328232
-0.296294
-0.267678
-0.241999
-0.218913
-0.198109
-0.179315
-0.162318
-0.146955
-0.132899
-0.119621
-0.108373
-0.628316
-0.614935
-0.591688
-0.556523
-0.513109
-0.466617
-0.420942
-0.37828
-0.33951
-0.304744
-0.273686
-0.24596
-0.221169
-0.198957
-0.179009
-0.161051
-0.144871
-0.130308
-0.117
-0.104424
-0.0940691
-0.601699
-0.588757
-0.565002
-0.529015
-0.485086
-0.438591
-0.393366
-0.351469
-0.313642
-0.279883
-0.249858
-0.223152
-0.19936
-0.178118
-0.159108
-0.142056
-0.126757
-0.113044
-0.100525
-0.0886779
-0.0792354
-0.571698
-0.559258
-0.53515
-0.49861
-0.454509
-0.408338
-0.363856
-0.322979
-0.286298
-0.253722
-0.224873
-0.199313
-0.176627
-0.156448
-0.138456
-0.12238
-0.108018
-0.0952042
-0.0835086
-0.0724184
-0.0639169
-0.53841
-0.52653
-0.502246
-0.465453
-0.421508
-0.37596
-0.332519
-0.292904
-0.257568
-0.22634
-0.198807
-0.174513
-0.153037
-0.134011
-0.117115
-0.102078
-0.0887083
-0.0768362
-0.0659963
-0.0556896
-0.048153
-0.50196
-0.490717
-0.466456
-0.429711
-0.386183
-0.341591
-0.299487
-0.261359
-0.227555
-0.197833
-0.171748
-0.148835
-0.128668
-0.11088
-0.095153
-0.0812187
-0.068892
-0.0580009
-0.0480464
-0.0385434
-0.0319669
-0.462512
-0.452019
-0.428009
-0.39146
-0.348656
-0.30543
-0.264904
-0.228476
-0.196377
-0.168306
-0.143795
-0.12237
-0.103607
-0.0871391
-0.0726504
-0.0598777
-0.0486439
-0.0387738
-0.0297342
-0.0210442
-0.0153865
-0.420259
-0.410677
-0.387097
-0.350713
-0.309287
-0.267646
-0.228935
-0.1944
-0.164166
-0.137881
-0.115058
-0.0952213
-0.0779488
-0.0628771
-0.0496925
-0.0381383
-0.0280462
-0.0192364
-0.0111388
-0.00326843
0.00147888
-0.375402
-0.366926
-0.343496
-0.308298
-0.268251
-0.228435
-0.191756
-0.159288
-0.131062
-0.106684
-0.0856553
-0.0674992
-0.0517975
-0.0381911
-0.0263709
-0.0160873
-0.0071791
0.000544001
0.00768646
0.0147071
0.018411
-0.328178
-0.320919
-0.298097
-0.26414
-0.225765
-0.188007
-0.153551
-0.123306
-0.0972162
-0.0748548
-0.0557145
-0.0393215
-0.0252631
-0.0131853
-0.00278459
0.00618193
0.0138769
0.020513
0.0267068
0.0328118
0.0353083
-0.279116
-0.27293
-0.25104
-0.218499
-0.182062
-0.146578
-0.114515
-0.0866286
-0.0627881
-0.0425383
-0.0253692
-0.0108121
0.0015383
0.0120294
0.0209579
0.0285626
0.0350209
0.0405782
0.0458178
0.0509403
0.052482
-0.228499
-0.223274
-0.202561
-0.171663
-0.137394
-0.104374
-0.0748512
-0.04944
-0.0279433
-0.00988574
0.00524221
0.0179011
0.0284874
0.0373391
0.0447434
0.0509369
0.05612
0.0605622
0.0647616
0.0688452
0.0700923
-0.176539
-0.172357
-0.152968
-0.123925
-0.0920232
-0.0616293
-0.0347703
-0.0119295
0.00714637
0.022947
0.0359776
0.0466885
0.0554648
0.0626327
0.0684669
0.0732001
0.0770498
0.0802718
0.0832055
0.0860183
0.0869031
-0.123586
-0.120531
-0.102592
-0.0755884
-0.046223
-0.0185869
0.00551121
0.0257081
0.042305
0.0558004
0.0666923
0.0754188
0.0823521
0.0878044
0.0920371
0.0952779
0.0977477
0.0996371
0.100977
0.101733
0.102906
-0.0700076
-0.0681402
-0.0517674
-0.0269603
-0.000269463
0.0245068
0.0457725
0.0632743
0.0773534
0.0885125
0.0972396
0.10396
0.10903
0.112749
0.115366
0.117102
0.118164
0.11867
0.118548
0.117967
0.118387
-0.0161746
-0.015538
-0.000835281
0.0216479
0.0455585
0.0674028
0.0857906
0.100568
0.11211
0.120919
0.127472
0.132178
0.13538
0.137362
0.13836
0.138586
0.138219
0.137326
0.135845
0.134129
0.133563
0.0375417
0.036918
0.0498648
0.0699253
0.0909817
0.109851
0.125342
0.137389
0.146393
0.152856
0.15724
0.159939
0.161281
0.161536
0.160928
0.159655
0.157873
0.155622
0.152875
0.150074
0.148459
0.0907697
0.0888689
0.0999942
0.117563
0.135723
0.151605
0.164202
0.173534
0.180021
0.184158
0.186395
0.187109
0.186614
0.185163
0.18297
0.18022
0.177048
0.173482
0.169525
0.165668
0.16301
0.143141
0.139958
0.149218
0.164256
0.179508
0.192417
0.202152
0.208805
0.212812
0.214663
0.214789
0.213554
0.211256
0.208134
0.204391
0.200197
0.195672
0.190837
0.185719
0.180828
0.177132
0.194292
0.189836
0.197209
0.209705
0.22207
0.232047
0.238974
0.243005
0.24459
0.244208
0.242276
0.239142
0.235087
0.230341
0.225091
0.219495
0.213662
0.207607
0.201374
0.195476
0.190753
0.24387
0.238158
0.243646
0.253621
0.263146
0.270261
0.274456
0.275943
0.275181
0.272636
0.268712
0.263741
0.25799
0.251675
0.244971
0.238026
0.230935
0.223712
0.216413
0.209538
0.203805
0.29153
0.284594
0.288221
0.295723
0.302486
0.306831
0.308394
0.307434
0.304415
0.299794
0.293959
0.287226
0.279849
0.272031
0.263936
0.2557
0.24741
0.239074
0.23076
0.222943
0.216226
0.336944
0.328826
0.330638
0.335743
0.339847
0.341542
0.340591
0.337299
0.332132
0.325535
0.317882
0.309474
0.300551
0.291306
0.281892
0.272432
0.263005
0.25362
0.244347
0.235627
0.227959
0.379797
0.370551
0.370617
0.373427
0.375002
0.374186
0.370861
0.365369
0.358177
0.349718
0.340352
0.330367
0.319991
0.309404
0.298748
0.288139
0.277646
0.267277
0.257104
0.247527
0.238951
0.419795
0.409485
0.407893
0.408535
0.407734
0.404568
0.399026
0.391483
0.382403
0.37221
0.36125
0.349796
0.338067
0.326231
0.314421
0.302743
0.291258
0.279978
0.26897
0.258588
0.249152
0.456662
0.445363
0.442221
0.440846
0.437844
0.432509
0.424925
0.415492
0.404677
0.392888
0.380461
0.367658
0.354684
0.3417
0.328831
0.316171
0.303777
0.29166
0.279885
0.268757
0.25852
0.490146
0.477943
0.473377
0.470155
0.465148
0.457842
0.448405
0.43726
0.424871
0.411638
0.397882
0.383856
0.369756
0.355733
0.341904
0.328355
0.315138
0.302266
0.289797
0.277986
0.267014
0.520018
0.507004
0.501157
0.496278
0.489479
0.480416
0.46933
0.456663
0.442874
0.428356
0.413418
0.398306
0.383204
0.368257
0.353574
0.339235
0.325286
0.311743
0.298658
0.286234
0.274598
0.546074
0.532352
0.52538
0.519053
0.510691
0.5001
0.48758
0.47359
0.458586
0.44295
0.426987
0.410929
0.394958
0.379208
0.363782
0.348756
0.334171
0.320045
0.306423
0.293461
0.281243
0.568139
0.553817
0.54589
0.538336
0.528655
0.516776
0.503049
0.487945
0.471917
0.455342
0.438514
0.421661
0.404955
0.388529
0.372477
0.356871
0.34175
0.327133
0.313056
0.299638
0.286921
0.586065
0.571256
0.562556
0.554011
0.543265
0.530348
0.515649
0.499648
0.482796
0.465463
0.447938
0.430443
0.413147
0.396173
0.379616
0.363541
0.347986
0.332971
0.318527
0.304735
0.291611
0.599733
0.584557
0.575273
0.56598
0.554435
0.540738
0.525309
0.508634
0.491163
0.47326
0.455211
0.437233
0.41949
0.402104
0.385165
0.368734
0.35285
0.337533
0.322809
0.308732
0.295295
0.609052
0.593634
0.583961
0.574173
0.562099
0.547887
0.531976
0.514856
0.496974
0.478694
0.460296
0.441995
0.423954
0.406292
0.389096
0.372426
0.35632
0.340799
0.325885
0.311614
0.297961
0.613967
0.59843
0.588569
0.578544
0.566216
0.551758
0.535616
0.518281
0.5002
0.481736
0.463167
0.444708
0.426519
0.408718
0.391393
0.374602
0.358382
0.342754
0.327742
0.313367
0.299598
0.614448
0.59892
0.589074
0.579069
0.566766
0.552332
0.536211
0.518894
0.500828
0.482375
0.463815
0.445361
0.427175
0.409375
0.392048
0.375253
0.359028
0.343393
0.328372
0.313988
0.300204
0.6105
0.595108
0.585478
0.575754
0.563753
0.549612
0.533765
0.516698
0.49886
0.480613
0.46224
0.443956
0.425923
0.408263
0.391062
0.374381
0.358259
0.342716
0.327778
0.313476
0.299777
0.602158
0.587027
0.577813
0.568625
0.557201
0.543622
0.528298
0.511712
0.494312
0.476465
0.458457
0.440505
0.422776
0.405393
0.388445
0.371996
0.356084
0.340731
0.325966
0.311839
0.298326
0.589488
0.57474
0.566138
0.557736
0.547158
0.534404
0.51985
0.503971
0.487218
0.469962
0.452493
0.435034
0.417756
0.400785
0.384216
0.368113
0.352518
0.337452
0.322951
0.309089
0.295858
0.572586
0.558341
0.550537
0.543165
0.533695
0.522022
0.508479
0.493529
0.477626
0.461146
0.444388
0.42758
0.410897
0.394472
0.378402
0.36276
0.347586
0.332902
0.31875
0.305242
0.292388
0.551581
0.537952
0.531125
0.525014
0.516904
0.50656
0.49426
0.480454
0.465598
0.450077
0.434195
0.41819
0.402243
0.386492
0.371042
0.355969
0.341318
0.327109
0.313392
0.300319
0.287932
0.526628
0.513723
0.50804
0.503408
0.496898
0.48812
0.477287
0.464831
0.451213
0.436823
0.421978
0.406923
0.391846
0.376895
0.362179
0.347782
0.333752
0.320108
0.306908
0.294351
0.282515
0.497911
0.48583
0.481445
0.478496
0.473811
0.466823
0.457669
0.446761
0.43456
0.42147
0.407814
0.393848
0.379772
0.365739
0.351867
0.338248
0.324933
0.31194
0.299337
0.287369
0.276163
0.465642
0.454477
0.451529
0.450448
0.447797
0.442809
0.435533
0.426358
0.415746
0.404111
0.391788
0.379046
0.366093
0.353091
0.340168
0.327423
0.314913
0.302655
0.290723
0.279413
0.268909
0.430058
0.419893
0.418502
0.419456
0.419028
0.416233
0.411021
0.403751
0.394887
0.384854
0.374
0.362606
0.35089
0.339025
0.32715
0.31537
0.303749
0.292304
0.281115
0.270527
0.260789
0.391421
0.382328
0.382599
0.38573
0.387694
0.387267
0.384288
0.379082
0.372113
0.363817
0.354557
0.344625
0.334253
0.323625
0.312887
0.302158
0.291507
0.280949
0.270569
0.260759
0.251844
0.350014
0.342056
0.344072
0.349499
0.354002
0.356098
0.355503
0.352504
0.347563
0.341127
0.333574
0.32521
0.31628
0.306978
0.297463
0.287862
0.278254
0.268654
0.259145
0.250164
0.242121
0.306142
0.299371
0.303193
0.311012
0.318175
0.322926
0.324848
0.324182
0.321387
0.316921
0.311176
0.304475
0.297074
0.289181
0.280965
0.272564
0.264066
0.255487
0.246908
0.238801
0.23167
0.260126
0.254583
0.260251
0.270529
0.280447
0.287963
0.292515
0.294291
0.293744
0.291343
0.287495
0.282539
0.276744
0.270333
0.263484
0.256347
0.249021
0.241524
0.233928
0.226733
0.220547
0.212306
0.208019
0.215551
0.228327
0.241067
0.251434
0.258706
0.263014
0.2648
0.264543
0.262669
0.259527
0.255406
0.250538
0.245116
0.2393
0.233202
0.226841
0.220279
0.21403
0.208812
0.163033
0.16002
0.16941
0.184694
0.200294
0.21357
0.223631
0.23054
0.234727
0.23668
0.236839
0.23557
0.233177
0.229905
0.225959
0.221514
0.216692
0.211518
0.206039
0.200767
0.196533
0.112671
0.110936
0.122156
0.139927
0.158396
0.174612
0.187506
0.197065
0.203703
0.207914
0.210151
0.2108
0.210177
0.208543
0.206114
0.203079
0.199576
0.195638
0.191288
0.187023
0.183785
0.0615907
0.0611269
0.0741254
0.0943324
0.115647
0.134807
0.150554
0.162791
0.171909
0.178408
0.182755
0.185351
0.186529
0.186562
0.185681
0.184088
0.18194
0.179283
0.176115
0.172887
0.17065
0.0101696
0.0109576
0.0256611
0.0482234
0.0723277
0.0944057
0.113
0.12792
0.139529
0.148329
0.154801
0.159359
0.162353
0.164071
0.164756
0.164623
0.163853
0.162517
0.160591
0.158443
0.157226
-0.0412129
-0.0392059
-0.0228902
0.00191601
0.0287221
0.053662
0.0750711
0.0926573
0.106748
0.117844
0.126438
0.132959
0.137772
0.14118
0.143439
0.144775
0.145397
0.145427
0.144842
0.143853
0.143623
-0.0921769
-0.0889989
-0.0711808
-0.0442715
-0.0148844
0.0128308
0.0369964
0.0572078
0.0737499
0.087119
0.0978162
0.106285
0.112904
0.117991
0.121816
0.124611
0.1266
0.127972
0.128802
0.129163
0.129832
-0.142343
-0.138063
-0.118864
-0.0900216
-0.0582074
-0.0278339
-0.000997224
0.0217755
0.0407191
0.0563197
0.0690852
0.0794711
0.0878685
0.0946101
0.0999785
0.104216
0.107547
0.110231
0.112631
0.115026
0.115859
-0.191332
-0.186048
-0.165594
-0.13502
-0.100965
-0.068081
-0.0386854
-0.0134382
0.00783656
0.0256093
0.0403914
0.0526482
0.0627819
0.0711376
0.0780106
0.0836483
0.0882634
0.0921328
0.0957607
0.099344
0.100421
-0.238807
-0.232576
-0.211038
-0.178963
-0.142882
-0.107664
-0.0758479
-0.048236
-0.0247201
-0.00485202
0.0118793
0.0259465
0.0377607
0.0476755
0.0559954
0.0629692
0.0687862
0.0736969
0.0782755
0.0827527
0.0838817
-0.2847
-0.277159
-0.2549
-0.221558
-0.183688
-0.146342
-0.112271
-0.0824257
-0.0567777
-0.0349076
-0.016309
-0.000504908
0.0129221
0.0243317
0.0340338
0.0422791
0.0492395
0.0551296
0.0605499
0.0658696
0.0677758
-0.328378
-0.319645
-0.296981
-0.262527
-0.223126
-0.183886
-0.147748
-0.115822
-0.0881688
-0.0644054
-0.044035
-0.0265789
-0.0116153
0.00121938
0.0122393
0.0216999
0.0297693
0.0366384
0.0428943
0.0490077
0.0519849
-0.369515
-0.359798
-0.336812
-0.301659
-0.260955
-0.220072
-0.182081
-0.148248
-0.118733
-0.0931995
-0.0711647
-0.0521515
-0.0357355
-0.0215499
-0.0092776
0.00134257
0.0104847
0.0183288
0.0254281
0.0322762
0.0361696
-0.407888
-0.397333
-0.374042
-0.338691
-0.296951
-0.254692
-0.215082
-0.179535
-0.148319
-0.121151
-0.0975709
-0.0771048
-0.0593279
-0.0438717
-0.030417
-0.0186978
-0.00853224
0.000255683
0.00818317
0.0157368
0.0204152
-0.443284
-0.432009
-0.408598
-0.373127
-0.330973
-0.287548
-0.246576
-0.209526
-0.176783
-0.148131
-0.123134
-0.101328
-0.0822894
-0.0656491
-0.0510871
-0.0383342
-0.0272009
-0.017514
-0.00878848
-0.000535949
0.00493767
-0.475513
-0.46361
-0.440289
-0.404964
-0.362573
-0.31851
-0.276401
-0.238075
-0.203996
-0.17402
-0.147745
-0.12472
-0.104525
-0.0867919
-0.0712021
-0.0574832
-0.0454388
-0.0348978
-0.025407
-0.0164653
-0.0101532
-0.504426
-0.491956
-0.468917
-0.434052
-0.391735
-0.34729
-0.304414
-0.265051
-0.229838
-0.19871
-0.171305
-0.147187
-0.125946
-0.107218
-0.0906831
-0.0760684
-0.0631705
-0.0518202
-0.0415973
-0.0319883
-0.0248326
-0.5299
-0.516921
-0.49433
-0.460214
-0.418327
-0.373818
-0.330465
-0.290335
-0.254206
-0.222105
-0.193725
-0.168648
-0.146477
-0.126854
-0.109461
-0.0940236
-0.0803334
-0.0682222
-0.057304
-0.0470578
-0.0390835
-0.551853
-0.538427
-0.51643
-0.48332
-0.442207
-0.397987
-0.354462
-0.313834
-0.277014
-0.244124
-0.214934
-0.189032
-0.166052
-0.145637
-0.127476
-0.111293
-0.0968766
-0.0840591
-0.0724877
-0.061637
-0.0528744
-0.570248
-0.556439
-0.535159
-0.503289
-0.463276
-0.419696
-0.376323
-0.335471
-0.298192
-0.264715
-0.234858
-0.20828
-0.184616
-0.163516
-0.144679
-0.127832
-0.112759
-0.0992951
-0.0871193
-0.0756985
-0.0661697
-0.585095
-0.570968
-0.550506
-0.52008
-0.48147
-0.438873
-0.395976
-0.355184
-0.317681
-0.283813
-0.253469
-0.226353
-0.202123
-0.18045
-0.161033
-0.143604
-0.127948
-0.113902
-0.101179
-0.0892309
-0.0789407
-0.59645
-0.582072
-0.562505
-0.533692
-0.49676
-0.455473
-0.413376
-0.372928
-0.335443
-0.301383
-0.270724
-0.243218
-0.218552
-0.196411
-0.176508
-0.158581
-0.142419
-0.127855
-0.114655
-0.102246
-0.0911815
-0.604418
-0.589857
-0.571237
-0.544166
-0.509152
-0.46948
-0.428498
-0.388681
-0.351455
-0.317407
-0.286603
-0.258853
-0.233876
-0.21138
-0.19109
-0.172754
-0.156156
-0.14114
-0.127527
-0.114767
-0.102964
-0.609148
-0.594473
-0.576826
-0.551586
-0.518686
-0.480907
-0.441341
-0.402436
-0.365715
-0.331882
-0.301101
-0.273251
-0.248088
-0.225346
-0.204765
-0.186106
-0.169156
-0.15376
-0.139765
-0.126731
-0.114567
-0.610829
-0.596113
-0.579443
-0.556077
-0.525442
-0.489796
-0.451926
-0.414207
-0.378229
-0.344815
-0.314228
-0.286419
-0.261194
-0.238312
-0.217534
-0.198635
-0.181411
-0.165707
-0.151392
-0.138147
-0.125953
-0.609688
-0.595007
-0.579297
-0.557807
-0.529534
-0.496219
-0.460298
-0.424023
-0.389026
-0.356228
-0.326002
-0.298375
-0.273206
-0.250289
-0.229406
-0.210347
-0.192921
-0.176976
-0.162394
-0.148911
-0.136501
-0.605984
-0.591418
-0.576636
-0.556981
-0.531112
-0.500276
-0.466523
-0.431934
-0.398142
-0.366159
-0.336456
-0.309147
-0.284151
-0.261299
-0.240397
-0.221254
-0.203691
-0.187561
-0.172744
-0.159002
-0.14627
-0.600001
-0.585632
-0.571736
-0.553839
-0.530362
-0.502098
-0.47069
-0.438003
-0.405632
-0.374651
-0.345632
-0.318775
-0.294064
-0.271372
-0.250535
-0.23138
-0.213741
-0.197475
-0.182468
-0.168498
-0.155457
-0.592043
-0.577956
-0.564893
-0.548648
-0.5275
-0.501843
-0.472912
-0.442313
-0.411559
-0.381763
-0.353582
-0.327305
-0.302986
-0.280547
-0.259854
-0.240756
-0.223103
-0.206757
-0.191613
-0.177474
-0.164178
-0.582423
-0.568702
-0.556422
-0.541699
-0.522769
-0.499695
-0.47332
-0.444958
-0.415998
-0.387557
-0.360364
-0.334793
-0.310969
-0.28887
-0.268397
-0.249425
-0.231817
-0.215448
-0.200221
-0.185969
-0.172482
-0.571456
-0.558187
-0.546638
-0.533295
-0.516433
-0.495864
-0.472066
-0.44605
-0.419034
-0.392106
-0.366043
-0.341297
-0.318069
-0.296394
-0.276215
-0.257431
-0.239928
-0.223591
-0.20833
-0.194014
-0.180397
-0.559455
-0.546718
-0.535856
-0.523745
-0.508773
-0.490577
-0.469322
-0.44571
-0.42076
-0.395485
-0.370686
-0.346882
-0.324347
-0.303177
-0.283359
-0.264825
-0.247481
-0.231226
-0.215979
-0.201641
-0.187951
-0.546719
-0.53459
-0.524378
-0.513354
-0.500074
-0.484076
-0.465275
-0.444077
-0.421274
-0.397772
-0.374362
-0.351612
-0.329864
-0.309276
-0.289885
-0.271657
-0.254523
-0.238398
-0.223208
-0.208884
-0.195171
-0.533527
-0.522075
-0.512484
-0.502414
-0.490621
-0.476615
-0.460126
-0.441298
-0.420685
-0.39905
-0.37714
-0.35555
-0.334681
-0.314751
-0.29585
-0.277982
-0.261105
-0.245153
-0.23006
-0.215781
-0.202087
-0.520136
-0.509418
-0.500428
-0.491195
-0.480688
-0.468448
-0.454086
-0.43753
-0.419104
-0.399399
-0.379085
-0.358757
-0.338856
-0.31966
-0.301311
-0.283855
-0.267279
-0.251539
-0.236579
-0.222373
-0.208734
-0.506772
-0.496835
-0.488434
-0.479937
-0.47053
-0.459821
-0.44737
-0.432942
-0.416651
-0.398904
-0.380261
-0.361285
-0.342443
-0.324058
-0.306323
-0.28933
-0.273098
-0.257607
-0.242814
-0.228703
-0.215148
-0.493632
-0.484508
-0.47669
-0.468849
-0.460376
-0.450968
-0.44019
-0.427705
-0.413449
-0.397647
-0.380725
-0.363184
-0.345486
-0.327991
-0.310937
-0.294459
-0.278614
-0.263407
-0.248812
-0.234816
-0.22137
-0.480877
-0.472586
-0.465349
-0.458103
-0.450421
-0.442101
-0.432753
-0.421994
-0.409628
-0.395714
-0.380531
-0.364489
-0.348021
-0.331498
-0.315196
-0.299292
-0.283879
-0.268992
-0.254624
-0.240762
-0.227444
-0.468636
-0.461184
-0.454529
-0.447833
-0.440825
-0.433403
-0.425247
-0.415977
-0.405319
-0.393192
-0.379731
-0.365233
-0.35007
-0.334605
-0.319134
-0.30387
-0.288941
-0.274412
-0.260304
-0.246591
-0.233415
-0.457003
-0.450386
-0.444312
-0.438135
-0.43171
-0.425023
-0.417838
-0.409816
-0.400653
-0.390171
-0.378374
-0.365435
-0.351644
-0.337324
-0.322773
-0.308226
-0.293842
-0.279718
-0.265903
-0.252358
-0.239334
-0.446045
-0.440247
-0.434751
-0.429072
-0.42316
-0.417073
-0.410662
-0.403655
-0.395759
-0.386744
-0.376511
-0.365114
-0.352741
-0.339651
-0.326117
-0.312379
-0.298618
-0.284957
-0.271478
-0.25812
-0.245254
-0.435801
-0.430799
-0.425874
-0.420674
-0.415222
-0.409628
-0.403824
-0.397616
-0.390756
-0.383004
-0.374195
-0.364285
-0.35335
-0.341565
-0.329152
-0.316331
-0.303292
-0.290169
-0.277081
-0.263939
-0.251237
-0.42629
-0.422054
-0.417687
-0.412949
-0.407914
-0.402729
-0.397394
-0.391794
-0.385748
-0.379042
-0.371488
-0.362966
-0.353456
-0.343035
-0.331846
-0.320067
-0.30787
-0.295387
-0.282767
-0.269883
-0.257345
-0.417518
-0.414013
-0.410182
-0.405885
-0.401231
-0.396389
-0.39141
-0.386259
-0.380825
-0.37495
-0.368456
-0.361188
-0.353049
-0.344018
-0.334149
-0.323546
-0.312339
-0.300631
-0.288588
-0.276025
-0.263678
-0.409487
-0.40667
-0.403346
-0.399462
-0.395154
-0.390598
-0.385889
-0.381054
-0.376058
-0.37081
-0.365173
-0.358993
-0.352129
-0.344478
-0.336001
-0.326707
-0.31666
-0.305901
-0.29459
-0.28246
-0.270314
-0.402197
-0.40002
-0.397166
-0.393659
-0.389658
-0.38534
-0.38083
-0.376206
-0.371504
-0.366701
-0.361723
-0.356445
-0.350719
-0.344391
-0.337337
-0.329472
-0.320766
-0.311174
-0.300811
-0.289283
-0.277486
-0.395659
-0.394064
-0.391632
-0.388462