/*--------------------------------*- C++ -*----------------------------------*\
  =========                 |
  \\      /  F ield         | OpenFOAM: The Open Source CFD Toolbox
   \\    /   O peration     | Website:  https://openfoam.org
    \\  /    A nd           | Version:  7
     \\/     M anipulation  |
\*---------------------------------------------------------------------------*/
FoamFile
{
    version     2.0;
    format      ascii;
    class       surfaceScalarField;
    location    "65";
    object      phi;
}
// * * * * * * * * * * * * * * * * * * * * * * * * * * * * * * * * * * * * * //

dimensions      [0 3 -1 0 0 0 0];

internalField   nonuniform List<scalar> 
17388
(
-6.95231e-06
6.95804e-06
-5.72171e-09
-2.41387e-05
-1.04774e-05
2.76638e-05
-4.94845e-05
-4.96522e-05
7.49979e-05
-8.15353e-05
-0.000102902
0.000134953
-0.000119188
-0.000164639
0.000202292
-0.000161497
-0.000231701
0.000274009
-0.000207509
-0.000303282
0.000349294
-0.000256153
-0.000380539
0.000429183
-0.000306157
-0.000465934
0.000515938
-0.000355996
-0.000562431
0.000612269
-0.000403834
-0.000672721
0.000720559
-0.000447479
-0.000798525
0.00084217
-0.00048435
-0.000940003
0.000976874
-0.000511496
-0.00109523
0.00112238
-0.000525727
-0.00125973
0.00127396
-0.000523889
-0.00142618
0.00142434
-0.00050331
-0.00158447
0.00156389
-0.000462289
-0.00172268
0.00168165
-0.000400543
-0.00182912
0.00176737
-0.000319594
-0.00189426
0.00181331
-0.00191203
0.00181285
-0.000220409
-7.47046e-06
1.44285e-05
-2.60278e-05
8.07994e-06
-5.3476e-05
-2.2204e-05
-8.82482e-05
-6.813e-05
-0.000129157
-0.00012373
-0.000175225
-0.000185633
-0.000225542
-0.000252965
-0.000279163
-0.000326918
-0.000335027
-0.00041007
-0.000391881
-0.000505576
-0.000448201
-0.000616401
-0.000502094
-0.000744633
-0.000551204
-0.000890892
-0.000592671
-0.00105376
-0.000623168
-0.00122923
-0.000639127
-0.00141022
-0.000637176
-0.00158643
-0.000614775
-0.00174508
-0.000570962
-0.00187293
-0.000506717
-0.0019585
-0.00199495
-0.000423799
-7.73272e-06
2.21612e-05
-2.70761e-05
2.74233e-05
-5.57954e-05
6.51529e-06
-9.2254e-05
-3.16714e-05
-0.000135196
-8.07878e-05
-0.000183616
-0.000137214
-0.000236644
-0.000199937
-0.000293458
-0.000270104
-0.000353207
-0.00035032
-0.000414929
-0.000443855
-0.00047744
-0.000553889
-0.000539213
-0.00068286
-0.000598231
-0.000831874
-0.000651871
-0.00100012
-0.000696859
-0.00118424
-0.000729393
-0.00137768
-0.000745524
-0.00157029
-0.000741884
-0.00174872
-0.0007167
-0.00189812
-0.000670432
-0.00200477
-0.00206016
-0.000605216
-7.71017e-06
2.98714e-05
-2.71867e-05
4.68999e-05
-5.62564e-05
3.5585e-05
-9.32586e-05
5.33085e-06
-0.000136888
-3.7158e-05
-0.000186108
-8.79941e-05
-0.00024007
-0.000145975
-0.000298053
-0.000212122
-0.000359388
-0.000288985
-0.000423377
-0.000379865
-0.00048918
-0.000488086
-0.000555663
-0.000616377
-0.000621232
-0.000766306
-0.00068365
-0.000937704
-0.000739912
-0.00112798
-0.000786227
-0.00133137
-0.000818277
-0.00153824
-0.000831923
-0.00173507
-0.000824422
-0.00190562
-0.000795349
-0.00203384
-0.00210917
-0.000746345
-7.39229e-06
3.72637e-05
-2.63221e-05
6.58297e-05
-5.47784e-05
6.40412e-05
-9.11322e-05
4.16847e-05
-0.000134043
5.75262e-06
-0.000182435
-3.9602e-05
-0.000235455
-9.2955e-05
-0.000292433
-0.000155144
-0.000352829
-0.000228589
-0.000416155
-0.000316539
-0.00048186
-0.000422381
-0.000549189
-0.000549049
-0.000616995
-0.0006985
-0.000683537
-0.000871161
-0.000746269
-0.00106525
-0.000801683
-0.00127596
-0.000845368
-0.00149456
-0.000872549
-0.00170789
-0.000879349
-0.00189882
-0.000863889
-0.0020493
-0.00214667
-0.000826382
-6.78932e-06
4.4053e-05
-2.4506e-05
8.35464e-05
-5.13983e-05
9.09335e-05
-8.59188e-05
7.62052e-05
-0.000126716
4.655e-05
-0.000172657
6.33911e-06
-0.000222851
-4.27611e-05
-0.000276623
-0.000101372
-0.000333483
-0.000171728
-0.000393064
-0.000256958
-0.000455018
-0.000360427
-0.000518887
-0.00048518
-0.000583934
-0.000633453
-0.000648933
-0.000806162
-0.000711919
-0.00100226
-0.000769913
-0.00121796
-0.000818735
-0.00144574
-0.000853245
-0.00167338
-0.000868395
-0.00188367
-0.000860373
-0.00205732
-0.00217992
-0.000827125
-5.93157e-06
4.99846e-05
-2.18235e-05
9.94384e-05
-4.6266e-05
0.000115376
-7.78422e-05
0.000107781
-0.000115204
8.3912e-05
-0.000157166
4.83008e-05
-0.000202743
2.81601e-06
-0.000251207
-5.29079e-05
-0.000302032
-0.000120903
-0.000354867
-0.000204124
-0.000409448
-0.000305846
-0.000465491
-0.000429136
-0.000522555
-0.00057639
-0.000579855
-0.000748861
-0.00063602
-0.0009461
-0.000688756
-0.00116523
-0.000734464
-0.00140003
-0.000768082
-0.00163976
-0.000783685
-0.00186806
-0.000775453
-0.00206555
-0.00221673
-0.000738644
-4.86691e-06
5.48515e-05
-1.84143e-05
0.000112986
-3.96347e-05
0.000136596
-6.72826e-05
0.000135429
-0.000100034
0.000116664
-0.000136638
8.49041e-05
-0.00017601
4.2188e-05
-0.000217286
-1.16316e-05
-0.000259838
-7.83508e-05
-0.000303229
-0.000160733
-0.000347154
-0.000261921
-0.000391359
-0.000384931
-0.000435537
-0.000532212
-0.000479192
-0.000705207
-0.000521439
-0.000903853
-0.000560696
-0.00112597
-0.000594234
-0.00136649
-0.000617684
-0.00161631
-0.00062502
-0.00186073
-0.000609128
-0.00208145
-0.00226363
-0.00056223
-3.65661e-06
5.85081e-05
-1.44613e-05
0.00012379
-3.18404e-05
0.000153975
-5.47499e-05
0.000158339
-8.191e-05
0.000143824
-0.000112006
0.000115
-0.000143832
7.40143e-05
-0.000176358
2.08944e-05
-0.000208787
-4.59215e-05
-0.000240511
-0.000129009
-0.000271077
-0.000231355
-0.000300126
-0.000355882
-0.00032732
-0.000505018
-0.000352256
-0.000680271
-0.000374341
-0.000881768
-0.000392582
-0.00110773
-0.000405221
-0.00135385
-0.000409145
-0.00161239
-0.00039941
-0.00187046
-0.000370098
-0.00211076
-0.00232472
-0.000309011
-2.36973e-06
6.08778e-05
-1.01749e-05
0.000131596
-2.32748e-05
0.000167075
-4.08418e-05
0.000175906
-6.16574e-05
0.000164639
-8.43541e-05
0.000137696
-0.000107593
9.72528e-05
-0.00013017
4.34722e-05
-0.000151067
-2.50249e-05
-0.000169453
-0.000110623
-0.000184648
-0.00021616
-0.000196088
-0.000344441
-0.000203267
-0.000497839
-0.0002057
-0.000677839
-0.000202863
-0.000884604
-0.000194107
-0.00111648
-0.000178467
-0.00136949
-0.00015412
-0.00163673
-0.000117097
-0.00190749
-6.30184e-05
-0.00216484
-0.00238034
-7.3968e-06
-1.07712e-06
6.19549e-05
-5.77613e-06
0.000136295
-1.43534e-05
0.000175653
-2.61962e-05
0.000187749
-4.01584e-05
0.000178602
-5.48333e-05
0.000152371
-6.87551e-05
0.000111174
-8.05343e-05
5.52514e-05
-8.89217e-05
-1.66375e-05
-9.28271e-05
-0.000106718
-9.12919e-05
-0.000217696
-8.35032e-05
-0.00035223
-6.86931e-05
-0.000512649
-4.6185e-05
-0.000700347
-1.53728e-05
-0.000915416
2.42875e-05
-0.00115614
7.33378e-05
-0.00141854
0.000132558
-0.00169595
0.000203839
-0.00197877
0.000290725
-0.00225172
-0.00248629
0.000396678
1.49418e-07
6.18055e-05
-1.47826e-06
0.000137922
-5.48274e-06
0.000179657
-1.14411e-05
0.000193707
-1.82802e-05
0.000185441
-2.45685e-05
0.00015866
-2.87227e-05
0.000115329
-2.91695e-05
5.56983e-05
-2.4427e-05
-2.138e-05
-1.31403e-05
-0.000118004
5.91601e-06
-0.000236752
3.39461e-05
-0.00038026
7.19384e-05
-0.000550642
0.00012079
-0.000749199
0.000181222
-0.000975848
0.000253712
-0.00122863
0.000338436
-0.00150327
0.000435425
-0.00179294
0.000545021
-0.00208836
0.00066772
-0.00237442
-0.00263008
0.000811511
1.26552e-06
6.054e-05
2.53091e-06
0.000136657
2.97059e-06
0.000179217
2.8514e-06
0.000193826
3.17599e-06
0.000185116
5.41851e-06
0.000156417
1.12576e-05
0.000109489
2.24423e-05
4.45136e-05
4.06903e-05
-3.96279e-05
6.76463e-05
-0.00014496
0.000104856
-0.000273962
0.000153728
-0.000429131
0.000215568
-0.000612482
0.000291459
-0.00082509
0.000382167
-0.00106656
0.000487997
-0.00133446
0.000608672
-0.00162394
0.000743251
-0.00192752
0.000890288
-0.0022354
0.00104931
-0.00253344
-0.00280454
0.00122377
2.21165e-06
5.83283e-05
6.09857e-06
0.00013277
1.07083e-05
0.000174608
1.62181e-05
0.000188316
2.3597e-05
0.000177737
3.43319e-05
0.000145682
5.02178e-05
9.36036e-05
7.31821e-05
2.15492e-05
0.00010518
-7.16258e-05
0.000148127
-0.000187908
0.000203864
-0.000329699
0.000274093
-0.00049936
0.000360315
-0.000698704
0.000463689
-0.000928464
0.000584844
-0.00118771
0.000723672
-0.00147329
0.000879148
-0.00177942
0.00104921
-0.00209758
0.00123079
-0.00241699
0.00142176
-0.00272441
-0.00300371
0.00162093
2.96633e-06
5.5362e-05
9.12297e-06
0.000126613
1.75203e-05
0.00016621
2.83188e-05
0.000177518
4.24893e-05
0.000163567
6.15742e-05
0.000126598
8.74831e-05
6.76948e-05
0.000122327
-1.32951e-05
0.000168304
-0.000117602
0.000227607
-0.000247211
0.000302354
-0.000404445
0.000394475
-0.000591481
0.000505567
-0.000809797
0.000636675
-0.00105957
0.000788018
-0.00133905
0.000958731
-0.001644
0.00114667
-0.00196736
0.00134844
-0.00229935
0.00155937
-0.00262792
0.00177571
-0.00294074
-0.00322068
0.00199267
3.51818e-06
5.18438e-05
1.15575e-05
0.000118574
2.33036e-05
0.000154464
3.89869e-05
0.000161835
5.96379e-05
0.000142916
8.68892e-05
9.93462e-05
0.000122792
3.17919e-05
0.00016966
-6.0163e-05
0.000229938
-0.00017788
0.000306089
-0.000323362
0.000400456
-0.000498813
0.000515088
-0.000706113
0.00065149
-0.000946199
0.000810304
-0.00121839
0.000990969
-0.00151972
0.00119144
-0.00184448
0.00140811
-0.00218402
0.00163601
-0.00252725
0.00186904
-0.00286096
0.00210231
-0.003174
-0.00344723
0.00232885
3.87499e-06
4.79688e-05
1.34159e-05
0.000109033
2.8072e-05
0.000139808
4.8237e-05
0.00014167
7.50708e-05
0.000116082
0.000110348
6.40695e-05
0.000156299
-1.41592e-05
0.000215462
-0.000119326
0.000290532
-0.000252951
0.000384197
-0.000417027
0.00049893
-0.000613545
0.000636704
-0.000843888
0.000798635
-0.00110813
0.000984565
-0.00140432
0.0011927
-0.00172785
0.00141941
-0.00207119
0.00165933
-0.00242395
0.00190593
-0.00277384
0.00215209
-0.00310712
0.00239234
-0.00341425
-0.00367445
0.00261956
4.0625e-06
4.39064e-05
1.4771e-05
9.83247e-05
3.19564e-05
0.000122623
5.627e-05
0.000117356
8.90789e-05
8.32729e-05
0.000132361
2.07873e-05
0.000188573
-7.03711e-05
0.000260494
-0.000191247
0.000351044
-0.000343501
0.000463049
-0.000529032
0.000598927
-0.000749423
0.000760281
-0.00100524
0.000947426
-0.00129527
0.00115893
-0.00161582
0.00139129
-0.00196022
0.00163897
-0.00231887
0.00189486
-0.00267983
0.00215106
-0.00303004
0.0024003
-0.00335637
0.00263698
-0.00365093
-0.00389376
0.00285629
4.12245e-06
3.97839e-05
1.57499e-05
8.66972e-05
3.51961e-05
0.000103177
6.34604e-05
8.90916e-05
0.000102196
4.45371e-05
0.000153652
-3.06688e-05
0.000220547
-0.000137266
0.000305899
-0.000276599
0.000412785
-0.000450386
0.000544002
-0.000660249
0.000701629
-0.00090705
0.000886489
-0.0011901
0.00109761
-0.00150639
0.00133178
-0.00184999
0.00158348
-0.00221191
0.00184515
-0.00258054
0.00210818
-0.00294286
0.00236392
-0.00328579
0.002606
-0.00359845
0.00282912
-0.00387405
-0.00409766
0.00303302
4.10934e-06
3.56746e-05
1.65236e-05
7.4283e-05
3.81187e-05
8.15814e-05
7.03237e-05
5.68866e-05
0.00011515
-2.89335e-07
0.000175177
-9.06961e-05
0.000253401
-0.000215489
0.000353034
-0.000376232
0.000477168
-0.000574521
0.00062831
-0.000811391
0.000807804
-0.00108654
0.00101521
-0.0013975
0.00124775
-0.00173894
0.00150011
-0.00210235
0.00176461
-0.00247641
0.00203204
-0.00284796
0.00229287
-0.0032037
0.00253848
-0.00353139
0.0027639
-0.00382387
0.00296455
-0.0040747
-0.00428098
0.00314788
4.08568e-06
3.15889e-05
1.72908e-05
6.10779e-05
4.11083e-05
5.77639e-05
7.74584e-05
2.05366e-05
0.000128786
-5.16165e-05
0.000198007
-0.000159918
0.000288388
-0.00030587
0.000403222
-0.000491066
0.000545383
-0.000716681
0.000716718
-0.000982726
0.000917359
-0.00128718
0.00114509
-0.00162523
0.00139497
-0.00198881
0.00165944
-0.00236682
0.00192904
-0.00274601
0.0021936
-0.00311253
0.00244373
-0.00345383
0.00267189
-0.00375955
0.00287395
-0.00402593
0.00304347
-0.00424422
-0.0044391
0.00320159
4.11623e-06
2.74726e-05
1.82595e-05
4.69347e-05
4.4567e-05
3.14563e-05
8.54957e-05
-2.03921e-05
0.000143939
-0.00011006
0.00022317
-0.000239149
0.000326624
-0.000409323
0.000457478
-0.000621921
0.000618058
-0.000877261
0.000809097
-0.00117377
0.00102901
-0.0015071
0.0012734
-0.00186962
0.00153501
-0.00225042
0.00180433
-0.00263614
0.00207082
-0.0030125
0.00232444
-0.00336615
0.00255712
-0.00368651
0.00276382
-0.00396625
0.00294238
-0.00420449
0.00308942
-0.00439126
-0.00456626
0.00321658
4.26122e-06
2.32114e-05
1.96236e-05
3.15723e-05
4.88672e-05
2.21276e-06
9.49977e-05
-6.65226e-05
0.000161355
-0.000176417
0.000251497
-0.000329291
0.000368871
-0.000526697
0.00051625
-0.0007693
0.00069499
-0.001056
0.000904223
-0.001383
0.00114022
-0.0017431
0.0013962
-0.0021256
0.0016628
-0.00251702
0.00192921
-0.00290255
0.00218482
-0.00326811
0.00242083
-0.00360216
0.00263144
-0.00389712
0.00281455
-0.00414936
0.00297069
-0.00436063
0.00310741
-0.00452798
-0.00468485
0.00322599
4.57045e-06
1.8641e-05
2.15436e-05
1.45992e-05
5.43118e-05
-3.05555e-05
0.000106406
-0.000118617
0.000181557
-0.000251569
0.000283476
-0.00043121
0.000415375
-0.000658596
0.000579248
-0.000933173
0.000775019
-0.00125177
0.000999775
-0.00160775
0.00124739
-0.00199071
0.00150882
-0.00238703
0.00177316
-0.00278136
0.00202928
-0.00315868
0.00226759
-0.00350642
0.00248142
-0.00381599
0.00266775
-0.00408345
0.00282725
-0.00430885
0.00296328
-0.00449666
0.00308286
-0.00464757
-0.00478902
0.00318704
5.07898e-06
1.3562e-05
2.41316e-05
-4.4535e-06
6.11017e-05
-6.75256e-05
0.000119983
-0.000177498
0.000204786
-0.000336371
0.000319165
-0.00054559
0.000465774
-0.000805204
0.000645397
-0.0011128
0.000856081
-0.00146245
0.00109256
-0.00184423
0.00134633
-0.00224449
0.00160657
-0.00264727
0.00186173
-0.00303651
0.00210138
-0.00339833
0.00231788
-0.00372292
0.00250724
-0.00400535
0.00266922
-0.00424543
0.00280683
-0.00444646
0.00292506
-0.00461489
0.00303128
-0.00475379
-0.00488674
0.003129
5.80485e-06
7.75713e-06
2.74431e-05
-2.60918e-05
6.93217e-05
-0.000109404
0.000135792
-0.000243968
0.000230966
-0.000431546
0.000358169
-0.000672793
0.000519107
-0.000966142
0.000712921
-0.00130661
0.000935427
-0.00168496
0.00117893
-0.00208773
0.0014329
-0.00249846
0.0016855
-0.00289988
0.00192554
-0.00327655
0.00214428
-0.00361707
0.00233661
-0.00391525
0.00250131
-0.00417004
0.00264052
-0.00438465
0.00275889
-0.00456484
0.00286219
-0.00471819
0.00295754
-0.00484913
-0.00497696
0.00304775
6.74999e-06
1.00714e-06
3.14782e-05
-5.082e-05
7.89403e-05
-0.000156866
0.000153693
-0.000318721
0.00025972
-0.000537573
0.000399677
-0.000812749
0.000573913
-0.00114038
0.00077954
-0.00151224
0.00100996
-0.00191538
0.00125526
-0.00233303
0.00150351
-0.00274672
0.00174284
-0.0031392
0.00196336
-0.00349708
0.00215869
-0.00381241
0.00232644
-0.00408299
0.00246785
-0.00431145
0.00258686
-0.00450366
0.00268903
-0.00466701
0.00278023
-0.00480939
0.00286681
-0.00493572
-0.00506173
0.00295158
7.90292e-06
-6.89578e-06
3.61896e-05
-7.91067e-05
8.98245e-05
-0.000210501
0.000173376
-0.000402272
0.000290413
-0.00065461
0.00044255
-0.000964886
0.00062838
-0.00132621
0.000842721
-0.00172658
0.00107662
-0.00214928
0.0013184
-0.00257481
0.00155563
-0.00298394
0.0017773
-0.00336087
0.00197562
-0.00369539
0.00214682
-0.00398362
0.00229108
-0.00422724
0.00241157
-0.00443194
0.00251335
-0.00460544
0.00260221
-0.00475587
0.00268368
-0.00489086
0.00276316
-0.0050152
-0.00514133
0.00284276
9.24285e-06
-1.61386e-05
4.1494e-05
-0.000111358
0.000101763
-0.00027077
0.000194394
-0.000494904
0.000322221
-0.000782437
0.000485429
-0.00112809
0.00068053
-0.00152131
0.000899949
-0.001946
0.00113268
-0.002382
0.00136601
-0.00280814
0.00158789
-0.00320583
0.00178901
-0.00356199
0.00196406
-0.00387044
0.00211186
-0.00413142
0.0022347
-0.00435007
0.00233706
-0.00453431
0.00242449
-0.00469287
0.00250255
-0.00483393
0.00257611
-0.00496442
0.00264957
-0.00508866
-0.00521625
0.00272449
1.07434e-05
-2.6882e-05
4.72836e-05
-0.000147898
0.000114487
-0.000337973
0.000216209
-0.000596626
0.000354197
-0.000920425
0.000526852
-0.00130075
0.000728391
-0.00172285
0.000948966
-0.00216657
0.00117605
-0.00260908
0.00139673
-0.00302882
0.00160017
-0.00340927
0.00177928
-0.00374111
0.00193134
-0.00402249
0.00205744
-0.00425752
0.00216139
-0.00445403
0.00224842
-0.00462134
0.00232403
-0.00476848
0.00239325
-0.00490314
0.00246016
-0.00503133
0.00252822
-0.00515672
-0.00528646
0.00259842
1.23755e-05
-3.92575e-05
5.34354e-05
-0.000188958
0.000127693
-0.00041223
0.000238221
-0.000707155
0.000385334
-0.00106754
0.000565358
-0.00148077
0.000770158
-0.00192765
0.000987949
-0.00238436
0.00120538
-0.00282651
0.00141016
-0.00323361
0.00159331
-0.00359242
0.00175023
-0.00389803
0.00188054
-0.00415281
0.00198716
-0.00436413
0.00207486
-0.00454173
0.00214907
-0.00469555
0.00221491
-0.00483433
0.00227671
-0.00496494
0.00233777
-0.00509239
0.0024007
-0.00521965
-0.00535182
0.00246607
1.41086e-05
-5.33661e-05
5.98171e-05
-0.000234667
0.000141053
-0.000493466
0.000259804
-0.000825905
0.000414626
-0.00122236
0.000599584
-0.00166573
0.00080432
-0.00213238
0.00101563
-0.00259567
0.0012201
-0.00303098
0.00140679
-0.0034203
0.00156895
-0.00375458
0.00170441
-0.00403349
0.00181482
-0.00426323
0.00190436
-0.00445366
0.00197825
-0.00461562
0.00204173
-0.00475904
0.00209935
-0.00489194
0.00215468
-0.00502027
0.0022103
-0.00514801
0.00226813
-0.00527748
-0.0054121
0.00232841
1.59111e-05
-6.92771e-05
6.62896e-05
-0.000285045
0.00015423
-0.000581407
0.000280327
-0.000952001
0.000441117
-0.00138315
0.000628347
-0.00185296
0.000829744
-0.00233378
0.00103132
-0.00279725
0.00122035
-0.00322001
0.00138775
-0.00358769
0.00152913
-0.00389596
0.00164453
-0.00414889
0.00173716
-0.00435586
0.00181193
-0.00452843
0.00187411
-0.00467781
0.00192851
-0.00481343
0.00197899
-0.00494242
0.00202842
-0.0050697
0.00207876
-0.00519835
0.00213137
-0.0053301
-0.005467
0.00218627
1.77499e-05
-8.7027e-05
7.27086e-05
-0.000340004
0.00016688
-0.000675579
0.000299181
-0.0010843
0.000463945
-0.00154792
0.0006507
-0.00203972
0.000845719
-0.0025288
0.00103492
-0.00298645
0.00120687
-0.00339195
0.00135463
-0.00373545
0.00147613
-0.00401746
0.00157322
-0.00424598
0.00165019
-0.00443283
0.00171226
-0.0045905
0.00176444
-0.00473
0.00181097
-0.00485996
0.00185502
-0.00498647
0.00189884
-0.00511351
0.00194388
-0.00524339
0.00199109
-0.00537731
-0.00551624
0.00204033
1.959e-05
-0.000106617
7.89263e-05
-0.00039934
0.000178665
-0.000775317
0.000315799
-0.00122144
0.000482387
-0.0017145
0.000665981
-0.00222331
0.000851957
-0.00271478
0.00102679
-0.00316129
0.00118079
-0.00354595
0.00130927
-0.00386393
0.0014122
-0.0041204
0.00149286
-0.00432663
0.00155615
-0.00449612
0.00160726
-0.00464161
0.00165077
-0.00477351
0.00169027
-0.00489945
0.00172831
-0.00502452
0.00176661
-0.00515182
0.00180624
-0.00528301
0.00184782
-0.00541888
-0.00555954
0.00189112
2.13942e-05
-0.000128011
8.47934e-05
-0.000462739
0.00018926
-0.000879783
0.000329684
-0.00136186
0.000495886
-0.00188071
0.000673817
-0.00240124
0.000848559
-0.00288952
0.0010077
-0.00332043
0.00114354
-0.00368179
0.00125357
-0.00397396
0.00133948
-0.00420631
0.00140552
-0.00439267
0.00145687
-0.00454747
0.00149844
-0.00468318
0.00153425
-0.00480932
0.00156726
-0.00493247
0.0015995
-0.00505676
0.00163226
-0.00518457
0.0016663
-0.00531705
0.00170201
-0.0054546
-0.00559669
0.00173916
2.31241e-05
-0.000151135
9.01635e-05
-0.000529779
0.00019837
-0.00098799
0.000340424
-0.00150392
0.000504071
-0.00204435
0.000674124
-0.00257129
0.000835949
-0.00305134
0.000978652
-0.00346313
0.00109664
-0.00379978
0.00118936
-0.00406668
0.00125986
-0.0042768
0.00131296
-0.00444578
0.00135383
-0.00458833
0.00138693
-0.00471628
0.00141571
-0.0048381
0.00144258
-0.00495933
0.00146908
-0.00508327
0.00149619
-0.00521168
0.00152445
-0.00534531
0.00155408
-0.00548423
-0.00562747
0.00158487
2.47403e-05
-0.000175876
9.48976e-05
-0.000599936
0.000205738
-0.00109883
0.000347712
-0.00164589
0.000506762
-0.0022034
0.000667072
-0.0027316
0.000814798
-0.00319907
0.00094084
-0.00358917
0.00104166
-0.0039006
0.00111836
-0.00414339
0.00117498
-0.00433342
0.00121662
-0.00448742
0.00124818
-0.00461989
0.00127362
-0.00474172
0.00129582
-0.00486031
0.00131669
-0.0049802
0.00133743
-0.00510401
0.00135875
-0.005233
0.00138102
-0.00536758
0.00140439
-0.0055076
-0.00565172
0.00142864
2.62045e-05
-0.00020208
9.88697e-05
-0.000672601
0.000211153
-0.00121111
0.000351352
-0.00178609
0.000503959
-0.00235601
0.000653039
-0.00288068
0.000785947
-0.00333198
0.000895502
-0.00369873
0.000980057
-0.00398515
0.00104209
-0.00420542
0.00108624
-0.00437757
0.00111764
-0.00451883
0.00114081
-0.00464305
0.00115916
-0.00476007
0.00117505
-0.0048762
0.00118998
-0.00499514
0.00120487
-0.00511889
0.00122023
-0.00524836
0.00123634
-0.00538369
0.00125325
-0.00552451
-0.0056693
0.00127083
2.74803e-05
-0.00022956
0.000101971
-0.000747092
0.000214463
-0.0013236
0.000351264
-0.00192289
0.000495826
-0.00250057
0.000632566
-0.00301742
0.000750333
-0.00344974
0.00084387
-0.00379226
0.000913204
-0.00405448
0.000961842
-0.00425406
0.000994778
-0.00441051
0.00101695
-0.004541
0.00103241
-0.00465851
0.00104406
-0.00477172
0.00105378
-0.00488593
0.00106276
-0.00500411
0.00107167
-0.0051278
0.0010809
-0.00525759
0.00109067
-0.00539345
0.00110098
-0.00553482
-0.00568009
0.00111177
2.85351e-05
-0.000258096
0.000104116
-0.000822673
0.000215575
-0.00143506
0.000347474
-0.00205479
0.000482655
-0.00263575
0.000606298
-0.00314107
0.000708924
-0.00355237
0.000787114
-0.00387045
0.000842308
-0.00410968
0.000878747
-0.0042905
0.000901526
-0.00443329
0.00091527
-0.00455475
0.000923528
-0.00466677
0.000928713
-0.0047769
0.000932332
-0.00488954
0.00093528
-0.00500706
0.000938081
-0.0051306
0.000941033
-0.00526054
0.000944283
-0.0053967
0.000947849
-0.00553839
-0.00568398
0.000951741
2.93407e-05
-0.000287436
0.000105241
-0.000898574
0.000214457
-0.00154428
0.000340103
-0.00218044
0.000464843
-0.00276049
0.000574944
-0.00325117
0.000662676
-0.0036401
0.000726309
-0.00393409
0.000768424
-0.00415179
0.000793728
-0.0043158
0.000807233
-0.00444679
0.000813164
-0.00456068
0.000814576
-0.00466818
0.000813445
-0.00477577
0.000810952
-0.00488705
0.000807784
-0.00500389
0.000804341
-0.00512716
0.000800854
-0.00525706
0.000797434
-0.00539328
0.00079411
-0.00553507
-0.00568085
0.00079098
2.98747e-05
-0.000317311
0.000105311
-0.00097401
0.000211132
-0.0016501
0.000329353
-0.00229866
0.000442854
-0.00287399
0.00053923
-0.00334754
0.000612499
-0.00371337
0.000662419
-0.00398401
0.000692452
-0.00418183
0.000707549
-0.0043309
0.000712498
-0.00445174
0.000711084
-0.00455926
0.000705893
-0.00466299
0.000698519
-0.0047684
0.000689878
-0.00487841
0.000680491
-0.0049945
0.00067067
-0.00511734
0.000660596
-0.00524698
0.000650364
-0.00538305
0.000640007
-0.00552471
-0.0056705
0.000629651
3.01209e-05
-0.000347432
0.000104312
-0.0010482
0.000205674
-0.00175146
0.000315483
-0.00240846
0.00041719
-0.0029757
0.000499875
-0.00343023
0.000559228
-0.00377272
0.000596287
-0.00402107
0.000615153
-0.00420069
0.000620832
-0.00433658
0.000617801
-0.00444871
0.00060939
-0.00455085
0.000597757
-0.00465135
0.000584169
-0.00475481
0.000569326
-0.00486357
0.00055362
-0.0049788
0.000537287
-0.005101
0.000520477
-0.00523017
0.000503286
-0.00536586
0.000485761
-0.00550718
-0.00565268
0.000467942
3.00692e-05
-0.000377501
0.000102259
-0.00112039
0.0001982
-0.0018474
0.000298799
-0.00250906
0.00038837
-0.00306527
0.000457561
-0.00349942
0.00050362
-0.00381878
0.000528643
-0.00404609
0.000537157
-0.00420921
0.000534082
-0.0043335
0.000523526
-0.00443816
0.000508373
-0.0045357
0.000490402
-0.00463338
0.000470605
-0.00473501
0.000449509
-0.00484247
0.000427402
-0.00495669
0.000404453
-0.00507805
0.000380765
-0.00520648
0.000356421
-0.00534152
0.000331509
-0.00548227
-0.00562735
0.000306185
2.97162e-05
-0.000407217
9.91849e-05
-0.00118986
0.000188859
-0.00193708
0.000279629
-0.00259983
0.000356905
-0.00314255
0.000412925
-0.00355544
0.000446343
-0.0038522
0.000460106
-0.00405985
0.000458986
-0.00420808
0.000447709
-0.00432223
0.000429983
-0.00442043
0.000408276
-0.00451399
0.000384034
-0.00460914
0.000358023
-0.004709
0.000330633
-0.00481508
0.000302071
-0.00492813
0.000272459
-0.00504844
0.000241862
-0.00517589
0.000210256
-0.00530991
0.000177397
-0.00544941
-0.00559449
0.000144537
2.90643e-05
-0.000436282
9.51423e-05
-0.00125594
0.000177825
-0.00201976
0.000258312
-0.00268032
0.000323286
-0.00320752
0.000366542
-0.00359869
0.000387981
-0.00387364
0.0003912
-0.00406307
0.000381067
-0.00419795
0.000362041
-0.0043032
0.000337424
-0.00439581
0.000309301
-0.00448587
0.000278832
-0.00457867
0.000246599
-0.00467677
0.000212883
-0.00478136
0.00017783
-0.00489308
0.000141545
-0.00501216
0.000104116
-0.00513846
6.56267e-05
-0.00527142
2.58381e-05
-0.00540962
-0.00554928
-1.93769e-05
2.81215e-05
-0.000464403
9.01981e-05
-0.00131801
0.000165286
-0.00209485
0.000235188
-0.00275022
0.000287974
-0.00326031
0.00031893
-0.00362965
0.000329033
-0.00388374
0.00032236
-0.0040564
0.000303751
-0.00417934
0.000277348
-0.0042768
0.000246058
-0.00436452
0.000211623
-0.00445144
0.00017496
-0.00454201
0.000136502
-0.00463831
9.64383e-05
-0.0047413
5.48609e-05
-0.0048515
1.18534e-05
-0.00496915
-3.24598e-05
-0.00509415
-7.80169e-05
-0.00522586
-0.000125279
-0.00536236
-0.00550154
-0.000173018
2.69002e-05
-0.000491303
8.44302e-05
-0.00137554
0.000151439
-0.00216186
0.000210584
-0.00280937
0.00025139
-0.00330111
0.000270543
-0.0036488
0.000269927
-0.00388313
0.000253946
-0.00404042
0.00022732
-0.00415272
0.000193849
-0.00424333
0.000156061
-0.00432673
0.000115398
-0.00441077
7.25663e-05
-0.00449918
2.78736e-05
-0.00459362
-1.85477e-05
-0.00469488
-6.66247e-05
-0.00480342
-0.00011631
-0.00491946
-0.00016752
-0.00504294
-0.00022028
-0.0051731
-0.000274489
-0.00530815
-0.0054468
-0.000329232
2.5417e-05
-0.00051672
7.79243e-05
-0.00142805
0.000136481
-0.00222041
0.000184809
-0.0028577
0.000213916
-0.00333022
0.000221775
-0.00365666
0.000211023
-0.00387238
0.000186257
-0.00401565
0.000152009
-0.00411847
0.000111724
-0.00420304
6.75803e-05
-0.00428259
2.07451e-05
-0.00436394
-2.82144e-05
-0.00445022
-7.90928e-05
-0.00454274
-0.000131842
-0.00464213
-0.000186447
-0.00474882
-0.000242851
-0.00486306
-0.000300981
-0.00498481
-0.000360759
-0.00511333
-0.000422005
-0.00524691
-0.00538433
-0.000484474
2.36918e-05
-0.000540412
7.07705e-05
-0.00147513
0.000120605
-0.00227025
0.000158151
-0.00289524
0.000175893
-0.00334796
0.000172969
-0.00365374
0.000152622
-0.00385203
0.000119537
-0.00398257
7.80087e-05
-0.00407694
3.11152e-05
-0.00415615
-1.92645e-05
-0.00423221
-7.21635e-05
-0.00431104
-0.000127211
-0.00439517
-0.000184276
-0.00448567
-0.000243346
-0.00458306
-0.000304441
-0.00468772
-0.000367547
-0.00479995
-0.000432589
-0.00491976
-0.000499438
-0.00504648
-0.000567941
-0.0051784
-0.00531422
-0.000638046
2.17471e-05
-0.000562159
6.30605e-05
-0.00151644
0.000103997
-0.00231119
0.000130875
-0.00292212
0.00013762
-0.00335471
0.000124415
-0.00364053
9.49754e-05
-0.00382259
5.3982e-05
-0.00394157
5.44569e-06
-0.0040284
-4.78304e-05
-0.00410287
-0.000104309
-0.00417573
-0.000163243
-0.0042521
-0.000224338
-0.00433408
-0.000287535
-0.00442248
-0.000352874
-0.00451772
-0.000420413
-0.00462018
-0.000490173
-0.00473019
-0.000562089
-0.00484785
-0.000636017
-0.00497255
-0.000711814
-0.00510261
-0.00523658
-0.000789456
1.96083e-05
-0.000581767
5.48867e-05
-0.00155172
8.68304e-05
-0.00234313
0.000103219
-0.00293851
9.93614e-05
-0.00335085
7.63586e-05
-0.00361753
3.82923e-05
-0.00378452
-1.02336e-05
-0.00389305
-6.54707e-05
-0.00397317
-0.000125005
-0.00404334
-0.000187504
-0.00411323
-0.000252387
-0.00418722
-0.000319462
-0.004267
-0.000388728
-0.00435321
-0.000460265
-0.00444618
-0.000534177
-0.00454627
-0.000610524
-0.00465385
-0.000689267
-0.0047691
-0.000770258
-0.00489156
-0.000853322
-0.00501954
-0.00515149
-0.000938412
1.73039e-05
-0.000599071
4.63399e-05
-0.00158076
6.92733e-05
-0.00236606
7.54022e-05
-0.00294464
6.13411e-05
-0.00333679
2.90216e-05
-0.00358521
-1.72518e-05
-0.00373825
-7.29772e-05
-0.00383732
-0.000134715
-0.00391143
-0.000200336
-0.00397772
-0.000268743
-0.00404483
-0.000339492
-0.00411647
-0.000412469
-0.00419402
-0.000487721
-0.00427796
-0.000565365
-0.00436854
-0.000645549
-0.00446609
-0.000728382
-0.00457101
-0.000813867
-0.00468362
-0.000901861
-0.00480357
-0.000992135
-0.00492927
-0.00505902
-0.0010846
1.48707e-05
-0.000613942
3.75127e-05
-0.0016034
5.14841e-05
-0.00238003
4.76128e-05
-0.00294077
2.37964e-05
-0.00331297
-1.74243e-05
-0.00354399
-7.15266e-05
-0.00368415
-0.000134154
-0.00377469
-0.000202176
-0.00384341
-0.000273736
-0.00390615
-0.000347942
-0.00397062
-0.000424463
-0.00403995
-0.000503251
-0.00411524
-0.000584388
-0.00419682
-0.000668026
-0.0042849
-0.000754353
-0.00437976
-0.00084354
-0.00448183
-0.000935648
-0.00459151
-0.00103056
-0.00470866
-0.00112797
-0.00483185
-0.00495928
-0.00122771
1.23301e-05
-0.000626272
2.84925e-05
-0.00161956
3.35989e-05
-0.00238514
2.00634e-05
-0.00292723
-1.31164e-05
-0.00327979
-6.28856e-05
-0.00349422
-0.00012443
-0.0036226
-0.000193677
-0.00370545
-0.00026778
-0.0037693
-0.000345138
-0.0038288
-0.000425027
-0.00389073
-0.000507217
-0.00395776
-0.000591708
-0.00403075
-0.000678613
-0.00410992
-0.000768108
-0.00419541
-0.000860422
-0.00428745
-0.000955789
-0.00438646
-0.00105435
-0.00449295
-0.00115604
-0.00460697
-0.00126049
-0.0047274
-0.00485241
-0.00136736
9.71023e-06
-0.000635982
1.93807e-05
-0.00162923
1.57261e-05
-0.00238149
-6.97583e-06
-0.00290453
-4.94397e-05
-0.00323733
-0.000107234
-0.00343643
-0.000175874
-0.00355396
-0.000251477
-0.00362984
-0.00033147
-0.00368931
-0.00041448
-0.00374579
-0.000499933
-0.00380528
-0.000587676
-0.00387002
-0.000677752
-0.00394067
-0.000770292
-0.00401738
-0.000865492
-0.00410021
-0.000963608
-0.00418933
-0.00106494
-0.00428513
-0.00116972
-0.00438816
-0.00127798
-0.00449872
-0.0013893
-0.00461608
-0.00473856
-0.00150316
7.03086e-06
-0.000643013
1.02486e-05
-0.00163245
-1.31725e-06
-0.00236992
-3.40319e-05
-0.00287182
-8.49397e-05
-0.00318642
-0.000150379
-0.00337099
-0.000225787
-0.00347855
-0.000307496
-0.00354814
-0.000393195
-0.00360361
-0.000481713
-0.00365727
-0.000572602
-0.00371439
-0.000665774
-0.00377685
-0.000761304
-0.00384514