/*--------------------------------*- C++ -*----------------------------------*\
  =========                 |
  \\      /  F ield         | OpenFOAM: The Open Source CFD Toolbox
   \\    /   O peration     | Website:  https://openfoam.org
    \\  /    A nd           | Version:  7
     \\/     M anipulation  |
\*---------------------------------------------------------------------------*/
FoamFile
{
    version     2.0;
    format      ascii;
    class       volVectorField;
    location    "65";
    object      U;
}
// * * * * * * * * * * * * * * * * * * * * * * * * * * * * * * * * * * * * * //

dimensions      [0 1 -1 0 0 0 0];

internalField   nonuniform List<vector> 
8820
(
(-0.0012907 0.00142311 -7.7088e-22)
(-0.00658091 -0.00827689 -1.71598e-20)
(-0.0164463 -0.0257691 -8.00072e-21)
(-0.0287128 -0.0473198 -3.43262e-21)
(-0.0424405 -0.0704014 1.08886e-21)
(-0.0570618 -0.0936546 -6.32242e-21)
(-0.0720434 -0.116694 -1.35173e-20)
(-0.0868825 -0.139831 -8.3046e-21)
(-0.101087 -0.163744 1.90484e-20)
(-0.114159 -0.189165 -3.41723e-21)
(-0.12559 -0.216618 5.39654e-21)
(-0.134855 -0.246244 7.81431e-21)
(-0.141414 -0.277685 -1.10901e-20)
(-0.144723 -0.310036 -1.24223e-20)
(-0.144259 -0.341827 5.69871e-21)
(-0.13958 -0.371077 3.06421e-21)
(-0.130416 -0.395438 7.44245e-22)
(-0.11686 -0.412533 2.056e-20)
(-0.0993354 -0.420469 -6.45704e-21)
(-0.0774458 -0.418151 -4.186e-20)
(-0.0510205 -0.405285 3.30052e-22)
(-0.00160546 0.0045132 2.35856e-20)
(-0.00719693 -0.00101925 -2.5687e-20)
(-0.0174143 -0.0157065 4.88502e-21)
(-0.0300687 -0.035374 2.78011e-20)
(-0.04424 -0.0572432 -1.13028e-20)
(-0.0593737 -0.0798116 -1.40277e-20)
(-0.0749381 -0.102619 -2.15472e-20)
(-0.0904359 -0.125945 2.06561e-20)
(-0.105394 -0.150465 3.0918e-20)
(-0.11935 -0.176926 -2.47247e-20)
(-0.131841 -0.20588 -2.97203e-20)
(-0.142397 -0.237506 -4.71629e-20)
(-0.150522 -0.271495 -2.10695e-20)
(-0.155699 -0.306972 -4.03832e-20)
(-0.157399 -0.342464 2.0435e-20)
(-0.155126 -0.37591 -3.13877e-21)
(-0.148525 -0.404778 -1.51559e-20)
(-0.137606 -0.426398 -1.30195e-21)
(-0.122606 -0.438494 -4.13977e-20)
(-0.102734 -0.439539 -2.46947e-20)
(-0.0788376 -0.429251 2.5484e-20)
(-0.00211929 0.00775386 6.92479e-20)
(-0.00816477 0.00665045 -1.5449e-20)
(-0.0186412 -0.00502318 5.46632e-20)
(-0.0314494 -0.0226525 3.73839e-20)
(-0.0457324 -0.0431978 3.75049e-20)
(-0.0609697 -0.0649915 1.69198e-20)
(-0.076644 -0.0874711 -2.79212e-20)
(-0.0922726 -0.11086 4.82823e-20)
(-0.107408 -0.135809 7.29348e-20)
(-0.121629 -0.163065 3.84771e-20)
(-0.134531 -0.19321 -5.7631e-20)
(-0.145707 -0.226479 9.63595e-20)
(-0.154732 -0.262633 -8.51396e-21)
(-0.161143 -0.300881 -1.7528e-19)
(-0.164441 -0.339802 -1.18925e-19)
(-0.164118 -0.377324 6.4814e-20)
(-0.159768 -0.410792 -3.48475e-20)
(-0.151332 -0.43726 -8.02727e-20)
(-0.138849 -0.453997 1.29087e-19)
(-0.121178 -0.458917 -5.5331e-20)
(-0.100047 -0.451605 -6.30154e-20)
(-0.00282945 0.0110185 -2.13709e-20)
(-0.00947218 0.0144659 1.46354e-19)
(-0.0200907 0.00594648 -1.93903e-20)
(-0.0327874 -0.00952024 -1.968e-19)
(-0.0468138 -0.0286401 -1.99481e-20)
(-0.0617044 -0.0495681 -1.83448e-19)
(-0.076969 -0.0716173 9.50542e-20)
(-0.0921449 -0.0949283 1.78344e-19)
(-0.106812 -0.120105 -1.61877e-19)
(-0.12059 -0.147883 -2.16545e-19)
(-0.133133 -0.178864 1.22888e-19)
(-0.144108 -0.213344 -1.16025e-19)
(-0.153171 -0.251178 1.41545e-19)
(-0.159944 -0.291689 1.9875e-19)
(-0.164 -0.33357 3.78901e-20)
(-0.164866 -0.374815 -1.56394e-20)
(-0.162138 -0.412728 -1.4716e-19)
(-0.155711 -0.44414 -3.07598e-20)
(-0.145435 -0.465839 -3.23589e-20)
(-0.129813 -0.475067 -8.42271e-21)
(-0.111229 -0.471178 -1.7689e-20)
(-0.00371764 0.0141732 -9.75249e-20)
(-0.0110828 0.0221445 -1.43455e-19)
(-0.0217106 0.0168466 8.47161e-20)
(-0.0340144 0.00363444 -1.13487e-19)
(-0.0473977 -0.0139694 1.28208e-19)
(-0.0614697 -0.0339422 6.61213e-20)
(-0.0757789 -0.0554559 1.38619e-19)
(-0.089885 -0.0785469 -1.05928e-20)
(-0.103391 -0.10375 -1.38926e-19)
(-0.115953 -0.131768 7.46879e-20)
(-0.127276 -0.163214 1.67139e-20)
(-0.137097 -0.198435 2.81951e-20)
(-0.145162 -0.237387 -4.32653e-20)
(-0.151195 -0.279529 -4.26755e-20)
(-0.154877 -0.323711 2.54088e-20)
(-0.155826 -0.368072 -5.30625e-20)
(-0.153689 -0.40998 -9.34324e-21)
(-0.148357 -0.446149 8.15077e-20)
(-0.139521 -0.472921 4.16102e-20)
(-0.125316 -0.486821 -4.90909e-20)
(-0.108399 -0.486883 1.4494e-19)
(-0.00475088 0.0170864 2.09889e-20)
(-0.012937 0.0294038 4.53707e-19)
(-0.0234355 0.0273185 -2.94958e-20)
(-0.0350643 0.0164168 3.00675e-19)
(-0.0474194 0.000404947 7.85812e-20)
(-0.0602022 -0.018528 -7.94139e-20)
(-0.0730076 -0.0394075 -5.63567e-20)
(-0.0854199 -0.0621462 1.05613e-19)
(-0.0970594 -0.0871895 -3.66797e-20)
(-0.107605 -0.115187 3.37558e-19)
(-0.116799 -0.146744 -1.11028e-19)
(-0.124438 -0.182244 4.31009e-19)
(-0.13035 -0.221731 7.14695e-21)
(-0.134368 -0.264799 1.88599e-20)
(-0.136301 -0.310484 -1.80481e-19)
(-0.135902 -0.357127 -1.14694e-19)
(-0.132926 -0.402278 2.16784e-19)
(-0.127304 -0.442683 -1.88341e-19)
(-0.118651 -0.474374 -1.60849e-19)
(-0.104768 -0.493212 -1.91778e-20)
(-0.0879837 -0.497793 4.45971e-20)
(-0.00588359 0.0196388 1.04306e-19)
(-0.0149559 0.0359798 -1.47058e-19)
(-0.0251887 0.0370193 -8.1612e-20)
(-0.0358773 0.0284439 -3.09386e-19)
(-0.046839 0.0140801 -1.03623e-19)
(-0.0578839 -0.00374045 3.29418e-19)
(-0.0686608 -0.0238979 6.06907e-20)
(-0.0787769 -0.0461738 1.42096e-19)
(-0.0878643 -0.0709039 -1.39134e-19)
(-0.0956108 -0.0986655 6.40234e-20)
(-0.10178 -0.130032 5.30718e-20)
(-0.106206 -0.165401 -1.73308e-19)
(-0.108784 -0.204879 2.9931e-19)
(-0.109443 -0.248178 -4.5133e-20)
(-0.108124 -0.29451 3.06397e-19)
(-0.104741 -0.342457 1.22718e-19)
(-0.0992029 -0.38984 -1.00579e-19)
(-0.0915351 -0.433611 -1.04973e-19)
(-0.0814211 -0.469733 -5.86675e-20)
(-0.0664969 -0.493612 -9.54752e-20)
(-0.0478997 -0.503265 1.00141e-19)
(-0.00706121 0.0217317 7.21491e-20)
(-0.0170457 0.0416436 1.10713e-19)
(-0.0268872 0.0456404 1.07889e-19)
(-0.0364001 0.0393613 -1.74742e-20)
(-0.0456415 0.0266766 4.0821e-19)
(-0.0545393 0.0100235 -2.40042e-19)
(-0.0628074 -0.00934418 2.84595e-19)
(-0.0700758 -0.0310735 -3.82546e-19)
(-0.0759797 -0.0553789 1.5479e-21)
(-0.0802069 -0.0827474 -2.03311e-19)
(-0.0825235 -0.113699 -2.60967e-20)
(-0.0827825 -0.148619 -5.37777e-20)
(-0.0809185 -0.187645 -4.1103e-19)
(-0.076937 -0.23057 1.08031e-19)
(-0.0708956 -0.276751 9.0886e-20)
(-0.0628725 -0.324997 2.35769e-19)
(-0.0529602 -0.373442 -7.68411e-20)
(-0.0413371 -0.419383 3.29149e-20)
(-0.027962 -0.459022 8.43586e-20)
(-0.0107156 -0.487723 -2.03622e-19)
(0.0117127 -0.502782 -7.1256e-20)
(-0.00822466 0.0232942 -1.96993e-19)
(-0.0191046 0.0462143 1.86225e-19)
(-0.0284446 0.0529232 -1.80935e-19)
(-0.0365859 0.0488593 -7.87032e-20)
(-0.0438302 0.0378525 4.68949e-21)
(-0.0502296 0.0223997 -2.79103e-20)
(-0.0555679 0.00386598 -2.57143e-19)
(-0.0595035 -0.017262 -5.98681e-19)
(-0.0616725 -0.0410755 -1.78533e-19)
(-0.0617537 -0.0679571 -2.77114e-20)
(-0.0595033 -0.0983553 -6.75732e-21)
(-0.0547744 -0.132619 4.66477e-19)
(-0.0475201 -0.170885 -2.04385e-20)
(-0.0377938 -0.212987 7.15162e-21)
(-0.0257442 -0.258376 3.26091e-20)
(-0.011599 -0.306033 9.45104e-20)
(0.00435836 -0.354367 -4.19036e-20)
(0.0217515 -0.401062 -1.72504e-19)
(0.040112 -0.442826 -1.46303e-19)
(0.0605461 -0.475431 4.80023e-19)
(0.0883692 -0.494949 -4.5156e-21)
(-0.00931539 0.0242871 2.01563e-19)
(-0.0210298 0.0495699 1.53104e-20)
(-0.0297754 0.0586717 -4.85963e-19)
(-0.0363936 0.0566864 -1.41179e-19)
(-0.0414206 0.0473177 2.7808e-19)
(-0.0450334 0.0330703 -3.17821e-19)
(-0.0470906 0.0153923 1.41621e-19)
(-0.047285 -0.00511016 5.52056e-19)
(-0.0452561 -0.0284034 2.60126e-19)
(-0.04067 -0.0547603 2.43012e-19)
(-0.0332668 -0.0845451 -1.13042e-19)
(-0.0228889 -0.11805 3.91634e-20)
(-0.00949144 -0.155388 -2.57738e-19)
(0.00684603 -0.196395 3.44128e-19)
(0.0259104 -0.240566 6.30611e-21)
(0.047353 -0.286978 -5.2172e-20)
(0.0707141 -0.334224 9.309e-20)
(0.0954151 -0.380309 5.95716e-20)
(0.120434 -0.422572 -1.17051e-19)
(0.145099 -0.457352 -1.94997e-19)
(0.17838 -0.477093 -2.98737e-19)
(-0.0102803 0.0247047 -3.1809e-19)
(-0.0227244 0.0516514 5.5503e-19)
(-0.0307985 0.0627611 2.67507e-19)
(-0.0357848 0.0626593 -6.69552e-20)
(-0.0384307 0.0548442 -8.25109e-20)
(-0.0390322 0.0417755 -1.90694e-19)
(-0.0375261 0.0249494 -1.06956e-19)
(-0.0336441 0.0050728 1.82405e-19)
(-0.0270358 -0.0177017 3.9424e-19)
(-0.0173576 -0.0435366 1.85738e-19)
(-0.00433035 -0.0727049 2.57014e-19)
(0.0122149 -0.105427 2.49989e-19)
(0.0323289 -0.141778 -4.05858e-19)
(0.0559156 -0.181571 1.83325e-19)
(0.0827121 -0.224301 -5.76366e-19)
(0.11227 -0.269083 -5.96294e-19)
(0.143966 -0.3146 -4.57442e-19)
(0.176999 -0.359082 1.81066e-19)
(0.210065 -0.400382 1.06217e-18)
(0.24218 -0.434982 -2.61831e-19)
(0.281687 -0.453256 2.5422e-19)
(-0.0110766 0.0245731 5.5932e-19)
(-0.0241038 0.0524629 -2.42647e-19)
(-0.0314396 0.0651405 8.31e-20)
(-0.0347213 0.0666691 4.44064e-19)
(-0.0348707 0.0602743 -4.10739e-19)
(-0.0322913 0.0483212 1.50985e-19)
(-0.0269973 0.032317 -2.50778e-19)
(-0.0187641 0.0130472 -6.12029e-19)
(-0.00725734 -0.00922898 8.74017e-19)
(0.00786938 -0.0345662 -4.07824e-20)
(0.0269136 -0.0631403 2.45842e-19)
(0.0500541 -0.0951063 -1.11787e-19)
(0.0773355 -0.130475 2.45366e-19)
(0.108647 -0.16902 -1.36248e-20)
(0.143665 -0.210214 3.07339e-19)
(0.181832 -0.25317 -8.06001e-20)
(0.222347 -0.296605 3.01987e-19)
(0.264157 -0.338876 -5.62249e-19)
(0.305774 -0.378124 -5.70878e-19)
(0.3455 -0.411418 4.70143e-19)
(0.392839 -0.429185 -2.05232e-19)
(-0.0116745 0.0239441 -5.48208e-19)
(-0.0251018 0.0520681 3.42583e-19)
(-0.0316333 0.0658327 -2.72365e-19)
(-0.0331613 0.068683 1.51773e-19)
(-0.0307337 0.0635253 -1.29951e-19)
(-0.024842 0.0525835 6.06522e-19)
(-0.0155747 0.037344 -4.93984e-20)
(-0.0027513 0.0186455 1.73377e-19)
(0.013942 -0.00316209 -1.54128e-19)
(0.0348491 -0.028032 4.04514e-19)
(0.060268 -0.0560466 -8.12997e-19)
(0.0903915 -0.0872842 -9.90934e-20)
(0.12525 -0.121679 -8.74485e-20)
(0.164683 -0.158957 3.79644e-19)
(0.208277 -0.19855 -4.9013e-19)
(0.25532 -0.239544 6.548e-20)
(0.304775 -0.28066 4.13916e-19)
(0.355276 -0.320312 1.92854e-19)
(0.405196 -0.356721 1.83928e-20)
(0.451523 -0.387905 -8.62219e-22)
(0.505821 -0.403944 -2.84879e-19)
(-0.012057 0.0228919 4.94263e-19)
(-0.0256706 0.0505811 -3.9386e-19)
(-0.0313241 0.0649259 2.51314e-19)
(-0.0310538 0.0687417 -7.1076e-20)
(-0.0259839 0.0645871 -4.96946e-19)
(-0.0166667 0.0545126 -5.69592e-19)
(-0.00325254 0.0399541 6.48218e-19)
(0.0143941 0.021777 -1.08246e-19)
(0.0365642 0.000405142 7.49697e-19)
(0.0635943 -0.0240225 -4.78367e-20)
(0.0957785 -0.0514954 2.22457e-20)
(0.133297 -0.0819999 3.21118e-19)
(0.176145 -0.1154 3.4623e-19)
(0.224076 -0.151354 4.90237e-19)
(0.276523 -0.189235 2.10374e-19)
(0.33254 -0.228088 1.51839e-21)
(0.390772 -0.266623 -7.39798e-20)
(0.449447 -0.303289 1.3348e-19)
(0.506802 -0.33625 3.49655e-19)
(0.558381 -0.364689 -2.63289e-19)
(0.617493 -0.377752 3.16593e-19)
(-0.0122233 0.0215053 -9.81956e-20)
(-0.0257834 0.0481523 -6.26787e-19)
(-0.0304641 0.0625642 -2.9234e-19)
(-0.028336 0.0669524 2.90746e-19)
(-0.0205451 0.0635229 -7.10119e-20)
(-0.00767751 0.0541361 -2.90128e-20)
(0.0100728 0.0401489 -4.73403e-19)
(0.0328037 0.0224324 1.26345e-19)
(0.0607828 0.0014687 -6.26691e-19)
(0.0943328 -0.0225197 -5.47007e-19)
(0.13373 -0.0494304 -3.44397e-19)
(0.179116 -0.0791567 -3.60015e-19)
(0.230404 -0.111478 4.30827e-20)
(0.287192 -0.14597 2.93436e-19)
(0.348673 -0.18194 5.84775e-19)
(0.413561 -0.218383 -9.03515e-20)
(0.480078 -0.253996 -4.13746e-19)
(0.545965 -0.287287 -3.44923e-19)
(0.609279 -0.316324 -4.26907e-20)
(0.664423 -0.341437 -1.8663e-19)
(0.725481 -0.350687 6.57152e-20)
(-0.0121856 0.0198777 4.69788e-19)
(-0.0254314 0.0449562 5.17793e-19)
(-0.0290088 0.0589351 3.42944e-19)
(-0.0249245 0.0634819 2.88467e-19)
(-0.014294 0.0604681 1.15571e-19)
(0.00229399 0.0515569 4.99739e-19)
(0.0246221 0.0380114 7.03278e-19)
(0.0527619 0.0206911 -8.08938e-19)
(0.0869591 0.000121577 7.28196e-19)
(0.127511 -0.0233989 -3.34054e-20)
(0.174653 -0.0496771 -3.16991e-19)
(0.228439 -0.0785094 5.14396e-20)
(0.288627 -0.10958 4.19178e-19)
(0.354562 -0.142375 2.95556e-19)
(0.425069 -0.176128 -3.62053e-19)
(0.4984 -0.209793 3.43244e-19)
(0.572253 -0.242078 -5.99094e-20)
(0.643862 -0.271592 -6.56674e-21)
(0.711025 -0.296371 7.73928e-20)
(0.767659 -0.317702 1.39709e-19)
(0.827381 -0.32284 -2.28138e-19)
(-0.0119657 0.0181003 -1.04941e-18)
(-0.0246172 0.0411759 3.58904e-19)
(-0.02691 0.0542531 -3.16498e-19)
(-0.0207069 0.0585432 -5.91555e-19)
(-0.00704728 0.0556188 -4.62242e-19)
(0.0135097 0.0469538 -2.42576e-19)
(0.0407452 0.0337117 -7.37369e-19)
(0.0747166 0.0167294 8.33651e-20)
(0.115645 -0.00343487 4.21972e-19)
(0.163784 -0.026413 3.30098e-20)
(0.219278 -0.0519214 3.93816e-19)
(0.282022 -0.0796563 3.67774e-19)
(0.351507 -0.109201 4.45412e-19)
(0.426686 -0.139954 6.95517e-19)
(0.50587 -0.171086 4.02408e-20)
(0.586725 -0.201537 -3.63168e-19)
(0.666365 -0.230077 -1.90497e-19)
(0.741599 -0.255454 -8.20653e-19)
(0.809925 -0.275858 -7.27305e-20)
(0.865635 -0.293182 -1.74766e-19)
(0.920719 -0.294512 2.15711e-19)
(-0.0115898 0.0162555 2.95421e-19)
(-0.0233471 0.0369887 4.26996e-19)
(-0.0241073 0.0487445 -2.64199e-19)
(-0.0155341 0.0523817 2.08748e-19)
(0.00144635 0.0492247 8.62786e-19)
(0.0263325 0.0405776 2.54516e-19)
(0.0589253 0.0275088 3.44244e-19)
(0.0992751 0.0108279 3.38065e-19)
(0.147566 -0.00887938 -7.37055e-19)
(0.203967 -0.031179 6.272e-20)
(0.268459 -0.0556981 7.6603e-20)
(0.340659 -0.0820332 7.00039e-19)
(0.419643 -0.109672 -6.49962e-19)
(0.503806 -0.13794 1.09004e-19)
(0.590797 -0.165979 -5.00665e-19)
(0.677617 -0.192765 2.92486e-19)
(0.760814 -0.217213 2.65569e-19)
(0.836986 -0.238223 -3.14796e-20)
(0.9034 -0.254432 -3.27029e-19)
(0.955631 -0.26779 -2.2819e-19)
(1.0032 -0.266211 7.84446e-20)
(-0.0110838 0.0144104 -1.66521e-19)
(-0.0216203 0.0325537 5.46979e-20)
(-0.0205179 0.0426315 -1.13803e-19)
(-0.0092118 0.0452611 -4.07353e-19)
(0.0115097 0.0415774 -8.22459e-20)
(0.0412248 0.0327443 3.0524e-19)
(0.0797677 0.0197481 4.6047e-19)
(0.127178 0.00337382 -8.69622e-20)
(0.183571 -0.0157662 5.77592e-20)
(0.248957 -0.0371745 6.19436e-19)
(0.323041 -0.0603933 -6.01934e-19)
(0.405005 -0.0849293 -1.90871e-19)
(0.493327 -0.110195 1.40154e-19)
(0.585675 -0.135478 -7.25506e-20)
(0.678935 -0.159947 4.45633e-19)
(0.769453 -0.182682 -1.275e-19)
(0.853363 -0.202828 4.85933e-20)
(0.92735 -0.219439 3.87136e-19)
(0.988678 -0.231947 4.09589e-19)
(1.03503 -0.241524 8.91687e-20)
(1.07294 -0.23844 1.29228e-19)
(-0.0104663 0.0126133 -6.34393e-20)
(-0.0194189 0.028002 -4.38494e-19)
(-0.0160271 0.0361203 -1.55206e-19)
(-0.00149605 0.0374493 -6.61995e-20)
(0.0235356 0.0329963 1.69661e-19)
(0.0587346 0.0238239 -2.43146e-19)
(0.10397 0.0108531 -3.31923e-19)
(0.159245 -0.00514612 -7.56863e-19)
(0.22454 -0.0235332 2.23584e-19)
(0.2996 -0.0437521 -8.60723e-19)
(0.383689 -0.0652718 6.93418e-19)
(0.475364 -0.0875333 -9.96123e-20)
(0.572321 -0.109915 -7.57783e-21)
(0.671377 -0.131724 -2.5984e-19)
(0.768654 -0.152227 -8.96383e-19)
(0.859991 -0.17068 4.63839e-19)
(0.941409 -0.18651 2.52215e-20)
(1.01 -0.198926 -1.80291e-20)
(1.06337 -0.208394 2.97993e-19)
(1.10181 -0.214159 1.25777e-19)
(1.12848 -0.211607 3.39188e-19)
(-0.00974359 0.0108918 -3.92733e-20)
(-0.0166981 0.0234312 -1.19928e-19)
(-0.0104827 0.02939 -5.47715e-19)
(0.00790443 0.0292053 -1.10269e-18)
(0.0379707 0.0238182 3.37752e-19)
(0.0794666 0.0142262 4.45902e-19)
(0.13227 0.00130951 8.09315e-20)
(0.196291 -0.0141648 5.9214e-19)
(0.271271 -0.0315278 -4.71861e-19)
(0.356529 -0.0501755 -7.37391e-19)
(0.450693 -0.0695302 -8.63494e-19)
(0.551494 -0.0890109 1.43508e-19)
(0.6557 -0.108023 4.14391e-19)
(0.759261 -0.125971 -3.03003e-19)
(0.857686 -0.142288 3.88463e-19)
(0.946624 -0.156463 -3.51854e-19)
(1.0224 -0.16819 2.10163e-19)
(1.08284 -0.176865 3.20998e-20)
(1.12627 -0.183792 1.62278e-19)
(1.15522 -0.185399 -5.67235e-19)
(1.16896 -0.187255 -4.56381e-19)
(-0.00890481 0.00925361 -1.9697e-19)
(-0.0133802 0.0189039 -5.77705e-19)
(-0.00369151 0.0225886 8.6567e-20)
(0.0193249 0.0207709 9.8287e-20)
(0.0552984 0.0143778 2.22911e-19)
(0.104037 0.00437918 9.37974e-19)
(0.165373 -0.00835913 -4.0513e-19)
(0.239021 -0.0230651 2.08949e-19)
(0.324333 -0.039047 3.99928e-19)
(0.419998 -0.0556767 -1.4353e-19)
(0.523798 -0.0723738 4.04816e-19)
(0.632473 -0.0886005 -8.70321e-19)
(0.741819 -0.103868 4.99263e-19)
(0.847052 -0.117754 3.4921e-20)
(0.943394 -0.129918 -3.42293e-19)
(1.02675 -0.140092 -1.41174e-19)
(1.09423 -0.148179 1.64559e-19)
(1.14466 -0.153777 -5.7444e-19)
(1.17767 -0.158288 4.62428e-19)
(1.1967 -0.156368 -5.85859e-19)
(1.19611 -0.168832 -3.9871e-20)
(-0.00791991 0.00768914 8.07231e-19)
(-0.0093519 0.014451 6.17962e-20)
(0.00457594 0.0158307 -2.5824e-20)
(0.0331257 0.012361 -5.94181e-19)
(0.0760065 0.00499628 -2.70158e-19)
(0.133025 -0.00528591 -4.40287e-19)
(0.203872 -0.017617 3.90249e-20)
(0.287922 -0.0312173 5.32932e-19)
(0.383934 -0.04539 -1.38068e-19)
(0.489751 -0.059524 1.93129e-20)
(0.602116 -0.0731012 -4.63592e-19)
(0.716701 -0.0857071 -7.6592e-19)
(0.828441 -0.097041 1.64394e-19)
(0.932131 -0.106913 -5.51794e-19)
(1.02316 -0.115225 4.81986e-19)
(1.09818 -0.121928 4.42204e-19)
(1.15546 -0.127056 3.71144e-19)
(1.1951 -0.130359 -2.30924e-20)
(1.21815 -0.132712 -2.45808e-20)
(1.22797 -0.130271 5.72218e-19)
(1.22328 -0.137404 -7.47085e-20)
(-0.00673948 0.00617674 -2.64216e-19)
(-0.00446647 0.0100793 -8.49579e-19)
(0.0145768 0.00920348 -2.60839e-19)
(0.0496739 0.00416626 -1.60591e-19)
(0.100547 -0.00402192 6.19044e-19)
(0.166908 -0.0143518 -1.95384e-19)
(0.248166 -0.0259428 8.62005e-19)
(0.343161 -0.038018 -8.8667e-20)
(0.44983 -0.0499111 -2.22762e-19)
(0.564958 -0.0610896 1.06298e-19)
(0.684135 -0.0711782 7.09368e-19)
(0.802036 -0.0799702 -5.80382e-20)
(0.913018 -0.0874156 1.17683e-18)
(1.01192 -0.0935791 7.25961e-19)
(1.0948 -0.098579 4.17677e-19)
(1.15949 -0.102512 2.35601e-19)
(1.20563 -0.105462 3.76186e-19)
(1.23459 -0.107204 1.68072e-19)
(1.24847 -0.108371 -3.14053e-19)
(1.25108 -0.105785 5.00931e-19)
(1.24257 -0.11147 4.38945e-19)
(-0.00529705 0.0046889 -5.56611e-19)
(0.00144983 0.00578214 6.26729e-19)
(0.0265833 0.00277528 4.19921e-19)
(0.0693203 -0.00364328 -3.46275e-19)
(0.129303 -0.0123944 3.35107e-19)
(0.206015 -0.0224262 -1.33432e-19)
(0.2984 -0.032851 -4.60876e-19)
(0.404529 -0.042924 7.33675e-19)
(0.521287 -0.0520659 -2.31022e-19)
(0.644247 -0.0599023 1.97478e-19)
(0.767863 -0.0662872 5.48985e-19)
(0.886052 -0.0712896 3.83496e-19)
(0.993042 -0.0751362 -5.22283e-19)
(1.08424 -0.0781196 -3.73891e-19)
(1.15685 -0.0805019 6.79783e-20)
(1.21013 -0.0824345 1.74825e-19)
(1.24511 -0.0839618 -3.64475e-19)
(1.26422 -0.0848359 1.71447e-19)
(1.27033 -0.085423 1.26873e-19)
(1.2673 -0.0831042 -3.33935e-19)
(1.25556 -0.087674 4.47291e-19)
(-0.00351341 0.00319891 3.42486e-19)
(0.00858802 0.00155157 3.89212e-19)
(0.0408672 -0.00339139 2.27552e-19)
(0.092376 -0.0109083 2.87287e-19)
(0.162554 -0.0198559 -4.02147e-19)
(0.250487 -0.0291449 -4.18713e-19)
(0.354423 -0.0379057 7.60639e-20)
(0.471419 -0.0454772 -2.63397e-19)
(0.597115 -0.0514442 -8.49453e-20)
(0.725822 -0.0556795 5.75133e-19)
(0.851042 -0.0583409 -6.66625e-19)
(0.966349 -0.0598061 2.59799e-19)
(1.06638 -0.0605547 -3.46617e-19)
(1.14761 -0.0610339 -5.76839e-19)
(1.20871 -0.0615516 6.75062e-19)
(1.2504 -0.0622198 3.07817e-19)
(1.27495 -0.0629799 -9.60903e-20)
(1.28552 -0.0635228 -2.06735e-20)
(1.28539 -0.0639766 9.49967e-20)
(1.27816 -0.0622251 -2.31617e-19)
(1.26483 -0.0661198 -9.97991e-20)
(-0.00130185 0.0016871 -3.2384e-20)
(0.0171452 -0.00260863 -1.7939e-19)
(0.0576833 -0.00922538 7.49402e-19)
(0.119092 -0.0174672 2.64031e-19)
(0.200455 -0.0261497 -9.24837e-21)
(0.300251 -0.0341711 -9.05652e-20)
(0.41578 -0.0407289 2.64864e-19)
(0.542856 -0.0453208 1.89656e-19)
(0.67576 -0.0477877 -6.34102e-19)
(0.807646 -0.0483331 -2.4893e-19)
(0.931419 -0.0474627 -6.1254e-19)
(1.04084 -0.0458466 -8.8933e-19)
(1.13149 -0.0441445 8.73645e-19)
(1.20131 -0.042855 -8.02009e-19)
(1.25053 -0.0422308 -4.32599e-19)
(1.28123 -0.0422693 2.48949e-19)
(1.29657 -0.0427753 -3.50708e-20)
(1.30013 -0.0433651 -2.81268e-19)
(1.29527 -0.0439759 1.10979e-19)
(1.28518 -0.0428796 -7.30291e-22)
(1.27078 -0.0464872 1.19943e-19)
(0.00142638 0.000145684 -4.67945e-19)
(0.0273129 -0.00667243 -1.08349e-19)
(0.0772547 -0.0146335 -2.9082e-19)
(0.149639 -0.0231436 1.13679e-19)
(0.243016 -0.0310184 5.05129e-19)
(0.35501 -0.037193 1.87132e-19)
(0.481728 -0.0410056 1.92719e-19)
(0.61756 -0.0422082 -8.98509e-19)
(0.755442 -0.0409928 1.84616e-19)
(0.887647 -0.0379535 1.44009e-19)
(1.00698 -0.0339412 -3.59479e-19)
(1.10796 -0.0298504 1.38236e-19)
(1.18757 -0.0264134 5.1966e-19)
(1.24537 -0.0240695 1.70361e-19)
(1.2831 -0.0229325 6.61461e-19)
(1.3039 -0.0228416 4.05196e-19)
(1.31151 -0.0234599 -8.43835e-20)
(1.3096 -0.0243388 4.95247e-19)
(1.30132 -0.0252687 -8.14904e-20)
(1.28938 -0.0248942 -1.11868e-20)
(1.27469 -0.0283272 -7.40902e-20)
(0.00475708 -0.00141807 6.65256e-20)
(0.0392659 -0.0105836 3.34878e-19)
(0.0997583 -0.0194905 -1.27077e-19)
(0.184098 -0.027736 -2.38187e-19)
(0.29009 -0.0341983 3.95297e-20)
(0.414255 -0.0379231 2.57697e-19)
(0.551275 -0.0384881 -9.8506e-20)
(0.694042 -0.0360065 2.43385e-20)
(0.834315 -0.0311015 -2.01982e-19)
(0.963922 -0.0247764 2.21306e-20)
(1.07614 -0.0181713 1.92972e-19)
(1.16676 -0.0122959 -4.61205e-19)
(1.23443 -0.00783402 -1.22416e-19)
(1.28036 -0.00506944 2.04271e-19)
(1.30754 -0.0039241 -8.24569e-19)
(1.31984 -0.00406606 -5.78934e-20)
(1.32123 -0.00503615 2.51172e-19)
(1.31522 -0.00634176 -2.60496e-20)
(1.30463 -0.00768062 2.39408e-19)
(1.29162 -0.00801241 5.42115e-20)
(1.27696 -0.0113928 -3.56897e-20)
(0.00876907 -0.00298059 -9.69222e-20)
(0.0531527 -0.014252 6.55267e-20)
(0.125313 -0.0236333 3.56956e-19)
(0.222443 -0.0310143 3.02167e-19)
(0.341374 -0.0354192 -2.51526e-19)
(0.477274 -0.0361043 -2.20447e-19)
(0.623238 -0.0330038 3.72463e-19)
(0.770713 -0.0266954 -1.60495e-19)
(0.910619 -0.0182814 -1.1446e-19)
(1.03489 -0.0091391 5.28405e-20)
(1.13783 -0.000593842 1.20713e-19)
(1.21688 0.00635999 -5.45936e-19)
(1.27246 0.0111993 -2.00122e-19)
(1.30723 0.0138638 -9.88505e-20)
(1.32513 0.0146436 -3.98349e-19)
(1.33042 0.0140274 3.85705e-19)
(1.327 0.0125638 7.06219e-20)
(1.31806 0.0107624 2.76841e-19)
(1.30598 0.00897407 -6.70987e-20)
(1.29244 0.00795688 7.64332e-20)
(1.27807 0.00458259 -1.97154e-19)
(0.013531 -0.00450225 5.06165e-19)
(0.0690869 -0.0175534 1.2256e-20)
(0.153967 -0.026862 -2.73044e-19)
(0.264534 -0.0327227 1.91573e-19)
(0.396407 -0.0344121 -4.78166e-19)
(0.543183 -0.0315198 8.51512e-20)
(0.696309 -0.0244612 -1.03277e-19)
(0.845998 -0.0143607 8.22213e-19)
(0.98281 -0.00279706 5.50786e-19)
(1.09937 0.00856649 4.54582e-19)
(1.1915 0.0183556 6.60651e-20)
(1.25848 0.0257215 3.85323e-19)
(1.3024 0.0303889 2.16035e-19)
(1.32711 0.0325546 -1.33031e-19)
(1.33715 0.0327124 -7.76419e-20)
(1.33684 0.0314756 -2.19453e-19)
(1.32982 0.0294436 1.39272e-19)
(1.31888 0.0271183 2.96409e-19)
(1.30593 0.0248607 6.78619e-20)
(1.29222 0.023193 1.30317e-19)
(1.27822 0.0197745 1.52819e-19)
(0.0190987 -0.00592875 -5.42043e-19)
(0.0871395 -0.0203324 4.18263e-19)
(0.185689 -0.0289448 -1.77044e-19)
(0.310109 -0.0325892 -7.68503e-20)
(0.454577 -0.0309226 -8.84331e-20)
(0.610963 -0.024007 -1.2176e-19)
(0.769137 -0.0128554 -2.60311e-19)
(0.918441 0.000820103 -1.36854e-19)
(1.04965 0.0150229 -1.6335e-19)
(1.15663 0.0279361 -1.05536e-20)
(1.23706 0.0382837 -7.92504e-20)
(1.29207 0.0454733 4.86322e-19)
(1.3252 0.0495315 8.95822e-20)
(1.34116 0.0509144 1.42367e-19)
(1.34473 0.0502888 4.0765e-19)
(1.34009 0.0483522 -3.00728e-19)
(1.33049 0.0457178 -2.61181e-20)
(1.31823 0.0428596 -3.13586e-19)
(1.30483 0.0401214 -2.89833e-19)
(1.29117 0.0378316 -1.64831e-19)
(1.27758 0.0343302 -2.10174e-19)
(0.0255131 -0.00719326 2.05154e-19)
(0.107332 -0.0224091 -6.06281e-20)
(0.220363 -0.0296288 3.38878e-20)
(0.358788 -0.0303404 -6.44203e-20)
(0.515143 -0.0247281 1.7295e-19)
(0.679511 -0.0134699 9.41237e-20)
(0.840402 0.00173418 -5.51683e-19)
(0.986787 0.0185977 2.82562e-19)
(1.11026 0.0348194 -9.56082e-20)
(1.20637 0.0485868 9.27957e-19)
(1.2748 0.0588599 -3.96866e-19)
(1.3184 0.0653837 5.08769e-20)
(1.34187 0.0685059 3.14993e-19)
(1.35043 0.0689181 -2.12011e-19)
(1.34884 0.067418 -3.01135e-19)
(1.34094 0.0647449 1.86699e-19)
(1.32954 0.061495 5.91928e-21)
(1.31649 0.0581007 -1.1284e-19)
(1.30292 0.0548698 -4.35614e-19)
(1.28943 0.0519817 3.79228e-21)
(1.27622 0.0483541 -1.67681e-19)
(0.032798 -0.00821887 5.26992e-20)
(0.129634 -0.023586 -5.22303e-20)
(0.257779 -0.0286524 4.23526e-19)
(0.410072 -0.0257181 -1.88373e-20)
(0.577258 -0.0156542 -3.053e-19)
(0.747693 0.000112802 1.5135e-19)
(0.908892 0.0191515 -5.56451e-20)
(1.05004 0.0386748 -1.38053e-19)
(1.16409 0.0562322 2.26867e-19)
(1.2486 0.0701787 -3.5461e-19)
(1.30523 0.079824 -2.92071e-19)
(1.33834 0.085296 2.35223e-20)
(1.35341 0.0872532 -2.22301e-19)
(1.35587 0.0865817 2.13368e-19)
(1.35026 0.0841629 2.88335e-20)
(1.33999 0.0807398 4.67472e-20)
(1.32738 0.0768688 -6.70549e-20)
(1.31389 0.072933 1.17183e-19)
(1.30032 0.0691938 2.57588e-19)
(1.28705 0.0657234 -1.38822e-19)
(1.27419 0.0619251 1.37228e-19)
(0.0409581 -0.00892129 -4.65951e-20)
(0.153953 -0.0236566 1.77755e-19)
(0.297637 -0.0257593 2.82922e-19)
(0.463359 -0.0184968 -9.54178e-20)
(0.640006 -0.00358864 -2.02569e-19)
(0.814401 0.0166859 1.72822e-19)
(0.973559 0.0391779 -6.28727e-20)
(1.10748 0.0607301 -3.76827e-20)
(1.21093 0.0789215 4.8217e-19)
(1.28363 0.0924255 6.94925e-20)
(1.32905 0.100982 -1.23849e-19)
(1.35275 0.105114 -4.84815e-20)
(1.3607 0.105758 3.59279e-19)
(1.35825 0.103943 -7.3359e-20)
(1.34958 0.100589 2.04962e-19)
(1.33761 0.0964116 -2.32104e-19)
(1.32424 0.0919134 2.36014e-19)
(1.31055 0.0874254 -1.23132e-19)
(1.2971 0.0831574 5.83441e-20)
(1.28408 0.0791152 5.66891e-20)
(1.27151 0.075098 -6.48688e-20)
(0.0499769 -0.00921173 1.4662e-19)
(0.18014 -0.0224149 6.0826e-20)
(0.33955 -0.0207122 -5.53464e-20)
(0.51796 -0.00849786 2.23892e-19)
(0.702439 0.0115108 2.83082e-19)
(0.878607 0.036123 -3.84166e-19)
(1.03355 0.0615497 -1.37754e-19)
(1.15865 0.0844384 2.98877e-19)
(1.25082 0.102582 -3.24254e-19)
(1.3119 0.115096 -1.01566e-19)
(1.34698 0.122198 -1.27261e-19)
(1.36245 0.124788 -8.09845e-20)
(1.36449 0.124029 -9.7882e-21)
(1.35817 0.121046 3.54589e-20)
(1.34723 0.116754 -5.51846e-20)
(1.33411 0.111819 1.13548e-19)
(1.32028 0.106683 5.58448e-20)
(1.30656 0.101626 6.2159e-20)
(1.29328 0.0968052 2.27369e-19)
(1.28052 0.0921964 -5.11524e-21)
(1.26821 0.0879097 -1.09844e-19)
(0.0598155 -0.00899995 -2.96707e-19)
(0.207985 -0.0196637 1.468e-19)
(0.383051 -0.013306 -2.48089e-19)
(0.57313 0.00439887 8.75676e-20)
(0.763622 0.0296136 1.50252e-19)
(0.939401 0.0582359 1.16669e-19)
(1.08823 0.0859754 -2.38685e-20)
(1.20335 0.109487 -1.76266e-19)
(1.28399 0.126948 2.63401e-19)
(1.33399 0.138011 2.31089e-20)
(1.35976 0.14338 -1.89905e-19)
(1.36819 0.144293 8.89444e-21)
(1.36541 0.142089 1.68381e-19)
(1.35611 0.137931 -7.89453e-20)
(1.34352 0.132702 9.77302e-20)
(1.32964 0.127003 -1.19187e-19)
(1.31559 0.121212 4.02004e-20)
(1.30193 0.115563 1.84211e-21)
(1.28887 0.110164 1.71172e-19)
(1.27637 0.10499 -7.45204e-20)
(1.26429 0.100382 3.1774e-20)
(0.0704118 -0.00819742 6.818e-20)
(0.237221 -0.0152237 4.08605e-21)
(0.427609 -0.0033781 1.3761e-19)
(0.628091 0.0202482 -8.54782e-20)
(0.822671 0.0506196 -8.72628e-20)
(0.996017 0.0827879 -2.97779e-20)
(1.13716 0.112151 -1.1079e-20)
(1.24157 0.135583 3.43055e-19)
(1.3108 0.151796 -3.96781e-20)
(1.35051 0.161031 -1.8485e-19)
(1.36804 0.164466 1.82957e-21)
(1.37057 0.163624 3.14775e-20)
(1.36395 0.159958 -1.12068e-19)
(1.3524 0.15463 -6.06812e-21)
(1.33865 0.148463 -1.20639e-19)
(1.3243 0.141987 -1.73368e-19)
(1.31019 0.13552 -1.0159e-19)
(1.29669 0.129252 -1.97751e-19)
(1.28386 0.123249 -4.99107e-20)
(1.27163 0.117507 3.63987e-20)
(1.25975 0.112523 1.60504e-20)
(0.0816804 -0.00672067 -7.71318e-20)
(0.267529 -0.0089414 -1.04627e-19)
(0.472645 0.00918285 -2.87343e-19)
(0.682062 0.0390368 4.76709e-20)
(0.878779 0.0743652 1.80267e-19)
(1.04785 0.109507 8.35347e-20)
(1.1801 0.139773 -2.12184e-19)
(1.27345 0.162462 9.86141e-20)
(1.3317 0.176937 -2.34522e-20)
(1.36203 0.184051 -1.36587e-20)
(1.37245 0.185416 -7.13451e-20)
(1.3701 0.182779 9.30761e-20)
(1.36047 0.177652 -2.57264e-20)
(1.34727 0.171159 2.03323e-20)
(1.33275 0.164049 1.58638e-20)
(1.31816 0.156778 -2.3398e-21)
(1.30411 0.149609 -2.90076e-21)
(1.2908 0.142693 -9.11864e-20)
(1.27824 0.136059 -8.03967e-20)
(1.26627 0.129745 6.67035e-20)
(1.2546 0.124333 -5.289e-20)
(0.0935136 -0.00449456 2.13283e-19)
(0.298548 -0.000696571 9.69419e-20)
(0.517549 0.0244309 1.02508e-19)
(0.734289 0.0606837 -3.63991e-20)
(0.931242 0.100633 1.57455e-19)
(1.09445 0.138096 -1.50928e-19)
(1.21695 0.168544 7.92431e-20)
(1.29923 0.189885 5.80364e-20)
(1.34716 0.202212 6.1663e-21)
(1.36911 0.206987 -4.7235e-20)
(1.37348 0.206198 -3.2919e-20)
(1.3672 0.201753 4.33113e-20)
(1.35527 0.195175 -7.91504e-21)
(1.34089 0.187522 3.2398e-20)
(1.3259 0.179458 -4.54944e-20)
(1.31123 0.171369 -8.22997e-20)
(1.29732 0.16347 -2.5251e-20)
(1.28426 0.155876 5.40267e-20)
(1.27199 0.148587 -5.94809e-20)
(1.2603 0.141693 3.52076e-20)
(1.24885 0.135803 8.20693e-21)
(0.105783 -0.00145542 -6.1158e-20)
(0.329882 0.00959223 -8.61112e-20)
(0.561702 0.04236 -8.58217e-20)
(0.784064 0.0850448 -5.84668e-20)
(0.97947 0.129162 -2.58776e-20)
(1.13551 0.168247 6.55365e-20)
(1.24776 0.19818 -1.97886e-20)
(1.31924 0.217636 3.43483e-20)
(1.35765 0.227487 -9.32679e-20)
(1.37226 0.229769 6.05518e-20)
(1.37156 0.226782 1.79243e-20)
(1.36216 0.220536 3.16991e-20)
(1.34852 0.212519 -2.64548e-20)
(1.33336 0.203705 3.14498e-20)
(1.31812 0.194674 1.68005e-20)
(1.30351 0.185742 8.12996e-21)
(1.28981 0.177084 -7.6254e-21)
(1.27705 0.168783 -4.95241e-20)
(1.26508 0.160815 4.73417e-20)
(1.2537 0.153329 -1.42169e-20)
(1.2425 0.146916 -1.46213e-20)
(0.118344 0.0024461 -1.36157e-21)
(0.361111 0.0219631 -2.88417e-20)
(0.604491 0.062903 9.30035e-21)
(0.830748 0.111919 -5.76348e-21)
(1.02299 0.159656 1.37005e-20)