# Probe 0 (5 -0.5 0)
# Probe 1 (5 0.5 0)
#       Probe             0             1
#        Time
        0.005      -1.54584      -1.54584
         0.01      0.274144      0.274144
        0.015    -0.0563032    -0.0563032
         0.02    -0.0323175    -0.0323176
        0.025    -0.0273646    -0.0273646
         0.03    -0.0236651    -0.0236651
        0.035    -0.0207142    -0.0207142
         0.04    -0.0183126    -0.0183126
        0.045    -0.0163239    -0.0163239
         0.05    -0.0146084    -0.0146084
        0.055    -0.0131556    -0.0131556
         0.06    -0.0118927    -0.0118927
        0.065    -0.0107784    -0.0107784
         0.07   -0.00979757   -0.00979756
        0.075   -0.00893489   -0.00893489
         0.08   -0.00816929    -0.0081693
        0.085   -0.00748396   -0.00748396
         0.09    -0.0068666    -0.0068666
        0.095   -0.00630984   -0.00630984
          0.1   -0.00580307   -0.00580307
        0.105   -0.00533641   -0.00533641
         0.11   -0.00490277   -0.00490277
        0.115   -0.00451622   -0.00451622
         0.12   -0.00416809   -0.00416809
        0.125   -0.00385853   -0.00385853
         0.13   -0.00354755   -0.00354755
        0.135    -0.0032538    -0.0032538
         0.14   -0.00298012   -0.00298012
        0.145   -0.00272481   -0.00272481
         0.15   -0.00248741   -0.00248741
        0.155   -0.00226628   -0.00226628
         0.16   -0.00205817   -0.00205817
        0.165   -0.00186281   -0.00186281
         0.17   -0.00167911   -0.00167911
        0.175   -0.00150608   -0.00150608
         0.18   -0.00134313   -0.00134313
        0.185   -0.00118933   -0.00118933
         0.19   -0.00104399   -0.00104399
        0.195  -0.000906603  -0.000906603
          0.2  -0.000776497  -0.000776497
        0.205  -0.000653503  -0.000653503
         0.21  -0.000536695  -0.000536694
        0.215  -0.000427693  -0.000427693
         0.22  -0.000322817  -0.000322817
        0.225  -0.000223498  -0.000223498
         0.23  -0.000129373  -0.000129372
        0.235  -3.82666e-05   -3.8266e-05
         0.24   4.36222e-05   4.36228e-05
        0.245   0.000124433   0.000124433
         0.25   0.000201638   0.000201639
        0.255   0.000275093   0.000275094
         0.26   0.000344954   0.000344954
        0.265   0.000411505   0.000411507
         0.27   0.000474978   0.000474979
        0.275   0.000535099   0.000535109
         0.28   0.000591514   0.000591514
        0.285   0.000644885   0.000644885
         0.29   0.000696278   0.000696279
        0.295   0.000744943   0.000744944
          0.3   0.000791556   0.000791556
        0.305   0.000835453   0.000835452
         0.31   0.000877167   0.000877166
        0.315   0.000916614   0.000916612
         0.32   0.000953306   0.000953308
        0.325   0.000990518    0.00099052
         0.33    0.00102733    0.00102732
        0.335    0.00106042    0.00106042
         0.34    0.00109186    0.00109186
        0.345    0.00112179    0.00112179
         0.35    0.00115048    0.00115048
        0.355    0.00117773    0.00117773
         0.36    0.00120357    0.00120358
        0.365     0.0012279     0.0012279
         0.37    0.00125098    0.00125098
        0.375    0.00127204    0.00127204
         0.38    0.00128933    0.00128932
        0.385    0.00130991    0.00130991
         0.39      0.001339      0.001339
        0.395    0.00137369    0.00137369
          0.4    0.00139374    0.00139374
        0.405    0.00141274    0.00141274
         0.41    0.00143122    0.00143123
        0.415    0.00144916    0.00144916
         0.42    0.00146659    0.00146659
        0.425    0.00148362    0.00148362
         0.43    0.00149999    0.00149999
        0.435    0.00151608    0.00151608
         0.44    0.00153174    0.00153174
        0.445    0.00154699    0.00154699
         0.45    0.00156202    0.00156202
        0.455    0.00157684    0.00157684
         0.46    0.00159108    0.00159108
        0.465    0.00160419    0.00160419
         0.47    0.00161758    0.00161758
        0.475    0.00163102    0.00163102
         0.48    0.00164414    0.00164414
        0.485    0.00165699    0.00165699
         0.49    0.00166969    0.00166969
        0.495    0.00168243    0.00168243
          0.5    0.00169506    0.00169506
        0.505    0.00170764    0.00170764
         0.51    0.00172023    0.00172023
        0.515    0.00173258    0.00173259
         0.52    0.00174867    0.00174867
        0.525    0.00176359    0.00176359
         0.53    0.00176763    0.00176763
        0.535    0.00176851    0.00176851
         0.54    0.00177618    0.00177618
        0.545    0.00178565    0.00178565
         0.55    0.00179475    0.00179475
        0.555    0.00180452    0.00180452
         0.56    0.00181542    0.00181541
        0.565     0.0018276     0.0018276
         0.57    0.00183831    0.00183831
        0.575    0.00184727    0.00184727
         0.58     0.0018563     0.0018563
        0.585    0.00186516    0.00186516
         0.59    0.00187403    0.00187403
        0.595    0.00188289    0.00188289
          0.6    0.00189159    0.00189159
        0.605    0.00190033    0.00190033
         0.61    0.00190929    0.00190929
        0.615    0.00191759    0.00191759
         0.62    0.00192625    0.00192625
        0.625    0.00193495    0.00193495
         0.63    0.00194376    0.00194376
        0.635    0.00195263    0.00195263
         0.64    0.00196185    0.00196185
        0.645    0.00197196    0.00197196
         0.65    0.00198397    0.00198397
        0.655    0.00198533    0.00198533
         0.66    0.00198562    0.00198562
        0.665    0.00199157    0.00199157
         0.67    0.00199984    0.00199984
        0.675    0.00200841    0.00200841
         0.68    0.00201666    0.00201666
        0.685      0.002025      0.002025
         0.69    0.00203337    0.00203337
        0.695    0.00204146    0.00204146
          0.7    0.00204936    0.00204936
        0.705    0.00205737    0.00205737
         0.71    0.00206567    0.00206567
        0.715     0.0020742     0.0020742
         0.72    0.00208231    0.00208231
        0.725    0.00209016    0.00209016
         0.73    0.00209835    0.00209835
        0.735    0.00210654    0.00210655
         0.74    0.00211467    0.00211467
        0.745    0.00212292    0.00212293
         0.75    0.00213158    0.00213158
        0.755    0.00214134    0.00214134
         0.76    0.00214809    0.00214809
        0.765     0.0021509     0.0021509
         0.77    0.00215344    0.00215344
        0.775    0.00216348    0.00216348
         0.78    0.00217185    0.00217185
        0.785    0.00218001    0.00218001
         0.79    0.00218812    0.00218812
        0.795    0.00219617    0.00219617
          0.8    0.00220422    0.00220422
        0.805    0.00221228    0.00221228
         0.81    0.00222039    0.00222039
        0.815     0.0022286     0.0022286
         0.82    0.00223677    0.00223677
        0.825    0.00224476    0.00224476
         0.83    0.00225299    0.00225299
        0.835    0.00226154    0.00226153
         0.84     0.0022701     0.0022701
        0.845     0.0022794     0.0022794
         0.85    0.00229005    0.00229005
        0.855    0.00229359    0.00229359
         0.86    0.00229662    0.00229661
        0.865    0.00230423    0.00230423
         0.87     0.0023131     0.0023131
        0.875    0.00232266    0.00232266
         0.88     0.0023313     0.0023313
        0.885    0.00233961    0.00233961
         0.89    0.00234813    0.00234813
        0.895    0.00235666    0.00235666
          0.9    0.00236537    0.00236537
        0.905    0.00237428    0.00237428
         0.91     0.0023829     0.0023829
        0.915    0.00239188    0.00239188
         0.92    0.00240103    0.00240103
        0.925    0.00241103    0.00241102
         0.93    0.00242043    0.00242043
        0.935    0.00242533    0.00242533
         0.94    0.00242939    0.00242939
        0.945     0.0024391     0.0024391
         0.95    0.00245018    0.00245018
        0.955    0.00246123    0.00246123
         0.96    0.00247004    0.00247004
        0.965    0.00247958    0.00247958
         0.97    0.00248814    0.00248814
        0.975    0.00249749    0.00249749
         0.98    0.00250747    0.00250747
        0.985    0.00251656    0.00251656
         0.99    0.00252673    0.00252673
        0.995    0.00253655    0.00253655
            1    0.00254386    0.00254386
        1.005    0.00255061    0.00255061
         1.01    0.00255998    0.00255998
        1.015    0.00257021    0.00257021
         1.02    0.00257968    0.00257968
        1.025    0.00259011    0.00259011
         1.03    0.00259995    0.00259995
        1.035    0.00261002    0.00261002
         1.04    0.00262027    0.00262027
        1.045    0.00263098    0.00263098
         1.05    0.00264051    0.00264051
        1.055    0.00264931    0.00264931
         1.06    0.00265719    0.00265719
        1.065     0.0026674     0.0026674
         1.07      0.002678      0.002678
        1.075    0.00268754    0.00268754
         1.08    0.00269715    0.00269715
        1.085    0.00270765    0.00270765
         1.09    0.00271896    0.00271896
        1.095    0.00272743    0.00272743
          1.1    0.00273728    0.00273728
        1.105    0.00274856    0.00274856
         1.11    0.00275833    0.00275833
        1.115     0.0027694     0.0027694
         1.12     0.0027795     0.0027795
        1.125    0.00279074    0.00279074
         1.13    0.00280146    0.00280146
        1.135    0.00281194    0.00281194
         1.14     0.0028215     0.0028215
        1.145    0.00283197    0.00283197
         1.15    0.00284245    0.00284245
        1.155    0.00285247    0.00285248
         1.16    0.00286255    0.00286255
        1.165    0.00287274    0.00287274
         1.17    0.00288344    0.00288344
        1.175    0.00289438    0.00289438
         1.18    0.00290476    0.00290476
        1.185    0.00291624    0.00291624
         1.19    0.00292622    0.00292622
        1.195    0.00293752    0.00293752
          1.2    0.00294775    0.00294775
        1.205    0.00295875    0.00295875
         1.21    0.00296932    0.00296932
        1.215    0.00298016    0.00298016
         1.22    0.00299107    0.00299107
        1.225    0.00300208    0.00300208
         1.23    0.00301336    0.00301336
        1.235    0.00302436    0.00302437
         1.24    0.00303588    0.00303588
        1.245    0.00304676    0.00304676
         1.25    0.00305772    0.00305772
        1.255    0.00306872    0.00306872
         1.26    0.00307882    0.00307882
        1.265    0.00308986    0.00308986
         1.27    0.00310069    0.00310069
        1.275    0.00311114    0.00311114
         1.28    0.00312238    0.00312238
        1.285    0.00313368    0.00313368
         1.29    0.00314453    0.00314454
        1.295     0.0031554     0.0031554
          1.3    0.00316639    0.00316639
        1.305    0.00317748    0.00317748
         1.31    0.00318946    0.00318946
        1.315     0.0031994     0.0031994
         1.32       0.00321       0.00321
        1.325      0.003221      0.003221
         1.33    0.00323197    0.00323197
        1.335    0.00324217    0.00324218
         1.34    0.00325417    0.00325417
        1.345    0.00326623    0.00326623
         1.35     0.0032785     0.0032785
        1.355    0.00328942    0.00328942
         1.36    0.00330113    0.00330113
        1.365    0.00331113    0.00331113
         1.37    0.00332207    0.00332207
        1.375    0.00333323    0.00333323
         1.38    0.00334371    0.00334371
        1.385    0.00335489    0.00335489
         1.39    0.00336593    0.00336593
        1.395      0.003377      0.003377
          1.4    0.00338824    0.00338824
        1.405    0.00339953    0.00339953
         1.41    0.00341125    0.00341125
        1.415    0.00342193    0.00342194
         1.42    0.00343323    0.00343323
        1.425    0.00344501    0.00344501
         1.43    0.00345554    0.00345554
        1.435    0.00346756    0.00346757
         1.44    0.00347911    0.00347911
        1.445    0.00349085    0.00349085
         1.45    0.00350084    0.00350084
        1.455    0.00351196    0.00351196
         1.46    0.00352319    0.00352319
        1.465    0.00353475    0.00353475
         1.47    0.00354606    0.00354605
        1.475    0.00355741    0.00355741
         1.48    0.00356816    0.00356816
        1.485    0.00357958    0.00357958
         1.49    0.00359087    0.00359086
        1.495    0.00360224    0.00360225
          1.5    0.00361364    0.00361364
        1.505    0.00362512    0.00362512
         1.51    0.00363651    0.00363651
        1.515    0.00364885    0.00364886
         1.52     0.0036587     0.0036587
        1.525    0.00367067    0.00367067
         1.53    0.00368282    0.00368282
        1.535    0.00369491    0.00369491
         1.54    0.00370637    0.00370637
        1.545    0.00371784    0.00371784
         1.55    0.00372946    0.00372946
        1.555    0.00374293    0.00374293
         1.56    0.00375224    0.00375224
        1.565    0.00376358    0.00376358
         1.57    0.00377475    0.00377475
        1.575    0.00378664    0.00378664
         1.58    0.00379903    0.00379903
        1.585    0.00381021    0.00381021
         1.59    0.00382148    0.00382148
        1.595    0.00383314    0.00383314
          1.6    0.00384466    0.00384466
        1.605    0.00385643    0.00385645
         1.61    0.00386827    0.00386825
        1.615    0.00388009     0.0038801
         1.62     0.0038919    0.00389189
        1.625    0.00390382    0.00390383
         1.63    0.00391642    0.00391641
        1.635    0.00392736    0.00392737
         1.64     0.0039391    0.00393909
        1.645    0.00395106    0.00395107
         1.65    0.00396274    0.00396274
        1.655    0.00397473    0.00397473
         1.66    0.00398662    0.00398664
        1.665    0.00399865    0.00399864
         1.67    0.00401058    0.00401059
        1.675    0.00402267    0.00402267
         1.68    0.00403605    0.00403605
        1.685    0.00404759    0.00404759
         1.69    0.00405907    0.00405907
        1.695    0.00407167    0.00407169
          1.7     0.0040849     0.0040849
        1.705     0.0040985     0.0040985
         1.71    0.00410714    0.00410713
        1.715    0.00412006    0.00412007
         1.72    0.00413221    0.00413221
        1.725    0.00414407    0.00414407
         1.73    0.00415676    0.00415676
        1.735     0.0041691     0.0041691
         1.74    0.00418154    0.00418154
        1.745      0.004194      0.004194
         1.75    0.00420668    0.00420668
        1.755     0.0042211    0.00422111
         1.76    0.00422951     0.0042295
        1.765    0.00424175    0.00424175
         1.77    0.00425457    0.00425457
        1.775    0.00426741    0.00426741
         1.78    0.00428016    0.00428016
        1.785    0.00429259    0.00429259
         1.79    0.00430458    0.00430458
        1.795    0.00431619    0.00431619
          1.8    0.00432711     0.0043271
        1.805    0.00433404    0.00433404
         1.81    0.00433756    0.00433756
        1.815    0.00437483    0.00437483
         1.82    0.00438744    0.00438744
        1.825    0.00440004    0.00440003
         1.83     0.0044101     0.0044101
        1.835     0.0044071     0.0044071
         1.84    0.00444812    0.00444811
        1.845    0.00445817    0.00445817
         1.85    0.00446961    0.00446961
        1.855    0.00448295    0.00448296
         1.86    0.00449657    0.00449657
        1.865    0.00451084    0.00451083
         1.87    0.00452253    0.00452253
        1.875    0.00453541    0.00453541
         1.88    0.00454797    0.00454797
        1.885    0.00455948    0.00455948
         1.89    0.00456417    0.00456417
        1.895    0.00459111    0.00459112
          1.9    0.00460879    0.00460879
        1.905    0.00462201    0.00462201
         1.91    0.00463559     0.0046356
        1.915    0.00464929    0.00464929
         1.92    0.00466285    0.00466285
        1.925    0.00467619    0.00467619
         1.93    0.00469065    0.00469066
        1.935    0.00470516    0.00470516
         1.94    0.00472003    0.00472003
        1.945    0.00473398    0.00473398
         1.95    0.00474763    0.00474763
        1.955    0.00476115    0.00476115
         1.96    0.00477477    0.00477477
        1.965    0.00478835    0.00478835
         1.97    0.00480178    0.00480178
        1.975    0.00481562    0.00481563
         1.98    0.00482885    0.00482885
        1.985     0.0048417     0.0048417
         1.99    0.00483864    0.00483864
        1.995    0.00487781    0.00487781
            2     0.0048929     0.0048929
        2.005     0.0049081     0.0049081
         2.01    0.00492284    0.00492284
        2.015    0.00493764    0.00493764
         2.02    0.00495259    0.00495259
        2.025     0.0049677    0.00496771
         2.03     0.0049835     0.0049835
        2.035    0.00499943    0.00499943
         2.04    0.00501493    0.00501493
        2.045    0.00503053    0.00503054
         2.05    0.00504526    0.00504526
        2.055    0.00506048    0.00506048
         2.06    0.00507573    0.00507573
        2.065    0.00509153    0.00509154
         2.07    0.00510743    0.00510743
        2.075    0.00512312    0.00512312
         2.08    0.00513894    0.00513894
        2.085    0.00515483    0.00515483
         2.09    0.00517099    0.00517099
        2.095    0.00518667    0.00518667
          2.1     0.0052027     0.0052027
        2.105     0.0052187     0.0052187
         2.11    0.00523478    0.00523478
        2.115    0.00525143    0.00525143
         2.12    0.00526859    0.00526859
        2.125    0.00528536    0.00528536
         2.13    0.00530198    0.00530198
        2.135    0.00531836    0.00531837
         2.14    0.00533474    0.00533474
        2.145     0.0053511     0.0053511
         2.15    0.00536733    0.00536733
        2.155    0.00538268    0.00538268
         2.16    0.00538966    0.00538967
        2.165    0.00542289     0.0054229
         2.17    0.00544015    0.00544015
        2.175     0.0054572     0.0054572
         2.18    0.00547449    0.00547449
        2.185    0.00549193    0.00549193
         2.19    0.00550944    0.00550945
        2.195    0.00552689    0.00552689
          2.2    0.00554425    0.00554425
        2.205    0.00556207    0.00556207
         2.21     0.0055798     0.0055798
        2.215    0.00559729    0.00559729
         2.22    0.00561509     0.0056151
        2.225      0.005633      0.005633
         2.23    0.00565097    0.00565097
        2.235    0.00566922    0.00566922
         2.24    0.00568762    0.00568762
        2.245    0.00570648    0.00570648
         2.25    0.00572479    0.00572479
        2.255    0.00574065    0.00574065
         2.26    0.00575914    0.00575914
        2.265    0.00577748    0.00577748
         2.27    0.00579623    0.00579623
        2.275    0.00581498    0.00581498
         2.28    0.00583451    0.00583451
        2.285    0.00585416    0.00585416
         2.29    0.00587366    0.00587366
        2.295    0.00589311    0.00589311
          2.3    0.00591228    0.00591228
        2.305    0.00593171    0.00593171
         2.31    0.00595135    0.00595135
        2.315     0.0059707     0.0059707
         2.32    0.00599052    0.00599052
        2.325    0.00601029    0.00601029
         2.33    0.00602959    0.00602959
        2.335    0.00604864    0.00604864
         2.34    0.00606813    0.00606813
        2.345    0.00608802    0.00608802
         2.35    0.00610794    0.00610794
        2.355    0.00612792    0.00612792
         2.36    0.00614797    0.00614797
        2.365    0.00616807    0.00616807
         2.37    0.00618825    0.00618825
        2.375    0.00620851    0.00620851
         2.38    0.00622883    0.00622884
        2.385    0.00624923    0.00624923
         2.39     0.0062697     0.0062697
        2.395    0.00629023    0.00629023
          2.4    0.00631082    0.00631082
        2.405    0.00633147    0.00633147
         2.41    0.00635213    0.00635213
        2.415    0.00637313    0.00637313
         2.42    0.00639411    0.00639411
        2.425    0.00641582    0.00641582
         2.43    0.00643662    0.00643662
        2.435    0.00645804    0.00645805
         2.44     0.0064793     0.0064793
        2.445    0.00650069    0.00650069
         2.45    0.00652228    0.00652228
        2.455    0.00654382    0.00654381
         2.46    0.00656578    0.00656578
        2.465    0.00658777    0.00658777
         2.47    0.00661003    0.00661003
        2.475    0.00663235    0.00663235
         2.48    0.00665524    0.00665524
        2.485    0.00667955    0.00667955
         2.49    0.00670472    0.00670472
        2.495    0.00671659    0.00671659
          2.5    0.00673794    0.00673793
        2.505    0.00676026    0.00676026
         2.51     0.0067828     0.0067828
        2.515    0.00680545    0.00680545
         2.52    0.00682818    0.00682818
        2.525    0.00685096    0.00685095
         2.53    0.00687403    0.00687403
        2.535    0.00689755    0.00689755
         2.54    0.00692118    0.00692118
        2.545    0.00694445    0.00694445
         2.55    0.00696744    0.00696744
        2.555    0.00699107    0.00699107
         2.56    0.00701453    0.00701453
        2.565    0.00703814    0.00703814
         2.57     0.0070619     0.0070619
        2.575    0.00708521    0.00708521
         2.58    0.00710904    0.00710904
        2.585    0.00713294    0.00713294
         2.59    0.00715693    0.00715693
        2.595    0.00718095    0.00718095
          2.6    0.00720502    0.00720502
        2.605    0.00722915    0.00722915
         2.61    0.00725335    0.00725335
        2.615    0.00727767    0.00727767
         2.62    0.00730182    0.00730182
        2.625    0.00732587    0.00732587
         2.63    0.00735026    0.00735026
        2.635    0.00737521    0.00737521
         2.64    0.00740006    0.00740006
        2.645    0.00742484    0.00742484
         2.65    0.00744928    0.00744928
        2.655    0.00747373    0.00747373
         2.66    0.00749821    0.00749821
        2.665    0.00752273    0.00752273
         2.67    0.00754724    0.00754723
        2.675    0.00757176    0.00757176
         2.68    0.00759657    0.00759656
        2.685    0.00762121    0.00762121
         2.69    0.00764587    0.00764587
        2.695    0.00767055    0.00767055
          2.7    0.00769524    0.00769524
        2.705    0.00771994    0.00771994
         2.71    0.00774459    0.00774459
        2.715    0.00776945    0.00776945
         2.72    0.00779434    0.00779434
        2.725    0.00781932    0.00781932
         2.73    0.00784456    0.00784456
        2.735    0.00786943    0.00786943
         2.74    0.00789467    0.00789467
        2.745    0.00791909    0.00791908
         2.75    0.00794382    0.00794382
        2.755    0.00796854    0.00796854
         2.76    0.00799307    0.00799306
        2.765    0.00801773    0.00801773
         2.77    0.00804279    0.00804279
        2.775    0.00806785    0.00806785
         2.78    0.00809292    0.00809292
        2.785    0.00811819    0.00811819
         2.79    0.00814358    0.00814358
        2.795    0.00816877    0.00816877
          2.8    0.00819405    0.00819405
        2.805    0.00821947    0.00821947
         2.81    0.00824504    0.00824504
        2.815    0.00827063    0.00827063
         2.82    0.00829631     0.0082963
        2.825    0.00832208    0.00832208
         2.83      0.008348      0.008348
        2.835    0.00837413    0.00837413
         2.84    0.00840052    0.00840052
        2.845    0.00842683    0.00842683
         2.85    0.00845412    0.00845412
        2.855    0.00848099    0.00848099
         2.86    0.00850876    0.00850877
        2.865    0.00853771    0.00853771
         2.87    0.00856825    0.00856825
        2.875    0.00860187    0.00860187
         2.88    0.00864369    0.00864368
        2.885     0.0086424     0.0086424
         2.89    0.00862662    0.00862662
        2.895    0.00862981    0.00862981
          2.9    0.00865683    0.00865683
        2.905    0.00868508    0.00868508
         2.91     0.0087136    0.00871359
        2.915     0.0087422     0.0087422
         2.92    0.00877132    0.00877132
        2.925    0.00880143    0.00880143
         2.93    0.00883298    0.00883298
        2.935    0.00886801    0.00886801
         2.94    0.00890526    0.00890526
        2.945     0.0088875     0.0088875
         2.95     0.0088765     0.0088765
        2.955    0.00889389    0.00889389
         2.96    0.00892164    0.00892164
        2.965    0.00894928    0.00894927
         2.97    0.00897664    0.00897664
        2.975    0.00900376    0.00900376
         2.98    0.00903086    0.00903086
        2.985    0.00905782    0.00905782
         2.99    0.00908474    0.00908474
        2.995    0.00911164    0.00911164
            3    0.00913859    0.00913859
        3.005    0.00916538    0.00916538
         3.01    0.00919217    0.00919217
        3.015     0.0092189     0.0092189
         3.02    0.00924593    0.00924593
        3.025    0.00927304    0.00927304
         3.03    0.00930021    0.00930021
        3.035     0.0093277     0.0093277
         3.04    0.00935549    0.00935549
        3.045    0.00938363    0.00938363
         3.05    0.00941193    0.00941193
        3.055    0.00944075    0.00944075
         3.06    0.00947043    0.00947043
        3.065    0.00950204    0.00950204
         3.07    0.00953679    0.00953679
        3.075    0.00954787    0.00954787
         3.08    0.00955194    0.00955194
        3.085    0.00954252    0.00954252
         3.09    0.00956085    0.00956085
        3.095    0.00959031    0.00959031
          3.1    0.00961913    0.00961913
        3.105    0.00964731     0.0096473
         3.11    0.00967511    0.00967511
        3.115    0.00970227    0.00970227
         3.12    0.00972962    0.00972962
        3.125    0.00975688    0.00975688
         3.13    0.00978409    0.00978408
        3.135    0.00981128    0.00981127
         3.14    0.00983847    0.00983847
        3.145    0.00986576    0.00986576
         3.15    0.00989241    0.00989241
        3.155    0.00991974    0.00991974
         3.16    0.00994685    0.00994685
        3.165    0.00997433    0.00997433
         3.17     0.0100013     0.0100013
        3.175     0.0100288     0.0100288
         3.18     0.0100559     0.0100559
        3.185     0.0100829     0.0100829
         3.19       0.01011       0.01011
        3.195     0.0101371     0.0101371
          3.2     0.0101642     0.0101642
        3.205     0.0101915     0.0101915
         3.21     0.0102186     0.0102186
        3.215     0.0102459     0.0102459
         3.22     0.0102732     0.0102732
        3.225     0.0103005     0.0103005
         3.23     0.0103279     0.0103279
        3.235     0.0103554     0.0103554
         3.24     0.0103829     0.0103829
        3.245     0.0104104     0.0104104
         3.25     0.0104381     0.0104381
        3.255     0.0104661     0.0104661
         3.26     0.0104942     0.0104942
        3.265     0.0105219     0.0105219
         3.27       0.01055       0.01055
        3.275     0.0105782     0.0105782
         3.28     0.0106071     0.0106071
        3.285     0.0106361     0.0106361
         3.29     0.0106654     0.0106654
        3.295     0.0106954     0.0106954
          3.3     0.0107261     0.0107261
        3.305     0.0107585     0.0107585
         3.31     0.0107827     0.0107827
        3.315     0.0107845     0.0107845
         3.32     0.0108097     0.0108097
        3.325     0.0108018     0.0108018
         3.33     0.0108203     0.0108203
        3.335     0.0108514     0.0108514
         3.34     0.0108778     0.0108778
        3.345     0.0109085     0.0109085
         3.35     0.0109382     0.0109382
        3.355     0.0109675     0.0109675
         3.36     0.0109964     0.0109964
        3.365     0.0110254     0.0110254
         3.37     0.0110542     0.0110542
        3.375     0.0110829     0.0110829
         3.38     0.0111113     0.0111113
        3.385     0.0111397     0.0111397
         3.39     0.0111683     0.0111683
        3.395     0.0111962     0.0111962
          3.4     0.0112246     0.0112246
        3.405     0.0112531     0.0112531
         3.41     0.0112817     0.0112817
        3.415     0.0113098     0.0113098
         3.42     0.0113379     0.0113379
        3.425     0.0113662     0.0113662
         3.43     0.0113945     0.0113945
        3.435     0.0114228     0.0114228
         3.44     0.0114511     0.0114511
        3.445     0.0114794     0.0114794
         3.45     0.0115077     0.0115077
        3.455     0.0115361     0.0115361
         3.46     0.0115645     0.0115645
        3.465      0.011593      0.011593
         3.47     0.0116213     0.0116213
        3.475       0.01165       0.01165
         3.48     0.0116784     0.0116784
        3.485     0.0117069     0.0117069
         3.49     0.0117353     0.0117353
        3.495     0.0117638     0.0117638
          3.5     0.0117923     0.0117923
        3.505     0.0118211     0.0118211
         3.51     0.0118495     0.0118495
        3.515      0.011878      0.011878
         3.52     0.0119065     0.0119065
        3.525     0.0119351     0.0119351
         3.53     0.0119639     0.0119639
        3.535     0.0119928     0.0119928
         3.54     0.0120216     0.0120216
        3.545     0.0120503     0.0120503
         3.55      0.012079      0.012079
        3.555     0.0121078     0.0121078