/*--------------------------------*- C++ -*----------------------------------*\
  =========                 |
  \\      /  F ield         | OpenFOAM: The Open Source CFD Toolbox
   \\    /   O peration     | Website:  https://openfoam.org
    \\  /    A nd           | Version:  7
     \\/     M anipulation  |
\*---------------------------------------------------------------------------*/
FoamFile
{
    version     2.0;
    format      ascii;
    class       surfaceScalarField;
    location    "40";
    object      phi;
}
// * * * * * * * * * * * * * * * * * * * * * * * * * * * * * * * * * * * * * //

dimensions      [0 3 -1 0 0 0 0];

internalField   nonuniform List<scalar> 
248
(
-0.000254882
-0.00493574
-0.000316121
-0.00508308
-0.000378625
-0.000210784
-0.00448
-0.000271917
-0.00460114
-0.000335747
-0.004731
-0.000402152
-0.000205864
-0.0042021
-0.000268259
-0.00430469
-0.000333485
-0.000401648
-0.000183123
-0.0039566
-0.000246524
-0.00404307
-0.000312617
-0.004136
-0.000143762
-0.00373804
-0.000207842
-0.00381174
-0.000274758
-0.00388968
-0.000344371
-0.000153687
-0.00360162
-0.000220727
-0.003671
-0.000290935
-8.91525e-05
-0.00337106
-0.000152932
-0.00346156
-0.000222266
-0.00353228
-7.9726e-05
-0.00318409
-0.000142601
-0.00330818
-0.000213144
-0.00339101
-2.01202e-05
-0.00263034
-6.48128e-05
-0.00293755
-0.000124325
-0.00312458
-0.000194387
-1.16761e-05
-0.00213793
-4.71032e-05
-0.00259492
-0.000100337
-0.00288432
-4.86255e-06
-0.00146471
-2.93981e-05
-0.00211339
-7.34204e-05
-0.0025509
-9.57571e-07
-0.000580775
-1.42164e-05
-0.00145145
-4.66801e-05
-0.00208093
-3.59251e-06
-0.000577183
-2.32855e-05
-0.00143176
-6.37946e-06
-0.000570803
-0.00140598
-9.14928e-06
-0.000561654
0.000560203
-9.2216e-06
0.000569425
0.00140237
-6.45148e-06
0.000575876
0.00142829
-3.66289e-06
0.000579539
-2.34961e-05
0.00144812
0.00207597
-1.01779e-06
-1.44247e-05
0.00146153
-4.70504e-05
0.00210859
0.00254496
-5.07392e-06
-2.97647e-05
0.00213328
-7.39405e-05
0.00258913
0.00287782
-1.20413e-05
-4.76149e-05
0.00262471
-0.000100984
0.00293119
0.00311783
-2.06216e-05
-6.54441e-05
-0.000125072
0.00317746
-0.000195238
0.00330137
0.00338417
-8.04486e-05
-0.000143422
0.00336434
-0.000214056
0.00345481
0.00352558
-8.99383e-05
-0.0001538
-0.000223214
0.003595
0.00366448
-0.000154574
-0.00022168
0.00373159
-0.000291958
0.00380542
0.00388352
-0.000144635
-0.000208765
-0.000275732
0.00395049
-0.000345399
0.00403715
0.0041303
-0.000183972
-0.000247399
-0.000313518
0.00419642
-0.00038245
0.00429926
0.00440963
-0.000206582
-0.000268965
-0.000334175
-0.000402314
0.00459632
0.00472657
-0.000272282
-0.000336024
-0.000402317
0.00493167
0.0050795
-0.000254651
-0.000315678
-0.000377978
-0.000486664
-0.000544995
-0.000581018
-0.000596155
-0.000598716
-0.000587596
-0.000566575
-0.000543871
-0.000517663
-0.000481317
-0.000439212
-0.000397766
-0.0201233
-0.000357916
-0.0200602
-0.000318039
-0.0200171
-0.000274626
-0.0199986
-0.000226491
-0.0200005
-0.000180967
-0.019928
-0.000138029
-0.0198992
-9.35441e-05
-0.0198753
-4.38552e-05
-0.0199237
-0.0198525
-0.000469997
-0.000421966
-0.000374424
-0.000322989
-0.000266117
-0.000212264
-0.000161797
-0.000109524
-5.14035e-05
-0.000599574
0.0202183
-0.000562162
0.0201096
-0.000520608
0.0201196
-0.000479574
0.0200403
-0.00043536
0.020041
-0.000384121
0.0200386
-0.000328561
0.0200248
-0.000274275
0.0199831
-0.000223851
0.0199311
-0.000170961
0.0199336
-0.000111602
0.0199653
-5.30072e-05
0.0199445
0.0199006
-0.000484161
-0.000540429
-0.000574479
-0.000588469
-0.000585464
-0.000571772
-0.00055437
-0.000532259
-0.000502366
-0.00047332
-0.000439896
-0.000406618
-0.000369929
-0.000326968
-0.000280248
-0.000234419
-0.000191584
-0.000146388
-9.56332e-05
-4.55268e-05
)
;

boundaryField
{
    inlet
    {
        type            calculated;
        value           nonuniform 0();
    }
    outlet
    {
        type            calculated;
        value           nonuniform 0();
    }
    cylinder
    {
        type            calculated;
        value           uniform 0;
    }
    top
    {
        type            symmetryPlane;
        value           uniform 0;
    }
    bottom
    {
        type            symmetryPlane;
        value           uniform 0;
    }
    defaultFaces
    {
        type            empty;
        value           nonuniform 0();
    }
    procBoundary12to11
    {
        type            processor;
        value           nonuniform List<scalar> 
116
(
-0.00523479
-0.00486934
-0.000470818
-0.00501442
-0.00441477
-0.00453297
-0.000472749
-0.0046599
-0.000381525
-0.00423578
-0.00397346
-0.000416738
-0.00406364
-0.00374153
-0.00036392
-0.0038167
-0.000295434
-0.00359783
-0.000288711
-0.00345672
-0.00323812
-0.000271393
-0.00331401
-0.000167539
-0.00305738
-0.000134789
-0.00282295
-9.89865e-05
-0.00249859
-6.35136e-05
-0.0020407
-3.21542e-05
-4.08006e-05
-0.00137433
-1.18647e-05
-0.00054979
-0.000548266
-1.19367e-05
-0.00137058
-4.10124e-05
-3.23663e-05
-0.00203558
-6.38861e-05
-0.00249249
-9.95117e-05
-0.00281631
-0.000135447
-0.00305051
-0.000168305
-0.0032312
-0.00330707
-0.000272345
-0.00344993
-0.000289715
-0.00359123
-0.000296464
-0.00373514
-0.00381046
-0.000365018
-0.00396749
-0.00405787
-0.000417823
-0.00423033
-0.00433771
-0.000454376
-0.00452818
-0.00465551
-0.000473379
-0.00486537
-0.00501097
-0.000470847
-0.00523172
-0.0203
-0.0202569
-0.0203139
-0.020343
-0.0203115
-0.0203373
-0.0203104
-0.0202462
-0.0202148
-0.0202344
-0.0201955
0.000520436
-0.0201737
-0.0201082
-0.0200646
-0.02005
-0.0200574
-0.0199818
-0.0199497
-0.0199276
-0.0199819
-0.0199039
-0.0202569
-0.020147
-0.0201612
-0.0200813
-0.0200852
-0.0200898
-0.0200803
-0.0200374
-0.0199815
-0.0199865
-0.0200247
-0.0200031
-0.0199536
-0.0202919
-0.0202554
-0.0203214
-0.0203307
-0.0203426
-0.0203256
-0.0202584
0.000638117
-0.0202182
)
;
    }
    procBoundary12to13
    {
        type            processor;
        value           nonuniform List<scalar> 
106
(
0.00499467
0.00514432
0.00529729
0.00453842
0.00466227
0.000195953
0.00479483
0.00426179
0.000152363
0.00436709
0.00401731
0.000146174
0.00410647
0.00379876
0.000122412
0.00387582
8.30422e-05
0.00366448
0.00342637
9.08272e-05
0.00352534
3.38399e-05
0.0032355
0.00265679
2.8316e-05
0.00298224
-6.32367e-06
0.00215405
-4.43958e-06
0.00147168
-2.11026e-06
0.000581733
0.000580557
-2.034e-06
0.00146864
-4.24312e-06
0.00214957
-5.9863e-06
0.00265131
0.00297601
2.89283e-05
0.00322898
3.45351e-05
0.00341975
0.00351867
9.16471e-05
0.00365793
8.38652e-05
0.00379236
0.00386955
0.000123233
0.00401123
0.00410058
0.000146898
0.0042561
0.00436164
0.00447484
0.00021122
0.00465738
0.00479032
0.000195896
0.00499042
0.00514052
0.00529402
0.020408
0.0203152
0.0203499
0.0203582
0.020314
0.0203262
0.0202894
0.0202235
0.0201886
0.0201981
0.0201533
0.0200819
0.0200204
0.0199772
0.0199552
0.0199524
0.0198825
0.0198563
0.0198308
0.019874
0.0198086
0.0203981
0.0203117
0.0203555
0.0203447
0.0203396
0.0203119
0.020241
0.020196
0.0201884
0.0200805
0.0200862
0.020007
0.0200043
0.0199956
0.0199781
0.0199373
0.0198882
0.0198884
0.0199146
0.0198944
0.019855
)
;
    }
}


// ************************************************************************* //
