/*--------------------------------*- C++ -*----------------------------------*\
  =========                 |
  \\      /  F ield         | OpenFOAM: The Open Source CFD Toolbox
   \\    /   O peration     | Website:  https://openfoam.org
    \\  /    A nd           | Version:  7
     \\/     M anipulation  |
\*---------------------------------------------------------------------------*/
FoamFile
{
    version     2.0;
    format      ascii;
    class       volScalarField;
    location    "98";
    object      p;
}
// * * * * * * * * * * * * * * * * * * * * * * * * * * * * * * * * * * * * * //

dimensions      [0 2 -2 0 0 0 0];

internalField   nonuniform List<scalar> 
40000
(
-0.349703
-0.351072
-0.352041
-0.352776
-0.353391
-0.353901
-0.354321
-0.354677
-0.354988
-0.355273
-0.355545
-0.355815
-0.356091
-0.356378
-0.356677
-0.356989
-0.35731
-0.35764
-0.35798
-0.35833
-0.358699
-0.359098
-0.359548
-0.36008
-0.360735
-0.361571
-0.362663
-0.364099
-0.365987
-0.368526
-0.346869
-0.348123
-0.349004
-0.349662
-0.350199
-0.350627
-0.350961
-0.351222
-0.351429
-0.351599
-0.351746
-0.351881
-0.352014
-0.35215
-0.352292
-0.352442
-0.352604
-0.352778
-0.352971
-0.353192
-0.353454
-0.353781
-0.354203
-0.354763
-0.355518
-0.356541
-0.357927
-0.359778
-0.362204
-0.365473
-0.344249
-0.345376
-0.346161
-0.346737
-0.347193
-0.347538
-0.347785
-0.347951
-0.348055
-0.348113
-0.348139
-0.348144
-0.348138
-0.348127
-0.348119
-0.348116
-0.348124
-0.348151
-0.348204
-0.348301
-0.348462
-0.348718
-0.349111
-0.349694
-0.350536
-0.351724
-0.35337
-0.355592
-0.358491
-0.362389
-0.341825
-0.342817
-0.343501
-0.34399
-0.344363
-0.344624
-0.344783
-0.344856
-0.344859
-0.344808
-0.344715
-0.344594
-0.344453
-0.344302
-0.344148
-0.343998
-0.343859
-0.343743
-0.343663
-0.34364
-0.343703
-0.343889
-0.344248
-0.344845
-0.345758
-0.347086
-0.348956
-0.351503
-0.354811
-0.359206
-0.339575
-0.340428
-0.341008
-0.34141
-0.341698
-0.341874
-0.341946
-0.341927
-0.341832
-0.341673
-0.341466
-0.34122
-0.340949
-0.340661
-0.340366
-0.340072
-0.339791
-0.339537
-0.339328
-0.339188
-0.339153
-0.339267
-0.339588
-0.340187
-0.341153
-0.342594
-0.344646
-0.347466
-0.351124
-0.355861
-0.337479
-0.338193
-0.338668
-0.338982
-0.339185
-0.339277
-0.339263
-0.339154
-0.338962
-0.338699
-0.338378
-0.338012
-0.337612
-0.33719
-0.336756
-0.336323
-0.335903
-0.335513
-0.335175
-0.334921
-0.334787
-0.334825
-0.335099
-0.335687
-0.336687
-0.338212
-0.340406
-0.34344
-0.347389
-0.352403
-0.335516
-0.336094
-0.336467
-0.336694
-0.336813
-0.336823
-0.336725
-0.336527
-0.336239
-0.335873
-0.335441
-0.334956
-0.334429
-0.333874
-0.333304
-0.332731
-0.332173
-0.331648
-0.331183
-0.330812
-0.330577
-0.330534
-0.330752
-0.331315
-0.332327
-0.333906
-0.336202
-0.33939
-0.343528
-0.348828
-0.333666
-0.334114
-0.334389
-0.334532
-0.334571
-0.334501
-0.33432
-0.334036
-0.333654
-0.333187
-0.332644
-0.33204
-0.331387
-0.3307
-0.329992
-0.329281
-0.328583
-0.327923
-0.327329
-0.326838
-0.326497
-0.326366
-0.326517
-0.327041
-0.328044
-0.329648
-0.332006
-0.335299
-0.339571
-0.345021
-0.33191
-0.332239
-0.332422
-0.332487
-0.332449
-0.332301
-0.332041
-0.331671
-0.331198
-0.330629
-0.329977
-0.329254
-0.328474
-0.327653
-0.326807
-0.325954
-0.325116
-0.324317
-0.32359
-0.322976
-0.322523
-0.322296
-0.32237
-0.322839
-0.323812
-0.325414
-0.327798
-0.331149
-0.335506
-0.341002
-0.330234
-0.330455
-0.330555
-0.330548
-0.330438
-0.330217
-0.32988
-0.329427
-0.328862
-0.328194
-0.327431
-0.326589
-0.32568
-0.324723
-0.323736
-0.322739
-0.321755
-0.320814
-0.31995
-0.319206
-0.318635
-0.318303
-0.318289
-0.318689
-0.319613
-0.321188
-0.323565
-0.326932
-0.331331
-0.336798
-0.328624
-0.328754
-0.328781
-0.328708
-0.328532
-0.328242
-0.327831
-0.327297
-0.326643
-0.325874
-0.325001
-0.324037
-0.322998
-0.321901
-0.320769
-0.319623
-0.31849
-0.317402
-0.316395
-0.315515
-0.314819
-0.314373
-0.31426
-0.314577
-0.315434
-0.31696
-0.319302
-0.322649
-0.327052
-0.332437
-0.327071
-0.327126
-0.327092
-0.326961
-0.326726
-0.326372
-0.325891
-0.325278
-0.324535
-0.323666
-0.322681
-0.321594
-0.320421
-0.319182
-0.317901
-0.316601
-0.315314
-0.314072
-0.312916
-0.311894
-0.311064
-0.310497
-0.310275
-0.310497
-0.311273
-0.312731
-0.315015
-0.318313
-0.322691
-0.327953
-0.325569
-0.325568
-0.325485
-0.325307
-0.325019
-0.324606
-0.324058
-0.32337
-0.322538
-0.321569
-0.320472
-0.319259
-0.317949
-0.316564
-0.315129
-0.313671
-0.312223
-0.310822
-0.309511
-0.30834
-0.307371
-0.306675
-0.306336
-0.306452
-0.307136
-0.308512
-0.31072
-0.313945
-0.318276
-0.323385
-0.324117
-0.32408
-0.323962
-0.323745
-0.323412
-0.322946
-0.322335
-0.321572
-0.320654
-0.319584
-0.318373
-0.317033
-0.315584
-0.314049
-0.312456
-0.310835
-0.309222
-0.307657
-0.306185
-0.304861
-0.303747
-0.302916
-0.302453
-0.302457
-0.303039
-0.304323
-0.306443
-0.309578
-0.313846
-0.318774
-0.322717
-0.322664
-0.322524
-0.322278
-0.321907
-0.321393
-0.320723
-0.319887
-0.318884
-0.317714
-0.316388
-0.31492
-0.313329
-0.311642
-0.309889
-0.308102
-0.30632
-0.304587
-0.302951
-0.301469
-0.300206
-0.299237
-0.298648
-0.298537
-0.299013
-0.300198
-0.302222
-0.305254
-0.309451
-0.314159
-0.321376
-0.321326
-0.321178
-0.320912
-0.32051
-0.319953
-0.319227
-0.318322
-0.317234
-0.315965
-0.314524
-0.312927
-0.311194
-0.309354
-0.307438
-0.305484
-0.303532
-0.301629
-0.299828
-0.298188
-0.296776
-0.295669
-0.294953
-0.294726
-0.295097
-0.296182
-0.298108
-0.301029
-0.305154
-0.309573
-0.320106
-0.320077
-0.319934
-0.319657
-0.31923
-0.318635
-0.317856
-0.316884
-0.315713
-0.314345
-0.31279
-0.311064
-0.30919
-0.307198
-0.30512
-0.302999
-0.300878
-0.298807
-0.296843
-0.295047
-0.293489
-0.292248
-0.29141
-0.291073
-0.291342
-0.292333
-0.294163
-0.296966
-0.301024
-0.305047
-0.318922
-0.318932
-0.318803
-0.318522
-0.318076
-0.317447
-0.316619
-0.315581
-0.314328
-0.312864
-0.311197
-0.309345
-0.307332
-0.305189
-0.302954
-0.30067
-0.298384
-0.296151
-0.294028
-0.292083
-0.290387
-0.289019
-0.288069
-0.287632
-0.287811
-0.288716
-0.290455
-0.293133
-0.297143
-0.300609
-0.317845
-0.317908
-0.317802
-0.317523
-0.317062
-0.316402
-0.315526
-0.314425
-0.313093
-0.311534
-0.309759
-0.307784
-0.305637
-0.30335
-0.300963
-0.298523
-0.296081
-0.293693
-0.291424
-0.28934
-0.287517
-0.286036
-0.284987
-0.284463
-0.284566
-0.285403
-0.287059
-0.2896
-0.293591
-0.296298
-0.316897
-0.317025
-0.316948
-0.316675
-0.316203
-0.315514
-0.314593
-0.31343
-0.312021
-0.310371
-0.308491
-0.3064
-0.304125
-0.301702
-0.299174
-0.296588
-0.294002
-0.291473
-0.28907
-0.286863
-0.284929
-0.283353
-0.282222
-0.28163
-0.281671
-0.282437
-0.284039
-0.286428
-0.290437
-0.292168
-0.316108
-0.316306
-0.316263
-0.315998
-0.315515
-0.314798
-0.313833
-0.31261
-0.311128
-0.309391
-0.307412
-0.305211
-0.302818
-0.300271
-0.297613
-0.294897
-0.292181
-0.289529
-0.28701
-0.284699
-0.282675
-0.281024
-0.279832
-0.279191
-0.27919
-0.279913
-0.281455
-0.283661
-0.287722
-0.288295
-0.315507
-0.315777
-0.315768
-0.31551
-0.315017
-0.314272
-0.313263
-0.311983
-0.310431
-0.308612
-0.306541
-0.304241
-0.301741
-0.299082
-0.29631
-0.293481
-0.290655
-0.2879
-0.285286
-0.282893
-0.280801
-0.279096
-0.277865
-0.277194
-0.277164
-0.277847
-0.279334
-0.281319
-0.285443
-0.28477
-0.315125
-0.315463
-0.315486
-0.315233
-0.314727
-0.313953
-0.312901
-0.311565
-0.309947
-0.308053
-0.305899
-0.303509
-0.300916
-0.298161
-0.295294
-0.292371
-0.289456
-0.28662
-0.283936
-0.281484
-0.279346
-0.277609
-0.276355
-0.275667
-0.275616
-0.276253
-0.277675
-0.279398
-0.283544
-0.281675
-0.314994
-0.315393
-0.315441
-0.315188
-0.314665
-0.31386
-0.312764
-0.311375
-0.309694
-0.307732
-0.305504
-0.303038
-0.300366
-0.297532
-0.294589
-0.291594
-0.288613
-0.285718
-0.282987
-0.280499
-0.278336
-0.276583
-0.27532
-0.27462
-0.274542
-0.275115
-0.276441
-0.277866
-0.281927
-0.279055
-0.315147
-0.315592
-0.315654
-0.315394
-0.314849
-0.31401
-0.31287
-0.311428
-0.30969
-0.307666
-0.305375
-0.302844
-0.30011
-0.297216
-0.294215
-0.291169
-0.288145
-0.285215
-0.282457
-0.279952
-0.277781
-0.276023
-0.274753
-0.274034
-0.273911
-0.274388
-0.275565
-0.276667
-0.280473
-0.2769
-0.31561
-0.316082
-0.316147
-0.31587
-0.315296
-0.314418
-0.313232
-0.311739
-0.309948
-0.30787
-0.305525
-0.302943
-0.300161
-0.297224
-0.294186
-0.291109
-0.288061
-0.285115
-0.282349
-0.279841
-0.277669
-0.275908
-0.274623
-0.273866
-0.273664
-0.274
-0.274952
-0.275724
-0.27906
-0.27514
-0.316409
-0.316886
-0.316937
-0.316632
-0.316021
-0.315098
-0.313863
-0.31232
-0.310479
-0.308353
-0.305964
-0.303343
-0.300527
-0.297563
-0.294505
-0.291414
-0.288359
-0.285413
-0.282649
-0.280145
-0.277973
-0.276199
-0.274879
-0.274048
-0.273718
-0.273857
-0.274494
-0.274938
-0.277566
-0.273631
-0.317563
-0.318019
-0.318038
-0.317693
-0.317034
-0.31606
-0.314772
-0.313178
-0.311289
-0.30912
-0.306696
-0.304045
-0.301207
-0.298229
-0.295164
-0.292073
-0.289024
-0.286085
-0.283329
-0.280827
-0.278643
-0.276836
-0.275447
-0.274497
-0.27398
-0.273855
-0.274084
-0.274201
-0.275856
-0.272167
-0.319088
-0.319494
-0.319462
-0.319061
-0.318343
-0.317309
-0.315964
-0.314316
-0.31238
-0.310171
-0.307716
-0.305044
-0.302193
-0.29921
-0.296148
-0.293065
-0.290026
-0.287098
-0.284346
-0.281834
-0.279619
-0.277746
-0.276244
-0.275118
-0.274345
-0.273885
-0.273633
-0.273413
-0.273839
-0.270743
-0.32099
-0.321319
-0.321214
-0.320742
-0.319953
-0.318849
-0.317439
-0.315733
-0.313748
-0.311501
-0.309017
-0.306327
-0.303468
-0.300486
-0.297431
-0.29436
-0.291332
-0.288408
-0.285648
-0.283106
-0.28083
-0.278849
-0.27718
-0.275813
-0.274713
-0.273841
-0.27306
-0.272452
-0.271605
-0.27013
-0.323274
-0.323495
-0.323298
-0.322739
-0.321863
-0.320679
-0.319195
-0.317425
-0.315387
-0.313098
-0.310585
-0.307878
-0.305013
-0.302033
-0.298985
-0.295921
-0.292897
-0.289965
-0.287178
-0.284578
-0.2822
-0.280063
-0.278165
-0.276488
-0.274987
-0.273624
-0.27227
-0.271134
-0.269437
-0.270605
-0.325936
-0.326022
-0.325712
-0.325049
-0.324074
-0.322795
-0.321227
-0.319385
-0.317286
-0.314952
-0.312406
-0.309679
-0.306804
-0.303822
-0.300776
-0.297712
-0.294678
-0.29172
-0.288877
-0.286183
-0.283658
-0.281306
-0.279116
-0.277059
-0.275089
-0.273166
-0.27119
-0.269328
-0.26701
-0.266546
-0.328971
-0.328898
-0.328455
-0.327671
-0.32658
-0.325194
-0.323529
-0.321604
-0.319437
-0.317048
-0.314463
-0.31171
-0.308819
-0.305828
-0.302773
-0.299695
-0.296633
-0.293622
-0.29069
-0.287858
-0.285132
-0.282507
-0.27996
-0.277459
-0.274959
-0.272425
-0.269777
-0.267137
-0.264035
-0.262004
-0.332371
-0.332116
-0.331521
-0.330601
-0.329378
-0.32787
-0.326096
-0.324076
-0.321829
-0.319377
-0.316744
-0.313955
-0.311039
-0.308027
-0.30495
-0.301839
-0.298723
-0.295625
-0.292563
-0.289543
-0.286561
-0.2836
-0.280636
-0.277636
-0.274562
-0.271387
-0.268049
-0.26464
-0.260771
-0.257546
-0.336128
-0.335671
-0.334908
-0.333835
-0.332465
-0.33082
-0.328923
-0.326795
-0.324457
-0.321931
-0.319239
-0.316404
-0.31345
-0.310401
-0.307282
-0.304113
-0.300911
-0.297689
-0.294448
-0.291186
-0.287887
-0.284534
-0.281099
-0.277557
-0.273881
-0.270058
-0.266043
-0.261915
-0.257356
-0.253189
-0.340234
-0.339558
-0.338612
-0.337371
-0.335839
-0.334043
-0.332009
-0.32976
-0.327318
-0.324706
-0.321942
-0.319048
-0.31604
-0.312937
-0.309751
-0.306493
-0.303167
-0.299773
-0.296301
-0.292738
-0.289066
-0.285265
-0.281315
-0.277203
-0.272917
-0.268458
-0.263802
-0.259025
-0.253859
-0.248996
-0.344684
-0.343773
-0.34263
-0.341208
-0.3395
-0.337539
-0.335355
-0.332973
-0.330415
-0.327704
-0.324856
-0.321886
-0.318806
-0.315623
-0.312341
-0.308957
-0.305461
-0.301842
-0.298081
-0.294158
-0.290057
-0.285763
-0.281267
-0.276571
-0.27168
-0.266614
-0.261364
-0.256009
-0.250323
-0.244917
-0.349473
-0.348316
-0.346962
-0.345347
-0.343451
-0.341313
-0.338966
-0.336439
-0.333754
-0.33093
-0.327982
-0.324919
-0.321744
-0.318454
-0.315038
-0.311482
-0.307765
-0.303862
-0.299752
-0.295413
-0.290833
-0.286008
-0.280947
-0.275666
-0.270191
-0.264553
-0.258762
-0.252897
-0.246762
-0.240928
-0.354601
-0.353186
-0.351612
-0.349791
-0.347696
-0.34537
-0.342851
-0.340168
-0.337343
-0.334394
-0.33133
-0.328152
-0.324854
-0.321419
-0.317827
-0.314047
-0.310049
-0.305802
-0.301282
-0.296473
-0.291372
-0.285991
-0.280356
-0.274502
-0.26847
-0.262303
-0.256022
-0.249706
-0.243184
-0.236995
-0.36007
-0.358385
-0.35658
-0.354546
-0.352243
-0.34972
-0.347019
-0.344169
-0.341193
-0.338104
-0.334904
-0.331586
-0.328131
-0.324511
-0.32069
-0.316628
-0.312286
-0.307632
-0.302644
-0.297316
-0.291662
-0.28571
-0.279504
-0.273097
-0.26654
-0.259886
-0.253163
-0.246447
-0.239585
-0.233091
-0.365881
-0.363917
-0.361872
-0.359617
-0.357098
-0.354371
-0.35148
-0.348455
-0.345315
-0.342069
-0.33871
-0.335221
-0.331569
-0.327713
-0.323606
-0.319198
-0.314447
-0.309323
-0.303813
-0.297927
-0.291696
-0.285168
-0.278404
-0.271467
-0.264421
-0.257321
-0.250199
-0.243124
-0.23596
-0.229194
-0.372038
-0.369783
-0.367491
-0.365008
-0.362268
-0.359331
-0.356243
-0.353034
-0.349717
-0.346294
-0.342749
-0.339051
-0.335155
-0.331007
-0.326549
-0.321728
-0.316501
-0.310848
-0.30477
-0.298296
-0.291475
-0.284375
-0.277069
-0.269631
-0.26213
-0.254621
-0.247137
-0.239738
-0.232303
-0.225289
-0.378542
-0.375985
-0.37344
-0.370725
-0.367759
-0.364607
-0.361317
-0.357912
-0.354403
-0.35078
-0.347016
-0.343066
-0.338871
-0.334368
-0.329491
-0.324186
-0.31842
-0.312184
-0.3055
-0.298416
-0.291001
-0.283338
-0.275513
-0.267604
-0.25968
-0.251795
-0.24398
-0.236285
-0.228604
-0.221359
-0.38539
-0.382523
-0.379718
-0.376767
-0.373573
-0.370203
-0.366702
-0.363092
-0.359371
-0.355519
-0.351497
-0.347244
-0.342691
-0.337763
-0.332395
-0.326539
-0.320173
-0.313309
-0.305989
-0.298283
-0.290278
-0.282069
-0.273748
-0.265396
-0.25708
-0.248848
-0.240729
-0.232761
-0.224855
-0.217392
-0.392579
-0.389391
-0.386321
-0.383133
-0.379709
-0.376116
-0.372399
-0.368568
-0.364612
-0.360498
-0.356171
-0.351558
-0.346579
-0.341156
-0.335225
-0.328752
-0.321734
-0.314204
-0.306228
-0.297896
-0.28931
-0.280574
-0.271783
-0.263016
-0.254334
-0.24578
-0.23738
-0.22916
-0.221044
-0.213376
-0.400097
-0.396579
-0.393242
-0.389815
-0.38616
-0.382341
-0.378397
-0.374328
-0.37011
-0.365694
-0.36101
-0.355973
-0.350496
-0.344503
-0.337941
-0.330791
-0.323075
-0.314851
-0.306207
-0.297253
-0.288102
-0.27886
-0.269624
-0.260466
-0.251443
-0.242589
-0.233927
-0.225472
-0.217163
-0.2093
-0.407928
-0.404073
-0.400466
-0.396801
-0.392913
-0.388863
-0.384681
-0.380353
-0.375839
-0.371074
-0.365973
-0.360444
-0.354396
-0.34776
-0.3405
-0.332621
-0.324171
-0.315234
-0.305921
-0.296354
-0.286654
-0.27693
-0.267272
-0.257747
-0.248404
-0.239271
-0.230363
-0.221689
-0.213201
-0.205153
-0.416047
-0.41185
-0.407974
-0.404071
-0.399949
-0.395662
-0.391226
-0.386612
-0.381763
-0.376596
-0.371015
-0.36492
-0.358226
-0.350877
-0.342861
-0.334209
-0.324998
-0.315339
-0.30536
-0.295195
-0.284968
-0.274784
-0.264727
-0.254857
-0.245213
-0.235817
-0.226679
-0.217801
-0.209146
-0.200924
-0.424424
-0.419882
-0.415737
-0.411598
-0.407242
-0.402708
-0.398
-0.393069
-0.387839
-0.382211
-0.376079
-0.369344
-0.361931
-0.353805
-0.34498
-0.33552
-0.325532
-0.315149
-0.304516
-0.293771
-0.283038
-0.272417
-0.261983
-0.251787
-0.241861
-0.232218
-0.222865
-0.213797
-0.204988
-0.196602
-0.433019
-0.428132
-0.423722
-0.41935
-0.414755
-0.409964
-0.404961
-0.399676
-0.394013
-0.38786
-0.381105
-0.373655
-0.365453
-0.356491
-0.346815
-0.336524
-0.325752
-0.314652
-0.303379
-0.292076
-0.28086
-0.269825
-0.259034
-0.248531
-0.238338
-0.228465
-0.218911
-0.209666
-0.200715
-0.192178
-0.441784
-0.436555
-0.431885
-0.427283
-0.422447
-0.417384
-0.412058
-0.406376
-0.400222
-0.393476
-0.386025
-0.377788
-0.368733
-0.358884
-0.348327
-0.33719
-0.325635
-0.313831
-0.301939
-0.2901
-0.278425
-0.266997
-0.25587
-0.245078
-0.234635
-0.224546
-0.214805
-0.205398
-0.196317
-0.187639
-0.450663
-0.4451
-0.440176
-0.435347
-0.430263
-0.424911
-0.41923
-0.413103
-0.406398
-0.398988
-0.390767
-0.381674
-0.371709
-0.360936
-0.349475
-0.337488
-0.325159
-0.31267
-0.300182
-0.287832
-0.275722
-0.263923
-0.25248
-0.241416
-0.23074
-0.220449
-0.210535
-0.20098
-0.191781
-0.182976
-0.459593
-0.453705
-0.448536
-0.443482
-0.438145
-0.432482
-0.426408
-0.419784
-0.412463
-0.404317
-0.395256
-0.385246
-0.374324
-0.362596
-0.35022
-0.337389
-0.324304
-0.311152
-0.298095
-0.28526
-0.272738
-0.26059
-0.248849
-0.237532
-0.226638
-0.216162
-0.206089
-0.196401
-0.187098
-0.178179
-0.468502
-0.462302
-0.456899
-0.451623
-0.446021
-0.440023
-0.433516
-0.426338
-0.418334
-0.409383
-0.399415
-0.388433
-0.376518
-0.363818
-0.350527
-0.336865
-0.323045
-0.309259
-0.295661
-0.282368
-0.269459
-0.256984
-0.244966
-0.233412
-0.222318
-0.211672
-0.201456
-0.191651
-0.182256
-0.173238
-0.477309
-0.470815
-0.465188
-0.459692
-0.453815
-0.447454
-0.440468
-0.432677
-0.423925
-0.414101
-0.403167
-0.39117
-0.378236
-0.364556
-0.350361
-0.335888
-0.321362
-0.306971
-0.292862
-0.279139
-0.265869
-0.253089
-0.240814
-0.229043
-0.217766
-0.206967
-0.196625
-0.186718
-0.177246
-0.168144
-0.485928
-0.479161
-0.473324
-0.467608
-0.461441
-0.454685
-0.447173
-0.438711
-0.429143
-0.418385
-0.406436
-0.39339
-0.379423
-0.364768
-0.349686
-0.334432
-0.319232
-0.30427
-0.289682
-0.275558
-0.261952
-0.24889
-0.236379
-0.22441
-0.212969
-0.202034
-0.191583
-0.181592
-0.172056
-0.162887
-0.494267
-0.487249
-0.481215
-0.475281
-0.468807
-0.461623
-0.453535
-0.444341
-0.433899
-0.422152
-0.409147
-0.39503
-0.380027
-0.364412
-0.34847
-0.332468
-0.316632
-0.301135
-0.286101
-0.271605
-0.25769
-0.244371
-0.231645
-0.2195
-0.207913
-0.196862
-0.186319
-0.176262
-0.166678
-0.15746
-0.502228
-0.494985
-0.488768
-0.482613
-0.475816
-0.468167
-0.459454
-0.449472
-0.438098
-0.425317
-0.411227
-0.39603
-0.380001
-0.36345
-0.346683
-0.329973
-0.31354
-0.297546
-0.282099
-0.267263
-0.253066
-0.239515
-0.226598
-0.214297
-0.202587
-0.191439
-0.180824
-0.17072
-0.161103
-0.151857
-0.509706
-0.502268
-0.495883
-0.489506
-0.482364
-0.474214
-0.464827
-0.454004
-0.44165
-0.427799
-0.412608
-0.396333
-0.379298
-0.361845
-0.344294
-0.326919
-0.309932
-0.293481
-0.277658
-0.262513
-0.248064
-0.234307
-0.221223
-0.20879
-0.196977
-0.185753
-0.175086
-0.164955
-0.155323
-0.14607
-0.516598
-0.508995
-0.502456
-0.495852
-0.488346
-0.479658
-0.469551
-0.457839
-0.444466
-0.429522
-0.413224
-0.395887
-0.377877
-0.359563
-0.341276
-0.323284
-0.305788
-0.28892
-0.272759
-0.257339
-0.242667
-0.228731
-0.215507
-0.202964
-0.191072
-0.179794
-0.169097
-0.158959
-0.149331
-0.140094
-0.522793
-0.515058
-0.50838
-0.501547
-0.493654
-0.484393
-0.473523
-0.460882
-0.446461
-0.430411
-0.413015
-0.394642
-0.375699
-0.356573
-0.3376
-0.319043
-0.301085
-0.283845
-0.267383
-0.251722
-0.236859
-0.222773
-0.209434
-0.196809
-0.184861
-0.173552
-0.162847
-0.152723
-0.143119
-0.133922
-0.528184
-0.52035
-0.513548
-0.506481
-0.49818
-0.488313
-0.476643
-0.463041
-0.447554
-0.4304
-0.411926
-0.392555
-0.372727
-0.352845
-0.333244
-0.314174
-0.295805
-0.278235
-0.261513
-0.245648
-0.230626
-0.21642
-0.202995
-0.190313
-0.178334
-0.167018
-0.156328
-0.146239
-0.136679
-0.127547
-0.532663
-0.524765
-0.517852
-0.510546
-0.501817
-0.491315
-0.478814
-0.464229
-0.44767
-0.429425
-0.409906
-0.389585
-0.368929
-0.348352
-0.328183
-0.308657
-0.289927
-0.272075
-0.255133
-0.2391
-0.223954
-0.209659
-0.196177
-0.183465
-0.171482
-0.160183
-0.149531
-0.139501
-0.130007
-0.120965
-0.536122
-0.528195
-0.521187
-0.513636
-0.504462
-0.493299
-0.479944
-0.464365
-0.446741
-0.427431
-0.406911
-0.385697
-0.364278
-0.343072
-0.322397
-0.302473
-0.283435
-0.265348
-0.248229
-0.232067
-0.216831
-0.20248
-0.188971
-0.176258
-0.164296
-0.153039
-0.14245
-0.132501
-0.123097
-0.114172
-0.538459
-0.530538
-0.523448
-0.515649
-0.506014
-0.494171
-0.479949
-0.463375
-0.444703
-0.424367
-0.402901
-0.380859
-0.358748
-0.336981
-0.315867
-0.295606
-0.276314
-0.25804
-0.240788
-0.224536
-0.209247
-0.194874
-0.181369
-0.168683
-0.156769
-0.14558
-0.135074
-0.125229
-0.115942
-0.107158
-0.539575
-0.531696
-0.524538
-0.516488
-0.506379
-0.493843
-0.478749
-0.461192
-0.441504
-0.420192
-0.397843
-0.375046
-0.352317
-0.330064
-0.308578
-0.288041
-0.26855
-0.250139
-0.232798
-0.216498
-0.201193
-0.186832
-0.173364
-0.160736
-0.148898
-0.137799
-0.127399
-0.117676
-0.108522
-0.0998795
-0.539379
-0.531575
-0.524363
-0.51606
-0.505469
-0.492234
-0.476275
-0.457758
-0.437097
-0.414867
-0.39171
-0.368237
-0.344969
-0.322305
-0.300516
-0.279767
-0.260134
-0.241635
-0.224252
-0.207945
-0.192663
-0.178351
-0.164952
-0.152412
-0.140677
-0.129695
-0.119423
-0.10984
-0.100812
-0.0922472
-0.537783
-0.530089
-0.522837
-0.514281
-0.503206
-0.489275
-0.472465
-0.453022
-0.431441
-0.408366
-0.384479
-0.360414
-0.33669
-0.313692
-0.291673
-0.270774
-0.251056
-0.232522
-0.215144
-0.198873
-0.183654
-0.169426
-0.156131
-0.14371
-0.132108
-0.121269
-0.111151
-0.10173
-0.0928234
-0.084226
-0.534713
-0.52716
-0.519881
-0.511076
-0.499519
-0.484901
-0.467266
-0.446943
-0.424507
-0.400664
-0.376135
-0.351566
-0.327471
-0.304219
-0.28204
-0.261056
-0.241311
-0.222795
-0.205469
-0.189278
-0.174162
-0.160057
-0.1469
-0.13463
-0.123191
-0.112523
-0.102586
-0.0933528
-0.0846007
-0.0761022
-0.530098
-0.522718
-0.515427
-0.506378
-0.494346
-0.479061
-0.460637
-0.43949
-0.416272
-0.391747
-0.366667
-0.341686
-0.317308
-0.29388
-0.271614
-0.250611
-0.230897
-0.212452
-0.195226
-0.17916
-0.164188
-0.150243
-0.137259
-0.125175
-0.113929
-0.103462
-0.0937359
-0.0847113
-0.0761022
-0.0679311
-0.52388
-0.516703
-0.509415
-0.50013
-0.487637
-0.471712
-0.452546
-0.430639
-0.406721
-0.381606
-0.356072
-0.330772
-0.306198
-0.282677
-0.260397
-0.239439
-0.219815
-0.201494
-0.184417
-0.168521
-0.153734
-0.139987
-0.127211
-0.115351
-0.104328
-0.0940903
-0.0846026
-0.0758071
-0.0673924
-0.0595697
-0.516012
-0.509066
-0.501796
-0.492288
-0.479354
-0.462824
-0.442969
-0.420378
-0.395847
-0.37024
-0.34435
-0.318828
-0.294147
-0.270613
-0.24839
-0.227543
-0.208069
-0.189924
-0.173046
-0.157365
-0.142804
-0.129297
-0.116768
-0.105156
-0.0943906
-0.0844128
-0.07519
-0.0666502
-0.0584676
-0.0509856
-0.506457
-0.499768
-0.492531
-0.482815
-0.469466
-0.452374
-0.431895
-0.4087
-0.383653
-0.357654
-0.331509
-0.305861
-0.281162
-0.257695
-0.235602
-0.214931
-0.195664
-0.17775
-0.161118
-0.145701
-0.13141
-0.118178
-0.105931
-0.0946028
-0.0841246
-0.0744356
-0.0655044
-0.0572472
-0.0493214
-0.0421809
-0.495188
-0.488782
-0.481596
-0.47169
-0.457958
-0.440354
-0.419321
-0.39561
-0.370146
-0.34386
-0.317563
-0.291884
-0.267255
-0.243935
-0.222044
-0.201612
-0.182611
-0.164984
-0.14865
-0.133535
-0.119556
-0.106639
-0.0947101
-0.0836996
-0.0735389
-0.064167
-0.0555539
-0.0476036
-0.0399537
-0.0331656
-0.482192
-0.476092
-0.468973
-0.4589
-0.444822
-0.426765
-0.405255
-0.381122
-0.355344
-0.328876
-0.302529
-0.276916
-0.252444
-0.229348
-0.20773
-0.187602
-0.168926
-0.151635
-0.135648
-0.120882
-0.107257
-0.0946932
-0.083117
-0.0724573
-0.062644
-0.0536169
-0.0453476
-0.0377269
-0.0303706
-0.0239503
-0.467465
-0.461694
-0.454661
-0.444447
-0.430065
-0.411618
-0.389714
-0.365257
-0.33927
-0.312726
-0.286431
-0.260978
-0.23675
-0.213955
-0.192679
-0.172918
-0.154623
-0.137721
-0.122128
-0.107757
-0.0945259
-0.0823537
-0.0711653
-0.0608885
-0.0514523
-0.0427972
-0.0348966
-0.0276268
-0.0205818
-0.0145455
-0.451018
-0.445594
-0.438667
-0.42834
-0.413703
-0.394933
-0.372723
-0.348043
-0.321955
-0.295442
-0.2693
-0.244099
-0.220198
-0.197781
-0.176913
-0.157579
-0.139722
-0.123261
-0.108109
-0.0941769
-0.0813799
-0.0696367
-0.0588705
-0.0490083
-0.0399781
-0.0317216
-0.0242138
-0.0173153
-0.0105991
-0.00496304
-0.43287
-0.427812
-0.42101
-0.410603
-0.395762
-0.376744
-0.354318
-0.329517
-0.303436
-0.27706
-0.251169
-0.226311
-0.202817
-0.180851
-0.160458
-0.141612
-0.124246
-0.108276
-0.0936113
-0.0801609
-0.067838
-0.0565602
-0.04625
-0.0368334
-0.0282375
-0.0204057
-0.0133139
-0.00680681
-0.000436801
0.00478367
-0.413053
-0.408378
-0.401722
-0.391269
-0.37628
-0.357088
-0.334541
-0.309726
-0.283759
-0.257621
-0.232077
-0.20765
-0.184643
-0.163198
-0.143343
-0.125042
-0.108221
-0.0927913
-0.0786587
-0.0657314
-0.0539211
-0.0431444
-0.0333232
-0.0243825
-0.0162488
-0.00886686
-0.00221405
0.00388221
0.00988865
0.0146794
-0.39161
-0.387331
-0.380843
-0.370381
-0.355301
-0.336016
-0.313445
-0.288724
-0.262973
-0.237167
-0.212068
-0.188156
-0.165712
-0.144856
-0.125601
-0.107902
-0.0916766
-0.0768335
-0.0632768
-0.0509128
-0.0396524
-0.0294115
-0.0201112
-0.0116759
-0.00403149
0.00287548
0.00906709
0.0147331
0.0203583
0.0247067
-0.368594
-0.364725
-0.358427
-0.347995
-0.332884
-0.31359
-0.291102
-0.266566
-0.241112
-0.215758
-0.19119
-0.167875
-0.146066
-0.125864
-0.107269
-0.0902235
-0.0746434
-0.0604325
-0.0474934
-0.0357316
-0.025057
-0.0153852
-0.00663683
0.00126445
0.00839292
0.0148004
0.0205088
0.0257252
0.0309505
0.0348441
-0.344068
-0.340618
-0.334533
-0.324171
-0.309098
-0.289892
-0.267585
-0.243254
-0.218266
-0.193447
-0.169496
-0.146855
-0.125751
-0.106265
-0.0883845
-0.0720447
-0.0571562
-0.0436206
-0.031339
-0.0202162
-0.0101618
-0.00109101
0.00707575
0.0144152
0.0210018
0.0268855
0.0320888
0.0368356
0.0416397
0.0450625
-0.318107
-0.315081
-0.309233
-0.298987
-0.284025
-0.264986
-0.242838
-0.218982
-0.194496
-0.170296
-0.147045
-0.12515
-0.104816
-0.0861039
-0.0689908
-0.0534046
-0.0392519
-0.0264322
-0.0148458
-0.00439691
0.00500486
0.0134444
0.0210012
0.0277522
0.0337716
0.0391075
0.0437837
0.0480392
0.0523955
0.0553276
-0.290788
-0.288192
-0.282605
-0.272525
-0.257732
-0.238856
-0.217125
-0.19375
-0.169864
-0.146371
-0.123896
-0.102816
-0.0833117
-0.0654289
-0.0491327
-0.0343453
-0.0209698
-0.00890416
0.00195188
0.0116941
0.020413
0.0281928
0.0351131
0.0412504
0.0466782
0.0514427
0.0555692
0.0593093
0.0631856
0.0656096
-0.262188
-0.260044
-0.254739
-0.244863
-0.230255
-0.211731
-0.190443
-0.16764
-0.144448
-0.121741
-0.100113
-0.0799119
-0.0612944
-0.0442913
-0.0288581
-0.0149112
-0.00235128
0.00892488
0.0190179
0.0280234
0.0360312
0.0431253
0.0493844
0.0548846
0.0596978
0.0638673
0.0674215
0.070622
0.0739842
0.0758838
-0.232389
-0.230736
-0.225725
-0.216073
-0.201772
-0.183644
-0.162881
-0.140739
-0.118324
-0.096478
-0.0757642
-0.0565001
-0.0388217
-0.0227451
-0.00821692
0.00485085
0.0165599
0.0270142
0.0363144
0.0445556
0.051827
0.0582117
0.0637874
0.0686293
0.072806
0.0763579
0.0793196
0.0819614
0.084771
0.0860845
-0.201476
-0.200395
-0.195661
-0.18629
-0.172348
-0.15469
-0.134535
-0.113136
-0.091573
-0.0706578
-0.0509187
-0.0326456
-0.0159539
-0.000846252
0.0127384
0.0248921
0.0357184
0.0453215
0.053802
0.0612543
0.0677667
0.073421
0.0782942
0.082459
0.0859792
0.0888925
0.0912472
0.0933156
0.095498
0.0960615
-0.169617
-0.16909
-0.16466
-0.155613
-0.142086
-0.124971
-0.105501
-0.0849193
-0.06428
-0.0443584
-0.0256494
-0.00841585
0.00724634
0.0213467
0.0339533
0.0451617
0.0550767
0.0638027
0.0714396
0.0780814
0.0838151
0.0887216
0.0928761
0.0963485
0.0991955
0.101455
0.103198
0.104666
0.106056
0.105665
-0.136978
-0.136891
-0.132832
-0.124153
-0.111096
-0.0945906
-0.075877
-0.0561834
-0.0365316
-0.0176604
-3.12356e-05
0.0161195
0.0307141
0.0437734
0.0553716
0.0656072
0.0745859
0.082412
0.089185
0.0949977
0.0999362
0.10408
0.107504
0.110273
0.112437
0.114043
0.115185
0.116009
0.116373
0.114919
-0.103602
-0.103964
-0.100296
-0.092022
-0.0794885
-0.0636563
-0.0457657
-0.0270235
-0.00841681
0.00935336
0.025859
0.040889
0.0543829
0.0663718
0.0769355
0.0861746
0.0941956
0.101103
0.106994
0.111962
0.116092
0.119463
0.122146
0.124204
0.125686
0.126654
0.127224
0.127371
0.126592
0.124224
-0.0696082
-0.0704348
-0.0671712
-0.0593377
-0.0473781
-0.0322778
-0.0152706
0.00246306
0.0199735
0.0365984
0.0519426
0.0658195
0.0781847
0.0890785
0.0985856
0.106809
0.113854
0.119826
0.124822
0.128933
0.132244
0.134832
0.136768
0.138111
0.138913
0.139261
0.139271
0.138694
0.136748
0.135506
-0.0351284
-0.036425
-0.0335798
-0.0262204
-0.0148817
-0.000567052
0.0155025
0.0321772
0.048547
0.0639889
0.0781399
0.0908368
0.10205
0.111829
0.120261
0.127453
0.133509
0.138533
0.142623
0.145868
0.148351
0.150149
0.151333
0.151959
0.152085
0.151807
0.151209
0.149959
0.147571
0.146887
-0.000293275
-0.00206127
0.000352422
0.00720687
0.0178818
0.0313628
0.0464469
0.0620189
0.0772105
0.091438
0.10437
0.115865
0.125909
0.134557
0.141902
0.148049
0.153106
0.157174
0.160349
0.162721
0.164372
0.165377
0.165804
0.165713
0.165162
0.16425
0.163024
0.161157
0.158414
0.157617
0.0347661
0.0325278
0.034498
0.0408196
0.0507927
0.0633976
0.0774549
0.0918874
0.10587
0.118858
0.130551
0.140829
0.14969
0.157197
0.163445
0.168541
0.172591
0.175697
0.177954
0.17945
0.180265
0.180474
0.180145
0.179336
0.17811
0.176557
0.17471
0.172278
0.16917
0.168009
0.0699175
0.0672119
0.0687285
0.0744926
0.0837302
0.0954225
0.108418
0.121682
0.134431
0.146162
0.156602
0.165653
0.173323
0.179682
0.184829
0.18887
0.191911
0.194053
0.19539
0.196008
0.195988
0.195402
0.194318
0.192793
0.19089
0.188696
0.186232
0.183244
0.179724
0.178106
0.105028
0.10186
0.102915
0.1081
0.116574
0.127323
0.13923
0.151301
0.1628
0.173261
0.182441
0.190259
0.196735
0.201946
0.205991
0.208977
0.21101
0.21219
0.212609
0.212352
0.211499
0.210122
0.208285
0.206047
0.20347
0.200636
0.197561
0.194017
0.190053
0.187935
0.139966
0.136342
0.136928
0.141516
0.149203
0.158985
0.169782
0.180645
0.190883
0.200068
0.207985
0.214571
0.219856
0.223921
0.226868
0.228804
0.229834
0.230057
0.229563
0.228437
0.226757
0.224593
0.22201
0.219064
0.215817
0.212346
0.208665
0.204566
0.20014
0.197498
0.174599
0.170525
0.170639
0.174617
0.181498
0.190296
0.199967
0.209613
0.218587
0.226497
0.233155
0.238515
0.242616
0.245543
0.2474
0.248294
0.24833
0.247603
0.246205
0.244219
0.24172
0.238777
0.235455
0.231809
0.227898
0.223798
0.219516
0.214864
0.209969
0.206789
0.208797
0.204282
0.203921
0.207279
0.213341
0.221142
0.229682
0.238109
0.245821
0.252463
0.257871
0.262015
0.264943
0.266745
0.267525
0.26739
0.266442
0.264779
0.262489
0.259653
0.256346
0.252637
0.248586
0.244249
0.239684