/*--------------------------------*- C++ -*----------------------------------*\
  =========                 |
  \\      /  F ield         | OpenFOAM: The Open Source CFD Toolbox
   \\    /   O peration     | Website:  https://openfoam.org
    \\  /    A nd           | Version:  7
     \\/     M anipulation  |
\*---------------------------------------------------------------------------*/
FoamFile
{
    version     2.0;
    format      ascii;
    class       surfaceScalarField;
    location    "98";
    object      phi;
}
// * * * * * * * * * * * * * * * * * * * * * * * * * * * * * * * * * * * * * //

dimensions      [0 3 -1 0 0 0 0];

internalField   nonuniform List<scalar> 
79480
(
-1.214e-06
-1.4531e-06
2.6671e-06
-4.58333e-06
5.87746e-08
3.31055e-06
-9.95892e-06
5.77984e-06
-4.04246e-07
-1.72139e-05
1.54938e-05
-8.23881e-06
-2.62419e-05
2.8891e-05
-1.98631e-05
-3.69555e-05
4.56034e-05
-3.48897e-05
-4.92842e-05
6.52309e-05
-5.29023e-05
-6.31693e-05
8.73742e-05
-7.34891e-05
-7.85589e-05
0.000111673
-9.6283e-05
-9.54015e-05
0.000137843
-0.000121001
-0.00011364
0.000165715
-0.000147476
-0.000133206
0.000195252
-0.000175685
-0.000154016
0.000226569
-0.000205759
-0.000175966
0.000259924
-0.000237975
-0.000198933
0.000295706
-0.00027274
-0.000222773
0.000334398
-0.000310558
-0.000247325
0.000376543
-0.000351991
-0.000272406
0.0004227
-0.000397619
-0.00029782
0.000473409
-0.000447995
-0.00032335
0.000529154
-0.000503624
-0.000348765
0.00059034
-0.000564925
-0.000373813
0.000657274
-0.000632226
-0.000398225
0.000730155
-0.000705742
-0.000421711
0.00080906
-0.000785573
-0.000443958
0.00089394
-0.000871693
-0.000464621
0.000984607
-0.000963943
-0.000483322
0.00108071
-0.00106201
-0.000499632
0.00118171
-0.0011654
-0.000513056
0.00128681
-0.00127339
0.00139529
-0.00138517
-0.000523174
-1.11388e-06
-3.39215e-07
-4.2027e-06
3.14759e-06
-9.12679e-06
1.07039e-05
-1.57677e-05
2.21348e-05
-2.40269e-05
3.71502e-05
-3.38244e-05
5.54008e-05
-4.50957e-05
7.65023e-05
-5.77875e-05
0.000100066
-7.18514e-05
0.000125737
-8.7237e-05
0.000153229
-0.000103885
0.000182363
-0.000121721
0.000213087
-0.000140648
0.000245496
-0.000160547
0.000279824
-0.000181272
0.000316431
-0.000202651
0.000355777
-0.000224487
0.000398379
-0.000246559
0.000444773
-0.000268627
0.000495476
-0.000290425
0.000550952
-0.000311669
0.000611584
-0.000332049
0.000677654
-0.000351228
0.000749333
-0.000368836
0.000826668
-0.000384465
0.000909569
-0.000397661
0.000997803
-0.000407921
0.00109097
-0.000414687
0.00118847
-0.000417332
0.00128946
0.00139326
-0.000415303
-1.00311e-06
6.63897e-07
-3.78241e-06
5.92689e-06
-8.20929e-06
1.51308e-05
-1.41746e-05
2.81e-05
-2.15876e-05
4.45633e-05
-3.03755e-05
6.41887e-05
-4.04795e-05
8.66063e-05
-5.18507e-05
0.000111437
-6.44431e-05
0.000138329
-7.82067e-05
0.000166992
-9.30793e-05
0.000197235
-0.000108979
0.000228987
-0.000125799
0.000262316
-0.000143402
0.000297427
-0.000161619
0.000334648
-0.000180248
0.000374406
-0.000199057
0.000417187
-0.000217784
0.0004635
-0.000236139
0.000513832
-0.000253807
0.000568621
-0.000270444
0.00062822
-0.000285672
0.000692883
-0.000299081
0.000762742
-0.000310216
0.000837802
-0.000318568
0.000917921
-0.00032357
0.00100281
-0.000324593
0.001092
-0.000320961
0.00118484
-0.000311933
0.00128043
0.00137812
-0.000296791
-8.8503e-07
1.54893e-06
-3.3349e-06
8.37676e-06
-7.23256e-06
1.90285e-05
-1.2478e-05
3.33455e-05
-1.89884e-05
5.10736e-05
-2.66966e-05
7.18969e-05
-3.55486e-05
9.54584e-05
-4.54987e-05
0.000121387
-5.65022e-05
0.000149332
-6.85084e-05
0.000178999
-8.14517e-05
0.000210178
-9.52434e-05
0.000242779
-0.000109765
0.000276837
-0.000124862
0.000312524
-0.000140343
0.000350129
-0.000155977
0.00039004
-0.000171495
0.000432706
-0.000186594
0.000478599
-0.000200936
0.000528174
-0.000214148
0.000581833
-0.000225825
0.000639896
-0.00023552
0.000702578
-0.000242743
0.000769966
-0.000246952
0.00084201
-0.000247538
0.000918508
-0.000243823
0.000999091
-0.000235057
0.00108323
-0.000220449
0.00117023
-0.000199205
0.00125918
0.00134927
-0.000170357
-7.63205e-07
2.31213e-06
-2.87297e-06
1.04865e-05
-6.2235e-06
2.2379e-05
-1.07233e-05
3.78453e-05
-1.6296e-05
5.66463e-05
-2.2879e-05
7.84799e-05
-3.04214e-05
0.000103001
-3.88787e-05
0.000129844
-4.82064e-05
0.00015866
-5.83519e-05
0.000189144
-6.92453e-05
0.000221072
-8.07906e-05
0.000254324
-9.28581e-05
0.000288905
-0.000105278
0.000324943
-0.000117836
0.000362687
-0.000130274
0.000402478
-0.000142289
0.000444721
-0.000153535
0.000489844
-0.000163624
0.000538263
-0.000172129
0.000590338
-0.00017858
0.000646348
-0.000182462
0.00070646
-0.000183207
0.00077071
-0.000180183
0.000838987
-0.000172689
0.000911013
-0.000159941
0.000986342
-0.000141076
0.00106436
-0.000115183
0.00114434
-8.14261e-05
0.00122543
0.00130724
-3.9396e-05
-6.41142e-07
2.95327e-06
-2.40938e-06
1.22548e-05
-5.20917e-06
2.51788e-05
-8.95606e-06
4.15922e-05
-1.35782e-05
6.12684e-05
-1.90159e-05
8.39176e-05
-2.52189e-05
0.000109204
-3.21423e-05
0.000136768
-3.97397e-05
0.000166258
-4.7955e-05
0.00019736
-5.67135e-05
0.00022983
-6.59115e-05
0.000263522
-7.54086e-05
0.000298402
-8.50199e-05
0.000334555
-9.4512e-05
0.000372179
-0.0001036
0.000411566
-0.000111948
0.000453069
-0.00011917
0.000497066
-0.000124832
0.000543925
-0.000128452
0.000593958
-0.000129499
0.000647396
-0.000127391
0.000704352
-0.000121484
0.000764803
-0.000111066
0.000828569
-9.53467e-05
0.000895294
-7.34454e-05
0.000964441
-4.4401e-05
0.00103532
-7.18434e-06
0.00110712
3.91795e-05
0.00117906
0.0012513
9.51212e-05
-5.22217e-07
3.47549e-06
-1.95658e-06
1.36891e-05
-4.21599e-06
2.74382e-05
-7.22102e-06
4.45973e-05
-1.09022e-05
6.49497e-05
-1.52001e-05
8.82154e-05
-2.00628e-05
0.000114066
-2.54424e-05
0.000142147
-3.12885e-05
0.000172104
-3.75401e-05
0.000203611
-4.41159e-05
0.000236406
-5.09048e-05
0.000270311
-5.77556e-05
0.000305253
-6.44701e-05
0.000341269
-7.07967e-05
0.000378506
-7.6427e-05
0.000417197
-8.09958e-05
0.000457638
-8.40807e-05
0.000500151
-8.52043e-05
0.000545048
-8.38344e-05
0.000592588
-7.93838e-05
0.000642945
-7.12061e-05
0.000696174
-5.85897e-05
0.000752187
-4.07494e-05
0.000810728
-1.68158e-05
0.000871361
1.41624e-05
0.000933463
5.32397e-05
0.000996243
0.000101506
0.00105885
0.00015998
0.00112059
0.00118186
0.000229417
-4.09613e-07
3.8851e-06
-1.52634e-06
1.48059e-05
-3.26922e-06
2.91811e-05
-5.5613e-06
4.68894e-05
-8.33288e-06
6.77212e-05
-1.15217e-05
9.14043e-05
-1.50718e-05
0.000117617
-1.89295e-05
0.000146005
-2.30379e-05
0.000176212
-2.73289e-05
0.000207902
-3.17137e-05
0.000240791
-3.60723e-05
0.00027467
-4.02438e-05
0.000309424
-4.40174e-05
0.000345043
-4.71258e-05
0.000381614
-4.92403e-05
0.000419311
-4.99699e-05
0.000458367
-4.88607e-05
0.000499042
-4.53969e-05
0.000541584
-3.90016e-05
0.000586193
-2.90371e-05
0.00063298
-1.48014e-05
0.000681938
4.47516e-06
0.00073291
2.96391e-05
0.000785564
6.1621e-05
0.000839379
0.000101446
0.000893638
0.000150228
0.000947461
0.000209131
0.000999951
0.000279245
0.00105048
0.00109982
0.000361283
-3.06253e-07
4.19136e-06
-1.12957e-06
1.56292e-05
-2.39232e-06
3.04438e-05
-4.01719e-06
4.85142e-05
-5.9312e-06
6.96352e-05
-8.06654e-06
9.35396e-05
-1.03597e-05
0.00011991
-1.27486e-05
0.000148394
-1.51673e-05
0.000178631
-1.75382e-05
0.000210273
-1.97633e-05
0.000243016
-2.1713e-05
0.000276619
-2.32164e-05
0.000310928
-2.40514e-05
0.000345878
-2.39369e-05
0.0003815
-2.25274e-05
0.000417902
-1.94106e-05
0.00045525
-1.41061e-05
0.000493738
-6.06594e-06
0.000533544
5.32337e-06
0.000574804
2.07427e-05
0.000617561
4.09398e-05
0.000661741
6.67337e-05
0.000707116
9.90194e-05
0.000753279
0.000138775
0.000799623
0.000187071
0.000845342
0.000245067
0.000889465
0.000313987
0.00093103
0.000394978
0.000969486
0.00100606
0.000488741
-2.14739e-07
4.4061e-06
-7.7603e-07
1.61905e-05
-1.60648e-06
3.12743e-05
-2.62528e-06
4.9533e-05
-3.75307e-06
7.0763e-05
-4.91329e-06
9.46999e-05
-6.03198e-06
0.000121028
-7.03554e-06
0.000149398
-7.84611e-06
0.000179441
-8.37446e-06
0.000210801
-8.5111e-06
0.000243153
-8.116e-06
0.000276224
-7.00776e-06
0.000309819
-4.95363e-06
0.000343824
-1.66084e-06
0.000378207
3.22915e-06
0.000413012
1.01461e-05
0.000448333
1.95909e-05
0.000484293
3.21363e-05
0.000520999
4.84262e-05
0.000558514
6.91738e-05
0.000596813
9.51631e-05
0.000635752
0.00012725
0.00067503
0.000166364
0.000714164
0.000213516
0.000752471
0.000269802
0.000789056
0.000336409
0.000822858
0.000414601
0.000852838
0.000505578
0.000878508
0.000901576
0.000610063
-1.37306e-07
4.5434e-06
-4.74168e-07
1.65273e-05
-9.30108e-07
3.17302e-05
-1.4176e-06
5.00205e-05
-1.84772e-06
7.11931e-05
-2.13205e-06
9.49842e-05
-2.18313e-06
0.000121079
-1.91293e-06
0.000149127
-1.22889e-06
0.000178757
-2.76505e-08
0.0002096
1.81359e-06
0.000241311
4.44711e-06
0.000273591
8.06521e-06
0.000306201
1.29108e-05
0.000338978
1.92866e-05
0.000371831
2.75625e-05
0.000404736
3.81799e-05
0.000437716
5.1655e-05
0.000470818
6.85784e-05
0.000504075
8.9615e-05
0.000537477
0.000115502
0.000570926
0.000147048
0.000604206
0.000185134
0.000636944
0.000230712
0.000668587
0.000284809
0.000698373
0.000348533
0.000725332
0.000423078
0.000748313
0.000509727
0.000766189
0.00060974
0.000778496
0.000787406
0.00072391
-7.57872e-08
4.61919e-06
-2.30909e-07
1.66824e-05
-3.78415e-07
3.18777e-05
-4.20757e-07
5.00629e-05
-2.56364e-07
7.10287e-05
2.17985e-07
9.45098e-05
1.10612e-06
0.000120191
2.51327e-06
0.00014772
4.54926e-06
0.000176721
7.33418e-06
0.000206815
1.10062e-05
0.000237639
1.57314e-05
0.000268866
2.17138e-05
0.000300219
2.92066e-05
0.000331485
3.85214e-05
0.000362516
5.00364e-05
0.000393221
6.42016e-05
0.000423551
8.15427e-05
0.000453477
0.000102662
0.000482956
0.000128236
0.000511903
0.000159018
0.000540145
0.000195831
0.000567393
0.000239568
0.000593207
0.000291193
0.000616962
0.000351738
0.000637828
0.000422308
0.000654762
0.000504092
0.000666529
0.000598379
0.000671902
0.000706489
0.000670386
0.000664521
0.000829375
-3.15964e-08
4.65079e-06
-5.17569e-08
1.67026e-05
3.6974e-08
3.1789e-05
3.4487e-07
4.9755e-05
9.89098e-07
7.03845e-05
2.09049e-06
9.34085e-05
3.77184e-06
0.00011851
6.15806e-06
0.000145334
9.37862e-06
0.000173501
1.35725e-05
0.000202621
1.88953e-05
0.000232316
2.55285e-05
0.000262233
3.36891e-05
0.000292058
4.3641e-05
0.000321534
5.57039e-05
0.000350453
7.02626e-05
0.000378662
8.77727e-05
0.000406041
0.000108765
0.000432484
0.000133847
0.000457875
0.000163702
0.000482048
0.000199087
0.000504759
0.000240833
0.000525648
0.000289837
0.000544203
0.000347063
0.000559736
0.00041354
0.000571351
0.000490366
0.000577936
0.000578717
0.000578178
0.000679885
0.000570735
0.000795256
0.000555015
0.000533704
0.000926072
-6.04856e-09
4.65683e-06
6.03181e-08
1.66362e-05
3.08685e-07
3.15406e-05
8.65907e-07
4.91977e-05
1.86743e-06
6.9383e-05
3.45406e-06
9.18218e-05
5.76975e-06
0.000116194
8.96118e-06
0.000142143
1.31795e-05
0.000169282
1.85845e-05
0.000197216
2.53511e-05
0.00022555
3.36777e-05
0.000253906
4.37958e-05
0.00028194
5.59803e-05
0.000309349
7.05595e-05
0.000335874
8.79237e-05
0.000361298
0.000108532
0.000385432
0.000132917
0.000408099
0.000161688
0.000429104
0.000195527
0.000448209
0.000235193
0.000465093
0.000281515
0.000479326
0.000335387
0.00049033
0.000397772
0.000497351
0.000469691
0.000499431
0.000552235
0.000495393
0.000646573
0.00048384
0.000754012
0.000463296
0.000876018
0.000433009
0.000395412
0.00101431
1.9643e-09
4.65487e-06
1.03811e-07
1.65344e-05
4.33599e-07
3.12108e-05
1.13678e-06
4.84946e-05
2.36937e-06
6.81504e-05
4.29416e-06
8.9897e-05
7.0781e-06
0.00011341
1.08913e-05
0.000138329
1.59081e-05
0.000164266
2.23108e-05
0.000190814
3.02952e-05
0.000217565
4.00781e-05
0.000244123
5.19068e-05
0.000270111
6.60688e-05
0.000295187
8.29013e-05
0.000319042
0.0001028
0.000341399
0.000126228
0.000362004
0.000153718
0.000380609
0.000185877
0.000396946
0.000223386
0.000410699
0.000267001
0.000421478
0.000317547
0.00042878
0.000375917
0.00043196
0.000443069
0.000430199
0.000520026
0.000422474
0.00060788
0.000407538
0.000707815
0.000383905
0.000821178
0.000349933
0.000949531
0.000304656
0.000249613
0.00109533
-9.6225e-09
4.66449e-06
7.93489e-08
1.64454e-05
4.13557e-07
3.08766e-05
1.16048e-06
4.77476e-05
2.49884e-06
6.6812e-05
4.6151e-06
8.77808e-05
7.70053e-06
0.000110325
1.19498e-05
0.00013408
1.75619e-05
0.000158654
2.47426e-05
0.000183633
3.371e-05
0.000208598
4.47009e-05
0.000233132
5.79801e-05
0.000256832
7.3849e-05
0.000279318
9.26556e-05
0.000300235
0.000114803
0.000319251
0.000140758
0.000336049
0.000171055
0.000350312
0.000206302
0.000361699
0.000247178
0.000369823
0.000294438
0.000374218
0.000348909
0.000374309
0.000411487
0.000369382
0.00048314
0.000358547
0.000564905
0.000340709
0.000657904
0.00031454
0.000763363
0.000278445
0.000882714
0.000230582
0.00101762
0.000169748
9.5641e-05
0.00117159
-3.80632e-08
4.70256e-06
-1.01128e-08
1.64175e-05
2.55712e-07
3.06108e-05
9.49366e-07
4.7054e-05
2.27423e-06
6.54872e-05
4.44178e-06
8.56132e-05
7.66857e-06
0.000107098
1.21748e-05
0.000129574
1.81846e-05
0.000152644
2.59286e-05
0.000175889
3.56481e-05
0.000198879
4.7602e-05
0.000221178
6.2074e-05
0.00024236
7.93823e-05
0.00026201
9.98883e-05
0.000279729
0.000124006
0.000295133
0.00015221
0.000307846
0.00018504
0.000317482
0.00022311
0.00032363
0.000267105
0.000325827
0.000317791
0.000323533
0.000376005
0.000316095
0.000442665
0.000302721
0.00051877
0.000282442
0.000605405
0.000254075
0.000703753
0.000216191
0.000815132
0.000167067
0.000941106
0.000104607
0.00108342
2.74354e-05
-6.78861e-05
0.00124695
-8.26466e-08
4.7852e-06
-1.57178e-07
1.6492e-05
-2.67669e-08
3.04804e-05
5.25775e-07
4.65014e-05
1.72926e-06
6.42837e-05
3.82107e-06
8.35214e-05
7.04372e-06
0.000103875
1.16435e-05
0.000124974
1.78704e-05
0.000146417
2.59807e-05
0.000167779
3.62406e-05
0.000188619
4.89326e-05
0.000208486
6.43625e-05
0.00022693
8.28687e-05
0.000243504
0.000104831
0.000257767
0.000130679
0.000269285
0.000160902
0.000277622
0.000196057
0.000282327
0.000236773
0.000282914
0.000283756
0.000278844
0.000337797
0.000269492
0.000399771
0.000254121
0.000470644
0.000231848
0.000551482
0.000201604
0.000643458
0.000162099
0.000747868
0.000111782
0.000866162
4.87725e-05
0.00100008
-2.93128e-05
0.00115137
-0.000123853
-0.000242994
0.00132648
-1.41121e-07
4.92632e-06
-3.54897e-07
1.67058e-05
-4.15284e-07
3.05408e-05
-7.79338e-08
4.61641e-05
9.13452e-07
6.32923e-05
2.82258e-06
8.16123e-05
5.91858e-06
0.000100779
1.04743e-05
0.000120418
1.67664e-05
0.000140125
2.50781e-05
0.000159467
3.57023e-05
0.000177994
4.89477e-05
0.000195241
6.51464e-05
0.000210732
8.46621e-05
0.000223988
0.000107899
0.00023453
0.000135314
0.000241871
0.000167422
0.000245515
0.000204808
0.00024494
0.000248138
0.000239585
0.000298159
0.000228823
0.000355714
0.000211936
0.00042175
0.000188086
0.000497318
0.000156279
0.000583596
0.000115326
0.000681893
6.38019e-05
0.000793659
1.65568e-08
0.000920517
-7.80859e-05
0.00106439
-0.000173181
0.00122685
-0.000286317
-0.000432068
0.00141592
-2.10374e-07
5.1367e-06
-5.91175e-07
1.70866e-05
-8.8508e-07
3.08347e-05
-8.18628e-07
4.60976e-05
-1.07871e-07
6.25815e-05
1.53853e-06
7.99659e-05
4.4167e-06
9.79013e-05
8.82677e-06
0.000116008
1.50734e-05
0.000133878
2.34683e-05
0.000151072
3.43338e-05
0.000167129
4.80093e-05
0.000181565
6.48583e-05
0.000193882
8.52777e-05
0.000203569
0.000109707
0.0002101
0.000138641
0.000212937
0.000172638
0.000211518
0.000212333
0.000205245
0.000258448
0.00019347
0.000311805
0.000175466
0.000373335
0.000150406
0.000444089
0.000117332
0.000525252
7.51156e-05
0.000618152
2.24256e-05
0.000724269
-4.23151e-05
0.000845252
-0.000120967
0.000982855
-0.000215689
0.00113914
-0.000329462
0.00131531
-0.00046249
-0.000637324
0.00152056
-2.86661e-07
5.42336e-06
-8.52076e-07
1.7652e-05
-1.40587e-06
3.13885e-05
-1.64439e-06
4.63362e-05
-1.2548e-06
6.21919e-05
8.21654e-08
7.86289e-05
2.69062e-06
9.52928e-05
6.89927e-06
0.0001118
1.30425e-05
0.000127735
2.14634e-05
0.000142651
3.2518e-05
0.000156074
4.65819e-05
0.000167501
6.40581e-05
0.000176406
8.5387e-05
0.00018224
0.000111057
0.00018443
0.000141617
0.000182377
0.000177691
0.000175445
0.000219986
0.00016295
0.000269316
0.00014414
0.000326605
0.000118177
0.000392909
8.41023e-05
0.000469425
4.08161e-05
0.000557502
-1.29609e-05
0.000658645
-7.87176e-05
0.000774514
-0.000158184
0.000906909
-0.000253362
0.00105768
-0.000366462
0.00122885
-0.000500629
0.00142105
-0.000654686
-0.000860125
0.00164385
-3.65601e-07
5.78896e-06
-1.12136e-06
1.84077e-05
-1.94262e-06
3.22097e-05
-2.49461e-06
4.68881e-05
-2.43492e-06
6.21323e-05
-1.41529e-06
7.76093e-05
9.17708e-07
9.29598e-05
4.92331e-06
0.000107794
1.09686e-05
0.000121689
1.9432e-05
0.000134188
3.07093e-05
0.000144797
4.52199e-05
0.000152991
6.34169e-05
0.000158209
8.57972e-05
0.000159859
0.000112915
0.000157312
0.000145394
0.000149897
0.000183946
0.000136893
0.000229382
0.000117514
0.000282632
9.08901e-05
0.000344759
5.6049e-05
0.000416974
1.1888e-05
0.00050064
-4.28504e-05
0.000597282
-0.000109603
0.000708571
-0.000190007
0.000836298
-0.000285911
0.000982319
-0.000399383
0.00114844
-0.000532578
0.00133636
-0.000688557
0.00154601
-0.000864328
-0.00110029
0.00178617
-4.42328e-07
6.23129e-06
-1.38109e-06
1.93465e-05
-2.45679e-06
3.32854e-05
-3.30295e-06
4.77343e-05
-3.54669e-06
6.2376e-05
-2.80942e-06
7.6872e-05
-7.06405e-07
9.08568e-05
3.15493e-06
0.000103933
9.17855e-06
0.000115666
1.77843e-05
0.000125582
2.94148e-05
0.000133167
4.45436e-05
0.000137862
6.36861e-05
0.000139067
8.74119e-05
0.000136134
0.000116359
0.000128365
0.000151249
0.000115007
0.000192905
9.52372e-05
0.000242267
6.81513e-05
0.00030041
3.2747e-05
0.000368555
-1.20959e-05
0.000448078
-6.76349e-05
0.000540509
-0.000135281
0.000647516
-0.00021661
0.000770871
-0.000313362
0.000912381
-0.000427421
0.00107379
-0.000560791
0.00125663
-0.000715415
0.00146196
-0.000893895
0.00168895
-0.00109132
-0.0013556
0.00194427
-5.11715e-07
6.743e-06
-1.61251e-06
2.04473e-05
-2.90816e-06
3.45811e-05
-4.00014e-06
4.88263e-05
-4.48411e-06
6.286e-05
-3.94939e-06
7.63373e-05
-1.97721e-06
8.88846e-05
1.86261e-06
0.000100093
8.01613e-06
0.000109512
1.69518e-05
0.000116646
2.91683e-05
0.00012095
4.52051e-05
0.000121825
6.56542e-05
0.000118618
9.11741e-05
0.000110614
0.000122506
9.70336e-05
0.000160489
7.70238e-05
0.000206081
4.9646e-05
0.000260367
1.38649e-05
0.00032458
-3.14657e-05
0.0004001
-8.76158e-05
0.000488453
-0.000155988
0.000591291
-0.000238119
0.000710348
-0.000335668
0.000847373
-0.000450386
0.00100401
-0.000584061
0.00118166
-0.000738437
0.00138131
-0.000915071
0.00160305
-0.00111563
0.00184543
-0.00133369
-0.00162177
0.00211159
-5.68672e-07
7.31167e-06
-1.79704e-06
2.16757e-05
-3.25697e-06
3.6041e-05
-4.51771e-06
5.0087e-05
-5.14231e-06
6.34846e-05
-4.68573e-06
7.58807e-05
-2.69156e-06
8.68905e-05
1.31276e-06
9.60887e-05
7.82216e-06
0.000103003
1.73619e-05
0.000107107
3.04976e-05
0.000107814
4.78466e-05
0.000104476
7.00917e-05
9.63726e-05
9.79965e-05
8.27089e-05
0.000132422
6.26086e-05
0.00017434
3.51052e-05
0.000224853
-8.66909e-07
0.000285199
-4.64812e-05
0.000356759
-0.000103025
0.000441046
-0.000171903
0.000539686
-0.000254627
0.000654363
-0.000352796
0.000786751
-0.000468056
0.000938398
-0.000602033
0.00111057
-0.000756238
0.00130407
-0.000931928
0.00151909
-0.0011301
0.00175445
-0.001351
0.00200839
-0.00158763
-0.0018927
0.00227932
-6.08476e-07
7.92015e-06
-1.91746e-06
2.29847e-05
-3.46631e-06
3.75899e-05
-4.79204e-06
5.14128e-05
-5.42375e-06
6.41163e-05
-4.87929e-06
7.53363e-05
-2.66047e-06
8.46716e-05
1.75341e-06
9.16748e-05
8.91344e-06
9.58428e-05
1.94109e-05
9.66093e-05
3.38884e-05
9.3337e-05
5.30533e-05
8.53113e-05
7.76923e-05
7.17336e-05
0.000108686
5.17151e-05
0.000147025
2.42696e-05
0.000193822
-1.16917e-05
0.000250321
-5.73656e-05
0.000317897
-0.000114057
0.000398047
-0.000183176
0.000492361
-0.000266218
0.000602471
-0.000364737
0.00072997
-0.000480296
0.000876304
-0.000614389
0.00104262
-0.000768346
0.00122958
-0.0009432
0.00143715
-0.0011395
0.00166453
-0.00135748
0.00190919
-0.00159566
0.0021694
-0.00184784
-0.00216121
0.0024379
-6.27115e-07
8.54726e-06
-1.95906e-06
2.43166e-05
-3.50454e-06
3.91353e-05
-4.76839e-06
5.26766e-05
-5.24425e-06
6.45921e-05
-4.40983e-06
7.45019e-05
-1.72057e-06
8.19824e-05
3.39843e-06
8.65558e-05
1.15619e-05
8.76793e-05
2.34357e-05
8.47355e-05
3.97494e-05
7.70233e-05
6.13101e-05
6.37506e-05
8.90168e-05
4.40269e-05
0.000123874
1.68577e-05
0.000167004
-1.88601e-05
0.000219651
-6.43391e-05
0.000283184
-0.000120898
0.000359077
-0.000189951
0.000448885
-0.000272983
0.000554183
-0.000371515
0.00067649
-0.000487044
0.000817153
-0.000620959
0.000977207
-0.000774442
0.00115719
-0.000948333
0.00135698
-0.00114299
0.00157556
-0.00135807
0.00181099
-0.00159291
0.00205963
-0.0018443
0.00231989
-0.0021081
-0.00241981
0.00257849
-6.21583e-07
9.16885e-06
-1.91067e-06
2.56057e-05
-3.34737e-06
4.0572e-05
-4.40442e-06
5.37336e-05
-4.53837e-06
6.47261e-05
-3.18358e-06
7.31471e-05
2.55538e-07
7.85433e-05
6.41377e-06
8.03975e-05
1.59766e-05
7.81165e-05
2.9692e-05
7.10201e-05
4.83835e-05
5.83318e-05
7.29642e-05
3.91699e-05
0.000104449
1.25423e-05
0.000143964
-2.26574e-05
0.000192753
-6.76488e-05
0.000252171
-0.000123758
0.000323673
-0.0001924
0.000408774
-0.000275052
0.000508999
-0.000373209
0.000625801
-0.000488317
0.000760442
-0.000621685
0.000913863
-0.00077438
0.00108651
-0.000947088
0.00127816
-0.00113998
0.00148775
-0.00135258
0.00171327
-0.00158359
0.00195162
-0.00183126
0.00219852
-0.00209119
0.00245222
-0.0023618
-0.00266146
0.00269387
-5.90101e-07
9.75895e-06
-1.76539e-06
2.6781e-05
-2.97939e-06
4.17861e-05
-3.67272e-06
5.4427e-05
-3.26318e-06
6.43165e-05
-1.13871e-06
7.10226e-05
3.35145e-06
7.40531e-05
1.09076e-05
7.28414e-05
2.22913e-05
6.67329e-05
3.83375e-05
5.49738e-05
5.99683e-05
3.6701e-05
8.82032e-05
1.0935e-05
0.000124169
-2.34235e-05
0.000169103
-6.75909e-05
0.000224346
-0.000122892
0.000291329
-0.000190741
0.000371534
-0.000272605
0.000466442
-0.00036996
0.000577446
-0.000484213
0.000705747
-0.000616617
0.000852209
-0.000768148
0.00101721
-0.00093938
0.00120047
-0.00113035
0.00140089
-0.00134041
0.00161646
-0.00156815
0.00184424
-0.00181137
0.00208017
-0.00206719
0.00231991
-0.00233094
0.00256051
-0.0026024
-0.00287985
0.0027789
-5.32211e-07
1.02912e-05
-1.52091e-06
2.77697e-05
-2.39474e-06
4.26599e-05
-2.56197e-06
5.45942e-05
-1.40008e-06
6.31547e-05
1.75218e-06
6.78703e-05
7.60452e-06
6.82008e-05
1.69264e-05
6.35195e-05
3.05589e-05
5.31004e-05
4.94269e-05
3.61059e-05
7.45497e-05
1.15783e-05
0.000107049
-2.15642e-05
0.000148151
-6.45255e-05
0.000199181
-0.000118621
0.000261546
-0.000185257
0.000336697
-0.000265892
0.000426077
-0.000361985
0.000531037
-0.000474919
0.000652727
-0.000605904
0.000791967
-0.000755857
0.000949092
-0.000925273
0.00112379
-0.00111408
0.00131498
-0.00132153
0.00152065
-0.00154608
0.00173793
-0.00178543
0.00196309
-0.00203653
0.00219158
-0.00229568
0.00241941
-0.00255877
0.00264109
-0.00282408
-0.00307201
0.00283326
-4.48737e-07
1.07399e-05
-1.17941e-06
2.85004e-05
-1.59687e-06
4.30773e-05
-1.07658e-06
5.40739e-05
1.04578e-06
6.10323e-05
5.48292e-06
6.34332e-05
1.3006e-05
6.06777e-05
2.4456e-05
5.20695e-05
4.07547e-05
3.68016e-05
6.29152e-05
1.39453e-05
9.2049e-05
-1.75555e-05
0.000129368
-5.88831e-05
0.000176178
-0.000111336
0.000233863
-0.000176306
0.000303845
-0.000255239
0.000387537
-0.000349584
0.000486257
-0.000460705
0.000601128
-0.00058979
0.000732946
-0.000737721
0.000882032
-0.000904943
0.00104808
-0.00109132
0.00123003
-0.00129603
0.00142594
-0.00151744
0.00163301
-0.00175315
0.00184762
-0.00200004
0.00206557
-0.00225448
0.00228224
-0.00251235
0.00249404
-0.00277058
0.00269474
-0.00302478
-0.00326946
0.0028922
-3.41596e-07
1.10815e-05
-7.46928e-07
2.89057e-05
-5.97225e-07
4.29276e-05
7.65303e-07
5.27114e-05
4.04833e-06
5.77493e-05
1.00176e-05
5.74639e-05
1.95072e-05
5.11881e-05
3.34297e-05
3.81471e-05
5.27859e-05
1.74454e-05
7.8672e-05
-1.19408e-05
0.000112281
-5.11646e-05
0.000154898
-0.0001015
0.00020788
-0.000164318
0.000272626
-0.000241052
0.000350523
-0.000333137
0.00044287
-0.000441931
0.000550775
-0.00056861
0.000675033
-0.000714047
0.000815976
-0.000878665
0.000973335
-0.0010623
0.0011461
-0.00126408
0.00133241
-0.00148234
0.00152959
-0.00171461
0.00173414
-0.00195771
0.001942
-0.0022079
0.0021488
-0.00246128
0.00235028
-0.00271383
0.00254277
-0.00296306
0.00272243
-0.00320444
-0.00344033
0.0028933
-2.13515e-07
1.1295e-05
-2.32294e-07
2.89245e-05
5.86271e-07
4.21091e-05
2.93486e-06
5.03628e-05
7.5654e-06
5.31187e-05
1.52975e-05
4.97318e-05
2.7028e-05
3.94577e-05
4.37394e-05
2.14356e-05
6.65072e-05
-5.32237e-06
9.65011e-05
-4.19347e-05
0.000134981
-8.96441e-05
0.000183278
-0.000149797
0.000242769
-0.000223808
0.00031482
-0.000313103
0.000400717
-0.000419034
0.00050157
-0.000542783
0.000618186
-0.000685227
0.000750937
-0.000846798
0.000899608
-0.00102734
0.00106327
-0.00122596
0.00124019
-0.001441
0.00142779
-0.00166994
0.00162273
-0.00190956
0.00182111
-0.00215609
0.0020187
-0.00240549
0.00221134
-0.00265392
0.00239534
-0.00289783
0.00256769
-0.00313541
0.00272623
-0.00336298
-0.00358628
0.00287218
-6.7699e-08
1.13627e-05
3.53497e-07
2.85033e-05
1.93227e-06
4.05303e-05
5.39697e-06
4.68981e-05
1.15446e-05
4.69711e-05
2.1249e-05
4.00275e-05
3.5468e-05
2.52386e-05
5.52507e-05
1.65293e-06
8.17389e-05
-3.18106e-05
0.000116164
-7.63594e-05
0.00015983
-0.00013331
0.000214088
-0.000204056
0.00028029
-0.00029001
0.000359714
-0.000392527
0.00045348
-0.0005128
0.000562426
-0.000651729
0.000686975
-0.000809776
0.000826994
-0.000986817
0.000981659
-0.001182
0.00114936
-0.00139367
0.00132768
-0.00161932
0.00151343
-0.0018557
0.00170286
-0.00209899
0.00189189
-0.00234511
0.00207647
-0.00259008
0.00225298
-0.00283043
0.00241855
-0.0030634
0.00257114
-0.00328801
0.00270984
-0.00350167
-0.00371232
0.00283588
9.27694e-08
1.12699e-05
1.00003e-06
2.7596e-05
3.41863e-06
3.81117e-05
8.11427e-06
4.22025e-05
1.59299e-05
3.91555e-05
2.77923e-05
2.8165e-05
4.47181e-05
8.31275e-06
6.78164e-05
-2.14453e-05
9.82852e-05
-6.22794e-05
0.000137399
-0.000115474
0.000186485
-0.000182396
0.000246875
-0.000264446
0.000319849
-0.000362983
0.00040654
-0.000479218
0.000507826
-0.000614087
0.0006242
-0.000768102
0.000755624
-0.0009412
0.000901399
-0.00113259
0.00106007
-0.00134067
0.00122936
-0.00156297
0.00140629
-0.00179624
0.00158723
-0.00203664
0.00176825
-0.00228001
0.00194541
-0.00252227
0.00211515
-0.00275982
0.0022746
-0.00298987
0.00242184
-0.00321064
0.00255589
-0.00342207
0.00267697
-0.00362274
-0.00382162
0.00278627
2.64987e-07
1.1005e-05
1.69716e-06
2.61638e-05
5.0243e-06
3.47846e-05
1.10512e-05
3.61756e-05
2.06668e-05
2.95399e-05
3.48495e-05
1.39823e-05
5.46701e-05
-1.15079e-05
8.12895e-05
-4.80647e-05
0.000115948
-9.69382e-05
0.000159945
-0.00015947
0.000214595
-0.000237046
0.000281176
-0.000331027
0.000360841
-0.000442648
0.000454514
-0.000572891
0.000562764
-0.000722336
0.000685662
-0.000891001
0.000822652
-0.00107819
0.00097244
-0.00128238
0.00113295
-0.00150117
0.00130134
-0.00173136
0.00147418
-0.00196908
0.00164767
-0.00221012
0.00181795
-0.00245029
0.0019815
-0.00268582
0.00213544
-0.00291376
0.00227781
-0.00313224
0.00240767
-0.0033405
0.00252497
-0.00353937
0.00263076
-0.00372853
-0.00391722
0.00272636
4.46739e-07
1.05582e-05
2.43666e-06
2.41739e-05
6.73162e-06
3.04896e-05
1.41769e-05
2.87303e-05
2.57073e-05
1.80095e-05
4.23501e-05
-2.66054e-06
6.52242e-05
-3.43819e-05
9.55316e-05
-7.83721e-05
0.000134539
-0.000135945
0.000183542
-0.000208473
0.000243815
-0.000297319
0.00031653
-0.000403742
0.00040266
-0.000528778
0.000502855
-0.000673087
0.000617306
-0.000836788
0.000745609
-0.0010193
0.000886649
-0.00121923
0.00103854
-0.00143427
0.00119866
-0.00166129
0.00136372
-0.00189643
0.00153006
-0.00213543
0.00169392
-0.00237398
0.00185177
-0.00260815
0.00200073
-0.00283477
0.00213873
-0.00305176
0.00226474
-0.00325824
0.00237868
-0.00345445
0.00248129
-0.00364197
0.00257413
-0.00382138
-0.00400165
0.00265857
6.36563e-07
9.92165e-06
3.21276e-06
2.15977e-05
8.52744e-06
2.51749e-05
1.74674e-05
1.97903e-05
3.10123e-05
4.46466e-06
5.02342e-05
-2.18824e-05
7.62922e-05
-6.044e-05
0.000110417
-0.000112497
0.000153879
-0.000179408
0.000207946
-0.00026254
0.000273806
-0.000363179
0.00035248
-0.000482416
0.000444702
-0.000621
0.000550786
-0.00077917
0.000670487
-0.000956489
0.000802885
-0.0011517
0.000946304
-0.00136265
0.00109832
-0.00158629
0.00125585
-0.00181882
0.00141535
-0.00205593
0.00157315
-0.00229322
0.00172574
-0.00252657
0.00187016
-0.00275257
0.00200426
-0.00296887
0.00212685
-0.00317435
0.00223772
-0.00336911
0.00233753
-0.00355426
0.00242752
-0.00373196
0.00250956
-0.00390342
-0.00407703
0.00258494
8.3381e-07
9.08784e-06
4.02219e-06
1.84093e-05
1.04033e-05
1.87938e-05
2.09057e-05
9.28782e-06
3.65517e-05
-1.11813e-05
5.84528e-05
-4.37836e-05
8.77984e-05
-8.97855e-05
0.00012583
-0.000150529
0.000173802
-0.00022738
0.000232914
-0.000321652
0.000304232
-0.000434496
0.000388569
-0.000566754
0.000486363
-0.000718794
0.000597535
-0.000890342
0.000721364
-0.00108032
0.000856399
-0.00128674
0.00100044
-0.00150669
0.00115059
-0.00173645
0.00130349
-0.00197171
0.00145552
-0.00220796
0.00160319
-0.0024409
0.00174348
-0.00266685
0.00187409
-0.00288318
0.00199368
-0.00308846
0.00210186
-0.00328253
0.00219912
-0.00346637
0.00228664
-0.00364178
0.00236598
-0.0038113
0.00243908
-0.00397652
-0.00414504
0.00250709
1.03855e-06
8.04929e-06
4.86397e-06
1.45839e-05
1.23549e-05
1.1303e-05
2.4481e-05
-2.83828e-06
4.23034e-05
-2.90037e-05
6.69659e-05
-6.84461e-05
9.96752e-05
-0.000122495
0.000141666
-0.000192519
0.000194143
-0.000279857
0.000258209
-0.000385718
0.000334752
-0.00051104
0.000424331
-0.000656333
0.000527032
-0.000821496
0.00064234
-0.00100565
0.000769036
-0.00120701
0.000905155
-0.00142285
0.00104803
-0.00164957
0.00119446
-0.00188287
0.00134092
-0.00211818
0.00148394
-0.00235098
0.00162041
-0.00257737
0.00174791
-0.00279435
0.00186488
-0.00300016
0.00197076
-0.00319434
0.00206584
-0.00337761
0.00215114
-0.00355168
0.00222817
-0.00371881
0.0022986
-0.00388173
0.0023643
-0.00404222
-0.00420697
0.00242623
1.25139e-06
6.79789e-06
5.73874e-06
1.00966e-05