/*--------------------------------*- C++ -*----------------------------------*\
  =========                 |
  \\      /  F ield         | OpenFOAM: The Open Source CFD Toolbox
   \\    /   O peration     | Website:  https://openfoam.org
    \\  /    A nd           | Version:  7
     \\/     M anipulation  |
\*---------------------------------------------------------------------------*/
FoamFile
{
    version     2.0;
    format      ascii;
    class       volScalarField;
    location    "55";
    object      p;
}
// * * * * * * * * * * * * * * * * * * * * * * * * * * * * * * * * * * * * * //

dimensions      [0 2 -2 0 0 0 0];

internalField   nonuniform List<scalar> 
392
(
-0.322276
-0.321847
-0.321194
-0.320322
-0.322587
-0.322137
-0.321465
-0.320573
-0.323206
-0.322715
-0.322003
-0.321073
-0.32413
-0.323579
-0.322807
-0.321818
-0.325354
-0.324723
-0.323871
-0.322803
-0.326873
-0.32614
-0.325189
-0.324022
-0.327824
-0.326753
-0.325466
-0.323969
-0.329767
-0.328555
-0.327129
-0.325493
-0.33196
-0.330587
-0.329001
-0.327206
-0.332842
-0.331075
-0.329099
-0.32692
-0.335311
-0.333343
-0.331167
-0.328787
-0.337988
-0.335801
-0.333404
-0.330801
-0.338443
-0.335806
-0.332961
-0.329913
-0.341268
-0.338374
-0.335267
-0.331952
-0.341108
-0.337724
-0.334124
-0.33031
-0.344014
-0.34034
-0.336438
-0.332307
-0.343125
-0.338911
-0.33445
-0.329731
-0.341566
-0.336766
-0.331673
-0.344427
-0.339293
-0.333823
-0.328009
-0.342076
-0.336246
-0.329994
-0.323436
-0.339019
-0.332373
-0.325292
-0.317256
-0.335277
-0.327754
-0.318931
-0.331161
-0.321557
-0.304711
-0.327192
-0.310361
-0.288896
-0.334156
-0.344271
-0.360016
-0.360016
-0.334156
-0.344271
-0.327192
-0.310361
-0.288896
-0.331161
-0.321557
-0.304711
-0.335277
-0.327754
-0.318931
-0.339019
-0.332373
-0.325292
-0.342076
-0.336246
-0.329994
-0.323436
-0.344427
-0.339293
-0.333823
-0.328009
-0.341566
-0.336767
-0.331673
-0.343125
-0.338911
-0.33445
-0.329731
-0.344014
-0.34034
-0.336438
-0.332307
-0.341108
-0.337724
-0.334124
-0.33031
-0.341268
-0.338374
-0.335267
-0.331952
-0.338443
-0.335806
-0.332961
-0.329913
-0.337988
-0.335801
-0.333404
-0.330801
-0.335311
-0.333343
-0.331167
-0.328787
-0.332842
-0.331075
-0.329099
-0.33196
-0.330587
-0.329001
-0.327206
-0.329767
-0.328555
-0.327129
-0.325493
-0.327824
-0.326753
-0.325466
-0.323969
-0.326873
-0.32614
-0.325189
-0.324022
-0.325354
-0.324723
-0.323871
-0.322803
-0.32413
-0.323579
-0.322807
-0.321818
-0.323206
-0.322715
-0.322003
-0.321073
-0.322587
-0.322137
-0.321465
-0.320573
-0.322276
-0.321847
-0.321194
-0.320322
-0.359905
-0.352269
-0.330728
-0.310129
-0.287857
-0.265114
-0.242749
-0.221413
-0.201554
-0.183393
-0.166977
-0.152231
-0.13902
-0.127181
-0.116557
-0.107002
-0.0983878
-0.0906077
-0.0835693
-0.0771944
-0.0714162
-0.0661768
-0.0614264
-0.0571212
-0.053223
-0.0496984
-0.0465177
-0.0436551
-0.0410878
-0.0387958
-0.0367616
-0.0349699
-0.0334076
-0.0320634
-0.0309275
-0.0299921
-0.0292506
-0.0286974
-0.0283301
-0.028141
-0.344955
-0.345858
-0.323554
-0.302933
-0.280632
-0.258117
-0.236203
-0.215428
-0.196155
-0.178544
-0.162609
-0.14827
-0.135396
-0.123838
-0.11345
-0.104096
-0.095658
-0.0880333
-0.0811339
-0.0748843
-0.0692195
-0.064083
-0.0594259
-0.0552054
-0.051384
-0.0479286
-0.0448103
-0.0420037
-0.0394863
-0.0372385
-0.0352431
-0.0334851
-0.0319515
-0.0306312
-0.0295148
-0.0285944
-0.0278635
-0.0273166
-0.0269518
-0.0267591
-0.330334
-0.334994
-0.312698
-0.292843
-0.271317
-0.249639
-0.228614
-0.208709
-0.190236
-0.173325
-0.15798
-0.144126
-0.131647
-0.120412
-0.330334
-0.334994
-0.312698
-0.292843
-0.271317
-0.249639
-0.228614
-0.208709
-0.190236
-0.173325
-0.15798
-0.144126
-0.131647
-0.120412
-0.110291
-0.101161
-0.0929154
-0.0854577
-0.0787051
-0.0725858
-0.0670372
-0.0620047
-0.0574408
-0.0533037
-0.0495569
-0.0461683
-0.0431095
-0.0403557
-0.0378849
-0.035678
-0.344955
-0.345858
-0.323554
-0.302933
-0.280632
-0.258117
-0.236203
-0.215428
-0.196155
-0.178544
-0.162609
-0.14827
-0.135396
-0.123838
-0.11345
-0.104096
-0.095658
-0.0880333
-0.0811339
-0.0748843
-0.0692195
-0.064083
-0.0594259
-0.0552054
-0.051384
-0.0479286
-0.0448103
-0.0420037
-0.0394863
-0.0372385
-0.0352431
-0.0334851
-0.0319515
-0.0306312
-0.0295148
-0.0285943
-0.0278635
-0.0273166
-0.0269518
-0.0267591
-0.359905
-0.352269
-0.330728
-0.310129
-0.287857
-0.265114
-0.242749
-0.221413
-0.201554
-0.183393
-0.166977
-0.152231
-0.13902
-0.127181
-0.116557
-0.107002
-0.0983878
-0.0906077
-0.0835693
-0.0771944
-0.0714161
-0.0661768
-0.0614264
-0.0571212
-0.053223
-0.0496984
-0.0465177
-0.0436551
-0.0410878
-0.0387958
-0.0367616
-0.0349699
-0.0334076
-0.0320633
-0.0309275
-0.0299921
-0.0292505
-0.0286974
-0.0283301
-0.028141
)
;

boundaryField
{
    inlet
    {
        type            zeroGradient;
    }
    outlet
    {
        type            fixedValue;
        value           nonuniform 0();
    }
    cylinder
    {
        type            zeroGradient;
    }
    top
    {
        type            symmetryPlane;
    }
    bottom
    {
        type            symmetryPlane;
    }
    defaultFaces
    {
        type            empty;
    }
    procBoundary23to22
    {
        type            processor;
        value           nonuniform List<scalar> 
164
(
-0.322482
-0.322812
-0.323472
-0.324457
-0.325764
-0.327385
-0.328678
-0.328678
-0.330763
-0.333118
-0.334396
-0.334396
-0.337066
-0.339963
-0.340868
-0.340868
-0.343948
-0.344274
-0.344274
-0.347465
-0.347099
-0.347099
-0.346094
-0.346094
-0.349265
-0.347524
-0.347524
-0.345163
-0.345163
-0.342226
-0.342226
-0.338916
-0.338916
-0.336383
-0.336383
-0.338061
-0.338061
-0.346947
-0.346947
-0.362559
-0.362559
-0.362559
-0.362559
-0.346947
-0.346947
-0.338061
-0.338061
-0.336383
-0.336383
-0.338916
-0.338916
-0.342226
-0.342226
-0.345163
-0.345163
-0.347524
-0.347524
-0.349265
-0.346094
-0.346094
-0.347099
-0.347099
-0.347465
-0.344274
-0.344274
-0.343948
-0.340868
-0.340868
-0.339963
-0.337066
-0.334396
-0.334396
-0.333118
-0.330763
-0.328678
-0.328678
-0.327385
-0.325764
-0.324457
-0.323472
-0.322812
-0.322482
-0.110291
-0.101161
-0.0929154
-0.0854577
-0.0787051
-0.0725858
-0.0670372
-0.0620047
-0.0574408
-0.0533037
-0.049557
-0.0461683
-0.0431095
-0.0403557
-0.0378849
-0.035678
-0.0337183
-0.0319909
-0.0304834
-0.0291847
-0.0280857
-0.0271785
-0.026457
-0.0259157
-0.025553
-0.0253572
-0.322673
-0.328501
-0.305439
-0.285542
-0.26419
-0.242831
-0.222257
-0.202861
-0.184904
-0.168478
-0.153567
-0.140093
-0.12794
-0.110291
-0.116986
-0.322673
-0.328501
-0.305439
-0.285542
-0.26419
-0.242831
-0.222257
-0.202861
-0.184904
-0.168478
-0.153567
-0.140093
-0.12794
-0.116986
-0.107106
-0.0981871
-0.0901262
-0.0828324
-0.076226
-0.0702375
-0.0648064
-0.0598796
-0.0554107
-0.0513591
-0.0476891
-0.0443692
-0.0413718
-0.0386726
-0.0362503
-0.034086
-0.0337182
-0.0337182
-0.0319909
-0.0304833
-0.0291847
-0.0280856
-0.0271785
-0.026457
-0.0259157
-0.025553
-0.0253572
)
;
    }
    procBoundary23to24
    {
        type            processor;
        value           nonuniform List<scalar> 
148
(
-0.319235
-0.319466
-0.319927
-0.320614
-0.321522
-0.322643
-0.322643
-0.322266
-0.323653
-0.325207
-0.325207
-0.324545
-0.32621
-0.327999
-0.327999
-0.326672
-0.328436
-0.328436
-0.32629
-0.327949
-0.327949
-0.324786
-0.326302
-0.326302
-0.321996
-0.321996
-0.316175
-0.316175
-0.305126
-0.304832
-0.304832
-0.286411
-0.286411
-0.32935
-0.286411
-0.32935
-0.286411
-0.304832
-0.304832
-0.317256
-0.317256
-0.316175
-0.321996
-0.321996
-0.326302
-0.326302
-0.324786
-0.327949
-0.327949
-0.32629
-0.328436
-0.328436
-0.326672
-0.327999
-0.327999
-0.32621
-0.32692
-0.32692
-0.325207
-0.323653
-0.322266
-0.322643
-0.322643
-0.321522
-0.320614
-0.319927
-0.319466
-0.319235
-0.288445
-0.280444
-0.272703
-0.264462
-0.254578
-0.242885
-0.229657
-0.215402
-0.20069
-0.186034
-0.171834
-0.158362
-0.145775
-0.134139
-0.123458
-0.113698
-0.104801
-0.0967023
-0.0893363
-0.0826386
-0.0765503
-0.0710175
-0.0659921
-0.061431
-0.057296
-0.0535532
-0.0501727
-0.0471279
-0.0443954
-0.0419546
-0.0397874
-0.0378781
-0.0362129
-0.0347801
-0.0335697
-0.0325731
-0.0317838
-0.031196
-0.0308063
-0.0306105
-0.288445
-0.280444
-0.272703
-0.264462
-0.254578
-0.242885
-0.229657
-0.215402
-0.20069
-0.186034
-0.171834
-0.158362
-0.145775
-0.134139
-0.123458
-0.113698
-0.104801
-0.0967023
-0.0893362
-0.0826386
-0.0765503
-0.0710175
-0.0659921
-0.061431
-0.057296
-0.0535532
-0.0501727
-0.0471279
-0.0443954
-0.0419546
-0.0397874
-0.0378781
-0.0362129
-0.0347801
-0.0335696
-0.0325731
-0.0317837
-0.031196
-0.0308062
-0.0306105
)
;
    }
}


// ************************************************************************* //
