/*--------------------------------*- C++ -*----------------------------------*\
  =========                 |
  \\      /  F ield         | OpenFOAM: The Open Source CFD Toolbox
   \\    /   O peration     | Website:  https://openfoam.org
    \\  /    A nd           | Version:  7
     \\/     M anipulation  |
\*---------------------------------------------------------------------------*/
FoamFile
{
    version     2.0;
    format      ascii;
    class       surfaceScalarField;
    location    "60";
    object      phi;
}
// * * * * * * * * * * * * * * * * * * * * * * * * * * * * * * * * * * * * * //

dimensions      [0 3 -1 0 0 0 0];

internalField   nonuniform List<scalar> 
260
(
-0.000341683
-0.000438373
0.000474917
-0.000495909
0.000529758
-0.000373778
-0.000396954
-0.000456628
-0.000397147
-0.000351778
-0.000440744
-0.000413031
-0.000483413
-0.000410307
-0.000304266
-0.000456756
-0.000366583
-0.000439408
-0.000411807
-0.000256194
-0.0004592
-0.000319189
-0.000393979
-0.000400379
-0.000209708
-0.000446321
-0.000273247
-0.00034974
-0.000375139
-0.000416773
-0.000231614
-0.000309928
-0.00036992
-0.000197472
-0.000278276
-0.000306052
-0.000174111
-0.000325594
-0.000258735
-0.000361424
-0.000226416
-0.000230037
-0.000255114
-0.000364779
-0.000117348
-0.000270768
-0.000390131
9.44427e-06
-0.000308344
6.00797e-05
-0.000440766
-0.000597064
0.000147812
0.000226036
-0.00051899
-0.000693279
0.000403074
-0.000626586
0.00053225
-0.000822455
-0.00104514
0.000589488
0.000752463
-0.000985429
-0.00123314
0.000980829
0.00120402
-0.00145633
-0.00175242
0.00147006
-0.0017115
-0.00202998
0.00173257
0.00203198
-0.00232939
-0.00266628
0.00229417
0.00260692
-0.00297903
-0.00330714
0.00282646
0.00311281
-0.0035935
-0.00386142
0.00324499
-0.00409353
0.00353441
0.00410762
0.00397804
0.00369791
0.00341792
0.00381294
0.00320223
0.00265549
0.00358717
0.00303298
0.00257322
0.00187981
0.00298188
0.00224683
0.00192938
0.00119474
0.00230868
0.00150051
0.00168443
0.000883203
0.00114838
0.00118418
0.000417699
0.00145902
0.000608356
0.000820673
8.78e-05
0.00102271
0.000215665
0.000370104
0.000713384
-5.741e-05
0.000886509
4.25389e-05
0.000496185
-0.000241827
0.000621075
-0.000182301
-0.000106219
0.000429359
-0.000331768
0.000537129
-0.000290071
0.000363206
-0.00040896
-0.000382857
0.000229684
-0.00047851
0.000294943
-0.000474219
-0.000461913
0.000169702
-0.000521626
0.000223439
-0.000527956
0.000106369
-0.000554646
-0.000570437
1.75544e-05
-0.000550823
4.06414e-05
-0.000577733
-0.000601957
-3.96207e-05
-0.000557996
-2.619e-05
-0.000591164
-0.000622927
-9.69006e-05
-0.000556635
-9.27401e-05
-0.000595324
-0.000633841
-0.000153014
-0.000547136
-0.000157641
-0.000590698
-0.000206738
-0.000529974
-0.000577829
-0.000256887
-0.000505694
-0.000557304
-0.000302279
0.0036109
-0.0246749
0.00350129
-0.0242991
0.00331657
-0.0238417
0.00311323
-0.0234134
0.00290629
-0.0230662
0.00270171
-0.0227858
0.00249924
-0.0225416
0.0023
0.00210567
0.00191571
0.00172933
0.001546
0.0013662
0.00118963
0.00101541
0.000843538
0.000672741
0.000503606
0.000335184
0.000167694
0.00355304
0.00339208
0.00319852
0.00299857
0.00279837
0.00260119
0.00377512
0.0263309
0.00350892
0.0256026
0.00323575
0.0248309
0.00298806
0.024135
0.00276131
0.0235635
0.00254934
0.0231016
0.00234952
0.0227155
0.00215937
0.0223943
0.00197626
0.0221438
0.00179808
0.0219106
0.00162467
0.0217348
0.00145427
0.0215681
0.00128702
0.0214429
0.00112181
0.0213281
0.000958556
0.0212417
0.000796553
0.0211529
0.000636114
0.0210968
0.000476372
0.0210469
0.0210197
0.00389979
0.00364396
0.00336789
0.00310852
0.00287012
0.00264906
0.00244047
0.00224258
0.00205225
0.00186718
0.00168709
0.00151024
0.00133656
0.0011651
0.000995524
0.000827354
0.000660698
0.000494838
0.000329681
0.000164824
)
;

boundaryField
{
    inlet
    {
        type            calculated;
        value           nonuniform 0();
    }
    outlet
    {
        type            calculated;
        value           nonuniform 0();
    }
    cylinder
    {
        type            calculated;
        value           nonuniform 0();
    }
    top
    {
        type            symmetryPlane;
        value           uniform 0;
    }
    bottom
    {
        type            symmetryPlane;
        value           uniform 0;
    }
    defaultFaces
    {
        type            empty;
        value           nonuniform 0();
    }
    procBoundary30to29
    {
        type            processor;
        value           nonuniform List<scalar> 
110
(
0.000305139
0.000332358
0.000351971
0.000362795
0.000363735
0.000353893
0.000332709
-0.000167278
0.000335778
0.00028269
0.000216963
-0.000164658
0.000133002
2.81318e-05
-8.60893e-05
-0.000370067
-0.000295479
-0.000451306
-0.000764768
-0.000784162
-0.0011821
-0.00121489
-0.00145095
-0.00199312
-0.00198367
-0.00263989
-0.00252388
-0.00328161
-0.00299396
-0.00384452
-0.00332931
-0.00429863
-0.00354563
-0.00434021
-0.00394355
-0.00374544
-0.00375255
-0.00336328
-0.00304716
-0.00281056
-0.00227279
-0.00218025
-0.00153863
-0.00158549
-0.00137289
-0.000652754
-0.000949121
-0.000257403
-0.00065107
-0.000568174
0.000137614
-0.000391971
-0.000339418
-0.000286014
0.000425191
-0.000176366
-0.000126586
-7.3349e-05
0.000534825
-1.55585e-06
4.67935e-05
9.55399e-05
0.000143515
0.000189576
0.000232607
0.000271503
-0.0223133
-0.0221173
-0.0219507
-0.0217982
-0.0216554
-0.0215219
-0.0214207
-0.0213176
-0.0212532
-0.0211753
-0.0211255
-0.0210817
-0.0210668
-0.0210427
-0.0246823
-0.0241382
-0.0236481
-0.0232135
-0.022866
-0.0225887
0.00240628
-0.0223467
-0.0261625
-0.0253364
-0.0245577
-0.0238873
-0.0233367
-0.0228897
-0.0225156
-0.0222042
-0.0219606
-0.0217324
-0.0215614
-0.0213977
-0.0212757
-0.0211629
-0.0210785
-0.0209909
-0.0209363
-0.0208872
-0.0208608
0.000317391
-0.0209937
-0.0209737
)
;
    }
    procBoundary30to31
    {
        type            processor;
        value           nonuniform List<scalar> 
88
(
-0.000375531
-0.000413059
0.000524007
-0.000481338
-0.000500761
-0.000504629
-0.00049056
-0.000456584
-0.000401572
0.00037601
-0.00034018
-0.000226681
-9.19962e-05
0.000532104
0.00012504
0.000322251
0.000893635
0.000683756
0.000940467
0.00150494
0.0014515
0.00174761
0.00235674
0.00234151
0.00299974
0.00291433
0.00359178
0.00346258
0.00339787
0.00261699
0.00271595
0.00183957
0.00203656
0.00177544
0.000831959
0.00126096
0.00109139
0.000165227
0.000769833
0.000665455
-0.000234545
0.000455992
0.000373999
0.000289465
-0.000527938
0.00014885
7.2161e-05
-5.22032e-06
-8.18253e-05
-0.000156173
-0.000635309
-0.000219607
-0.000277412
-0.000329825
0.0245984
0.0244087
0.0240264
0.0236168
0.0232732
0.0229904
0.022744
0.0225126
0.0223117
0.0221407
0.0219846
0.0218387
0.0217017
0.0215972
0.0214918
0.0214251
0.021346
0.0212947
0.0212502
0.0212343
0.0212104
0.0264092
0.0258585
0.025107
0.0243943
0.0238019
0.0233227
0.0229241
0.0225922
0.0223341
0.0220956
0.0219149
0.021745
0.0216166
)
;
    }
    procBoundary30to32
    {
        type            processor;
        value           nonuniform List<scalar> 
12
(
0.00338245
0.00347709
0.00399259
0.00393754
0.0214995
0.0214113
0.0213211
0.0212634
0.0212128
0.0211849
0.0211586
0.0211386
)
;
    }
}


// ************************************************************************* //
