/*--------------------------------*- C++ -*----------------------------------*\
  =========                 |
  \\      /  F ield         | OpenFOAM: The Open Source CFD Toolbox
   \\    /   O peration     | Website:  https://openfoam.org
    \\  /    A nd           | Version:  7
     \\/     M anipulation  |
\*---------------------------------------------------------------------------*/
FoamFile
{
    version     2.0;
    format      ascii;
    class       volVectorField;
    location    "60";
    object      U;
}
// * * * * * * * * * * * * * * * * * * * * * * * * * * * * * * * * * * * * * //

dimensions      [0 1 -1 0 0 0 0];

internalField   nonuniform List<vector> 
183
(
(-0.103248 -0.137523 7.20429e-21)
(-0.109866 -0.149131 -1.03354e-20)
(-0.108323 -0.130252 -4.32459e-20)
(-0.115669 -0.143257 -1.94083e-20)
(-0.111538 -0.122033 8.72402e-20)
(-0.11928 -0.136366 -7.43495e-21)
(-0.125345 -0.151821 -1.59344e-19)
(-0.112554 -0.112935 -1.03656e-19)
(-0.120293 -0.128474 1.26238e-19)
(-0.126375 -0.145433 1.78405e-19)
(-0.111014 -0.103068 2.58505e-20)
(-0.118257 -0.119642 -3.90394e-20)
(-0.123848 -0.137926 -3.80755e-20)
(-0.106564 -0.092602 3.73779e-19)
(-0.112716 -0.109995 5.2031e-21)
(-0.117179 -0.129361 1.61102e-20)
(-0.0988912 -0.0817757 -1.50392e-19)
(-0.103256 -0.0997481 2.54867e-19)
(-0.105825 -0.119905 -3.95105e-20)
(-0.0895624 -0.0892169 -3.49755e-19)
(-0.0893647 -0.109855 9.0764e-20)
(-0.0714578 -0.0788051 -1.71197e-20)
(-0.0675578 -0.0996381 5.28991e-21)
(-0.0611381 -0.123001 2.75282e-20)
(-0.0489062 -0.0689694 -2.14686e-19)
(-0.0403672 -0.0897683 2.86984e-19)
(-0.0288881 -0.113096 5.17959e-21)
(-0.00790831 -0.0807748 1.52189e-19)
(0.00962559 -0.103821 -4.81875e-19)
(0.0296545 -0.0731024 -1.15149e-20)
(0.0541323 -0.0957249 2.57131e-19)
(0.0827334 -0.120646 -6.48815e-20)
(0.0722376 -0.0670576 3.15055e-19)
(0.104431 -0.0891617 -4.1013e-19)
(0.141316 -0.113281 5.31998e-20)
(0.160542 -0.0842301 1.74306e-19)
(0.206336 -0.107397 -1.77388e-22)
(0.256913 -0.131972 -6.41102e-20)
(0.222694 -0.0807936 4.89031e-19)
(0.277862 -0.102809 -7.54469e-20)
(0.337908 -0.125758 -3.57665e-19)
(0.356007 -0.0990739 2.95089e-19)
(0.42539 -0.120076 -4.85526e-20)
(0.497688 -0.140961 -4.43696e-21)
(0.51871 -0.114244 -1.62413e-19)
(0.598279 -0.132338 -7.32233e-19)
(0.616524 -0.107516 2.27812e-19)
(0.701283 -0.122522 -3.13074e-20)
(0.783507 -0.134727 -3.03376e-19)
(0.80367 -0.110889 3.45298e-19)
(0.884753 -0.119969 3.76e-19)
(0.953815 -0.131112 8.42415e-20)
(0.977783 -0.103753 2.82405e-19)
(1.04087 -0.111186 1.25339e-19)
(1.09916 -0.103759 3.35188e-19)
(1.11388 -0.0887549 -5.52009e-19)
(1.1554 -0.0862588 -4.65205e-19)
(1.19395 -0.0760765 -3.47171e-20)
(1.26804 0.00598899 1.15977e-19)
(1.16393 0.000366496 7.52776e-21)
(1.2338 0.00837231 -1.77097e-19)
(0.995833 0.00160662 -4.21484e-19)
(1.08253 0.00751356 5.31402e-19)
(1.17635 0.0116006 2.39103e-19)
(0.78725 -0.00297262 1.38223e-19)
(0.891911 0.00246845 2.10809e-19)
(0.984057 0.0110455 -2.09948e-19)
(0.577074 -0.0150833 4.55103e-19)
(0.676613 -0.00724161 -3.17846e-19)
(0.780934 -0.00039748 -1.0898e-19)
(0.479742 -0.0250279 -2.30985e-19)
(0.570614 -0.0156768 1.46056e-19)
(0.320641 -0.047127 -7.82933e-20)
(0.393965 -0.038075 1.36393e-19)
(0.474241 -0.0277722 3.95168e-19)
(0.20373 -0.0707262 -1.93928e-19)
(0.258866 -0.0625951 -2.07056e-19)
(0.321158 -0.0533355 1.90857e-19)
(0.162177 -0.0864539 2.81752e-20)
(0.208366 -0.0787776 5.56938e-20)
(0.260796 -0.0697991 -2.28225e-19)
(0.0942972 -0.107372 -1.77364e-19)
(0.128141 -0.101719 -2.51302e-20)
(0.16688 -0.0947991 -2.93059e-19)
(0.0709217 -0.120612 -1.6526e-19)
(0.0993284 -0.115922 -1.33342e-19)
(0.131912 -0.109967 3.58192e-19)
(0.0500623 -0.132297 -1.91595e-19)
(0.0738536 -0.128664 5.79286e-20)
(0.0138771 -0.143695 1.97189e-19)
(0.0306549 -0.142251 1.6569e-19)
(0.0504048 -0.139736 1.66299e-19)
(-0.00134042 -0.150803 -2.30442e-20)
(0.0121049 -0.150432 -9.44148e-22)
(0.0282257 -0.149083 -1.02308e-19)
(-0.0162082 -0.156152 -1.68448e-20)
(-0.00582698 -0.156895 -1.44668e-19)
(-0.0361977 -0.15722 -2.48698e-19)
(-0.0307184 -0.159844 -9.63525e-20)
(-0.0231505 -0.161753 1.4175e-19)
(-0.0478162 -0.15829 1.48645e-19)
(-0.0447609 -0.162006 1.69395e-19)
(-0.039753 -0.165149 6.69844e-20)
(-0.0590354 -0.157895 2.60584e-20)
(-0.0581812 -0.162772 -9.84399e-20)
(-0.0554706 -0.167226 -9.60758e-20)
(-0.069695 -0.156154 -1.86509e-19)
(-0.0708107 -0.162263 1.20204e-19)
(-0.0701336 -0.168112 7.16012e-20)
(-0.079629 -0.15317 1.18824e-19)
(-0.08248 -0.160584 -5.00306e-20)
(-0.0886637 -0.149029 -6.00357e-20)
(-0.0930145 -0.157807 2.61428e-20)
(-0.0966093 -0.143796 9.29104e-21)
(-0.10222 -0.153982 1.41903e-21)
(1.23186 -0.0381978 -2.68367e-20)
(1.22728 0.00933889 -3.82056e-20)
(1.20928 0.0299569 1.03698e-20)
(1.1894 0.0396621 1.21757e-20)
(1.17293 0.0416279 9.39706e-21)
(1.15941 0.0411576 -7.05602e-21)
(1.14758 0.0387947 3.13599e-21)
(1.13642 0.0358124 4.72666e-21)
(1.1267 0.0323439 -5.70947e-22)
(1.11841 0.0290856 4.75389e-22)
(1.11081 0.0256963 -2.14505e-21)
(1.10366 0.0228744 5.37031e-22)
(1.09693 0.019685 8.78453e-23)
(1.09181 0.0172275 6.85126e-23)
(1.0866 0.0144711 6.40255e-22)
(1.08334 0.0121475 -1.30818e-21)
(1.07941 0.00982568 9.8535e-22)
(1.07688 0.00746904 -3.59763e-22)
(1.07467 0.00544834 3.05762e-22)
(1.0739 0.00298599 -1.03272e-22)
(1.0727 0.00134579 1.21855e-23)
(1.25053 -0.0188192 -5.55866e-20)
(1.23003 0.0183825 2.63167e-20)
(1.20761 0.0342762 -2.26624e-20)
(1.187 0.0420404 4.41532e-22)
(1.17059 0.0430557 -5.57767e-21)
(1.15729 0.042256 -5.55826e-21)
(1.14556 0.0396951 -1.23956e-22)
(1.3361 -0.0194291 -5.87929e-20)
(1.29259 -0.0215507 -2.96381e-20)
(1.25578 -0.0210807 2.6104e-20)
(1.22209 -0.0223795 -7.22073e-21)
(1.19468 -0.0206683 4.88556e-21)
(1.17259 -0.0204383 5.17968e-21)
(1.15393 -0.0198437 1.02836e-21)
(1.13842 -0.0188489 -2.84e-21)
(1.12628 -0.0182012 -2.13034e-21)
(1.11488 -0.0171143 3.19734e-22)
(1.10633 -0.01586 9.61043e-22)
(1.09812 -0.0147879 6.33513e-21)
(1.09199 -0.0131347 -2.05691e-21)
(1.08632 -0.0118894 2.14646e-21)
(1.08207 -0.0101638 -6.03031e-22)
(1.07766 -0.00883289 -9.64051e-23)
(1.0749 -0.00706627 5.48874e-22)
(1.07242 -0.00566968 -1.52195e-22)
(1.07109 -0.00387881 2.58366e-22)
(1.32699 -0.00653501 2.94684e-20)
(1.29696 -0.0123087 6.06006e-21)
(1.26209 -0.0150837 2.46141e-20)
(1.22719 -0.0176303 -7.37478e-21)
(1.19864 -0.0169412 -9.28392e-21)
(1.17564 -0.0173972 8.50396e-21)
(1.15635 -0.0173861 -4.39956e-21)
(1.14031 -0.0168883 -4.43135e-21)
(1.1278 -0.0165977 1.47898e-21)
(1.11616 -0.0158532 5.93394e-21)
(1.10737 -0.0148481 -2.95211e-21)
(1.09902 -0.0139773 -6.60289e-22)
(1.09274 -0.0125077 7.32716e-22)
(1.08698 -0.0113811 -3.30537e-22)
(1.08264 -0.0097725 5.83187e-22)
(1.07817 -0.00851791 -1.35793e-22)
(1.07533 -0.00683275 -7.43064e-22)
(1.07282 -0.00549362 2.36411e-22)
(1.07145 -0.00376462 -1.30972e-22)
(1.07014 -0.0024252 1.97501e-23)
(1.06914 -0.000727438 2.05922e-23)
)
;

boundaryField
{
    inlet
    {
        type            uniformFixedValue;
        uniformValue    constant (1 0 0);
        value           nonuniform 0();
    }
    outlet
    {
        type            pressureInletOutletVelocity;
        value           nonuniform 0();
    }
    cylinder
    {
        type            fixedValue;
        value           nonuniform 0();
    }
    top
    {
        type            symmetryPlane;
    }
    bottom
    {
        type            symmetryPlane;
    }
    defaultFaces
    {
        type            empty;
    }
    procBoundary30to29
    {
        type            processor;
        value           nonuniform List<vector> 
110
(
(-0.0951692 -0.126574 4.98877e-21)
(-0.0995469 -0.118163 -2.72587e-20)
(-0.102392 -0.108878 -5.20027e-20)
(-0.103432 -0.098831 1.09994e-19)
(-0.102381 -0.0881684 1.43641e-20)
(-0.0989682 -0.0770857 -9.70667e-20)
(-0.0929573 -0.0658326 4.54328e-20)
(-0.087761 -0.0709025 -4.49755e-20)
(-0.087761 -0.0709025 -4.49755e-20)
(-0.0730382 -0.0603552 3.9313e-19)
(-0.0546868 -0.0505357 3.29324e-20)
(-0.0219737 -0.0601607 -3.37662e-19)
(-0.0219737 -0.0601607 -3.37662e-19)
(0.00925193 -0.0527587 2.03281e-19)
(0.0447641 -0.0470265 -7.23841e-20)
(0.11995 -0.0627489 4.08097e-19)
(0.11995 -0.0627489 4.08097e-19)
(0.173092 -0.0600793 2.45613e-19)
(0.29123 -0.0784908 -3.05342e-19)
(0.29123 -0.0784908 -3.05342e-19)
(0.440668 -0.0955619 -3.14602e-19)
(0.440668 -0.0955619 -3.14602e-19)
(0.531239 -0.091528 2.5147e-19)
(0.716646 -0.0991921 4.50828e-20)
(0.716646 -0.0991921 4.50828e-20)
(0.901851 -0.0970836 -1.54385e-20)
(0.901851 -0.0970836 -1.54385e-20)
(1.05967 -0.0860449 1.4797e-19)
(1.05967 -0.0860449 1.4797e-19)
(1.17224 -0.0651561 -5.70257e-19)
(1.17224 -0.0651561 -5.70257e-19)
(1.2309 -0.0521358 -6.92002e-20)
(1.2309 -0.0521358 -6.92002e-20)
(1.30087 -0.00746801 -2.35665e-20)
(1.30087 -0.00746801 -2.35665e-20)
(1.22617 -0.00902023 2.11164e-19)
(1.22617 -0.00902023 2.11164e-19)
(1.08747 -0.00281199 -4.05796e-19)
(1.08747 -0.00281199 -4.05796e-19)
(0.896361 -0.00294009 -1.71492e-19)
(0.896361 -0.00294009 -1.71492e-19)
(0.682551 -0.00889285 -1.48648e-19)
(0.682551 -0.00889285 -1.48648e-19)
(0.481946 -0.0221607 6.00047e-20)
(0.395049 -0.0333388 -1.02296e-19)
(0.395049 -0.0333388 -1.02296e-19)
(0.255128 -0.055311 9.49189e-20)
(0.255128 -0.055311 9.49189e-20)
(0.155362 -0.077771 -6.11638e-19)
(0.12177 -0.0929189 -1.46354e-19)
(0.12177 -0.0929189 -1.46354e-19)
(0.0649569 -0.111808 -3.61652e-19)
(0.0463648 -0.1241 1.56994e-19)
(0.0296232 -0.134781 -8.95314e-20)
(0.0296232 -0.134781 -8.95314e-20)
(-0.000132481 -0.144066 -3.61995e-20)
(-0.0122966 -0.150208 -2.25885e-19)
(-0.0243236 -0.154564 -8.06734e-20)
(-0.0243236 -0.154564 -8.06734e-20)
(-0.0397572 -0.153827 -1.46335e-20)
(-0.049091 -0.15397 4.28269e-20)
(-0.0582133 -0.152592 1.08822e-21)
(-0.0669771 -0.149807 -1.13729e-20)
(-0.0752267 -0.145721 2.89812e-20)
(-0.0827975 -0.140432 -1.54667e-20)
(-0.0895112 -0.134023 2.15601e-20)
(1.13452 0.0365797 -7.30411e-22)
(1.12504 0.0330335 2.21724e-21)
(1.11696 0.0297157 -1.39435e-22)
(1.1095 0.0262739 -1.60381e-21)
(1.10248 0.0233964 -6.94901e-21)
(1.09591 0.0201356 2.3544e-21)
(1.09095 0.0176423 -2.65404e-21)
(1.08584 0.014814 7.29705e-22)
(1.0827 0.0124496 4.07319e-22)
(1.0788 0.010067 -8.56286e-22)
(1.07636 0.00765754 2.52765e-22)
(1.07418 0.0055851 -5.09153e-22)
(1.07347 0.00305975 2.25323e-22)
(1.07225 0.00139102 -3.0797e-22)
(1.25162 -0.00645955 -5.23519e-20)
(1.22762 0.026262 2.07447e-20)
(1.20544 0.0395157 8.36098e-21)
(1.18483 0.045925 -2.95188e-20)
(1.16848 0.0458124 1.87189e-20)
(1.15534 0.0443852 -2.95137e-21)
(1.13452 0.0365797 -7.30411e-22)
(1.14372 0.0413553 -1.11446e-20)
(1.33016 -0.0273159 4.38543e-20)
(1.28648 -0.0285704 -2.9943e-20)
(1.2506 -0.0267308 -1.09124e-20)
(1.21823 -0.0273673 3.35313e-20)
(1.1917 -0.024695 -1.91196e-20)
(1.17021 -0.0237593 1.37139e-22)
(1.15206 -0.0225304 1.42742e-20)
(1.13694 -0.0210061 -2.17097e-21)
(1.12508 -0.0199619 4.3822e-21)
(1.11385 -0.0185184 -2.32428e-21)
(1.10549 -0.0169915 2.73216e-22)
(1.09738 -0.0157016 5.60706e-21)
(1.09138 -0.0138529 -4.02625e-22)
(1.08577 -0.0124733 7.1889e-22)
(1.0816 -0.0106194 4.68291e-22)
(1.07721 -0.00920162 -3.26159e-22)
(1.07451 -0.00734358 5.1119e-22)
(1.07205 -0.00587895 -1.29197e-22)
(1.07076 -0.00401643 2.52181e-22)
(1.06979 -0.00250087 4.1106e-23)
(1.06979 -0.00250087 4.1106e-23)
(1.06879 -0.000749453 -1.07952e-22)
)
;
    }
    procBoundary30to31
    {
        type            processor;
        value           nonuniform List<vector> 
88
(
(-0.11477 -0.161306 -1.16523e-20)
(-0.121315 -0.157098 -3.71704e-20)
(-0.121315 -0.157098 -3.71704e-20)
(-0.129439 -0.168185 -1.08142e-19)
(-0.130497 -0.163633 3.45814e-20)
(-0.127486 -0.157798 2.30289e-20)
(-0.11967 -0.15065 -1.56322e-19)
(-0.106343 -0.142274 2.64808e-19)
(-0.0869412 -0.132917 7.63052e-20)
(-0.0869412 -0.132917 7.63052e-20)
(-0.0520022 -0.148913 8.13708e-20)
(-0.0143218 -0.139014 -4.44676e-20)
(0.030733 -0.129369 -5.01923e-19)
(0.030733 -0.129369 -5.01923e-19)
(0.115369 -0.147727 2.60067e-19)
(0.182666 -0.139226 3.52847e-19)
(0.182666 -0.139226 3.52847e-19)
(0.311484 -0.157495 1.18628e-19)
(0.401652 -0.149116 -2.99281e-19)
(0.401652 -0.149116 -2.99281e-19)
(0.571734 -0.160345 7.26179e-20)
(0.677908 -0.148107 -6.03708e-20)
(0.677908 -0.148107 -6.03708e-20)
(0.855452 -0.148987 -2.20684e-19)
(0.855452 -0.148987 -2.20684e-19)
(1.0243 -0.123756 1.30379e-19)
(1.0243 -0.123756 1.30379e-19)
(1.09677 0.0142685 -4.04164e-19)
(1.09677 0.0142685 -4.04164e-19)
(0.874023 0.0105437 2.03246e-19)
(0.874023 0.0105437 2.03246e-19)
(0.669468 -0.00711918 -5.58936e-21)
(0.669468 -0.00711918 -5.58936e-21)
(0.563831 -0.0175937 6.4486e-20)
(0.390393 -0.0426644 -2.26103e-19)
(0.390393 -0.0426644 -2.26103e-19)
(0.319654 -0.0592868 2.02189e-20)
(0.210945 -0.0864883 2.76388e-19)
(0.210945 -0.0864883 2.76388e-19)
(0.169042 -0.1026 -3.49762e-19)
(0.101269 -0.123807 1.92755e-19)
(0.101269 -0.123807 1.92755e-19)
(0.0733582 -0.136061 7.41657e-20)
(0.047225 -0.146653 1.05901e-19)
(0.00699481 -0.156762 -1.34391e-19)
(0.00699481 -0.156762 -1.34391e-19)
(-0.0133262 -0.162897 8.8307e-20)
(-0.0326264 -0.16764 -4.09652e-20)
(-0.0507387 -0.17115 -2.31531e-20)
(-0.0674939 -0.173563 1.36403e-20)
(-0.0835756 -0.167911 7.66416e-20)
(-0.0835756 -0.167911 7.66416e-20)
(-0.095629 -0.166695 -9.95961e-22)
(-0.106106 -0.164495 1.11764e-20)
(1.2561 -0.109303 0)
(1.23262 -0.0749516 0)
(1.21908 -0.0283996 0)
(1.2032 -0.00502726 0)
(1.18755 0.00954687 0)
(1.17303 0.0171618 0)
(1.15982 0.0206865 0)
(1.14717 0.0216998 0)
(1.13597 0.021156 0)
(1.12633 0.0199797 0)
(1.11756 0.0181897 0)
(1.10948 0.0165522 0)
(1.10194 0.0144109 0)
(1.09607 0.0127577 0)
(1.09038 0.010769 0)
(1.08659 0.00909517 0)
(1.08242 0.00739838 0)
(1.07957 0.00563153 0)
(1.07723 0.00412947 0)
(1.07624 0.00224941 0)
(1.07508 0.00103281 0)
(1.3613 0.0285746 0)
(1.32915 0.0440688 0)
(1.28877 0.0357462 0)
(1.25042 0.0274267 0)
(1.21652 0.0189064 0)
(1.18924 0.0117545 0)
(1.16679 0.00557911 0)
(1.14843 0.00114718 0)
(1.13414 -0.00236112 0)
(1.12138 -0.00461704 0)
(1.11155 -0.00603021 0)
(1.1026 -0.00698546 0)
(1.09573 -0.00703988 0)
)
;
    }
    procBoundary30to32
    {
        type            processor;
        value           nonuniform List<vector> 
12
(
(1.1341 -0.214312 -2.8268e-20)
(1.17505 -0.194726 -4.91596e-20)
(1.26664 0.0229381 6.40637e-20)
(1.21703 0.026373 4.54369e-20)
(1.08959 -0.0070436 0)
(1.08487 -0.00640407 0)
(1.0802 -0.00583589 0)
(1.0771 -0.00480435 0)
(1.07448 -0.00398599 0)
(1.07297 -0.00276587 0)
(1.0716 -0.00181069 0)
(1.07061 -0.000540701 0)
)
;
    }
}


// ************************************************************************* //
