/*--------------------------------*- C++ -*----------------------------------*\
  =========                 |
  \\      /  F ield         | OpenFOAM: The Open Source CFD Toolbox
   \\    /   O peration     | Website:  https://openfoam.org
    \\  /    A nd           | Version:  7
     \\/     M anipulation  |
\*---------------------------------------------------------------------------*/
FoamFile
{
    version     2.0;
    format      ascii;
    class       volScalarField;
    location    "50";
    object      p;
}
// * * * * * * * * * * * * * * * * * * * * * * * * * * * * * * * * * * * * * //

dimensions      [0 2 -2 0 0 0 0];

internalField   nonuniform List<scalar> 
183
(
-0.287882
-0.289489
-0.291297
-0.293283
-0.295424
-0.296442
-0.297697
-0.298562
-0.30008
-0.300785
-0.302557
-0.303099
-0.303355
-0.305494
-0.305611
-0.30797
-0.307935
-0.307756
-0.310335
-0.309978
-0.309537
-0.312822
-0.312268
-0.311613
-0.314646
-0.313751
-0.312803
-0.315982
-0.314761
-0.313534
-0.316823
-0.315299
-0.317195
-0.315381
-0.319274
-0.317127
-0.314999
-0.316597
-0.314045
-0.315434
-0.312207
-0.308573
-0.313203
-0.308892
-0.303909
-0.309188
-0.303342
-0.29665
-0.294956
-0.286499
-0.27734
-0.283654
-0.273741
-0.263443
-0.259085
-0.248178
-0.237344
-0.232226
-0.22134
-0.210924
-0.205438
-0.20989
-0.233857
-0.224619
-0.21581
-0.257082
-0.24801
-0.239038
-0.277472
-0.269381
-0.261043
-0.286227
-0.279499
-0.272311
-0.29694
-0.292182
-0.286946
-0.299384
-0.295703
-0.291743
-0.300649
-0.297589
-0.304308
-0.301427
-0.298657
-0.304785
-0.302068
-0.299445
-0.305125
-0.302638
-0.300166
-0.303053
-0.300814
-0.303181
-0.301276
-0.299278
-0.302909
-0.301425
-0.299754
-0.302186
-0.30117
-0.299894
-0.30048
-0.299628
-0.298548
-0.299392
-0.298946
-0.298246
-0.297892
-0.297548
-0.29654
-0.296501
-0.296254
-0.295155
-0.29519
-0.293816
-0.29394
-0.292509
-0.292737
-0.291232
-0.289986
-0.288784
-0.287642
-0.184655
-0.147878
-0.118792
-0.0980676
-0.080124
-0.0662085
-0.0544441
-0.0447679
-0.036627
-0.0297979
-0.0239869
-0.0189358
-0.0147421
-0.0110777
-0.00808915
-0.00557616
-0.0034966
-0.00188613
-0.000622088
6.11139e-05
0.000594997
-0.17925
-0.143237
-0.114688
-0.0944714
-0.0769651
-0.0634874
-0.0520527
-0.0426689
-0.187206
-0.153492
-0.124894
-0.104422
-0.0861625
-0.0717757
-0.0591644
-0.0488785
-0.0400733
-0.0325028
-0.0262878
-0.0209395
-0.129711
-0.108653
-0.0898236
-0.0749004
-0.0618983
-0.0512393
-0.0421361
-0.0343242
-0.0278884
-0.0223664
-0.0177428
-0.0140134
-0.0107643
-0.00824186
-0.00608181
-0.00450914
-0.00334639
-0.00254639
-0.00210923
)
;

boundaryField
{
    inlet
    {
        type            zeroGradient;
    }
    outlet
    {
        type            fixedValue;
        value           nonuniform 0();
    }
    cylinder
    {
        type            zeroGradient;
    }
    top
    {
        type            symmetryPlane;
    }
    bottom
    {
        type            symmetryPlane;
    }
    defaultFaces
    {
        type            empty;
    }
    procBoundary24to23
    {
        type            processor;
        value           nonuniform List<scalar> 
122
(
-0.305118
-0.305118
-0.307762
-0.310534
-0.310534
-0.3132
-0.31542
-0.31542
-0.317141
-0.317141
-0.318341
-0.318341
-0.319037
-0.319037
-0.32145
-0.321587
-0.319087
-0.319087
-0.318424
-0.318424
-0.317015
-0.317015
-0.314284
-0.314284
-0.309412
-0.302607
-0.302607
-0.293011
-0.293011
-0.280556
-0.269928
-0.269928
-0.254557
-0.243298
-0.243298
-0.226964
-0.215964
-0.215964
-0.199767
-0.203829
-0.228524
-0.218989
-0.218989
-0.252887
-0.243272
-0.243272
-0.275108
-0.266152
-0.266152
-0.285193
-0.285193
-0.298108
-0.292434
-0.292434
-0.301307
-0.301307
-0.302907
-0.302907
-0.306906
-0.303739
-0.303739
-0.307282
-0.307282
-0.307527
-0.307527
-0.307528
-0.305202
-0.305202
-0.304887
-0.304887
-0.304106
-0.304106
-0.302862
-0.301035
-0.301035
-0.29955
-0.297994
-0.297994
-0.0347765
-0.0281625
-0.0225219
-0.0176049
-0.0135271
-0.00995231
-0.0070459
-0.00459731
-0.00256344
-0.000984968
0.000252858
0.000908209
0.00144404
-0.173691
-0.138486
-0.110511
-0.0908449
-0.0737791
-0.0607488
-0.0496475
-0.0347765
-0.0405551
-0.180846
-0.147909
-0.120053
-0.10021
-0.0825038
-0.0686532
-0.056428
-0.0465101
-0.0379994
-0.0306657
-0.0246699
-0.0194938
-0.016469
-0.016469
-0.0128762
-0.00972828
-0.00729231
-0.0051917
-0.0036744
-0.00255501
-0.0017761
-0.00134752
)
;
    }
    procBoundary24to25
    {
        type            processor;
        value           nonuniform List<scalar> 
134
(
-0.286496
-0.289379
-0.290893
-0.292587
-0.294444
-0.294444
-0.297051
-0.299064
-0.30117
-0.30117
-0.303471
-0.305588
-0.305588
-0.307503
-0.307503
-0.309058
-0.310912
-0.310912
-0.311851
-0.311851
-0.312328
-0.3138
-0.3138
-0.313591
-0.313591
-0.312837
-0.312837
-0.311319
-0.311319
-0.308264
-0.304351
-0.304351
-0.298115
-0.298115
-0.289091
-0.289091
-0.280714
-0.267632
-0.267632
-0.252919
-0.252919
-0.242344
-0.226571
-0.226571
-0.216249
-0.230125
-0.221617
-0.193524
-0.252567
-0.230125
-0.244084
-0.252567
-0.264759
-0.281191
-0.264759
-0.274924
-0.281191
-0.28739
-0.294474
-0.28739
-0.291189
-0.294474
-0.295975
-0.295975
-0.296951
-0.296951
-0.297785
-0.297785
-0.298581
-0.298581
-0.297281
-0.297994
-0.297994
-0.298448
-0.298448
-0.297315
-0.297347
-0.297347
-0.296988
-0.296988
-0.295825
-0.29504
-0.29504
-0.293887
-0.292783
-0.291578
-0.291578
-0.290462
-0.289399
-0.2884
-0.28658
-0.189932
-0.15242
-0.122833
-0.10164
-0.0832574
-0.0689147
-0.056823
-0.0468531
-0.038465
-0.0314216
-0.0254391
-0.0202519
-0.0159413
-0.0121861
-0.00911567
-0.00653834
-0.00441218
-0.00276872
-0.00147895
-0.000769272
-0.000236451
-0.193524
-0.15904
-0.15904
-0.13452
-0.112911
-0.0934888
-0.0780314
-0.0646316
-0.0535939
-0.0441887
-0.0361308
-0.0294723
-0.0237746
-0.0189976
-0.0151325
-0.0117818
-0.00917266
-0.00695248
-0.00532529
-0.00412048
-0.00329936
-0.00285335
)
;
    }
}


// ************************************************************************* //
