/*--------------------------------*- C++ -*----------------------------------*\
  =========                 |
  \\      /  F ield         | OpenFOAM: The Open Source CFD Toolbox
   \\    /   O peration     | Website:  https://openfoam.org
    \\  /    A nd           | Version:  7
     \\/     M anipulation  |
\*---------------------------------------------------------------------------*/
FoamFile
{
    version     2.0;
    format      ascii;
    class       volVectorField;
    location    "77";
    object      U;
}
// * * * * * * * * * * * * * * * * * * * * * * * * * * * * * * * * * * * * * //

dimensions      [0 1 -1 0 0 0 0];

internalField   nonuniform List<vector> 
40000
(
(-9.54638e-05 -0.00717518 -2.28134e-21)
(-0.000950205 -0.0192451 7.04984e-21)
(-0.00299337 -0.0294485 -4.50716e-21)
(-0.00595966 -0.0378792 -4.10989e-24)
(-0.00970218 -0.0446514 1.05771e-23)
(-0.014121 -0.0498998 2.91594e-24)
(-0.0191122 -0.053775 -7.47256e-21)
(-0.0245742 -0.0564389 1.77908e-21)
(-0.0304124 -0.0580599 -5.05823e-21)
(-0.036539 -0.0588064 -1.60642e-21)
(-0.0428735 -0.058841 0)
(-0.0493425 -0.0583143 -5.76677e-21)
(-0.0558802 -0.0573596 0)
(-0.0624279 -0.0560884 0)
(-0.0689339 -0.054588 -4.88675e-21)
(-0.0753529 -0.0529199 4.61675e-21)
(-0.0816461 -0.0511208 -2.18775e-21)
(-0.0877799 -0.0492039 -1.95668e-24)
(-0.0937266 -0.0471625 1.94397e-21)
(-0.0994638 -0.0449731 0)
(-0.104975 -0.0425993 -1.72516e-21)
(-0.110251 -0.0399946 -4.8359e-21)
(-0.11529 -0.0371056 6.06745e-21)
(-0.1201 -0.0338729 -2.86462e-21)
(-0.124699 -0.0302323 8.03229e-21)
(-0.12912 -0.0261146 5.00979e-21)
(-0.133409 -0.0214446 -9.38589e-21)
(-0.137619 -0.0161425 8.7859e-21)
(-0.141801 -0.0101128 -2.07152e-21)
(-0.146057 -0.00321303 -3.81144e-21)
(5.92989e-05 -0.00652581 0)
(-0.000559706 -0.0174838 4.64408e-21)
(-0.00244584 -0.0267363 8.97626e-21)
(-0.00531759 -0.0343615 -8.56642e-21)
(-0.0090164 -0.040462 -4.09067e-21)
(-0.0134328 -0.0451619 1.55994e-20)
(-0.0184535 -0.0486015 -3.71625e-21)
(-0.0239684 -0.0509324 -7.07394e-21)
(-0.0298753 -0.0523124 4.8205e-23)
(-0.0360798 -0.0529002 -1.91538e-20)
(-0.0424955 -0.0528485 6.06371e-21)
(-0.0490443 -0.052299 2.29894e-20)
(-0.0556565 -0.0513761 -1.08912e-20)
(-0.0622704 -0.0501838 -4.20973e-24)
(-0.0688318 -0.0488021 -4.83e-21)
(-0.0752941 -0.0472863 -1.70564e-23)
(-0.0816167 -0.0456673 0)
(-0.0877655 -0.0439534 0)
(-0.0937118 -0.0421328 1.53782e-20)
(-0.0994324 -0.040177 0)
(-0.10491 -0.0380443 6.83642e-21)
(-0.110135 -0.0356821 -6.39431e-21)
(-0.115103 -0.0330298 -3.0932e-23)
(-0.119823 -0.0300199 0)
(-0.12431 -0.0265788 1.05234e-20)
(-0.128596 -0.0226273 -9.98885e-21)
(-0.132727 -0.0180812 9.38588e-21)
(-0.136753 -0.0128545 -8.78589e-21)
(-0.140701 -0.00684839 8.13949e-21)
(-0.144692 8.41902e-05 -2.26594e-20)
(0.000180332 -0.00585284 -9.00555e-21)
(-0.000255316 -0.0156638 -9.33775e-21)
(-0.00201952 -0.0239412 0)
(-0.00481776 -0.030746 0)
(-0.00848174 -0.0361676 0)
(-0.0128937 -0.0403186 7.71886e-21)
(-0.0179324 -0.0433273 0)
(-0.0234804 -0.0453335 7.06559e-21)
(-0.0294286 -0.0464838 1.3433e-20)
(-0.0356767 -0.0469257 1.27562e-20)
(-0.0421333 -0.0468016 0)
(-0.048716 -0.0462432 -6.01385e-23)
(-0.0553515 -0.0453663 -2.16042e-20)
(-0.0619752 -0.0442665 2.04348e-20)
(-0.0685311 -0.0430168 9.71305e-21)
(-0.0749703 -0.0416664 9.14554e-21)
(-0.0812512 -0.0402407 -8.62609e-21)
(-0.0873381 -0.038743 1.62096e-20)
(-0.0932011 -0.0371571 -3.06413e-20)
(-0.0988155 -0.0354498 5.354e-23)
(-0.104162 -0.0335744 -2.70521e-20)
(-0.109229 -0.0314726 2.5345e-20)
(-0.114011 -0.0290768 0)
(-0.118511 -0.0263113 0)
(-0.122745 -0.0230935 1.03068e-20)
(-0.126739 -0.0193343 0)
(-0.13054 -0.0149404 0)
(-0.134194 -0.00981874 0)
(-0.137704 -0.00386805 -1.58843e-20)
(-0.14121 0.00305866 1.51054e-20)
(0.000266427 -0.00516295 9.00555e-21)
(-4.01202e-05 -0.0138024 6.40835e-23)
(-0.00171904 -0.0210886 4.34087e-23)
(-0.00446604 -0.0270641 -1.69171e-20)
(-0.00810509 -0.0318044 -1.62091e-20)
(-0.0125116 -0.0354091 -2.54611e-23)
(-0.0175576 -0.0379935 -2.94469e-20)
(-0.0231194 -0.0396848 1.4e-20)
(-0.0290822 -0.040617 -2.66131e-20)
(-0.0353406 -0.0409259 2.52676e-20)
(-0.0417987 -0.0407428 -1.20138e-20)
(-0.0483705 -0.0401891 2.26742e-20)
(-0.0549794 -0.0393713 2.16042e-20)
(-0.0615584 -0.0383769 -1.09115e-22)
(-0.0680491 -0.0372718 -1.92028e-20)
(-0.0744013 -0.0360991 0)
(-0.0805714 -0.034879 -5.02155e-23)
(-0.0865222 -0.0336105 1.60961e-20)
(-0.092222 -0.0322732 5.22864e-23)
(-0.0976441 -0.0308299 6.44645e-23)
(-0.102767 -0.0292292 2.69411e-20)
(-0.107575 -0.0274076 -2.5345e-20)
(-0.112058 -0.025291 0)
(-0.116218 -0.0227959 2.2046e-20)
(-0.120063 -0.0198301 -1.56099e-22)
(-0.123617 -0.0162944 -5.80503e-20)
(-0.126925 -0.0120852 1.81459e-20)
(-0.130032 -0.00710218 3.35437e-20)
(-0.132914 -0.0012394 1.58842e-20)
(-0.135726 0.00564729 1.46665e-20)
(0.000316934 -0.00446269 3.57805e-20)
(8.41478e-05 -0.0119165 -1.84117e-20)
(-0.00154719 -0.0182034 1.76616e-20)
(-0.00426624 -0.023347 1.69513e-20)
(-0.00789118 -0.0274078 0)
(-0.012292 -0.0304719 -3.07633e-20)
(-0.0173355 -0.0326407 -1.45935e-20)
(-0.0228928 -0.0340277 -2.79087e-20)
(-0.0288444 -0.0347539 1.3342e-20)
(-0.0350808 -0.0349427 -1.0831e-22)
(-0.0415023 -0.0347136 2.38594e-20)
(-0.0480195 -0.0341774 2.25525e-20)
(-0.0545533 -0.0334312 -4.28791e-20)
(-0.0610344 -0.0325541 2.01698e-20)
(-0.0674024 -0.0316052 1.01124e-22)
(-0.0736052 -0.0306216 0)
(-0.0795977 -0.0296189 -1.7091e-20)
(-0.0853408 -0.028592 -3.19968e-20)
(-0.0908006 -0.027517 4.51897e-20)
(-0.0959478 -0.0263532 1.40818e-20)
(-0.100757 -0.0250454 0)
(-0.105209 -0.0235256 -2.48974e-20)
(-0.10929 -0.0217135 0)
(-0.112993 -0.019518 -6.57533e-20)
(-0.116323 -0.0168374 4.10013e-20)
(-0.119298 -0.0135611 8.01394e-23)
(-0.12196 -0.0095741 3.54848e-20)
(-0.124355 -0.00476651 -5.01363e-20)
(-0.126432 0.000975998 3.08277e-20)
(-0.128356 0.00779381 1.44741e-20)
(0.000331728 -0.00375835 -1.78898e-20)
(0.000117046 -0.0100225 1.83562e-20)
(-0.00150502 -0.0153096 4.79392e-23)
(-0.00422012 -0.0196243 -5.04797e-20)
(-0.0078426 -0.0230118 0)
(-0.0122385 -0.0255439 3.07633e-20)
(-0.0172706 -0.0273076 -2.91577e-20)
(-0.0228061 -0.0284022 5.57e-20)
(-0.0287219 -0.028935 0)
(-0.034905 -0.0290164 -2.51593e-20)
(-0.0412527 -0.028754 -2.38593e-20)
(-0.0476731 -0.0282476 -2.26031e-20)
(-0.0540846 -0.0275846 -6.39359e-20)
(-0.060416 -0.026836 -4.8079e-23)
(-0.0666051 -0.0260539 5.36025e-23)
(-0.0725981 -0.02527 1.18737e-23)
(-0.0783481 -0.0244954 5.07366e-20)
(-0.0838142 -0.0237216 1.91567e-22)
(-0.0889599 -0.0229219 -1.94475e-22)
(-0.0937527 -0.0220529 -2.83488e-20)
(-0.0981637 -0.0210566 1.29519e-22)
(-0.102168 -0.0198608 4.96471e-20)
(-0.105746 -0.0183803 -6.94681e-20)
(-0.108884 -0.0165167 2.18175e-20)
(-0.11158 -0.0141583 0)
(-0.113844 -0.0111824 0)
(-0.115716 -0.00746001 -3.54844e-20)
(-0.117246 -0.00286754 3.25653e-20)
(-0.118352 0.00272239 -3.07271e-20)
(-0.119206 0.00944891 0)
(0.000311166 -0.00305588 -1.77386e-20)
(5.93323e-05 -0.00813572 0)
(-0.0015919 -0.0124299 1.75903e-20)
(-0.00432751 -0.0159244 1.0081e-19)
(-0.00795983 -0.0186487 -3.20518e-20)
(-0.0123523 -0.0206603 0)
(-0.017365 -0.0220312 9.44048e-23)
(-0.0228623 -0.0228464 2.77426e-20)
(-0.0287186 -0.0231989 -2.63432e-20)
(-0.0348183 -0.0231859 0)
(-0.0410563 -0.0229025 0)
(-0.0473387 -0.0224376 -4.48451e-20)
(-0.0535819 -0.0218687 6.38437e-20)
(-0.0597131 -0.0212588 -2.00889e-20)
(-0.0656684 -0.0206532 0)
(-0.0713925 -0.0200783 3.57488e-20)
(-0.0768369 -0.0195415 -3.38345e-20)
(-0.0819583 -0.0190313 3.175e-20)
(-0.0867178 -0.0185189 -5.97453e-20)
(-0.0910795 -0.0179591 -8.38911e-20)
(-0.09501 -0.017292 2.63494e-20)
(-0.0984787 -0.0164427 2.45401e-20)
(-0.101459 -0.0153218 2.31616e-20)
(-0.10393 -0.0138241 0)
(-0.105879 -0.0118285 -3.99089e-20)
(-0.10731 -0.00919826 0)
(-0.108258 -0.00578762 0)
(-0.108776 -0.00145402 -6.46746e-20)
(-0.108759 0.00395034 8.64051e-23)
(-0.108366 0.0105705 -8.32244e-20)
(0.000256039 -0.00236079 1.77386e-20)
(-8.71515e-05 -0.0062705 3.65153e-20)
(-0.00180566 -0.00958557 3.49804e-20)
(-0.00458638 -0.0122736 -3.35422e-20)
(-0.00824129 -0.0143489 0)
(-0.0126325 -0.0158542 0)
(-0.0176186 -0.0168467 2.91049e-20)
(-0.0230624 -0.0173964 -2.76556e-20)
(-0.0288364 -0.0175823 2.72569e-23)
(-0.0348234 -0.0174878 4.97923e-20)
(-0.0409168 -0.0171956 0)
(-0.0470207 -0.0167834 4.4845e-20)
(-0.0530506 -0.016319 0)
(-0.0589318 -0.0158572 0)
(-0.0645994 -0.0154367 -5.19181e-23)
(-0.0699964 -0.0150792 3.56252e-20)
(-0.0750726 -0.0147884 -3.34991e-20)
(-0.0797829 -0.0145508 6.3038e-20)
(-0.0840853 -0.014336 -2.95943e-20)
(-0.0879406 -0.0140984 8.36588e-20)
(-0.0913106 -0.0137769 0)
(-0.0941587 -0.0132954 0)
(-0.0964504 -0.0125615 4.54443e-20)
(-0.0981559 -0.0114647 0)
(-0.0992528 -0.00987435 3.99547e-20)
(-0.0997336 -0.00763903 -3.71016e-20)
(-0.0996291 -0.00459233 3.41974e-20)
(-0.0989982 -0.000566126 -3.16533e-20)
(-0.0977128 0.00461776 5.94777e-20)
(-0.0958974 0.0111238 8.25491e-20)
(0.000167509 -0.00167808 0)
(-0.0003196 -0.00443991 -3.65153e-20)
(-0.00214275 -0.00679597 -7.43049e-23)
(-0.00499297 -0.00869637 0)
(-0.00868341 -0.0101404 -6.38101e-20)
(-0.013076 -0.0111564 -3.87447e-23)
(-0.0180289 -0.0117866 2.89695e-20)
(-0.0234044 -0.0120862 0)
(-0.0290741 -0.0121197 2.62332e-20)
(-0.0349199 -0.0119569 -4.97922e-20)
(-0.0408341 -0.0116681 0)
(-0.0467199 -0.0113195 0)
(-0.0524916 -0.0109692 -4.21843e-20)
(-0.0580735 -0.010664 3.98808e-20)
(-0.0633995 -0.0104364 -3.76902e-20)
(-0.0684112 -0.0103032 0)
(-0.0730569 -0.0102653 -3.32807e-20)
(-0.0772891 -0.0103073 -9.42313e-20)
(-0.0810636 -0.0103986 9.30017e-23)
(-0.0843371 -0.0104934 1.04659e-22)
(-0.087067 -0.0105315 2.59547e-20)
(-0.08921 -0.0104367 4.83219e-20)
(-0.0907238 -0.0101155 -9.08405e-20)
(-0.0915685 -0.00945336 4.2048e-20)
(-0.0917105 -0.00831136 3.56097e-22)
(-0.0911295 -0.00652284 3.32572e-22)
(-0.0898486 -0.00389717 3.43345e-22)
(-0.0879358 -0.000232537 3.16415e-20)
(-0.0852457 0.00469188 0)
(-0.0818233 0.0110805 0)
(4.7055e-05 -0.0010122 3.53473e-20)
(-0.000634379 -0.00265571 4.39537e-23)
(-0.00259833 -0.00407872 -5.7023e-23)
(-0.0055419 -0.00521487 -6.67006e-20)
(-0.00928067 -0.00604905 6.36968e-20)
(-0.0136774 -0.00659526 0)
(-0.0185909 -0.00688123 0)
(-0.0238837 -0.00694718 5.50363e-20)
(-0.0294274 -0.00684337 -5.22601e-20)
(-0.0351037 -0.00662591 -4.77032e-23)
(-0.0408045 -0.00635247 9.39651e-20)
(-0.0464324 -0.00607807 4.4484e-20)
(-0.051901 -0.00585118 -8.41446e-20)
(-0.0571337 -0.00571045 3.97585e-20)
(-0.0620634 -0.00568225 3.74553e-20)
(-0.0666306 -0.00577912 -3.53543e-20)
(-0.0707817 -0.00599911 6.6621e-20)
(-0.0744676 -0.00632581 9.35639e-20)
(-0.0776411 -0.00672867 5.84292e-20)
(-0.0802555 -0.00716329 2.73178e-20)
(-0.0822631 -0.00757109 -5.16144e-20)
(-0.0836147 -0.00787787 0)
(-0.0842592 -0.00799083 1.09144e-23)
(-0.0841465 -0.00779392 4.17064e-20)
(-0.0832304 -0.00714158 3.87808e-20)
(-0.0814762 -0.00585242 -7.24134e-20)
(-0.0788954 -0.00370853 -3.37502e-20)
(-0.0755683 -0.000465662 6.17896e-20)
(-0.0713441 0.00415266 0)
(-0.066105 0.010417 -5.26547e-20)
(-0.000103595 -0.000367067 3.52404e-20)
(-0.00102715 -0.000928286 -7.27859e-20)
(-0.00316647 -0.00144948 -6.9919e-23)
(-0.00622628 -0.00184902 4.03099e-23)
(-0.0100257 -0.00209798 0)
(-0.0144291 -0.00219656 0)
(-0.0192968 -0.00215808 0)
(-0.0244924 -0.00200821 -5.4936e-20)
(-0.0298884 -0.00178295 5.21648e-20)
(-0.0353667 -0.00152487 -4.95492e-20)
(-0.0408193 -0.0012791 -9.38495e-20)
(-0.0461488 -0.00108943 3.0851e-23)
(-0.0512682 -0.000994676 8.39134e-20)
(-0.0561004 -0.00102559 3.95836e-20)
(-0.0605773 -0.00120245 0)
(-0.0646382 -0.0015336 -7.03126e-20)
(-0.068228 -0.00201469 9.92117e-20)
(-0.0712954 -0.00262856 -9.35383e-20)
(-0.0737905 -0.00334548 -5.85472e-20)
(-0.0756632 -0.00412315 -1.64054e-19)
(-0.0768611 -0.00490606 2.90389e-22)
(-0.0773284 -0.00562355 3.16354e-22)
(-0.077006 -0.00618597 1.2128e-23)
(-0.0758329 -0.00647842 -8.30884e-20)
(-0.0737497 -0.00635177 1.15794e-19)
(-0.0707052 -0.00561166 6.5249e-22)
(-0.0666947 -0.004011 0)
(-0.061815 -0.00125527 -6.17885e-20)
(-0.0559375 0.00299881 5.63354e-20)
(-0.0486272 0.00912151 5.29459e-20)
(-0.000282516 0.000253966 0)
(-0.00149299 0.000733356 -3.63726e-20)
(-0.00384025 0.00107799 3.47493e-20)
(-0.00703782 0.00138356 6.65772e-20)
(-0.0109091 0.00169206 3.18273e-20)
(-0.015321 0.00201655 -6.05382e-20)
(-0.0201359 0.00235778 3.74056e-23)
(-0.0252194 0.00270435 -5.48386e-20)
(-0.030445 0.00303426 0)
(-0.0356958 0.00331838 4.93941e-20)
(-0.0408643 0.003524 0)
(-0.0458532 0.0036185 0)
(-0.0505753 0.00357265 -8.37728e-20)
(-0.054953 0.00336359 -7.90853e-20)
(-0.0589173 0.00297704 1.11795e-19)
(-0.062406 0.00240878 7.03121e-20)
(-0.0653625 0.00166544 -2.15574e-22)
(-0.0677332 0.000764603 -6.21341e-20)
(-0.0694654 -0.000265199 1.16329e-19)
(-0.0705054 -0.00138445 3.07382e-23)
(-0.0707959 -0.00254179 1.01961e-19)
(-0.0702752 -0.00367173 0)
(-0.0688758 -0.00469012 0)
(-0.0665258 -0.00548646 8.22942e-20)
(-0.0631524 -0.005912 -1.15091e-19)
(-0.0586864 -0.00576285 1.07142e-19)
(-0.0531009 -0.00476307 -6.54712e-20)
(-0.0465129 -0.00256399 6.04432e-20)
(-0.0388788 0.00126242 -1.12013e-19)
(-0.0292002 0.00728882 5.22146e-20)
(-0.000487626 0.000848083 -3.52127e-20)
(-0.0020265 0.00232151 0)
(-0.00461183 0.00349182 0)
(-0.00796686 0.00446747 -6.6503e-20)
(-0.01192 0.00530274 1.27017e-19)
(-0.0163409 0.00602347 -6.05007e-20)
(-0.0210948 0.00664397 9.63423e-24)
(-0.0260497 0.00716675 5.47938e-20)
(-0.031081 0.00758358 0)
(-0.0360731 0.00787854 -4.06565e-23)
(-0.0409193 0.00803124 -3.27883e-23)
(-0.0455227 0.00802011 -8.84862e-20)
(-0.049796 0.00782549 1.11855e-22)
(-0.053661 0.00743238 -3.94235e-20)
(-0.0570476 0.0068325 -1.11579e-19)
(-0.0598922 0.00602578 6.99371e-20)
(-0.062136 0.00502108 -6.59645e-20)
(-0.0637227 0.0038364 1.23458e-19)
(-0.0645967 0.00249885 -1.16008e-19)
(-0.0647001 0.0010448 -1.08577e-19)
(-0.0639709 -0.000479293 -2.88849e-22)
(-0.062341 -0.0020144 -4.75285e-20)
(-0.0597348 -0.00348408 4.39053e-20)
(-0.0560699 -0.00478563 -9.03922e-22)
(-0.0512592 -0.00577554 -1.14184e-19)
(-0.0452148 -0.00624588 -7.02635e-20)
(-0.0378825 -0.00589605 1.30379e-19)
(-0.029388 -0.00432572 -1.20297e-19)
(-0.0198482 -0.000976054 5.56772e-20)
(-0.00761563 0.00529044 6.8326e-22)
(-0.00071675 0.00141296 1.05705e-19)
(-0.00262186 0.00382971 -3.62628e-20)
(-0.00547259 0.00578185 -6.96229e-20)
(-0.00900245 0.00738938 1.99465e-19)
(-0.0130451 0.00871809 7.93076e-24)
(-0.0174737 0.00980601 0)
(-0.0221566 0.0106806 0)
(-0.0269644 0.0113578 5.47824e-20)
(-0.031775 0.0118428 -5.20133e-20)
(-0.0364742 0.0121328 4.93404e-20)
(-0.0409566 0.0122195 -4.67012e-20)
(-0.0451256 0.0120923 -8.83213e-20)
(-0.0488938 0.011741 1.67091e-19)
(-0.0521821 0.0111586 -3.94453e-20)
(-0.054919 0.0103427 7.42809e-20)
(-0.0570388 0.00929766 -1.39805e-19)
(-0.0584802 0.00803466 2.48388e-22)
(-0.0591837 0.00657225 5.21695e-23)
(-0.0590895 0.00493625 1.15544e-19)
(-0.0581351 0.00315985 -6.97818e-23)
(-0.0562533 0.00128438 0)
(-0.0533691 -0.000638385 0)
(-0.0493988 -0.00254135 -4.39385e-20)
(-0.0442493 -0.00433281 -1.63384e-19)
(-0.0378196 -0.00587987 1.13959e-19)
(-0.0300021 -0.00697868 4.69226e-22)
(-0.0207146 -0.00731357 -1.29317e-19)
(-0.0100513 -0.00643829 1.18907e-19)
(0.00183959 -0.00364282 -5.53036e-20)
(0.0165579 0.00294231 5.04295e-20)
(-0.000967627 0.00194672 0)
(-0.00327293 0.00525255 0)
(-0.00641314 0.00793947 6.96391e-20)
(-0.0101323 0.0101379 -1.33092e-19)
(-0.0142697 0.0119242 -2.98398e-23)
(-0.0187019 0.0133483 -6.05538e-20)
(-0.0233008 0.01445 1.72886e-19)
(-0.0279401 0.0152586 -1.64352e-19)
(-0.0325001 0.0157924 -1.96327e-23)
(-0.0368684 0.016061 -4.93307e-20)
(-0.0409408 0.0160684 -1.40087e-19)
(-0.0446209 0.0158146 1.32578e-19)
(-0.047821 0.0152991 0)
(-0.0504608 0.0145226 0)
(-0.0524666 0.0134892 7.42314e-20)
(-0.0537701 0.0122075 1.3945e-19)
(-0.0543062 0.0106915 -6.57214e-20)
(-0.0540111 0.00896051 0)
(-0.05282 0.00703959 -5.75012e-20)
(-0.0506645 0.00495915 3.54868e-22)
(-0.0474707 0.00275571 -5.00752e-20)
(-0.0431562 0.000473761 0)
(-0.0376286 -0.00182971 -4.31517e-20)
(-0.0307842 -0.00407629 4.08289e-20)
(-0.022508 -0.00614879 -7.4727e-20)
(-0.0126731 -0.00785718 2.08907e-19)
(-0.00117493 -0.00888643 -3.01077e-22)
(0.0119083 -0.00876237 5.88567e-20)
(0.026577 -0.00659758 0)
(0.0443282 5.75746e-05 -4.97152e-20)
(-0.00123793 0.00244784 -7.06852e-20)
(-0.00397321 0.00658558 7.26666e-20)
(-0.0074233 0.00995747 8.73781e-23)
(-0.0113428 0.0127031 -6.65429e-20)
(-0.0155767 0.0149092 0)
(-0.020005 0.0166365 -1.21206e-19)
(-0.0245033 0.0179371 3.93109e-24)
(-0.0289485 0.0188529 5.4764e-20)
(-0.0332234 0.0194149 1.94733e-23)
(-0.0372176 0.0196455 4.03633e-23)
(-0.0408276 0.0195599 1.40138e-19)
(-0.0439573 0.0191693 4.4127e-20)
(-0.0465179 0.0184825 4.1675e-20)
(-0.0484273 0.0175082 -7.85829e-20)
(-0.0496089 0.0162568 7.4232e-20)
(-0.0499904 0.0147418 -6.97695e-20)
(-0.0495018 0.0129802 6.53599e-20)
(-0.0480734 0.010993 -6.16025e-20)
(-0.0456335 0.00880494 0)
(-0.0421063 0.00644458 -5.3935e-20)
(-0.0374093 0.00394453 1.00243e-19)
(-0.0314512 0.00134293 4.65159e-20)
(-0.0241297 -0.00131294 -4.30471e-20)
(-0.01533 -0.00395874 1.61594e-19)
(-0.00492429 -0.00649671 -3.77032e-20)
(0.00723261 -0.00875888 6.90409e-20)
(0.0212687 -0.0104489 -6.31911e-20)
(0.0371155 -0.0110782 3.51693e-22)
(0.0548745 -0.00958144 0)
(0.0763335 -0.0030095 -9.75889e-20)
(-0.0015253 0.00291511 1.95247e-23)
(-0.00471591 0.0078251 -7.27895e-20)
(-0.00849209 0.0118297 0)
(-0.012619 0.0150769 -6.67471e-20)
(-0.0169469 0.0176628 6.36608e-20)
(-0.0213595 0.0196587 -1.36817e-23)
(-0.0257359 0.0211285 0)
(-0.0299562 0.0221263 -1.21955e-23)
(-0.0339057 0.0226957 -5.20147e-20)
(-0.0374756 0.0228709 4.93732e-20)
(-0.0405631 0.0226791 0)
(-0.0430717 0.0221417 -8.82643e-20)
(-0.0449109 0.0212771 8.35314e-20)
(-0.0459957 0.0201021 0)
(-0.0462456 0.0186338 0)
(-0.0455825 0.0168908 0)
(-0.04393 0.0148937 0)
(-0.0412103 0.0126658 6.1211e-20)
(-0.0373428 0.0102326 -5.76517e-20)
(-0.0322417 0.0076221 1.61105e-19)
(-0.0258136 0.0048645 -1.0029e-19)
(-0.017956 0.0019933 -9.31072e-20)
(-0.00855494 -0.00095214 1.30677e-19)
(0.00251612 -0.00392062 -2.38672e-22)
(0.0153972 -0.00683425 -7.44932e-20)
(0.0302485 -0.00955366 -6.9039e-20)
(0.0472219 -0.0118177 -6.32892e-20)
(0.0662555 -0.0131565 1.16219e-19)
(0.0874753 -0.0123926 -1.06327e-19)
(0.11335 -0.00588623 1.94202e-19)
(-0.00182726 0.00334756 1.41745e-19)
(-0.00549383 0.00896802 -2.73097e-23)
(-0.00960767 0.013551 -1.39849e-19)
(-0.0139441 0.017252 1.33631e-19)
(-0.0183587 0.0201759 -6.3816e-20)
(-0.0227384 0.0224044 -6.07474e-20)
(-0.0269658 0.0240127 5.77947e-20)
(-0.0309239 0.0250667 5.49084e-20)
(-0.0345004 0.0256219 -1.043e-19)
(-0.0375877 0.0257248 -1.48233e-19)
(-0.0400831 0.0254134 -4.66464e-20)
(-0.0418889 0.02472 1.76792e-19)
(-0.0429121 0.0236723 -2.50351e-19)
(-0.0430634 0.0222953 7.87997e-20)
(-0.0422567 0.0206129 0)
(-0.0404067 0.0186494 0)
(-0.0374279 0.0164297 0)
(-0.0332324 0.0139801 1.22492e-19)
(-0.0277277 0.0113284 -5.76035e-20)
(-0.0208152 0.00850317 -5.38409e-20)
(-0.012388 0.00553433 -1.00135e-19)
(-0.00232944 0.0024532 9.32517e-20)
(0.00948806 -0.000706131 -4.35833e-20)
(0.0232039 -0.003902 -8.09696e-20)
(0.0389692 -0.00707417 -4.29001e-22)
(0.0569546 -0.0101145 -1.36543e-19)
(0.0773323 -0.0128079 1.89558e-19)
(0.100043 -0.0147446 -1.74789e-19)
(0.125143 -0.0147351 5.41499e-20)
(0.15623 -0.00824712 -4.7736e-20)
(-0.00214131 0.00374436 -7.09598e-20)
(-0.00629938 0.0100116 7.31402e-20)
(-0.0107572 0.0151168 6.99994e-20)
(-0.0152999 0.019222 -2.00919e-19)
(-0.0197879 0.0224408 6.37789e-20)
(-0.0241112 0.0248647 6.08512e-20)
(-0.0281555 0.0265798 0)
(-0.0318066 0.0276635 0)
(-0.0349538 0.0281832 5.21619e-20)
(-0.0374902 0.0281967 9.88654e-20)
(-0.0393125 0.0277535 -1.87233e-19)
(-0.0403208 0.0268959 2.94616e-23)
(-0.0404183 0.0256612 0)
(-0.0395099 0.0240826 0)
(-0.037502 0.0221915 -7.39778e-20)
(-0.0342997 0.0200179 3.02704e-22)
(-0.0298064 0.017592 6.5575e-20)
(-0.0239207 0.0149441 -6.13308e-20)
(-0.0165359 0.0121052 -1.14779e-19)
(-0.00753728 0.00910661 1.07299e-19)
(0.00319871 0.00597997 4.97892e-20)
(0.0158052 0.00275692 -1.39906e-19)
(0.0304253 -0.000529492 -8.60088e-20)
(0.0472119 -0.00384248 8.14012e-20)
(0.0663255 -0.00713477 7.47535e-20)
(0.0879402 -0.0103256 6.85281e-20)
(0.112241 -0.0132501 0)
(0.139171 -0.0155911 0)
(0.168573 -0.0162847 1.05199e-19)
(0.205739 -0.00973866 0)
(-0.00246477 0.00410477 7.14092e-20)
(-0.00712443 0.0109535 -7.35079e-20)
(-0.0119268 0.0165229 1.40626e-19)
(-0.0166663 0.0209814 -1.95598e-22)
(-0.0212077 0.0244506 0)
(-0.0254438 0.0270316 0)
(-0.0292628 0.0288212 0)
(-0.0325526 0.0299081 -5.5104e-20)
(-0.0352039 0.030371 5.2324e-20)
(-0.0371096 0.0302791 0)
(-0.0381647 0.0296926 9.36956e-20)
(-0.0382658 0.0286643 8.8732e-20)
(-0.0373106 0.0272408 -8.34434e-20)
(-0.0351967 0.0254639 7.89333e-20)
(-0.0318204 0.0233724 -1.91672e-22)
(-0.0270753 0.021003 -6.987e-20)
(-0.0208504 0.0183917 -6.54573e-20)
(-0.0130288 0.0155739 1.8381e-19)
(-0.00348578 0.0125851 5.72001e-20)
(0.00791183 0.00946102 -1.07214e-19)
(0.0213065 0.00623701 -4.97511e-20)
(0.0368498 0.00294847 4.68291e-20)
(0.0547011 -0.000368755 0)
(0.0750255 -0.003678 -8.00701e-20)
(0.0979888 -0.00693764 -7.40116e-20)
(0.123759 -0.0100862 0)
(0.152521 -0.0130035 6.20737e-20)
(0.184229 -0.015477 -1.16199e-19)
(0.218308 -0.0167442 -1.58377e-19)
(0.262429 -0.0100009 0)
(-0.00279485 0.00442809 -1.42947e-19)
(-0.00796024 0.0117913 7.38485e-20)
(-0.0131011 0.0177656 -1.41043e-19)
(-0.0180209 0.0225249 -2.24731e-22)
(-0.0225882 0.0261988 0)
(-0.0266977 0.0288981 0)
(-0.0302397 0.0307297 5.82728e-20)
(-0.0331039 0.0317934 1.1068e-19)
(-0.0351809 0.0321789 0)
(-0.0363627 0.0319664 0)
(-0.0365413 0.0312272 -1.87876e-19)
(-0.0356084 0.0300239 8.88106e-20)
(-0.0334543 0.0284127 -1.80652e-22)
(-0.029967 0.0264441 0)
(-0.0250308 0.0241648 1.21301e-22)
(-0.0185248 0.0216187 6.99354e-20)
(-0.0103213 0.0188483 -2.69264e-22)
(-0.000284735 0.0158952 -2.45808e-19)
(0.0117295 0.0128009 -5.75937e-20)
(0.025875 0.00960683 1.07212e-19)
(0.0423146 0.0063545 9.94646e-20)
(0.061218 0.00308578 -4.62315e-22)
(0.0827588 -0.00015785 8.63584e-20)
(0.10711 -0.00333467 1.60069e-19)
(0.134435 -0.00640157 7.40085e-20)
(0.164884 -0.00930642 6.81199e-20)
(0.198613 -0.0119603 6.192e-20)
(0.235617 -0.0142346 1.13432e-19)
(0.27463 -0.0158791 -1.82177e-21)
(0.326451 -0.00872594 4.54248e-20)
(-0.00312854 0.0047136 1.43893e-19)
(-0.00879737 0.0125227 -2.21916e-19)
(-0.0142637 0.0188409 1.41568e-19)
(-0.0193394 0.0238475 1.35194e-19)
(-0.0238963 0.0276798 6.44492e-20)
(-0.0278303 0.0304579 -1.99621e-23)
(-0.0310333 0.032299 -5.81902e-20)
(-0.0333953 0.0333135 -1.1068e-19)
(-0.0348066 0.0336021 2.41814e-22)
(-0.0351565 0.0332559 1.99063e-19)
(-0.0343326 0.0323565 -9.44668e-20)
(-0.0322198 0.030977 1.77824e-19)
(-0.0286993 0.0291829 -2.71555e-22)
(-0.0236472 0.0270337 -1.58044e-19)
(-0.0169332 0.0245844 9.34185e-23)
(-0.00841947 0.0218868 0)
(0.00204063 0.0189907 3.27509e-19)
(0.0146033 0.0159449 6.11579e-20)
(0.0294345 0.0127982 0)
(0.046709 0.00959935 5.33848e-20)
(0.0666084 0.00639789 -5.02134e-20)
(0.0893174 0.00324367 1.85468e-19)
(0.115018 0.000186869 -2.58992e-19)
(0.143882 -0.00272232 8.04923e-20)
(0.176058 -0.00543391 0)
(0.211657 -0.00789616 6.79701e-20)
(0.250774 -0.0100374 -1.24945e-19)
(0.293476 -0.0117521 1.14284e-19)
(0.337505 -0.0135319 -1.04377e-19)
(0.397501 -0.00566328 -9.33818e-20)
(-0.00346259 0.00496054 -1.44328e-19)
(-0.00962552 0.0131454 -3.37869e-22)
(-0.0153964 0.0197453 -7.09231e-20)
(-0.0205949 0.0249444 -6.7724e-20)
(-0.0250954 0.0288879 -1.29518e-19)
(-0.0287946 0.0317053 6.16039e-20)
(-0.0315845 0.0335238 6.58007e-23)
(-0.033355 0.0344642 -1.11175e-19)
(-0.0339943 0.034638 -1.57825e-19)
(-0.0333878 0.034147 2.11979e-22)
(-0.0314171 0.0330833 9.42425e-20)
(-0.0279584 0.0315301 -1.78015e-19)
(-0.0228812 0.0295626 8.41973e-20)
(-0.0160477 0.0272495 7.92565e-20)
(-0.00731084 0.0246547 1.15434e-22)
(0.00348626 0.0218382 7.0127e-20)
(0.016511 0.0188584 -1.3115e-19)
(0.031941 0.0157723 0)
(0.0499634 0.0126369 -1.14992e-19)
(0.0707719 0.00950991 1.07342e-19)
(0.094563 0.00644989 -1.00022e-19)
(0.121529 0.00351635 -9.30001e-20)
(0.151849 0.000769503 0)
(0.185677 -0.00173039 -2.39221e-19)
(0.223127 -0.00392385 6.18561e-22)
(0.264247 -0.00575439 -3.39363e-19)
(0.309022 -0.00716105 1.88042e-19)
(0.357629 -0.00796572 -2.28341e-19)
(0.406538 -0.00962911 1.0437e-19)
(0.474745 -0.000683498 -9.22771e-20)
(-0.00379346 0.0051681 7.23354e-20)
(-0.0104335 0.0136568 7.449e-20)
(-0.0164793 0.0204749 7.15747e-20)
(-0.021758 0.025811 -1.6784e-22)
(-0.0261458 0.0298183 -1.39325e-22)
(-0.0295389 0.0326354 0)
(-0.031829 0.0343998 0)
(-0.0329041 0.0352426 0)
(-0.0326492 0.035286 0)
(-0.0309443 0.0346422 0)
(-0.0276628 0.0334138 9.45099e-20)
(-0.0226701 0.0316941 -8.92049e-20)
(-0.0158224 0.0295684 8.44022e-20)
(-0.00696541 0.0271149 -8.96441e-23)
(0.00406639 0.0244067 -7.45186e-20)
(0.0174503 0.0215134 1.16699e-22)
(0.0333749 0.0185022 -1.31523e-19)
(0.0520388 0.0154394 1.23142e-19)
(0.0736473 0.0123916 1.14988e-19)
(0.0984081 0.00942609 -1.06791e-19)
(0.126524 0.00661146 2.00553e-19)
(0.158182 0.0040174 0)
(0.193541 0.00171423 -1.72082e-19)
(0.232714 -0.000228234 1.21005e-21)
(0.275753 -0.0017417 1.30021e-21)
(0.32261 -0.00276453 1.44168e-21)
(0.373107 -0.00325339 -6.16142e-20)
(0.427534 -0.00284908 1.14057e-19)
(0.480963 -0.00416439 1.0416e-19)
(0.556793 0.00621154 4.78213e-20)
(-0.00411733 0.00533545 0)
(-0.011209 0.0140545 7.50812e-20)
(-0.0174908 0.021026 -7.13556e-20)
(-0.0227967 0.0264429 -1.5176e-22)
(-0.0270038 0.0304661 1.30514e-19)
(-0.030007 0.0332441 -6.21299e-20)
(-0.0316963 0.0349241 0)
(-0.0319569 0.0356478 0)
(-0.0306687 0.0355477 -1.0601e-19)
(-0.0277043 0.0347467 1.00567e-19)
(-0.0229273 0.0333578 9.50908e-20)
(-0.0161904 0.0314847 0)
(-0.00733416 0.0292228 8.45886e-20)
(0.00381351 0.0266603 0)
(0.0174379 0.0238806 -1.4926e-19)
(0.033737 0.0209628 2.10512e-19)
(0.0529194 0.0179844 1.97252e-19)
(0.0752013 0.0150218 -6.17531e-20)
(0.100801 0.0121517 -4.65094e-22)
(0.129929 0.00945171 -1.61405e-19)
(0.162783 0.00700051 0)
(0.199525 0.00487742 0)
(0.240269 0.00316141 8.63348e-20)
(0.285058 0.00192922 1.59197e-19)
(0.333842 0.00125407 -6.10276e-22)
(0.386444 0.00119846 1.35848e-19)
(0.442477 0.00177058 1.2465e-19)
(0.502274 0.00359089 0)
(0.559667 0.00282171 -1.04152e-19)
(0.641743 0.014901 1.39253e-19)
(-0.00442998 0.00546169 7.35778e-20)
(-0.0119387 0.014336 0)
(-0.0184073 0.021395 1.90289e-22)
(-0.023676 0.0268359 -6.88454e-20)
(-0.0276221 0.0308274 6.57639e-20)
(-0.0301379 0.033528 6.23523e-20)
(-0.0311107 0.0350952 -9.93842e-23)
(-0.030421 0.0356806 5.64317e-20)
(-0.0279422 0.0354276 0)
(-0.0235379 0.0344695 -2.01656e-19)
(-0.0170596 0.0329299 3.09825e-22)
(-0.00834557 0.0309231 0)
(0.00278058 0.028555 8.47716e-20)
(0.0165099 0.0259245 -2.39274e-19)
(0.0330474 0.0231255 7.51275e-20)
(0.0526103 0.020248 -7.01276e-20)
(0.0754235 0.0173799 -1.31888e-19)
(0.101715 0.0146086 -1.85453e-19)
(0.131704 0.0120212 0)
(0.165595 0.00970539 0)
(0.203554 0.00774913 1.0024e-19)
(0.245697 0.00623942 9.25415e-20)
(0.292061 0.00526061 -8.69356e-20)
(0.342581 0.00489144 0)
(0.397066 0.00520334 0)
(0.455163 0.00625098 0)
(0.516259 0.00799322 1.24384e-19)
(0.580554 0.0113045 -5.61733e-20)
(0.641227 0.0112546 1.06041e-19)
(0.727269 0.0251625 9.15546e-20)
(-0.00472686 0.00554598 -1.47422e-19)
(-0.0126081 0.0144989 7.59136e-20)
(-0.0192032 0.0215786 -7.27996e-20)
(-0.0243581 0.0269864 6.94381e-20)
(-0.0279495 0.0308991 -6.57638e-20)
(-0.029866 0.0334855 6.26603e-20)
(-0.0299904 0.0349133 -5.96142e-20)
(-0.0281975 0.0353446 -1.12719e-19)
(-0.0243523 0.0349333 1.07235e-19)
(-0.0183074 0.0338234 2.02412e-19)
(-0.00990092 0.0321495 9.5415e-20)
(0.00104501 0.0300366 -9.03544e-20)
(0.0147245 0.0276017 2.67774e-22)
(0.0313474 0.0249549 9.28196e-23)
(0.0511368 0.0222011 7.53241e-20)
(0.0743252 0.0194417 0)
(0.101148 0.016776 1.3199e-19)
(0.131833 0.014302 3.08827e-19)
(0.166589 0.0121171 -5.79873e-20)
(0.205589 0.0103181 0)
(0.248947 0.00899951 -2.00561e-19)
(0.296698 0.00825248 -9.3201e-20)
(0.348764 0.00816126 -8.57568e-20)
(0.404933 0.00879934 8.05149e-20)
(0.464829 0.0102274 -7.30111e-20)
(0.527877 0.012479 6.84737e-20)
(0.593254 0.0154739 -1.54549e-22)
(0.660744 0.0201864 1.13332e-19)
(0.723948 0.0210565 -1.03901e-19)
(0.810671 0.0367287 -1.83069e-19)
(-0.00500301 0.00558751 7.4596e-20)
(-0.0132014 0.014541 7.64452e-20)
(-0.0198507 0.0215741 -2.33644e-22)
(-0.0248024 0.0268917 4.36269e-22)
(-0.0279311 0.0306794 0)
(-0.0291208 0.0331166 -2.48385e-22)
(-0.0282486 0.0343813 -1.79994e-19)
(-0.0251816 0.0346465 0)
(-0.019775 0.0340766 -1.07666e-19)
(-0.0118689 0.0328267 -4.0649e-19)
(-0.00128653 0.0310424 9.61427e-20)
(0.0121667 0.0288601 -9.06715e-20)
(0.0287025 0.0264082 -1.70131e-19)
(0.0485476 0.0238085 1.60693e-19)
(0.0719395 0.0211777 0)
(0.0991192 0.0186289 7.04312e-20)
(0.130322 0.0162725 -1.98975e-19)
(0.165761 0.0142169 -6.20625e-20)
(0.205614 0.0125684 -1.73846e-19)
(0.249997 0.0114298 0)
(0.29894 0.0108986 2.00736e-19)
(0.352357 0.0110637 9.31955e-20)
(0.410019 0.0120016 0)
(0.47152 0.0137705 7.98708e-20)
(0.536262 0.0164099 0)
(0.603414 0.0199152 -6.6987e-20)
(0.671978 0.0242137 -1.8546e-19)
(0.74101 0.0300618 -2.26518e-19)
(0.80592 0.032231 -1.03286e-19)
(0.888855 0.0493824 -2.66839e-21)
(-0.00525308 0.00558558 -7.4596e-20)
(-0.0137016 0.0144605 3.06276e-22)
(-0.0203202 0.0213792 7.35404e-20)
(-0.024965 0.0265503 -6.98741e-20)
(-0.0275081 0.0301684 -6.66663e-20)
(-0.0278275 0.0324236 1.26457e-19)
(-0.0257929 0.0335052 6.03129e-20)
(-0.0212628 0.0335969 1.14268e-19)
(-0.0140807 0.0328742 1.07734e-19)
(-0.00407304 0.0315034 1.02292e-19)
(0.00895241 0.0296415 1.93125e-19)
(0.0252067 0.0274367 -3.56741e-22)
(0.0449173 0.0250294 0)
(0.0683244 0.0225536 -8.03052e-20)
(0.0956728 0.0201379 -3.50002e-22)
(0.127202 0.0179069 2.02995e-22)
(0.163132 0.0159817 1.99127e-19)
(0.203643 0.0144795 0)
(0.248852 0.0135124 1.15757e-19)
(0.298788 0.013185 0)
(0.353358 0.0135912 9.20867e-23)
(0.412318 0.0148093 -9.26393e-20)
(0.47524 0.0168967 1.72772e-19)
(0.541492 0.0198843 -8.05347e-20)