/*--------------------------------*- C++ -*----------------------------------*\
  =========                 |
  \\      /  F ield         | OpenFOAM: The Open Source CFD Toolbox
   \\    /   O peration     | Website:  https://openfoam.org
    \\  /    A nd           | Version:  7
     \\/     M anipulation  |
\*---------------------------------------------------------------------------*/
FoamFile
{
    version     2.0;
    format      ascii;
    class       surfaceScalarField;
    location    "40";
    object      phi;
}
// * * * * * * * * * * * * * * * * * * * * * * * * * * * * * * * * * * * * * //

dimensions      [0 3 -1 0 0 0 0];

internalField   nonuniform List<scalar> 
262
(
6.26613e-06
1.09521e-05
-2.19481e-05
7.64673e-06
3.30542e-06
3.51698e-05
-4.94711e-05
-0.000159986
9.15741e-06
-5.85199e-06
4.10797e-05
-8.13934e-05
0.000100752
-0.000219658
0.000192509
-0.000419747
-0.00067925
1.07853e-05
4.73176e-05
0.000114335
-0.000286676
0.000215569
-0.000520981
0.000352715
-0.000816396
0.000524325
-0.00116408
0.000725085
-0.00155016
-0.00195651
0.000128112
0.000238324
0.000384602
0.00056338
-0.00134286
0.000766991
-0.00175377
0.000984448
-0.00217397
0.00120332
-0.00258199
-0.00296015
0.000597122
0.000799967
0.00101004
0.00121483
0.00140408
-0.0031494
0.00157137
-0.00346454
0.00171445
-0.00373248
-0.00395922
0.00137892
0.00152376
0.00164481
0.00174493
0.00182845
-0.00423744
0.00190004
-0.00439809
0.00196388
-0.00454985
-0.00469912
0.00171454
0.00177386
0.00182741
0.00187785
0.00192697
-0.00489946
0.00197584
-0.00505511
0.00202503
-0.00521759
-0.00538668
0.00177244
0.00181374
0.00185528
0.00189687
0.00177333
0.00488998
0.00181517
0.00504532
0.00185734
0.0052075
0.00189965
0.00164452
0.00405078
0.00171353
0.00422868
0.00177316
0.0043891
0.00182707
0.00454057
0.00187792
0.00192751
0.00197694
0.00120808
0.0027797
0.00137662
0.00314164
0.00152157
0.0034563
0.00164283
0.00372392
0.00174319
0.00395042
0.00182699
0.00189891
0.000595481
0.00133959
0.000797894
0.0017492
0.00100762
0.00216817
0.00121219
0.00257514
0.00140136
0.00295247
0.0015687
0.00171194
0.000127716
0.000286701
0.000237588
0.000520344
0.000383427
0.000814802
0.000561703
0.00116131
0.000764807
0.0015461
0.000981813
0.00120035
1.07534e-05
6.15211e-06
4.71724e-05
8.18485e-05
0.000113974
0.000219899
0.000214877
0.000419441
0.000351577
0.000678102
0.000522651
9.13291e-06
-2.9808e-06
4.09591e-05
5.00223e-05
0.000100437
0.000160422
0.00019188
7.63146e-06
-1.06123e-05
3.50794e-05
0.00159301
-0.0214945
0.00146294
-0.0212702
0.00134302
-0.0210954
0.00123224
-0.0209584
0.00112781
-0.0208302
0.00102874
-0.0207083
0.000935146
-0.0206068
0.000846359
-0.0205319
0.00076037
-0.0204446
0.000676819
-0.0203575
0.000595754
-0.0202793
0.00051687
-0.0202177
0.000439955
-0.0201651
0.00036483
-0.0201292
0.000290113
-0.0200683
0.000216635
-0.0200406
0.000143605
-0.0200072
7.2168e-05
-0.0200114
-0.0199798
0.00172691
0.00156961
0.00143612
0.00131462
0.00120346
0.00110155
0.00100604
0.000915873
0.000831141
0.000751271
0.000674181
0.000599445
0.0005271
0.000456865
0.000388586
0.000322128
0.000255989
0.00019103
0.000126512
6.36743e-05
0.00173218
0.00157727
0.00144538
0.00132448
0.00121424
0.00111143
0.0209438
0.00101437
0.0208113
0.000923143
0.0206909
0.000836921
0.020609
0.00075319
0.020487
0.000674398
0.0204271
0.000597575
0.0203331
0.00052448
0.0202822
0.000453891
0.0202264
0.000385409
0.0201785
0.000318403
0.0201276
0.000252462
0.0200805
0.000188089
0.0200571
0.000125184
0.0200491
6.26204e-05
0.020029
0.0200068
0.00124204
0.00113606
0.00103595
0.000940838
0.000848344
0.000760778
0.000675283
0.000593506
0.00051421
0.000437021
0.000361362
0.000286854
0.000213905
0.000142362
7.11774e-05
)
;

boundaryField
{
    inlet
    {
        type            calculated;
        value           nonuniform 0();
    }
    outlet
    {
        type            calculated;
        value           nonuniform 0();
    }
    cylinder
    {
        type            calculated;
        value           uniform 0;
    }
    top
    {
        type            symmetryPlane;
        value           uniform 0;
    }
    bottom
    {
        type            symmetryPlane;
        value           uniform 0;
    }
    defaultFaces
    {
        type            empty;
        value           nonuniform 0();
    }
    procBoundary20to19
    {
        type            processor;
        value           nonuniform List<scalar> 
94
(
-1.66373e-05
-0.000117926
-5.37883e-05
-0.000360999
-0.000631193
-0.000962674
-0.000413901
-0.00152608
-0.00195662
-0.00238404
-0.00278677
-0.00121039
-0.00331793
-0.00360937
-0.00385354
-0.00405934
-0.00164582
-0.00430616
-0.00445741
-0.00460339
-0.00474957
-0.00173106
-0.00494084
-0.00509641
-0.00525913
-0.00542828
-0.00493183
-0.00508717
-0.00524967
-0.00541862
-0.00413359
-0.00429769
-0.00444874
-0.00459448
-0.00173147
-0.00474038
-0.0029677
-0.00331018
-0.00360125
-0.00156171
-0.00384517
-0.00152235
-0.00195162
-0.00102008
-0.0023779
-0.000360794
-0.000630215
-0.000412716
-0.000960641
-1.69055e-05
-5.36237e-05
-0.000118268
-0.0220707
-0.0215839
-0.021361
-0.0211487
-0.0209843
-0.0208565
-0.0207347
-0.0206182
-0.0205221
-0.020452
-0.0203675
-0.0202828
-0.0202069
-0.0201475
-0.0200969
-0.0200627
-0.0200022
-0.0199757
-0.0199427
-0.0199485
-0.0199161
-0.0220374
-0.0215544
-0.0213453
-0.021124
-0.0209798
-0.020841
-0.0207143
-0.0205997
-0.0205228
-0.0204033
-0.0203483
-0.0202563
-0.0202091
-0.0201558
-0.02011
-0.0200606
-0.0200146
-0.0199928
-0.0199862
-0.0199665
-0.0199442
)
;
    }
    procBoundary20to21
    {
        type            processor;
        value           nonuniform List<scalar> 
102
(
-1.72183e-05
-1.44974e-06
2.96639e-05
0.00010753
8.76267e-05
0.00032799
0.000552535
0.000319224
0.00099247
0.0013494
0.00173564
0.000945958
0.00236311
0.00275136
0.00141211
0.00329725
0.0035894
0.00383909
0.00183458
0.00415392
0.0043265
0.00448601
0.00463976
0.00202325
0.00485035
0.00500624
0.0051684
0.00533726
0.00207445
0.00537631
0.00468952
0.00484038
0.0049959
0.00202677
0.00515767
0.00414488
0.00431719
0.00196311
0.00447637
0.00328896
0.00358068
0.00183231
0.00383005
0.00195117
0.0023566
0.00140895
0.00274387
0.000990237
0.000722833
0.00134592
0.000327998
0.000318154
0.000551828
2.25744e-05
8.73685e-05
0.000108133
6.26194e-06
-1.68742e-05
0.0216364
0.0214003
0.0212154
0.0210692
0.0209346
0.0208074
0.0207004
0.0206207
0.0205306
0.0204411
0.0203603
0.0202966
0.020242
0.0202043
0.020143
0.0201141
0.0200803
0.0200828
0.020052
0.0222406
-0.00173484
0.0217412
0.0222049
0.0217093
0.0214772
0.0212449
0.02109
-0.00135374
0.0210555
0.0209173
0.020791
0.0207041
0.0205795
0.0205146
0.0204186
0.020364
0.0203057
0.0202557
0.0202033
0.020155
0.0201301
0.0201206
0.0201002
0.020078
)
;
    }
}


// ************************************************************************* //
