/*--------------------------------*- C++ -*----------------------------------*\
  =========                 |
  \\      /  F ield         | OpenFOAM: The Open Source CFD Toolbox
   \\    /   O peration     | Website:  https://openfoam.org
    \\  /    A nd           | Version:  7
     \\/     M anipulation  |
\*---------------------------------------------------------------------------*/
FoamFile
{
    version     2.0;
    format      ascii;
    class       volVectorField;
    location    "80";
    object      U;
}
// * * * * * * * * * * * * * * * * * * * * * * * * * * * * * * * * * * * * * //

dimensions      [0 1 -1 0 0 0 0];

internalField   nonuniform List<vector> 
183
(
(0.0367984 -0.00949315 5.47681e-20)
(0.139917 -0.0268071 -5.40068e-20)
(0.0450724 -0.0100721 -4.82072e-20)
(0.1644 -0.0265495 1.84559e-19)
(0.312966 -0.0300878 2.93563e-19)
(0.482063 -0.0241479 -9.88252e-20)
(0.660407 -0.0105769 -2.09596e-19)
(0.0541835 -0.010229 1.51635e-19)
(0.190683 -0.0249616 6.30326e-20)
(0.354799 -0.0245483 -5.74438e-20)
(0.53624 -0.0135675 2.31861e-19)
(0.721957 0.00514476 2.92998e-19)
(0.897594 0.0283561 -3.9673e-19)
(1.05052 0.0523189 -1.41915e-19)
(1.1726 0.0737858 3.07559e-19)
(1.26131 0.0906732 -3.32651e-19)
(0.0640903 -0.0098753 -3.06672e-19)
(0.218552 -0.0218521 1.51926e-19)
(0.398106 -0.0166458 -2.56609e-19)
(0.590848 -0.000101568 9.05371e-20)
(0.782135 0.0238405 1.55281e-19)
(0.956984 0.0510642 1.20537e-19)
(1.10355 0.0773523 -2.42747e-20)
(1.21564 0.099484 -1.80948e-19)
(1.29301 0.115762 2.70085e-19)
(1.33992 0.125923 2.32524e-20)
(1.36298 0.130704 -1.93821e-19)
(1.36917 0.131335 9.02763e-21)
(1.36457 0.129115 1.70475e-19)
(1.01218 0.0761708 -3.07998e-20)
(1.15092 0.104098 -1.12261e-20)
(1.25236 0.126198 3.5211e-19)
(1.31856 0.141301 -4.05919e-20)
(1.35549 0.149719 -1.88648e-19)
(1.37068 0.152642 2.02582e-21)
(1.37129 0.151571 3.17378e-20)
(1.36311 0.147913 -1.13568e-19)
(1.35029 0.142784 -6.20344e-21)
(1.33548 0.136965 -1.21211e-19)
(1.32023 0.130954 -1.733e-19)
(1.30533 0.125045 -1.00954e-19)
(1.37065 0.171575 9.43914e-20)
(1.35969 0.166472 -2.61275e-20)
(1.34539 0.160167 2.04757e-20)
(1.32994 0.153372 1.59084e-20)
(1.31454 0.146516 -2.37459e-21)
(1.29977 0.139843 -2.76424e-21)
(1.28585 0.133487 -9.03656e-20)
(1.27275 0.127464 -7.93666e-20)
(1.26031 0.121806 6.55394e-20)
(1.24823 0.117041 -5.17583e-20)
(1.25493 0.134195 3.47464e-20)
(1.24309 0.128875 8.03358e-21)
(1.31039 -0.16006 -1.6594e-21)
(1.29926 -0.151085 3.60878e-20)
(1.28813 -0.143057 -8.31263e-22)
(1.40241 -0.210044 1.5708e-19)
(1.40185 -0.206563 -1.08272e-19)
(1.39372 -0.200336 1.22488e-19)
(1.3819 -0.192545 -4.57825e-20)
(1.36873 -0.183956 1.12987e-19)
(1.35543 -0.175025 5.13327e-20)
(1.34257 -0.166018 2.97069e-20)
(1.33033 -0.157094 7.57186e-20)
(1.31866 -0.148297 2.60277e-20)
(1.30737 -0.13969 -6.45345e-20)
(1.29609 -0.131921 3.78559e-20)
(0.808019 -0.0677444 2.23194e-19)
(0.992688 -0.103501 -1.47931e-19)
(1.14465 -0.13577 2.49944e-19)
(1.25796 -0.161182 1.60323e-20)
(1.33376 -0.178422 2.1654e-19)
(1.37798 -0.187865 -1.02022e-19)
(1.39855 -0.190888 -2.51383e-19)
(1.40325 -0.189202 -7.74172e-20)
(1.39837 -0.18439 3.68995e-20)
(1.3884 -0.177686 -4.71465e-20)
(1.37617 -0.169938 -1.00937e-19)
(1.36329 -0.161679 3.26816e-20)
(1.35056 -0.153228 5.71406e-20)
(0.0463487 0.00605485 -2.8564e-21)
(0.180323 0.0126408 -5.93522e-21)
(0.351209 0.00246791 3.89648e-20)
(0.544902 -0.0190198 -1.38109e-19)
(0.744314 -0.0480228 1.37157e-19)
(0.931604 -0.0802133 2.30312e-19)
(1.09207 -0.11095 -3.576e-20)
(1.21725 -0.136615 -1.75646e-19)
(1.30564 -0.155297 3.50322e-20)
(1.36116 -0.166726 9.9164e-20)
(1.3907 -0.171776 2.17275e-19)
(1.40179 -0.171871 9.75286e-20)
(0.0362043 0.00570324 2.6223e-19)
(0.151066 0.014137 -1.1054e-19)
(0.304944 0.00833876 9.79761e-20)
(0.485713 -0.00768009 -1.27644e-19)
(0.678326 -0.0313947 5.4455e-21)
(0.865939 -0.0595252 2.02328e-20)
(1.03317 -0.0880059 -6.91917e-20)
(1.16946 -0.113206 -2.27886e-19)
(0.026987 0.00484502 -8.58009e-20)
(0.123708 0.0140685 2.41431e-19)
(0.260543 0.0117317 -1.15875e-19)
(0.427269 0.000592287 -3.53619e-20)
(0.611035 -0.0179555 -2.25386e-19)
(0.018735 0.00357953 -5.05295e-20)
(0.0984779 0.0126565 -3.98539e-19)
(1.2177 0.101907 1.33929e-20)
(1.17473 0.0965875 -5.59283e-21)
(1.15375 0.0799381 -2.58841e-21)
(1.13584 0.076295 1.56417e-21)
(1.12268 0.0658794 -2.31313e-21)
(1.11309 0.0600267 9.79198e-22)
(1.10394 0.0536635 1.42532e-21)
(1.09611 0.0477108 -8.93938e-22)
(1.09061 0.0423066 1.31223e-22)
(1.08542 0.0377092 -7.58386e-22)
(1.08017 0.0333191 -4.47194e-22)
(1.07514 0.0296547 -1.40477e-22)
(1.07079 0.0253024 -2.79515e-22)
(1.06788 0.0225008 -2.72498e-23)
(1.06393 0.0185457 1.48009e-23)
(1.06253 0.0158565 2.92945e-23)
(1.05894 0.012873 -2.30063e-23)
(1.05765 0.00981663 -9.68118e-23)
(1.05579 0.00705744 9.9603e-23)
(1.05602 0.00378275 -1.5654e-22)
(1.0544 0.00214749 -4.585e-23)
(1.21337 0.110422 -4.31699e-21)
(1.17159 0.10302 6.4136e-21)
(1.15138 0.0840021 -2.92102e-21)
(1.13375 0.0794673 -1.8447e-22)
(1.12084 0.0681173 -3.36875e-22)
(1.11147 0.0617712 7.07319e-22)
(1.10244 0.0550798 5.45941e-22)
(1.09474 0.0488329 -6.49004e-22)
(1.0894 0.0432137 3.71066e-22)
(1.08434 0.0384871 3.92637e-22)
(1.07917 0.0340186 3.97949e-22)
(1.0742 0.0302716 1.55999e-23)
(1.06992 0.025805 3.07742e-22)
(1.2589 -0.11776 5.37032e-21)
(1.21597 -0.101637 -3.29229e-21)
(1.19168 -0.074632 -1.05717e-21)
(1.16701 -0.066223 1.7226e-21)
(1.14954 -0.0518192 8.7924e-23)
(1.13258 -0.0452243 -5.45582e-23)
(1.11901 -0.0377942 -4.81568e-22)
(1.10759 -0.0316569 -3.57884e-24)
(1.09824 -0.0283166 6.34267e-23)
(1.08845 -0.0232588 -6.97431e-23)
(1.08294 -0.0206107 7.54895e-24)
(1.07498 -0.0175405 -5.28739e-23)
(1.07186 -0.0145727 9.28088e-23)
(1.06574 -0.0130101 1.23334e-22)
(1.06408 -0.0100507 -1.3683e-22)
(1.0594 -0.00938125 1.24681e-22)
(1.05781 -0.0064428 -1.76945e-22)
(1.05564 -0.00558527 6.79158e-24)
(1.05512 -0.00337286 2.29131e-22)
(1.05392 -0.00259344 -1.20315e-22)
(1.05288 -0.000646923 -2.95572e-25)
(1.26608 -0.109274 -1.31029e-20)
(1.22144 -0.0943497 2.66929e-21)
(1.1956 -0.0691977 2.60834e-21)
(1.17009 -0.0615541 4.03072e-22)
(1.15187 -0.0481312 2.17669e-21)
(1.13446 -0.0421043 -1.3287e-21)
(1.12053 -0.0352638 -9.4066e-22)
(1.10881 -0.029626 7.56644e-22)
(1.09925 -0.0265706 5.5893e-23)
(1.08935 -0.0219066 3.31745e-22)
(1.08365 -0.0194761 4.64243e-23)
(1.07567 -0.0166288 3.16652e-23)
(1.07239 -0.0138705 -1.19008e-23)
(1.06628 -0.0124172 -2.08289e-22)
(1.06448 -0.00961205 1.02725e-22)
(1.05984 -0.00897488 8.00862e-23)
(1.05819 -0.00618968 6.26928e-22)
(1.05601 -0.00538566 6.47571e-22)
(1.05544 -0.00325207 -2.88552e-22)
(1.05424 -0.00248784 7.84508e-22)
(1.05322 -0.000612268 7.42698e-22)
)
;

boundaryField
{
    inlet
    {
        type            uniformFixedValue;
        uniformValue    constant (1 0 0);
        value           nonuniform 0();
    }
    outlet
    {
        type            pressureInletOutletVelocity;
        value           nonuniform 0();
    }
    cylinder
    {
        type            fixedValue;
        value           uniform (0 0 0);
    }
    top
    {
        type            symmetryPlane;
    }
    bottom
    {
        type            symmetryPlane;
    }
    defaultFaces
    {
        type            empty;
    }
    procBoundary19to18
    {
        type            processor;
        value           nonuniform List<vector> 
91
(
(0.0747284 -0.00892444 7.02573e-20)
(0.247739 -0.0170474 3.99149e-21)
(0.442359 -0.00622639 1.41998e-19)
(0.645124 0.0162956 -8.81168e-20)
(0.840086 0.0454041 -8.98262e-20)
(0.840086 0.0454041 -8.98262e-20)
(1.0626 0.103404 8.57572e-20)
(1.19239 0.132254 -2.17905e-19)
(1.28289 0.153664 1.01191e-19)
(1.33837 0.167105 -2.39283e-20)
(1.36625 0.17348 -1.38346e-20)
(1.37463 0.174399 -7.25735e-20)
(1.37463 0.174399 -7.25735e-20)
(1.36763 0.191345 4.40643e-20)
(1.35456 0.184798 -7.94684e-21)
(1.33922 0.177317 3.26691e-20)
(1.3234 0.169536 -4.57745e-20)
(1.30801 0.161816 -8.24672e-20)
(1.29346 0.154356 -2.51328e-20)
(1.27984 0.147257 5.37152e-20)
(1.26706 0.140509 -5.90029e-20)
(1.26706 0.140509 -5.90029e-20)
(1.24886 0.146243 -1.40471e-20)
(1.23729 0.140332 -1.43771e-20)
(1.30166 -0.171662 1.86333e-20)
(1.29074 -0.16229 -1.93556e-20)
(1.27979 -0.153938 2.70877e-21)
(1.40285 -0.229211 4.98255e-20)
(1.39805 -0.223938 -1.04527e-19)
(1.38741 -0.216315 5.13814e-21)
(1.37425 -0.207443 -5.76059e-20)
(1.36045 -0.197999 2.79077e-20)
(1.34691 -0.188367 1.87345e-20)
(1.33404 -0.178767 2.01267e-20)
(1.32191 -0.169326 1.69911e-21)
(1.32191 -0.169326 1.69911e-21)
(0.868556 -0.0903929 -1.67346e-19)
(1.04855 -0.129109 9.49324e-21)
(1.19069 -0.162158 1.01831e-19)
(1.29181 -0.186642 -4.47943e-20)
(1.35556 -0.201963 1.12368e-20)
(1.38955 -0.209154 3.66824e-20)
(1.38955 -0.209154 3.66824e-20)
(0.0573562 0.00580186 5.64738e-20)
(0.211192 0.00937871 1.86154e-19)
(0.398751 -0.00606825 9.31734e-20)
(0.603969 -0.033499 1.41644e-20)
(0.603969 -0.033499 1.41644e-20)
(1.06709 0.0229643 5.28887e-23)
(1.06315 0.0188977 6.71449e-24)
(1.06186 0.0161791 -2.13504e-23)
(1.05823 0.0131527 4.75092e-23)
(1.05698 0.0100255 -8.95527e-24)
(1.05512 0.00718043 -9.73355e-23)
(1.05544 0.00385361 5.12753e-23)
(1.05374 0.00223002 -5.33865e-24)
(1.20855 0.118581 8.1036e-22)
(1.16813 0.109341 -4.33217e-21)
(1.14882 0.0880225 2.45458e-21)
(1.13153 0.08262 -1.38972e-21)
(1.11892 0.0703536 -1.38945e-21)
(1.10981 0.0635113 4.25438e-22)
(1.10091 0.0565032 9.41918e-22)
(1.09333 0.0499563 -2.82647e-22)
(1.08818 0.0441133 -2.13076e-22)
(1.08325 0.0392593 3.60366e-22)
(1.07817 0.0347194 1.02127e-22)
(1.07325 0.0308916 -1.14927e-22)
(1.06709 0.0229643 5.28887e-23)
(1.06904 0.0263067 3.68614e-23)
(1.25152 -0.125973 -1.3958e-21)
(1.21037 -0.108763 3.15912e-21)
(1.18766 -0.079936 -3.07301e-21)
(1.16386 -0.0707931 -1.46428e-22)
(1.14715 -0.0554431 5.60836e-22)
(1.13065 -0.0482975 -5.85125e-22)
(1.11745 -0.0402961 -7.69385e-22)
(1.10633 -0.0336606 6.65901e-23)
(1.09721 -0.0300509 -1.92802e-23)
(1.08751 -0.0246006 -2.32929e-22)
(1.0822 -0.0217378 -4.98473e-24)
(1.07425 -0.0184486 3.15473e-23)
(1.07131 -0.0152675 9.8795e-23)
(1.06518 -0.0135992 2.43856e-22)
(1.06366 -0.0104869 1.07883e-22)
(1.05894 -0.00979134 2.37373e-22)
(1.0574 -0.00669455 -3.90519e-23)
(1.05525 -0.00578069 4.09002e-22)
(1.05479 -0.00349165 3.66658e-22)
(1.05359 -0.00270242 -1.27858e-23)
(1.05252 -0.000684572 3.7803e-22)
)
;
    }
    procBoundary19to20
    {
        type            processor;
        value           nonuniform List<vector> 
94
(
(0.0293806 -0.00857941 2.13123e-19)
(0.11739 -0.0259356 -6.30125e-20)
(0.273074 -0.0334607 4.39631e-19)
(0.273074 -0.0334607 4.39631e-19)
(0.429053 -0.031953 -1.96677e-20)
(0.598394 -0.0232861 -3.17123e-19)
(0.834733 0.00828413 1.78723e-19)
(0.834733 0.00828413 1.78723e-19)
(0.992203 0.0292984 -6.47644e-20)
(1.12322 0.0493902 -3.86759e-20)
(1.2231 0.0662557 4.95717e-19)
(1.31897 0.102197 -1.04135e-19)
(1.31897 0.102197 -1.04135e-19)
(1.35097 0.108627 -1.29937e-19)
(1.36382 0.110869 -8.25707e-20)
(1.36371 0.110061 -1.03475e-20)
(1.35379 0.125162 -7.95284e-20)
(1.35379 0.125162 -7.95284e-20)
(1.33997 0.120312 9.82633e-20)
(1.32505 0.11513 -1.18987e-19)
(1.31012 0.109965 4.00294e-20)
(1.29114 0.119409 -1.96152e-19)
(1.29114 0.119409 -1.96152e-19)
(1.27773 0.114096 -4.92434e-20)
(1.26499 0.109095 3.56694e-20)
(1.25267 0.104847 1.56011e-20)
(1.33829 -0.144778 5.74871e-20)
(1.3265 -0.136411 3.5099e-20)
(1.31508 -0.128144 -5.22726e-20)
(1.30371 -0.120565 -1.6555e-20)
(1.40107 -0.168491 -1.04134e-19)
(1.39359 -0.162885 -6.02271e-21)
(1.38271 -0.155972 -9.41372e-21)
(1.37049 -0.148362 9.02301e-20)
(1.33829 -0.144778 5.74871e-20)
(1.35802 -0.140431 8.38027e-20)
(1.27066 -0.132772 2.36857e-20)
(1.33841 -0.145839 -1.30831e-20)
(1.37817 -0.152753 6.65554e-20)
(1.40107 -0.168491 -1.04134e-19)
(1.39693 -0.154583 5.39885e-20)
(0.79652 -0.0416787 -2.25391e-20)
(0.968375 -0.0672464 6.23434e-20)
(1.27066 -0.132772 2.36857e-20)
(1.11451 -0.0912441 1.80951e-19)
(0.21852 0.012883 -4.67789e-19)
(0.370405 0.00594519 1.48056e-19)
(0.79652 -0.0416787 -2.25391e-20)
(0.543488 -0.00772066 -3.01726e-19)
(0.0114614 0.00200421 -3.715e-19)
(0.21852 0.012883 -4.67789e-19)
(0.0755348 0.0101336 9.48891e-21)
(1.2215 0.0930361 -7.71807e-21)
(1.17756 0.0900491 -5.08066e-21)
(1.15592 0.0758362 1.26425e-20)
(1.1378 0.0731077 -5.86299e-21)
(1.12443 0.0636422 5.46077e-21)
(1.11465 0.0582813 -2.5499e-21)
(1.10541 0.0522556 -1.41804e-21)
(1.09747 0.0465908 -2.34166e-22)
(1.09181 0.0413939 -1.18747e-21)
(1.0865 0.0369272 -3.58775e-23)
(1.08116 0.0326211 -3.5439e-22)
(1.07608 0.0290402 -1.23497e-22)
(1.07165 0.0247986 -2.34848e-22)
(1.06867 0.0220369 -3.4299e-23)
(1.06469 0.0181904 -3.34306e-23)
(1.06319 0.0155333 -1.11018e-24)
(1.05963 0.012597 -5.80435e-23)
(1.0583 0.00960907 -1.72093e-22)
(1.05644 0.00693078 2.1896e-22)
(1.0566 0.00371197 -2.23784e-22)
(1.05503 0.00207004 -1.05483e-22)
(1.27307 -0.100526 6.75005e-21)
(1.22679 -0.0868999 4.56381e-21)
(1.19943 -0.0636298 -7.32015e-21)
(1.17309 -0.0567863 3.74159e-21)
(1.15414 -0.0443768 -3.36882e-21)
(1.13629 -0.0389363 1.18751e-23)
(1.122 -0.0327026 7.54264e-22)
(1.10998 -0.0275673 1.63538e-22)
(1.10022 -0.0248126 -7.79673e-23)
(1.09023 -0.0205433 -1.19602e-22)
(1.08433 -0.0183343 -5.59392e-24)
(1.07634 -0.0157137 -3.30613e-24)
(1.0729 -0.0131615 -4.41532e-23)
(1.0668 -0.0118213 1.46972e-25)
(1.06487 -0.00917115 -1.24399e-22)
(1.06027 -0.00857181 1.97725e-22)
(1.05856 -0.0059353 2.92155e-22)
(1.05636 -0.00518275 5.12947e-22)
(1.05574 -0.00312967 2.53384e-23)
(1.05455 -0.00238508 5.58167e-22)
(1.05355 -0.000580031 6.9761e-22)
)
;
    }
}


// ************************************************************************* //
