/*--------------------------------*- C++ -*----------------------------------*\
  =========                 |
  \\      /  F ield         | OpenFOAM: The Open Source CFD Toolbox
   \\    /   O peration     | Website:  https://openfoam.org
    \\  /    A nd           | Version:  7
     \\/     M anipulation  |
\*---------------------------------------------------------------------------*/
FoamFile
{
    version     2.0;
    format      ascii;
    class       volScalarField;
    location    "55";
    object      p;
}
// * * * * * * * * * * * * * * * * * * * * * * * * * * * * * * * * * * * * * //

dimensions      [0 2 -2 0 0 0 0];

internalField   nonuniform List<scalar> 
40000
(
-0.226304
-0.227179
-0.227837
-0.228378
-0.228865
-0.229301
-0.229693
-0.230048
-0.230376
-0.230683
-0.230974
-0.231253
-0.231522
-0.231784
-0.232037
-0.23228
-0.232513
-0.232732
-0.232934
-0.233117
-0.233278
-0.233414
-0.233523
-0.233605
-0.233659
-0.233688
-0.233695
-0.233684
-0.233657
-0.233632
-0.226417
-0.227283
-0.227936
-0.228472
-0.228955
-0.229388
-0.229776
-0.230128
-0.230453
-0.230758
-0.231046
-0.231323
-0.23159
-0.231849
-0.2321
-0.232342
-0.232573
-0.232791
-0.232992
-0.233175
-0.233335
-0.23347
-0.233579
-0.23366
-0.233715
-0.233744
-0.233753
-0.233745
-0.233721
-0.233703
-0.22663
-0.227484
-0.228126
-0.228654
-0.22913
-0.229556
-0.229938
-0.230285
-0.230605
-0.230904
-0.231188
-0.23146
-0.231723
-0.231979
-0.232226
-0.232465
-0.232693
-0.232907
-0.233106
-0.233285
-0.233441
-0.233573
-0.233679
-0.233756
-0.233807
-0.233833
-0.233839
-0.233829
-0.233801
-0.233786
-0.226944
-0.227778
-0.228406
-0.228922
-0.229388
-0.229804
-0.230178
-0.230517
-0.230829
-0.231121
-0.231398
-0.231664
-0.231921
-0.232171
-0.232413
-0.232646
-0.232869
-0.233078
-0.233271
-0.233445
-0.233596
-0.233722
-0.233821
-0.233891
-0.233934
-0.233951
-0.233949
-0.233933
-0.233894
-0.233878
-0.227354
-0.228162
-0.228773
-0.229274
-0.229726
-0.23013
-0.230493
-0.230821
-0.231124
-0.231406
-0.231674
-0.231932
-0.232181
-0.232422
-0.232657
-0.232883
-0.233098
-0.233301
-0.233487
-0.233653
-0.233796
-0.233913
-0.234002
-0.234061
-0.234091
-0.234095
-0.234081
-0.234052
-0.233996
-0.233973
-0.227855
-0.228634
-0.229222
-0.229706
-0.230141
-0.230531
-0.230879
-0.231195
-0.231485
-0.231756
-0.232013
-0.23226
-0.232498
-0.23273
-0.232955
-0.233172
-0.233378
-0.233571
-0.233748
-0.233905
-0.234037
-0.234143
-0.234218
-0.234262
-0.234276
-0.234261
-0.234228
-0.234182
-0.2341
-0.234063
-0.228444
-0.229188
-0.229751
-0.230213
-0.23063
-0.231002
-0.231334
-0.231634
-0.23191
-0.232167
-0.23241
-0.232644
-0.23287
-0.23309
-0.233303
-0.233509
-0.233704
-0.233886
-0.234051
-0.234196
-0.234315
-0.234406
-0.234465
-0.23449
-0.234482
-0.234443
-0.234385
-0.234315
-0.234199
-0.23414
-0.229113
-0.229819
-0.230354
-0.230793
-0.231187
-0.231539
-0.231852
-0.232135
-0.232393
-0.232634
-0.232862
-0.23308
-0.233292
-0.233497
-0.233697
-0.233889
-0.234071
-0.234239
-0.234391
-0.234521
-0.234625
-0.234699
-0.234738
-0.23474
-0.234705
-0.234637
-0.234547
-0.234447
-0.234288
-0.234192
-0.229858
-0.230522
-0.231025
-0.231438
-0.231809
-0.232138
-0.23243
-0.232692
-0.232931
-0.233153
-0.233363
-0.233564
-0.233758
-0.233947
-0.23413
-0.234306
-0.234473
-0.234626
-0.234762
-0.234876
-0.234962
-0.235015
-0.235031
-0.235007
-0.234941
-0.234836
-0.234707
-0.234569
-0.234358
-0.234205
-0.230672
-0.231291
-0.231761
-0.232146
-0.23249
-0.232794
-0.233063
-0.233302
-0.233519
-0.23372
-0.233908
-0.234089
-0.234263
-0.234433
-0.234598
-0.234756
-0.234904
-0.23504
-0.235158
-0.235253
-0.235319
-0.235349
-0.235339
-0.235284
-0.235182
-0.235034
-0.234858
-0.234674
-0.234403
-0.234159
-0.231547
-0.23212
-0.232554
-0.232909
-0.233225
-0.233502
-0.233745
-0.233959
-0.234151
-0.234328
-0.234493
-0.23465
-0.234802
-0.23495
-0.235093
-0.235231
-0.235359
-0.235475
-0.235572
-0.235646
-0.23569
-0.235695
-0.235657
-0.235568
-0.235425
-0.235228
-0.234994
-0.234756
-0.234422
-0.234018
-0.232478
-0.233003
-0.2334
-0.233724
-0.234009
-0.234258
-0.234472
-0.234658
-0.234823
-0.234972
-0.235111
-0.235242
-0.235369
-0.235492
-0.235611
-0.235725
-0.23583
-0.235923
-0.235998
-0.236049
-0.236068
-0.236047
-0.235977
-0.235851
-0.235663
-0.235411
-0.23511
-0.23481
-0.234425
-0.233708
-0.233458
-0.233935
-0.234294
-0.234585
-0.234838
-0.235055
-0.235239
-0.235395
-0.235529
-0.235649
-0.235757
-0.235859
-0.235957
-0.236052
-0.236144
-0.236231
-0.236311
-0.236379
-0.236429
-0.236455
-0.236447
-0.236397
-0.236294
-0.236129
-0.235893
-0.23558
-0.235202
-0.234833
-0.234429
-0.233226
-0.234481
-0.23491
-0.235231
-0.235488
-0.235708
-0.235892
-0.236042
-0.236165
-0.236266
-0.236352
-0.236427
-0.236496
-0.236561
-0.236625
-0.236686
-0.236743
-0.236794
-0.236834
-0.236857
-0.236856
-0.23682
-0.236739
-0.236601
-0.236395
-0.236108
-0.23573
-0.235271
-0.234803
-0.234228
-0.233035
-0.235542
-0.235923
-0.236207
-0.236429
-0.236614
-0.236762
-0.236877
-0.236964
-0.237028
-0.237077
-0.237116
-0.237148
-0.237177
-0.237204
-0.237231
-0.237255
-0.237274
-0.237283
-0.237276
-0.237244
-0.237178
-0.237065
-0.236892
-0.236643
-0.236304
-0.235859
-0.235315
-0.234737
-0.233977
-0.23269
-0.236637
-0.236973
-0.237218
-0.237405
-0.237553
-0.237665
-0.237741
-0.237788
-0.237813
-0.237821
-0.237819
-0.23781
-0.237798
-0.237786
-0.237773
-0.23776
-0.237743
-0.237718
-0.237677
-0.237613
-0.237515
-0.237369
-0.237159
-0.236867
-0.236475
-0.235961
-0.235326
-0.234634
-0.233698
-0.232156
-0.237762
-0.238055
-0.238263
-0.238413
-0.238524
-0.238596
-0.238632
-0.238637
-0.238617
-0.238581
-0.238533
-0.238478
-0.238421
-0.238364
-0.238308
-0.238253
-0.238196
-0.238132
-0.238055
-0.237956
-0.237823
-0.237642
-0.237394
-0.23706
-0.236615
-0.236032
-0.235303
-0.23449
-0.23338
-0.231455
-0.238917
-0.239168
-0.239339
-0.239453
-0.239525
-0.239556
-0.239547
-0.239506
-0.239439
-0.239353
-0.239255
-0.23915
-0.239042
-0.238936
-0.238832
-0.23873
-0.238628
-0.238522
-0.238405
-0.238267
-0.238096
-0.237877
-0.237591
-0.237213
-0.236716
-0.236065
-0.23524
-0.234302
-0.233024
-0.230591
-0.240099
-0.240312
-0.240448
-0.240525
-0.240556
-0.240543
-0.240487
-0.240396
-0.240277
-0.240137
-0.239984
-0.239823
-0.23966
-0.239499
-0.239341
-0.239188
-0.239036
-0.238882
-0.23872
-0.238539
-0.238328
-0.238069
-0.237741
-0.237319
-0.23677
-0.236054
-0.235134
-0.234067
-0.23264
-0.229563
-0.241311
-0.241488
-0.241589
-0.241629
-0.241618
-0.241558
-0.241453
-0.241308
-0.241132
-0.240933
-0.240719
-0.240497
-0.240273
-0.240051
-0.239834
-0.239624
-0.239417
-0.239211
-0.238998
-0.238771
-0.238514
-0.238211
-0.237839
-0.237371
-0.23677
-0.235989
-0.234976
-0.233776
-0.232235
-0.228377
-0.242556
-0.2427
-0.242767
-0.242769
-0.242714
-0.242605
-0.242445
-0.242242
-0.242005
-0.241742
-0.241462
-0.241173
-0.240882
-0.240594
-0.240312
-0.240038
-0.239771
-0.239507
-0.239239
-0.238959
-0.238653
-0.238301
-0.237882
-0.237364
-0.236707
-0.235861
-0.234759
-0.233419
-0.231816
-0.227052
-0.243839
-0.243953
-0.243985
-0.243947
-0.243847
-0.243685
-0.243467
-0.243202
-0.242898
-0.242565
-0.242214
-0.241852
-0.241488
-0.241128
-0.240775
-0.240433
-0.240099
-0.239772
-0.239444
-0.239106
-0.238745
-0.23834
-0.237868
-0.237295
-0.236579
-0.235665
-0.234475
-0.232984
-0.231384
-0.225618
-0.245166
-0.245251
-0.24525
-0.245171
-0.245021
-0.244804
-0.244524
-0.244191
-0.243816
-0.243408
-0.242979
-0.242539
-0.242096
-0.241658
-0.241229
-0.240812
-0.240406
-0.24001
-0.239617
-0.239216
-0.238794
-0.238331
-0.237799
-0.237165
-0.236384
-0.235397
-0.234119
-0.232463
-0.230927
-0.224121
-0.246547
-0.246604
-0.246568
-0.246446
-0.246245
-0.245967
-0.245621
-0.245216
-0.244763
-0.244275
-0.243763
-0.243239
-0.242712
-0.242189
-0.241678
-0.241181
-0.240699
-0.240228
-0.239764
-0.239295
-0.238807
-0.238279
-0.237682
-0.236981
-0.236126
-0.235059
-0.23369
-0.231853
-0.230426
-0.222625
-0.247991
-0.248021
-0.24795
-0.247782
-0.247525
-0.247183
-0.246765
-0.246282
-0.245747
-0.245173
-0.244572
-0.243958
-0.243341
-0.24273
-0.242131
-0.241549
-0.240985
-0.240436
-0.239895
-0.239353
-0.238793
-0.238194
-0.237525
-0.236749
-0.235812
-0.234656
-0.233192
-0.231167
-0.229853
-0.221213
-0.249512
-0.249514
-0.249404
-0.249186
-0.24887
-0.248459
-0.247965
-0.247399
-0.246776
-0.24611
-0.245415
-0.244706
-0.243994
-0.243289
-0.242598
-0.241927
-0.241275
-0.240642
-0.240021
-0.2394
-0.238764
-0.238087
-0.23734
-0.23648
-0.235453
-0.234197
-0.232629
-0.230428
-0.229171
-0.219983
-0.251124
-0.251094
-0.250942
-0.250672
-0.250291
-0.249806
-0.24923
-0.248576
-0.247859
-0.247096
-0.246302
-0.245493
-0.244681
-0.243877
-0.24309
-0.242325
-0.241583
-0.240862
-0.240155
-0.239451
-0.238731
-0.237971
-0.237136
-0.236184
-0.235058
-0.233694
-0.232002
-0.229661
-0.22831
-0.21898
-0.252842
-0.252777
-0.252579
-0.25225
-0.251799
-0.251235
-0.25057
-0.249822
-0.249006
-0.24814
-0.247242
-0.246328
-0.245412
-0.244506
-0.243619
-0.242757
-0.24192
-0.241107
-0.240311
-0.239517
-0.238708
-0.237855
-0.236925
-0.235872
-0.234638
-0.233161
-0.231326
-0.228908
-0.227148
-0.218091
-0.254682
-0.254576
-0.254326
-0.253933
-0.253406
-0.252756
-0.251998
-0.251149
-0.250228
-0.249256
-0.248249
-0.247226
-0.246202
-0.24519
-0.2442
-0.243236
-0.242301
-0.241392
-0.2405
-0.239611
-0.238704
-0.23775
-0.236713
-0.235548
-0.234199
-0.232613
-0.230648
-0.228277
-0.225711
-0.217524
-0.256663
-0.256508
-0.256199
-0.255735
-0.255125
-0.254383
-0.253524
-0.252569
-0.251539
-0.250454
-0.249334
-0.248199
-0.247064
-0.245942
-0.244845
-0.243777
-0.24274
-0.24173
-0.240737
-0.239744
-0.238728
-0.23766
-0.236502
-0.23521
-0.233734
-0.232041
-0.229991
-0.227841
-0.224555
-0.219519
-0.258802
-0.258589
-0.258213
-0.257671
-0.25697
-0.256128
-0.255163
-0.254096
-0.25295
-0.251748
-0.250511
-0.24926
-0.24801
-0.246777
-0.245569
-0.244394
-0.24325
-0.242133
-0.24103
-0.239922
-0.238785
-0.237585
-0.236285
-0.234844
-0.23322
-0.231399
-0.229273
-0.227326
-0.224213
-0.226832
-0.261117
-0.260835
-0.260383
-0.259754
-0.258955
-0.258005
-0.256926
-0.255741
-0.254475
-0.253152
-0.251794
-0.250423
-0.249056
-0.247707
-0.246387
-0.245099
-0.243842
-0.24261
-0.241386
-0.24015
-0.238873
-0.23752
-0.236053
-0.234434
-0.232627
-0.230634
-0.228391
-0.226372
-0.223501
-0.225323
-0.263627
-0.263263
-0.262724
-0.261999
-0.261093
-0.260028
-0.258828
-0.257519
-0.256127
-0.254678
-0.253196
-0.251702
-0.250214
-0.248747
-0.247309
-0.245903
-0.244527
-0.243169
-0.241811
-0.240428
-0.238989
-0.237455
-0.235789
-0.233955
-0.231924
-0.229705
-0.22726
-0.224962
-0.221977
-0.22215
-0.266348
-0.265888
-0.265252
-0.26442
-0.263398
-0.262209
-0.260882
-0.259443
-0.25792
-0.256341
-0.25473
-0.25311
-0.251498
-0.249908
-0.248348
-0.246818
-0.245311
-0.243813
-0.242304
-0.240752
-0.239122
-0.237377
-0.235476
-0.233388
-0.231088
-0.228587
-0.225863
-0.223183
-0.21991
-0.218694
-0.269297
-0.268727
-0.26798
-0.267032
-0.265884
-0.264564
-0.263101
-0.261526
-0.259867
-0.258154
-0.256411
-0.254661
-0.252921
-0.251204
-0.249514
-0.247849
-0.246198
-0.244544
-0.24286
-0.241111
-0.23926
-0.237267
-0.235094
-0.232711
-0.230102
-0.227275
-0.22422
-0.22112
-0.217506
-0.215152
-0.27249
-0.271793
-0.270924
-0.269849
-0.268565
-0.267105
-0.2655
-0.263782
-0.261982
-0.26013
-0.258251
-0.256367
-0.254494
-0.252642
-0.250813
-0.249001
-0.24719
-0.245357
-0.243471
-0.241494
-0.239386
-0.237107
-0.234623
-0.23191
-0.228957
-0.225776
-0.222362
-0.218849
-0.214889
-0.211711
-0.275943
-0.275102
-0.274096
-0.272883
-0.271454
-0.269844
-0.26809
-0.266224
-0.264278
-0.262283
-0.260263
-0.25824
-0.256228
-0.254232
-0.252252
-0.250276
-0.248283
-0.246245
-0.244126
-0.241885
-0.239481
-0.236879
-0.234049
-0.230974
-0.227652
-0.2241
-0.220322
-0.216423
-0.212143
-0.208371
-0.279667
-0.278665
-0.27751
-0.276147
-0.274563
-0.272796
-0.270885
-0.268865
-0.266768
-0.264624
-0.262459
-0.260291
-0.25813
-0.25598
-0.253832
-0.251671
-0.24947
-0.247195
-0.244806
-0.242262
-0.239525
-0.236563
-0.233354
-0.229894
-0.226188
-0.222263
-0.218129
-0.213878
-0.209312
-0.20512
-0.283676
-0.282494
-0.281176
-0.279653
-0.277904
-0.275972
-0.273898
-0.271718
-0.269464
-0.267167
-0.26485
-0.262527
-0.260207
-0.257887
-0.255552
-0.25318
-0.250738
-0.24819
-0.245492
-0.242606
-0.239496
-0.236141
-0.232529
-0.228667
-0.224572
-0.220277
-0.215804
-0.211235
-0.206418
-0.20192
-0.287979
-0.286599
-0.285106
-0.283412
-0.281489
-0.279384
-0.27714
-0.274794
-0.272378
-0.269921
-0.267444
-0.264957
-0.262463
-0.259952
-0.257404
-0.25479
-0.252072
-0.24921
-0.246161
-0.242892
-0.239375
-0.235598
-0.231564
-0.227291
-0.222808
-0.218156
-0.213362
-0.208507
-0.203466
-0.198735
-0.292584
-0.29099
-0.289307
-0.287432
-0.285327
-0.283041
-0.280621
-0.278104
-0.27552
-0.272896
-0.270249
-0.267584
-0.264896
-0.26217
-0.259379
-0.256485
-0.25345
-0.25023
-0.246789
-0.243098
-0.239141
-0.234921
-0.230453
-0.225767
-0.220904
-0.215908
-0.210814
-0.205697
-0.200454
-0.195533
-0.297498
-0.295672
-0.293788
-0.291722
-0.289427
-0.286954
-0.284352
-0.281657
-0.278898
-0.276098
-0.273267
-0.270406
-0.267502
-0.264531
-0.261459
-0.258245
-0.254847
-0.251225
-0.247348
-0.2432
-0.238778
-0.234098
-0.229191
-0.224096
-0.218863
-0.213539
-0.208164
-0.202806
-0.197376
-0.192289
-0.302724
-0.300649
-0.298552
-0.296288
-0.293795
-0.291129
-0.28834
-0.285461
-0.282518
-0.27953
-0.2765
-0.27342
-0.27027
-0.267017
-0.263622
-0.260042
-0.256234
-0.252164
-0.247814
-0.243178
-0.23827
-0.233121
-0.227774
-0.222279
-0.216689
-0.211054
-0.205414
-0.19983
-0.194225
-0.188982
-0.308262
-0.305923
-0.303603
-0.301132
-0.298436
-0.295572
-0.292589
-0.289519
-0.286383
-0.283191
-0.27994
-0.276614
-0.273183
-0.269607
-0.265843
-0.261846
-0.257579
-0.253019
-0.248159
-0.24301
-0.237603
-0.231982
-0.2262
-0.220315
-0.214383
-0.208452
-0.202561
-0.196762
-0.190991
-0.185596
-0.31411
-0.311493
-0.308939
-0.306256
-0.303351
-0.300284
-0.297102
-0.293832
-0.290489
-0.287075
-0.283578
-0.279972
-0.276219
-0.272272
-0.268087
-0.263623
-0.25885
-0.253759
-0.248359
-0.242679
-0.236764
-0.230673
-0.224466
-0.218204
-0.211944
-0.205731
-0.199601
-0.193598
-0.187665
-0.182119
-0.320261
-0.317351
-0.314558
-0.311657
-0.308539
-0.305264
-0.301876
-0.298395
-0.294829
-0.29117
-0.287396
-0.283471
-0.279348
-0.274979
-0.270319
-0.265336
-0.260012
-0.254355
-0.248391
-0.242167
-0.235744
-0.229188
-0.222567
-0.215943
-0.209368
-0.202886
-0.196527
-0.190327
-0.184238
-0.178541
-0.326702
-0.323489
-0.320449
-0.317327
-0.313993
-0.310505
-0.306903
-0.303199
-0.29939
-0.295458
-0.291369
-0.287079
-0.282534
-0.277688
-0.272499
-0.266946
-0.261031
-0.254777
-0.248232
-0.241459
-0.23453
-0.22752
-0.220498
-0.213525
-0.206651
-0.199911
-0.193333
-0.186942
-0.1807
-0.174852
-0.333417
-0.329892
-0.326601
-0.323256
-0.319703
-0.315996
-0.31217
-0.308226
-0.30415
-0.299911
-0.295465
-0.290758
-0.285737
-0.280354
-0.274582
-0.268414
-0.261871
-0.254999
-0.247862
-0.240539
-0.233113
-0.225661
-0.218253
-0.210946
-0.203784
-0.196797
-0.190008
-0.183433
-0.177042
-0.171044
-0.340383
-0.336538
-0.332994
-0.329425
-0.32565
-0.32172
-0.317658
-0.313455
-0.309082
-0.304497
-0.299644
-0.294466
-0.288907
-0.282932
-0.276525
-0.2697
-0.262501
-0.254994
-0.247261
-0.239395
-0.231482
-0.223603
-0.215824
-0.208196
-0.200759
-0.193536
-0.186543
-0.17979
-0.173256
-0.167109
-0.347572
-0.343403
-0.339604
-0.335811
-0.331813
-0.327651
-0.32334
-0.318853
-0.314149
-0.309172
-0.30386
-0.29815
-0.291995
-0.28537
-0.278281
-0.270765
-0.262888
-0.254737
-0.246411
-0.23801
-0.229625
-0.221334
-0.213199
-0.205266
-0.197565
-0.190115
-0.182927
-0.176004
-0.169331
-0.163038
-0.354947
-0.350452
-0.346401
-0.342385
-0.338161
-0.33376
-0.32918
-0.324381
-0.319306
-0.313888
-0.308057
-0.301755
-0.294944
-0.287617
-0.279805
-0.271569
-0.263
-0.254205
-0.245293
-0.236371
-0.22753
-0.218844
-0.21037
-0.202144
-0.194191
-0.186525
-0.179149
-0.172063
-0.165258
-0.158824
-0.362466
-0.357647
-0.353347
-0.34911
-0.344658
-0.340005
-0.335136
-0.329992
-0.324501
-0.318587
-0.312177
-0.305221
-0.297696
-0.289621
-0.281051
-0.272077
-0.26281
-0.253374
-0.243889
-0.234463
-0.225184
-0.216121
-0.207322
-0.198817
-0.190625
-0.182752
-0.175199
-0.167959
-0.161028
-0.15446
-0.370079
-0.364941
-0.360397
-0.355942
-0.351257
-0.346339
-0.341156
-0.33563
-0.329674
-0.323204
-0.316154
-0.308484
-0.300194
-0.29133
-0.281977
-0.272252
-0.262289
-0.252223
-0.242181
-0.232269
-0.222572
-0.213149
-0.204042
-0.195274
-0.186854
-0.178786
-0.171065
-0.16368
-0.156631
-0.149936
-0.377728
-0.372279
-0.3675
-0.362829
-0.357906
-0.352708
-0.347181
-0.34123
-0.334755
-0.327672
-0.31992
-0.311479
-0.302377
-0.292692
-0.282539
-0.27206
-0.261409
-0.25073
-0.240151
-0.229775
-0.219679
-0.209916
-0.200517
-0.191499
-0.182866
-0.174614
-0.166735
-0.159216
-0.152058
-0.145247
-0.38535
-0.379601
-0.374594
-0.369712
-0.364544
-0.359047
-0.353144
-0.346721
-0.339673
-0.331915
-0.323402
-0.314139
-0.304188
-0.293657
-0.282696
-0.27147
-0.260145
-0.248872
-0.237779
-0.226962
-0.216489
-0.206405
-0.196732
-0.18748
-0.178646
-0.170224
-0.1622
-0.154559
-0.147301
-0.140383
-0.392872
-0.386838
-0.381615
-0.376523
-0.371103
-0.365284
-0.358968
-0.352027
-0.344348
-0.335856
-0.326528
-0.316399
-0.305568
-0.294179
-0.282411
-0.270449
-0.25847
-0.246629
-0.235047
-0.223813
-0.212986
-0.202601
-0.192672
-0.183202
-0.174183
-0.165604
-0.157447
-0.149697
-0.142351
-0.135339
-0.400216
-0.393916
-0.388488
-0.383189
-0.377506
-0.371341
-0.364574
-0.357063
-0.348697
-0.339416
-0.329223
-0.318194
-0.306463
-0.294212
-0.281646
-0.268968
-0.256361
-0.243979
-0.231936
-0.220311
-0.209153
-0.198487
-0.188321
-0.17865
-0.169463
-0.160742
-0.152468
-0.144623
-0.1372
-0.130107
-0.407298
-0.400752
-0.395133
-0.389629
-0.383672
-0.377133
-0.369874
-0.361743
-0.352635
-0.342513
-0.331417
-0.31946
-0.30682
-0.293712
-0.280366
-0.266998
-0.253794
-0.240901
-0.228426
-0.216437
-0.204973
-0.194049
-0.183666
-0.173813
-0.164473
-0.155627
-0.147251
-0.139327
-0.13184
-0.124683
-0.414028
-0.407261
-0.401464
-0.395756
-0.389511
-0.38257
-0.374776
-0.365975
-0.356076
-0.34507
-0.333037
-0.320137
-0.306589
-0.29264
-0.278539
-0.264512
-0.250744
-0.237374
-0.224499
-0.212174
-0.200429
-0.18927
-0.178691
-0.168676
-0.159203
-0.150249
-0.141788
-0.133802
-0.126266
-0.119063
-0.420313
-0.41335
-0.40739
-0.401479
-0.39493
-0.387557
-0.379188
-0.369669
-0.358933
-0.347006
-0.334016
-0.320169
-0.305723
-0.290956
-0.276134
-0.261485
-0.24719
-0.233379
-0.220135
-0.207504
-0.195505
-0.184136
-0.173383
-0.163226
-0.15364
-0.144598
-0.13607
-0.128039
-0.120469
-0.11324
-0.426053
-0.418925
-0.412817
-0.406701
-0.399833
-0.391997
-0.383012
-0.372733
-0.361121
-0.348248
-0.33429
-0.319501
-0.304179
-0.288627
-0.273121
-0.257891
-0.243109
-0.228894
-0.215316
-0.202411
-0.190186
-0.178632
-0.167729
-0.157453
-0.147774
-0.138663
-0.130088
-0.122031
-0.114445
-0.107211
-0.43115
-0.423887
-0.417645
-0.411324
-0.40412
-0.395792
-0.386153
-0.375076
-0.362559
-0.348723
-0.333798
-0.318085
-0.301917
-0.285619
-0.269474
-0.253707
-0.238481
-0.223902
-0.210026
-0.196878
-0.184456
-0.172744
-0.161717
-0.151344
-0.141595
-0.132436
-0.123835
-0.115772
-0.108187
-0.100971
-0.435502
-0.428136
-0.421777
-0.415249
-0.407692
-0.398843
-0.388516
-0.376611
-0.363169
-0.348365
-0.332484
-0.315875
-0.298901
-0.281904
-0.265168
-0.248912
-0.233287
-0.218384
-0.204248
-0.190891
-0.178303
-0.166461
-0.155334
-0.14489
-0.135094
-0.125909
-0.117303
-0.109253
-0.101689
-0.0945128
-0.439009
-0.431573
-0.425112
-0.418374
-0.410448
-0.401053
-0.390011
-0.377255
-0.362877
-0.347111
-0.330299
-0.31283
-0.295098
-0.277453
-0.26018
-0.243486
-0.227509
-0.212325
-0.197967
-0.184436
-0.171713
-0.15977
-0.148572
-0.138082
-0.128262
-0.119075
-0.110485
-0.102471
-0.0949472
-0.0878355
-0.44157
-0.434099
-0.42755
-0.420601
-0.412292
-0.402327
-0.390548
-0.376928
-0.361615
-0.344906
-0.327196
-0.308915
-0.290479
-0.272244
-0.25449
-0.237412
-0.221131
-0.205711
-0.19117
-0.1775
-0.164676
-0.152663
-0.141422
-0.130913
-0.121094
-0.111927
-0.103377
-0.0954191
-0.0879594
-0.0809396
-0.443089
-0.435617
-0.428996
-0.421834
-0.413128
-0.402578
-0.390047
-0.375559
-0.359323
-0.3417
-0.323136
-0.304098
-0.285019
-0.266256
-0.24808
-0.230673
-0.214139
-0.198527
-0.183845
-0.170075
-0.157184
-0.145132
-0.133877
-0.123375
-0.113583
-0.10446
-0.0959696
-0.0880885
-0.0807194
-0.0738219
-0.443474
-0.436034
-0.429356
-0.42198
-0.412868
-0.401719
-0.388431
-0.373081
-0.355946
-0.337449
-0.318085
-0.298353
-0.278696
-0.259471
-0.240936
-0.223256
-0.20652
-0.190764
-0.175983
-0.16215
-0.149228
-0.13717
-0.125931
-0.115465
-0.105725
-0.096668
-0.0882558
-0.080467
-0.0732092
-0.0664507
-0.442636
-0.435264
-0.428543
-0.420953
-0.411429
-0.399676
-0.385632
-0.369438
-0.351438
-0.332116
-0.312015
-0.291657
-0.271494
-0.251876
-0.233045
-0.215151
-0.198267
-0.182413
-0.167576
-0.153721
-0.140803
-0.128774
-0.117583
-0.10718
-0.0975194
-0.0885513
-0.0802352
-0.0725515
-0.0654056
-0.0587396
-0.440495
-0.433223
-0.426475
-0.418673
-0.408733
-0.396377
-0.38159
-0.364579
-0.345758
-0.325672
-0.304903
-0.283995
-0.2634
-0.243458
-0.224398
-0.206349
-0.18937
-0.173468
-0.158619
-0.144782
-0.131907
-0.119941
-0.108829
-0.0985216
-0.0889669
-0.080113
-0.0719181
-0.0643675
-0.0573317
-0.0505936
-0.436976
-0.429838
-0.423076
-0.415067
-0.404714
-0.391763
-0.376253
-0.358462
-0.338876
-0.318093
-0.296733
-0.275353
-0.254404
-0.234213
-0.214989
-0.196846
-0.179827
-0.163926
-0.149111
-0.135334
-0.122539
-0.110671
-0.0996722
-0.0894897
-0.0800695
-0.0713568
-0.0633149
-0.05594
-0.0490627
-0.0421398
-0.432016
-0.425042
-0.418282
-0.41007
-0.399311
-0.385781
-0.369579
-0.351057
-0.330767
-0.309364
-0.287494
-0.265725
-0.244502
-0.224135
-0.204816
-0.18664
-0.169635
-0.153786
-0.13905
-0.125375
-0.1127
-0.100966
-0.090114
-0.0800879
-0.0708312
-0.0622876
-0.0544289
-0.047232
-0.0404107
-0.0338252
-0.425557
-0.418777
-0.412035
-0.403629
-0.392477
-0.37839
-0.361535
-0.342337
-0.321417
-0.299475
-0.277182
-0.25511
-0.233693
-0.213225
-0.193879
-0.175731
-0.158797
-0.14305
-0.12844
-0.114909
-0.102393
-0.0908303
-0.0801592
-0.0703216
-0.0612588
-0.0529145
-0.0452617
-0.0382537
-0.0315702
-0.0253446
-0.417553
-0.410997
-0.404287
-0.3957
-0.384171
-0.369559
-0.352099
-0.33229
-0.310818
-0.288423
-0.265797
-0.24351
-0.221982
-0.201489
-0.182183
-0.164125
-0.147317
-0.131722
-0.117285
-0.103941
-0.0916246
-0.0802709
-0.0698151
-0.0601976
-0.0513584
-0.0432416
-0.0358194
-0.0290279
-0.0225377
-0.0166432
-0.407969
-0.401663
-0.395001
-0.386247
-0.374366
-0.359266
-0.341256
-0.320909
-0.298969
-0.276214
-0.253347
-0.230933
-0.209376
-0.188933
-0.169735
-0.151829
-0.135203
-0.119811
-0.105593
-0.0924811
-0.080404
-0.0692952
-0.0590893
-0.0497244
-0.0411388
-0.0332769
-0.0261112
-0.0195656
-0.0132986
-0.00772042
-0.396779
-0.390748
-0.384153
-0.375249
-0.363044
-0.347501
-0.329003
-0.308197
-0.285879
-0.262858
-0.239843
-0.217392
-0.195889
-0.17557
-0.156548
-0.138854
-0.122465
-0.107328
-0.0933761
-0.0805378
-0.0687402
-0.057914
-0.0479924
-0.038912
-0.0306098
-0.0230303
-0.0161473
-0.00987339
-0.00384895
0.00140958
-0.38397
-0.378239
-0.371726
-0.362693
-0.350197
-0.334263
-0.315347
-0.294165
-0.271562
-0.248372
-0.225305
-0.202904
-0.181537
-0.161416
-0.142637
-0.125215
-0.109118
-0.0942856
-0.0806463
-0.0681248
-0.0566465
-0.0461398
-0.0365368
-0.0277726
-0.0197831
-0.0125131
-0.00593829
4.10561e-05
0.00580588
0.0107335
-0.369539
-0.364129
-0.357717
-0.34858
-0.335831
-0.319562
-0.300302
-0.278833
-0.256042
-0.232779
-0.209754
-0.187493
-0.166342
-0.146491
-0.12802
-0.11093
-0.0951789
-0.0807008
-0.0674197
-0.0552576
-0.0441379
-0.0339873
-0.0247367
-0.0163201
-0.00867223
-0.00173853
0.00450346
0.0101671
0.0156554
0.020238
-0.353495
-0.348427
-0.342134
-0.332918
-0.319961
-0.303418
-0.283894
-0.262228
-0.239347
-0.216111
-0.193221
-0.171186
-0.150329
-0.13082
-0.11272
-0.0960197
-0.0806678
-0.0665927
-0.0537149
-0.041954
-0.0312316
-0.0214732
-0.0126085
-0.00457035
0.00270748
0.00927858
0.0151638
0.0204913
0.0256859
0.0299086
-0.335857
-0.331149
-0.324994
-0.315729
-0.30261
-0.285861
-0.266153
-0.244386
-0.221514
-0.198402
-0.175739
-0.154014
-0.133527
-0.114429
-0.096763
-0.080509
-0.0656079
-0.0519834
-0.039553
-0.0282342
-0.0179471
-0.00861611
-0.000170018
0.00745928
0.014339
0.0205216
0.0260266
0.0309979
0.0358811
0.0397295
-0.316656
-0.312324
-0.306328
-0.297046
-0.283815
-0.266927
-0.247122
-0.225349
-0.202587
-0.179693
-0.157345
-0.136013
-0.115971
-0.0973496
-0.0801784
-0.0644255
-0.0500254
-0.0368979
-0.0249576
-0.0141206
-0.00430573
0.00456342
0.0125589
0.0197496
0.0262036
0.0319721
0.0370737
0.0416686
0.0462221
0.0496826
-0.295933
-0.291993
-0.286176
-0.27691
-0.26362
-0.246667
-0.226853
-0.205175
-0.182608
-0.160024
-0.138083
-0.117223
-0.0976979
-0.0796179
-0.062999
-0.0477999
-0.0339493
-0.0213633
-0.00995456
0.00036234
0.00966917
0.0180432
0.0255569
0.03228
0.0382811
0.04361
0.0482852
0.0524833
0.0566873
0.0597458
-0.27374
-0.270204
-0.264586
-0.255374
-0.24208
-0.225138
-0.205412
-0.183934
-0.161601
-0.139448
-0.118001
-0.0976898
-0.0787492
-0.061272
-0.0452609
-0.0306662
-0.0174114
-0.00540957
0.00542807
0.015188
0.0239526
0.0317994
0.0388013
0.0450286
0.0505501
0.0554142
0.0596397
0.0634195
0.0672511
0.0698893
-0.250137
-0.247016
-0.24162
-0.232497
-0.219259
-0.202407
-0.182848
-0.161595
-0.139711
-0.118032
-0.0971518
-0.0774614
-0.0591702
-0.042354
-0.0270033
-0.0130608
-0.000445811
0.0109311
0.02116
0.030328
0.0385178
0.0458069
0.0522684
0.0579727
0.0629885
0.0673626
0.0711148
0.074453
0.0778833
0.080077
-0.225198
-0.222497
-0.217344
-0.208351
-0.195231
-0.178538
-0.159199
-0.138336
-0.116937
-0.0958279
-0.0755913
-0.0565899
-0.0390093
-0.0229087
-0.00826802
0.00497689
0.0169105
0.0276242
0.037209
0.0457522
0.0533365
0.0600393
0.0659333
0.0710888
0.0755739
0.079433
0.0826877
0.0855583
0.0885521
0.0902784
-0.198999
-0.196722
-0.191835
-0.183015
-0.170063
-0.153583
-0.134599
-0.11419
-0.0933565
-0.0729004
-0.0533797
-0.0351309
-0.0183179
-0.00298437
0.0109
0.023405
0.0346185
0.0446333
0.0535409
0.0614288
0.0683792
0.0744691
0.0797706
0.0843534
0.0882838
0.0916036
0.0943367
0.0967135
0.0992334
0.10047
-0.171614
-0.169782
-0.165179
-0.156565
-0.14383
-0.127671
-0.109105
-0.0892324
-0.0690447
-0.049317
-0.0305794
-0.0131429
0.0028494
0.0173684
0.0304534
0.0421794
0.0526369
0.0619198
0.0701199
0.0773244
0.083615
0.0890678
0.0937542
0.0977425
0.101096
0.103853
0.106042
0.107905
0.109909
0.110589
-0.143115
-0.141778
-0.137468
-0.129089
-0.11665
-0.100871
-0.0828012
-0.0635454
-0.0440788
-0.025149
-0.00725673
0.00931256
0.0244355
0.0380963
0.0503424
0.0612536
0.0709223
0.0794432
0.0869081
0.0934039
0.0990115
0.103806
0.107857
0.111232
0.113988
0.11616
0.117791
0.119122
0.120532
0.120475
-0.113581
-0.112846
-0.108795
-0.100697
-0.0886073
-0.073277
-0.055778
-0.037214
-0.0185388
-0.000470671
0.0165195
0.0321714
0.0463806
0.0591435
0.0705152
0.080579
0.0894293
0.0971612
0.103866
0.109631
0.114535
0.118653
0.122053
0.124799
0.126942
0.128514
0.129578
0.130347
0.130986
0.129958
-0.0832576
-0.082986
-0.0792683
-0.0714924
-0.0598027
-0.0449864
-0.0281291
-0.0103262
0.00749274
0.0246409
0.0406776
0.0553672
0.0686228
0.0804525
0.0909178
0.100105
0.108111
0.11503
0.120954
0.125968
0.130151
0.133577
0.136314
0.13842
0.13994
0.140914
0.141426
0.14159
0.141215
0.139084
-0.0521873
-0.0523478
-0.0489981
-0.0415811
-0.0303415
-0.0161009
4.90725e-05
0.0170268
0.0339307
0.0501066
0.0651439
0.0788312
0.0910982
0.101963
0.111494
0.119781
0.126919
0.133004
0.138128
0.142375
0.145823
0.148545
0.150608
0.152068
0.152967
0.153362
0.153359
0.152906
0.151442
0.148407
-0.0204564
-0.0210666
-0.0180977
-0.0110733
-0.000332463
0.0132749
0.0286573
0.0447519
0.0606879
0.0758451
0.089843
0.102493
0.113741
0.123615
0.132188
0.139551
0.145803
0.151037
0.155345
0.158811
0.161512
0.16352
0.164902
0.16571
0.165993
0.165829
0.165329
0.164239
0.161756
0.160004
0.0118106
0.0107411
0.0133168
0.0199168
0.0301131
0.0430341
0.0575942
0.0727537
0.0876754
0.101774
0.114698
0.126281
0.136485
0.145345
0.15294
0.159363
0.164711
0.16908
0.17256
0.175233
0.177178
0.178464
0.179158
0.179312
0.178978
0.178249
0.177203
0.175517
0.172703
0.171634
0.0444871
0.0429557
0.0451257
0.0512717
0.0608815
0.073068
0.0867569
0.100936
0.114803
0.127808
0.13963
0.150122
0.159261
0.16709
0.173691
0.179159
0.183593
0.187086
0.189727
0.1916
0.192781
0.19334
0.19334
0.192837
0.191887
0.19058
0.188967
0.186731
0.183642
0.182523
0.077447
0.0754539
0.077207
0.0828719
0.0918573
0.103266
0.116041
0.129201
0.14198
0.153864
0.16456
0.173943
0.182001
0.188786
0.194381
0.198885
0.202394
0.205003
0.206801
0.207867
0.208279
0.208107
0.207412
0.206249
0.204679
0.202787
0.200608
0.197864
0.19447
0.193022
0.110563
0.108111
0.109437
0.114596
0.122924
0.133518
0.145343
0.15745
0.169114
0.179855
0.189409
0.197669
0.204635
0.210366
0.21495
0.218483
0.221063
0.222784
0.223733
0.223991
0.223633
0.222726
0.221335
0.219512
0.217319
0.214837
0.212092
0.208841
0.205078
0.203199
0.143707
0.1408
0.141691
0.146324
0.153964
0.163712
0.174556
0.185585
0.196114
0.205697
0.214096
0.221225
0.227094
0.231768
0.235335
0.237895
0.239545
0.240377
0.240478
0.239928
0.238799
0.23716
0.235073
0.232591
0.229774
0.226701
0.223391
0.219627
0.215454
0.213098
0.17675
0.173394
0.173844
0.177933
0.184862
0.193737
0.203577
0.213509
0.222888
0.231303
0.238543
0.244538
0.249309
0.252925
0.255478
0.257067
0.257788
0.257734
0.25699
0.255633
0.253738
0.25137
0.248589
0.24545
0.242012
0.238348
0.234474
0.230192
0.225588
0.222729
0.209565
0.205767
0.205771
0.209301
0.2155
0.223483
0.232301
0.241124
0.249345
0.25659
0.262671
0.267534
0.27121
0.273773
0.275316
0.27594
0.275739
0.274804
0.273221
0.271065
0.268408
0.265317
0.261849
0.258058
0.254001
0.24975
0.245315
0.240515
0.235469
0.232094
0.242024
0.237792
0.237349
0.240309
0.245763
0.252839
0.260626
0.268333
0.275396
0.281473
0.2864
0.290139
0.292728
0.294248
0.294791
0.294459
0.293345
0.29154
0.289126
0.286179
0.282771
0.278964
0.274817
0.270381
0.265713
0.26088
0.255888
0.250575
0.245084
0.241186
0.274001
0.269345
0.268454