/*--------------------------------*- C++ -*----------------------------------*\
  =========                 |
  \\      /  F ield         | OpenFOAM: The Open Source CFD Toolbox
   \\    /   O peration     | Website:  https://openfoam.org
    \\  /    A nd           | Version:  7
     \\/     M anipulation  |
\*---------------------------------------------------------------------------*/
FoamFile
{
    version     2.0;
    format      ascii;
    class       volScalarField;
    location    "45";
    object      p;
}
// * * * * * * * * * * * * * * * * * * * * * * * * * * * * * * * * * * * * * //

dimensions      [0 2 -2 0 0 0 0];

internalField   nonuniform List<scalar> 
183
(
0.0447643
0.0475474
0.0565286
0.0611232
0.0698178
0.0737524
0.0844025
0.087927
0.100096
0.103418
0.117091
0.120148
0.135551
0.138304
0.155559
0.157994
0.177161
0.179274
0.20037
0.20217
0.202645
0.226671
0.226707
0.252716
0.252348
0.280185
0.279479
0.277256
0.307949
0.305281
0.337519
0.33453
0.329969
0.364727
0.359766
0.390328
0.383502
0.421229
0.414163
0.40559
0.444902
0.43608
0.46636
0.45594
0.485464
0.473617
0.513747
0.50209
0.488998
0.52893
0.516131
0.54122
0.527495
0.550536
0.53611
0.556817
0.541919
0.560022
0.544886
0.56013
0.544991
0.557142
0.542236
0.551079
0.536638
0.541981
0.528235
0.52991
0.517084
0.514948
0.503257
0.490133
0.486846
0.474962
0.467959
0.457495
0.446719
0.437847
0.423267
0.416144
0.407516
0.392524
0.385637
0.36714
0.362111
0.340153
0.337087
0.332453
0.310719
0.307971
0.28317
0.282376
0.280067
0.255821
0.255358
0.22988
0.229816
0.20378
0.205469
0.205836
0.180651
0.182644
0.159108
0.161414
0.139136
0.141748
0.120685
0.123587
0.103671
0.10682
0.0879262
0.0912592
0.0732588
0.0769708
0.0598478
0.0641849
0.0658954
0.0504743
0.0255646
0.0389629
0.0115286
0.00598177
-0.00151595
-0.00314508
-0.00708238
-0.0108242
-0.00905596
-0.00668418
-0.0101608
-0.0138387
-0.0121607
-0.00830354
-0.0050528
-0.00628228
-0.00907762
-0.00689136
-0.00239089
-0.00339773
-0.00688208
-0.00216297
-0.00677444
-0.00263729
-0.00425943
-0.00845413
-0.0057754
-0.000276936
-0.00155687
-0.00624159
-0.000191838
-0.00562707
-0.00374991
-0.00274589
-0.000844309
2.54779e-05
-0.00526755
-0.0094643
-0.00805509
-0.00280017
-0.00376572
-0.0101066
-0.00968759
-0.00330925
0.0416119
0.0127167
0.00709935
-0.000523338
-0.00524036
-0.00981062
-0.00785419
-0.00684139
-0.00783985
-0.00599123
-0.00502255
-0.0035125
-0.00289663
-0.00705671
-0.010016
-0.00882338
-0.00487499
-0.00577397
-0.0105151
-0.0100766
-0.00533614
)
;

boundaryField
{
    inlet
    {
        type            zeroGradient;
    }
    outlet
    {
        type            fixedValue;
        value           nonuniform 0();
    }
    cylinder
    {
        type            zeroGradient;
    }
    top
    {
        type            symmetryPlane;
    }
    bottom
    {
        type            symmetryPlane;
    }
    defaultFaces
    {
        type            empty;
    }
    procBoundary7to6
    {
        type            processor;
        value           nonuniform List<scalar> 
124
(
0.0630514
0.0630514
0.0775814
0.0775814
0.0910632
0.0910632
0.106002
0.106002
0.122343
0.122343
0.140091
0.140091
0.159355
0.159355
0.180196
0.180196
0.202049
0.225552
0.225552
0.250641
0.250641
0.273838
0.301252
0.301252
0.324197
0.353393
0.353393
0.375415
0.395899
0.425893
0.425893
0.444285
0.460652
0.47489
0.501985
0.501985
0.512496
0.520464
0.525839
0.528586
0.528689
0.526147
0.520979
0.513217
0.502913
0.502913
0.475996
0.461961
0.445799
0.427613
0.427613
0.397774
0.377492
0.355673
0.355673
0.326612
0.303864
0.303864
0.276567
0.253559
0.253559
0.228563
0.228563
0.205134
0.183448
0.183448
0.162647
0.162647
0.143395
0.143395
0.125628
0.125628
0.109231
0.109231
0.0941883
0.0941883
0.0805535
0.0805535
0.0811958
0.054118
0.0515055
0.0196627
0.0111057
0.00257526
0.000748007
-0.00366135
-0.00878903
-0.00711902
-0.00351124
-0.00766913
-0.012976
-0.0117312
-0.0117312
-0.00522777
-0.000185888
-0.00232597
-0.00788133
-0.00478562
0.00183727
0.000187938
-0.00559587
0.00173327
-0.00347173
-0.00145633
-0.000499361
0.00189534
0.00296273
-0.0034851
-0.00896627
-0.00726858
-0.000657109
-0.0017724
-0.00974978
-0.00930983
-0.00126133
0.054118
0.0207175
0.0120823
0.00388358
-0.00177979
-0.0075464
-0.00577354
-0.00400482
-0.00400482
)
;
    }
    procBoundary7to8
    {
        type            processor;
        value           nonuniform List<scalar> 
130
(
0.0285844
0.0320712
0.0320712
0.0394959
0.0394959
0.0518268
0.0518268
0.065402
0.065402
0.0800117
0.0800117
0.0958061
0.0958061
0.112971
0.112971
0.131619
0.131619
0.151815
0.151815
0.173592
0.173592
0.196938
0.225149
0.225149
0.251407
0.251407
0.278983
0.308878
0.308878
0.338518
0.367865
0.395495
0.395495
0.426366
0.451936
0.475122
0.495772
0.495772
0.523565
0.539964
0.553241
0.563306
0.570091
0.57355
0.573662
0.570426
0.563865
0.554025
0.540974
0.524802
0.497194
0.497194
0.476769
0.453808
0.428465
0.397755
0.397755
0.370351
0.341233
0.311734
0.311734
0.282063
0.25461
0.25461
0.228463
0.228463
0.200464
0.177205
0.177205
0.155496
0.155496
0.135346
0.135346
0.116722
0.116722
0.0995525
0.0995525
0.0837243
0.0837243
0.0690513
0.0690513
0.0553833
0.0553833
0.0429242
0.0479234
0.0479234
0.0350904
0.0122483
0.001911
0.001911
-0.000631269
-0.00681049
-0.00756142
-0.0108898
-0.0135505
-0.0114053
-0.00955085
-0.0126265
-0.0152052
-0.0131155
-0.00980013
-0.00711571
-0.00809772
-0.00999506
-0.00801829
-0.00422406
-0.0050249
-0.007752
-0.00386724
0.0282547
0.00317121
0.000546359
-0.00598734
-0.0095022
-0.012962
-0.0105123
-0.00962612
-0.0102085
-0.00817517
-0.00719967
-0.00583905
-0.00539928
-0.00884323
-0.0109432
-0.00981027
-0.00666297
-0.00753246
-0.0112452
-0.0107635
-0.00706945
)
;
    }
}


// ************************************************************************* //
