/*--------------------------------*- C++ -*----------------------------------*\
  =========                 |
  \\      /  F ield         | OpenFOAM: The Open Source CFD Toolbox
   \\    /   O peration     | Website:  https://openfoam.org
    \\  /    A nd           | Version:  7
     \\/     M anipulation  |
\*---------------------------------------------------------------------------*/
FoamFile
{
    version     2.0;
    format      ascii;
    class       volScalarField;
    location    "70";
    object      p;
}
// * * * * * * * * * * * * * * * * * * * * * * * * * * * * * * * * * * * * * //

dimensions      [0 2 -2 0 0 0 0];

internalField   nonuniform List<scalar> 
928
(
-0.0092352
-0.00901877
-0.00880514
-0.00859427
-0.00838608
-0.00923784
-0.00902135
-0.00880768
-0.00859675
-0.00838852
-0.00818293
-0.00924311
-0.00902653
-0.00881275
-0.00860172
-0.00839339
-0.0081877
-0.00925102
-0.00903428
-0.00882035
-0.00860917
-0.00840069
-0.00819486
-0.00926156
-0.00904461
-0.00883047
-0.00861909
-0.00841042
-0.00820439
-0.00927472
-0.00905751
-0.00884312
-0.00863149
-0.00842257
-0.0082163
-0.0092905
-0.00907298
-0.00885828
-0.00864635
-0.00843713
-0.00823058
-0.00930888
-0.009091
-0.00887594
-0.00866366
-0.00845411
-0.00824721
-0.00932986
-0.00911156
-0.0088961
-0.00868342
-0.00847347
-0.00826619
-0.00913465
-0.00891874
-0.00870561
-0.00849522
-0.00828751
-0.00916027
-0.00894385
-0.00873022
-0.00851934
-0.00831115
-0.00918838
-0.00897141
-0.00875724
-0.00854582
-0.00833711
-0.00921898
-0.0090014
-0.00878664
-0.00857464
-0.00836535
-0.00925205
-0.00903381
-0.00881841
-0.00860578
-0.00839588
-0.00928756
-0.00906862
-0.00885253
-0.00863923
-0.00842866
-0.00932549
-0.00910581
-0.00888898
-0.00867496
-0.00846368
-0.00936582
-0.00914534
-0.00892774
-0.00871294
-0.00850091
-0.00940852
-0.0091872
-0.00896877
-0.00875317
-0.00854034
-0.00945356
-0.00923136
-0.00901205
-0.0087956
-0.00858193
-0.00950092
-0.00927778
-0.00905757
-0.00884021
-0.00862566
-0.00955056
-0.00932645
-0.00910527
-0.00888697
-0.0086715
-0.00960244
-0.00937731
-0.00915514
-0.00893586
-0.00871942
-0.00850576
-0.00943035
-0.00920713
-0.00898683
-0.00876938
-0.00855474
-0.00948553
-0.00926123
-0.00903986
-0.00882137
-0.00860571
-0.00954283
-0.0093174
-0.00909494
-0.00887537
-0.00865864
-0.00960204
-0.00937546
-0.00915185
-0.00893117
-0.00871334
-0.00966286
-0.0094351
-0.00921033
-0.00898851
-0.00876956
-0.00972675
-0.00949774
-0.00927176
-0.00904874
-0.00882862
-0.00979818
-0.00956772
-0.00934031
-0.00911589
-0.00889441
-0.00986577
-0.00963387
-0.00940505
-0.00917925
-0.00895641
-0.00989866
-0.00966671
-0.00943784
-0.00921198
-0.00898908
-0.00876908
-0.0100336
-0.00979953
-0.00956855
-0.00934061
-0.00911565
-0.00889362
-0.0101613
-0.0099254
-0.00969257
-0.00946281
-0.00923605
-0.00901224
-0.0102941
-0.0100562
-0.00982149
-0.00958986
-0.00936126
-0.00913562
-0.0104353
-0.0101954
-0.00995869
-0.00972507
-0.00949449
-0.0092669
-0.0105838
-0.0103418
-0.010103
-0.00986724
-0.00963458
-0.00940494
-0.0107392
-0.010495
-0.0102539
-0.010016
-0.00978121
-0.00954943
-0.0109013
-0.0106547
-0.0104114
-0.0101712
-0.00993415
-0.00970013
-0.0110697
-0.0108207
-0.010575
-0.0103324
-0.010093
-0.00985669
-0.0112439
-0.0109924
-0.0107442
-0.0104993
-0.0102575
-0.0100187
-0.0111694
-0.0109188
-0.0106713
-0.010427
-0.0101858
-0.0113513
-0.011098
-0.010848
-0.0106011
-0.0103574
-0.0115373
-0.0112814
-0.0110288
-0.0107794
-0.0105331
-0.0117271
-0.0114685
-0.0112132
-0.0109612
-0.0107123
-0.0119199
-0.0116586
-0.0114007
-0.011146
-0.0108944
-0.0121152
-0.0118512
-0.0115906
-0.0113332
-0.011079
-0.0123123
-0.0120457
-0.0117823
-0.0115222
-0.0112653
-0.0125107
-0.0122413
-0.0119753
-0.0117125
-0.0114529
-0.0127098
-0.0124377
-0.0121689
-0.0119034
-0.0116412
-0.0129089
-0.0126341
-0.0123626
-0.0120945
-0.0118296
-0.0131074
-0.01283
-0.0125559
-0.0122851
-0.0120175
-0.0133049
-0.0130249
-0.0127482
-0.0124748
-0.0122046
-0.0135008
-0.0132182
-0.0129389
-0.0126629
-0.0123902
-0.0136947
-0.0134095
-0.0131277
-0.0128492
-0.0125739
-0.0138859
-0.0135983
-0.013314
-0.013033
-0.0127553
-0.0140743
-0.0137842
-0.0134975
-0.0132141
-0.0129339
-0.0142592
-0.0139669
-0.0136778
-0.013392
-0.0131095
-0.0144405
-0.0141458
-0.0138545
-0.0135664
-0.0132816
-0.0146177
-0.0143208
-0.0140273
-0.013737
-0.0134499
-0.0147906
-0.0144916
-0.0141959
-0.0139034
-0.0136142
-0.0149589
-0.0146578
-0.0143601
-0.0140655
-0.0137742
-0.0151224
-0.0148193
-0.0145196
-0.0142231
-0.0139297
-0.0152809
-0.0149759
-0.0146743
-0.0143758
-0.0140805
-0.0154342
-0.0151274
-0.0148239
-0.0145236
-0.0142265
-0.0155822
-0.0152737
-0.0149684
-0.0146663
-0.0143674
-0.0157247
-0.0154146
-0.0151077
-0.0148039
-0.0145032
-0.0158618
-0.01555
-0.0152415
-0.0149361
-0.0146338
-0.0159932
-0.0156799
-0.0153699
-0.0150629
-0.014759
-0.0161189
-0.0158042
-0.0154927
-0.0151843
-0.0148789
-0.0162389
-0.0159229
-0.01561
-0.0153001
-0.0149934
-0.0163531
-0.0160358
-0.0157216
-0.0154105
-0.0151024
-0.0164615
-0.016143
-0.0158276
-0.0155152
-0.0152059
-0.0165642
-0.0162445
-0.0159279
-0.0156144
-0.0153038
-0.016661
-0.0163403
-0.0160226
-0.015708
-0.0153963
-0.016752
-0.0164303
-0.0161116
-0.0157959
-0.0154832
-0.0168372
-0.0165145
-0.0161949
-0.0158783
-0.0155646
-0.0169166
-0.0165931
-0.0162726
-0.0159551
-0.0156405
-0.0169902
-0.0166659
-0.0163446
-0.0160263
-0.0157109
-0.0170581
-0.0167331
-0.016411
-0.0160919
-0.0157758
-0.0171202
-0.0167945
-0.0164718
-0.016152
-0.0158351
-0.0171766
-0.0168503
-0.016527
-0.0162066
-0.0158891
-0.0172273
-0.0169005
-0.0165766
-0.0162556
-0.0159376
-0.0172723
-0.016945
-0.0166206
-0.0162992
-0.0159806
-0.0173116
-0.0169839
-0.0166591
-0.0163373
-0.0160182
-0.0173453
-0.0170172
-0.0166921
-0.0163699
-0.0160504
-0.0173733
-0.017045
-0.0167196
-0.016397
-0.0160773
-0.0173957
-0.0170672
-0.0167415
-0.0164187
-0.0160987
-0.0174125
-0.0170838
-0.0167579
-0.016435
-0.0161148
-0.0174238
-0.0170949
-0.0167689
-0.0164458
-0.0161255
-0.0174293
-0.0171004
-0.0167744
-0.0164512
-0.0161309
-0.00989866
-0.0100336
-0.0101613
-0.0102941
-0.0104353
-0.0105838
-0.0107392
-0.0109013
-0.0110697
-0.0112439
-0.0114234
-0.0116078
-0.0117966
-0.011989
-0.0121845
-0.0123825
-0.0125824
-0.0127835
-0.0129853
-0.013187
-0.0133883
-0.0135884
-0.0137869
-0.0139832
-0.014177
-0.0143677
-0.014555
-0.0147385
-0.0149179
-0.0150929
-0.0152632
-0.0154287
-0.0155891
-0.0157442
-0.0158939
-0.0160381
-0.0161767
-0.0163096
-0.0164368
-0.0165581
-0.0166736
-0.0167832
-0.0168869
-0.0169848
-0.0170768
-0.0171629
-0.0172431
-0.0173175
-0.0173861
-0.0174489
-0.0175058
-0.017557
-0.0176025
-0.0176422
-0.0176763
-0.0177046
-0.0177272
-0.0177442
-0.0177555
-0.0177612
-0.00966671
-0.00979953
-0.0099254
-0.0100562
-0.0101954
-0.0103418
-0.010495
-0.0106547
-0.0108207
-0.0109924
-0.0111694
-0.0113513
-0.0115373
-0.0117271
-0.0119199
-0.0121152
-0.0123123
-0.0125107
-0.0127098
-0.0129089
-0.0131074
-0.0133049
-0.0135008
-0.0136947
-0.013886
-0.0140743
-0.0142592
-0.0144405
-0.0146177
-0.0147906
-0.0149589
-0.0151224
-0.0152809
-0.0154342
-0.0155822
-0.0157247
-0.0158618
-0.0159932
-0.0161189
-0.0162389
-0.0163531
-0.0164615
-0.0165642
-0.016661
-0.016752
-0.0168372
-0.0169166
-0.0169902
-0.0170581
-0.0171202
-0.0171766
-0.0172273
-0.0172723
-0.0173116
-0.0173453
-0.0173733
-0.0173957
-0.0174125
-0.0174238
-0.0174293
-0.00943784
-0.00956855
-0.00969257
-0.00982149
-0.00995869
-0.010103
-0.0102539
-0.0104114
-0.010575
-0.0107442
-0.0109188
-0.011098
-0.0112814
-0.0114685
-0.0116586
-0.0118512
-0.0120457
-0.0122413
-0.0124377
-0.0126341
-0.01283
-0.0130249
-0.0132182
-0.0134095
-0.0135983
-0.0137842
-0.0139669
-0.0141458
-0.0143208
-0.0144916
-0.0146578
-0.0148194
-0.0149759
-0.0151274
-0.0152737
-0.0154146
-0.01555
-0.0156799
-0.0158042
-0.0159229
-0.0160358
-0.016143
-0.0162445
-0.0163403
-0.0164303
-0.0165145
-0.0165931
-0.0166659
-0.0167331
-0.0167945
-0.0168503
-0.0169005
-0.016945
-0.0169839
-0.0170172
-0.017045
-0.0170672
-0.0170838
-0.0170949
-0.0171004
-0.00921198
-0.00934061
-0.00946281
-0.00958986
-0.00972507
-0.00986724
-0.010016
-0.0101712
-0.0103324
-0.0104993
-0.0106713
-0.010848
-0.0110288
-0.0112132
-0.0114007
-0.0115906
-0.0117823
-0.0119753
-0.0121689
-0.0123626
-0.0125559
-0.0127482
-0.0129389
-0.0131277
-0.013314
-0.0134975
-0.0136778
-0.0138545
-0.0140273
-0.0141959
-0.0143601
-0.0145196
-0.0146743
-0.0148239
-0.0149684
-0.0151077
-0.0152415
-0.0153699
-0.0154927
-0.01561
-0.0157216
-0.0158276
-0.0159279
-0.0160226
-0.0161116
-0.0161949
-0.0162726
-0.0163446
-0.016411
-0.0164718
-0.016527
-0.0165766
-0.0166206
-0.0166591
-0.0166921
-0.0167196
-0.0167415
-0.0167579
-0.0167689
-0.0167744
-0.00898908
-0.00911565
-0.00923606
-0.00936126
-0.00949449
-0.00963459
-0.00978121
-0.00993415
-0.010093
-0.0102575
-0.010427
-0.0106011
-0.0107794
-0.0109612
-0.011146
-0.0113332
-0.0115222
-0.0117125
-0.0119034
-0.0120945
-0.0122851
-0.0124748
-0.0126629
-0.0128492
-0.013033
-0.0132141
-0.013392
-0.0135664
-0.013737
-0.0139034
-0.0140655
-0.0142231
-0.0143758
-0.0145236
-0.0146664
-0.0148039
-0.0149361
-0.0150629
-0.0151843
-0.0153002
-0.0154105
-0.0155152
-0.0156144
-0.015708
-0.0157959
-0.0158783
-0.0159551
-0.0160263
-0.0160919
-0.016152
-0.0162066
-0.0162556
-0.0162992
-0.0163373
-0.0163699
-0.016397
-0.0164187
-0.016435
-0.0164458
-0.0164512
-0.00986577
-0.00963387
-0.00940505
-0.00917925
-0.00895641
-0.00979818
-0.00956772
-0.00934031
-0.0091159
-0.00889441
-0.00972675
-0.00949774
-0.00927176
-0.00904874
-0.00882862
-0.00966286
-0.0094351
-0.00921033
-0.00898851
-0.00876956
-0.00960205
-0.00937546
-0.00915185
-0.00893117
-0.00871334
-0.00954283
-0.00931741
-0.00909494
-0.00887537
-0.00865864
-0.00948553
-0.00926123
-0.00903986
-0.00882138
-0.00860571
-0.00943035
-0.00920713
-0.00898683
-0.00876938
-0.00855474
-0.00960245
-0.00937731
-0.00915514
-0.00893586
-0.00871942
-0.00850576
-0.00955056
-0.00932645
-0.00910527
-0.00888697
-0.0086715
-0.00950092
-0.00927778
-0.00905757
-0.00884021
-0.00862566
-0.00945356
-0.00923136
-0.00901206
-0.0087956
-0.00858193
-0.00940852
-0.0091872
-0.00896877
-0.00875317
-0.00854034
-0.00936582
-0.00914534
-0.00892774
-0.00871295
-0.00850091
-0.00932549
-0.00910581
-0.00888898
-0.00867496
-0.00846368
-0.00928756
-0.00906862
-0.00885253
-0.00863923
-0.00842866
-0.00925205
-0.00903381
-0.00881841
-0.00860579
-0.00839588
-0.00921898
-0.0090014
-0.00878664
-0.00857464
-0.00836535
-0.00918838
-0.00897141
-0.00875724
-0.00854582
-0.00833711
-0.00916027
-0.00894385
-0.00873022
-0.00851935
-0.00831115
-0.00913465
-0.00891874
-0.00870561
-0.00849522
-0.00828751
-0.00932986
-0.00911156
-0.0088961
-0.00868342
-0.00847347
-0.00826619
-0.00930888
-0.009091
-0.00887594
-0.00866366
-0.00845411
-0.00824721
-0.0092905
-0.00907298
-0.00885828
-0.00864635
-0.00843713
-0.00823058
-0.00927472
-0.00905751
-0.00884312
-0.00863149
-0.00842257
-0.0082163
-0.00926156
-0.00904461
-0.00883047
-0.0086191
-0.00841042
-0.00820439
-0.00925102
-0.00903428
-0.00882035
-0.00860917
-0.00840069
-0.00819486
-0.00924311
-0.00902653
-0.00881275
-0.00860172
-0.00839339
-0.0081877
-0.00923784
-0.00902135
-0.00880768
-0.00859675
-0.00838852
-0.00818293
-0.0092352
-0.00901877
-0.00880514
-0.00859427
-0.00838608
)
;

boundaryField
{
    inlet
    {
        type            zeroGradient;
    }
    outlet
    {
        type            fixedValue;
        value           nonuniform 0();
    }
    cylinder
    {
        type            zeroGradient;
    }
    top
    {
        type            symmetryPlane;
    }
    bottom
    {
        type            symmetryPlane;
    }
    defaultFaces
    {
        type            empty;
    }
    procBoundary51to50
    {
        type            processor;
        value           nonuniform List<scalar> 
185
(
-0.00945449
-0.00945718
-0.00946256
-0.00947063
-0.00948138
-0.00949481
-0.0095109
-0.00952965
-0.00955105
-0.00935342
-0.00935342
-0.00937954
-0.00940822
-0.00943944
-0.00947317
-0.00950939
-0.00954809
-0.00958922
-0.00963278
-0.00967873
-0.00972704
-0.00977767
-0.00983059
-0.00965654
-0.00965654
-0.00971283
-0.00977127
-0.00983167
-0.00989369
-0.00995884
-0.0100318
-0.0101008
-0.0101338
-0.0102709
-0.0104005
-0.0105351
-0.0106784
-0.0108291
-0.0109868
-0.0111512
-0.0113219
-0.0114986
-0.0114234
-0.0114234
-0.0116078
-0.0117966
-0.011989
-0.0121845
-0.0123825
-0.0125824
-0.0127835
-0.0129853
-0.013187
-0.0133883
-0.0135884
-0.0137869
-0.0139832
-0.014177
-0.0143677
-0.014555
-0.0147385
-0.0149179
-0.0150929
-0.0152632
-0.0154287
-0.0155891
-0.0157442
-0.0158939
-0.0160381
-0.0161767
-0.0163096
-0.0164368
-0.0165581
-0.0166736
-0.0167832
-0.0168869
-0.0169848
-0.0170768
-0.0171629
-0.0172431
-0.0173175
-0.0173861
-0.0174489
-0.0175058
-0.017557
-0.0176025
-0.0176422
-0.0176763
-0.0177046
-0.0177272
-0.0177442
-0.0177555
-0.0177612
-0.0101338
-0.0102709
-0.0104005
-0.0105351
-0.0106784
-0.0108291
-0.0109868
-0.0111512
-0.0113219
-0.0114986
-0.0116808
-0.0118678
-0.0120592
-0.0122543
-0.0124525
-0.0126533
-0.0128559
-0.0130597
-0.0132642
-0.0134687
-0.0136726
-0.0138753
-0.0140764
-0.0142752
-0.0144714
-0.0146646
-0.0148542
-0.0150399
-0.0152215
-0.0153986
-0.015571
-0.0157384
-0.0159006
-0.0160575
-0.016209
-0.0163548
-0.0164949
-0.0166293
-0.0167578
-0.0168805
-0.0169972
-0.017108
-0.0172128
-0.0173117
-0.0174046
-0.0174916
-0.0175727
-0.0176479
-0.0177171
-0.0177805
-0.0178381
-0.0178898
-0.0179357
-0.0179759
-0.0180102
-0.0180388
-0.0180617
-0.0180789
-0.0180903
-0.018096
-0.0101008
-0.0100318
-0.00995884
-0.00989369
-0.00983167
-0.00977127
-0.00971283
-0.00965654
-0.00965654
-0.0098306
-0.00977767
-0.00972704
-0.00967873
-0.00963278
-0.00958923
-0.00954809
-0.00950939
-0.00947317
-0.00943944
-0.00940822
-0.00937954
-0.00935342
-0.00935342
-0.00955105
-0.00952965
-0.0095109
-0.00949481
-0.00948138
-0.00947063
-0.00946257
-0.00945718
-0.00945449
)
;
    }
    procBoundary51to52
    {
        type            processor;
        value           nonuniform List<scalar> 
185
(
-0.00818054
-0.00818054
-0.00797993
-0.00798461
-0.00799162
-0.00800097
-0.00801264
-0.00802663
-0.00804293
-0.00806153
-0.00808243
-0.0081056
-0.00813104
-0.00815872
-0.00818864
-0.00822077
-0.00825509
-0.00829158
-0.00833023
-0.00837099
-0.00841386
-0.00845879
-0.00845879
-0.00829484
-0.00834285
-0.00839281
-0.00844469
-0.00849832
-0.00855345
-0.00861135
-0.00867579
-0.00873647
-0.00873647
-0.00855193
-0.00867446
-0.00879132
-0.00891289
-0.00904224
-0.00917825
-0.00932061
-0.0094691
-0.00962337
-0.00978303
-0.00994766
-0.0101168
-0.0102899
-0.0104665
-0.010646
-0.0108279
-0.0110116
-0.0111965
-0.0113821
-0.0115678
-0.0117532
-0.0119376
-0.0121206
-0.0123018
-0.0124807
-0.012657
-0.0128301
-0.0129999
-0.013166
-0.0133281
-0.013486
-0.0136395
-0.0137883
-0.0139324
-0.0140715
-0.0142056
-0.0143345
-0.0144582
-0.0145766
-0.0146896
-0.0147973
-0.0148995
-0.0149963
-0.0150876
-0.0151734
-0.0152539
-0.0153288
-0.0153983
-0.0154624
-0.0155211
-0.0155744
-0.0156223
-0.0156648
-0.015702
-0.0157339
-0.0157604
-0.0157816
-0.0157975
-0.0158081
-0.0158133
-0.00876908
-0.00889362
-0.00901224
-0.00913562
-0.0092669
-0.00940494
-0.00954943
-0.00970013
-0.00985669
-0.0100187
-0.0101858
-0.0103574
-0.0105331
-0.0107123
-0.0108944
-0.011079
-0.0112653
-0.0114529
-0.0116412
-0.0118296
-0.0120175
-0.0122046
-0.0123902
-0.0125739
-0.0127553
-0.0129339
-0.0131095
-0.0132816
-0.0134499
-0.0136142
-0.0137742
-0.0139297
-0.0140805
-0.0142265
-0.0143674
-0.0145032
-0.0146338
-0.014759
-0.0148789
-0.0149934
-0.0151024
-0.0152059
-0.0153038
-0.0153963
-0.0154832
-0.0155646
-0.0156405
-0.0157109
-0.0157758
-0.0158351
-0.0158891
-0.0159376
-0.0159806
-0.0160182
-0.0160504
-0.0160773
-0.0160987
-0.0161148
-0.0161255
-0.0161309
-0.00873647
-0.0086758
-0.00861135
-0.00855345
-0.00849832
-0.0084447
-0.00839281
-0.00834285
-0.00829484
-0.00845879
-0.00845879
-0.00841386
-0.00837099
-0.00833023
-0.00829159
-0.00825509
-0.00822077
-0.00818864
-0.00815872
-0.00813104
-0.0081056
-0.00808243
-0.00806153
-0.00804293
-0.00802663
-0.00801264
-0.00800097
-0.00799162
-0.00798461
-0.00797993
-0.00818054
-0.00818054
)
;
    }
}


// ************************************************************************* //
