/*--------------------------------*- C++ -*----------------------------------*\
  =========                 |
  \\      /  F ield         | OpenFOAM: The Open Source CFD Toolbox
   \\    /   O peration     | Website:  https://openfoam.org
    \\  /    A nd           | Version:  7
     \\/     M anipulation  |
\*---------------------------------------------------------------------------*/
FoamFile
{
    version     2.0;
    format      ascii;
    class       volVectorField;
    location    "55";
    object      U;
}
// * * * * * * * * * * * * * * * * * * * * * * * * * * * * * * * * * * * * * //

dimensions      [0 1 -1 0 0 0 0];

internalField   nonuniform List<vector> 
183
(
(0.946496 0.013884 -6.5814e-23)
(0.940071 -0.125613 -1.49265e-23)
(0.947357 0.0143745 -3.78878e-23)
(0.942255 -0.123481 1.8884e-22)
(0.948101 0.0147973 -6.49144e-24)
(0.944366 -0.121383 -5.14824e-22)
(0.948739 0.0151436 -7.32496e-23)
(0.946416 -0.119327 2.61136e-22)
(0.949285 0.0154035 5.04574e-22)
(0.948415 -0.117323 -3.24135e-23)
(0.949753 0.0155651 -1.27247e-21)
(0.950377 -0.115377 -7.72387e-22)
(0.95016 0.015623 3.95025e-22)
(0.952315 -0.113497 1.58924e-21)
(0.950523 0.0155694 8.15728e-22)
(0.954245 -0.111689 -1.08918e-21)
(0.950862 0.0153912 -1.46126e-21)
(0.95618 -0.109958 -4.88905e-23)
(0.951195 0.0150794 7.92259e-22)
(0.958136 -0.108309 1.19123e-21)
(0.951543 0.0146244 1.83514e-21)
(0.960126 -0.106745 -2.54875e-21)
(0.951924 0.0140257 -6.83739e-22)
(0.962165 -0.105269 1.89558e-21)
(0.95236 0.0132762 -7.93177e-22)
(0.964265 -0.103883 -2.53663e-22)
(0.952867 0.012353 -1.21729e-21)
(0.966436 -0.102587 1.74153e-22)
(0.953467 0.0112771 2.09745e-21)
(0.968691 -0.101381 5.81884e-22)
(0.954176 0.010045 -1.47527e-21)
(0.971034 -0.100263 -1.23239e-21)
(0.955013 0.00862634 2.08742e-21)
(0.973473 -0.099233 -1.38068e-22)
(0.955997 0.00702996 -6.96165e-23)
(0.976011 -0.098287 -3.22794e-23)
(0.957152 0.00528545 3.29609e-22)
(0.978647 -0.0974182 -1.3772e-21)
(0.958504 0.00348426 8.50783e-22)
(0.981371 -0.0966251 8.05152e-22)
(0.960083 0.00151993 -3.83187e-22)
(0.984159 -0.0959546 2.41663e-23)
(0.965677 -0.00908091 0)
(0.99272 -0.0946437 0)
(0.982783 -0.0425827 0)
(1.01218 -0.106453 0)
(1.00483 -0.0715853 0)
(1.0336 -0.10976 0)
(1.03353 -0.101961 0)
(1.05639 -0.116368 0)
(1.05233 -0.269691 0)
(1.06576 -0.126675 0)
(1.07872 -0.116869 0)
(1.07019 -0.254241 0)
(1.0984 -0.144291 0)
(1.0973 -0.11511 0)
(1.08597 -0.238456 0)
(1.12719 -0.152265 0)
(1.11082 -0.108234 0)
(1.09898 -0.219337 0)
(1.1482 -0.15008 0)
(1.118 -0.0981538 0)
(1.10749 -0.199718 0)
(1.15892 -0.139236 0)
(1.11939 -0.0853798 0)
(1.11132 -0.179547 0)
(1.15948 -0.122768 0)
(1.11622 -0.0717777 0)
(1.11151 -0.160067 0)
(1.15277 -0.104531 0)
(1.11043 -0.0589255 0)
(1.10996 -0.141115 0)
(1.14243 -0.0870753 0)
(1.10373 -0.0478397 0)
(1.10755 -0.122451 0)
(1.13121 -0.0715191 0)
(1.09737 -0.0388937 0)
(1.10399 -0.104027 0)
(1.12086 -0.0580281 0)
(1.09183 -0.0317353 0)
(1.09903 -0.0862792 0)
(1.1122 -0.0464668 0)
(1.08702 -0.0257899 0)
(1.09341 -0.069826 0)
(1.10537 -0.0365712 0)
(1.08273 -0.0206224 0)
(1.08836 -0.0551128 0)
(1.10007 -0.0280592 0)
(1.07895 -0.016033 0)
(1.08451 -0.0421954 0)
(1.09601 -0.0206642 0)
(1.07586 -0.011925 0)
(1.08182 -0.0309256 0)
(1.07356 -0.00821728 0)
(1.08003 -0.0210361 0)
(1.07206 -0.0048087 0)
(1.07891 -0.0121857 0)
(1.07133 -0.00158281 0)
(1.07837 -0.00398608 0)
(0.901701 -0.00220584 0)
(0.896368 -0.0299571 0)
(0.892587 -0.0500392 0)
(0.885528 -0.0743351 0)
(0.874998 -0.0976344 0)
(0.862136 -0.120994 0)
(0.848488 -0.141925 0)
(0.834173 -0.160155 0)
(0.820555 -0.175227 0)
(0.815361 -0.186264 0)
(0.830188 -0.190826 0)
(0.868359 -0.185362 0)
(0.918203 -0.168516 0)
(0.964034 -0.143402 0)
(0.997536 -0.115872 0)
(1.01925 -0.0903045 0)
(1.03301 -0.0682939 0)
(1.04192 -0.0496833 0)
(1.04772 -0.0337132 0)
(1.05124 -0.0195518 0)
(1.05291 -0.00641135 0)
(0.87704 -0.169853 0)
(0.869964 -0.189484 0)
(0.865931 -0.205319 0)
(0.860954 -0.2219 0)
(0.855158 -0.237935 0)
(0.849526 -0.251424 0)
(0.845309 -0.259769 0)
(0.842405 -0.262634 0)
(0.842222 -0.259252 0)
(0.852773 -0.247387 0)
(0.884364 -0.22633 0)
(0.936119 -0.198187 0)
(0.99186 -0.166335 0)
(1.03411 -0.134656 0)
(1.05769 -0.106444 0)
(1.06794 -0.0827322 0)
(1.07177 -0.0629497 0)
(1.07323 -0.0461774 0)
(1.07391 -0.0315621 0)
(1.07427 -0.0183778 0)
(1.07443 -0.0060305 0)
(0.906513 0.00183011 8.15679e-23)
(0.883547 -0.162517 -3.14987e-22)
(0.908314 0.00201608 3.79469e-22)
(0.885797 -0.161609 2.86011e-22)
(0.910294 0.0022317 -6.40772e-22)
(0.888187 -0.160636 -2.51312e-22)
(0.912408 0.00258544 -1.5357e-21)
(0.890712 -0.159457 8.27395e-22)
(0.914614 0.00302333 1.5025e-21)
(0.893355 -0.158173 9.76153e-22)
(0.916885 0.00350593 -2.7149e-21)
(0.8961 -0.156801 -1.32356e-21)
(0.919197 0.00403007 1.62167e-21)
(0.898931 -0.155335 7.86748e-22)
(0.921532 0.00459909 -3.20691e-22)
(0.901827 -0.153778 -1.25236e-21)
(0.923866 0.00519902 -3.5946e-22)
(0.90477 -0.152132 -1.4276e-23)
(0.926178 0.00582691 -8.29405e-22)
(0.907741 -0.150401 1.35185e-21)
(0.928447 0.00648905 1.00479e-21)
(0.910722 -0.148592 -2.12062e-21)
(0.930655 0.00717388 -3.44894e-23)
(0.913692 -0.146709 1.84187e-21)
(0.932781 0.00787504 -2.3244e-21)
(0.916636 -0.144759 8.33745e-22)
(0.934812 0.00859056 1.21671e-21)
(0.919539 -0.14275 -1.00898e-21)
(0.936733 0.00930984 5.26537e-22)
(0.922386 -0.140691 1.49896e-21)
(0.938532 0.0100258 -2.87503e-22)
(0.925165 -0.138588 -1.33844e-21)
(0.940202 0.0107354 5.82714e-22)
(0.927868 -0.136453 1.94649e-22)
(0.941737 0.0114291 2.02594e-23)
(0.930486 -0.134294 1.45924e-22)
(0.943133 0.0120991 4.11193e-23)
(0.933017 -0.13212 -5.96676e-22)
(0.944389 0.0127374 -2.20699e-23)
(0.935456 -0.129942 2.14326e-22)
(0.945509 0.0133352 -8.182e-23)
(0.937807 -0.12777 1.46416e-23)
)
;

boundaryField
{
    inlet
    {
        type            uniformFixedValue;
        uniformValue    constant (1 0 0);
        value           nonuniform 0();
    }
    outlet
    {
        type            pressureInletOutletVelocity;
        value           nonuniform 0();
    }
    cylinder
    {
        type            fixedValue;
        value           nonuniform 0();
    }
    top
    {
        type            symmetryPlane;
    }
    bottom
    {
        type            symmetryPlane;
    }
    defaultFaces
    {
        type            empty;
    }
    procBoundary45to44
    {
        type            processor;
        value           nonuniform List<vector> 
85
(
(0.94901 0.25269 2.37472e-24)
(0.947144 0.251611 -1.13062e-22)
(0.945081 0.250475 2.23681e-23)
(0.942829 0.249275 6.15933e-22)
(0.940398 0.248007 -6.75435e-22)
(0.9378 0.246662 -1.04513e-21)
(0.935051 0.245235 8.00122e-22)
(0.932168 0.243717 -1.51031e-21)
(0.929171 0.242101 -4.43819e-23)
(0.92608 0.240379 1.05977e-21)
(0.922919 0.238544 9.09091e-22)
(0.919712 0.236587 5.06173e-22)
(0.916488 0.234503 -1.46635e-21)
(0.913274 0.232286 -4.06295e-22)
(0.910099 0.22993 1.23193e-21)
(0.906997 0.227431 7.18695e-22)
(0.904004 0.224785 -5.53673e-22)
(0.901158 0.221986 1.19469e-21)
(0.89851 0.219051 5.99641e-22)
(0.896141 0.216068 -6.20238e-22)
(0.894211 0.21291 7.92402e-22)
(0.890818 0.198204 0)
(0.896423 0.156943 0)
(0.917004 0.113911 0)
(0.952625 0.0691026 0)
(0.999705 0.0260811 0)
(1.05355 -0.0111199 0)
(1.10696 -0.040113 0)
(1.15255 -0.0577152 0)
(1.18292 -0.0635095 0)
(1.19462 -0.0592258 0)
(1.19041 -0.0494846 0)
(1.17746 -0.0383638 0)
(1.16187 -0.0282532 0)
(1.14681 -0.0200355 0)
(1.13336 -0.0137395 0)
(1.1218 -0.00914133 0)
(1.11224 -0.00591026 0)
(1.10473 -0.00370532 0)
(1.09301 -0.0141363 0)
(1.09301 -0.0141363 0)
(1.09101 -0.00823289 0)
(1.09 -0.00270372 0)
(0.953394 0.262124 0)
(0.952876 0.234703 0)
(0.948749 0.220749 0)
(0.941674 0.199509 0)
(0.930699 0.181399 0)
(0.916859 0.160867 0)
(0.900111 0.139976 0)
(0.882187 0.11753 0)
(0.867144 0.0925972 0)
(0.860939 0.0641303 0)
(0.86707 0.0351727 0)
(0.883243 0.0107261 0)
(0.904961 -0.00562291 0)
(0.929265 -0.0137025 0)
(0.953684 -0.0164348 0)
(0.975569 -0.0162019 0)
(0.993252 -0.0144797 0)
(1.00644 -0.0119236 0)
(1.01559 -0.00883896 0)
(1.0213 -0.0054174 0)
(1.02403 -0.00182081 0)
(0.953806 0.264759 -8.17078e-22)
(0.954018 0.264946 5.51352e-22)
(0.954299 0.264699 -2.54589e-22)
(0.954634 0.264402 -9.39161e-22)
(0.955003 0.26413 -1.20778e-21)
(0.955385 0.263832 2.71058e-22)
(0.95576 0.263479 2.72635e-23)
(0.956114 0.263073 1.61447e-22)
(0.956429 0.262616 -1.89239e-22)
(0.956685 0.262113 2.58444e-22)
(0.956866 0.261563 -1.80148e-22)
(0.95695 0.260967 -1.48145e-22)
(0.956918 0.260328 1.78638e-22)
(0.956752 0.259647 -6.41073e-22)
(0.956435 0.258924 1.20567e-21)
(0.955951 0.25816 -8.44411e-22)
(0.955288 0.257356 -3.03208e-23)
(0.954435 0.256511 3.29924e-22)
(0.953384 0.255624 3.48517e-23)
(0.952132 0.254693 -1.01513e-22)
(0.950673 0.253716 -2.65152e-24)
)
;
    }
    procBoundary45to46
    {
        type            processor;
        value           nonuniform List<vector> 
85
(
(0.907254 -0.373471 -8.28657e-23)
(0.911114 -0.370246 -4.3331e-23)
(0.914977 -0.366995 1.42909e-22)
(0.91884 -0.363724 -4.27153e-22)
(0.922703 -0.360438 4.94184e-22)
(0.926566 -0.357144 -5.05584e-22)
(0.930429 -0.353844 4.27673e-22)
(0.93429 -0.350543 3.4654e-22)
(0.938151 -0.347244 6.32557e-22)
(0.94201 -0.343947 -3.45616e-22)
(0.945868 -0.340656 5.21854e-22)
(0.949724 -0.33737 -6.95505e-22)
(0.953577 -0.334091 -3.43022e-22)
(0.957425 -0.330818 9.78794e-22)
(0.96127 -0.327552 -5.10413e-24)
(0.965112 -0.324291 -9.21008e-22)
(0.968952 -0.321032 -1.59958e-22)
(0.972793 -0.317779 5.1105e-22)
(0.976641 -0.314557 4.9548e-22)
(0.9805 -0.311396 5.8869e-22)
(0.984368 -0.308232 2.96473e-22)
(0.996032 -0.298481 0)
(1.01495 -0.293052 0)
(1.03434 -0.279424 0)
(1.03434 -0.279424 0)
(1.00376 -0.264923 0)
(1.0157 -0.240853 0)
(1.02455 -0.216205 0)
(1.03048 -0.189381 0)
(1.03405 -0.161805 0)
(1.03536 -0.134038 0)
(1.03375 -0.108293 0)
(1.02865 -0.0857981 0)
(1.02182 -0.0672886 0)
(1.01666 -0.0524488 0)
(1.01558 -0.0406896 0)
(1.0182 -0.0313356 0)
(1.02241 -0.0237773 0)
(1.02663 -0.0176394 0)
(1.03024 -0.0125878 0)
(1.03312 -0.00837542 0)
(1.03517 -0.00477973 0)
(1.03624 -0.00155486 0)
(0.828708 -0.429924 0)
(0.819009 -0.446123 0)
(0.809603 -0.461182 0)
(0.801089 -0.474598 0)
(0.796026 -0.484474 0)
(0.796649 -0.487181 0)
(0.80352 -0.480009 0)
(0.815575 -0.462236 0)
(0.834803 -0.432801 0)
(0.869277 -0.389787 0)
(0.925316 -0.33449 0)
(0.9948 -0.273944 0)
(1.05678 -0.217096 0)
(1.09543 -0.169492 0)
(1.11116 -0.131827 0)
(1.11366 -0.101947 0)
(1.11139 -0.0775283 0)
(1.10841 -0.0569171 0)
(1.10601 -0.0389397 0)
(1.10442 -0.0227026 0)
(1.10364 -0.00745982 0)
(0.835569 -0.42367 -1.44271e-22)
(0.838055 -0.422393 -8.48078e-22)
(0.840678 -0.420899 3.62904e-22)
(0.843432 -0.419295 1.15227e-22)
(0.846315 -0.41759 9.32632e-22)
(0.84932 -0.41578 -1.54405e-21)
(0.852442 -0.413861 1.36014e-22)
(0.855672 -0.411832 9.69809e-23)
(0.859001 -0.409695 -3.11657e-22)
(0.86242 -0.407449 -9.18155e-22)
(0.865919 -0.405096 3.52321e-22)
(0.869487 -0.402639 -4.0273e-22)
(0.873117 -0.400081 4.3648e-22)
(0.876797 -0.397426 -3.89749e-24)
(0.880521 -0.39468 4.78265e-22)
(0.88428 -0.39185 -5.63397e-22)
(0.888068 -0.38894 7.37818e-22)
(0.891879 -0.385959 -2.77694e-22)
(0.895706 -0.382914 -8.3572e-23)
(0.899547 -0.379812 -4.39139e-23)
(0.903397 -0.376662 -6.2967e-23)
)
;
    }
}


// ************************************************************************* //
