/*--------------------------------*- C++ -*----------------------------------*\
  =========                 |
  \\      /  F ield         | OpenFOAM: The Open Source CFD Toolbox
   \\    /   O peration     | Website:  https://openfoam.org
    \\  /    A nd           | Version:  7
     \\/     M anipulation  |
\*---------------------------------------------------------------------------*/
FoamFile
{
    version     2.0;
    format      ascii;
    class       volScalarField;
    location    "92";
    object      p;
}
// * * * * * * * * * * * * * * * * * * * * * * * * * * * * * * * * * * * * * //

dimensions      [0 2 -2 0 0 0 0];

internalField   nonuniform List<scalar> 
40000
(
-0.342533
-0.343412
-0.344053
-0.344552
-0.344975
-0.345332
-0.345644
-0.345933
-0.346225
-0.346544
-0.346911
-0.347343
-0.347855
-0.348461
-0.34917
-0.349995
-0.350945
-0.352034
-0.35328
-0.354703
-0.35633
-0.358193
-0.360332
-0.362792
-0.365629
-0.368906
-0.372694
-0.377068
-0.382102
-0.387918
-0.3429
-0.343612
-0.344134
-0.344538
-0.344876
-0.345158
-0.345401
-0.345628
-0.345865
-0.346135
-0.346459
-0.346857
-0.347346
-0.347941
-0.348655
-0.349502
-0.350498
-0.351659
-0.353008
-0.354571
-0.356382
-0.35848
-0.360913
-0.363737
-0.367015
-0.370821
-0.375239
-0.380354
-0.386243
-0.39305
-0.343335
-0.343878
-0.344278
-0.344584
-0.344835
-0.345039
-0.345212
-0.345375
-0.345554
-0.345771
-0.346049
-0.34641
-0.346871
-0.34745
-0.348163
-0.349026
-0.350058
-0.35128
-0.352719
-0.354407
-0.356383
-0.358692
-0.361389
-0.364538
-0.368211
-0.37249
-0.377467
-0.38324
-0.389875
-0.397539
-0.343809
-0.344184
-0.34446
-0.344668
-0.344831
-0.344955
-0.345056
-0.345153
-0.34527
-0.345431
-0.345659
-0.345977
-0.346404
-0.346961
-0.347664
-0.348534
-0.349592
-0.350863
-0.352378
-0.354172
-0.356289
-0.358781
-0.361709
-0.365143
-0.36916
-0.373849
-0.379311
-0.385651
-0.392923
-0.401282
-0.344295
-0.344505
-0.34466
-0.344769
-0.344843
-0.344887
-0.344913
-0.344941
-0.344993
-0.345094
-0.345267
-0.345536
-0.345923
-0.346448
-0.347132
-0.347998
-0.349069
-0.350374
-0.351946
-0.353826
-0.35606
-0.358706
-0.361829
-0.365503
-0.369811
-0.374847
-0.380715
-0.387528
-0.395332
-0.404224
-0.344767
-0.344818
-0.344855
-0.344868
-0.344854
-0.344816
-0.344766
-0.344722
-0.344707
-0.344742
-0.344854
-0.345067
-0.345404
-0.345888
-0.346542
-0.347391
-0.348461
-0.349783
-0.351394
-0.353336
-0.355661
-0.358428
-0.361708
-0.365577
-0.370122
-0.375438
-0.381633
-0.388822
-0.39703
-0.406383
-0.345204
-0.345105
-0.34503
-0.344949
-0.344847
-0.344728
-0.344601
-0.344483
-0.344395
-0.34436
-0.344404
-0.344552
-0.34483
-0.345261
-0.345873
-0.34669
-0.347742
-0.349063
-0.350691
-0.352671
-0.355058
-0.357915
-0.361312
-0.36533
-0.370057
-0.37559
-0.382034
-0.38951
-0.398023
-0.407681
-0.345586
-0.345349
-0.345168
-0.344998
-0.344812
-0.344612
-0.344407
-0.344212
-0.344047
-0.343936
-0.343904
-0.343978
-0.344185
-0.344552
-0.345106
-0.345875
-0.346892
-0.348191
-0.349814
-0.351808
-0.354228
-0.35714
-0.360616
-0.364738
-0.369595
-0.375281
-0.381902
-0.389578
-0.398301
-0.408124
-0.345898
-0.345537
-0.345259
-0.345005
-0.344738
-0.344458
-0.344175
-0.343901
-0.343655
-0.34346
-0.343344
-0.343334
-0.343458
-0.343747
-0.344228
-0.344933
-0.345895
-0.347152
-0.348746
-0.350727
-0.353152
-0.356086
-0.359603
-0.363785
-0.368721
-0.374502
-0.381231
-0.389028
-0.397874
-0.407741
-0.346128
-0.345659
-0.345295
-0.344963
-0.344619
-0.344263
-0.343901
-0.343545
-0.343213
-0.342929
-0.34272
-0.342615
-0.342644
-0.342839
-0.343231
-0.343853
-0.344741
-0.345934
-0.347476
-0.349418
-0.351818
-0.354742
-0.358264
-0.362465
-0.367432
-0.373255
-0.380031
-0.387876
-0.396772
-0.406578
-0.346269
-0.34571
-0.34527
-0.344869
-0.344454
-0.344024
-0.343583
-0.343143
-0.342722
-0.342341
-0.34203
-0.341819
-0.341741
-0.341827
-0.342113
-0.342634
-0.343427
-0.344534
-0.346
-0.347878
-0.350225
-0.353108
-0.356601
-0.360783
-0.365739
-0.371555
-0.378322
-0.386154
-0.395037
-0.404693
-0.346318
-0.345688
-0.345186
-0.344723
-0.344243
-0.343742
-0.343224
-0.342699
-0.342183
-0.3417
-0.341278
-0.340951
-0.34075
-0.340713
-0.340876
-0.341277
-0.341956
-0.342955
-0.344323
-0.346111
-0.348379
-0.351193
-0.354624
-0.358752
-0.363659
-0.369426
-0.376138
-0.383902
-0.392721
-0.402153
-0.346275
-0.345594
-0.345044
-0.34453
-0.34399
-0.343422
-0.342828
-0.342216
-0.341603
-0.341011
-0.340471
-0.340016
-0.339681
-0.339506
-0.33953
-0.339793
-0.340337
-0.341208
-0.342455
-0.344131
-0.346295
-0.349014
-0.352357
-0.356401
-0.361225
-0.366908
-0.373525
-0.381176
-0.38989
-0.399031
-0.346146
-0.345435
-0.34485
-0.344294
-0.343703
-0.343073
-0.342404
-0.341705
-0.340991
-0.340285
-0.339618
-0.339026
-0.338546
-0.338219
-0.338088
-0.338196
-0.338589
-0.339312
-0.340418
-0.341961
-0.344
-0.3466
-0.349831
-0.353765
-0.35848
-0.364049
-0.37054
-0.378041
-0.386619
-0.395404
-0.34594
-0.34522
-0.344615
-0.344026
-0.343391
-0.342703
-0.341962
-0.341176
-0.340358
-0.339534
-0.338734
-0.337996
-0.33736
-0.33687
-0.336571
-0.336509
-0.336734
-0.337293
-0.338241
-0.339633
-0.341528
-0.343991
-0.34709
-0.350895
-0.355479
-0.360911
-0.367251
-0.374571
-0.382994
-0.391349
-0.34567
-0.344962
-0.34435
-0.343739
-0.343067
-0.342326
-0.341516
-0.340641
-0.339719
-0.338773
-0.337835
-0.336945
-0.336144
-0.335481
-0.335003
-0.334759
-0.334803
-0.335185
-0.33596
-0.337186
-0.338923
-0.341235
-0.344188
-0.34785
-0.352288
-0.357567
-0.363739
-0.37085
-0.379108
-0.386938
-0.345354
-0.344677
-0.344072
-0.343448
-0.342746
-0.341956
-0.341079
-0.340118
-0.33909
-0.33802
-0.33694
-0.335893
-0.334922
-0.334078
-0.333413
-0.332979
-0.332832
-0.333026
-0.333619
-0.33467
-0.33624
-0.338391
-0.341189
-0.344699
-0.348983
-0.354098
-0.360091
-0.366968
-0.375059
-0.382241
-0.345012
-0.344385
-0.343799
-0.343171
-0.342444
-0.341611
-0.340669
-0.339623
-0.338489
-0.337294
-0.336071
-0.334864
-0.33372
-0.332691
-0.331834
-0.331205
-0.330861
-0.330863
-0.331268
-0.332139
-0.333537
-0.335524
-0.338165
-0.341519
-0.345645
-0.350593
-0.356399
-0.363017
-0.370951
-0.377326
-0.344671
-0.344109
-0.343553
-0.342927
-0.342182
-0.341308
-0.340304
-0.339175
-0.337937
-0.336617
-0.335251
-0.333884
-0.332566
-0.331353
-0.330303
-0.329477
-0.328937
-0.328745
-0.328963
-0.329653
-0.33088
-0.332705
-0.335189
-0.338391
-0.342361
-0.347138
-0.352756
-0.359085
-0.366876
-0.372265
-0.344359
-0.343876
-0.343357
-0.342739
-0.34198
-0.341069
-0.340005
-0.338794
-0.337454
-0.336011
-0.334505
-0.33298
-0.331492
-0.330097
-0.328858
-0.32784
-0.327107
-0.326725
-0.32676
-0.327276
-0.328337
-0.330005
-0.33234
-0.335394
-0.339211
-0.343817
-0.349244
-0.355246
-0.362907
-0.367135
-0.344108
-0.343714
-0.343239
-0.342633
-0.341861
-0.340915
-0.339794
-0.338504
-0.337063
-0.335502
-0.333859
-0.332183
-0.330529
-0.328959
-0.327539
-0.326336
-0.325419
-0.324857
-0.324718
-0.325069
-0.325975
-0.327497
-0.329691
-0.332605
-0.336272
-0.340703
-0.34593
-0.351558
-0.359086
-0.362024
-0.343954
-0.343654
-0.343226
-0.342633
-0.341851
-0.340871
-0.339693
-0.338326
-0.33679
-0.335114
-0.333341
-0.331521
-0.329711
-0.327977
-0.326387
-0.325011
-0.323923
-0.323195
-0.322896
-0.323096
-0.323859
-0.325246
-0.327309
-0.330087
-0.333604
-0.337846
-0.342855
-0.348058
-0.355411
-0.357017
-0.343934
-0.343729
-0.343347
-0.342767
-0.341974
-0.34096
-0.339728
-0.338286
-0.336658
-0.334875
-0.33298
-0.331025
-0.329072
-0.327186
-0.325441
-0.323909
-0.322667
-0.321788
-0.321346
-0.32141
-0.322045
-0.323308
-0.325245
-0.327888
-0.331244
-0.335275
-0.340031
-0.344754
-0.351841
-0.352184
-0.344088
-0.343973
-0.343635
-0.343064
-0.342257
-0.341209
-0.339922
-0.338409
-0.336694
-0.33481
-0.332803
-0.330726
-0.328643
-0.326623
-0.32474
-0.32307
-0.321692
-0.320682
-0.320114
-0.320058
-0.320577
-0.321723
-0.323535
-0.326032
-0.329206
-0.33299
-0.337434
-0.341632
-0.348301
-0.347559
-0.344455
-0.344421
-0.344118
-0.343551
-0.342727
-0.341641
-0.340301
-0.338719
-0.336923
-0.334947
-0.332838
-0.330653
-0.328456
-0.326318
-0.324316
-0.322529
-0.321034
-0.319912
-0.319236
-0.319073
-0.319484
-0.320514
-0.322192
-0.324521
-0.327475
-0.33096
-0.335015
-0.338651
-0.344709
-0.343135
-0.345073
-0.345104
-0.344826
-0.344256
-0.343408
-0.342283
-0.340888
-0.33924
-0.337368
-0.335308
-0.33311
-0.330831
-0.328537
-0.3263
-0.324199
-0.322313
-0.320722
-0.319504
-0.318733
-0.318472
-0.318776
-0.319681
-0.321203
-0.323328
-0.326009
-0.329131
-0.332698
-0.335752
-0.340988
-0.338866
-0.345977
-0.346054
-0.345787
-0.345203
-0.344325
-0.343156
-0.341705
-0.339994
-0.338051
-0.335917
-0.333641
-0.331282
-0.328906
-0.326589
-0.324407
-0.32244
-0.320769
-0.319469
-0.318611
-0.318254
-0.318442
-0.319202
-0.320533
-0.322403
-0.324742
-0.327424
-0.330395
-0.332856
-0.337063
-0.334664
-0.347201
-0.347299
-0.347026
-0.346417
-0.345499
-0.34428
-0.342772
-0.340998
-0.338991
-0.33679
-0.334446
-0.33202
-0.329579
-0.327196
-0.324949
-0.322917
-0.321178
-0.319804
-0.31886
-0.318399
-0.318453
-0.319035
-0.320126
-0.321677
-0.323594
-0.325749
-0.328017
-0.32987
-0.332829
-0.330405
-0.348769
-0.348862
-0.348564
-0.347915
-0.346948
-0.345673
-0.344104
-0.342268
-0.340199
-0.337938
-0.335536
-0.333055
-0.330561
-0.328126
-0.325826
-0.323739
-0.321938
-0.320491
-0.319454
-0.31887
-0.31876
-0.319119
-0.319912
-0.321068
-0.322478
-0.324016
-0.325488
-0.326688
-0.328148
-0.326089
-0.350705
-0.350761
-0.350418
-0.349715
-0.348687
-0.347346
-0.345713
-0.343814
-0.341684
-0.339368
-0.336915
-0.334387
-0.331849
-0.329371
-0.327027
-0.324889
-0.323026
-0.321498
-0.320353
-0.319619
-0.319304
-0.319385
-0.319811
-0.320494
-0.321312
-0.322143
-0.322761
-0.323208
-0.323005
-0.322154
-0.353022
-0.353011
-0.352602
-0.351826
-0.350724
-0.34931
-0.347605
-0.34564
-0.34345
-0.34108
-0.338581
-0.336011
-0.333434
-0.330918
-0.328532
-0.326342
-0.324409
-0.322786
-0.321506
-0.320585
-0.320015
-0.319758
-0.319743
-0.319874
-0.320024
-0.320073
-0.319807
-0.319377
-0.317872
-0.318431
-0.35573
-0.35562
-0.35512
-0.354259
-0.353069
-0.351569
-0.349785
-0.347748
-0.345496
-0.343072
-0.340526
-0.337916
-0.335302
-0.332748
-0.330315
-0.328065
-0.326049
-0.324305
-0.322857
-0.321705
-0.320824
-0.320161
-0.319635
-0.319142
-0.318558
-0.317771
-0.316602
-0.315162
-0.312756
-0.311581
-0.358832
-0.358594
-0.357982
-0.357016
-0.355723
-0.354126
-0.352253
-0.350137
-0.347817
-0.345335
-0.342741
-0.340089
-0.337434
-0.334836
-0.332349
-0.330024
-0.327901
-0.326007
-0.32435
-0.322914
-0.321661
-0.320526
-0.319422
-0.318245
-0.316881
-0.315233
-0.313151
-0.310723
-0.307369
-0.304644
-0.362328
-0.361932
-0.361188
-0.3601
-0.358688
-0.35698
-0.355008
-0.352804
-0.350408
-0.347863
-0.345215
-0.342514
-0.339812
-0.337159
-0.334602
-0.332181
-0.329923
-0.32784
-0.325926
-0.32415
-0.322463
-0.320793
-0.319052
-0.317147
-0.314978
-0.312468
-0.3095
-0.306147
-0.301931
-0.298057
-0.366213
-0.365636
-0.364738
-0.36351
-0.361964
-0.360132
-0.358047
-0.355745
-0.353264
-0.350647
-0.347936
-0.345178
-0.342417
-0.339694
-0.337047
-0.334502
-0.332072
-0.329756
-0.32753
-0.325355
-0.323173
-0.320911
-0.318489
-0.315827
-0.312849
-0.309501
-0.305698
-0.301511
-0.296547
-0.291774
-0.370483
-0.3697
-0.368631
-0.367246
-0.365551
-0.36358
-0.36137
-0.358958
-0.356382
-0.353682
-0.350898
-0.34807
-0.345234
-0.342421
-0.339657
-0.336953
-0.334308
-0.331706
-0.329112
-0.326477
-0.323743
-0.320841
-0.317707
-0.31428
-0.310508
-0.306364
-0.301792
-0.296867
-0.291262
-0.285823
-0.375132
-0.374123
-0.372865
-0.371308
-0.369448
-0.367325
-0.364977
-0.362443
-0.359761
-0.356966
-0.354096
-0.351181
-0.348249
-0.345321
-0.342406
-0.339501
-0.336592
-0.333647
-0.330625
-0.327473
-0.324136
-0.320559
-0.316695
-0.312508
-0.307974
-0.303087
-0.297817
-0.292247
-0.286098
-0.280134
-0.380154
-0.378901
-0.377438
-0.375696
-0.373658
-0.371369
-0.368871
-0.366203
-0.363401
-0.360499
-0.357526
-0.354505
-0.351454
-0.348377
-0.34527
-0.342116
-0.338886
-0.335538
-0.332027
-0.328304
-0.324322
-0.320046
-0.31545
-0.310525
-0.305269
-0.299697
-0.293802
-0.287668
-0.281053
-0.274669
-0.385545
-0.384033
-0.382352
-0.380411
-0.378183
-0.375716
-0.373056
-0.370243
-0.367309
-0.364284
-0.361189
-0.358039
-0.354836
-0.351571
-0.348225
-0.344766
-0.341153
-0.337341
-0.333284
-0.328941
-0.324284
-0.319297
-0.313979
-0.308345
-0.302415
-0.296218
-0.289764
-0.283134
-0.276117
-0.26938
-0.391302
-0.389517
-0.387606
-0.385456
-0.383026
-0.38037
-0.377539
-0.374568
-0.371489
-0.368324
-0.365086
-0.361776
-0.358384
-0.354885
-0.351245
-0.347419
-0.34336
-0.339021
-0.334363
-0.329362
-0.324009
-0.318311
-0.312292
-0.305986
-0.299431
-0.292667
-0.285712
-0.278643
-0.271275
-0.264231
-0.397424
-0.395352
-0.3932
-0.390831
-0.388191
-0.385339
-0.382325
-0.379186
-0.375946
-0.372621
-0.369213
-0.36571
-0.362084
-0.358297
-0.3543
-0.350042
-0.34547
-0.340545
-0.335241
-0.329552
-0.323492
-0.317093
-0.3104
-0.303464
-0.296333
-0.289055
-0.281651
-0.27419
-0.266509
-0.259189
-0.403907
-0.401537
-0.399135
-0.39654
-0.393682
-0.390626
-0.387421
-0.384101
-0.380684
-0.377177
-0.373567
-0.369828
-0.365917
-0.361781
-0.357361
-0.3526
-0.347452
-0.341887
-0.335897
-0.329501
-0.322735
-0.315653
-0.308319
-0.300794
-0.293134
-0.285387
-0.277578
-0.269763
-0.261802
-0.254227
-0.410749
-0.408068
-0.40541
-0.402583
-0.399502
-0.396234
-0.39283
-0.389316
-0.385704
-0.381985
-0.378136
-0.374113
-0.369857
-0.365305
-0.360391
-0.355059
-0.349273
-0.34302
-0.336316
-0.329202
-0.321739
-0.313999
-0.306058
-0.297985
-0.289839
-0.281665
-0.273487
-0.265351
-0.257134
-0.249322
-0.417943
-0.414943
-0.412021
-0.408957
-0.40565
-0.402165
-0.398552
-0.39483
-0.390998
-0.387037
-0.382903
-0.37854
-0.373875
-0.368834
-0.363353
-0.357384
-0.350904
-0.343925
-0.336486
-0.328654
-0.320509
-0.312139
-0.303627
-0.295045
-0.286451
-0.277885
-0.26937
-0.260939
-0.252488
-0.244452
-0.42548
-0.422151
-0.418961
-0.415658
-0.412121
-0.408414
-0.404582
-0.400634
-0.396556
-0.392312
-0.387844
-0.383077
-0.377931
-0.372329
-0.366209
-0.359538
-0.352317
-0.344582
-0.336399
-0.327855
-0.31905
-0.31008
-0.301032
-0.291977
-0.282969
-0.274042
-0.265216
-0.256512
-0.247845
-0.239598
-0.433346
-0.42968
-0.426218
-0.422676
-0.418906
-0.414971
-0.410908
-0.406713
-0.402356
-0.397784
-0.392923
-0.387685
-0.381984
-0.375743
-0.368916
-0.361488
-0.353487
-0.344975
-0.336046
-0.326805
-0.317364
-0.307824
-0.298274
-0.288779
-0.279387
-0.270126
-0.261011
-0.252055
-0.243188
-0.234741
-0.441521
-0.437511
-0.433777
-0.429995
-0.42599
-0.42182
-0.417512
-0.413044
-0.40837
-0.403418
-0.3981
-0.392318
-0.385983
-0.379031
-0.371432
-0.363199
-0.354388
-0.345091
-0.335421
-0.325502
-0.315452
-0.305374
-0.295352
-0.285446
-0.275697
-0.266126
-0.256743
-0.247553
-0.2385
-0.229864
-0.449978
-0.44562
-0.441614
-0.437592
-0.43335
-0.428937
-0.424365
-0.419594
-0.414559
-0.409169
-0.403324
-0.396921
-0.389877
-0.382144
-0.373717
-0.36464
-0.354999
-0.344914
-0.334517
-0.323942
-0.313312
-0.302726
-0.292262
-0.281972
-0.271889
-0.262029
-0.252397
-0.242988
-0.233764
-0.22495
-0.458682
-0.453976
-0.449698
-0.445439
-0.440958
-0.43629
-0.431432
-0.426322
-0.420875
-0.414984
-0.408538
-0.401437
-0.393609
-0.385031
-0.375728
-0.365778
-0.355299
-0.344432
-0.333326
-0.322121
-0.310939
-0.299874
-0.288995
-0.278346
-0.267952
-0.257822
-0.247957
-0.238347
-0.228964
-0.219984
-0.467591
-0.462537
-0.457992
-0.453498
-0.448773
-0.443838
-0.438667
-0.433178
-0.427262
-0.420801
-0.413678
-0.405802
-0.397122
-0.387642
-0.377426
-0.366585
-0.355266
-0.34363
-0.331838
-0.320032
-0.308327
-0.296811
-0.285542
-0.274556
-0.263871
-0.253491
-0.243409
-0.233613
-0.224084
-0.214951
-0.476655
-0.471257
-0.466451
-0.461724
-0.456751
-0.451532
-0.446017
-0.440101
-0.433655
-0.426552
-0.418676
-0.409951
-0.400355
-0.389928
-0.378771
-0.367031
-0.35488
-0.342495
-0.330044
-0.317664
-0.305465
-0.293524
-0.28189
-0.27059
-0.259633
-0.249019
-0.238737
-0.228771
-0.21911
-0.209835
-0.485815
-0.480081
-0.475021
-0.470063
-0.464835
-0.459312
-0.453418
-0.447022
-0.439982
-0.432162
-0.423457
-0.413816
-0.403249
-0.39184
-0.379726
-0.367088
-0.35412
-0.341012
-0.327929
-0.315006
-0.302341
-0.290001
-0.278025
-0.266431
-0.255222
-0.244392
-0.233926
-0.223805
-0.214025
-0.204623
-0.495003
-0.488945
-0.48364
-0.478454
-0.472962
-0.46711
-0.460796
-0.453866
-0.446162
-0.437552
-0.427948
-0.417328
-0.405747
-0.39333
-0.380254
-0.366729
-0.352966
-0.339162
-0.325479
-0.312043
-0.29894
-0.286227
-0.273932
-0.262065
-0.250623
-0.239594
-0.228961
-0.218702
-0.208816
-0.199301
-0.504146
-0.497778
-0.492238
-0.486825
-0.481058
-0.474851
-0.468072
-0.460547
-0.452111
-0.442639
-0.432069
-0.42042
-0.407792
-0.394353
-0.38032
-0.365926
-0.351398
-0.33693
-0.322679
-0.30876
-0.295248
-0.282187
-0.269596
-0.257476
-0.24582
-0.234611
-0.223827
-0.213447
-0.20347
-0.193856
-0.51316
-0.5065
-0.500737
-0.495099
-0.489043
-0.482449
-0.475159
-0.466978
-0.45774
-0.447338
-0.435746
-0.423026
-0.409328
-0.394865
-0.37989
-0.364654
-0.349392
-0.334295
-0.31951
-0.30514
-0.291247
-0.277863
-0.264999
-0.252648
-0.240798
-0.229427
-0.218511
-0.208027
-0.197973
-0.188277
-0.521957
-0.515026
-0.509052
-0.503188
-0.496828
-0.489814
-0.481961
-0.473062
-0.462957
-0.451565
-0.438901
-0.42508
-0.410302
-0.394826
-0.378931
-0.362887
-0.346927
-0.331238
-0.315955
-0.301166
-0.28692
-0.273239
-0.260125
-0.247565
-0.235541
-0.224028
-0.212998
-0.202429
-0.192312
-0.182553
-0.53044
-0.523263
-0.517092
-0.511002
-0.504319
-0.496849
-0.488382
-0.478703
-0.467669
-0.455233
-0.44146
-0.42652
-0.410666
-0.394196
-0.377413
-0.360597
-0.343981
-0.327739
-0.311993
-0.296818
-0.282249
-0.268298
-0.254958
-0.242212
-0.230035
-0.2184
-0.207276
-0.196641
-0.186477
-0.176673
-0.538509
-0.531113
-0.524758
-0.51844
-0.511414
-0.50345
-0.494317
-0.483802
-0.471784
-0.45826
-0.443352
-0.427289
-0.410372
-0.392936
-0.375305
-0.357761
-0.340531
-0.323777
-0.307606
-0.292077
-0.277215
-0.263021
-0.249481
-0.236572
-0.224265
-0.21253
-0.201333
-0.19065
-0.180457
-0.170628
-0.54606
-0.538473
-0.53195
-0.525399
-0.518009
-0.509513
-0.499665
-0.48826
-0.47521
-0.460566
-0.44451
-0.42733
-0.409376
-0.391013
-0.372578
-0.354353
-0.336556
-0.319332
-0.302774
-0.286926
-0.271802
-0.257393
-0.243679
-0.230631
-0.218218
-0.206404
-0.195156
-0.184448
-0.174243
-0.164413
-0.552984
-0.545238
-0.53856
-0.531773
-0.523997
-0.51493
-0.504319
-0.491977
-0.477858
-0.462073
-0.444869
-0.426592
-0.407637
-0.388392
-0.369204
-0.35035
-0.332032
-0.314383
-0.297477
-0.281346
-0.265991
-0.251397
-0.237537
-0.224376
-0.211881
-0.200012
-0.188734
-0.178022
-0.167825
-0.158017
-0.559171
-0.551299
-0.54448
-0.537453
-0.529268
-0.519594
-0.508178
-0.494859
-0.479645
-0.462711
-0.444371
-0.425029
-0.405117
-0.385044
-0.365158
-0.345728
-0.326941
-0.308911
-0.291697
-0.275319
-0.259767
-0.245018
-0.23104
-0.217794
-0.205241
-0.193341
-0.182057
-0.171362
-0.161194
-0.151434
-0.564511
-0.556547
-0.549603
-0.542328
-0.533712
-0.523398
-0.51114
-0.496815
-0.480491
-0.462412
-0.442962
-0.422597
-0.401781
-0.380939
-0.360415
-0.340466
-0.32126
-0.302896
-0.285417
-0.268829
-0.253115
-0.238243
-0.224176
-0.210871
-0.198288
-0.186382
-0.175115
-0.164461
-0.154341
-0.144654
-0.568896
-0.560874
-0.553817
-0.546291
-0.537223
-0.526239
-0.51311
-0.497759
-0.480321
-0.461117
-0.440594
-0.419257
-0.3976
-0.376052
-0.354953
-0.334542
-0.314972
-0.296322
-0.27862
-0.261861
-0.24602
-0.231058
-0.216932
-0.203598
-0.191011
-0.179125
-0.1679
-0.157308
-0.147262
-0.137674
-0.572217
-0.564173
-0.557018
-0.549234
-0.539695
-0.528017
-0.513995
-0.49761
-0.479069
-0.458769
-0.437222
-0.414975
-0.392544
-0.37036
-0.348751
-0.32794
-0.30806
-0.289172
-0.271291
-0.254402
-0.23847
-0.223452
-0.2093
-0.195965
-0.183401
-0.171561
-0.160402
-0.149897
-0.13995
-0.13049
-0.574372
-0.566341
-0.559101
-0.551055
-0.54103
-0.528639
-0.513712
-0.496295
-0.476674
-0.455321
-0.432808
-0.409722
-0.38659
-0.363842
-0.341792
-0.320643
-0.300508
-0.281433
-0.263419
-0.24644
-0.230455
-0.215415
-0.201269
-0.187964
-0.175451
-0.163681
-0.15261
-0.142216
-0.132398
-0.123088
-0.575263
-0.567279
-0.559968
-0.551656
-0.541133
-0.528017
-0.512184
-0.49375
-0.473084
-0.450732
-0.427322
-0.403472
-0.379718
-0.356482
-0.33406
-0.312636
-0.292303
-0.273092
-0.254991
-0.237965
-0.221966
-0.206941
-0.192833
-0.179589
-0.167155
-0.155479
-0.144517
-0.134253
-0.124579
-0.11541
-0.574796
-0.566894
-0.559526
-0.550946
-0.539918
-0.526073
-0.509341
-0.489917
-0.468253
-0.444967
-0.420737
-0.396205
-0.371911
-0.348265
-0.325543
-0.303908
-0.283436
-0.264141
-0.246
-0.22897
-0.212997
-0.198023
-0.183988
-0.170836
-0.15851
-0.146954
-0.136124
-0.126005
-0.116458
-0.107333
-0.572889
-0.565102
-0.557689
-0.548842
-0.537306
-0.522736
-0.505124
-0.484748
-0.462144
-0.437998
-0.413032
-0.387905
-0.363156
-0.33918
-0.316231
-0.294451
-0.273898
-0.254572
-0.236439
-0.21945
-0.203543
-0.188658
-0.174731
-0.161703
-0.149515
-0.138107
-0.127436
-0.117488
-0.108052
-0.0988307
-0.569463
-0.561823
-0.554379
-0.545269
-0.533229
-0.517946
-0.499483
-0.478205
-0.454728
-0.429805
-0.404193
-0.378563
-0.353447
-0.32922
-0.306117
-0.284259
-0.263684
-0.24438
-0.226305
-0.209401
-0.193602
-0.178844
-0.165061
-0.152191
-0.14017
-0.128942
-0.11846
-0.108706
-0.0994025
-0.0903817
-0.564452
-0.55699
-0.54953
-0.540162
-0.527626
-0.511652
-0.492377
-0.470256
-0.445985
-0.420374
-0.39421
-0.368171
-0.342777
-0.318383
-0.2952
-0.273329
-0.252792
-0.233565
-0.215597
-0.198823
-0.183174
-0.168582
-0.154979
-0.142299
-0.130475
-0.119465
-0.109199
-0.0996531
-0.0905109
-0.0818471
-0.557798
-0.550544
-0.543082
-0.533465
-0.520449
-0.503814
-0.483776
-0.460881
-0.435901
-0.409697
-0.383081
-0.35673
-0.331148
-0.306668
-0.283479
-0.261662
-0.241223
-0.222127
-0.204315
-0.187718
-0.172262
-0.157876
-0.14449
-0.132036
-0.120447
-0.109667
-0.0996513
-0.0903408
-0.0814101
-0.073107
-0.549456
-0.542438
-0.534989
-0.525136
-0.511662
-0.494402
-0.47366
-0.450068
-0.424472
-0.397776
-0.370809
-0.344243
-0.318563
-0.29408
-0.270959
-0.249261
-0.228981
-0.210071
-0.192466
-0.176091
-0.160871
-0.146731
-0.133597
-0.121403
-0.110079
-0.0995646
-0.0898224
-0.080777
-0.0720899
-0.0641364
-0.53939
-0.532634
-0.525215
-0.515141
-0.501236
-0.483398
-0.462018
-0.437814
-0.4117
-0.384616
-0.357402
-0.330719
-0.305032
-0.280627
-0.257647
-0.236136
-0.216072
-0.197403
-0.180055
-0.16395
-0.149008
-0.135152
-0.122309
-0.110408
-0.0993798
-0.0891613
-0.0797195
-0.0709661
-0.0625445
-0.054942
-0.527577
-0.521107
-0.513733
-0.50346
-0.489157
-0.470794
-0.44885
-0.424126
-0.397596
-0.370231
-0.342873
-0.316172
-0.290568
-0.266322
-0.243555
-0.222294
-0.202507
-0.184136
-0.167094
-0.151304
-0.136682
-0.123151
-0.110634
-0.0990601
-0.0883579
-0.0784649
-0.0693502
-0.0609128
-0.0527748
-0.0455348
-0.514003
-0.507842
-0.500533
-0.490082
-0.475421
-0.456594
-0.434166
-0.409019
-0.382178
-0.35464
-0.327244
-0.300621
-0.275188
-0.25118
-0.228698
-0.207754
-0.188304
-0.170279
-0.153594
-0.138165
-0.123906
-0.110738
-0.0985836
-0.0873697
-0.0770241
-0.067485
-0.0587234
-0.0506244
-0.0427876
-0.0359258
-0.498668
-0.492838
-0.485611
-0.47501
-0.460036
-0.44081
-0.417984
-0.392514
-0.365471
-0.337868
-0.310539
-0.28409
-0.258915
-0.235222
-0.213097
-0.192532
-0.173476
-0.155851
-0.139572
-0.124548
-0.110694
-0.0979277
-0.0861711
-0.07535
-0.0653909
-0.0562332
-0.0478498
-0.0401106
-0.0325925
-0.0261257
-0.481583
-0.476103
-0.468979
-0.458258
-0.44302
-0.423466
-0.400333
-0.374643
-0.347508
-0.319949
-0.292787
-0.266607
-0.241774
-0.218474
-0.196772
-0.176648
-0.158042
-0.140871
-0.125045
-0.110471
-0.0970627
-0.084736
-0.0734121
-0.0630157
-0.0534727
-0.0447233
-0.0367424
-0.0293835
-0.0222016
-0.0161462
-0.462771
-0.457659
-0.450657
-0.43985
-0.424402
-0.404595
-0.381247
-0.355444
-0.328327
-0.30092
-0.274026
-0.248205
-0.223796
-0.200963
-0.17975
-0.160128
-0.142028
-0.125361
-0.110034
-0.0959539
-0.0830312
-0.0711811
-0.0603241
-0.0503839
-0.0412855
-0.0329708
-0.0254159
-0.0184574
-0.0116293
-0.00600094
-0.442265
-0.437538
-0.430679
-0.419821
-0.40422
-0.38424
-0.360773
-0.334963
-0.307976
-0.280824
-0.254291
-0.22892
-0.205015
-0.18272
-0.162062
-0.143
-0.125459
-0.109345
-0.0945635
-0.0810189
-0.0686208
-0.0572834
-0.0469265
-0.0374731
-0.0288474
-0.0209931
-0.0138874
-0.00734898
-0.000892275
0.00429488
-0.42011
-0.415781
-0.409089
-0.398218
-0.382524
-0.362452
-0.338967
-0.313264
-0.286507
-0.259693
-0.23363
-0.208794
-0.18547
-0.163781
-0.14374
-0.125295
-0.108364
-0.0928513
-0.0786589
-0.0656906
-0.0538547
-0.0430651
-0.0332407
-0.0243038
-0.0161783
-0.00880968
-0.00217564
0.0039231
0.00999054
0.0147236
-0.396362
-0.392443
-0.38594
-0.375096
-0.359372
-0.339294
-0.315899
-0.29041
-0.263928
-0.237606
-0.212094
-0.187873
-0.165203
-0.144187
-0.124821
-0.107046
-0.0907755
-0.0759096
-0.0623486
-0.0499956
-0.0387583
-0.02855
-0.0192893
-0.010898
-0.00329963
0.00355853
0.00969857
0.015338
0.0209972
0.0252634
-0.371084
-0.367585
-0.361294
-0.35052
-0.334834
-0.314841
-0.291625
-0.266381
-0.240393
-0.214612
-0.189735
-0.166207
-0.144261
-0.123979
-0.105345
-0.0882923
-0.0727285
-0.0585526
-0.0456631
-0.0339626
-0.0233584
-0.0137636
-0.00509672
0.00272103
0.00976602
0.0160891
0.0217129
0.0268727
0.0321018
0.0358846
-0.344354
-0.341279
-0.335225
-0.324566
-0.308988
-0.289159
-0.266161
-0.241362
-0.215912
-0.190769
-0.166611
-0.14385
-0.122693
-0.103203
-0.0853546
-0.0690722
-0.05426
-0.040815
-0.028635
-0.0176222
-0.00768373
0.00126705
0.00931166
0.016529
0.0229951
0.0287587
0.033844
0.038502
0.0432737
0.0465522
-0.316249
-0.313607
-0.307813
-0.297318
-0.281909
-0.262278
-0.239682
-0.215384
-0.19056
-0.166145
-0.142783
-0.120858
-0.100551
-0.0819094
-0.0648953
-0.0494285
-0.0354095
-0.0227338
-0.0112988
-0.00100646
0.00823565
0.0165139
0.0239095
0.030501
0.0363635
0.0415437
0.0460676
0.0501993
0.0544801
0.0572359
-0.286849
-0.28466
-0.279148
-0.268858
-0.253648
-0.234371
-0.212231
-0.188524
-0.164416
-0.14081
-0.118317
-0.097291
-0.0778914
-0.0601484
-0.0440152
-0.0294061
-0.0162189
-0.00434814
0.00630912
0.0158507
0.0243683
0.0319478
0.0386696
0.0446117
0.0498475
0.0544206
0.0583601
0.0619406
0.0656952
0.0679101
-0.256234
-0.254544
-0.249323
-0.239262
-0.224364
-0.205495
-0.183894
-0.160868
-0.137559
-0.114837
-0.0932796
-0.073212
-0.0547719
-0.0379746
-0.0227649
-0.00905208
0.00326786
0.0143012
0.0241508
0.0329138
0.0406815
0.0475385
0.0535643
0.0588358
0.0634229
0.067366
0.0707006
0.0737105
0.0768992
0.0785099
-0.224493
-0.223384
-0.218438
-0.208661
-0.194131
-0.175743
-0.154768
-0.132504
-0.11007
-0.0883013
-0.0677413
-0.0486864
-0.0312535
-0.0154448
-0.00119698
0.0115843
0.023005
0.0331715
0.0421864
0.0501464
0.0571414
0.063255
0.0685656
0.0731478
0.0770661
0.0803581
0.0830734
0.0854982
0.0880447
0.0888834
-0.191805
-0.191245
-0.186606
-0.177158
-0.163052
-0.145221
-0.124947
-0.103522
-0.0820345
-0.0612827
-0.0417757
-0.0237821
-0.00739957
0.00738232
0.0206336
0.0324521
0.0429448
0.0522184
0.0603749
0.0675101
0.0737128
0.0790655
0.083645
0.0875226
0.0907556
0.0933819
0.0954741
0.0972873
0.0990229
0.0988734
-0.158327
-0.158204
-0.15394
-0.144864
-0.131238
-0.114031
-0.0945333
-0.0740178
-0.0535404
-0.0338625
-0.0154581
0.00143069
0.0167248
0.0304459
0.0426702
0.0534983
0.0630381
0.0713961
0.0786736
0.0849655
0.0903595
0.0949368
0.0987731
0.101935
0.104474
0.106435
0.107918
0.109078
0.109761
0.108494
-0.124102
-0.124429
-0.120558
-0.111894
-0.0988012
-0.0822831
-0.0636279
-0.0440859
-0.0246771
-0.00612378
0.011134
0.0268801
0.0410526
0.0536837
0.0648547
0.0746687
0.0832342
0.0906572
0.0970384
0.102472
0.107043
0.110834
0.113918
0.116358
0.118202
0.119516
0.120422
0.120897
0.120401
0.118181
-0.0892528
-0.090044
-0.0865805
-0.0783638
-0.0658571
-0.0500873
-0.0323357
-0.0138249
0.00446407
0.0218484
0.0379218
0.0524926
0.0655155
0.0770317
0.0871275
0.0959078
0.103481
0.109953
0.115424
0.119986
0.123725
0.12672
0.129045
0.130758
0.131912
0.132597
0.132936
0.132672
0.130969
0.129954
-0.0539122
-0.0551735
-0.0521316
-0.0443965
-0.0325232
-0.0175561
-0.000762908
0.016666
0.0337904
0.0499678
0.0648249
0.0781936
0.0900437
0.100425
0.109428
0.117159
0.123726
0.129235
0.133784
0.137466
0.140364
0.142557
0.144117
0.145102
0.145568
0.145618
0.14534
0.144387
0.142225
0.141807
-0.0182115
-0.0199442
-0.0173374
-0.0101153
0.00108114
0.0151967
0.0309831
0.047286
0.0632082
0.0781473
0.0917621
0.103907
0.114567
0.123798
0.131694
0.138364
0.143915
0.148452
0.152072
0.154867
0.156919
0.158306
0.159098
0.159353
0.159134
0.158539
0.157622
0.156038
0.153517
0.152997
0.0177175
0.0155145
0.0176739
0.0243545
0.0348353
0.0480563
0.0627943
0.0779342
0.0926231
0.106299
0.118652
0.129558
0.139014
0.147084
0.153865
0.159466
0.163994
0.167553
0.17024
0.172144
0.173348
0.173927
0.17395
0.173476
0.17257
0.171325
0.169777
0.167617
0.164729
0.163846
0.053742
0.0510716
0.0527731
0.0588871
0.0686181
0.0809078
0.0945623
0.108509
0.121941
0.134335
0.145412
0.155068
0.163313
0.170216
0.175877
0.180405
0.183908
0.186488
0.18824
0.189253
0.189608
0.189379
0.188635
0.187434
0.185841
0.183944
0.181769
0.179043
0.175739
0.174397
0.0897289
0.0865956
0.0878307
0.0933563
0.102308
0.113636
0.126179
0.13891
0.151067
0.162167
0.17196
0.180362
0.187392
0.193127
0.197668
0.201124
0.203603
0.205205
0.206024
0.206149
0.205658
0.204625
0.203116
0.201191
0.198913
0.196366
0.19357
0.19028
0.186526
0.18468
0.125545
0.121955
0.122717
0.127636
0.135786
0.146126
0.157537
0.169035
0.179907
0.189708
0.198215
0.205363
0.211181
0.215751
0.219176
0.221565
0.223024
0.223653
0.223545
0.222786
0.221455
0.219623
0.217356
0.214712
0.211753
0.20856
0.205147
0.201293
0.197071
0.194696
0.161059
0.157019
0.157304
0.161602
0.16893
0.178266
0.188529
0.198786
0.208368
0.216871
0.224096
0.229996
0.234609
0.238022
0.240338
0.241668
0.242116
0.241781
0.240755
0.239122
0.236958
0.234336
0.231318
0.227963
0.22433
0.220496
0.216472
0.212056
0.207358
0.20444
0.196138
0.191658
0.191463
0.19513
0.201623
0.209942
0.21905
0.228063
0.23636
0.243569
0.249522
0.254185
0.257606
0.259873
0.261095
0.261378
0.260827
0.25954
0.257607
0.255111
0.252127
0.248725
0.244967
0.240909
0.236611
0.232146