/*--------------------------------*- C++ -*----------------------------------*\
  =========                 |
  \\      /  F ield         | OpenFOAM: The Open Source CFD Toolbox
   \\    /   O peration     | Website:  https://openfoam.org
    \\  /    A nd           | Version:  7
     \\/     M anipulation  |
\*---------------------------------------------------------------------------*/
FoamFile
{
    version     2.0;
    format      ascii;
    class       volVectorField;
    location    "1";
    object      U;
}
// * * * * * * * * * * * * * * * * * * * * * * * * * * * * * * * * * * * * * //

dimensions      [0 1 -1 0 0 0 0];

internalField   nonuniform List<vector> 
40000
(
(-0.00159864 0.00236876 -1.75805e-21)
(-0.00887632 0.0058116 5.60883e-21)
(-0.0230457 0.00815987 -3.60718e-21)
(-0.0411803 0.00957449 -1.42757e-23)
(-0.0613992 0.0101952 -1.53697e-23)
(-0.082349 0.0101465 1.22062e-24)
(-0.102802 0.00953903 -6.07352e-21)
(-0.12168 0.00846772 1.43728e-21)
(-0.138057 0.00701224 -4.06906e-21)
(-0.151137 0.00523975 -1.26475e-21)
(-0.160235 0.00320832 0)
(-0.164769 0.000970688 -4.2277e-21)
(-0.164254 -0.00142233 0)
(-0.158311 -0.00391904 0)
(-0.146675 -0.0064653 -2.89411e-21)
(-0.129201 -0.00900357 2.43618e-21)
(-0.105884 -0.0114734 -9.00731e-22)
(-0.0768653 -0.0138127 1.64718e-22)
(-0.0424407 -0.0159603 6.44368e-22)
(-0.00304426 -0.0178588 0)
(0.0407376 -0.0194555 -1.42225e-22)
(0.0881836 -0.020711 -1.59128e-22)
(0.138488 -0.0215974 -1.82139e-22)
(0.190774 -0.0221021 3.7068e-22)
(0.244137 -0.022229 -1.18657e-21)
(0.297685 -0.021998 -1.0324e-21)
(0.350573 -0.0214437 2.29932e-21)
(0.40206 -0.020613 -2.406e-21)
(0.451436 -0.0195574 6.18291e-22)
(0.498506 -0.0183969 1.16907e-21)
(-0.00182323 0.00706854 0)
(-0.00936584 0.017349 3.82169e-21)
(-0.0236078 0.0243677 7.3176e-21)
(-0.0416801 0.0286011 -6.98373e-21)
(-0.0617382 0.0304636 -3.38754e-21)
(-0.0824536 0.030325 1.28967e-20)
(-0.102618 0.0285147 -3.04969e-21)
(-0.121167 0.0253153 -5.77031e-21)
(-0.137186 0.0209649 -7.33093e-23)
(-0.149886 0.0156639 -1.51716e-20)
(-0.158589 0.00958636 4.72577e-21)
(-0.162717 0.00289005 1.69449e-20)
(-0.161791 -0.00427264 -7.61294e-21)
(-0.155436 -0.0117466 2.61389e-22)
(-0.143391 -0.0193695 -2.71545e-21)
(-0.125521 -0.0269685 1.69214e-22)
(-0.101825 -0.0343621 0)
(-0.0724559 -0.041364 0)
(-0.0377174 -0.0477902 4.75243e-21)
(0.00194713 -0.0534684 0)
(0.0459404 -0.0582411 6.223e-22)
(0.0935304 -0.06199 -3.71727e-22)
(0.143904 -0.0646319 2.56915e-22)
(0.196181 -0.0661299 0)
(0.249455 -0.0664964 -1.68206e-21)
(0.302837 -0.0657926 1.92273e-21)
(0.355489 -0.064123 -2.29931e-21)
(0.406683 -0.0616285 2.40599e-21)
(0.455715 -0.0584645 -2.43385e-21)
(0.50245 -0.0549904 6.84344e-21)
(-0.00226582 0.0116564 -7.29879e-21)
(-0.0103312 0.0286319 -7.5555e-21)
(-0.0247166 0.0402432 0)
(-0.0426656 0.0472639 0)
(-0.0624054 0.0503686 0)
(-0.0826558 0.0501621 6.70395e-21)
(-0.102247 0.0471841 0)
(-0.120142 0.0418996 5.81818e-21)
(-0.135448 0.034701 1.09299e-20)
(-0.147392 0.0259205 1.01856e-20)
(-0.155308 0.015846 0)
(-0.158627 0.00474004 1.95501e-22)
(-0.15688 -0.00714397 -1.58043e-20)
(-0.149702 -0.0195472 1.40068e-20)
(-0.136845 -0.0321994 5.9001e-21)
(-0.118185 -0.0448121 4.73121e-21)
(-0.0937368 -0.0570823 -4.46224e-21)
(-0.0636693 -0.0686989 6.72728e-21)
(-0.0283081 -0.0793543 -9.81349e-21)
(0.0118863 -0.0887599 -7.71339e-22)
(0.0562954 -0.0966559 -4.75297e-21)
(0.104166 -0.102845 1.95123e-21)
(0.154672 -0.107191 0)
(0.206924 -0.109633 0)
(0.260014 -0.110198 -1.22238e-21)
(0.313058 -0.108988 0)
(0.365235 -0.106183 0)
(0.415842 -0.102019 0)
(0.464187 -0.0967549 4.49571e-21)
(0.510259 -0.0909887 -4.57342e-21)
(-0.00291343 0.0160613 7.29879e-21)
(-0.0117457 0.0394974 -1.10082e-22)
(-0.0263422 0.0555725 1.81592e-22)
(-0.0441095 0.0653273 -1.46329e-20)
(-0.0633791 0.069674 -1.39044e-20)
(-0.0829413 0.0694344 1.30957e-22)
(-0.101682 0.0653458 -2.54931e-20)
(-0.118606 0.0580463 1.21393e-20)
(-0.132852 0.0480768 -2.2839e-20)
(-0.14367 0.0358969 2.13298e-20)
(-0.150412 0.021907 -9.5544e-21)
(-0.152524 0.00647253 1.83539e-20)
(-0.149553 -0.0100525 1.58041e-20)
(-0.141148 -0.0273052 5.18042e-22)
(-0.127079 -0.0449078 -1.26743e-20)
(-0.107241 -0.0624557 0)
(-0.0816738 -0.0795234 9.27087e-22)
(-0.0505704 -0.0956748 7.10969e-21)
(-0.0142867 -0.110479 -8.36515e-22)
(0.0266875 -0.123521 4.31353e-22)
(0.0717026 -0.134455 5.07266e-21)
(0.119976 -0.142997 -1.95121e-21)
(0.170663 -0.148961 0)
(0.22286 -0.152269 -1.06018e-21)
(0.275657 -0.152964 -3.25988e-22)
(0.328184 -0.151197 9.99061e-21)
(0.379643 -0.147225 -3.61118e-21)
(0.42937 -0.141382 -8.22941e-21)
(0.476691 -0.134034 -4.49568e-21)
(0.521776 -0.126012 -4.32789e-21)
(-0.00374727 0.0202169 3.09121e-20)
(-0.0135702 0.0497927 -1.61695e-20)
(-0.0284403 0.0701534 1.54116e-20)
(-0.0459716 0.082567 1.47403e-20)
(-0.064628 0.0881525 0)
(-0.0832897 0.0879255 -2.77708e-20)
(-0.100914 0.0828029 -1.35827e-20)
(-0.116562 0.0735836 -2.48958e-20)
(-0.129411 0.0609485 1.1206e-20)
(-0.138742 0.0454798 6.94396e-22)
(-0.143932 0.027687 2.04249e-20)
(-0.144449 0.00803739 1.8659e-20)
(-0.139857 -0.0130154 -3.31822e-20)
(-0.129828 -0.0350077 1.59291e-20)
(-0.114157 -0.057451 -6.33607e-22)
(-0.0927636 -0.0798238 0)
(-0.0657204 -0.101578 -8.96422e-21)
(-0.0332574 -0.122151 -1.54804e-20)
(0.00423823 -0.140986 1.71135e-20)
(0.0462255 -0.157547 4.05598e-21)
(0.0920131 -0.171398 0)
(0.140793 -0.182172 -3.4527e-21)
(0.191688 -0.189636 0)
(0.24378 -0.193704 2.89208e-21)
(0.296161 -0.194438 -3.9519e-21)
(0.347979 -0.192047 -7.80732e-22)
(0.398469 -0.186868 -6.6632e-21)
(0.447023 -0.179339 1.23584e-20)
(0.49299 -0.169932 -7.42359e-21)
(0.536777 -0.159706 -3.91169e-21)
(-0.00474343 0.0240638 -1.56697e-20)
(-0.0157549 0.0593788 1.63948e-20)
(-0.0309547 0.0837992 -2.34525e-22)
(-0.0482002 0.0987731 -4.67364e-20)
(-0.066111 0.105589 0)
(-0.0836739 0.105428 2.77705e-20)
(-0.0999316 0.0993647 -2.76699e-20)
(-0.114011 0.0883429 5.04591e-20)
(-0.12514 0.0731736 0)
(-0.132637 0.0545547 -2.20234e-20)
(-0.135909 0.0331009 -2.04245e-20)
(-0.134452 0.00937934 -1.87466e-20)
(-0.127855 -0.0160568 -5.24486e-20)
(-0.115817 -0.0426485 8.05087e-22)
(-0.0981624 -0.0697907 2.35681e-22)
(-0.0748475 -0.0968461 1.20464e-21)
(-0.0459862 -0.123143 3.10105e-20)
(-0.0118537 -0.147992 -1.33399e-21)
(0.0271172 -0.170704 1.25692e-21)
(0.0703289 -0.190638 -6.98478e-21)
(0.117038 -0.207249 6.27104e-22)
(0.1664 -0.220101 6.36343e-21)
(0.217503 -0.228921 -7.19178e-21)
(0.269417 -0.233616 -3.83354e-22)
(0.321238 -0.23428 0)
(0.37214 -0.231185 0)
(0.421405 -0.224757 6.66311e-21)
(0.468493 -0.215538 -6.46241e-21)
(0.512786 -0.204111 7.73602e-21)
(0.554977 -0.19175 0)
(-0.0058738 0.0275509 -1.6791e-20)
(-0.0182408 0.0681334 0)
(-0.033818 0.096343 1.6323e-20)
(-0.0507333 0.113755 9.59431e-20)
(-0.0677793 0.121785 -3.05134e-20)
(-0.0840617 0.121747 0)
(-0.0987202 0.114848 -1.0133e-21)
(-0.110958 0.10216 2.62447e-20)
(-0.12006 0.0846108 -2.49211e-20)
(-0.125391 0.0630056 0)
(-0.126394 0.0380598 0)
(-0.122595 0.0104365 -4.0883e-20)
(-0.113622 -0.019215 5.33012e-20)
(-0.0992052 -0.0502295 -1.67847e-20)
(-0.0791993 -0.0818958 0)
(-0.0536122 -0.113459 2.38419e-20)
(-0.0226085 -0.144123 -2.30342e-20)
(0.013485 -0.173069 1.421e-20)
(0.0541732 -0.199474 -2.85545e-20)
(0.0987921 -0.222594 -3.27002e-20)
(0.146542 -0.241779 7.04552e-21)
(0.196531 -0.256526 3.95266e-21)
(0.247815 -0.26653 7.44112e-22)
(0.299449 -0.2717 0)
(0.350543 -0.272171 3.78289e-22)
(0.400309 -0.268287 0)
(0.448084 -0.260569 0)
(0.493419 -0.249665 1.18298e-20)
(0.535732 -0.236271 -8.10425e-22)
(0.576048 -0.221859 1.87372e-20)
(-0.00710717 0.0306364 1.6791e-20)
(-0.0209617 0.075954 3.65966e-20)
(-0.0369546 0.107641 3.52742e-20)
(-0.0535008 0.127343 -3.25549e-20)
(-0.0695767 0.136559 0)
(-0.0844156 0.136701 0)
(-0.097263 0.129082 2.83154e-20)
(-0.107406 0.114878 -2.729e-20)
(-0.114195 0.0951213 -4.73458e-22)
(-0.117046 0.0707162 4.96027e-20)
(-0.115446 0.042472 0)
(-0.10896 0.0111447 4.08819e-20)
(-0.0972517 -0.022522 0)
(-0.0800941 -0.0577555 0)
(-0.0573903 -0.0937425 2.09633e-21)
(-0.0291991 -0.129609 2.79329e-20)
(0.00425153 -0.164432 -2.1649e-20)
(0.0425727 -0.197255 4.04018e-20)
(0.0851946 -0.227141 -1.41687e-20)
(0.131374 -0.253228 3.60235e-20)
(0.180252 -0.274769 0)
(0.230881 -0.291202 0)
(0.282284 -0.302195 8.73496e-21)
(0.333508 -0.307673 0)
(0.383686 -0.307818 -2.54387e-21)
(0.432079 -0.303058 7.05337e-22)
(0.478099 -0.294013 -4.35755e-21)
(0.521398 -0.281443 4.00768e-21)
(0.561442 -0.266152 -1.09113e-20)
(0.599624 -0.249794 -1.83202e-20)
(-0.00841039 0.033289 0)
(-0.0238468 0.0827597 -3.65965e-20)
(-0.0402824 0.117575 1.48863e-21)
(-0.0564257 0.139394 0)
(-0.0714411 0.149754 -6.67828e-20)
(-0.0846939 0.150128 -4.43225e-23)
(-0.0955405 0.141905 3.00051e-20)
(-0.103359 0.126346 0)
(-0.10757 0.10457 2.63864e-20)
(-0.10765 0.0775698 -4.96013e-20)
(-0.103132 0.0462433 0)
(-0.0936287 0.0114353 0)
(-0.0788475 -0.0260166 -3.949e-20)
(-0.0586107 -0.0652422 3.73324e-20)
(-0.0328787 -0.105317 -3.16894e-20)
(-0.00177215 -0.14525 0)
(0.0344123 -0.183988 -2.79846e-20)
(0.0752002 -0.220443 -6.16825e-20)
(0.119937 -0.253563 2.61045e-21)
(0.1678 -0.282365 2.55583e-21)
(0.217857 -0.306015 1.15856e-20)
(0.269103 -0.323899 1.27751e-20)
(0.320529 -0.335668 -2.07357e-20)
(0.371184 -0.341272 6.84126e-21)
(0.420234 -0.340957 3.4821e-22)
(0.467008 -0.335236 2.27281e-21)
(0.511003 -0.324842 1.75891e-21)
(0.551996 -0.310638 -2.76665e-21)
(0.589504 -0.293543 0)
(0.62532 -0.275361 0)
(-0.0097496 0.0354884 3.77527e-20)
(-0.0268227 0.088493 1.08e-21)
(-0.0437157 0.126055 1.57541e-21)
(-0.0594267 0.149792 -7.27497e-20)
(-0.0733061 0.161237 6.80569e-20)
(-0.0848508 0.161886 0)
(-0.093531 0.153173 0)
(-0.0988187 0.136423 5.92723e-20)
(-0.100213 0.112826 -5.62825e-20)
(-0.0972509 0.0834504 1.48992e-21)
(-0.0895235 0.0492754 1.00637e-19)
(-0.0766943 0.0112305 4.54959e-20)
(-0.0585231 -0.0297562 -8.47384e-20)
(-0.0348898 -0.0727167 3.94144e-20)
(-0.00582099 -0.116617 3.36797e-20)
(0.0284894 -0.160348 -3.1789e-20)
(0.0676622 -0.202725 5.14668e-20)
(0.111127 -0.242539 6.87701e-20)
(0.158131 -0.278608 3.69236e-20)
(0.207765 -0.309842 1.13552e-20)
(0.259013 -0.335328 -2.62086e-20)
(0.310814 -0.354405 0)
(0.362134 -0.366723 3.21305e-21)
(0.412033 -0.372267 1.21322e-20)
(0.459725 -0.371356 3.00551e-21)
(0.504623 -0.364602 -7.23666e-21)
(0.54633 -0.352847 -4.12359e-22)
(0.58476 -0.337064 -2.8853e-21)
(0.619491 -0.318278 0)
(0.652737 -0.298412 6.51414e-21)
(-0.0110915 0.0372252 3.93152e-20)
(-0.029816 0.09312 -8.07542e-20)
(-0.0471673 0.13302 7.02012e-22)
(-0.06242 0.158452 -1.53892e-21)
(-0.0751021 0.170901 0)
(-0.0848376 0.171853 0)
(-0.0912098 0.162759 0)
(-0.0937871 0.144981 -6.17981e-20)
(-0.092149 0.119765 5.86806e-20)
(-0.0859014 0.0882442 -5.41241e-20)
(-0.0746962 0.0514688 -1.02257e-19)
(-0.0582557 0.0104485 9.4974e-22)
(-0.0364001 -0.0338011 9.11111e-20)
(-0.0090757 -0.0802155 4.20073e-20)
(0.0236131 -0.127653 0)
(0.0613894 -0.174881 -6.78269e-20)
(0.103777 -0.220594 8.69995e-20)
(0.150094 -0.263456 -7.32544e-20)
(0.199483 -0.302161 -4.40539e-20)
(0.250933 -0.335517 -1.03228e-19)
(0.303345 -0.362539 4.98608e-21)
(0.355602 -0.382535 4.6277e-21)
(0.406652 -0.395161 3.49424e-21)
(0.455581 -0.400456 -1.77485e-20)
(0.501669 -0.398821 2.31041e-20)
(0.544432 -0.390973 -3.7667e-21)
(0.583597 -0.377868 0)
(0.61923 -0.36058 2.88525e-21)
(0.650975 -0.34024 -2.52181e-21)
(0.68148 -0.318847 -8.10879e-21)
(-0.0124042 0.0385008 0)
(-0.0327555 0.0966308 -4.26325e-20)
(-0.0505514 0.13844 4.073e-20)
(-0.0653215 0.165319 7.73492e-20)
(-0.0767573 0.17867 3.73933e-20)
(-0.0846021 0.179934 -7.10976e-20)
(-0.0885485 0.170554 -1.34817e-21)
(-0.0882612 0.151907 -6.44254e-20)
(-0.0834024 0.125274 0)
(-0.0736507 0.0918415 5.89687e-20)
(-0.0587249 0.0527237 0)
(-0.0384131 0.00900397 0)
(-0.0126042 -0.0382185 -9.40323e-20)
(0.0186792 -0.087784 -8.43037e-20)
(0.0552479 -0.138443 1.20435e-19)
(0.0967216 -0.188843 6.78239e-20)
(0.142513 -0.23756 -4.14433e-22)
(0.191825 -0.283127 -5.57109e-20)
(0.243676 -0.324123 8.56529e-20)
(0.296947 -0.359263 -3.26095e-26)
(0.350453 -0.387501 6.43033e-20)
(0.403027 -0.408124 0)
(0.453611 -0.420815 0)
(0.501333 -0.425675 2.78568e-20)
(0.545561 -0.423199 -2.21535e-20)
(0.585934 -0.414214 1.5318e-20)
(0.622318 -0.39979 -7.11256e-21)
(0.654945 -0.381096 3.04379e-21)
(0.683533 -0.359359 2.40447e-21)
(0.711162 -0.336613 -5.99288e-21)
(-0.0136589 0.0393267 -4.39172e-20)
(-0.0355745 0.0990385 0)
(-0.0537854 0.142313 0)
(-0.0680483 0.17037 -8.28921e-20)
(-0.0781992 0.184496 1.56765e-19)
(-0.0840897 0.186062 -7.39509e-20)
(-0.0855148 0.176473 -1.38129e-21)
(-0.0822335 0.157102 6.70179e-20)
(-0.0739915 0.129249 0)
(-0.0605436 0.0941397 1.04736e-21)
(-0.0416805 0.0529428 -4.90878e-22)
(-0.0172636 0.00681014 -1.0603e-19)
(0.0127414 -0.0430804 -3.029e-21)
(0.0482251 -0.0954746 -4.46238e-20)
(0.0888994 -0.149017 -1.23267e-19)
(0.13427 -0.202242 7.20923e-20)
(0.183623 -0.253598 -6.79937e-20)
(0.236029 -0.301499 1.1385e-19)
(0.290375 -0.344415 -1.02178e-19)
(0.345427 -0.380976 -8.16329e-20)
(0.399915 -0.410091 -8.91606e-22)
(0.452628 -0.431042 -2.89352e-20)
(0.50252 -0.443551 1.83083e-20)
(0.548781 -0.447797 1.05456e-21)
(0.590889 -0.44438 -3.6275e-20)
(0.628625 -0.434237 -1.63972e-20)
(0.662012 -0.418548 1.76957e-20)
(0.691457 -0.398567 -9.15167e-21)
(0.716756 -0.375611 1.17304e-22)
(0.741413 -0.351701 -2.34955e-21)
(-0.01483 0.0397237 1.33673e-19)
(-0.0382122 0.100377 -4.61649e-20)
(-0.0567925 0.144666 -8.85001e-20)
(-0.0705205 0.173613 2.53459e-19)
(-0.0793555 0.188364 3.02545e-21)
(-0.0832426 0.190196 0)
(-0.082071 0.180455 0)
(-0.0756892 0.160489 6.96605e-20)
(-0.0639265 0.131602 -6.48417e-20)
(-0.0466162 0.0950462 6.27046e-20)
(-0.0236252 0.0520346 -5.88358e-20)
(0.00510432 0.00377983 -1.12548e-19)
(0.0395198 -0.048462 2.04138e-19)
(0.0794156 -0.103347 -4.8282e-20)
(0.12439 -0.159416 8.08739e-20)
(0.173821 -0.21509 -1.56961e-19)
(0.226853 -0.268696 4.60466e-21)
(0.28241 -0.318534 4.39939e-21)
(0.339237 -0.362973 1.00646e-19)
(0.395983 -0.400574 -4.40856e-21)
(0.451294 -0.430213 0)
(0.503933 -0.451185 0)
(0.55288 -0.463271 -2.78699e-20)
(0.597413 -0.466738 -6.81717e-20)
(0.637142 -0.462297 3.85191e-20)
(0.672011 -0.450998 -3.91253e-21)
(0.702212 -0.434124 -2.46502e-20)
(0.728338 -0.412997 1.21979e-20)
(0.750259 -0.389019 -5.7034e-21)
(0.771891 -0.364143 3.40627e-22)
(-0.0158963 0.0397204 0)
(-0.0406157 0.100701 0)
(-0.0595025 0.145554 9.35956e-20)
(-0.0726628 0.175087 -1.73837e-19)
(-0.0801543 0.190289 1.49734e-21)
(-0.0820002 0.192326 -7.97596e-20)
(-0.0781731 0.182466 2.29113e-19)
(-0.0686047 0.162015 -2.18003e-19)
(-0.053206 0.132264 -2.63618e-23)
(-0.0318911 0.0944808 -6.51031e-20)
(-0.00460882 0.0499147 -1.8651e-19)
(0.0286141 -0.000167485 1.71222e-19)
(0.0676277 -0.0544358 0)
(0.112116 -0.111461 0)
(0.161551 -0.169682 8.93498e-20)
(0.215167 -0.227409 1.65707e-19)
(0.271951 -0.282853 -7.61581e-20)
(0.330667 -0.334207 0)
(0.389912 -0.379753 -5.35826e-20)
(0.448214 -0.417994 5.36556e-21)
(0.504147 -0.447794 -4.01598e-20)
(0.556461 -0.468483 0)
(0.604188 -0.479913 -2.88508e-20)
(0.646719 -0.482455 2.21415e-20)
(0.683819 -0.476932 -2.70902e-20)
(0.715615 -0.464502 6.53431e-20)
(0.742479 -0.446544 -4.33161e-21)
(0.765188 -0.424434 1.22716e-20)
(0.783689 -0.399642 0)
(0.802281 -0.374007 -3.2104e-21)
(-0.0168409 0.0393513 -9.70929e-20)
(-0.0427407 0.100079 9.98144e-20)
(-0.0618535 0.145053 1.68115e-21)
(-0.0744049 0.174858 -9.09255e-20)
(-0.0805253 0.190317 0)
(-0.0802987 0.192471 -1.66502e-19)
(-0.073769 0.182499 1.30115e-21)
(-0.0609449 0.161648 7.23158e-20)
(-0.0418155 0.131185 8.82516e-24)
(-0.0163754 0.092381 7.38739e-23)
(0.0153398 0.0465135 1.89121e-19)
(0.05321 -0.00510187 5.97098e-20)
(0.0969794 -0.0610693 5.79838e-20)
(0.146208 -0.119874 -1.02858e-19)
(0.200227 -0.179859 9.71587e-20)
(0.25811 -0.239224 -8.49535e-20)
(0.318672 -0.296075 7.56089e-20)
(0.380504 -0.348504 -7.12587e-20)
(0.44205 -0.39472 0)
(0.501719 -0.433192 -5.70224e-20)
(0.558027 -0.46279 7.72329e-20)
(0.609733 -0.482897 3.5341e-20)
(0.655949 -0.493455 -3.12529e-20)
(0.696203 -0.494945 9.20131e-20)
(0.730441 -0.488307 -1.91805e-20)
(0.758987 -0.4748 2.79813e-20)
(0.782401 -0.455882 -1.70467e-20)
(0.801641 -0.432965 3.70052e-21)
(0.816726 -0.407579 0)
(0.832305 -0.381393 -1.49993e-20)
(-0.0176509 0.0386564 -1.84737e-21)
(-0.044551 0.0985951 -1.0348e-19)
(-0.0637926 0.143261 0)
(-0.0756825 0.173017 -9.5586e-20)
(-0.0803994 0.188521 8.95846e-20)
(-0.0780707 0.190681 -1.39024e-21)
(-0.0687989 0.180575 0)
(-0.0526611 0.159384 -1.30134e-21)
(-0.0297212 0.12834 -7.23753e-20)
(-5.48936e-05 0.0887063 6.97445e-20)
(0.0362127 0.0417796 0)
(0.0788598 -0.0110815 -1.23881e-19)
(0.127514 -0.0684189 1.21418e-19)
(0.181598 -0.128638 0)
(0.240284 -0.189985 0)
(0.30247 -0.250559 0)
(0.366784 -0.308366 0)
(0.431633 -0.361414 6.9917e-20)
(0.495304 -0.407856 -6.58484e-20)
(0.556099 -0.446143 1.56955e-19)
(0.612493 -0.475179 -9.16303e-20)
(0.66328 -0.494419 -6.80217e-20)
(0.707682 -0.50391 9.25075e-20)
(0.745393 -0.50425 4.48492e-21)
(0.77656 -0.49649 -4.07156e-20)
(0.801715 -0.481982 -2.79807e-20)
(0.821608 -0.462248 -2.42672e-20)
(0.837372 -0.438713 3.6597e-20)
(0.849091 -0.412954 -2.72589e-20)
(0.861722 -0.386427 3.47122e-20)
(-0.0183194 0.0376785 2.08512e-19)
(-0.0460203 0.0963402 -1.83222e-21)
(-0.0652758 0.140288 -2.05619e-19)
(-0.0764375 0.169677 1.94218e-19)
(-0.0797092 0.184998 -9.38841e-20)
(-0.0752449 0.18703 -8.8041e-20)
(-0.0631928 0.176746 8.376e-20)
(-0.04369 0.15525 7.9785e-20)
(-0.0168706 0.123732 -1.52699e-19)
(0.0171086 0.0834396 -2.18133e-19)
(0.0580289 0.0356826 -6.79341e-20)
(0.105559 -0.0181441 2.57093e-19)
(0.159198 -0.0765241 -3.59803e-19)
(0.218216 -0.137786 1.13316e-19)
(0.281612 -0.200086 0)
(0.348088 -0.261429 0)
(0.416069 -0.31973 0)
(0.483775 -0.37293 1.50948e-19)
(0.549337 -0.419146 -6.90945e-20)
(0.610964 -0.456838 -6.29569e-20)
(0.667115 -0.484964 -9.72712e-20)
(0.716649 -0.503073 8.12092e-20)
(0.758931 -0.511326 -3.57271e-20)
(0.793847 -0.510446 -5.75946e-20)
(0.821763 -0.501587 -5.93553e-21)
(0.843427 -0.486178 -6.58753e-20)
(0.859775 -0.465786 7.655e-20)
(0.872102 -0.441831 -5.86754e-20)
(0.880545 -0.415922 1.38577e-20)
(0.89033 -0.389254 -7.16647e-21)
(-0.0188428 0.0364611 -1.06006e-19)
(-0.0471306 0.0934121 1.08658e-19)
(-0.0662673 0.136261 1.03561e-19)
(-0.0766176 0.164967 -3.00293e-19)
(-0.0783885 0.17987 9.40142e-20)
(-0.0717456 0.181621 9.07091e-20)
(-0.0568706 0.171089 0)
(-0.033952 0.149299 0)
(-0.00318968 0.117391 7.69386e-20)
(0.0351784 0.0765925 1.4615e-19)
(0.0808359 0.0282189 -2.82906e-19)
(0.133334 -0.0263026 -1.73259e-21)
(0.192029 -0.0854015 0)
(0.256024 -0.147334 0)
(0.324124 -0.210172 -1.05867e-19)
(0.39482 -0.271835 3.61253e-21)
(0.466324 -0.330161 9.0835e-20)
(0.536662 -0.383042 -7.75807e-20)
(0.603821 -0.428583 -1.42004e-19)
(0.665935 -0.465279 1.17531e-19)
(0.721477 -0.492167 4.85738e-20)
(0.76941 -0.508907 -1.33963e-19)
(0.809269 -0.515787 -6.64674e-20)
(0.841162 -0.513647 6.43578e-20)
(0.865684 -0.503739 5.05269e-20)
(0.883801 -0.487549 3.52386e-20)
(0.896626 -0.466671 0)
(0.905596 -0.442494 0)
(0.910893 -0.41665 3.75272e-20)
(0.917962 -0.390034 0)
(-0.0192213 0.0350474 1.12727e-19)
(-0.0478712 0.0899103 -1.13568e-19)
(-0.0667392 0.131307 2.1835e-19)
(-0.0761754 0.159028 -2.90572e-21)
(-0.076372 0.173274 0)
(-0.0674928 0.174579 0)
(-0.049742 0.163711 0)
(-0.0233514 0.141615 -8.44235e-20)
(0.0114169 0.10938 8.01617e-20)
(0.0542438 0.0682069 0)
(0.10471 0.0194152 1.42541e-19)
(0.16224 -0.0355406 1.36899e-19)
(0.226033 -0.0950399 -1.28961e-19)
(0.295008 -0.157271 1.20639e-19)
(0.367757 -0.22023 -3.22406e-21)
(0.442545 -0.281759 -1.03238e-19)
(0.517361 -0.33964 -9.35196e-20)
(0.590039 -0.391734 2.46871e-19)
(0.658438 -0.436162 6.7007e-20)
(0.720645 -0.471482 -1.28171e-19)
(0.775185 -0.496832 -5.10392e-20)
(0.821159 -0.512 4.35302e-20)
(0.858309 -0.517405 0)
(0.886979 -0.514 -6.3688e-20)
(0.908006 -0.503117 -5.19017e-20)
(0.922564 -0.486284 0)
(0.931933 -0.465096 2.96755e-20)
(0.937669 -0.440894 -5.78143e-20)
(0.939982 -0.415321 -5.94689e-20)
(0.944491 -0.388934 0)
(-0.0194579 0.0334788 -2.27087e-19)
(-0.0482376 0.0859326 1.18631e-19)
(-0.0666697 0.125562 -2.22737e-19)
(-0.0750678 0.152011 -2.83785e-21)
(-0.0735948 0.165363 0)
(-0.0624018 0.166049 0)
(-0.0417065 0.15474 9.21778e-20)
(-0.0117772 0.132309 1.75289e-19)
(0.027065 0.099789 0)
(0.0744185 0.0583572 0)
(0.129755 0.00933161 -2.98393e-19)
(0.19236 -0.0458084 1.41796e-19)
(0.261262 -0.105396 -2.15574e-21)
(0.335176 -0.167557 0)
(0.412464 -0.230219 -6.55113e-23)
(0.49115 -0.291163 1.06338e-19)
(0.568997 -0.348131 -6.56048e-21)
(0.643657 -0.398982 -3.44769e-19)
(0.71288 -0.44188 -7.76206e-20)
(0.774746 -0.475472 1.28166e-19)
(0.82787 -0.499021 1.0665e-19)
(0.871531 -0.512453 -7.5065e-21)
(0.905704 -0.516319 8.11624e-20)
(0.930991 -0.511676 1.30957e-19)
(0.948465 -0.499918 5.19007e-20)
(0.959501 -0.48259 4.49875e-20)
(0.965524 -0.46127 3.25417e-20)
(0.96818 -0.437232 4.89806e-20)
(0.967698 -0.412122 -3.69097e-21)
(0.969819 -0.386123 1.80671e-20)
(-0.0195575 0.0317934 2.36346e-19)
(-0.0482297 0.0815724 -3.60968e-19)
(-0.0660417 0.119153 2.28738e-19)
(-0.0732548 0.144066 2.1748e-19)
(-0.0699919 0.156298 1.03229e-19)
(-0.0563839 0.156188 -1.6322e-22)
(-0.0326547 0.144327 -9.11056e-20)
(0.000895666 0.121516 -1.75286e-19)
(0.0438885 0.0887406 1.84665e-21)
(0.0958369 0.0471502 3.20453e-19)
(0.156096 -0.00193764 -1.55536e-19)
(0.223799 -0.0570212 2.88752e-19)
(0.297788 -0.11639 -1.08576e-21)
(0.376552 -0.178116 -2.52539e-19)
(0.458209 -0.240067 -3.11739e-22)
(0.54053 -0.299981 0)
(0.621055 -0.355581 4.86112e-19)
(0.697269 -0.404753 8.2702e-20)
(0.766848 -0.445733 0)
(0.827904 -0.477285 6.47652e-20)
(0.879188 -0.498813 -6.09173e-20)
(0.920195 -0.510389 1.94371e-19)
(0.951158 -0.512693 -2.47574e-19)
(0.972942 -0.506868 7.69158e-20)
(0.986855 -0.494353 0)
(0.994449 -0.476688 5.07967e-20)
(0.997273 -0.455412 -7.81883e-20)
(0.997033 -0.431714 6.35307e-20)
(0.993963 -0.40724 -5.15868e-20)
(0.993881 -0.381769 -3.74458e-20)
(-0.0195265 0.0300252 -2.41255e-19)
(-0.0478502 0.0769155 -3.10399e-21)
(-0.064841 0.112207 -1.15853e-19)
(-0.070698 0.135345 -1.10128e-19)
(-0.0654979 0.146242 -2.12946e-19)
(-0.0493466 0.145167 1.00728e-19)
(-0.0224701 0.132639 1.11544e-21)
(0.0148026 0.109397 -1.81674e-19)
(0.0620348 0.0763836 -2.57121e-19)
(0.118649 0.0347246 -1.71235e-22)
(0.183874 -0.0142636 1.51995e-19)
(0.256676 -0.0690576 -2.921e-19)
(0.33569 -0.127909 1.38801e-19)
(0.419165 -0.188839 1.30918e-19)
(0.504955 -0.249674 1.36687e-22)
(0.590576 -0.308124 1.11915e-19)
(0.673352 -0.361922 -1.97981e-19)
(0.75063 -0.409009 0)
(0.820051 -0.447723 -1.61298e-19)
(0.879807 -0.476968 1.41102e-19)
(0.92883 -0.496304 -1.21909e-19)
(0.966865 -0.505953 -1.00645e-19)
(0.994424 -0.506709 0)
(1.01263 -0.499789 -2.12413e-19)
(1.02302 -0.48665 2.6418e-21)
(1.0273 -0.468807 -2.43294e-19)
(1.0271 -0.447738 1.21565e-19)
(1.02417 -0.424541 -1.31723e-19)
(1.01873 -0.400855 5.15867e-20)
(1.01663 -0.376027 -4.53276e-20)
(-0.0193709 0.0282033 1.22164e-19)
(-0.0471025 0.0720388 1.24902e-19)
(-0.0630545 0.104838 1.21636e-19)
(-0.0673596 0.125991 -1.56054e-21)
(-0.0600466 0.135361 -1.48693e-21)
(-0.0411951 0.133161 0)
(-0.0110314 0.119854 0)
(0.0300861 0.0961294 0)
(0.0816594 0.0628918 0)
(0.143013 0.021248 0)
(0.213236 -0.0274844 1.57224e-19)
(0.291113 -0.0817618 -1.49915e-19)
(0.375049 -0.139801 1.41836e-19)
(0.463036 -0.199585 2.87524e-22)
(0.552654 -0.258909 -1.21099e-19)
(0.641166 -0.315481 4.1556e-22)
(0.725697 -0.367072 -2.07226e-19)
(0.803492 -0.411707 1.8611e-19)
(0.872206 -0.447855 1.61292e-19)
(0.930162 -0.474581 -1.33807e-19)
(0.976518 -0.491608 2.51097e-19)
(1.0113 -0.499304 0)
(1.03531 -0.498566 -1.75938e-19)
(1.04992 -0.49066 5.79567e-21)
(1.05687 -0.477039 4.88451e-21)
(1.05799 -0.459174 1.43297e-21)
(1.05498 -0.438464 -4.2173e-20)
(1.04957 -0.415908 6.81921e-20)
(1.042 -0.393138 5.98706e-20)
(1.03806 -0.369042 1.88804e-20)
(-0.0190966 0.0263516 0)
(-0.0459894 0.067009 1.29151e-19)
(-0.0606684 0.0971518 -1.20542e-19)
(-0.0632016 0.116142 -1.08775e-21)
(-0.0535714 0.123814 2.21933e-19)
(-0.0318332 0.120346 -1.05467e-19)
(0.00178439 0.10616 0)
(0.0468903 0.081906 0)
(0.102919 0.0484596 -1.80344e-19)
(0.169086 0.00691426 1.71077e-19)
(0.244326 -0.0414088 1.63889e-19)
(0.32722 -0.0949461 0)
(0.415929 -0.151885 1.4577e-19)
(0.508167 -0.210181 0)
(0.601236 -0.267618 -2.4773e-19)
(0.692155 -0.321925 3.43842e-19)
(0.777881 -0.370941 3.11803e-19)
(0.855601 -0.412805 -9.47289e-20)
(0.923039 -0.446145 -5.40493e-21)
(0.978702 -0.470196 -2.20549e-19)
(1.02201 -0.484854 0)
(1.05331 -0.490619 0)
(1.07367 -0.488473 9.10005e-20)
(1.08472 -0.479709 1.5042e-19)
(1.08836 -0.465753 -5.32795e-21)
(1.08651 -0.448014 1.06345e-19)
(1.08092 -0.427794 8.80155e-20)
(1.07325 -0.406001 0)
(1.06377 -0.384249 -5.98707e-20)
(1.05815 -0.360948 7.32315e-20)
(-0.0187077 0.0244888 1.31123e-19)
(-0.0445114 0.0618815 0)
(-0.0576672 0.0892395 1.10651e-21)
(-0.0581843 0.105922 -1.19847e-19)
(-0.0460049 0.111754 1.14665e-19)
(-0.0211653 0.106898 1.07464e-19)
(0.0160985 0.0917486 -1.95813e-22)
(0.065356 0.0669299 9.88804e-20)
(0.125964 0.0332974 0)
(0.197015 -0.00806216 -3.51052e-19)
(0.277271 -0.0558206 1.63939e-21)
(0.36509 -0.108396 0)
(0.458366 -0.163953 1.49133e-19)
(0.554528 -0.220432 -4.1359e-19)
(0.650598 -0.275628 1.2883e-19)
(0.743373 -0.327317 -1.15194e-19)
(0.829679 -0.373436 -2.13394e-19)
(0.9067 -0.412269 -2.91336e-19)
(0.972288 -0.442617 0)
(1.02519 -0.463904 0)
(1.06512 -0.476186 1.30977e-19)
(1.09274 -0.480086 1.06483e-19)
(1.10942 -0.476646 -1.00037e-19)
(1.11699 -0.467164 0)
(1.11748 -0.453018 0)
(1.11288 -0.43554 0)
(1.10494 -0.415917 9.66512e-20)
(1.09523 -0.39499 -3.72201e-20)
(1.08409 -0.374333 7.12187e-20)
(1.07692 -0.35186 5.8581e-20)
(-0.0182065 0.0226284 -2.6333e-19)
(-0.0426657 0.0567014 1.35911e-19)
(-0.0540318 0.0811807 -1.30143e-19)
(-0.0522664 0.0954429 1.23528e-19)
(-0.0372801 0.0993251 -1.14665e-19)
(-0.00909845 0.092987 1.09766e-19)
(0.0320264 0.0768115 -1.04425e-19)
(0.0856144 0.0514095 -1.95857e-19)
(0.15093 0.0176266 1.89685e-19)
(0.226927 -0.0234509 3.5629e-19)
(0.312172 -0.070485 1.68536e-19)
(0.404779 -0.121877 -1.59589e-19)
(0.502361 -0.175778 2.67456e-21)
(0.602048 -0.230129 3.9722e-23)
(0.7006 -0.282758 1.31088e-19)
(0.794617 -0.331518 0)
(0.880846 -0.374472 2.14947e-19)
(0.95653 -0.410073 4.84023e-19)
(1.01971 -0.437315 -8.91746e-20)
(1.0694 -0.455807 0)
(1.10568 -0.465761 -2.64408e-19)
(1.12951 -0.4679 -1.15135e-19)
(1.14252 -0.463305 -9.29551e-20)
(1.14673 -0.453252 8.72786e-20)
(1.14428 -0.439054 -6.64457e-20)
(1.13716 -0.42195 6.23207e-20)
(1.12712 -0.403003 3.89866e-21)
(1.11556 -0.383024 8.42053e-20)
(1.103 -0.363482 -6.72062e-20)
(1.09435 -0.34182 -1.13993e-19)
(-0.0175929 0.0207797 1.37062e-19)
(-0.040445 0.0515034 1.38116e-19)
(-0.0497399 0.0730417 -1.80554e-21)
(-0.0454049 0.0848058 2.68332e-21)
(-0.0273311 0.0866589 0)
(0.00445536 0.0787742 -1.36359e-21)
(0.0496743 0.0615366 -3.21753e-19)
(0.107782 0.0355548 0)
(0.177933 0.00167446 -1.91639e-19)
(0.258921 -0.0390121 -7.26503e-19)
(0.349095 -0.085155 1.7205e-19)
(0.446304 -0.135143 -1.63754e-19)
(0.547863 -0.187123 -3.02777e-19)
(0.650611 -0.239056 2.86838e-19)
(0.751058 -0.288826 0)
(0.845653 -0.334394 1.18886e-19)
(0.931124 -0.373974 -3.33551e-19)
(1.00483 -0.406211 -1.00085e-19)
(1.06507 -0.430297 -2.6734e-19)
(1.11118 -0.446026 0)
(1.14359 -0.453748 2.69084e-19)
(1.16356 -0.454263 1.15134e-19)
(1.17298 -0.448667 0)
(1.17401 -0.438194 8.59776e-20)
(1.16885 -0.424071 0)
(1.15946 -0.407432 -5.78242e-20)
(1.14756 -0.389207 -1.50567e-19)
(1.13433 -0.370224 -1.71807e-19)
(1.12054 -0.35167 -7.34001e-20)
(1.11029 -0.330693 1.00784e-21)
(-0.0168642 0.0189481 -1.37062e-19)
(-0.0378378 0.0463138 1.94507e-21)
(-0.0447649 0.0648778 1.34835e-19)
(-0.0375552 0.074098 -1.26211e-19)
(-0.0160943 0.0738764 -1.20664e-19)
(0.0195769 0.0644127 2.26953e-19)
(0.0691349 0.0461058 1.08755e-19)
(0.131954 0.0195733 2.06317e-19)
(0.207059 -0.0143304 1.9348e-19)
(0.293057 -0.0545017 1.85334e-19)
(0.388059 -0.0995782 3.5209e-19)
(0.489627 -0.147942 -2.89071e-21)
(0.594773 -0.197747 0)
(0.700048 -0.246997 -1.4353e-19)
(0.801749 -0.293659 -2.79938e-21)
(0.896223 -0.335825 2.00443e-21)
(0.980243 -0.371889 3.35092e-19)
(1.05136 -0.400696 0)
(1.10817 -0.421643 1.76829e-19)
(1.15039 -0.434695 0)
(1.17877 -0.440322 2.01268e-21)
(1.19489 -0.439377 -1.13429e-19)
(1.20084 -0.432946 2.03859e-19)
(1.1989 -0.422201 -8.94194e-20)
(1.19128 -0.408272 -1.49884e-19)
(1.17991 -0.392173 6.75714e-20)
(1.1664 -0.3747 2.10595e-19)
(1.15172 -0.356705 4.03935e-20)
(1.13689 -0.338757 1.84901e-19)
(1.1245 -0.318397 2.66919e-20)
(-0.0160151 0.017136 1.41146e-19)
(-0.0348277 0.0411516 -2.88183e-19)
(-0.0390767 0.0567338 0)
(-0.0286719 0.0633957 0)
(-0.00350988 0.0610874 1.23216e-19)
(0.0363372 0.0500454 -1.50081e-21)
(0.090484 0.0306935 -2.19584e-19)
(0.158201 0.00366731 -2.10068e-19)
(0.23836 -0.0301627 3.54462e-22)
(0.329356 -0.0696777 1.9412e-21)
(0.429036 -0.113504 -1.76766e-19)
(0.53466 -0.160025 3.33992e-19)
(0.642934 -0.20742 -3.14847e-19)
(0.750143 -0.253754 1.47955e-19)
(0.852409 -0.297102 1.34822e-19)
(0.946044 -0.335716 -2.47136e-19)
(1.02793 -0.368184 -1.10213e-19)
(1.09589 -0.393564 1.03874e-19)
(1.14886 -0.411449 0)
(1.18692 -0.421961 -1.53165e-19)
(1.2112 -0.425664 6.40636e-21)
(1.22354 -0.423441 0)
(1.22619 -0.416347 0)
(1.22152 -0.405476 -8.79125e-20)
(1.21171 -0.391849 2.22308e-19)
(1.19864 -0.37636 -1.33686e-19)
(1.18381 -0.359682 -5.76875e-20)
(1.16806 -0.342609 0)
(1.15259 -0.324794 -7.62254e-20)
(1.13728 -0.305923 0)
(-0.015038 0.0153437 -1.44217e-19)
(-0.0313944 0.0360303 -1.10315e-21)
(-0.0326419 0.0486472 0)
(-0.0187098 0.0527661 0)
(0.0104769 0.0483917 -1.25818e-19)
(0.0547958 0.0358059 2.40577e-19)
(0.113778 0.0154654 -2.28787e-19)
(0.186567 -0.0119685 2.14284e-19)
(0.271852 -0.0456036 -4.85017e-22)
(0.367791 -0.0843046 -3.86672e-19)
(0.471943 -0.126691 -1.83256e-19)
(0.581257 -0.171156 2.27254e-21)
(0.692137 -0.215924 3.19834e-19)
(0.800634 -0.259142 -1.50203e-19)
(0.90275 -0.299022 1.38413e-19)