/*--------------------------------*- C++ -*----------------------------------*\
  =========                 |
  \\      /  F ield         | OpenFOAM: The Open Source CFD Toolbox
   \\    /   O peration     | Website:  https://openfoam.org
    \\  /    A nd           | Version:  7
     \\/     M anipulation  |
\*---------------------------------------------------------------------------*/
FoamFile
{
    version     2.0;
    format      ascii;
    class       surfaceScalarField;
    location    "5";
    object      phi;
}
// * * * * * * * * * * * * * * * * * * * * * * * * * * * * * * * * * * * * * //

dimensions      [0 3 -1 0 0 0 0];

internalField   nonuniform List<scalar> 
651
(
0.00295991
1.97347e-06
1.01386e-09
0.00295789
2.016e-06
9.79673e-10
2.05569e-06
9.44688e-10
0.00295965
3.91931e-06
0.00295766
4.00429e-06
4.08361e-06
0.00295914
5.80787e-06
0.00295721
5.93524e-06
6.05412e-06
0.00295838
7.61058e-06
0.00295654
7.78024e-06
7.9386e-06
0.00295737
9.29897e-06
0.00295564
9.51079e-06
9.70848e-06
0.0029561
1.08446e-05
0.00295451
1.10985e-05
1.13354e-05
0.00295458
1.22194e-05
0.00295316
1.25151e-05
1.2791e-05
0.00295281
1.33952e-05
0.0029516
1.37325e-05
0.00295034
1.40471e-05
1.43408e-05
0.0029508
1.43442e-05
0.00294981
1.47228e-05
0.00294878
1.5076e-05
1.54057e-05
0.00294854
1.50388e-05
0.0029478
1.54584e-05
0.00294703
1.585e-05
1.62154e-05
0.00294604
1.54515e-05
0.00294558
1.59119e-05
0.00294509
1.63415e-05
1.67424e-05
0.00294329
0.00294315
1.60563e-05
0.00294297
1.65236e-05
1.69596e-05
0.0029405
1.58646e-05
0.00294066
1.63693e-05
1.68402e-05
0.00293765
1.53104e-05
0.00293817
1.58522e-05
1.63576e-05
0.00293459
1.43678e-05
0.00293549
1.49463e-05
1.54859e-05
0.00293133
1.3011e-05
0.00293265
1.36257e-05
1.41992e-05
0.00292786
1.12146e-05
0.00292962
1.18654e-05
1.24724e-05
0.0029242
8.9541e-06
0.00292643
9.64038e-06
1.02805e-05
0.00292035
6.20498e-06
0.00292307
6.9264e-06
7.59924e-06
0.00291631
2.94343e-06
0.00291954
3.69963e-06
4.40481e-06
0.00291209
-8.53786e-07
0.00291585
-6.32461e-08
6.73918e-07
0.00290769
-5.20944e-06
0.00291201
-4.38497e-06
-3.61618e-06
0.00290311
-1.01457e-05
0.00290801
-9.28768e-06
-8.48766e-06
0.00289836
-1.5684e-05
0.00290386
-1.47929e-05
-1.39621e-05
0.0082104
-1.71592e-05
0.00821179
-1.61877e-05
-1.52821e-05
0.00821154
-1.85546e-05
0.00821286
-1.75074e-05
-1.65311e-05
0.00821274
-1.98672e-05
0.00821398
-1.87493e-05
-1.77066e-05
0.00821398
-2.10941e-05
0.00821514
-1.99103e-05
-1.8806e-05
0.00821527
-2.22318e-05
0.00821634
-2.09873e-05
-1.98262e-05
0.00821661
-2.32769e-05
0.0082176
-2.19771e-05
-2.0764e-05
0.008218
-2.42259e-05
0.0082189
-2.28762e-05
-2.16165e-05
0.00821944
-2.50753e-05
0.00822025
-2.36815e-05
-2.23803e-05
0.00822093
-2.58219e-05
0.00822164
-2.43898e-05
-2.30525e-05
0.00822247
-2.64622e-05
0.00822308
-2.4998e-05
-2.36303e-05
0.00822405
-2.69938e-05
0.00822455
-2.55035e-05
-2.41111e-05
0.00822566
-2.74143e-05
0.00822606
-2.59041e-05
-2.44929e-05
0.00822731
-2.77216e-05
0.0082276
-2.6198e-05
-2.47738e-05
0.00822898
-2.79145e-05
0.00822916
-2.63839e-05
-2.49526e-05
0.00823066
-2.79922e-05
0.00823074
-2.64609e-05
-2.50286e-05
0.00823236
-2.79545e-05
0.00823233
-2.64288e-05
-2.50013e-05
0.00823406
-2.78017e-05
0.00823391
-2.62878e-05
-2.48711e-05
0.00823574
-2.75348e-05
0.00823549
-2.60389e-05
-2.46386e-05
0.00823742
-2.71552e-05
0.00823706
-2.56833e-05
-2.43051e-05
0.00823907
-2.66648e-05
0.00823861
-2.52229e-05
-2.38724e-05
0.00824069
-2.60662e-05
0.00824013
-2.466e-05
-2.33424e-05
0.00824227
-2.53624e-05
0.00824161
-2.39972e-05
-2.27178e-05
0.00824381
-2.45568e-05
0.00824305
-2.32378e-05
-2.20015e-05
0.0082453
-2.3653e-05
0.00824445
-2.23853e-05
-2.11967e-05
0.00824673
-2.26552e-05
0.00824579
-2.14435e-05
-2.03072e-05
0.0082481
-2.15679e-05
0.00824707
-2.04167e-05
-1.93368e-05
0.0082494
-2.03959e-05
0.00824829
-1.93093e-05
-1.82898e-05
0.00825063
-1.91442e-05
0.00824945
-1.81261e-05
-1.71707e-05
0.00825178
-1.78181e-05
0.00825053
-1.6872e-05
-1.59841e-05
0.00825285
-1.64228e-05
0.00825153
-1.55523e-05
-1.4735e-05
0.00825384
-1.49644e-05
0.00825246
-1.41723e-05
-1.34285e-05
0.00825473
-1.34485e-05
0.0082533
-1.27376e-05
-1.207e-05
0.00825554
-1.18814e-05
0.00825405
-1.1254e-05
-1.06648e-05
0.00825625
-1.02688e-05
0.00825472
-9.72716e-06
-9.21838e-06
0.00825686
-8.61733e-06
0.0082553
-8.16319e-06
-7.73656e-06
0.00825737
-6.93322e-06
0.00825578
-6.56809e-06
-6.22504e-06
0.00825779
-5.22291e-06
0.00825617
-4.9481e-06
-4.68969e-06
0.0082581
-3.4929e-06
0.00825646
-3.30912e-06
-3.13642e-06
0.00825831
-1.74974e-06
0.00825666
-1.6578e-06
-1.5711e-06
0.00825841
0.00825675
-1.71573e-05
0.0082104
1.56821e-05
-1.85527e-05
0.00821154
-1.98654e-05
0.00821274
-2.10923e-05
0.00821398
-2.223e-05
0.00821527
-2.32751e-05
0.00821661
-2.42242e-05
0.008218
-2.50736e-05
0.00821944
-2.58201e-05
0.00822093
-2.64606e-05
0.00822247
-2.69923e-05
0.00822405
-2.74127e-05
0.00822566
-2.77201e-05
0.00822731
-2.79131e-05
0.00822898
-2.79909e-05
0.00823066
-2.79532e-05
0.00823236
-2.78004e-05
0.00823405
-2.75335e-05
0.00823574
-2.7154e-05
0.00823742
-2.66636e-05
0.00823907
-2.60651e-05
0.00824069
-2.53614e-05
0.00824227
-2.45558e-05
0.00824381
-2.3652e-05
0.0082453
-2.26544e-05
0.00824673
-2.15671e-05
0.0082481
-2.03951e-05
0.0082494
-1.91435e-05
0.00825063
-1.78173e-05
0.00825178
-1.64222e-05
0.00825285
-1.49639e-05
0.00825383
-1.3448e-05
0.00825473
-1.18809e-05
0.00825554
-1.02684e-05
0.00825625
-8.61702e-06
0.00825686
-6.93297e-06
0.00825737
-5.22282e-06
0.00825779
-3.49278e-06
0.0082581
-1.74973e-06
0.0082583
0.00825841
-1.61859e-05
0.00821179
1.4791e-05
-1.75056e-05
0.00821286
-1.87475e-05
0.00821398
-1.99085e-05
0.00821514
-2.09856e-05
0.00821634
-2.19754e-05
0.0082176
-2.28746e-05
0.0082189
-2.36799e-05
0.00822025
-2.43882e-05
0.00822164
-2.49964e-05
0.00822308
-2.5502e-05
0.00822455
-2.59027e-05
0.00822606
-2.61966e-05
0.0082276
-2.63825e-05
0.00822916
-2.64594e-05
0.00823074
-2.64274e-05
0.00823233
-2.62866e-05
0.00823391
-2.60377e-05
0.00823549
-2.56822e-05
0.00823706
-2.52218e-05
0.00823861
-2.46589e-05
0.00824012
-2.39962e-05
0.00824161
-2.32369e-05
0.00824305
-2.23844e-05
0.00824444
-2.14426e-05
0.00824579
-2.04159e-05
0.00824707
-1.93086e-05
0.00824829
-1.81254e-05
0.00824944
-1.68714e-05
0.00825053
-1.55517e-05
0.00825153
-1.41717e-05
0.00825245
-1.27372e-05
0.0082533
-1.12536e-05
0.00825405
-9.72681e-06
0.00825472
-8.16289e-06
0.00825529
-6.56785e-06
0.00825578
-4.94782e-06
0.00825617
-3.309e-06
0.00825646
-1.65759e-06
0.00825665
0.00825675
-1.52803e-05
1.39603e-05
-1.65293e-05
-1.77049e-05
-1.88043e-05
-1.98245e-05
-2.07624e-05
-2.16149e-05
-2.23787e-05
-2.3051e-05
-2.36288e-05
-2.41096e-05
-2.44914e-05
-2.47724e-05
-2.49513e-05
-2.50273e-05
-2.5e-05
-2.48699e-05
-2.46375e-05
-2.4304e-05
-2.38713e-05
-2.33414e-05
-2.27168e-05
-2.20005e-05
-2.11958e-05
-2.03063e-05
-1.9336e-05
-1.82891e-05
-1.717e-05
-1.59836e-05
-1.47345e-05
-1.34281e-05
-1.20696e-05
-1.06645e-05
-9.21804e-06
-7.73627e-06
-6.22482e-06
-4.68952e-06
-3.13631e-06
-1.57109e-06
0.00289836
1.01437e-05
0.00290386
9.28582e-06
8.48587e-06
0.00290311
5.2075e-06
0.00290801
4.3831e-06
3.61439e-06
0.00290769
8.51851e-07
0.00291201
6.13797e-08
-6.75716e-07
0.00291209
-2.94537e-06
0.00291585
-3.7015e-06
-4.40661e-06
0.00291631
-6.20692e-06
0.00291954
-6.92827e-06
-7.60104e-06
0.00292035
-8.95605e-06
0.00292307
-9.64225e-06
-1.02823e-05
0.0029242
-1.12166e-05
0.00292643
-1.18673e-05
-1.24742e-05
0.00292786
-1.30129e-05
0.00292962
-1.36276e-05
-1.4201e-05
0.00293133
-1.43697e-05
0.00293265
-1.49481e-05
-1.54877e-05
0.00293459
-1.53124e-05
0.00293549
-1.58541e-05
-1.63595e-05
0.00293765
-1.58665e-05
0.00293817
-1.63712e-05
-1.6842e-05
0.0029405
-1.60582e-05
0.00294066
-1.65254e-05
-1.69614e-05
0.00294329
-1.54535e-05
0.00294315
-1.59139e-05
0.00294297
-1.63434e-05
-1.67442e-05
0.00294604
-1.50408e-05
0.00294558
-1.54604e-05
0.00294509
-1.58519e-05
-1.62172e-05
0.00294854
-1.43463e-05
0.0029478
-1.47248e-05
0.00294703
-1.5078e-05
0.0029508
-1.33973e-05
0.00294981
-1.37344e-05
-1.40491e-05
0.00295281
-1.22214e-05
0.0029516
-1.2517e-05
-1.27929e-05
0.00295458
-1.08467e-05
0.00295316
-1.11005e-05
-1.13373e-05
0.0029561
-9.301e-06
0.00295451
-9.51275e-06
-9.71038e-06
0.00295737
-7.61261e-06
0.00295564
-7.78221e-06
-7.94049e-06
0.00295838
-5.80989e-06
0.00295654
-5.9372e-06
-6.05602e-06
0.00295914
-3.92134e-06
0.00295721
-4.00625e-06
-4.0855e-06
0.00295965
-1.9755e-06
0.00295766
-2.01796e-06
-2.05758e-06
0.00295991
0.00295789
)
;

boundaryField
{
    inlet
    {
        type            calculated;
        value           nonuniform 0();
    }
    outlet
    {
        type            calculated;
        value           nonuniform 0();
    }
    cylinder
    {
        type            calculated;
        value           nonuniform 0();
    }
    top
    {
        type            symmetryPlane;
        value           uniform 0;
    }
    bottom
    {
        type            symmetryPlane;
        value           uniform 0;
    }
    defaultFaces
    {
        type            empty;
        value           nonuniform 0();
    }
    procBoundary61to60
    {
        type            processor;
        value           nonuniform List<scalar> 
130
(
-0.00296188
-0.0029616
-0.00296103
-0.00296018
-0.00295905
-0.00295764
-0.00295596
-0.00295399
-0.00295175
-0.00294923
-0.00294645
-0.0029434
1.55553e-05
-0.00294031
-0.0029371
-0.00293365
-0.00292997
-0.00292607
-0.00292194
-0.0029176
-0.00291305
-0.00290829
-0.00290333
-0.00289817
-0.00289282
-0.00820892
-0.00821015
-0.00821142
-0.00821275
-0.00821413
-0.00821556
-0.00821705
-0.00821859
-0.00822018
-0.00822183
-0.00822352
-0.00822524
-0.008227
-0.00822879
-0.00823059
-0.0082324
-0.00823421
-0.00823601
-0.0082378
-0.00823956
-0.00824129
-0.00824298
-0.00824462
-0.0082462
-0.00824773
-0.00824919
-0.00825057
-0.00825188
-0.00825311
-0.00825425
-0.0082553
-0.00825625
-0.0082571
-0.00825786
-0.00825851
-0.00825906
-0.0082595
-0.00825983
-0.00826005
-0.00826016
-0.00820892
-0.00821015
-0.00821142
-0.00821275
-0.00821413
-0.00821556
-0.00821705
-0.00821859
-0.00822018
-0.00822183
-0.00822351
-0.00822524
-0.008227
-0.00822878
-0.00823059
-0.0082324
-0.00823421
-0.00823601
-0.0082378
-0.00823956
-0.00824129
-0.00824297
-0.00824461
-0.0082462
-0.00824773
-0.00824918
-0.00825057
-0.00825188
-0.00825311
-0.00825424
-0.00825529
-0.00825625
-0.0082571
-0.00825786
-0.00825851
-0.00825906
-0.0082595
-0.00825983
-0.00826005
-0.00826016
-0.00289282
-0.00289817
-0.00290333
-0.00290829
-0.00291305
-0.0029176
-0.00292194
-0.00292607
-0.00292997
-0.00293365
-0.0029371
-0.00294031
1.55574e-05
-0.0029434
-0.00294645
-0.00294923
-0.00295175
-0.00295399
-0.00295596
-0.00295764
-0.00295905
-0.00296018
-0.00296103
-0.0029616
-0.00296188
)
;
    }
    procBoundary61to62
    {
        type            processor;
        value           nonuniform List<scalar> 
130
(
0.00295583
0.00295564
0.00295524
0.00295465
0.00295387
0.00295288
0.00295171
-1.30484e-05
0.00294905
0.00294772
0.00294622
0.00294457
0.00294275
0.00294078
0.00293865
0.00293637
0.00293393
0.00293135
0.00292862
0.00292575
0.00292274
0.00291958
0.0029163
0.00291288
0.00290933
0.00821311
0.00821411
0.00821515
0.00821624
0.00821736
0.00821854
0.00821975
0.00822101
0.00822231
0.00822365
0.00822503
0.00822644
0.00822788
0.00822934
0.00823082
0.0082323
0.00823378
0.00823526
0.00823673
0.00823817
0.0082396
0.00824098
0.00824233
0.00824364
0.0082449
0.0082461
0.00824725
0.00824833
0.00824934
0.00825028
0.00825115
0.00825194
0.00825265
0.00825327
0.00825381
0.00825427
0.00825463
0.00825491
0.00825509
0.00825518
0.00821311
0.00821411
0.00821515
0.00821624
0.00821736
0.00821853
0.00821975
0.00822101
0.00822231
0.00822365
0.00822503
0.00822644
0.00822788
0.00822934
0.00823082
0.0082323
0.00823378
0.00823526
0.00823673
0.00823817
0.00823959
0.00824098
0.00824233
0.00824364
0.0082449
0.0082461
0.00824724
0.00824833
0.00824934
0.00825028
0.00825115
0.00825194
0.00825265
0.00825327
0.00825381
0.00825427
0.00825463
0.0082549
0.00825509
0.00825518
0.00290933
0.00291288
0.0029163
0.00291958
0.00292274
0.00292575
0.00292862
0.00293135
0.00293393
0.00293637
0.00293865
0.00294078
0.00294275
0.00294457
0.00294622
-1.54076e-05
0.00294878
0.00295034
0.00295171
0.00295288
0.00295387
0.00295465
0.00295524
0.00295564
0.00295583
)
;
    }
}


// ************************************************************************* //
