/*--------------------------------*- C++ -*----------------------------------*\
  =========                 |
  \\      /  F ield         | OpenFOAM: The Open Source CFD Toolbox
   \\    /   O peration     | Website:  https://openfoam.org
    \\  /    A nd           | Version:  7
     \\/     M anipulation  |
\*---------------------------------------------------------------------------*/
FoamFile
{
    version     2.0;
    format      ascii;
    class       surfaceScalarField;
    location    "45";
    object      phi;
}
// * * * * * * * * * * * * * * * * * * * * * * * * * * * * * * * * * * * * * //

dimensions      [0 3 -1 0 0 0 0];

internalField   nonuniform List<scalar> 
278
(
0.00220222
0.0204836
-0.0203127
0.0125595
-0.0127199
0.00221571
0.0206254
0.0123901
0.00223218
0.0207384
0.0122111
0.00225167
0.0208227
0.0120218
0.00227414
0.0208788
0.0118213
0.00229947
0.0209071
0.0116091
0.00232745
0.0209084
0.0113851
0.00235775
0.0208835
0.0111496
0.00239
0.0208338
0.0109037
0.00242373
0.0207608
0.0106486
0.00245847
0.020666
0.0103861
0.00249377
0.0205515
0.0101185
0.0025292
0.0204193
0.00984791
0.00256441
0.0202715
0.00957655
0.00259914
0.0201103
0.00930652
0.00263322
0.0199375
0.00903969
0.00266657
0.0197549
0.00877758
0.00269931
0.0195637
0.00852139
0.00273186
0.0193645
0.00827189
0.00276504
0.0191565
0.00802945
0.00280137
0.0189379
0.00779939
0.0138891
0.0156308
0.0171461
0.00454247
-0.00528743
0.0170801
0.0119754
0.0200122
0.00161037
-0.00662595
0.0206549
0.00850592
0.0227312
-0.000465976
-0.00692738
0.0236499
0.00587305
0.0246751
-0.00149118
-0.00641312
0.02543
0.00417688
0.0255665
-0.00162773
-0.00542713
0.0258851
0.0031609
0.0255925
-0.00133513
-0.00436474
0.0255596
0.00249768
0.0251991
-0.000974639
-0.00343706
0.0249898
0.00199573
0.0247024
-0.000687215
-0.0026951
0.0244363
0.0242373
-0.000488171
-0.00211918
0.0238385
-0.000356637
-0.00167454
0.0235051
-0.000269965
-0.00132937
0.0232276
-0.000211597
-0.00105887
0.0229968
-0.000170735
-0.000844509
0.0228065
-0.000140488
-0.00067232
0.0226513
-0.000116262
-0.000531589
0.0225262
-9.51906e-05
-0.000414111
0.0224266
-7.56348e-05
-0.00031372
0.0223496
-5.67071e-05
-0.000225646
0.0222937
-3.78886e-05
-0.000146032
0.0222574
-1.89804e-05
-7.16867e-05
0.0222391
-0.0106972
0.0162677
0.0126987
-0.00914238
0.0170364
-0.00775215
0.0176836
-0.00641612
0.0182827
-0.00512762
0.0187892
-0.0040108
0.0193579
-0.00311154
0.0198793
-0.0024153
0.0203092
-0.00187724
0.0206484
-0.00145954
0.0209157
-0.00113429
0.0211278
-0.000880939
0.0212957
-0.00068307
0.0214271
-0.000527741
0.0215281
-0.000404859
0.0216037
-0.000306534
0.0216585
-0.000226427
0.0216978
-0.000159458
0.021726
-0.00010147
0.0217455
-4.92222e-05
0.0217571
0.0217623
-0.00838564
0.0134167
0.0112367
-0.00607694
0.0147277
-0.004501
0.0161077
-0.0035422
0.0173239
-0.00286415
0.0181111
-0.00221614
0.0187099
-0.00159621
-0.00107625
-0.000691744
-0.000429534
-0.000258251
-0.000149095
-8.10278e-05
-3.97855e-05
-1.58816e-05
-3.05825e-06
2.78679e-06
4.617e-06
4.16779e-06
2.42034e-06
-0.00427177
-0.00184305
0.000201525
0.00145888
0.00186385
0.00238952
0.013007
0.011563
0.00236633
0.0133433
0.0118783
0.0023525
0.0137069
0.0121778
0.00233755
0.0140946
0.0124565
0.00232081
0.0145021
0.0127099
0.00230311
0.0149252
0.0129343
0.00228523
0.0153595
0.0131266
0.00226769
0.0158004
0.013285
0.00225089
0.016243
0.0134082
0.00223519
0.0166827
0.0134959
0.00222093
0.0171148
0.0135489
0.00220834
0.0175352
0.0135686
0.00219764
0.0179397
0.0135573
0.00218894
0.0183252
0.0135179
0.00218236
0.0186886
0.0134535
0.00217797
0.0190277
0.0133678
0.00217584
0.0193408
0.0132639
0.00217604
0.0196265
0.0131449
0.00217866
0.019884
0.0130135
0.00218382
0.0201129
0.0128714
0.00219163
)
;

boundaryField
{
    inlet
    {
        type            calculated;
        value           nonuniform 0();
    }
    outlet
    {
        type            calculated;
        value           nonuniform 0();
    }
    cylinder
    {
        type            calculated;
        value           nonuniform 0();
    }
    top
    {
        type            symmetryPlane;
        value           uniform 0;
    }
    bottom
    {
        type            symmetryPlane;
        value           uniform 0;
    }
    defaultFaces
    {
        type            empty;
        value           nonuniform 0();
    }
    procBoundary40to39
    {
        type            processor;
        value           nonuniform List<scalar> 
85
(
-0.00237306
-0.00235754
-0.00234514
-0.002336
-0.00233021
-0.00232779
-0.00232872
-0.00233293
-0.0023403
-0.00235063
-0.00236371
-0.00237926
-0.00239701
-0.00241666
-0.00243791
-0.00246045
-0.00248395
-0.00250811
-0.0025326
-0.00255704
-0.00258277
-0.0105821
-0.0134246
-0.0171854
-0.021017
-0.0237338
-0.0248691
-0.0248964
-0.0244879
-0.0240255
0.00158497
-0.02397
-0.0235918
-0.023286
-0.0230377
-0.0228367
-0.0226756
-0.0225473
-0.0224461
-0.0223685
-0.0223125
-0.0222763
-0.0222581
-0.0182693
-0.0185912
-0.0190738
-0.0196187
-0.0200777
-0.0204747
-0.0207786
-0.0210054
-0.0211864
-0.0213334
-0.0214531
-0.021549
-0.0216249
-0.0216834
-0.0217265
-0.0217569
-0.0217779
-0.021793
-0.0218035
-0.0218093
-0.0218116
-0.00269777
-0.00270265
-0.00271606
-0.00272526
-0.00272835
-0.00272622
-0.00271953
-0.00270854
-0.00269352
-0.00267487
-0.00265307
-0.00262866
-0.00260222
-0.00257439
-0.00254579
-0.00251709
-0.00248888
-0.00246175
-0.00243619
-0.00241266
-0.00239151
)
;
    }
    procBoundary40to41
    {
        type            processor;
        value           nonuniform List<scalar> 
87
(
0.00236262
0.00238513
0.00241117
0.00244101
0.00247463
0.00251165
0.00255145
0.00259321
0.00263599
0.00267884
0.00272089
0.00276139
0.0027998
0.00283577
0.00286917
0.00290005
0.00292868
0.0029555
0.00298136
0.00300748
0.00303142
0.00322594
0.0192075
0.0213507
0.0230326
0.0241609
0.0245805
0.0245301
0.0242714
0.0239604
0.0236613
0.0233938
0.02316
0.0229571
0.0227825
0.0226343
0.0225106
0.0224088
0.0223262
0.0222615
0.0222141
0.022183
0.0221674
0.0192594
0.0197892
0.0202639
0.0206534
0.0209565
0.0211865
0.021359
0.0214868
0.0215798
0.0216457
0.0216919
0.0217242
0.021746
0.0217588
0.0217648
0.011409
0.00627954
0.012299
0.0140631
0.0160665
0.0177061
0.00182746
0.0187463
0.00206321
0.00205104
0.002053
0.00205878
0.00206741
0.00207879
0.00209285
0.00210931
0.0021277
0.00214745
0.00216797
0.00218865
0.00220894
0.00222838
0.00224668
0.00226374
0.00227972
0.00229497
0.00231011
0.00232588
0.00234311
)
;
    }
}


// ************************************************************************* //
