/*--------------------------------*- C++ -*----------------------------------*\
  =========                 |
  \\      /  F ield         | OpenFOAM: The Open Source CFD Toolbox
   \\    /   O peration     | Website:  https://openfoam.org
    \\  /    A nd           | Version:  7
     \\/     M anipulation  |
\*---------------------------------------------------------------------------*/
FoamFile
{
    version     2.0;
    format      ascii;
    class       surfaceScalarField;
    location    "45";
    object      phi;
}
// * * * * * * * * * * * * * * * * * * * * * * * * * * * * * * * * * * * * * //

dimensions      [0 3 -1 0 0 0 0];

internalField   nonuniform List<scalar> 
277
(
-0.000416297
-0.00336329
-0.000208925
-0.00337519
-1.24387e-06
-0.00338112
0.000206431
-0.00338107
-0.00337502
0.00425409
-0.0188759
-0.0043019
0.00429137
-0.0191472
0.00421605
-0.0193667
0.00407345
-0.0195582
0.0038543
-0.0197502
0.00371474
-0.0199567
0.00358173
-0.0200433
0.0033348
-0.0200914
0.0030636
-0.0202151
0.00289688
-0.0203096
0.00275942
-0.0203097
0.00250941
-0.020282
0.00221193
-0.0203052
0.00186672
-0.0203949
0.0016246
-0.0204245
0.00143996
-0.0204064
0.00116627
-0.0203703
0.000834878
-0.020448
0.000516828
-0.020457
0.000333667
-0.0204248
-0.0204621
0.00392795
-0.00344532
0.00423452
0.00440791
0.00445976
0.00437843
0.00415164
0.00391422
0.00369766
0.00340355
0.00304818
0.00274182
0.00250613
0.00228271
0.00198058
0.00165965
0.00138096
0.0011628
0.000863698
0.000558021
0.000302517
-0.0031628
-0.00395642
-0.00318625
-0.00291033
-0.0107472
-0.00323745
-0.0036293
-0.00293865
-0.00300627
-0.0101378
-0.00331437
-0.00332119
-0.00270349
-0.00309886
-0.00953562
-0.00338881
-0.00303124
-0.00248101
-0.00318728
-0.00893995
-0.00345983
-0.00275869
-0.00227077
-0.0032714
-0.0083504
-0.00352734
-0.00250276
-0.00335098
-0.00776652
-0.00226258
-0.0034258
-0.00718802
-0.00203726
-0.00349568
-0.00661458
-0.0018258
-0.00356051
-0.00604594
-0.00162719
-0.00362017
-0.00548179
-0.00144034
-0.00367459
-0.00492182
-0.00126419
-0.0037237
-0.00436568
-0.00109765
-0.00376746
-0.00381302
-0.000939605
-0.00380582
-0.00326346
-0.000788976
-0.00383874
-0.00271658
-0.000644675
-0.00386619
-0.00217199
-0.000505623
-0.00388816
-0.00162924
-0.000370749
-0.00390462
-0.00108791
-0.000238988
-0.00391556
-0.000547536
-0.000109283
-0.00392098
-7.68302e-06
1.94236e-05
-0.00392086
0.000532113
0.000148176
-0.00391521
0.0010723
0.000278032
-0.00390403
0.00161333
0.000410041
-0.00388734
0.00215564
0.000545261
-0.00386514
0.00269967
0.000684751
-0.00383745
0.00324583
0.000829577
-0.00380431
0.00379454
0.000980812
-0.00376573
0.00434619
0.00113953
-0.00372176
0.00490116
0.00130682
-0.00367244
0.00545978
0.00148376
-0.00361783
0.0060224
0.00167143
-0.00355799
0.00658932
0.00187088
-0.003493
0.00716082
0.00208318
-0.00342296
0.00773718
0.00230931
-0.00334802
0.00831867
0.00255026
-0.00326833
0.00890561
-0.00352497
0.00280689
0.00228241
-0.00318413
0.00949841
-0.00345728
0.00308004
0.00249342
-0.00309566
0.0100974
-0.00338608
0.00337046
0.00271674
-0.00300306
0.0107035
-0.00331148
0.00367888
0.00295281
-0.00290712
-0.0032344
0.00400616
0.00320137
-0.00315966
0.00435187
0.00346132
-0.0188691
0.0043317
0.00394186
-0.0191338
0.00439012
0.00425365
-0.0193427
0.00433249
0.00445579
-0.0195603
0.00417924
0.00448845
-0.0197625
0.00405518
0.00438438
-0.019879
0.00390007
0.00425221
-0.0199939
0.00367693
0.00408096
-0.0201165
0.0033733
0.00384354
-0.020243
0.00322918
0.00353986
-0.0202866
0.00287799
0.00323582
-0.020352
0.00267677
0.00291299
-0.0203952
0.0022983
0.00257489
-0.0204466
0.00202498
0.00220388
-0.0204545
0.00180963
0.00183929
-0.0204104
0.00162215
0.00154723
-0.0203808
0.0013688
0.00130729
-0.0204257
0.00102744
0.00102341
-0.0204362
0.000727686
0.000730091
-0.0203927
0.00053581
0.000494064
-0.0203789
0.000315853
0.000277511
-0.0204297
)
;

boundaryField
{
    inlet
    {
        type            calculated;
        value           nonuniform 0();
    }
    outlet
    {
        type            calculated;
        value           nonuniform 0();
    }
    cylinder
    {
        type            calculated;
        value           nonuniform 0();
    }
    top
    {
        type            symmetryPlane;
        value           uniform 0;
    }
    bottom
    {
        type            symmetryPlane;
        value           uniform 0;
    }
    defaultFaces
    {
        type            empty;
        value           nonuniform 0();
    }
    procBoundary2to1
    {
        type            processor;
        value           nonuniform List<scalar> 
86
(
-0.0193585
-0.0194537
-0.0195401
-0.01961
-0.0196689
-0.01973
-0.0198059
-0.0198748
-0.019921
-0.0199542
-0.0200034
-0.0200464
-0.0200817
-0.0200928
-0.0201036
-0.0201277
-0.0201522
-0.0201489
-0.0201513
-0.0201693
-0.0201596
-0.00342187
-0.00348505
-0.00354954
-0.00361128
-0.00367007
-0.0037259
-0.00207221
-0.00359116
-0.00365112
-0.00370714
-0.00375912
-0.00380701
-0.00385074
-0.00389025
-0.0039255
-0.00395645
-0.00398304
-0.00400525
-0.00402304
-0.00403638
-0.00404527
-0.00404968
-0.00404961
-0.00404507
-0.00403604
-0.00402256
-0.00400463
-0.00398228
-0.00395554
-0.00392445
-0.00388905
-0.00384938
-0.00380549
-0.00375744
-0.00370529
-0.0036491
-0.00358896
-0.00208315
-0.00372422
-0.00366829
-0.0036094
-0.00354755
-0.00348295
-0.00341961
-0.0193496
-0.0194456
-0.0195449
-0.019593
-0.0196585
-0.0197469
-0.0198226
-0.0198791
-0.0199394
-0.0199826
-0.0200292
-0.0200571
-0.0200756
-0.02009
-0.0201183
-0.0201409
-0.0201418
-0.0201428
-0.0201567
-0.0201624
-0.0201522
)
;
    }
    procBoundary2to3
    {
        type            processor;
        value           nonuniform List<scalar> 
82
(
0.00259162
0.00268185
0.00276711
0.00284729
0.00292225
0.00299186
0.00305602
0.00311461
0.00316757
0.0032148
0.00325625
0.00329187
0.0033216
0.000623043
0.00334542
0.00315654
0.00316782
0.00317344
0.00317339
0.00316767
0.000413784
0.003363
0.00334503
0.00332111
0.00329129
0.0032556
0.00321408
0.0031668
0.00311382
0.00305521
0.00299107
0.0029215
0.00284661
0.00276652
0.00268139
0.00259134
0.0189237
0.0191099
0.019442
0.0197008
0.0199694
0.0200963
0.0201763
0.0203383
0.0204863
0.0204763
0.0204472
0.020532
0.0206026
0.0207401
0.0206666
0.020591
0.020644
0.0207794
0.020775
0.020608
0.0207958
0.00281732
0.0113637
0.0113163
0.00281395
0.0188893
0.0190754
0.0194004
0.0197136
0.0198866
0.0200341
0.020217
0.0204201
0.0203872
0.0206378
0.0205532
0.0207736
0.0207199
0.0206699
0.0205978
0.0206342
0.020767
0.0207359
0.0205846
0.0205989
0.0207455
)
;
    }
    procBoundary2to4
    {
        type            processor;
        value           nonuniform List<scalar> 6(0.00229387 0.0023968 0.00249671 0.00249664 0.00239698 0.00229437);
    }
}


// ************************************************************************* //
