/*--------------------------------*- C++ -*----------------------------------*\
  =========                 |
  \\      /  F ield         | OpenFOAM: The Open Source CFD Toolbox
   \\    /   O peration     | Website:  https://openfoam.org
    \\  /    A nd           | Version:  7
     \\/     M anipulation  |
\*---------------------------------------------------------------------------*/
FoamFile
{
    version     2.0;
    format      ascii;
    class       volVectorField;
    location    "10";
    object      U;
}
// * * * * * * * * * * * * * * * * * * * * * * * * * * * * * * * * * * * * * //

dimensions      [0 1 -1 0 0 0 0];

internalField   nonuniform List<vector> 
928
(
(0.0297866 -0.00193396 -2.14907e-21)
(0.0354113 -0.00196357 2.24976e-21)
(0.041118 -0.0019892 -6.35234e-23)
(0.0468958 -0.00201118 -2.5762e-21)
(0.0527346 -0.00202983 -5.32914e-22)
(0.0586253 -0.00204544 1.02229e-21)
(0.0313564 -0.00579978 -5.55316e-21)
(0.0369757 -0.00588819 3.29295e-21)
(0.0426759 -0.00596471 -3.81399e-21)
(0.0484462 -0.00603032 5.31586e-21)
(0.0542768 -0.00608594 -3.71009e-21)
(0.0601586 -0.00613245 6.2705e-21)
(0.0344914 -0.00965474 2.90055e-21)
(0.0400997 -0.00980118 -6.30243e-21)
(0.0457868 -0.0099279 3.43253e-22)
(0.0515422 -0.0100365 1.50748e-20)
(0.0573563 -0.0101286 -1.16628e-21)
(0.06322 -0.0102056 -4.6765e-21)
(0.0447744 -0.0136947 6.30545e-21)
(0.0504416 -0.0138705 -1.49943e-21)
(0.0561743 -0.0140212 1.47948e-21)
(0.0619632 -0.0141489 -7.67937e-21)
(0.0677998 -0.0142557 6.25886e-21)
(0.0509862 -0.0175607 -1.16094e-20)
(0.0566262 -0.017784 -1.09363e-20)
(0.0623281 -0.0179755 2.40903e-20)
(0.0680831 -0.0181377 -1.7024e-20)
(0.073883 -0.0182733 3.10426e-21)
(0.0587171 -0.021391 8.73083e-22)
(0.0643221 -0.02166 -1.78461e-20)
(0.0699847 -0.0218905 2.43144e-20)
(0.0756966 -0.0220858 -6.4956e-21)
(0.0814499 -0.022249 1.25772e-20)
(0.0679449 -0.0251772 -1.10684e-20)
(0.0735065 -0.0254895 2.10873e-21)
(0.0791207 -0.0257571 9.52501e-22)
(0.0847796 -0.0259839 1.26368e-21)
(0.0904762 -0.0261732 7.34798e-21)
(0.0786428 -0.0289105 -6.03303e-21)
(0.0841519 -0.0292635 1.10402e-20)
(0.0897078 -0.0295661 -1.63539e-20)
(0.0953036 -0.0298224 -7.09541e-21)
(0.100933 -0.0300364 1.95663e-20)
(0.09078 -0.0325818 -2.99278e-20)
(0.0962265 -0.0329728 -5.97886e-21)
(0.101714 -0.0333078 4.13812e-20)
(0.107235 -0.0335917 -1.77064e-20)
(0.112786 -0.0338286 -1.30639e-20)
(0.104321 -0.0361817 1.32378e-20)
(0.109694 -0.0366076 9.53866e-21)
(0.115102 -0.0369726 -3.9152e-20)
(0.120538 -0.0372818 -5.50323e-21)
(0.125997 -0.03754 7.98095e-21)
(0.119228 -0.0397003 -3.14428e-20)
(0.124516 -0.040158 3.83244e-20)
(0.129831 -0.0405504 -1.19597e-20)
(0.135168 -0.0408828 1.33141e-20)
(0.140525 -0.0411604 -2.74778e-21)
(0.145896 -0.0413876 2.27686e-20)
(0.135456 -0.0431274 1.01402e-20)
(0.140646 -0.0436137 -2.39492e-20)
(0.145856 -0.0440308 -3.29395e-22)
(0.151082 -0.0443844 -4.18274e-21)
(0.156322 -0.0446796 5.34109e-20)
(0.161573 -0.0449213 -1.97168e-20)
(0.158037 -0.0469643 6.73295e-21)
(0.163128 -0.0474036 2.41647e-20)
(0.168229 -0.0477761 1.06555e-20)
(0.173339 -0.0480873 -3.05987e-22)
(0.178455 -0.0483423 9.38786e-21)
(0.176637 -0.0501988 -2.025e-20)
(0.181594 -0.0506578 -2.73451e-21)
(0.186555 -0.0510474 9.92489e-21)
(0.19152 -0.0513731 1.46294e-20)
(0.196488 -0.0516403 -4.1886e-20)
(0.19639 -0.0533061 3.2808e-20)
(0.201197 -0.0537827 3.65425e-21)
(0.206003 -0.0541877 -3.86225e-20)
(0.210809 -0.0545267 1.86541e-20)
(0.215613 -0.0548051 -2.29777e-20)
(0.217237 -0.0562749 3.0528e-20)
(0.221877 -0.0567673 -1.52067e-20)
(0.226513 -0.0571863 -8.66236e-21)
(0.231143 -0.0575376 3.77176e-20)
(0.235769 -0.0578267 -3.71279e-20)
(0.24039 -0.0580583 -8.80228e-22)
(0.243571 -0.0596007 2.09617e-20)
(0.248019 -0.0600326 -3.09839e-20)
(0.252458 -0.0603957 1.16685e-21)
(0.25689 -0.0606951 3.14898e-20)
(0.261315 -0.0609358 1.28616e-20)
(0.266212 -0.0622718 -5.85681e-21)
(0.270454 -0.0627162 2.35633e-20)
(0.274687 -0.0630908 -4.39236e-20)
(0.278909 -0.0634006 1.25781e-20)
(0.283124 -0.0636508 5.74599e-21)
(0.289728 -0.06477 2.55582e-20)
(0.293749 -0.0652268 3.36144e-21)
(0.297757 -0.0656131 -6.079e-20)
(0.301755 -0.065934 2.41282e-20)
(0.305744 -0.0661944 -2.86691e-20)
(0.314047 -0.0670849 -1.72832e-20)
(0.317828 -0.0675545 9.42578e-20)
(0.321596 -0.0679533 3.33654e-20)
(0.325354 -0.0682863 -1.20055e-20)
(0.329102 -0.068558 -1.15129e-19)
(0.332843 -0.0687731 5.68227e-20)
(0.342617 -0.0696899 -1.41718e-21)
(0.346129 -0.0701025 2.39146e-20)
(0.34963 -0.070449 2.49277e-20)
(0.353124 -0.0707338 7.81127e-21)
(0.356612 -0.0709614 -6.88146e-20)
(0.368037 -0.071624 5.32711e-20)
(0.371276 -0.0720523 4.02615e-20)
(0.374507 -0.0724143 -8.98158e-20)
(0.377732 -0.0727144 9.49859e-20)
(0.380954 -0.0729567 -9.62903e-20)
(0.394008 -0.0733487 -2.24425e-20)
(0.396959 -0.0737952 5.08546e-20)
(0.399905 -0.0741753 -7.06006e-20)
(0.402848 -0.0744931 7.4154e-20)
(0.405791 -0.0747528 -4.09764e-20)
(0.408735 -0.074958 1.63336e-20)
(0.423096 -0.0753245 3.59136e-20)
(0.425743 -0.0757257 -7.78381e-21)
(0.428393 -0.0760644 -2.28408e-20)
(0.431045 -0.0763444 3.19044e-20)
(0.433703 -0.0765695 9.26541e-21)
(0.449604 -0.0766347 1.73445e-20)
(0.451942 -0.0770606 1.81299e-20)
(0.454285 -0.0774237 -8.88611e-21)
(0.456637 -0.0777276 2.01863e-20)
(0.458998 -0.0779759 -7.80013e-20)
(0.476402 -0.0777208 -1.52258e-20)
(0.478418 -0.0781755 -2.07047e-20)
(0.480445 -0.0785669 -5.06585e-20)
(0.482487 -0.0788985 -1.99672e-20)
(0.484544 -0.0791739 8.87948e-20)
(0.486617 -0.0793962 2.50671e-22)
(0.50509 -0.0790641 2.18788e-20)
(0.506793 -0.0794881 2.97213e-20)
(0.508517 -0.0798516 -1.00989e-19)
(0.510261 -0.0801581 3.13032e-21)
(0.512028 -0.0804105 2.06676e-20)
(0.531878 -0.0797265 6.7379e-20)
(0.533249 -0.0801877 -2.91903e-20)
(0.534648 -0.0805875 2.85277e-20)
(0.536074 -0.0809291 1.49985e-20)
(0.53753 -0.0812157 -4.12337e-20)
(0.559735 -0.0806969 6.53592e-20)
(0.560804 -0.0811379 4.92848e-20)
(0.561908 -0.0815195 -1.24883e-20)
(0.563048 -0.0818447 -1.04713e-19)
(0.564223 -0.0821164 4.63748e-20)
(0.586174 -0.0810076 3.39466e-20)
(0.586909 -0.0814967 -7.76516e-20)
(0.587688 -0.0819248 8.93378e-21)
(0.58851 -0.0822949 5.18097e-20)
(0.589375 -0.0826099 -4.26176e-20)
(0.62622 -0.0808849 2.3911e-28)
(0.6265 -0.0814512 0)
(0.626835 -0.0819548 0)
(0.627223 -0.0823984 0)
(0.627663 -0.0827851 0)
(0.685063 -0.0809977 -9.48746e-28)
(0.684666 -0.0816382 0)
(0.684339 -0.0822147 0)
(0.68408 -0.08273 0)
(0.683889 -0.0831869 0)
(0.743949 -0.0799169 2.20518e-27)
(0.742882 -0.0806705 0)
(0.741902 -0.0813565 0)
(0.741005 -0.0819779 0)
(0.740189 -0.0825377 0)
(0.801952 -0.077855 -2.18478e-27)
(0.800253 -0.0787446 0)
(0.798653 -0.0795619 0)
(0.797149 -0.0803101 0)
(0.795738 -0.0809922 0)
(0.858212 -0.0749379 -1.00396e-27)
(0.855939 -0.0759797 0)
(0.853776 -0.0769436 0)
(0.851717 -0.0778332 0)
(0.849761 -0.0786518 0)
(0.911948 -0.071253 1.25124e-27)
(0.909181 -0.0724579 0)
(0.906529 -0.0735792 0)
(0.903988 -0.0746207 0)
(0.901553 -0.075586 0)
(0.962493 -0.066928 -3.24303e-27)
(0.959326 -0.0682999 0)
(0.956275 -0.0695829 0)
(0.953335 -0.0707809 0)
(0.950503 -0.0718979 0)
(1.00931 -0.0621083 0)
(1.00585 -0.0636442 0)
(1.0025 -0.0650866 0)
(0.99925 -0.0664396 0)
(0.99611 -0.0677071 0)
(1.05203 -0.0569444 0)
(1.04837 -0.0586348 0)
(1.04481 -0.0602283 0)
(1.04135 -0.0617289 0)
(1.038 -0.0631406 0)
(1.0904 -0.0515836 0)
(1.08664 -0.0534139 0)
(1.08298 -0.0551451 0)
(1.0794 -0.0567812 0)
(1.07592 -0.0583261 0)
(1.12433 -0.046163 0)
(1.12057 -0.0481147 0)
(1.11688 -0.0499664 0)
(1.11327 -0.0517222 0)
(1.10974 -0.0533857 0)
(1.15386 -0.0408033 0)
(1.15017 -0.0428556 0)
(1.14654 -0.0448084 0)
(1.14297 -0.0466655 0)
(1.13947 -0.0484303 0)
(1.17913 -0.0356058 -4.64322e-28)
(1.17557 -0.0377368 0)
(1.17207 -0.0397701 0)
(1.16861 -0.041709 0)
(1.1652 -0.0435567 0)
(1.20038 -0.0306505 0)
(1.19701 -0.0328389 0)
(1.19367 -0.034932 0)
(1.19037 -0.036933 0)
(1.1871 -0.0388446 0)
(1.21791 -0.0259967 0)
(1.21476 -0.028222 0)
(1.21162 -0.0303553 0)
(1.20851 -0.0323993 0)
(1.20543 -0.0343567 0)
(1.23205 -0.0216842 0)
(1.22914 -0.0239276 0)
(1.22624 -0.0260828 0)
(1.22335 -0.0281522 0)
(1.22047 -0.0301381 0)
(1.24318 -0.0177353 0)
(1.24052 -0.0199802 0)
(1.23786 -0.022141 0)
(1.2352 -0.0242198 0)
(1.23255 -0.0262186 0)
(1.25166 -0.0141576 0)
(1.24926 -0.0163896 0)
(1.24684 -0.0185418 0)
(1.24442 -0.020616 0)
(1.24199 -0.0226141 0)
(1.25785 -0.0109468 0)
(1.2557 -0.0131539 0)
(1.25353 -0.0152855 0)
(1.25134 -0.0173433 0)
(1.24914 -0.0193287 0)
(1.2621 -0.00808952 0)
(1.26019 -0.0102619 0)
(1.25825 -0.0123631 0)
(1.25629 -0.0143945 0)
(1.25431 -0.0163574 0)
(1.26473 -0.00556604 3.88797e-28)
(1.26304 -0.00769585 0)
(1.26132 -0.00975867 0)
(1.25957 -0.0117557 0)
(1.2578 -0.013688 0)
(1.26601 -0.00335243 2.39499e-27)
(1.26453 -0.00543365 0)
(1.26301 -0.00745192 0)
(1.26146 -0.00940821 0)
(1.25989 -0.0113036 0)
(1.2662 -0.00142256 1.89239e-27)
(1.26491 -0.00345071 0)
(1.26358 -0.00541976 0)
(1.26221 -0.00733051 0)
(1.26082 -0.00918386 0)
(1.26552 0.000250313 0)
(1.2644 -0.00172157 0)
(1.26324 -0.00363798 0)
(1.26204 -0.0054996 0)
(1.26081 -0.00730718 0)
(1.26415 0.00169238 0)
(1.26319 -0.000221045 0)
(1.26218 -0.00208243 0)
(1.26113 -0.00389234 0)
(1.26005 -0.0056514 0)
(1.26226 0.00292849 7.63338e-28)
(1.26143 0.00107489 0)
(1.26056 -0.000729886 0)
(1.25965 -0.00248631 0)
(1.2587 -0.00419491 0)
(1.25997 0.00398158 0)
(1.25927 0.00218858 0)
(1.25852 0.000441363 0)
(1.25773 -0.00126044 0)
(1.2569 -0.00291726 0)
(1.2574 0.00487243 0)
(1.2568 0.00314034 0)
(1.25615 0.00145118 0)
(1.25547 -0.000195329 0)
(1.25475 -0.00179954 0)
(1.25461 0.00561952 0)
(1.25411 0.00394835 0)
(1.25356 0.00231742 0)
(1.25298 0.000726526 0)
(1.25235 -0.000824605 0)
(1.2517 0.00623918 0)
(1.25128 0.00462869 0)
(1.25082 0.00305592 0)
(1.25032 0.00152072 0)
(1.24978 2.28774e-05 0)
(1.24871 0.0067456 0)
(1.24836 0.00519543 0)
(1.24798 0.00368059 0)
(1.24755 0.00220098 0)
(1.24709 0.000756469 0)
(1.24568 0.00715114 0)
(1.2454 0.00566082 0)
(1.24508 0.00420357 0)
(1.24473 0.00277935 0)
(1.24433 0.00138807 0)
(1.24265 0.00746646 0)
(1.24243 0.00603547 0)
(1.24218 0.00463541 0)
(1.24188 0.00326629 0)
(1.24155 0.00192806 0)
(1.23964 0.00770081 0)
(1.23948 0.00632859 0)
(1.23928 0.00498527 0)
(1.23904 0.00367091 0)
(1.23876 0.00238549 0)
(1.23669 0.00786219 -6.29481e-28)
(1.23658 0.00654816 0)
(1.23643 0.00526112 0)
(1.23623 0.00400115 0)
(1.23601 0.00276827 0)
(1.2338 0.00795759 0)
(1.23373 0.00670116 0)
(1.23362 0.0054699 0)
(1.23348 0.00426393 0)
(1.2333 0.00308329 0)
(1.23098 0.00799309 -2.7482e-28)
(1.23095 0.00679368 0)
(1.23089 0.00561771 0)
(1.23079 0.00446533 0)
(1.23064 0.00333661 0)
(1.22825 0.0079741 -5.95248e-28)
(1.22826 0.0068311 0)
(1.22824 0.00570993 0)
(1.22817 0.00461072 0)
(1.22807 0.00353359 0)
(1.22562 0.00790538 -2.65224e-28)
(1.22566 0.00681822 0)
(1.22567 0.00575133 0)
(1.22564 0.00470488 0)
(1.22557 0.00367898 0)
(1.22308 0.00779122 0)
(1.22316 0.00675931 0)
(1.2232 0.00574621 0)
(1.2232 0.00475208 0)
(1.22316 0.00377707 0)
(1.22066 0.00763549 -5.65925e-28)
(1.22076 0.00665825 0)
(1.22083 0.00569842 0)
(1.22086 0.00475619 0)
(1.22085 0.00383172 0)
(1.21834 0.00744169 0)
(1.21847 0.00651855 0)
(1.21856 0.0056115 0)
(1.21862 0.00472074 0)
(1.21864 0.00384643 0)
(1.21613 0.00721304 -2.48926e-28)
(1.21629 0.00634343 0)
(1.2164 0.00548867 0)
(1.21648 0.00464895 0)
(1.21653 0.00382444 0)
(1.21404 0.00695248 0)
(1.21422 0.00613586 0)
(1.21436 0.0053329 0)
(1.21446 0.0045438 0)
(1.21453 0.00376874 0)
(1.21207 0.00666275 0)
(1.21226 0.00589858 0)
(1.21242 0.00514696 0)
(1.21255 0.00440806 0)
(1.21263 0.00368208 0)
(1.21021 0.00634639 0)
(1.21043 0.00563416 0)
(1.2106 0.00493341 0)
(1.21075 0.00424432 0)
(1.21085 0.00356706 0)
(1.20848 0.00600577 0)
(1.20871 0.00534499 0)
(1.2089 0.00469466 0)
(1.20906 0.00405498 0)
(1.20919 0.00342611 0)
(1.20686 0.00564313 2.33679e-28)
(1.20711 0.00503331 0)
(1.20732 0.00443298 0)
(1.20749 0.00384234 0)
(1.20763 0.00326152 0)
(1.20537 0.00526054 0)
(1.20563 0.00470124 0)
(1.20585 0.00415052 0)
(1.20604 0.00360855 0)
(1.2062 0.00307547 0)
(1.204 0.00485999 0)
(1.20427 0.0043508 0)
(1.20451 0.00384931 0)
(1.20471 0.00335568 0)
(1.20488 0.00287003 0)
(1.20276 0.00444337 0)
(1.20304 0.0039839 0)
(1.20328 0.00353128 0)
(1.2035 0.00308567 0)
(1.20368 0.00264718 0)
(1.20382 0.00221594 0)
(1.20163 0.00401247 -1.50909e-27)
(1.20192 0.00360236 0)
(1.20218 0.00319829 0)
(1.2024 0.0028004 0)
(1.20259 0.00240882 0)
(1.20275 0.00202363 0)
(1.20063 0.003569 -4.93482e-28)
(1.20093 0.00320792 0)
(1.2012 0.00285211 0)
(1.20143 0.00250169 0)
(1.20163 0.00215676 0)
(1.20179 0.00181741 0)
(1.19976 0.0031146 0)
(1.20007 0.00280227 0)
(1.20034 0.00249446 0)
(1.20058 0.00219126 0)
(1.20078 0.00189277 0)
(1.20096 0.00159907 0)
(1.19901 0.00265088 -2.21208e-28)
(1.19932 0.00238704 0)
(1.1996 0.00212698 0)
(1.19985 0.0018708 0)
(1.20006 0.00161856 0)
(1.20024 0.00137035 0)
(1.19839 0.00217935 -4.8571e-28)
(1.1987 0.00196379 0)
(1.19899 0.00175129 0)
(1.19924 0.00154194 0)
(1.19946 0.00133579 0)
(1.19964 0.00113291 0)
(1.19789 0.00170151 -2.19452e-28)
(1.19821 0.00153404 0)
(1.1985 0.00136894 0)
(1.19875 0.00120627 0)
(1.19897 0.00104608 0)
(1.19916 0.00088841 0)
(1.19751 0.0012188 0)
(1.19784 0.00109929 0)
(1.19813 0.000981451 0)
(1.19839 0.000865342 0)
(1.19861 0.000750996 0)
(1.1988 0.000638447 0)
(1.19726 0.000732702 0)
(1.19759 0.000661031 0)
(1.19788 0.000590368 0)
(1.19814 0.000520736 0)
(1.19837 0.000452159 0)
(1.19856 0.000384657 0)
(1.19714 0.000244496 0)
(1.19746 0.000220612 0)
(1.19776 0.000197064 0)
(1.19802 0.000173858 0)
(1.19825 0.000151004 0)
(1.19845 0.000128507 0)
(0.626217 0.080885 0)
(0.685061 0.0809976 0)
(0.743947 0.0799167 0)
(0.80195 0.0778547 0)
(0.85821 0.0749375 9.09341e-11)
(0.911946 0.0712525 8.98655e-11)
(0.962491 0.0669274 3.24301e-27)
(1.00931 0.0621076 0)
(1.05203 0.0569436 0)
(1.0904 0.0515829 0)
(1.12433 0.0461622 0)
(1.15386 0.0408025 4.73506e-28)
(1.17913 0.0356049 0)
(1.20038 0.0306496 0)
(1.21791 0.0259959 0)
(1.23205 0.0216834 0)
(1.24318 0.0177344 0)
(1.25166 0.0141567 0)
(1.25785 0.0109459 0)
(1.2621 0.00808867 0)
(1.26473 0.00556522 -3.88796e-28)
(1.26601 0.00335162 0)
(1.2662 0.00142177 0)
(1.26552 -0.000251073 0)
(1.26415 -0.00169312 3.54175e-28)
(1.26226 -0.0029292 0)
(1.25997 -0.00398227 0)
(1.2574 -0.00487308 0)
(1.25461 -0.00562016 0)
(1.2517 -0.00623978 0)
(1.24871 -0.00674618 0)
(1.24568 -0.00715169 0)
(1.24265 -0.00746699 0)
(1.23964 -0.00770132 0)
(1.23669 -0.00786268 6.2948e-28)
(1.2338 -0.00795804 0)
(1.23098 -0.00799353 2.7482e-28)
(1.22825 -0.00797451 0)
(1.22562 -0.00790577 0)
(1.22309 -0.00779159 0)
(1.22066 -0.00763583 0)
(1.21834 -0.00744202 -2.52648e-28)
(1.21613 -0.00721334 2.48926e-28)
(1.21404 -0.00695276 0)
(1.21207 -0.00666301 0)
(1.21021 -0.00634664 0)
(1.20848 -0.006006 0)
(1.20686 -0.00564333 -2.33678e-28)
(1.20537 -0.00526073 0)
(1.204 -0.00486017 -5.05246e-28)
(1.20276 -0.00444353 0)
(1.20163 -0.00401261 0)
(1.20063 -0.00356912 0)
(1.19976 -0.00311471 0)
(1.19901 -0.00265096 0)
(1.19839 -0.00217942 4.8571e-28)
(1.19789 -0.00170157 0)
(1.19751 -0.00121884 2.18868e-28)
(1.19726 -0.000732726 0)
(1.19714 -0.000244504 0)
(0.626498 0.0814511 0)
(0.684663 0.081638 0)
(0.74288 0.0806701 0)
(0.800251 0.0787442 0)
(0.855937 0.0759791 0)
(0.909179 0.0724573 0)
(0.959324 0.0682993 0)
(1.00585 0.0636435 0)
(1.04837 0.058634 0)
(1.08664 0.0534131 0)
(1.12056 0.0481138 0)
(1.15016 0.0428547 0)
(1.17557 0.0377359 0)
(1.19701 0.0328379 0)
(1.21476 0.0282211 0)
(1.22914 0.0239267 0)
(1.24052 0.0199793 0)
(1.24926 0.0163887 0)
(1.2557 0.013153 0)
(1.26019 0.010261 0)
(1.26304 0.00769499 0)
(1.26453 0.00543281 0)
(1.26491 0.0034499 0)
(1.2644 0.00172078 0)
(1.26319 0.000220281 0)
(1.26143 -0.00107563 0)
(1.25927 -0.00218929 0)
(1.2568 -0.00314102 0)
(1.25411 -0.003949 0)
(1.25128 -0.00462931 0)
(1.24836 -0.00519603 0)
(1.2454 -0.00566139 0)
(1.24243 -0.00603601 0)
(1.23948 -0.00632911 0)
(1.23658 -0.00654866 0)
(1.23373 -0.00670163 0)
(1.23095 -0.00679412 0)
(1.22826 -0.00683153 0)
(1.22566 -0.00681862 0)
(1.22316 -0.00675969 0)
(1.22076 -0.0066586 0)
(1.21847 -0.00651888 0)
(1.21629 -0.00634374 0)
(1.21422 -0.00613615 0)
(1.21226 -0.00589885 0)
(1.21043 -0.00563441 0)
(1.20871 -0.00534522 0)
(1.20711 -0.00503352 0)
(1.20563 -0.00470144 0)
(1.20427 -0.00435098 0)
(1.20304 -0.00398406 0)
(1.20192 -0.0036025 0)
(1.20093 -0.00320804 0)
(1.20007 -0.00280238 0)
(1.19932 -0.00238713 0)
(1.1987 -0.00196386 0)
(1.19821 -0.0015341 0)
(1.19784 -0.00109933 0)
(1.19759 -0.000661056 0)
(1.19746 -0.00022062 0)
(0.626833 0.0819546 0)
(0.684336 0.0822144 0)
(0.7419 0.0813561 0)
(0.798651 0.0795614 0)
(0.853773 0.076943 0)
(0.906527 0.0735785 0)
(0.956273 0.0695822 0)
(1.00249 0.0650858 0)
(1.04481 0.0602274 0)
(1.08297 0.0551442 0)
(1.11688 0.0499655 0)
(1.14654 0.0448075 0)
(1.17206 0.0397692 0)
(1.19367 0.034931 0)
(1.21162 0.0303543 0)
(1.22624 0.0260818 0)
(1.23786 0.02214 0)
(1.24684 0.0185409 0)
(1.25353 0.0152846 0)
(1.25825 0.0123622 0)
(1.26132 0.00975777 0)
(1.26301 0.00745104 0)
(1.26358 0.00541891 0)
(1.26324 0.00363716 0)
(1.26218 0.00208164 0)
(1.26056 0.000729123 0)
(1.25852 -0.000442097 0)
(1.25615 -0.00145189 0)
(1.25356 -0.00231809 0)
(1.25082 -0.00305656 0)
(1.24798 -0.0036812 0)
(1.24508 -0.00420416 0)
(1.24218 -0.00463597 0)
(1.23928 -0.00498581 0)
(1.23643 -0.00526163 0)
(1.23362 -0.00547039 0)
(1.23089 -0.00561817 0)
(1.22824 -0.00571036 0)
(1.22567 -0.00575174 0)
(1.2232 -0.00574659 0)
(1.22083 -0.00569878 0)
(1.21856 -0.00561184 0)
(1.2164 -0.00548899 0)
(1.21436 -0.0053332 0)
(1.21242 -0.00514723 0)
(1.2106 -0.00493366 0)
(1.2089 -0.0046949 0)
(1.20732 -0.0044332 0)
(1.20585 -0.00415072 0)
(1.20451 -0.00384949 0)
(1.20328 -0.00353145 0)
(1.20218 -0.00319843 0)
(1.2012 -0.00285224 0)
(1.20034 -0.00249457 0)
(1.1996 -0.00212707 0)
(1.19899 -0.00175137 0)
(1.1985 -0.001369 0)
(1.19813 -0.000981492 0)
(1.19788 -0.000590393 0)
(1.19776 -0.000197072 0)
(0.627221 0.0823981 0)
(0.684078 0.0827296 0)
(0.741003 0.0819774 0)
(0.797147 0.0803095 0)
(0.851715 0.0778325 0)
(0.903986 0.0746199 0)
(0.953333 0.0707801 0)
(0.999248 0.0664387 0)
(1.04135 0.0617279 0)
(1.0794 0.0567802 0)
(1.11327 0.0517212 0)
(1.14297 0.0466645 0)
(1.16861 0.041708 0)
(1.19037 0.0369319 0)
(1.20851 0.0323982 0)
(1.22335 0.0281511 0)
(1.2352 0.0242188 0)
(1.24442 0.020615 0)
(1.25134 0.0173423 0)
(1.25629 0.0143935 0)
(1.25957 0.0117547 0)
(1.26146 0.00940731 0)
(1.26221 0.00732963 0)
(1.26204 0.00549875 0)
(1.26113 0.00389152 0)
(1.25965 0.00248552 0)
(1.25773 0.00125968 0)
(1.25547 0.000194601 0)
(1.25298 -0.000727222 0)
(1.25032 -0.00152138 0)
(1.24755 -0.00220162 0)
(1.24473 -0.00277995 0)
(1.24188 -0.00326686 0)
(1.23904 -0.00367146 0)
(1.23623 -0.00400167 0)
(1.23348 -0.00426442 0)
(1.23079 -0.0044658 0)
(1.22817 -0.00461116 0)
(1.22564 -0.0047053 0)
(1.2232 -0.00475247 0)
(1.22086 -0.00475656 0)
(1.21862 -0.00472109 0)
(1.21648 -0.00464928 0)
(1.21446 -0.00454411 0)
(1.21255 -0.00440835 0)
(1.21075 -0.00424458 0)
(1.20906 -0.00405522 0)
(1.20749 -0.00384256 0)
(1.20604 -0.00360876 0)
(1.20471 -0.00335586 0)
(1.2035 -0.00308583 0)
(1.2024 -0.00280055 0)
(1.20143 -0.00250182 0)
(1.20058 -0.00219137 0)
(1.19985 -0.00187089 0)
(1.19924 -0.00154201 0)
(1.19875 -0.00120633 0)
(1.19839 -0.000865384 0)
(1.19814 -0.000520762 0)
(1.19802 -0.000173867 0)
(0.627661 0.0827847 0)
(0.683886 0.0831863 0)
(0.740187 0.0825371 0)
(0.795735 0.0809915 0)
(0.849759 0.078651 0)
(0.901551 0.0755852 0)
(0.950501 0.071897 0)
(0.996108 0.0677061 0)
(1.038 0.0631396 0)
(1.07591 0.0583251 0)
(1.10974 0.0533846 0)
(1.13947 0.0484292 0)
(1.1652 0.0435556 0)
(1.1871 0.0388436 0)
(1.20543 0.0343556 0)
(1.22047 0.030137 0)
(1.23255 0.0262176 0)
(1.24199 0.0226131 0)
(1.24914 0.0193277 0)
(1.25431 0.0163564 0)
(1.2578 0.013687 0)
(1.25989 0.0113026 0)
(1.26082 0.00918295 0)
(1.26081 0.0073063 0)
(1.26005 0.00565055 0)
(1.2587 0.00419409 0)
(1.2569 0.00291647 0)
(1.25475 0.00179879 0)
(1.25235 0.000823888 0)
(1.24978 -2.35626e-05 0)
(1.24709 -0.000757122 0)
(1.24433 -0.00138869 0)
(1.24155 -0.00192865 0)
(1.23876 -0.00238606 0)
(1.23601 -0.00276881 0)
(1.2333 -0.0030838 0)
(1.23064 -0.00333709 0)
(1.22807 -0.00353404 0)
(1.22557 -0.00367941 0)
(1.22316 -0.00377748 0)
(1.22085 -0.00383209 0)
(1.21864 -0.00384679 0)
(1.21653 -0.00382478 0)
(1.21453 -0.00376905 0)
(1.21263 -0.00368237 0)
(1.21085 -0.00356733 0)
(1.20919 -0.00342635 0)
(1.20763 -0.00326175 0)
(1.2062 -0.00307568 0)
(1.20488 -0.00287022 0)
(1.20368 -0.00264735 0)
(1.20259 -0.00240896 0)
(1.20163 -0.00215689 0)
(1.20078 -0.00189288 0)
(1.20006 -0.00161866 0)
(1.19946 -0.00133587 0)
(1.19897 -0.00104614 0)
(1.19861 -0.000751039 0)
(1.19837 -0.000452185 0)
(1.19825 -0.000151012 0)
(0.586171 0.0810077 -3.41044e-20)
(0.586907 0.0814967 7.73262e-20)
(0.587686 0.0819247 -9.02119e-21)
(0.588507 0.0822947 -5.15472e-20)
(0.589372 0.0826095 4.27439e-20)
(0.559733 0.080697 -6.51554e-20)
(0.560801 0.0811379 2.75126e-20)
(0.561905 0.0815194 -6.35537e-20)
(0.563045 0.0818444 1.04749e-19)
(0.56422 0.082116 -4.6491e-20)
(0.531876 0.0797267 -6.82844e-20)
(0.533247 0.0801877 2.83954e-20)
(0.534645 0.0805874 -2.95344e-20)
(0.536072 0.0809289 -1.58641e-20)
(0.537527 0.0812154 4.01197e-20)
(0.505088 0.0790643 -2.00976e-20)
(0.506791 0.0794882 -2.82617e-20)
(0.508514 0.0798516 1.02595e-19)
(0.510259 0.0801579 -1.58432e-21)
(0.512025 0.0804102 -2.08089e-20)
(0.4764 0.0777212 1.43276e-20)
(0.478415 0.0781757 1.89428e-20)
(0.480443 0.078567 4.93352e-20)
(0.482484 0.0788985 1.91844e-20)
(0.484541 0.0791737 -9.04609e-20)
(0.486614 0.0793959 7.17553e-22)
(0.449602 0.0766351 6.27509e-20)
(0.451939 0.0770609 -1.6635e-20)
(0.454283 0.0774238 9.80871e-21)
(0.456634 0.0777276 -1.95887e-20)
(0.458996 0.0779758 7.91392e-20)
(0.423093 0.0753249 -3.68172e-20)
(0.425741 0.075726 6.7836e-21)
(0.42839 0.0760645 2.19611e-20)
(0.431043 0.0763444 -3.38489e-20)
(0.4337 0.0765694 -1.15933e-20)
(0.394005 0.0733492 2.05007e-20)
(0.396956 0.0737956 -5.23111e-20)
(0.399902 0.0741756 -2.12682e-21)
(0.402846 0.0744933 3.18063e-22)
(0.405789 0.0747528 4.35385e-20)
(0.408732 0.0749578 -1.43273e-20)
(0.368035 0.0716245 2.86489e-20)
(0.371274 0.0720528 -3.84033e-20)
(0.374505 0.0724146 1.33374e-20)
(0.37773 0.0727145 -1.94203e-20)
(0.380951 0.0729567 9.60159e-20)
(0.342615 0.0696905 -1.02689e-21)
(0.346126 0.0701029 4.91381e-20)
(0.349628 0.0704493 -1.00023e-19)
(0.353122 0.070734 -1.07828e-20)
(0.356609 0.0709614 6.63727e-20)
(0.314046 0.0670856 1.48867e-20)
(0.317826 0.0675551 -9.31996e-20)
(0.321594 0.0679538 -3.13935e-20)
(0.325351 0.0682866 1.46605e-20)
(0.3291 0.0685582 1.16592e-19)
(0.332841 0.0687731 -5.53057e-20)
(0.289726 0.0647708 -2.36117e-20)
(0.293747 0.0652275 -2.89893e-21)
(0.297755 0.0656136 5.9903e-20)
(0.301753 0.0659343 -2.61281e-20)
(0.305741 0.0661946 2.82467e-20)
(0.26621 0.0622726 5.42941e-21)
(0.270453 0.0627169 -2.45023e-20)
(0.274684 0.0630913 4.44549e-20)
(0.278907 0.063401 -1.01674e-20)
(0.283121 0.063651 -4.35389e-21)
(0.24357 0.0596015 -1.79716e-20)
(0.248017 0.0600333 3.13508e-20)
(0.252456 0.0603962 1.7163e-22)
(0.256888 0.0606954 -3.24876e-20)
(0.261313 0.060936 -1.41297e-20)
(0.217236 0.0562759 -2.97734e-20)
(0.221876 0.0567681 1.34174e-20)
(0.226511 0.057187 9.25547e-21)
(0.231141 0.0575382 -3.84495e-20)
(0.235767 0.057827 3.56773e-20)
(0.240387 0.0580586 1.16339e-21)
(0.196389 0.053307 6.93423e-21)
(0.201195 0.0537835 -4.09687e-21)
(0.206002 0.0541884 3.87088e-20)
(0.210807 0.0545272 -2.0862e-20)
(0.215611 0.0548055 2.33703e-20)
(0.176636 0.0501998 -1.96145e-20)
(0.181592 0.0506587 2.57563e-21)
(0.186554 0.0510481 -1.27025e-20)
(0.191519 0.0513737 -1.49557e-20)
(0.196486 0.0516407 4.25496e-20)
(0.158036 0.0469653 -5.67757e-21)
(0.163126 0.0474045 -2.42834e-20)
(0.168227 0.0477768 -9.50605e-21)
(0.173337 0.0480879 1.19881e-21)
(0.178453 0.0483427 -8.92545e-21)
(0.135455 0.0431286 -9.9583e-21)
(0.140644 0.0436148 2.03063e-20)
(0.145854 0.0440318 1.0093e-21)
(0.151081 0.0443851 6.35277e-21)
(0.156321 0.0446802 -5.16436e-20)
(0.161571 0.0449218 2.14177e-20)
(0.119227 0.0397015 3.22419e-20)
(0.124514 0.0401591 -3.54943e-20)
(0.129829 0.0405513 1.26965e-20)
(0.135167 0.0408836 -1.54229e-20)
(0.140523 0.041161 2.47402e-21)
(0.145894 0.0413881 -2.43332e-20)
(0.10432 0.0361829 2.42751e-20)
(0.109693 0.0366087 -1.1047e-20)
(0.1151 0.0369736 3.74928e-20)
(0.120536 0.0372827 6.65566e-21)
(0.125996 0.0375406 -9.15997e-21)
(0.090779 0.0325831 2.93628e-20)
(0.0962254 0.0329739 6.73332e-21)
(0.101713 0.0333088 -4.08923e-20)
(0.107234 0.0335925 1.65366e-20)
(0.112784 0.0338293 1.27962e-20)
(0.0786419 0.0289118 6.22688e-21)
(0.0841509 0.0292647 -1.09923e-20)
(0.0897068 0.0295671 1.63657e-20)
(0.0953025 0.0298232 7.40433e-21)
(0.100932 0.0300371 -1.87793e-20)
(0.0679441 0.0251785 1.03598e-20)
(0.0735057 0.0254907 -2.78537e-21)
(0.0791198 0.0257581 -1.39506e-21)
(0.0847787 0.0259847 -1.37017e-21)
(0.0904752 0.0261739 -6.74152e-21)
(0.0587164 0.0213923 -8.90721e-22)
(0.0643214 0.0216612 4.95149e-22)
(0.069984 0.0218915 -5.45471e-21)
(0.0756958 0.0220867 7.30701e-21)
(0.0814491 0.0222497 -1.21549e-20)
(0.0509856 0.017562 1.19726e-20)
(0.0566256 0.0177852 1.12185e-20)
(0.0623275 0.0179765 -2.48973e-20)
(0.0680824 0.0181386 1.63556e-20)
(0.0738823 0.018274 -3.93524e-21)
(0.0447739 0.013696 -6.31762e-21)
(0.0504411 0.0138717 1.41101e-21)
(0.0561738 0.0140222 -1.16676e-21)
(0.0619627 0.0141498 7.42225e-21)
(0.0677992 0.0142564 -6.23931e-21)
(0.0344911 0.00965622 -2.93373e-21)
(0.0400994 0.00980253 6.72652e-21)
(0.0457865 0.00992911 -3.61597e-22)
(0.0515419 0.0100376 -1.49555e-20)
(0.0573559 0.0101295 1.51378e-21)
(0.0632196 0.0102064 4.50271e-21)
(0.0313562 0.00580126 5.62439e-21)
(0.0369755 0.00588954 -3.54759e-21)
(0.0426757 0.00596592 3.84147e-21)
(0.048446 0.00603138 -5.23317e-21)
(0.0542766 0.00608685 3.66728e-21)
(0.0601583 0.00613319 -6.17729e-21)
(0.0297866 0.00193545 2.11101e-21)
(0.0354113 0.00196492 -2.2464e-21)
(0.041118 0.00199041 2.69014e-23)
(0.0468957 0.00201225 2.54028e-21)
(0.0527345 0.00203074 6.3652e-22)
(0.0586252 0.00204618 -1.07051e-21)
)
;

boundaryField
{
    inlet
    {
        type            uniformFixedValue;
        uniformValue    constant (1 0 0);
        value           nonuniform 0();
    }
    outlet
    {
        type            pressureInletOutletVelocity;
        value           nonuniform 0();
    }
    cylinder
    {
        type            fixedValue;
        value           nonuniform 0();
    }
    top
    {
        type            symmetryPlane;
    }
    bottom
    {
        type            symmetryPlane;
    }
    defaultFaces
    {
        type            empty;
    }
    procBoundary23to22
    {
        type            processor;
        value           nonuniform List<vector> 
194
(
(0.0242558 -0.00190003 -2.03993e-21)
(0.0258298 -0.00569841 -2.6169e-21)
(0.0289735 -0.00948683 -4.66827e-21)
(0.0391829 -0.0134915 8.47524e-21)
(0.0391829 -0.0134915 8.47524e-21)
(0.0454179 -0.0173026 -1.4334e-21)
(0.0531789 -0.0210801 1.32425e-20)
(0.0624443 -0.0248162 1.36359e-20)
(0.0731883 -0.0285024 6.42241e-21)
(0.085381 -0.0321299 2.34819e-20)
(0.0989883 -0.0356895 -2.6729e-20)
(0.113972 -0.0391714 -8.20503e-22)
(0.130291 -0.0425656 1.60278e-20)
(0.15296 -0.0464523 2.48893e-20)
(0.15296 -0.0464523 2.48893e-20)
(0.171687 -0.0496642 2.66983e-20)
(0.191584 -0.0527516 -2.34832e-20)
(0.212592 -0.055703 3.65132e-20)
(0.239115 -0.059094 -1.56343e-20)
(0.239115 -0.059094 -1.56343e-20)
(0.261957 -0.0617518 -9.02139e-21)
(0.285693 -0.0642372 -9.33395e-20)
(0.310251 -0.066539 7.89411e-20)
(0.339093 -0.0692063 5.90068e-21)
(0.339093 -0.0692063 5.90068e-21)
(0.364787 -0.0711247 -2.16932e-21)
(0.391048 -0.0728314 -6.83492e-21)
(0.420447 -0.0748568 1.18813e-19)
(0.420447 -0.0748568 1.18813e-19)
(0.447271 -0.0761422 -5.92521e-20)
(0.474397 -0.0771993 -1.96721e-20)
(0.503406 -0.0785762 -3.4594e-20)
(0.503406 -0.0785762 -3.4594e-20)
(0.530533 -0.0792008 1.17221e-21)
(0.558701 -0.0801934 3.56625e-20)
(0.558701 -0.0801934 3.56625e-20)
(0.585482 -0.0804545 -2.89204e-20)
(0.625994 -0.0802531 2.39108e-28)
(0.685534 -0.0802904 -9.48746e-28)
(0.745104 -0.0790928 2.20518e-27)
(0.803755 -0.0768899 -2.18478e-27)
(0.860598 -0.0738148 -1.00396e-27)
(0.914833 -0.0699608 1.25124e-27)
(0.965778 -0.065463 -3.24303e-27)
(1.01289 -0.0604745 0)
(1.05579 -0.0551526 0)
(1.09425 -0.0496501 0)
(1.12817 -0.0441076 0)
(1.15761 -0.0386481 0)
(1.18274 -0.0333736 -4.64322e-28)
(1.20379 -0.0283639 0)
(1.22108 -0.0236769 0)
(1.23497 -0.0193503 0)
(1.24583 -0.0154043 0)
(1.25405 -0.011844 0)
(1.25998 -0.00866266 0)
(1.26399 -0.00584468 0)
(1.26638 -0.00336816 3.88797e-28)
(1.26745 -0.00120733 2.39499e-27)
(1.26745 0.000665476 1.89239e-27)
(1.26659 0.0022783 0)
(1.26508 0.00365837 0)
(1.26305 0.00483132 7.63338e-28)
(1.26064 0.00582069 0)
(1.25795 0.00664768 0)
(1.25507 0.00733112 0)
(1.25207 0.00788748 0)
(1.24901 0.00833114 0)
(1.24591 0.00867452 0)
(1.24282 0.00892833 0)
(1.23976 0.00910185 0)
(1.23676 0.00920309 -6.29481e-28)
(1.23382 0.00923903 0)
(1.23097 0.00921578 -2.7482e-28)
(1.2282 0.0091387 -5.95248e-28)
(1.22553 0.00901259 -2.65224e-28)
(1.22297 0.00884171 0)
(1.22051 0.00862991 -5.65925e-28)
(1.21817 0.00838069 0)
(1.21594 0.00809726 -2.48926e-28)
(1.21383 0.00778253 0)
(1.21184 0.00743923 0)
(1.20996 0.00706988 0)
(1.20821 0.00667682 0)
(1.20658 0.00626224 2.33679e-28)
(1.20508 0.00582822 0)
(1.2037 0.00537671 0)
(1.20244 0.00490954 0)
(1.20131 0.00442848 -1.50909e-27)
(1.2003 0.00393521 -4.93482e-28)
(1.19942 0.00343133 0)
(1.19866 0.0029184 -2.21208e-28)
(1.19803 0.0023979 -4.8571e-28)
(1.19753 0.00187129 -2.19452e-28)
(1.19715 0.00133996 0)
(1.1969 0.000805352 0)
(1.19677 0.000268706 0)
(0.625992 0.0802533 0)
(0.685531 0.0802904 0)
(0.745102 0.0790927 0)
(0.803753 0.0768897 0)
(0.860596 0.0738145 -9.09341e-11)
(0.914831 0.0699603 -8.98655e-11)
(0.965776 0.0654625 3.24301e-27)
(1.01289 0.060474 0)
(1.05579 0.055152 0)
(1.09425 0.0496494 0)
(1.12817 0.0441068 0)
(1.15761 0.0386473 4.73506e-28)
(1.18274 0.0333728 0)
(1.20379 0.0283631 0)
(1.22108 0.023676 0)