/*--------------------------------*- C++ -*----------------------------------*\
  =========                 |
  \\      /  F ield         | OpenFOAM: The Open Source CFD Toolbox
   \\    /   O peration     | Website:  https://openfoam.org
    \\  /    A nd           | Version:  7
     \\/     M anipulation  |
\*---------------------------------------------------------------------------*/
FoamFile
{
    version     2.0;
    format      ascii;
    class       volScalarField;
    location    "70";
    object      p;
}
// * * * * * * * * * * * * * * * * * * * * * * * * * * * * * * * * * * * * * //

dimensions      [0 2 -2 0 0 0 0];

internalField   nonuniform List<scalar> 
8820
(
-0.281055
-0.282563
-0.283486
-0.284162
-0.284731
-0.285215
-0.285636
-0.286011
-0.286342
-0.286624
-0.286848
-0.287002
-0.287073
-0.287051
-0.28693
-0.286711
-0.286409
-0.286054
-0.285637
-0.285087
-0.284897
-0.282411
-0.283883
-0.28479
-0.285462
-0.286036
-0.286537
-0.286988
-0.287403
-0.287788
-0.288137
-0.28844
-0.288685
-0.288859
-0.288949
-0.288948
-0.288855
-0.288682
-0.288457
-0.288173
-0.28776
-0.287717
-0.283975
-0.28539
-0.286268
-0.286926
-0.287498
-0.288008
-0.288481
-0.288932
-0.289365
-0.289776
-0.290154
-0.290485
-0.290754
-0.290948
-0.291054
-0.291069
-0.291
-0.290875
-0.290685
-0.29036
-0.290419
-0.285732
-0.287069
-0.287906
-0.28854
-0.2891
-0.289612
-0.2901
-0.29058
-0.291056
-0.291523
-0.291971
-0.292383
-0.292742
-0.293031
-0.293234
-0.29334
-0.293351
-0.293291
-0.293152
-0.292858
-0.292963
-0.287661
-0.288901
-0.289684
-0.290284
-0.290824
-0.291328
-0.291824
-0.292327
-0.29284
-0.293359
-0.293871
-0.294359
-0.294803
-0.295181
-0.29547
-0.29565
-0.295717
-0.295687
-0.295555
-0.295231
-0.295301
-0.28974
-0.290865
-0.291581
-0.292138
-0.292647
-0.293136
-0.293632
-0.294149
-0.294692
-0.295256
-0.295827
-0.296387
-0.296911
-0.297371
-0.297738
-0.297981
-0.298082
-0.298049
-0.297875
-0.297454
-0.297382
-0.291941
-0.292936
-0.293575
-0.294078
-0.294547
-0.295011
-0.295496
-0.296019
-0.296584
-0.297186
-0.29781
-0.298435
-0.299034
-0.299573
-0.300011
-0.300308
-0.300426
-0.300357
-0.300094
-0.29951
-0.299108
-0.294238
-0.295091
-0.295643
-0.296081
-0.2965
-0.296927
-0.29739
-0.297908
-0.298484
-0.299113
-0.299782
-0.300465
-0.301133
-0.301745
-0.302252
-0.302597
-0.30272
-0.30259
-0.302199
-0.301403
-0.300356
-0.296602
-0.297305
-0.29776
-0.298125
-0.29848
-0.298857
-0.299286
-0.299784
-0.300357
-0.301002
-0.301702
-0.302434
-0.303162
-0.303841
-0.304411
-0.304801
-0.304925
-0.304722
-0.30418
-0.303154
-0.301396
-0.299007
-0.299555
-0.299907
-0.300186
-0.300465
-0.300778
-0.301154
-0.301616
-0.302169
-0.302812
-0.303528
-0.304292
-0.305068
-0.305802
-0.306427
-0.306856
-0.30698
-0.306706
-0.305964
-0.304486
-0.302335
-0.301429
-0.301822
-0.302064
-0.302248
-0.302436
-0.302666
-0.302972
-0.303375
-0.303887
-0.304505
-0.305215
-0.305991
-0.306793
-0.307565
-0.308229
-0.308685
-0.308803
-0.30845
-0.307506
-0.305585
-0.302678
-0.303849
-0.304092
-0.304219
-0.304295
-0.304377
-0.304505
-0.304716
-0.305038
-0.305483
-0.30605
-0.306726
-0.307485
-0.308286
-0.309067
-0.309745
-0.310205
-0.310297
-0.309848
-0.308694
-0.306373
-0.302355
-0.306255
-0.306356
-0.306363
-0.306321
-0.306278
-0.306282
-0.306375
-0.306587
-0.306935
-0.30742
-0.30803
-0.308739
-0.309503
-0.310258
-0.310912
-0.31134
-0.311373
-0.3108
-0.309406
-0.30676
-0.301301
-0.308644
-0.308613
-0.308497
-0.308323
-0.308137
-0.307994
-0.307942
-0.308015
-0.308234
-0.308603
-0.309112
-0.309734
-0.310422
-0.311107
-0.311692
-0.312041
-0.311968
-0.311231
-0.309546
-0.306709
-0.29967
-0.311024
-0.310871
-0.310628
-0.310308
-0.309961
-0.309647
-0.309422
-0.309326
-0.309384
-0.309604
-0.309975
-0.310471
-0.311041
-0.311613
-0.31208
-0.312295
-0.31206
-0.311114
-0.309065
-0.306175
-0.297524
-0.313411
-0.313147
-0.312772
-0.312292
-0.311763
-0.311255
-0.31083
-0.310536
-0.310403
-0.31044
-0.31064
-0.310974
-0.311387
-0.311802
-0.312102
-0.312128
-0.311673
-0.310473
-0.307983
-0.305137
-0.295036
-0.315836
-0.315467
-0.314953
-0.314299
-0.313568
-0.312843
-0.312194
-0.311675
-0.311322
-0.311149
-0.311147
-0.311285
-0.311507
-0.311723
-0.311809
-0.311594
-0.310859
-0.309362
-0.306391
-0.303595
-0.292438
-0.31834
-0.317867
-0.317203
-0.316359
-0.315409
-0.314445
-0.313549
-0.312783
-0.312187
-0.311779
-0.311549
-0.311464
-0.31146
-0.31144
-0.311266
-0.310756
-0.309682
-0.307828
-0.304395
-0.301527
-0.289932
-0.320973
-0.320391
-0.319564
-0.318513
-0.317324
-0.316104
-0.314943
-0.313911
-0.313054
-0.31239
-0.311912
-0.311578
-0.311316
-0.311018
-0.310534
-0.30967
-0.308196
-0.305896
-0.302062
-0.298798
-0.287386
-0.323795
-0.323087
-0.322081
-0.320805
-0.31936
-0.317867
-0.316426
-0.315115
-0.313982
-0.313049
-0.312301
-0.311692
-0.311138
-0.310516
-0.309662
-0.308376
-0.306434
-0.303594
-0.299431
-0.295222
-0.284455
-0.326871
-0.326011
-0.324804
-0.323285
-0.321568
-0.319788
-0.318056
-0.316454
-0.315035
-0.313817
-0.31278
-0.311865
-0.310975
-0.30997
-0.308675
-0.306885
-0.304401
-0.300965
-0.296523
-0.290975
-0.282018
-0.330267
-0.32922
-0.327787
-0.326003
-0.323999
-0.32192
-0.319887
-0.317988
-0.316272
-0.314753
-0.3134
-0.31214
-0.310857
-0.309395
-0.307573
-0.305187
-0.302069
-0.298004
-0.293189
-0.286901
-0.282585
-0.334049
-0.332771
-0.331081
-0.329013
-0.326704
-0.324316
-0.321975
-0.319769
-0.317744
-0.315901
-0.314197
-0.312538
-0.31079
-0.308783
-0.306333
-0.303254
-0.29941
-0.294673
-0.289212
-0.28276
-0.27727
-0.338281
-0.336718
-0.334738
-0.332362
-0.329733
-0.327026
-0.324368
-0.321843
-0.31949
-0.317293
-0.315188
-0.31306
-0.310758
-0.308105
-0.304922
-0.301055
-0.296412
-0.290925
-0.28478
-0.277754
-0.271084
-0.343019
-0.34111
-0.338805
-0.336097
-0.333133
-0.330093
-0.327107
-0.324248
-0.321538
-0.318941
-0.316369
-0.313686
-0.310727
-0.307319
-0.303305
-0.298574
-0.293082
-0.286818
-0.279969
-0.272354
-0.264913
-0.34831
-0.345992
-0.343324
-0.34026
-0.336942
-0.333557
-0.330226
-0.327007
-0.3239
-0.320842
-0.317718
-0.314376
-0.310648
-0.306379
-0.301452
-0.295805
-0.28945
-0.282423
-0.274913
-0.266779
-0.258758
-0.354195
-0.351402
-0.348333
-0.344889
-0.341199
-0.33745
-0.333751
-0.330135
-0.326573
-0.322971
-0.319192
-0.315075
-0.310466
-0.305243
-0.299342
-0.292759
-0.285556
-0.277811
-0.269708
-0.261135
-0.252763
-0.360702
-0.357368
-0.353862
-0.350015
-0.345933
-0.341798
-0.337697
-0.333631
-0.329535
-0.325287
-0.320734
-0.315719
-0.310121
-0.30387
-0.296962
-0.289452
-0.281441
-0.273036
-0.264408
-0.255476
-0.246816
-0.367848
-0.363913
-0.359936
-0.355664
-0.351168
-0.346617
-0.342067
-0.337478
-0.332748
-0.327731
-0.32227
-0.316237
-0.309559
-0.302229
-0.294308
-0.2859
-0.277134
-0.268131
-0.259038
-0.249799
-0.240904
-0.375641
-0.371049
-0.366572
-0.361854
-0.356918
-0.351911
-0.346846
-0.341639
-0.336151
-0.330224
-0.323719
-0.316555
-0.308726
-0.300294
-0.291377
-0.282116
-0.272653
-0.263108
-0.253599
-0.24409
-0.234968
-0.384073
-0.378774
-0.373774
-0.36859
-0.363184
-0.357666
-0.352
-0.346053
-0.339662
-0.332673
-0.324991
-0.316603
-0.307576
-0.298043
-0.288165
-0.278104
-0.268001
-0.257963
-0.248075
-0.23832
-0.228977
-0.39312
-0.387075
-0.381534
-0.375866
-0.369949
-0.363847
-0.357468
-0.350637
-0.343179
-0.334975
-0.325996
-0.316311
-0.306068
-0.295456
-0.284664
-0.273859
-0.263167
-0.252677
-0.242441
-0.232454
-0.222891
-0.40274
-0.395921
-0.389826
-0.383651
-0.377172
-0.370392
-0.363163
-0.355279
-0.346583
-0.337017
-0.326641
-0.315617
-0.304163
-0.292509
-0.280857
-0.269362
-0.258129
-0.247222
-0.236663
-0.226456
-0.216677
-0.412868
-0.405259
-0.398604
-0.391895
-0.384784
-0.377208
-0.368967
-0.359848
-0.349743
-0.338684
-0.32684
-0.31446
-0.301822
-0.289177
-0.276721
-0.264588
-0.252856
-0.241562
-0.230704
-0.22029
-0.210302
-0.423415
-0.415013
-0.407794
-0.400515
-0.392685
-0.38417
-0.374735
-0.364191
-0.352517
-0.339863
-0.326508
-0.312784
-0.299006
-0.285427
-0.272224
-0.259503
-0.247311
-0.235658
-0.224525
-0.213915
-0.203732
-0.434261
-0.42508
-0.417294
-0.409399
-0.40074
-0.39112
-0.380295
-0.368144
-0.354764
-0.340442
-0.325568
-0.310533
-0.295671
-0.28122
-0.267327
-0.254064
-0.241449
-0.229468
-0.218084
-0.207295
-0.196935
-0.445261
-0.435326
-0.42697
-0.418397
-0.408781
-0.397872
-0.38546
-0.371532
-0.356341
-0.340316
-0.323941
-0.30765
-0.291769
-0.276511
-0.261985
-0.248226
-0.235227
-0.222948
-0.211342
-0.200392
-0.18988
-0.456236
-0.445588
-0.436657
-0.427329
-0.416606
-0.404216
-0.390027
-0.374183
-0.357113
-0.339384
-0.321555
-0.304076
-0.287251
-0.271253
-0.256149
-0.241943
-0.228598
-0.216055
-0.204259
-0.19317
-0.182536
-0.46698
-0.455673
-0.446154
-0.435981
-0.423987
-0.409923
-0.393789
-0.375926
-0.356949
-0.337551
-0.318338
-0.299753
-0.282062
-0.265392
-0.24977
-0.235164
-0.221515
-0.208747
-0.196796
-0.185595
-0.174877
-0.477259
-0.465357
-0.455235
-0.444109
-0.430676
-0.414756
-0.396541
-0.376599
-0.355729
-0.334726
-0.314219
-0.294619
-0.276146
-0.258875
-0.242794
-0.227841
-0.213934
-0.200983
-0.188916
-0.177636
-0.166878
-0.486816
-0.474394
-0.463645
-0.45145
-0.43641
-0.418476
-0.398084
-0.376049
-0.353341
-0.330826
-0.309128
-0.288614
-0.269445
-0.251648
-0.235171
-0.219927
-0.205811
-0.192723
-0.180582
-0.169261
-0.158513
-0.495377
-0.482513
-0.471108
-0.457723
-0.440921
-0.42085
-0.398233
-0.374137
-0.349681
-0.325771
-0.303
-0.281677
-0.261904
-0.243658
-0.226853
-0.211375
-0.197105
-0.183929
-0.171762
-0.16044
-0.14976
-0.502653
-0.489433
-0.477336
-0.462644
-0.443947
-0.421657
-0.396817
-0.370738
-0.344656
-0.319486
-0.29577
-0.273751
-0.253469
-0.234856
-0.217792
-0.202144
-0.187776
-0.174567
-0.162422
-0.151147
-0.140596
-0.50835
-0.494862
-0.482037
-0.465929
-0.445236
-0.420694
-0.393684
-0.365742
-0.338184
-0.311905
-0.287381
-0.264783
-0.244092
-0.225196
-0.207949
-0.192196
-0.17779
-0.164603
-0.152532
-0.141361
-0.131
-0.512178
-0.498509
-0.484921
-0.467306
-0.444555
-0.41778
-0.388704
-0.359054
-0.330193
-0.302968
-0.277781
-0.254726
-0.233729
-0.21464
-0.197286
-0.181497
-0.167113
-0.154001
-0.142057
-0.131047
-0.120932
-0.513855
-0.50009
-0.485709
-0.466521
-0.441697
-0.412761
-0.381766
-0.350596
-0.320622
-0.292627
-0.266926
-0.24354
-0.222345
-0.203156
-0.185777
-0.170022
-0.155719
-0.142732
-0.130957
-0.120142
-0.110284
-0.513115
-0.499338
-0.484143
-0.463348
-0.436483
-0.405509
-0.372783
-0.340306
-0.309426
-0.280841
-0.25478
-0.231196
-0.209915
-0.190722
-0.173403
-0.157755
-0.143596
-0.130787
-0.119214
-0.108573
-0.0988574
-0.509718
-0.49601
-0.479992
-0.457592
-0.428768
-0.395926
-0.361692
-0.328141
-0.296569
-0.267583
-0.24132
-0.217671
-0.19642
-0.177325
-0.160155
-0.144693
-0.130749
-0.118184
-0.106864
-0.0963669
-0.0865882
-0.503452
-0.48989
-0.473061
-0.449094
-0.418441
-0.383942
-0.34845
-0.314074
-0.282035
-0.252837
-0.226534
-0.202957
-0.181854
-0.162961
-0.14603
-0.130837
-0.117184
-0.104936
-0.0939328
-0.0836405
-0.0741371
-0.494143
-0.480801
-0.46319
-0.437736
-0.405428
-0.369519
-0.333041
-0.298098
-0.265818
-0.236601
-0.21042
-0.187054
-0.166219
-0.147634
-0.131038
-0.116198
-0.102917
-0.0910574
-0.0804018
-0.0703857
-0.0615467
-0.481654
-0.468604
-0.450261
-0.423439
-0.389691
-0.352646
-0.31547
-0.280223
-0.24793
-0.218886
-0.19299
-0.169975
-0.149531
-0.131364
-0.115198
-0.100796
-0.0879613
-0.0765544
-0.0663099
-0.0566811
-0.0485434
-0.465892
-0.453204
-0.434204
-0.406167
-0.371226
-0.333343
-0.295763
-0.26048
-0.2284
-0.199718
-0.174269
-0.151748
-0.131819
-0.114172
-0.0985314
-0.0846516
-0.0723388
-0.0614497
-0.0516845
-0.0425125
-0.0350599
-0.446811
-0.434552
-0.414991
-0.385923
-0.350064
-0.311654
-0.273972
-0.238916
-0.207271
-0.17914
-0.154303
-0.132409
-0.113113
-0.0960956
-0.0810731
-0.0677985
-0.0560804
-0.0457734
-0.0365468
-0.0278761
-0.0211127
-0.424409
-0.412644
-0.392637
-0.362752
-0.326271
-0.287657
-0.250171
-0.215597
-0.184605
-0.157211
-0.133136
-0.112008
-0.0934642
-0.0771795
-0.0628668
-0.0502776
-0.0392242
-0.0295601
-0.0209227
-0.0127911
-0.00674301
-0.398729
-0.38752
-0.3672
-0.336734
-0.299953
-0.26146
-0.22445
-0.190601
-0.160475
-0.133995
-0.110835
-0.0906045
-0.0729296
-0.0574799
-0.0439658
-0.0321391
-0.0218172
-0.0128514
-0.00484779
0.00270756
0.00800965
-0.369862
-0.359263
-0.338782
-0.308005
-0.271253
-0.23317
-0.196887
-0.16403
-0.134973
-0.109577
-0.0874796
-0.0682735
-0.0515789
-0.0370621
-0.0244325
-0.0134427
-0.00391577
0.00429929
0.0116271
0.0185732
0.0231219
-0.337933
-0.328001
-0.307546
-0.276764
-0.240277
-0.202834
-0.167655
-0.136003
-0.108205
-0.0840544
-0.0631587
-0.0450985
-0.0294907
-0.0160007
-0.00433772
0.00574316
0.0144128
0.0218245
0.0284342
0.0347478
0.0385707
-0.303098
-0.293924
-0.273719
-0.243165
-0.206984
-0.170753
-0.136886
-0.106654
-0.0802915
-0.0575373
-0.0379733
-0.0211731
-0.00675247
0.00562235
0.0162408
0.0253438
0.0330948
0.0396513
0.0455033
0.0511642
0.0542585
-0.265541
-0.257263
-0.237479
-0.206962
-0.172037
-0.137081
-0.104745
-0.0761301
-0.0513663
-0.0301463
-0.0120342
0.00340032
0.0165406
0.0277181
0.0372196
0.0452803
0.0520577
0.0577197
0.062789
0.067753
0.0699669
-0.225465
-0.218239
-0.198693
-0.169118
-0.135415
-0.102004
-0.0714136
-0.0445898
-0.0215716
-0.00201135
0.0145392
0.0285116
0.040286
0.0501906
0.058508
0.0654676
0.0712289
0.0759821
0.0802601
0.0844372
0.0855569
-0.183112
-0.177082
-0.158078
-0.129587
-0.0973501
-0.0657279
-0.0370764
-0.0122007
0.00894086
0.0267291
0.0416203
0.0540438
0.0643751
0.0729372
0.0800067
0.0858096
0.0905189
0.0943552
0.0978124
0.101095
0.101315
-0.138956
-0.134023
-0.115854
-0.0886184
-0.0580899
-0.0284704
-0.0019296
0.0208602
0.0400111
0.0559298
0.0690762
0.0798752
0.0886952
0.0958516
0.101613
0.106202
0.109813
0.112683
0.115212
0.117518
0.117514
-0.0933176
-0.0893656
-0.0722681
-0.0464962
-0.017892
0.00953907
0.0338218
0.0544087
0.0714725
0.0854396
0.0967699
0.105881
0.113132
0.118829
0.123229
0.126553
0.129006
0.130808
0.132212
0.133392
0.133146
-0.0464166
-0.0435106
-0.0276244
-0.00351413
0.0229766
0.0480628
0.0699655
0.0882539
0.103153
0.115103
0.12456
0.131933
0.13757
0.141765
0.144765
0.146787
0.148037
0.148678
0.148716
0.148191
0.148236
0.00140083
0.00319242
0.0177493
0.0400259
0.0642427
0.086857
0.106284
0.1222
0.134876
0.14476
0.152303
0.157902
0.161892
0.164557
0.166133
0.166831
0.166845
0.166277
0.165073
0.16348
0.162937
0.0497685
0.0503981
0.0635181
0.0838161
0.105629
0.125674
0.142555
0.156049
0.166463
0.17425
0.179852
0.183655
0.185981
0.1871
0.187238
0.186597
0.185347
0.183549
0.181168
0.178615
0.177206
0.098319
0.0977546
0.109345
0.127547
0.146858
0.164265
0.178556
0.189599
0.197732
0.203409
0.207061
0.20906
0.209717
0.209287
0.207988
0.206008
0.203499
0.2005
0.197013
0.193518
0.191153
0.146684
0.144906
0.154891
0.170909
0.187652
0.202382
0.214065
0.222651
0.228503
0.232072
0.23378
0.233984
0.232979
0.231011
0.228284
0.224976
0.221219
0.217046
0.212485
0.208048
0.20472
0.194496
0.191498
0.199823
0.213596
0.227734
0.239777
0.248859
0.255004
0.258594
0.260078
0.259863
0.258292
0.255648
0.252163
0.248031
0.243416
0.238438
0.233122
0.22752
0.222149
0.217854
0.241392
0.237179
0.243809
0.255307
0.266835
0.276208
0.282721
0.286462
0.287829
0.287265
0.285163
0.281853
0.277604
0.272636
0.267129
0.261239
0.255072
0.24865
0.242039
0.235749
0.230495
0.287017
0.281604
0.286528
0.29575
0.304691
0.31144
0.315437
0.316831
0.316033
0.313475
0.309538
0.304538
0.29873
0.292321
0.285483
0.278358
0.271042
0.263555
0.255972
0.248785
0.242585
0.331025
0.324439
0.327668
0.334639
0.341047
0.345241
0.3468
0.345926
0.343035
0.338554
0.332848
0.326218
0.318909
0.311115
0.302997
0.294686
0.286268
0.277762
0.26925
0.261194
0.25407
0.373083
0.365363
0.366928
0.371704
0.375659
0.377393
0.376613
0.373566
0.368674
0.362354
0.354957
0.346773
0.338031
0.328916
0.319578
0.310138
0.300672
0.2912
0.281807
0.272914
0.264898
0.412874
0.40407
0.404024
0.406684
0.408292
0.407685
0.404685
0.399579
0.392794
0.384733
0.375738
0.366084
0.355989
0.345627
0.335138
0.324633
0.314181
0.3038
0.293578
0.28389
0.275018
0.450098
0.440269
0.438687
0.439337
0.438729
0.43592
0.430839
0.423805
0.415246
0.405558
0.39507
0.384042
0.372683
0.361157
0.349593
0.338094
0.326723
0.315498
0.304503
0.294066
0.284385
0.484476
0.473693
0.470666
0.469436
0.466766
0.461914
0.454907
0.44609
0.435895
0.424705
0.412837
0.400542
0.388017
0.375417
0.362864
0.35045
0.338233
0.326232
0.314527
0.303393
0.292958
0.515751
0.504093
0.499733
0.496773
0.492213
0.485498
0.476735
0.466297
0.454612
0.442056
0.428935
0.415488
0.401905
0.388331
0.374878
0.361634
0.348649
0.335946
0.323597
0.311826
0.300698
0.543688
0.531244
0.525678
0.521159
0.514903
0.506519
0.496186
0.484299
0.471284
0.457509
0.443268
0.428795
0.414267
0.399823
0.38557
0.371585
0.357916
0.344588
0.331666
0.319322
0.30757
0.56808
0.554946
0.548317
0.542426
0.534683
0.524838
0.513135
0.499984
0.485808
0.470969
0.455753
0.440383
0.425032
0.409831
0.394879
0.380249
0.365985
0.352114
0.338692
0.325846
0.313544
0.588746
0.575026
0.567489
0.560429
0.551422
0.540339
0.527475
0.513253
0.498095
0.482356
0.466314
0.450187
0.434139
0.418297
0.402755
0.38758
0.372813
0.358482
0.344638
0.331364
0.318595
0.605535
0.591337
0.583058
0.575045
0.565009
0.552921
0.539114
0.524023
0.508069
0.4916
0.47489
0.458148
0.441536
0.425175
0.409154
0.393537
0.378363
0.36366
0.349474
0.335852
0.322701
0.618321
0.603761
0.594915
0.586175
0.575356
0.562503
0.54798
0.532229
0.515671
0.498647
0.481429
0.464221
0.44718
0.430425
0.414041
0.398088
0.382605
0.367621
0.353174
0.339287
0.325844
0.627014
0.612209
0.602978
0.593745
0.582395
0.569024
0.554017
0.53782
0.520853
0.503455
0.485893
0.46837
0.451041
0.434019
0.417389
0.40121
0.385518
0.370343
0.355721
0.341653
0.328011
0.631551
0.616621
0.607192
0.597704
0.586081
0.572443
0.557188
0.540762
0.523585
0.505996
0.488258
0.470574
0.453095
0.435937
0.419182
0.402886
0.387086
0.371813
0.3571
0.34294
0.329195
0.6319
0.616968
0.607529
0.598028
0.586391
0.572742
0.557474
0.541039
0.523853
0.506256
0.48851
0.470819
0.453334
0.43617
0.419409
0.403107
0.387302
0.372024
0.357307
0.343142
0.32939
0.628064
0.61325
0.60399
0.594717
0.583327
0.569919
0.554878
0.538651
0.521657
0.504235
0.48665
0.469107
0.451758
0.434718
0.418071
0.401875
0.386167
0.370977
0.356341
0.342259
0.328596
0.620073
0.605498
0.596604
0.587798
0.576912
0.563996
0.549416
0.533616
0.517012
0.499948
0.482691
0.465449
0.448376
0.431591
0.415178
0.399198
0.383688
0.368678
0.354208
0.340297
0.326819
0.607992
0.593775
0.585427
0.577322
0.567191
0.555015
0.541129
0.525967
0.509949
0.493423
0.476659
0.459869
0.443212
0.426808
0.410747
0.395091
0.379879
0.365141
0.350922
0.337267
0.324067
0.591915
0.578169
0.570543
0.563364
0.554234
0.543037
0.530071
0.515757
0.500517
0.484703
0.468593
0.452403
0.436297
0.420399
0.404805
0.38958
0.374765
0.360388
0.346501
0.333184
0.320353
0.571966
0.558801
0.552062
0.546025
0.53813
0.528146
0.516316
0.503052
0.488775
0.473844
0.458544
0.443096
0.427673
0.412404
0.397388
0.382696
0.368373
0.354445
0.340971
0.328072
0.315695
0.5483
0.535818
0.530122
0.525428
0.518992
0.510441
0.499957
0.487936
0.4748
0.460914
0.446574
0.432007
0.417394
0.402869
0.388539
0.374481
0.360741
0.347346
0.334361
0.321955
0.310115
0.521097
0.509396
0.504884
0.501721
0.496952
0.490042
0.481103
0.470507
0.458681
0.445997
0.432758
0.419204
0.40552
0.391851
0.37831
0.36498
0.351913
0.339131
0.32671
0.314867
0.303638
0.490568
0.479735
0.476535
0.475072
0.472161
0.467086
0.459877
0.45088
0.440522
0.429185
0.417182
0.404764
0.392124
0.379416
0.36676
0.354249
0.341937
0.329846
0.318059
0.306844
0.296295
0.456947
0.447062
0.445284
0.445671
0.444792
0.441729
0.436419
0.42918
0.420438
0.410583
0.399942
0.388774
0.377285
0.365636
0.353957
0.342348
0.33087
0.319543
0.308456
0.297928
0.288121
0.420493
0.411626
0.411362
0.413727
0.415031
0.414139
0.410884
0.405548
0.398556
0.390308
0.381143
0.371331
0.36109
0.350591
0.339972
0.329343
0.318772
0.308278
0.297952
0.288163
0.279154
0.381485
0.373696
0.37502
0.379468
0.383085
0.384503
0.383438
0.380135
0.375014
0.368485
0.360899
0.352539
0.343634
0.334367
0.324885
0.315307
0.30571
0.296112
0.286603
0.277601
0.269435
0.340224
0.333563
0.336527
0.343138
0.349173
0.353017
0.354261
0.353104
0.34996
0.345248
0.339331
0.332508
0.325019
0.317057
0.30878
0.300318
0.291754
0.283109
0.274471
0.266295
0.259011
0.297028
0.291533
0.296169
0.304996
0.313528
0.319893
0.323543
0.324627
0.323549
0.320738
0.31657
0.311357
0.305351
0.298758
0.291746
0.284455
0.27698
0.26934
0.261619
0.254303
0.247932
0.25223
0.247929
0.254246
0.265315
0.276396
0.28535
0.291483
0.294884
0.295946
0.295105
0.29275
0.289207
0.284742
0.279571
0.273875
0.267804
0.261463
0.254875
0.248113
0.241684
0.236248
0.206177
0.203085
0.211071
0.224379
0.238032
0.249618
0.258287
0.264062
0.267319
0.268502
0.268011
0.266186
0.263307
0.259602
0.255263
0.250452
0.245285
0.239789
0.234022
0.228502
0.224015
0.159223
0.157345
0.166966
0.182482
0.198699
0.212934
0.224169
0.232354
0.237844
0.241086
0.242495
0.242423
0.241164
0.238957
0.236006
0.232486
0.228525
0.224155
0.219417
0.214821
0.211291
0.111731
0.11106
0.122262
0.139925
0.15867
0.175542
0.189348
0.199957
0.207698
0.213021
0.21635
0.218051
0.218432
0.217746
0.216204
0.213996
0.211266
0.208055
0.204375
0.200711
0.198135
0.0640676
0.0645853
0.0772921
0.097013
0.118217
0.137686
0.154044
0.16707
0.177062
0.184467
0.189721
0.193203
0.195233
0.196074
0.195952
0.195065
0.193578
0.191551
0.188961
0.186229
0.184599
0.0166005
0.018275
0.0323941
0.0540552
0.0776195
0.0996152
0.118481
0.133894
0.146116
0.15559
0.162758
0.168013
0.171685
0.174053
0.17535
0.175784
0.175545
0.17473
0.173298
0.171516
0.170744
-0.0303042
-0.0275201
-0.0120957
0.0113604
0.0371545
0.0615787
0.0828799
0.100628
0.115042
0.126552
0.135608
0.142612
0.147909
0.151786
0.154488
0.156229
0.15721
0.157586
0.157371
0.156632
0.156461
-0.0762818
-0.072456
-0.0558439
-0.0307651
-0.00290206
0.0238227
0.0474629
0.0674727
0.0840173
0.0975144
0.108416
0.117134
0.124021
0.129379
0.133462
0.136488
0.138658
0.140183
0.141309
0.142231
0.141844
-0.120991
-0.116183
-0.0985252
-0.0720215
-0.0422786
-0.0134098
0.0124467
0.0346212
0.0532185
0.0686362
0.0813262
0.0917063
0.100139
0.106936
0.112361
0.116635
0.119949
0.122533
0.124775
0.126802
0.126645
-0.164231
-0.158294
-0.139836
-0.112119
-0.0807099
-0.0498819
-0.021957
0.00226403
0.0228167
0.0400723
0.0544784
0.0664572
0.0763782
0.0845594
0.0912732
0.0967431
0.101141
0.104681
0.107843
0.110831
0.110873
-0.205632
-0.198516
-0.179534
-0.15078
-0.117941
-0.0853648
-0.0555437
-0.0294154
-0.00702246
0.0119729
0.0280093
0.0415106
0.0528508
0.0623528
0.0702946
0.076903
0.082336
0.0867798
0.0907505
0.0946195
0.0955386
-0.244763
-0.236622
-0.217343
-0.187765
-0.153728
-0.119639
-0.088118
-0.0602416
-0.0361402
-0.0155177
0.00205073
0.0169874
0.0296691
0.0404218
0.0495273
0.0572177
0.0636491
0.0689853
0.0737328
0.0783741
0.0803651
-0.281388
-0.272369
-0.252706
-0.223004
-0.187848
-0.152493
-0.119496
-0.0900491
-0.0643861
-0.0422624
-0.0232718
-0.00699647
0.00694093
0.0188682
0.0290698
0.0377829
0.0451691
0.0513821
0.0568965
0.0622194
0.0650689
-0.315302
-0.30553
-0.285641
-0.255729
-0.220306
-0.183729
-0.149504
-0.118683
-0.091619
-0.0681323
-0.04784
-0.0303319
-0.0152321
-0.00221257
0.00901222
0.0186831
0.0269687
0.0340188
0.0402742
0.0462342
0.0497914
-0.346326
-0.335884
-0.315977
-0.28609
-0.250377
-0.213322
-0.177989
-0.145996
-0.117708
-0.0930085
-0.0715443
-0.0529173
-0.0367556
-0.0227324
-0.0105625
-3.1456e-06
0.00912026
0.0169551
0.0239119
0.0304886
0.0347509
-0.37431
-0.363254
-0.34351
-0.313952
-0.278232
-0.240819
-0.204804
-0.171857
-0.142534
-0.116782
-0.0942853
-0.0746603
-0.0575429
-0.0426097
-0.029577
-0.0182013
-0.00830268
0.000264057
0.00787987
0.0150498
0.0200439
-0.399132
-0.387518
-0.368085
-0.339122
-0.30373
-0.266224
-0.229777
-0.196139
-0.165988
-0.139356
-0.115974
-0.0954776
-0.077516
-0.0617708
-0.0479609
-0.0358431
-0.025233
-0.0159868
-0.00775435
-2.40566e-05
0.0056943
-0.420709
-0.4086
-0.389605
-0.361464
-0.326715
-0.289442
-0.252834
-0.218753
-0.187986
-0.160645
-0.136535
-0.115296
-0.0966064
-0.0801503
-0.0656519
-0.0528692
-0.0416139
-0.0317442
-0.0229401
-0.0146864
-0.00827341
-0.439003
-0.426464
-0.408019
-0.380903
-0.347085
-0.310365
-0.273894
-0.239623
-0.208455
-0.180597
-0.155895
-0.134054
-0.114757
-0.0976928
-0.0825972
-0.069229
-0.0573987
-0.0469661
-0.0376416
-0.0289028
-0.0218192
-0.454022
-0.441122
-0.423317
-0.397403
-0.364782
-0.328922
-0.292884
-0.258683
-0.227334
-0.199141
-0.174017
-0.151709
-0.131917
-0.114352
-0.0987537
-0.084881
-0.0725486
-0.0616172
-0.0518328
-0.0426562
-0.0349022
-0.46582
-0.452629
-0.435534
-0.410967
-0.379782
-0.34507
-0.309756
-0.275887
-0.24458
-0.216241
-0.190858
-0.168221
-0.148059
-0.130097
-0.114085
-0.0997916
-0.0870334
-0.0756663
-0.0654902
-0.0559541
-0.0475115
-0.474497
-0.461086
-0.444748
-0.421639
-0.392093
-0.358796
-0.324486
-0.291209
-0.260169
-0.231874
-0.20639
-0.183563
-0.163151
-0.1449
-0.12857
-0.113943
-0.100827
-0.0890895
-0.0785781
-0.0688051
-0.0597303
-0.480192
-0.466638
-0.451084
-0.429502
-0.401759
-0.370114
-0.337072
-0.30464
-0.27409
-0.246028
-0.220605
-0.197724
-0.17718
-0.158744
-0.14219
-0.12731
-0.113918
-0.101879
-0.091063
-0.0810846
-0.0718806
-0.483086
-0.469467
-0.454704
-0.434683
-0.408863
-0.379069
-0.347536
-0.316191
-0.286349
-0.258708
-0.233503
-0.210702
-0.190144
-0.171624
-0.154934
-0.139882
-0.12629
-0.114022
-0.102968
-0.0928407
-0.0836577
-0.483394
-0.469793
-0.455812
-0.437346
-0.413519
-0.385734
-0.355923
-0.32589
-0.296968
-0.26993
-0.245098
-0.222509
-0.202049
-0.183543
-0.166806
-0.151658
-0.137934
-0.125502
-0.114257
-0.103957
-0.0946055
-0.48136
-0.467861
-0.454641
-0.437691
-0.415879
-0.390214
-0.362302
-0.333785
-0.305981
-0.279723
-0.255415
-0.233166
-0.212913
-0.194517
-0.177814
-0.162642
-0.148847
-0.136301
-0.124901
-0.114418
-0.104816
-0.47725
-0.463941
-0.451452
-0.435948
-0.416127
-0.392641
-0.366764
-0.339941
-0.313437
-0.288128
-0.26449
-0.242703
-0.222761
-0.204565
-0.187976
-0.172848
-0.15904
-0.146429
-0.134915
-0.124289
-0.11446
-0.471347
-0.458315
-0.446525
-0.432375
-0.414476
-0.393176
-0.369423
-0.344438
-0.3194
-0.295196
-0.272366
-0.25116
-0.23163
-0.213719
-0.197317
-0.182299
-0.168537
-0.155913
-0.144338
-0.133625
-0.123625
-0.46394
-0.451274
-0.440147
-0.427243
-0.411161
-0.392004
-0.370415
-0.347376
-0.323942
-0.300988
-0.279097
-0.258584
-0.239561
-0.222016
-0.205874
-0.191029
-0.177369
-0.164787
-0.1532
-0.142454
-0.132345
-0.455321
-0.443106
-0.432612
-0.420838
-0.406435
-0.389332
-0.369897
-0.348868
-0.32715
-0.305572
-0.284741
-0.265028
-0.246602
-0.229501
-0.213684
-0.199072
-0.185569
-0.17308
-0.16153
-0.150796
-0.140636
-0.445773
-0.434089
-0.424201
-0.413441
-0.400564
-0.385384
-0.368044
-0.349044
-0.32912
-0.309023
-0.289363
-0.270548
-0.252806
-0.236221
-0.220792
-0.206468
-0.193173
-0.180824
-0.169354
-0.158673
-0.148519
-0.435567
-0.424487
-0.415186
-0.405328
-0.393813
-0.380395
-0.365045
-0.348047
-0.329958
-0.311424
-0.293028
-0.275205
-0.258226
-0.242227
-0.227244
-0.213259
-0.200218
-0.188053
-0.176704
-0.166111
-0.156011
-0.424954
-0.414541
-0.405813
-0.396759
-0.386441
-0.374604
-0.361101
-0.346035
-0.32978
-0.312861
-0.295808
-0.279059
-0.262919
-0.24757
-0.233089
-0.219489
-0.206743
-0.194801
-0.18361
-0.173136
-0.163133
-0.41416
-0.404465
-0.396303
-0.387968
-0.378692
-0.368247
-0.35642
-0.343172
-0.328712
-0.313429
-0.297775
-0.28217
-0.266939
-0.252301
-0.238373
-0.225202
-0.21279
-0.201104
-0.190104
-0.179774
-0.169905
-0.403386
-0.394447
-0.386847
-0.379162
-0.370787
-0.361548
-0.351209
-0.339633
-0.326888
-0.313225
-0.299003
-0.284598
-0.270339
-0.256469
-0.243143
-0.230443
-0.218397
-0.206999
-0.196218
-0.186054
-0.176346
-0.3928
-0.384641
-0.377603
-0.370513
-0.362921
-0.354714
-0.345668
-0.335594
-0.324448
-0.312355
-0.299568
-0.286403
-0.273168
-0.260121
-0.247444
-0.235253
-0.223606
-0.212521
-0.201984
-0.192004
-0.182481
-0.382542
-0.375172
-0.368696
-0.362161
-0.355252
-0.347922
-0.339983
-0.331227
-0.321536
-0.310928
-0.299551
-0.287642
-0.275473
-0.263296
-0.251314
-0.239671
-0.228453
-0.217706
-0.207434
-0.197651
-0.188332
-0.372722
-0.366137
-0.36022
-0.35421
-0.347906
-0.341322
-0.334318
-0.326695
-0.318297
-0.30906
-0.299035
-0.288375
-0.277297
-0.266032
-0.254788
-0.24373
-0.232972
-0.222585
-0.212599
-0.203025
-0.193921
-0.363422
-0.357603
-0.35224
-0.346734
-0.340976
-0.335031
-0.32881
-0.322146
-0.31487
-0.306866
-0.298106
-0.28866
-0.27868
-0.268357
-0.257891
-0.247456
-0.23719
-0.227187
-0.217506
-0.20815
-0.199269
-0.354695
-0.349616
-0.344796
-0.339776
-0.33452
-0.32913
-0.323568
-0.317705
-0.311384
-0.304462
-0.296856
-0.288563
-0.279663
-0.270298
-0.260643
-0.250869
-0.241127
-0.231534
-0.222178
-0.213052
-0.204398
-0.346578
-0.342199
-0.337905
-0.333357
-0.328569
-0.323672
-0.318668
-0.313472
-0.307949
-0.301957
-0.295376
-0.288148
-0.280287
-0.271878
-0.263056
-0.253977
-0.244794
-0.23564
-0.226631
-0.21775
-0.209325
-0.339083
-0.335357
-0.33157
-0.327476
-0.323132
-0.318681
-0.314159
-0.309518
-0.304659
-0.299448
-0.293756
-0.287486
-0.280599
-0.273121
-0.265138
-0.25678
-0.248191
-0.239506
-0.230874
-0.222259
-0.214073
-0.332207
-0.329085
-0.325777
-0.32212
-0.318197
-0.314158
-0.31006
-0.305891
-0.301579
-0.297018
-0.29208
-0.28665
-0.280648
-0.274052
-0.266897
-0.259272
-0.251305
-0.243123
-0.234899
-0.226585
-0.218653
-0.325938
-0.323363
-0.320504
-0.317264
-0.313742
-0.310087
-0.306373
-0.302609
-0.298756
-0.29473
-0.290421
-0.285708
-0.28049
-0.274704
-0.26834
-0.261444
-0.254115
-0.246464
-0.238687
-0.230718
-0.223103
-0.32025
-0.318168
-0.315724
-0.312877
-0.309735
-0.306442
-0.303079
-0.299674
-0.29621
-0.292628
-0.288837
-0.284725
-0.280181
-0.275118
-0.269486
-0.263288
-0.256593
-0.249489
-0.242187
-0.234626
-0.227407
-0.315115
-0.313468
-0.311404
-0.308923
-0.306141
-0.303189
-0.300153
-0.297072
-0.293946
-0.290736
-0.287372
-0.283756
-0.279779
-0.275339
-0.27036
-0.264808
-0.258714
-0.252143
-0.245329
-0.238215
-0.231635
-0.310497
-0.30923
-0.307509
-0.305367
-0.302921
-0.300292
-0.297563