/*--------------------------------*- C++ -*----------------------------------*\
  =========                 |
  \\      /  F ield         | OpenFOAM: The Open Source CFD Toolbox
   \\    /   O peration     | Website:  https://openfoam.org
    \\  /    A nd           | Version:  7
     \\/     M anipulation  |
\*---------------------------------------------------------------------------*/
FoamFile
{
    version     2.0;
    format      ascii;
    class       volVectorField;
    location    "70";
    object      U;
}
// * * * * * * * * * * * * * * * * * * * * * * * * * * * * * * * * * * * * * //

dimensions      [0 1 -1 0 0 0 0];

internalField   nonuniform List<vector> 
8820
(
(-0.00072713 0.00585554 0)
(-0.00379974 0.0136873 0)
(-0.00958208 0.0186078 0)
(-0.0168694 0.0212695 0)
(-0.0250603 0.0222388 -7.65435e-21)
(-0.0337535 0.0219937 -7.25496e-21)
(-0.0426036 0.0209153 -1.3632e-20)
(-0.0513343 0.0192858 0)
(-0.0597289 0.0172965 2.41541e-20)
(-0.0676143 0.0150614 -1.1379e-20)
(-0.0748516 0.0126367 7.03624e-24)
(-0.0813292 0.0100413 2.00234e-20)
(-0.0869612 0.00727618 -9.35721e-21)
(-0.0916892 0.00434026 0)
(-0.0954892 0.0012423 8.20511e-21)
(-0.0983824 -0.00199288 7.73267e-21)
(-0.100457 -0.00532367 0)
(-0.101903 -0.0086971 2.69371e-20)
(-0.102932 -0.0120586 0)
(-0.103576 -0.015367 0)
(-0.104711 -0.0186431 0)
(-0.00101347 0.00736859 0)
(-0.00443394 0.0174469 -3.64099e-20)
(-0.0103707 0.0239862 -3.44941e-20)
(-0.0176882 0.0277671 0)
(-0.0258283 0.0294471 0)
(-0.0344202 0.0295783 1.44639e-20)
(-0.0431419 0.0286042 1.3632e-20)
(-0.0517333 0.0268582 -2.57519e-20)
(-0.0599889 0.0245717 2.42735e-20)
(-0.0677428 0.0218908 -4.56437e-23)
(-0.0748595 0.0188973 0)
(-0.0812286 0.0156324 -2.00194e-20)
(-0.0867618 0.0121194 0)
(-0.0913953 0.00838407 0)
(-0.095096 0.00447135 0)
(-0.0978716 0.000455909 1.56473e-20)
(-0.0997951 -0.00355391 0)
(-0.10104 -0.00742245 -2.69371e-20)
(-0.101809 -0.011002 2.5253e-20)
(-0.102135 -0.0141534 -4.71974e-20)
(-0.102916 -0.0168346 2.24866e-20)
(-0.00139936 0.00881313 3.64637e-20)
(-0.00529152 0.0210558 3.64099e-20)
(-0.0114293 0.0291746 1.03859e-19)
(-0.0187708 0.034064 0)
(-0.0268139 0.036463 6.19506e-20)
(-0.0352274 0.0369913 0)
(-0.0437195 0.0361503 2.74913e-20)
(-0.0520525 0.0343211 -2.58511e-20)
(-0.060036 0.0317741 4.88371e-20)
(-0.0675145 0.0286856 0)
(-0.0743585 0.0251616 0)
(-0.0804589 0.0212629 4.04242e-20)
(-0.0857248 0.0170316 3.03057e-23)
(-0.0900839 0.0125157 -1.42439e-19)
(-0.0934883 0.00779025 -7.08089e-24)
(-0.0959237 0.0029744 6.27203e-20)
(-0.0974353 -0.00175961 0)
(-0.0981688 -0.00619036 -5.45352e-20)
(-0.098308 -0.0100642 1.02196e-19)
(-0.0978696 -0.0131197 0)
(-0.0977806 -0.0152173 -4.55246e-20)
(-0.00187534 0.0101617 -7.30398e-20)
(-0.00635161 0.02445 0)
(-0.0127308 0.0340864 -1.04323e-19)
(-0.0200861 0.0400609 -3.2851e-20)
(-0.027983 0.0431819 3.57283e-22)
(-0.036137 0.0441278 -1.17444e-19)
(-0.0442932 0.0434523 1.65907e-19)
(-0.0522409 0.0415806 8.56509e-23)
(-0.0598093 0.0388189 -9.77746e-20)
(-0.066856 0.0353722 -9.24251e-20)
(-0.0732594 0.0313679 8.68807e-20)
(-0.0789136 0.0268833 -8.16139e-20)
(-0.0837246 0.0219742 1.52994e-19)
(-0.0876107 0.0167034 1.43275e-19)
(-0.0905052 0.0111672 -6.70829e-20)
(-0.0923654 0.00551969 2.44351e-22)
(-0.0931979 -9.87745e-06 -5.88109e-20)
(-0.093108 -0.0051132 0)
(-0.0922484 -0.00941435 1.91197e-22)
(-0.0905961 -0.0124928 -9.60659e-20)
(-0.0890995 -0.0140546 4.57154e-20)
(-0.00242894 0.0113886 -3.68231e-20)
(-0.00758694 0.0275686 0)
(-0.0142406 0.0386384 6.96184e-20)
(-0.021596 0.0456608 -6.61033e-20)
(-0.0292944 0.0494992 2.38084e-22)
(-0.0371044 0.0508812 -5.91284e-20)
(-0.0448127 0.0504055 1.67237e-19)
(-0.05224 0.0485365 5.2723e-20)
(-0.0592383 0.0456136 0)
(-0.0656808 0.0418678 9.22031e-20)
(-0.0714561 0.0374454 -1.73963e-19)
(-0.0764627 0.0324364 -8.25048e-20)
(-0.0806052 0.0269045 2.09399e-22)
(-0.0837922 0.0209183 -7.18649e-20)
(-0.0859376 0.0145836 -1.35753e-19)
(-0.0869666 0.00807532 0)
(-0.0868397 0.00166674 5.92824e-20)
(-0.0856097 -0.00425201 -1.66805e-19)
(-0.0833859 -0.00916858 0)
(-0.0800787 -0.0124579 -9.68196e-20)
(-0.0766116 -0.0135945 1.84029e-19)
(-0.00304509 0.0124713 0)
(-0.00896493 0.0303567 1.49356e-19)
(-0.0159184 0.042753 1.40736e-19)
(-0.0232564 0.0507709 6.71029e-20)
(-0.0307019 0.0553126 1.26176e-19)
(-0.0380801 0.057144 5.93724e-20)
(-0.045223 0.0569008 -5.54317e-20)
(-0.0519857 0.0550819 -2.10284e-19)
(-0.0582452 0.0520559 0)
(-0.0638925 0.0480776 1.86629e-19)
(-0.0688279 0.0433101 8.80341e-20)
(-0.0729558 0.0378524 3.3016e-19)
(-0.0761809 0.0317703 -7.73586e-20)
(-0.0784042 0.0251293 0)
(-0.0795219 0.018031 -1.03937e-21)
(-0.0794278 0.010653 -1.28172e-19)
(-0.0780332 0.0032918 1.19986e-19)
(-0.0753292 -0.00359622 -8.75702e-22)
(-0.0713749 -0.00935855 -1.04867e-19)
(-0.0659951 -0.0131286 9.78712e-20)
(-0.0599663 -0.014053 0)
(-0.00370688 0.0133911 7.48661e-20)
(-0.010449 0.032767 -2.24168e-19)
(-0.017719 0.0463613 0)
(-0.025019 0.0553054 -2.00723e-19)
(-0.0321554 0.0605239 -6.29351e-20)
(-0.0390114 0.0628094 0)
(-0.0454662 0.0628264 0)
(-0.0514108 0.0611025 0)
(-0.0567483 0.0580325 -1.00134e-19)
(-0.0613886 0.0538924 9.48343e-20)
(-0.0652441 0.0488604 -8.80322e-20)
(-0.0682264 0.0430422 -1.65466e-19)
(-0.0702413 0.0365014 0)
(-0.0711847 0.0292927 0)
(-0.0709391 0.0215002 2.74158e-19)
(-0.0693717 0.0132839 -8.99064e-22)
(-0.0663478 0.00493671 -2.40409e-19)
(-0.061794 -0.00304701 1.12218e-19)
(-0.0557266 -0.00988976 1.04863e-19)
(-0.0479005 -0.0144667 1.02215e-21)
(-0.0386913 -0.0154912 1.87037e-19)
(-0.00439636 0.0141344 0)
(-0.0120002 0.0347627 1.51554e-19)
(-0.019595 0.0494053 0)
(-0.0268332 0.059188 0)
(-0.0336029 0.0650414 1.27511e-19)
(-0.0398442 0.0677731 -2.4036e-19)
(-0.0454833 0.0680684 1.13444e-19)
(-0.050447 0.0664776 -4.30847e-22)
(-0.0546646 0.0634184 -4.23025e-22)
(-0.058064 0.0591862 1.00108e-21)
(-0.0605695 0.0539732 8.88072e-20)
(-0.0620988 0.047891 0)
(-0.0625591 0.0409993 0)
(-0.061843 0.0333372 0)
(-0.059823 0.0249613 4.17155e-22)
(-0.0563471 0.0159956 3.88385e-19)
(-0.0512425 0.00670034 -1.21341e-19)
(-0.0443727 -0.00243047 0)
(-0.0357308 -0.0105383 0)
(-0.0251044 -0.0162314 -1.97018e-19)
(-0.0121445 -0.0175117 0)
(-0.00509557 0.0146936 -1.52486e-19)
(-0.0135794 0.0363184 -1.51554e-19)
(-0.0214985 0.0518404 0)
(-0.0286477 0.0623545 0)
(-0.0349915 0.0687824 -1.28698e-19)
(-0.0405236 0.0719363 0)
(-0.0452146 0.0725137 -1.13628e-19)
(-0.0490259 0.0710823 -1.08357e-19)
(-0.051911 0.068079 -2.02769e-19)
(-0.0538139 0.0638171 -1.90002e-19)
(-0.0546682 0.0585025 -3.57901e-19)
(-0.0543951 0.0522539 1.68042e-19)
(-0.0529013 0.0451279 0)
(-0.0500748 0.0371475 1.48948e-19)
(-0.0457803 0.0283378 -2.78209e-19)
(-0.0398521 0.0187738 2.61514e-19)
(-0.0320888 0.00865713 0)
(-0.022297 -0.0015704 0)
(-0.010428 -0.011062 0)
(0.00367607 -0.0181749 0)
(0.0209299 -0.0196029 1.88723e-19)
(-0.00578768 0.0150675 -7.52377e-22)
(-0.015149 0.0374222 1.53128e-19)
(-0.0233827 0.0536372 -2.90429e-19)
(-0.0304118 0.0647553 1.36792e-19)
(-0.0362683 0.0716768 3.87432e-19)
(-0.0409936 0.0752087 -2.43478e-19)
(-0.0445994 0.0760536 4.59501e-19)
(-0.0470777 0.0747912 2.15564e-19)
(-0.0484034 0.0718737 3.05125e-19)
(-0.0485331 0.0676309 1.91124e-19)
(-0.0474053 0.0622828 1.7981e-19)
(-0.0449399 0.055957 0)
(-0.041038 0.0487106 -3.18815e-19)
(-0.035579 0.0405553 1.49864e-19)
(-0.0284184 0.031487 -1.40077e-19)
(-0.0193792 0.0215288 1.19793e-21)
(-0.0082431 0.0108044 2.46879e-19)
(0.00520667 -0.000351856 1.15065e-19)
(0.0210711 -0.0111913 0)
(0.03981 -0.019848 0)
(0.0625048 -0.021868 0)
(-0.00645802 0.0152617 -6.19504e-22)
(-0.0166747 0.0380759 1.55012e-19)
(-0.0252038 0.0547827 1.45919e-19)
(-0.0320759 0.0663575 1.37754e-19)
(-0.0373793 0.0736695 1.20921e-21)
(-0.0411957 0.0775129 -7.31522e-22)
(-0.043572 0.0785891 -3.45416e-19)
(-0.0445268 0.0774845 2.17473e-19)
(-0.0440516 0.0746631 -4.08295e-19)
(-0.0421105 0.0704695 -1.9191e-19)
(-0.0386411 0.0651378 1.81247e-19)
(-0.0335555 0.058807 -1.69994e-19)
(-0.0267417 0.0515402 1.59531e-19)
(-0.0180637 0.043345 1.50431e-19)
(-0.00736189 0.0341978 -1.40883e-19)
(0.00555239 0.0240795 -2.6367e-19)
(0.0209059 0.0130342 -2.46832e-19)
(0.038925 0.00126386 -2.30968e-19)
(0.0597136 -0.010647 6.47032e-19)
(0.0839045 -0.0208489 -1.57474e-21)
(0.113532 -0.0242181 -1.88516e-19)
(-0.00709508 0.0152878 4.66799e-19)
(-0.0181273 0.0382947 -3.1054e-19)
(-0.0269214 0.0552813 -1.46483e-19)
(-0.0335911 0.0671467 2.78382e-19)
(-0.0382674 0.0747236 -2.60769e-19)
(-0.0410639 0.0787887 -1.4635e-21)
(-0.0420561 0.0800367 -5.12054e-22)
(-0.0412832 0.0790562 -2.17962e-19)
(-0.0387478 0.0763196 2.05439e-19)
(-0.0344151 0.0721836 0)
(-0.028215 0.0668962 0)
(-0.0200443 0.0606103 0)
(-0.00976897 0.0534 1.61068e-19)
(0.00277078 0.0452782 0)
(0.0177575 0.0362163 1.41825e-19)
(0.0353952 0.0261718 1.33007e-19)
(0.055913 0.0151274 -2.48701e-19)
(0.0795354 0.00316428 -2.32697e-19)
(0.106323 -0.00935883 -2.16039e-19)
(0.136741 -0.0208874 0)
(0.174902 -0.0256901 -3.75358e-19)
(-0.00769121 0.0151636 -3.13621e-19)
(-0.0194831 0.0381063 1.57328e-19)
(-0.0284985 0.0551536 -1.48029e-19)
(-0.0349069 0.0671274 1.41498e-19)
(-0.0388683 0.074823 1.31618e-19)
(-0.0405189 0.0789975 1.23238e-19)
(-0.0399549 0.0803354 2.32731e-19)
(-0.0372293 0.0794236 -4.38735e-19)
(-0.0323493 0.0767394 2.06166e-19)
(-0.0252744 0.0726491 3.45044e-22)
(-0.0159187 0.0674135 -5.48369e-19)
(-0.00415537 0.061201 3.43528e-19)
(0.0101792 0.0541009 5.09382e-22)
(0.0272772 0.0461401 -1.5138e-19)
(0.0473506 0.0373001 0)
(0.0706202 0.0275371 -2.66698e-19)
(0.0973112 0.0168087 2.49563e-19)
(0.127632 0.00511927 1.53495e-22)
(0.161603 -0.00738106 4.51128e-22)
(0.198991 -0.0197012 -2.01037e-19)
(0.247508 -0.0254688 3.73873e-19)
(-0.00824295 0.0149105 3.15452e-19)
(-0.0207243 0.0375482 1.72441e-21)
(-0.0298998 0.0544352 0)
(-0.0359684 0.066323 -2.80214e-19)
(-0.0391048 0.0739742 -3.97999e-19)
(-0.0394584 0.0781266 1.24678e-19)
(-0.037138 0.0794535 0)
(-0.0322027 0.0785371 0)
(-0.024656 0.0758566 4.14547e-19)
(-0.0144441 0.0717855 -1.94895e-19)
(-0.00145771 0.0665966 1.82988e-19)
(0.0144615 0.0604737 4.63321e-22)
(0.0335134 0.0535243 3.58122e-22)
(0.0559267 0.0457967 1.52422e-19)
(0.0819436 0.0372945 -5.70263e-19)
(0.111799 0.0279938 0)
(0.145698 0.0178643 0)
(0.183794 0.00689029 0)
(0.226155 -0.00486336 2.16947e-19)
(0.271086 -0.0172526 2.26795e-21)
(0.331868 -0.0230092 3.70244e-19)
(-0.00875037 0.0145525 0)
(-0.021837 0.0366655 -3.16965e-19)
(-0.0310888 0.0531734 -3.01234e-19)
(-0.0367107 0.0647744 1.41391e-19)
(-0.0388791 0.0722066 -7.94416e-22)
(-0.0377471 0.0761927 1.2538e-19)
(-0.0334274 0.0773949 -2.35639e-19)
(-0.0259761 0.07639 2.2157e-19)
(-0.0153844 0.0736571 0)
(-0.00157627 0.069575 -1.95753e-19)
(0.0155886 0.0644276 1.83645e-19)
(0.0363058 0.0584144 -1.72529e-19)
(0.0608144 0.0516637 0)
(0.089377 0.0442507 3.04636e-19)
(0.122255 0.0362089 4.12882e-23)
(0.159679 0.0275494 -2.67374e-19)
(0.2018 0.0182768 0)
(0.248639 0.00839716 0)
(0.300461 -0.00189374 -6.09338e-22)
(0.353173 -0.013651 -2.01577e-19)
(0.427686 -0.0180345 -3.6483e-19)
(-0.00921621 0.0141145 0)
(-0.0228091 0.0355059 3.21637e-19)
(-0.0320243 0.051424 3.01234e-19)
(-0.0370534 0.0625372 2.85658e-19)
(-0.038064 0.0695724 0)
(-0.0352044 0.0732434 2.52571e-19)
(-0.0285813 0.0742043 2.36633e-19)
(-0.0182379 0.0730271 -2.22958e-19)
(-0.00414322 0.0701903 -2.08923e-19)
(0.0138103 0.0660777 -1.9622e-19)
(0.0358007 0.0609842 5.52428e-19)
(0.0620628 0.0551256 -3.45843e-19)
(0.0928688 0.0486566 -1.62214e-19)
(0.128502 0.0416795 3.04713e-19)
(0.169213 0.0342629 -2.85357e-19)
(0.215181 0.0264596 5.34423e-19)
(0.266448 0.0183203 -2.49911e-19)
(0.322764 0.00986132 2.3227e-19)
(0.384728 0.00168094 4.3107e-19)
(0.445048 -0.00891619 -2.00846e-19)
(0.533598 -0.0104327 -1.59143e-21)
(-0.00964488 0.013619 1.61718e-19)
(-0.0236265 0.0341153 -6.45689e-19)
(-0.032654 0.0492464 1.52034e-19)
(-0.0368929 0.0596789 -5.72219e-19)
(-0.0364946 0.0661448 1.34906e-19)
(-0.0315938 0.0693581 2.54245e-19)
(-0.0222814 0.0699701 -7.13906e-19)
(-0.00857664 0.0685501 4.46193e-19)
(0.00958398 0.065578 0)
(0.0323468 0.0614438 0)
(0.0599303 0.0564548 0)
(0.0926043 0.0508479 3.46027e-19)
(0.130656 0.0448022 3.24721e-19)
(0.174348 0.0384499 3.04504e-19)
(0.223868 0.0318967 -5.70258e-19)
(0.279259 0.0252342 2.66873e-19)
(0.340356 0.0185566 2.4845e-19)
(0.406488 0.0118318 -6.95351e-19)
(0.478513 0.00627754 2.15744e-19)
(0.545869 -0.00282347 1.95278e-19)
(0.646771 -0.000254454 -1.02499e-21)
(-0.0100399 0.0130844 0)
(-0.0242688 0.0325347 8.13098e-19)
(-0.0329092 0.0466994 -3.63355e-22)
(-0.0360965 0.0562747 -2.88435e-19)
(-0.0339603 0.0620153 1.35744e-19)
(-0.0266148 0.064647 -2.53856e-19)
(-0.0141242 0.0648248 2.37472e-19)
(0.00352649 0.0631206 -2.24273e-19)
(0.0264421 0.0600188 0)
(0.0548114 0.0559192 -1.97179e-19)
(0.0888865 0.0511453 -1.84689e-19)
(0.128949 0.0459554 3.46395e-19)
(0.175262 0.040553 -1.13627e-18)
(0.228002 0.0351024 3.04163e-19)
(0.287191 0.0297376 0)
(0.352614 0.0245753 -2.65575e-19)
(0.423749 0.0197341 1.03566e-21)
(0.499403 0.0150799 -2.29903e-19)
(0.58023 0.0124093 0)
(0.653717 0.00507425 -1.96558e-19)
(0.76263 0.0122578 0)
(-0.0104013 0.0125229 -3.29997e-19)
(-0.0247041 0.0307957 -1.62487e-19)
(-0.032699 0.0438371 1.5588e-19)
(-0.0344956 0.052403 1.45451e-19)
(-0.0302001 0.0572901 2.73589e-19)
(-0.019899 0.0592477 5.1194e-19)
(-0.00362118 0.0589436 -9.8354e-22)
(0.0186915 0.0569586 0)
(0.0471882 0.0537869 -2.10419e-19)
(0.0820928 0.0498427 3.94743e-19)
(0.123668 0.0454682 0)
(0.172161 0.0409432 0)
(0.227731 0.0364955 2.26671e-22)
(0.290362 0.0323093 6.07313e-19)
(0.359771 0.0285292 0)
(0.435318 0.0252701 0)
(0.515938 0.0226268 2.47416e-19)
(0.599914 0.0203976 2.12502e-21)
(0.686863 0.0204432 2.13136e-19)
(0.765179 0.015322 4.32875e-21)
(0.874817 0.0266764 3.46433e-19)
(-0.0107234 0.0119395 1.64349e-19)
(-0.0248842 0.0289182 1.6506e-19)
(-0.0319048 0.0407051 -1.53349e-19)
(-0.0318824 0.0481423 0)
(-0.0249008 0.0520857 -2.73586e-19)
(-0.0110138 0.0533216 -2.56551e-19)
(0.00979122 0.0525398 0)
(0.0376174 0.0503374 -4.51376e-19)
(0.0726505 0.0472254 2.11641e-19)
(0.115124 0.0436356 -3.96013e-19)
(0.165259 0.0399294 0)
(0.223186 0.0364051 -1.7313e-19)
(0.288841 0.0333021 1.62277e-19)
(0.361861 0.0308023 -3.03419e-19)
(0.441479 0.0290287 0)
(0.526459 0.0280518 0)
(0.615029 0.0278656 0)
(0.705001 0.0283288 0)
(0.794239 0.0304437 2.06309e-19)
(0.875388 0.0284931 5.7791e-19)
(0.975726 0.0421844 -3.24476e-21)
(-0.0109918 0.0113318 1.67368e-19)
(-0.0247403 0.0269101 0)
(-0.0303776 0.0373397 -3.12579e-19)
(-0.0280094 0.0435681 0)
(-0.017701 0.0465262 2.75609e-19)
(0.000527211 0.0470492 -1.42186e-21)
(0.026729 0.0458585 -2.42892e-19)
(0.0610433 0.0435757 4.52216e-19)
(0.103665 0.0407329 -4.23983e-19)
(0.154782 0.0377812 5.94613e-19)
(0.214488 0.0350967 0)
(0.282665 0.032982 0)
(0.358864 0.0316626 0)
(0.442186 0.0312807 0)
(0.531201 0.0318872 0)
(0.623933 0.0334524 0)
(0.717862 0.0357973 0)
(0.810371 0.0389101 0)
(0.897797 0.0422647 -4.14356e-19)
(0.978624 0.0448706 -1.91366e-19)
(1.05856 0.0563027 -6.86984e-19)
(-0.0111824 0.0106901 -1.69107e-19)
(-0.0241806 0.0247674 0)
(-0.0279366 0.0337674 -1.604e-19)
(-0.0225915 0.0387525 -1.49034e-19)
(-0.00820038 0.0407402 -2.77568e-19)
(0.0152449 0.0406253 1.6641e-21)
(0.0478273 0.0391697 2.44396e-19)
(0.0896925 0.0370249 2.2832e-19)
(0.140989 0.034746 2.12266e-19)
(0.201769 0.0327986 1.99043e-19)
(0.271863 0.0315584 0)
(0.350734 0.0313043 0)
(0.437352 0.0322057 0)
(0.530093 0.0343106 0)
(0.626723 0.0375356 0)
(0.724492 0.0416891 0)
(0.820261 0.0463958 0)
(0.91106 0.0516204 0)
(0.993147 0.0558254 -7.56266e-22)
(1.06861 0.0627907 -5.62671e-19)
(1.1194 0.063107 -1.759e-22)
(-0.0112596 0.00999988 5.15299e-19)
(-0.0230891 0.0224777 -1.69843e-19)
(-0.024371 0.0300078 1.57038e-19)
(-0.0153128 0.0337651 0)
(0.00402664 0.0348605 -5.6182e-19)
(0.0336691 0.0342566 -1.06549e-22)
(0.073697 0.0327611 0)
(0.124208 0.0310574 -6.97496e-23)
(0.185211 0.0297189 -2.14437e-19)
(0.256488 0.0292098 -3.98307e-19)
(0.337427 0.0298758 0)
(0.426872 0.0319265 1.73215e-19)
(0.523013 0.0354165 -1.62349e-19)
(0.623366 0.0402337 -3.01017e-19)
(0.724867 0.0461001 0)
(0.824112 0.0526184 0)
(0.917652 0.0592376 0)
(1.00248 0.0656971 0)
(1.07613 0.0707169 -1.97304e-19)
(1.13783 0.0768535 9.26766e-19)
(1.18388 0.0751324 3.37696e-19)
(-0.0111771 0.00924328 -3.44645e-19)
(-0.0213273 0.0200248 -5.19508e-19)
(-0.0194442 0.0260782 4.82908e-19)
(-0.00583622 0.028677 -1.52067e-19)
(0.0194126 0.0290262 2.82055e-19)
(0.0563077 0.0281601 -4.71319e-23)
(0.104877 0.0269333 4.96064e-19)
(0.165081 0.0260554 0)
(0.236655 0.0261021 2.14175e-19)
(0.318927 0.0275056 -1.90028e-22)
(0.41064 0.0305337 0)
(0.509814 0.035264 0)
(0.613717 0.0415665 6.46007e-19)
(0.718977 0.0491055 -9.94823e-22)
(0.821846 0.0573704 0)
(0.918584 0.0657576 0)
(1.00587 0.0735803 2.35872e-19)
(1.08128 0.080474 4.31758e-19)
(1.14326 0.0853512 1.96285e-19)
(1.19207 0.090043 -3.709e-19)
(1.22719 0.088061 3.31908e-19)
(-0.0108783 0.00840278 1.7516e-19)
(-0.0187366 0.0173943 3.49387e-19)
(-0.0129003 0.0220009 1.20876e-21)
(0.00618456 0.0235675 1.53845e-19)
(0.0383764 0.0233876 0)
(0.0836144 0.0225658 -2.68522e-19)
(0.141788 0.0219963 -2.45772e-19)
(0.212587 0.0223989 2.33167e-19)
(0.295299 0.0243201 0)
(0.388588 0.0281107 -2.00873e-19)
(0.490337 0.0338942 0)
(0.597586 0.0415415 -1.73479e-19)
(0.706655 0.0506703 -1.62723e-19)
(0.813429 0.0606818 -5.99462e-19)
(0.913805 0.0708375 2.78978e-19)
(1.00419 0.0803823 0)
(1.0819 0.088595 -2.35853e-19)
(1.14553 0.0951373 -2.16221e-19)
(1.19479 0.0991777 0)
(1.23091 0.102423 -1.79984e-19)
(1.25478 0.0995583 0)
(-0.0102984 0.00746401 -1.78346e-19)
(-0.0151434 0.0145806 -7.08382e-19)
(-0.00447226 0.0178103 -1.65169e-19)
(0.0210912 0.0185312 -2.13219e-21)
(0.0613014 0.0181124 -1.45498e-19)
(0.115955 0.017719 -2.71573e-19)
(0.184681 0.0182672 2.52715e-19)
(0.26673 0.0204551 -6.05263e-23)
(0.360726 0.0247497 0)
(0.464449 0.0313511 0)
(0.574752 0.0401582 0)
(0.68765 0.0507615 3.49672e-19)
(0.798644 0.0624814 3.23528e-19)
(0.903216 0.0744608 -2.96539e-19)
(0.997395 0.0857952 5.5055e-19)
(1.07825 0.0956849 -2.55418e-19)
(1.14422 0.103504 -2.2886e-19)
(1.19514 0.109058 2.13065e-19)
(1.23198 0.111864 -1.95116e-19)
(1.25682 0.113522 -1.72012e-19)
(1.27181 0.109872 1.59143e-19)
(-0.00936617 0.00641877 0)
(-0.0103646 0.0115934 3.56822e-19)
(0.00610839 0.0135621 3.39289e-19)
(0.0392058 0.0136877 3.12319e-19)
(0.0885123 0.0133931 0)
(0.153574 0.0138842 -1.15022e-22)
(0.233602 0.0160667 2.7854e-21)
(0.327198 0.0205656 -2.32606e-19)
(0.432093 0.0276973 2.20823e-19)
(0.544995 0.0374251 2.02728e-19)
(0.661648 0.0493413 -1.88567e-19)
(0.777153 0.0627024 -3.47211e-19)
(0.886517 0.0765317 1.6286e-19)
(0.985306 0.0897764 -2.9494e-19)
(1.07022 0.101479 2.76195e-19)
(1.13947 0.110931 1.59158e-21)
(1.19282 0.11772 2.31436e-19)
(1.23138 0.121876 2.09666e-19)
(1.25716 0.123261 1.07377e-21)
(1.27283 0.123443 1.73761e-19)
(1.28062 0.11899 3.01365e-19)
(-0.00800686 0.0052674 0)
(-0.00421368 0.00846308 -3.69043e-19)
(0.0191011 0.00934022 -3.39285e-19)
(0.0608145 0.00918811 -1.5864e-19)
(0.120252 0.00945215 5.96759e-19)
(0.196569 0.0113454 1.358e-19)
(0.288358 0.0157116 -3.10904e-21)
(0.393343 0.02303 -2.40267e-19)
(0.508151 0.0333751 0)
(0.628304 0.0463817 2.0393e-19)
(0.748508 0.0612696 -5.69355e-19)
(0.863246 0.0769508 1.76776e-19)
(0.967511 0.0922105 0)
(1.05751 0.105917 -2.93104e-19)
(1.13108 0.117203 5.44522e-19)
(1.18783 0.125575 -2.48914e-19)
(1.22886 0.130911 0)
(1.25635 0.133484 0)
(1.27296 0.133468 -3.68977e-19)
(1.28154 0.132314 1.70188e-19)
(1.28437 0.127232 -2.99193e-19)
(-0.00614412 0.0040205 2.97752e-21)
(0.00349214 0.00524542 3.68247e-19)
(0.0347448 0.0052626 0)
(0.0861506 0.00522066 -3.27058e-19)
(0.156659 0.00654401 -1.49567e-19)
(0.244857 0.0104018 -1.4116e-19)
(0.348494 0.0175027 0)
(0.464186 0.0280853 0)
(0.587305 0.0418801 2.78944e-21)
(0.712201 0.0581118 2.08477e-19)
(0.832795 0.0756009 1.91281e-19)
(0.943407 0.0929637 -3.49527e-19)
(1.03958 0.108864 3.64176e-21)
(1.11865 0.122239 -1.41791e-19)
(1.1799 0.132448 2.49266e-21)
(1.22434 0.139298 0)
(1.25422 0.142977 0)
(1.27241 0.14397 0)
(1.28185 0.142684 1.79436e-19)
(1.28528 0.140402 3.22275e-19)
(1.28467 0.134871 -9.69265e-22)
(-0.00370247 0.00269999 -3.84842e-19)
(0.0129251 0.00202382 1.88019e-19)
(0.0532457 0.00148385 1.76003e-19)
(0.115376 0.0020113 -1.71928e-19)
(0.197744 0.00495115 -1.52277e-19)
(0.298157 0.0113569 4.30416e-19)
(0.413287 0.0217057 2.65963e-19)
(0.538449 0.0358844 -3.49506e-21)
(0.667714 0.05318 -6.7672e-19)
(0.794446 0.0723582 3.91875e-21)
(0.9122 0.0918712 1.92028e-19)
(1.01569 0.11015 -2.12557e-21)
(1.10154 0.125889 -3.18955e-19)
(1.16855 0.138247 1.48552e-19)
(1.21749 0.146903 0)
(1.25063 0.151997 0)
(1.27098 0.153993 0)
(1.28176 0.15353 3.88531e-19)
(1.28587 0.15116 -3.60403e-19)
(1.2857 0.147948 -1.61637e-19)
(1.28294 0.142141 1.2686e-21)
(-0.00060947 0.00133942 5.88804e-19)
(0.0242392 -0.00108987 -3.91104e-19)
(0.0747641 -0.0018052 -3.61835e-19)
(0.148564 -0.000180068 5.02141e-19)
(0.243367 0.00497448 -3.14928e-19)
(0.355976 0.0145016 4.82801e-21)
(0.48176 0.0285298 -5.31643e-19)
(0.614624 0.0464774 7.41184e-19)
(0.74744 0.0671126 -2.30516e-19)
(0.872944 0.0887465 0)
(0.984868 0.109558 0)
(1.07888 0.127948 0)
(1.15307 0.142805 1.60398e-19)
(1.20781 0.153622 0)
(1.24525 0.160444 -1.29373e-19)
(1.26854 0.163722 1.21115e-19)
(1.28115 0.164131 0)
(1.28628 0.162395 -1.95055e-19)
(1.28658 0.15913 -1.7172e-19)
(1.28401 0.155165 -1.5302e-19)
(1.2799 0.149211 1.37121e-19)
(0.00320197 -1.61453e-05 -4.00261e-19)
(0.0375625 -0.00395659 1.95917e-19)
(0.0994012 -0.00438127 3.68803e-19)
(0.185681 -0.00106824 0)
(0.293229 0.00691819 3.12084e-19)
(0.417609 0.0200931 -5.86151e-19)
(0.55272 0.0381062 -1.36949e-19)
(0.691069 0.0598031 -2.48264e-19)
(0.824599 0.0834028 1.42329e-21)
(0.945922 0.106832 -2.12029e-19)
(1.04952 0.128145 -1.90231e-19)
(1.13248 0.145889 3.51277e-19)
(1.19453 0.159282 -1.59847e-19)
(1.23755 0.168215 5.21855e-21)
(1.26477 0.173092 1.32547e-19)
(1.27989 0.174619 -2.32287e-19)
(1.28644 0.173601 -2.08609e-19)
(1.28742 0.170785 1.85448e-19)
(1.28509 0.166787 -1.68047e-19)
(1.28096 0.162208 6.40266e-21)
(1.27607 0.15619 1.38538e-19)
(0.00779091 -0.00131051 4.13318e-19)
(0.052989 -0.00641269 -2.04353e-19)
(0.127186 -0.00599544 5.48292e-22)
(0.226571 -0.000355218 -1.76296e-19)
(0.346857 0.011071 1.63509e-19)
(0.482158 0.0283334 2.99579e-19)
(0.624827 0.0504732 -2.11268e-21)
(0.766131 0.0756927 2.58771e-19)
(0.897518 0.101694 3.53964e-19)
(1.01205 0.126152 8.50446e-19)
(1.10549 0.147179 -1.96556e-19)
(1.17661 0.163626 0)
(1.22678 0.175137 -3.45585e-21)
(1.25916 0.182009 -2.87431e-19)
(1.27767 0.184959 0)
(1.28623 0.184871 1.18135e-19)
(1.28822 0.182606 3.09803e-19)
(1.28624 0.178884 -9.46509e-20)
(1.28214 0.174278 0)
(1.27704 0.169187 0)
(1.27169 0.163146 0)
(0.0132054 -0.00247739 -3.13556e-19)
(0.07057 -0.00827433 -1.05169e-19)
(0.158064 -0.00638248 0)
(0.270952 0.00225447 1.77026e-19)
(0.403617 0.0176865 -3.30466e-19)
(0.548573 0.0393515 0)
(0.696668 0.0655715 -1.41482e-19)
(0.838261 0.0938887 -1.26305e-19)
(0.964846 0.121589 -2.33997e-19)
(1.07051 0.146273 -6.3735e-19)
(1.15267 0.166297 3.87075e-19)
(1.21187 0.180941 -1.78151e-19)
(1.25097 0.190309 0)
(1.27404 0.195077 1.41864e-19)
(1.28538 0.1962 -1.67753e-21)
(1.28885 0.194661 -1.63608e-21)
(1.28748 0.191319 0)
(1.28346 0.186833 0)
(1.2782 0.181704 0)
(1.2725 0.176167 0)
(1.26688 0.170111 0)
(0.0194794 -0.00344163 0)
(0.0903074 -0.00934299 2.09835e-19)
(0.191889 -0.00527183 0)
(0.318407 0.00703737 0)
(0.462727 0.0269645 -1.66871e-19)
(0.615698 0.0531916 3.1062e-19)
(0.766858 0.0832501 -2.93605e-21)
(0.90612 0.114072 -1.29489e-19)
(1.02562 0.142688 1.18838e-19)
(1.12094 0.166825 1.04621e-19)
(1.19137 0.185244 -9.86949e-20)
(1.23913 0.197724 0)
(1.26829 0.204826 1.52217e-19)
(1.2835 0.207539 -1.42625e-19)
(1.28912 0.206976 2.46935e-19)
(1.28873 0.204152 -1.124e-19)
(1.28496 0.199875 1.01493e-19)
(1.27955 0.194728 0)
(1.27356 0.189127 0)
(1.2675 0.183184 -1.37913e-19)
(1.26171 0.177094 0)
(0.0266299 -0.00412092 -1.1003e-19)
(0.112146 -0.00941197 -1.10157e-19)
(0.228419 -0.00239971 0)
(0.368396 0.014235 -9.62992e-20)
(0.523293 0.0390376 -2.60843e-19)
(0.682345 0.0698114 0)
(0.83412 0.103283 0)
(0.968648 0.135895 0)
(1.07926 0.164623 -1.18838e-19)
(1.16339 0.187517 1.07254e-19)
(1.22219 0.203857 -9.61553e-20)
(1.25941 0.213952 -8.74482e-20)
(1.27993 0.218768 -7.89523e-20)
(1.28867 0.219531 0)
(1.28983 0.217436 1.7368e-21)
(1.28659 0.213473 1.09173e-19)
(1.28113 0.208371 -9.54124e-20)
(1.27481 0.20263 8.47168e-20)
(1.26836 0.196579 7.52019e-20)
(1.2621 0.190251 1.374e-19)
(1.25619 0.184093 -1.20401e-19)
(0.0346536 -0.00442795 0)
(0.135972 -0.00827402 2.20098e-19)
(0.267315 0.00247843 2.17977e-21)
(0.420271 0.02404 1.90688e-19)
(0.584347 0.053962 2.62667e-19)
(0.747351 0.0890867 -7.9221e-20)
(0.897354 0.125391 -2.17047e-19)
(1.02509 0.159008 2.0775e-21)
(1.12555 0.187077 0)
(1.19819 0.208137 2.14637e-19)
(1.24594 0.222057 9.61613e-20)
(1.27371 0.229657 1.73339e-19)
(1.28692 0.232239 7.80793e-20)
(1.29047 0.231184 0)
(1.28823 0.227702 -2.55388e-21)
(1.28293 0.222717 -1.07442e-19)
(1.27632 0.216867 9.5422e-20)
(1.2694 0.210569 -2.51182e-21)
(1.26268 0.204071 -7.52092e-20)
(1.25631 0.197365 6.67549e-20)
(1.25032 0.191093 0)
(0.0435248 -0.00427308 5.84008e-20)
(0.161605 -0.00572945 0)
(0.308148 0.00957597 -1.02058e-19)
(0.473298 0.0365847 9.84568e-20)
(0.644896 0.0717158 -1.78409e-19)
(0.809648 0.110825 2.4564e-19)
(0.955679 0.149266 -7.53317e-20)
(1.07499 0.183082 2.01737e-19)
(1.16457 0.20979 0)
(1.22589 0.228543 -1.04785e-19)
(1.26344 0.239821 3.18016e-21)
(1.28298 0.244903 8.10792e-20)
(1.29015 0.245345 -1.51154e-19)
(1.28962 0.242609 -6.54636e-20)
(1.28484 0.237864 -1.18396e-19)
(1.27808 0.231945 0)
(1.27069 0.225394 -4.45404e-20)
(1.26341 0.218553 -4.05535e-20)
(1.25654 0.211597 0)
(1.25013 0.204513 6.15658e-20)
(1.24407 0.198071 -2.83862e-21)
(0.0531937 -0.00356738 -6.57897e-22)
(0.188806 -0.00159463 0)
(0.350412 0.0190643 -2.68768e-19)
(0.526686 0.0519339 5.02626e-20)
(0.703967 0.0922018 -1.51061e-21)
(0.868299 0.13478 -1.01417e-21)
(1.00845 0.174588 -7.51815e-20)
(1.11817 0.207822 3.29202e-21)
(1.1966 0.232561 1.73577e-21)
(1.24714 0.24865 -1.06812e-19)
(1.27553 0.257162 9.47524e-20)
(1.28806 0.259763 -8.38632e-20)
(1.29034 0.258182 7.41247e-20)
(1.28667 0.25389 6.65353e-20)
(1.28002 0.247981 1.14358e-19)
(1.27224 0.241187 -1.50331e-19)
(1.26436 0.23396 4.57516e-20)
(1.25688 0.226572 0)
(1.24995 0.21914 -6.72988e-20)
(1.24354 0.211669 6.0873e-20)
(1.23743 0.205004 -1.3457e-19)
(0.0635857 -0.00222605 6.04337e-20)
(0.217278 0.00428969 6.00976e-20)
(0.393536 0.0310637 1.6435e-19)
(0.579623 0.070082 0)
(0.760652 0.115256 9.17583e-20)
(0.922533 0.160669 0)
(1.05525 0.201046 -3.67918e-20)
(1.15464 0.232973 3.45918e-20)
(1.22206 0.255238 5.98827e-20)
(1.26261 0.268411 0)
(1.28295 0.274112 0)
(1.28964 0.274309 -3.96704e-20)
(1.28803 0.270823 2.32911e-21)
(1.28199 0.265084 -6.73554e-22)
(1.27402 0.258084 -1.77479e-21)
(1.26556 0.25045 3.87756e-22)
(1.25738 0.242552 0)
(1.2498 0.234605 3.65467e-20)
(1.24289 0.226674 -3.92047e-22)
(1.23652 0.218805 0)
(1.23038 0.211859 2.49042e-20)
(0.0746022 -0.000171853 0)
(0.246672 0.0120507 -6.00973e-20)
(0.436907 0.0456371 -5.5487e-20)
(0.631301 0.0909532 0)
(0.814133 0.140657 0)
(0.971753 0.188189 2.12127e-20)
(1.09586 0.228343 1.89361e-20)
(1.18461 0.258316 3.26402e-20)
(1.24147 0.277708 -8.8975e-20)
(1.27296 0.287807 5.29189e-20)
(1.28639 0.290709 0)
(1.28829 0.288598 -1.98052e-20)
(1.28366 0.28332 0)
(1.27586 0.276221 0)
(1.26697 0.26818 0)
(1.25809 0.259722 1.24179e-20)
(1.24976 0.251147 0)
(1.24218 0.242619 -1.76412e-20)
(1.23533 0.234165 -1.53356e-20)
(1.22904 0.225883 2.77705e-20)
(1.22292 0.218601 -1.25973e-20)
(0.0861218 0.00266146 0)
(0.276597 0.0217769 0)
(0.479887 0.0627858 0)
(0.680952 0.114406 0)
(0.863714 0.16814 1.15719e-20)
(1.01554 0.217027 -3.21097e-20)
(1.13023 0.256204 -1.89369e-20)
(1.20837 0.283666 8.09873e-21)
(1.25534 0.299884 2.19302e-20)
(1.2788 0.306826 -3.83226e-20)
(1.28639 0.306982 1.16516e-20)
(1.28445 0.302669 1.03592e-20)
(1.27752 0.295697 8.85729e-21)
(1.26847 0.287305 0)
(1.25897 0.278254 -6.26647e-21)
(1.24985 0.268976 1.74048e-20)
(1.2415 0.259709 0)
(1.234 0.250576 1.76429e-20)
(1.22727 0.241574 0)
(1.22109 0.23286 0)
(1.21503 0.225191 0)
(0.098003 0.00632601 0)
(0.306633 0.0335133 0)
(0.52184 0.0824486 0)
(0.72787 0.140239 0)
(0.908824 0.197405 -1.16242e-20)
(1.05361 0.246868 -1.03444e-20)
(1.15846 0.284375 -1.87995e-20)
(1.22629 0.308865 0)
(1.2642 0.321698 2.86943e-20)
(1.28067 0.325462 -1.27644e-20)
(1.28343 0.322949 -8.47628e-22)
(1.27847 0.316538 1.79708e-20)
(1.26983 0.307958 -8.59204e-21)
(1.25993 0.298322 0)
(1.25007 0.288277 6.00582e-21)
(1.24087 0.278171 4.92777e-21)
(1.23258 0.268193 0)
(1.22522 0.25843 1.58888e-20)
(1.21866 0.248857 0)
(1.21265 0.23969 0)
(1.2067 0.231587 0)
(0.110088 0.0108571 0)
(0.336343 0.0472576 -6.35259e-20)
(0.562145 0.104503 -5.83898e-20)
(0.771426 0.168201 0)
(0.949022 0.22813 0)
(1.08585 0.277406 2.12911e-20)
(1.18071 0.312626 1.88006e-20)
(1.23876 0.333775 -3.15132e-20)
(1.26854 0.343091 2.82615e-20)
(1.27903 0.3437 -7.63114e-22)
(1.27787 0.338613 0)
(1.2706 0.330201 -1.87081e-20)
(1.26075 0.320083 0)
(1.25031 0.309238 0)
(1.24028 0.298205 0)
(1.23112 0.287261 9.44657e-21)
(1.22298 0.27655 0)
(1.21582 0.266133 -1.58904e-20)
(1.20949 0.255967 1.28884e-20)
(1.20369 0.246319 -2.32161e-20)
(1.19793 0.237744 1.05076e-20)
(0.122206 0.016271 6.56685e-20)
(0.365285 0.0629594 6.35258e-20)
(0.60022 0.128771 1.75614e-19)
(0.811084 0.197997 0)
(0.983992 0.25998 9.51567e-20)
(1.11223 0.308342 0)
(1.19723 0.340741 3.56047e-20)
(1.24621 0.358271 -3.34785e-20)
(1.2688 0.364003 5.47066e-20)
(1.27428 0.361517 0)
(1.27002 0.353956 0)
(1.26103 0.343634 3.39756e-20)
(1.25037 0.332035 -2.61428e-21)
(1.23965 0.320007 -1.03567e-19)
(1.22962 0.307986 1.89687e-21)
(1.2206 0.29619 3.79193e-20)
(1.21268 0.284728 0)
(1.20578 0.273633 -2.77706e-20)
(1.19973 0.26285 4.9897e-20)
(1.1942 0.25269 0)
(1.18869 0.243626 -1.81225e-20)