/*--------------------------------*- C++ -*----------------------------------*\
  =========                 |
  \\      /  F ield         | OpenFOAM: The Open Source CFD Toolbox
   \\    /   O peration     | Website:  https://openfoam.org
    \\  /    A nd           | Version:  7
     \\/     M anipulation  |
\*---------------------------------------------------------------------------*/
FoamFile
{
    version     2.0;
    format      ascii;
    class       surfaceScalarField;
    location    "45";
    object      phi;
}
// * * * * * * * * * * * * * * * * * * * * * * * * * * * * * * * * * * * * * //

dimensions      [0 3 -1 0 0 0 0];

internalField   nonuniform List<scalar> 
79480
(
-7.45072e-07
7.56402e-07
-1.13298e-08
-2.86965e-06
2.15145e-06
-2.68713e-08
-6.32279e-06
3.48923e-06
-3.60844e-08
-1.10516e-05
4.76783e-06
-3.89868e-08
-1.7001e-05
5.98504e-06
-3.57115e-08
-2.41137e-05
7.13921e-06
-2.64779e-08
-3.23313e-05
8.22921e-06
-1.1572e-08
-4.15944e-05
9.25444e-06
8.68036e-09
-5.18432e-05
1.02148e-05
3.3948e-08
-6.30176e-05
1.11105e-05
6.39323e-08
-7.50586e-05
1.19425e-05
9.84073e-08
-8.79076e-05
1.27118e-05
1.37258e-07
-0.000101508
1.34196e-05
1.80512e-07
-0.000115803
1.40674e-05
2.28371e-07
-0.000130742
1.46569e-05
2.81221e-07
-0.000146271
1.51897e-05
3.39644e-07
-0.000162343
1.5668e-05
4.04407e-07
-0.000178914
1.60944e-05
4.76456e-07
-0.000195944
1.64726e-05
5.56887e-07
-0.000213399
1.6808e-05
6.4693e-07
-0.000231255
1.71089e-05
7.47927e-07
-0.000249503
1.73868e-05
8.61318e-07
-0.00026815
1.7658e-05
9.88632e-07
-0.000287226
1.79441e-05
1.13151e-06
-0.00030679
1.82726e-05
1.2917e-06
-0.000326937
1.86761e-05
1.47113e-06
-0.000347799
1.91902e-05
1.67193e-06
-0.000369544
1.98478e-05
1.89643e-06
-0.000392368
2.06768e-05
2.14727e-06
2.17249e-05
2.42778e-06
-0.00041652
-7.39749e-07
1.49615e-06
-2.84965e-06
4.26135e-06
-6.27952e-06
6.91909e-06
-1.09771e-05
9.46543e-06
-1.68878e-05
1.18957e-05
-2.39548e-05
1.42062e-05
-3.21199e-05
1.63944e-05
-4.1324e-05
1.84585e-05
-5.15072e-05
2.0398e-05
-6.26096e-05
2.2213e-05
-7.45718e-05
2.39047e-05
-8.7335e-05
2.5475e-05
-0.000100842
2.69264e-05
-0.000115036
2.82619e-05
-0.000129864
2.94849e-05
-0.000145274
3.05991e-05
-0.000161215
3.16092e-05
-0.000177642
3.2521e-05
-0.000194512
3.33426e-05
-0.000211789
3.40857e-05
-0.000229448
3.47671e-05
-0.000247472
3.54108e-05
-0.000265864
3.60503e-05
-0.00028465
3.673e-05
-0.000303884
3.75064e-05
-0.000323655
3.84472e-05
-0.000344092
3.96272e-05
-0.00036536
4.11161e-05
-0.000387658
4.29746e-05
4.53038e-05
-0.000411237
-7.29097e-07
2.22525e-06
-2.80962e-06
6.34188e-06
-6.19284e-06
1.03023e-05
-1.08278e-05
1.41003e-05
-1.66607e-05
1.77286e-05
-2.36358e-05
2.11813e-05
-3.16953e-05
2.4454e-05
-4.07805e-05
2.75437e-05
-5.08316e-05
3.04491e-05
-6.17886e-05
3.31699e-05
-7.35916e-05
3.57077e-05
-8.61814e-05
3.80648e-05
-9.94996e-05
4.02446e-05
-0.000113489
4.22513e-05
-0.000128094
4.40897e-05
-0.00014326
4.57651e-05
-0.000158935
4.72841e-05
-0.000175069
4.86551e-05
-0.000191616
4.98895e-05
-0.000208534
5.10039e-05
-0.000225789
5.20227e-05
-0.000243359
5.29808e-05
-0.000261236
5.39274e-05
-0.000279435
5.49288e-05
-0.000297999
5.60704e-05
-0.000317008
5.74556e-05
-0.000336581
5.9201e-05
-0.000356883
6.14174e-05
-0.00037811
6.42025e-05
6.77156e-05
-0.000400522
-7.13298e-07
2.93855e-06
-2.75021e-06
8.37878e-06
-6.0641e-06
1.36162e-05
-1.06058e-05
1.8642e-05
-1.6323e-05
2.34458e-05
-2.3161e-05
2.80193e-05
-3.1063e-05
3.2356e-05
-3.99705e-05
3.64512e-05
-4.98239e-05
4.03025e-05
-6.0563e-05
4.3909e-05
-7.21273e-05
4.7272e-05
-8.44566e-05
5.03941e-05
-9.74913e-05
5.32792e-05
-0.000111172
5.59322e-05
-0.000125441
5.83586e-05
-0.000140241
6.05647e-05
-0.000155515
6.25582e-05
-0.000171208
6.43486e-05
-0.000187269
6.59497e-05
-0.000203646
6.73811e-05
-0.000220296
6.86727e-05
-0.000237183
6.98682e-05
-0.000254286
7.10304e-05
-0.000271603
7.22458e-05
-0.00028916
7.36275e-05
-0.000307021
7.53163e-05
-0.000325294
7.74741e-05
-0.000344136
8.02593e-05
-0.000363748
8.38139e-05
8.83643e-05
-0.000384396
-6.92622e-07
3.63117e-06
-2.67238e-06
1.03585e-05
-5.89532e-06
1.68392e-05
-1.03145e-05
2.30612e-05
-1.58794e-05
2.90108e-05
-2.25369e-05
3.46767e-05
-3.02308e-05
4.00499e-05
-3.89034e-05
4.51238e-05
-4.84951e-05
4.98941e-05
-5.89452e-05
5.43592e-05
-7.01926e-05
5.85194e-05
-8.21756e-05
6.23771e-05
-9.48327e-05
6.59363e-05
-0.000108102
6.92019e-05
-0.000121923
7.21794e-05
-0.000136234
7.48753e-05
-0.000150973
7.7297e-05
-0.000166078
7.94542e-05
-0.000181489
8.13606e-05
-0.000197145
8.30371e-05
-0.000212988
8.45161e-05
-0.000228967
8.58473e-05
-0.000245041
8.71037e-05
-0.000261184
8.83894e-05
-0.000277401
8.98441e-05
-0.000293731
9.16467e-05
-0.000310266
9.40092e-05
-0.000327154
9.71472e-05
-0.000344598
0.000101257
0.000106648
-0.000362882
-6.67427e-07
4.2986e-06
-2.57742e-06
1.22685e-05
-5.68916e-06
1.99509e-05
-9.95827e-06
2.73303e-05
-1.53364e-05
3.43889e-05
-2.17718e-05
4.11121e-05
-2.92095e-05
4.74876e-05
-3.75921e-05
5.35064e-05
-4.686e-05
5.9162e-05
-5.6952e-05
6.44512e-05
-6.78058e-05
6.93731e-05
-7.9358e-05
7.39293e-05
-9.15446e-05
7.8123e-05
-0.000104301
8.19585e-05
-0.000117562
8.54405e-05
-0.000131262
8.85746e-05
-0.000145331
9.13666e-05
-0.000159701
9.38244e-05
-0.000174301
9.59599e-05
-0.000189056
9.77922e-05
-0.000203893
9.93532e-05
-0.00021874
0.000100694
-0.000233531
0.000101895
-0.000248214
0.000103072
-0.00026276
0.00010439
-0.000277181
0.000106067
-0.000291541
0.000108369
-0.000305976
0.000111583
-0.000320692
0.000115974
0.000121955
-0.000335999
-6.38148e-07
4.93674e-06
-2.4669e-06
1.40973e-05
-5.44888e-06
2.29329e-05
-9.54251e-06
3.14239e-05
-1.47017e-05
3.95481e-05
-2.08761e-05
4.72865e-05
-2.8012e-05
5.46235e-05
-3.60521e-05
6.15465e-05
-4.49367e-05
6.80466e-05
-5.46037e-05
7.41182e-05
-6.49892e-05
7.97586e-05
-7.60277e-05
8.49678e-05
-8.76524e-05
8.97477e-05
-9.97949e-05
9.4101e-05
-0.000112385
9.80309e-05
-0.000125351
0.00010154
-0.000138617
0.000104633
-0.000152104
0.000107312
-0.00016573
0.000109585
-0.000179405
0.000111467
-0.000193037
0.000112985
-0.00020653
0.000114187
-0.000219789
0.000115154
-0.000232728
0.000116011
-0.000245279
0.000116941
-0.000257412
0.0001182
-0.000269159
0.000120116
-0.000280637
0.000123061
-0.000292054
0.00012739
0.000133652
-0.000303751
-6.05295e-07
5.54204e-06
-2.34264e-06
1.58346e-05
-5.17829e-06
2.57685e-05
-9.07349e-06
3.53191e-05
-1.39843e-05
4.44589e-05
-1.9862e-05
5.31642e-05
-2.66535e-05
6.1415e-05
-3.43018e-05
6.91948e-05
-4.27464e-05
7.64913e-05
-5.19241e-05
8.32959e-05
-6.1769e-05
8.96035e-05
-7.22129e-05
9.54117e-05
-8.31854e-05
0.00010072
-9.46139e-05
0.000105529
-0.000106423
0.00010984
-0.000118533
0.00011365
-0.00013086
0.00011696
-0.000143316
0.000119768
-0.000155803
0.000122073
-0.000168218
0.000123882
-0.000180445
0.000125213
-0.000192362
0.000126105
-0.000203842
0.000126634
-0.000214755
0.000126924
-0.000224988
0.000127174
-0.00023446
0.000127672
-0.000243156
0.000128812
-0.000251165
0.00013107
-0.000258692
0.000134918
0.000141074
-0.000266113
-5.69441e-07
6.11148e-06
-2.20672e-06
1.74719e-05
-4.88166e-06
2.84435e-05
-8.55827e-06
3.89957e-05
-1.31946e-05
4.90952e-05
-1.87431e-05
5.87128e-05
-2.51512e-05
6.78231e-05
-3.23617e-05
7.64053e-05
-4.0313e-05
8.44426e-05
-4.89402e-05
9.19231e-05
-5.81748e-05
9.88381e-05
-6.79453e-05
0.000105182
-7.81771e-05
0.000110952
-8.87921e-05
0.000116144
-9.97085e-05
0.000120756
-0.000110839
0.000124781
-0.000122092
0.000128213
-0.000133365
0.000131041
-0.000144548
0.000133256
-0.000155517
0.000134851
-0.000166137
0.000135832
-0.000176254
0.000136222
-0.000185704
0.000136083
-0.000194311
0.000135531
-0.000201905
0.000134768
-0.000208342
0.000134109
-0.000213545
0.000134015
-0.000217563
0.000135088
-0.000220589
0.000137944
0.000143501
-0.000223016
-5.31215e-07
6.64269e-06
-2.0614e-06
1.90021e-05
-4.56371e-06
3.09458e-05
-8.0046e-06
4.24366e-05
-1.23437e-05
5.34344e-05
-1.75344e-05
6.39035e-05
-2.35241e-05
7.38127e-05
-3.02546e-05
8.31358e-05
-3.7663e-05
9.1851e-05
-4.56817e-05
9.99418e-05
-5.42392e-05
0.000107396
-6.32597e-05
0.000114203
-7.26635e-05
0.000120356
-8.23665e-05
0.000125847
-9.22794e-05
0.000130669
-0.000102307
0.000134808
-0.000112345
0.000138251
-0.00012228
0.000140976
-0.000131986
0.000142961
-0.00014132
0.000144186
-0.000150122
0.000144634
-0.000158208
0.000144308
-0.000165371
0.000143247
-0.000171386
0.000141547
-0.000176018
0.0001394
-0.000179045
0.000137136
-0.000180309
0.000135279
-0.000179801
0.000134579
-0.00017769
0.000135833
0.000140151
-0.00017434
-4.91288e-07
7.13398e-06
-1.90907e-06
2.04199e-05
-4.22945e-06
3.32662e-05
-7.42078e-06
4.56279e-05
-1.14438e-05
5.74574e-05
-1.6252e-05
6.87117e-05
-2.17922e-05
7.93529e-05
-2.80047e-05
8.93483e-05
-3.48243e-05
9.86706e-05
-4.21803e-05
0.000107298
-4.99968e-05
0.000115212
-5.8193e-05
0.000122399
-6.66832e-05
0.000128846
-7.5376e-05
0.00013454
-8.41733e-05
0.000139466
-9.29696e-05
0.000143605
-0.00010165
0.000146931
-0.000110086
0.000149412
-0.000118135
0.00015101
-0.000125634
0.000151685
-0.000132396
0.000151396
-0.000138205
0.000150118
-0.000142813
0.000147854
-0.000145937
0.000144671
-0.000147271
0.000140734
-0.000146505
0.000136369
-0.000143377
0.000132152
-0.000137792
0.000128995
-0.000129903
0.000127944
0.000130156
-0.000119908
-4.50363e-07
7.58434e-06
-1.75228e-06
2.17218e-05
-3.8841e-06
3.5398e-05
-6.81542e-06
4.85592e-05
-1.05073e-05
6.11493e-05
-1.49126e-05
7.3117e-05
-1.99766e-05
8.44169e-05
-2.56375e-05
9.50092e-05
-3.18265e-05
0.00010486
-3.84689e-05
0.00011394
-4.54836e-05
0.000122227
-5.27837e-05
0.000129699
-6.02758e-05
0.000136338
-6.786e-05
0.000142124
-7.54281e-05
0.000147034
-8.2863e-05
0.00015104
-9.00358e-05
0.000154103
-9.68032e-05
0.000156179
-0.000103004
0.000157211
-0.000108452
0.000157134
-0.000112935
0.000155879
-0.000116203
0.000153385
-0.000117962
0.000149614
-0.000117874
0.000144582
-0.000115553
0.000138413
-0.000110589
0.000131405
-0.000102597
0.000124159
-9.13458e-05
0.000117743
-7.70603e-05
0.000113658
0.000112729
-5.96331e-05
-4.09153e-07
7.9935e-06
-1.59356e-06
2.29062e-05
-3.53298e-06
3.73374e-05
-6.1973e-06
5.12235e-05
-9.5469e-06
6.44989e-05
-1.35331e-05
7.71032e-05
-1.80988e-05
8.89826e-05
-2.31785e-05
0.000100089
-2.86994e-05
0.000110381
-3.45811e-05
0.000119822
-4.07363e-05
0.000128382
-4.70703e-05
0.000136033
-5.34809e-05
0.000142749
-5.98577e-05
0.000148501
-6.60807e-05
0.000153257
-7.2019e-05
0.000156978
-7.7528e-05
0.000159612
-8.24466e-05
0.000161098
-8.65923e-05
0.000161357
-8.97564e-05
0.000160298
-9.16963e-05
0.000157819
-9.2127e-05
0.000153816
-9.07112e-05
0.000148198
-8.70501e-05
0.000140921
-8.06788e-05
0.000132041
-7.10784e-05
0.000121805
-5.77198e-05
0.000110801
-4.01299e-05
0.000100154
-1.81891e-05
9.17172e-05
8.93274e-05
5.21255e-06
-3.68372e-07
8.36187e-06
-1.43548e-06
2.39733e-05
-3.18137e-06
3.90833e-05
-5.5751e-06
5.36173e-05
-8.57524e-06
6.7499e-05
-1.21304e-05
8.06584e-05
-1.61797e-05
9.30318e-05
-2.06531e-05
0.000104562
-2.54721e-05
0.0001152
-3.05496e-05
0.000124899
-3.57903e-05
0.000133623
-4.10902e-05
0.000141333
-4.63364e-05
0.000147995
-5.14059e-05
0.000153571
-5.61647e-05
0.000158016
-6.04653e-05
0.000161279
-6.41448e-05
0.000163292
-6.70209e-05
0.000163974
-6.88874e-05
0.000163223
-6.95083e-05
0.000160919
-6.86097e-05
0.00015692
-6.58695e-05
0.000151076
-6.09049e-05
0.000143233
-5.3258e-05
0.000133274
-4.23834e-05
0.000121167
-2.76469e-05
0.000107068
-8.36388e-06
9.15175e-05
1.60882e-05
7.57014e-05
4.5988e-05
6.18175e-05
5.48623e-05
8.04531e-05
-3.28709e-07
8.69058e-06
-1.28047e-06
2.49251e-05
-2.83432e-06
4.06372e-05
-4.95712e-06
5.57401e-05
-7.60432e-06
7.01462e-05
-1.07204e-05
8.37745e-05
-1.42394e-05
9.65508e-05
-1.80853e-05
0.000108408
-2.21723e-05
0.000119287
-2.64052e-05
0.000129132
-3.06787e-05
0.000137896
-3.48778e-05
0.000145532
-3.88766e-05
0.000151994
-4.25371e-05
0.000157231
-4.57081e-05
0.000161187
-4.82227e-05
0.000163793
-4.98958e-05
0.000164965
-5.052e-05
0.000164598
-4.98609e-05
0.000162564
-4.7651e-05
0.000158709
-4.35806e-05
0.00015285
-3.72872e-05
0.000144782
-2.83402e-05
0.000134286
-1.62229e-05
0.000121157
-3.10678e-07
0.000105255
2.01421e-05
8.66156e-05
4.59952e-05
6.56645e-05
7.80918e-05
4.36048e-05
0.000116887
2.30218e-05
9.70545e-06
0.000162044
-2.90806e-07
8.98138e-06
-1.13082e-06
2.57651e-05
-2.4965e-06
4.20028e-05
-4.35102e-06
5.75946e-05
-6.64513e-06
7.24403e-05
-9.31768e-06
8.6447e-05
-1.22961e-05
9.95292e-05
-1.54966e-05
0.000111609
-1.88248e-05
0.000122615
-2.2175e-05
0.000132482
-2.54304e-05
0.000141152
-2.84625e-05
0.000148564
-3.11297e-05
0.000154661
-3.32762e-05
0.000159378
-3.47304e-05
0.000162641
-3.53017e-05
0.000164365
-3.47784e-05
0.000164442
-3.29228e-05
0.000162742
-2.94667e-05
0.000159108
-2.41047e-05
0.000153347
-1.64855e-05
0.000145231
-6.20018e-06
0.000134497
7.23338e-06
0.000120853
2.4392e-05
0.000103999
4.59746e-05
8.36721e-05
7.28355e-05
5.97547e-05
0.000105999
3.25008e-05
0.000146564
3.03967e-06
0.000195376
-2.57898e-05
-4.72225e-05
0.000252304
-2.55238e-07
9.23662e-06
-9.88524e-07
2.64984e-05
-2.17201e-06
4.31863e-05
-3.76343e-06
5.9186e-05
-5.70716e-06
7.4384e-05
-7.9347e-06
8.86746e-05
-1.03651e-05
0.00010196
-1.29052e-05
0.000114149
-1.54497e-05
0.000125159
-1.78808e-05
0.000134914
-2.00678e-05
0.000143339
-2.18658e-05
0.000150362
-2.31149e-05
0.00015591
-2.3638e-05
0.000159901
-2.32386e-05
0.000162242
-2.16984e-05
0.000162824
-1.87731e-05
0.000161516
-1.41887e-05
0.000158158
-7.63583e-06
0.000152555
1.23652e-06
0.000144474
1.28301e-05
0.000133637
2.76081e-05
0.000119719
4.61113e-05
0.00010235
6.89801e-05
8.11297e-05
9.69861e-05
5.56661e-05
0.000131077
2.56639e-05
0.000172426
-8.84816e-06
0.000222395
-4.69296e-05
0.000282233
-8.56277e-05
-0.000117269
0.00035228
-2.22485e-07
9.45911e-06
-8.55232e-07
2.71311e-05
-1.86414e-06
4.41952e-05
-3.19964e-06
6.05215e-05
-4.79784e-06
7.59822e-05
-6.58103e-06
9.04578e-05
-8.45799e-06
0.000103837
-1.03241e-05
0.000116015
-1.20613e-05
0.000126896
-1.35371e-05
0.000136389
-1.46042e-05
0.000144406
-1.50988e-05
0.000150857
-1.48389e-05
0.00015565
-1.36222e-05
0.000158684
-1.1223e-05
0.000159843
-7.38921e-06
0.00015899
-1.83806e-06
0.000155965
5.74846e-06
0.000150571
1.57292e-05
0.000142575
2.85107e-05
0.000131693
4.45553e-05
0.000117593
6.43918e-05
9.98823e-05
8.86296e-05
7.81118e-05
0.00011798
5.17796e-05
0.000153286
2.036e-05
0.000195575
-1.66249e-05
0.000246136
-5.94092e-05
0.000306562
-0.000107356
0.000378505
-0.000157571
-0.000201838
0.000463074
-1.92906e-07
9.65201e-06
-7.32131e-07
2.76703e-05
-1.57521e-06
4.50383e-05
-2.66322e-06
6.16095e-05
-3.92199e-06
7.7241e-05
-5.26258e-06
9.17984e-05
-6.58143e-06
0.000105155
-7.76034e-06
0.000117194
-8.6659e-06
0.000127802
-9.14864e-06
0.000136872
-9.04167e-06
0.000144299
-8.15881e-06
0.000149974
-6.29231e-06
0.000153784
-3.20993e-06
0.000155602
1.34842e-06
0.000155284
7.67475e-06
0.000152664
1.60976e-05
0.000147542
2.69873e-05
0.000139682
4.0762e-05
0.0001288
5.78944e-05
0.000114561
7.892e-05
9.65672e-05
0.000104446
7.43566e-05
0.000135163
4.73948e-05
0.000171863
1.50798e-05
0.000215464
-2.32415e-05
0.00026706
-6.82214e-05
0.000328015
-0.000120364
0.000400087
-0.000179428
0.000485271
-0.000242754
-0.000302303
0.000585736
-1.66709e-07
9.81872e-06
-6.19849e-07
2.81235e-05
-1.30632e-06
4.57248e-05
-2.15567e-06
6.24589e-05
-3.08129e-06
7.81666e-05
-3.98082e-06
9.26979e-05
-4.73615e-06
0.000105911
-5.21305e-06
0.000117671
-5.26032e-06
0.000127849
-4.70849e-06
0.00013632
-3.36783e-06
0.000142958
-1.02606e-06
0.000147632
2.55473e-06
0.000150203
7.64167e-06
0.000150515
1.45353e-05
0.000148391
2.35743e-05
0.000143625
3.51409e-05
0.000135976
4.9667e-05
0.000125156
6.76404e-05
0.000110826
8.96116e-05
9.25893e-05
0.000116202
6.9977e-05
0.00014811
4.24485e-05
0.000186122
9.38285e-06
0.000231122
-2.99201e-05
0.00028411
-7.62293e-05
0.000346235
-0.000130347
0.000418891
-0.000193019
0.000503908
-0.000264445
0.000603491
-0.000342338
-0.000419904
0.000721093
-1.43932e-07
9.96265e-06
-5.18366e-07
2.84979e-05
-1.05718e-06
4.62636e-05
-1.67606e-06
6.30777e-05
-2.27371e-06
7.87643e-05
-2.73202e-06
9.31562e-05
-2.91591e-06
0.000106095
-2.67255e-06
0.000117427
-1.83004e-06
0.000127007
-1.95688e-07
0.000134686
2.44661e-06
0.000140316
6.33954e-06
0.000143739
1.17561e-05
0.000144786
1.90038e-05
0.000143267
2.84302e-05
0.000138964
4.04282e-05
0.000131627
5.54421e-05
0.000120962
7.39749e-05
0.000106623
9.65945e-05
8.82069e-05
0.000123941
6.52429e-05
0.000156733
3.71853e-05
0.000195773
3.40839e-06
0.000241953
-3.67979e-05
0.000296261
-8.42275e-05
0.00035978
-0.000139749
0.000433712
-0.000204279
0.000519431
-0.000278738
0.00061873
-0.000363745
0.000733834
-0.000457441
-0.000555607
0.000869537
-1.24415e-07
1.00871e-05
-4.26934e-07
2.88004e-05
-8.25899e-07
4.66626e-05
-1.22076e-06
6.34726e-05
-1.49312e-06
7.90366e-05
-1.50666e-06
9.31697e-05
-1.10668e-06
0.000105695
-1.18904e-07
0.00011644
1.65222e-06
0.000125236
4.42635e-06
0.000131912
8.45014e-06
0.000136292
1.40013e-05
0.000138188
2.13931e-05
0.000137395
3.098e-05
0.00013368
4.31633e-05
0.000126781
5.83981e-05
0.000116392
7.71998e-05
0.00010216
0.000100152
8.36709e-05
0.000127912
6.04468e-05
0.000161219
3.19352e-05
0.0002009
-2.49558e-06
0.00024787
-4.3561e-05
0.000303132
-9.20601e-05
0.000367777
-0.000148872
0.000442972
-0.000214944
0.000529954
-0.000291261
0.000630042
-0.000378826
0.000744869
-0.000478572
0.000876462
-0.000589034
-0.000709926
0.00103078
-1.07785e-07
1.01949e-05
-3.44013e-07
2.90367e-05
-6.0892e-07
4.69275e-05
-7.83234e-07
6.36469e-05
-7.28942e-07
7.89824e-05
-2.88859e-07
9.27297e-05
7.14012e-07
0.000104692
2.47851e-06
0.000114675
5.22763e-06
0.000122486
9.21166e-06
0.000127928
1.47123e-05
0.000130791
2.20475e-05
0.000130853
3.1577e-05
0.000127865
4.37085e-05
0.000121549
5.8905e-05
0.000111585
7.76915e-05
9.76059e-05
0.000100663
7.91881e-05
0.000128493
5.58414e-05
0.000161937
2.70029e-05
0.000201841
-7.96884e-06
0.000249143
-4.97978e-05
0.000304872
-9.92899e-05
0.00037014
-0.000157329
0.000446131
-0.000224863
0.000534074
-0.000302887
0.000635215
-0.000392402
0.000750775
-0.000494386
0.000882093
-0.00060989
0.00103084
-0.000737777
-0.000882698
0.00120361
-9.34473e-08
1.02883e-05
-2.6724e-07
2.92105e-05
-4.00901e-07
4.70611e-05
-3.53853e-07
6.35999e-05
3.42195e-08
7.85943e-05
9.4375e-07
9.18201e-05
2.57752e-06
0.000103058
5.16223e-06
0.00011209
8.95191e-06
0.000118697
1.4232e-05
0.000122648
2.13243e-05
0.000123699
3.05927e-05
0.000121585
4.24496e-05
0.000116008
5.73634e-05
0.000106635
7.58658e-05
9.30821e-05
9.85604e-05
7.49113e-05
0.00012613
5.16187e-05
0.000159343
2.26281e-05
0.000199061
-1.2715e-05
0.000246239
-5.51467e-05
0.000301925
-0.000105484
0.000367253
-0.000164618
0.000443427
-0.000233502
0.000531692
-0.000313128
0.000633301
-0.000404496
0.000749453
-0.000508554
0.000881221
-0.000626154
0.0010295
-0.000758171
0.00119555
-0.000903828
-0.00107282
0.00138567
-8.05783e-08
1.03689e-05
-1.93421e-07
2.93233e-05
-1.94753e-07
4.70625e-05
7.99777e-08
6.33251e-05
8.15801e-07
7.78585e-05
2.22009e-06
9.04158e-05
4.52401e-06
0.000100754
7.98588e-06
0.000108629
1.28951e-05
0.000113788
1.9577e-05
0.000115966
2.83989e-05
0.000114877
3.97767e-05
0.000110207
5.41822e-05
0.000101603
7.21515e-05
8.86654e-05
9.4293e-05
7.09406e-05
0.000121296
4.79087e-05
0.000153936
1.89784e-05
0.000193084
-1.65198e-05
0.000239706
-5.93369e-05
0.000294862
-0.000110303
0.000359701
-0.000170322
0.000435439
-0.000240356
0.000523337
-0.0003214
0.000624655
-0.000414446
0.000740594
-0.000520435
0.000872227
-0.000640187
0.0010204
-0.000774327
0.00118541
-0.000923184
0.00136823
-0.00108665
-0.00127794
0.00157336
-6.81389e-08
1.0437e-05
-1.18552e-07
2.93737e-05
1.85695e-08
4.69253e-05
5.33784e-07
6.28099e-05
1.64047e-06
7.67518e-05
3.57539e-06
8.84809e-05
6.60192e-06
9.77276e-05
1.10139e-05
0.000104217
1.71407e-05
0.000107661
2.53526e-05
0.000107754
3.60682e-05
0.000104161
4.97617e-05
9.65133e-05
6.69713e-05
8.4393e-05
8.83077e-05
6.7329e-05
0.000114462
4.47858e-05
0.000146215
1.61558e-05
0.000184441
-1.92467e-05
0.000230109
-6.21883e-05
0.000284287
-0.000113515
0.000348128
-0.000174144
0.000422855
-0.000245049
0.000509731
-0.000327233
0.00061002
-0.000421689
0.000724922
-0.000529347
0.000855495
-0.000651009
0.00100256
-0.000787256
0.00116665
-0.00093841
0.00134732
-0.00110385
0.00154549
-0.00128482
-0.00149421
0.00176175
-5.49138e-08
1.04919e-05
-3.80271e-08
2.93568e-05
2.48721e-07
4.66386e-05
1.02562e-06
6.2033e-05
2.53622e-06
7.52412e-05
5.05026e-06
8.59669e-05
8.86705e-06
9.39108e-05
1.43203e-05
9.87634e-05
2.17838e-05
0.000100197
3.16786e-05
9.7859e-05
4.44803e-05
9.13597e-05
6.0728e-05
8.02656e-05
8.10326e-05
6.40885e-05
0.000106085
4.22763e-05
0.000136666
1.42053e-05
0.000173648
-2.08262e-05
0.000218002
-6.36009e-05
0.000270794
-0.00011498
0.000333176
-0.000175897
0.000406368
-0.000247337
0.000491631
-0.000330312
0.00059022
-0.000425822
0.000703324
-0.000534793
0.000831988
-0.000658011
0.000977014
-0.000796034
0.00113884
-0.000949085
0.00131751
-0.00111708
0.00151184
-0.00129818
0.00172289
-0.00149587
-0.00171614
0.00194483
-3.95012e-08
1.05314e-05
5.34546e-08
2.92639e-05
5.07904e-07
4.61841e-05
1.5758e-06
6.09651e-05
3.53445e-06
7.32825e-05
6.68984e-06
8.28115e-05
1.13811e-05
8.92196e-05
1.79861e-05
9.21584e-05
2.69284e-05
9.1255e-05
3.8685e-05
8.61024e-05
5.37947e-05
7.625e-05
7.28671e-05
6.11932e-05
9.65913e-05
4.03643e-05
0.000125744
1.31239e-05
0.000161194
-2.1245e-05
0.000203908
-6.35405e-05
0.000254947
-0.000114639
0.000315455
-0.000175488
0.000386645
-0.000247086
0.000469765
-0.000330457
0.000566056
-0.000426604
0.000676691
-0.000536456
0.00080269
-0.000660793
0.000944833
-0.000800154
0.00110354
-0.000954742
0.00127875
-0.0011243
0.00146984
-0.00130816
0.00167497
-0.00150331
0.00189503
-0.00171593
-0.00193682
0.0021157
-2.03844e-08
1.05518e-05
1.61621e-07
2.90819e-05
8.08317e-07
4.55374e-05
2.20604e-06
5.95674e-05
4.6688e-06
7.08198e-05
8.54233e-06
7.8938e-05
1.42096e-05
8.35524e-05
2.20972e-05
8.42707e-05
3.26836e-05
8.06686e-05
4.6507e-05
7.2279e-05
6.41749e-05
5.85822e-05
8.63723e-05
3.89958e-05
0.00011387
1.28662e-05
0.000147532
-2.05379e-05
0.000188316
-6.20287e-05
0.000237272
-0.000112497
0.000295536
-0.000172903
0.000364305
-0.000244258
0.000444814
-0.000327595
0.000538284
-0.000423927
0.000645862
-0.000534182
0.000768543
-0.000659137
0.000907073
-0.000799323
0.00106185
-0.000954927
0.00123279
-0.00112569
0.00141927
-0.00131077
0.00161991
-0.00150881
0.00183257
-0.00171597
0.00205607
-0.00193943
-0.00214788
0.00226714
4.01918e-09
1.05478e-05
2.92427e-07
2.87935e-05
1.16293e-06
4.46669e-05
2.9389e-06
5.77914e-05
5.97403e-06
6.77846e-05
1.06574e-05
7.42546e-05
1.74198e-05
7.679e-05
2.67412e-05
7.49493e-05
3.91596e-05
6.82502e-05
5.52795e-05
5.61591e-05
7.57812e-05
3.80805e-05
0.000101429
1.33481e-05
0.000133077
-1.87818e-05
0.000171673
-5.91338e-05
0.000218255
-0.000108611
0.000273945
-0.000168186
0.000339925
-0.000238883
0.00041741
-0.000321743
0.000507601
-0.000417786
0.000611619
-0.000527945
0.000730428
-0.000652991
0.000864739
-0.000793448
0.00101491
-0.00094949
0.00118082
-0.00112084
0.00136183
-0.00130669
0.00155668
-0.00150563
0.00176341
-0.00171554
0.0019802
-0.00193276
0.00220163
-0.00216087
-0.00234087
0.00239461
3.52956e-08
1.05125e-05
4.51819e-07
2.83769e-05
1.58475e-06
4.3534e-05
3.79696e-06
5.55792e-05
7.48487e-06
6.40967e-05
1.30843e-05
6.86551e-05
2.1078e-05
6.87963e-05
3.20035e-05
6.40238e-05
4.64625e-05
5.37911e-05
6.51299e-05
3.74917e-05
8.87619e-05
1.44485e-05
0.000118203
-1.60925e-05
0.000154387
-5.49662e-05
0.00019834
-0.000103087
0.000251166
-0.000161437
0.000314032
-0.000231052
0.000388133
-0.000312984
0.000474647
-0.000408258
0.000574674
-0.000517813
0.000689149
-0.00064242
0.000818751
-0.000782593
0.000963797
-0.000938493
0.00112413
-0.00110983
0.00129906
-0.00129577
0.00148726
-0.00149489
0.00168684
-0.00170521
0.00189531
-0.00192401
0.00211111
-0.00214856
0.00232862
-0.00237837
-0.00258436
0.00257212
7.49957e-08
1.04375e-05
6.45608e-07
2.78063e-05
2.08637e-06
4.20932e-05
4.80206e-06
5.28635e-05
9.23469e-06
5.96641e-05
1.58703e-05
6.20195e-05
2.52469e-05
5.94197e-05
3.79637e-05
5.1307e-05
5.46897e-05
3.70652e-05
7.61724e-05
1.6009e-05
0.000103245
-1.26237e-05
0.000136828
-4.96758e-05
0.000177932
-9.60698e-05
0.000227643
-0.000152798
0.000287111
-0.000220905
0.000357513
-0.000301453
0.000440007
-0.000395478
0.000535673
-0.000503924
0.000645425
-0.000627565
0.000769919
-0.000766914
0.000909447
-0.000922121
0.00106383
-0.00109287
0.00123231
-0.00127831
0.00141354
-0.001477
0.00160554
-0.00168689
0.00180579
-0.00190546
0.00201142
-0.00212964
0.00221997
-0.0023571
0.00242671
-0.00258511
-0.0028005
0.00264284
1.24567e-07
1.03129e-05
8.79223e-07
2.70517e-05
2.67956e-06
4.02929e-05
5.9745e-06
4.95686e-05
1.12543e-05
5.43843e-05
1.90583e-05
5.42156e-05
2.99832e-05
4.84948e-05
4.46924e-05
3.65978e-05
6.39245e-05
1.78331e-05
8.85004e-05
-8.56687e-06
0.000119327
-4.34505e-05
0.000157397
-8.77462e-05
0.000203782
-0.000142454
0.00025961
-0.000208627
0.000326041
-0.000287337
0.000404219
-0.000379631
0.000495206
-0.000486465
0.000599906
-0.000608623
0.000718962
-0.000746621
0.000852655
-0.000900608
0.00100079
-0.00107026
0.00116262
-0.0012547
0.00133675
-0.00145244
0.00152117
-0.00166142
0.00171331
-0.00187902
0.00191017
-0.00210232
0.00210858
-0.00232806
0.00230548
-0.00255401
0.00249722
-0.00277685
-0.0029907
0.00268742
1.85316e-07
1.01276e-05
1.15756e-06
2.60794e-05
3.37489e-06
3.80756e-05
7.33236e-06
4.56111e-05
1.3571e-05
4.81456e-05
2.26858e-05
4.51007e-05
3.53347e-05
3.58458e-05
5.22474e-05
1.96852e-05
7.42322e-05
-4.15176e-06
0.000102181
-3.6516e-05
0.00013707
-7.83395e-05
0.000179952
-0.000130627
0.000231937
-0.000194439
0.00029417
-0.000270859
0.000367779
-0.000360946
0.000453818
-0.000465671
0.000553186
-0.000585833
0.000666526
-0.000721964
0.000794126
-0.000874221
0.000935802
-0.00104228
0.00109081
-0.00122527
0.00125778
-0.00142166
0.0014347
-0.00162937
0.001619
-0.00184572
0.00180764
-0.00206767
0.00199739
-0.00229206
0.00218503
-0.0025157
0.00236755
-0.00273653
0.00254204
-0.00295133
-0.00315892
0.00271026
2.58379e-07
9.86925e-06
1.48485e-06
2.4853e-05
4.18141e-06
3.5379e-05
8.89102e-06
4.09015e-05
1.62073e-05
4.08293e-05
2.67832e-05
3.45249e-05
4.13391e-05
2.12899e-05
6.06711e-05
3.53159e-07
8.56559e-05
-2.91365e-05
0.000117251
-6.81116e-05
0.000156492
-0.00011758
0.000204471
-0.000178607
0.000262317
-0.000252285
0.000331148
-0.00033969
0.000412012
-0.000441811
0.000505812
-0.00055947
0.000613202
-0.000693223
0.000734491
-0.000843253
0.000869526
-0.00100926
0.00101759
-0.00119035
0.00117737
-0.00138504
0.00134688
-0.00159117
0.00152357
-0.00180606
0.00170446
-0.0020266
0.00188628
-0.0022495
0.00206582
-0.0024716
0.00224014
-0.00269001
0.0024067
-0.00290309
0.00256354
-0.00310818
-0.00330706
0.00271168
3.44697e-07
9.52455e-06
1.86457e-06
2.33331e-05
5.1065e-06
3.21371e-05
1.06627e-05
3.53453e-05
1.91808e-05
3.23112e-05
3.13727e-05
2.23331e-05
4.80216e-05
4.64104e-06
6.99883e-05
-2.16136e-05
9.82131e-05
-5.73613e-05
0.000133711
-0.00010361
0.000177559
-0.000161428
0.00023087
-0.000231917
0.000294753
-0.000316169
0.000370257
-0.000415194
0.000458291
-0.000529845
0.000559536
-0.000660714
0.000674331
-0.000808019
0.000802572
-0.000971493
0.000943604
-0.00115029
0.00109616
-0.00134291
0.00125833
-0.00154721
0.00142763
-0.00176048
0.00160112
-0.00197954
0.00177557
-0.00220105
0.00194778
-0.00242171
0.00211482
-0.00263864
0.00227429
-0.00284948
0.00242438
-0.00305318
0.00256414
-0.00324794
-0.00343744
0.00269452
4.45015e-07
9.07953e-06
2.29943e-06
2.14787e-05
6.1557e-06
2.82808e-05
1.26561e-05
2.88449e-05
2.25033e-05
2.2464e-05
3.64677e-05
8.36865e-06
5.53941e-05
-1.42854e-05
8.02043e-05
-4.64238e-05
0.000111894
-8.90511e-05
0.000151522
-0.000143238
0.000200188
-0.000210093
0.000258993
-0.000290723
0.000328989
-0.000386164
0.000411099
-0.000497304
0.000506034
-0.00062478
0.000614181
-0.000768861
0.000735496
-0.000929334
0.000869403
-0.0011054
0.00101472
-0.0012956
0.00116962
-0.00149781
0.0013317
-0.00170929
0.00149807
-0.00192685
0.00166558
-0.00214706
0.00183105
-0.00236652
0.00199155
-0.00258221
0.00214467
-0.00279176
0.00228873
-0.00299353
0.00242274
-0.00318719
0.00254668
-0.00337188
-0.0035524
0.00266164
5.59885e-07
8.51965e-06
2.79134e-06
1.92472e-05
7.3327e-06
2.37394e-05
1.48767e-05
2.13009e-05
2.61805e-05
1.11602e-05
4.20722e-05
-7.52306e-06
6.34545e-05
-3.56677e-05
9.13036e-05
-7.42728e-05
0.00012666
-0.000124407
0.000170607
-0.000187185
0.000224242
-0.000263728
0.000288617
-0.000355098
0.000364678
-0.000462225
0.000453171
-0.000585797
0.00055454
-0.000726149
0.000668815
-0.000883137
0.000795513
-0.00105603
0.000933553
-0.00124344
0.00108122
-0.00144327
0.00123621
-0.0016528
0.00139572
-0.0018688
0.00155665
-0.00208778
0.00171585
-0.00230625
0.00187039
-0.00252106
0.00201784
-0.00272967
0.00215646
-0.00293038
0.00228535
-0.00312242
0.00240432
-0.00330617
0.00251411
-0.00348167
-0.00365426
0.00261596
6.89686e-07
7.82996e-06
3.34145e-06
1.65954e-05
8.63934e-06
1.84416e-05
1.7326e-05
1.26142e-05
3.02121e-05
-1.72585e-06
4.81804e-05
-2.54913e-05
7.21859e-05
-5.96733e-05
0.00010325
-0.000105336
0.00014244
-0.000163598
0.000190846
-0.000235591
0.000249527
-0.000322408
0.000319447
-0.000425018
0.000401394
-0.000544172
0.000495876
-0.000680279
0.000603011
-0.000833284
0.000722421
-0.00100255
0.000853146
-0.00118676
0.0009936
-0.00138389
0.00114159
-0.00159126
0.00129442
-0.00180562
0.00144905
-0.00202343
0.00160236
-0.00224109
0.00175142
-0.00245531
0.00189376
-0.0026634
0.00202757
-0.00286348
0.00215185
-0.00305467
0.00226644
-0.003237
0.00237183
-0.00341156
0.00246929
-0.00357912
-0.00374516
0.0025602
8.34629e-07
6.99533e-06
3.95019e-06
1.34799e-05
1.00757e-05
1.23161e-05
2.00024e-05
2.68749e-06
3.45918e-05
-1.63153e-05
5.47767e-05
-4.56762e-05
8.15565e-05
-8.64531e-05
0.000115984
-0.000139763
0.000159137
-0.000206751
0.00021208
-0.000288534
0.000275799
-0.000386127
0.000351125
-0.000500344
0.000438634
-0.000631681
0.000538539
-0.000780185
0.000650582
-0.000945326
0.000773938
-0.0011259
0.000907165
-0.00131998
0.00104821
-0.00152493
0.00119448