/*--------------------------------*- C++ -*----------------------------------*\
  =========                 |
  \\      /  F ield         | OpenFOAM: The Open Source CFD Toolbox
   \\    /   O peration     | Website:  https://openfoam.org
    \\  /    A nd           | Version:  7
     \\/     M anipulation  |
\*---------------------------------------------------------------------------*/
FoamFile
{
    version     2.0;
    format      ascii;
    class       volScalarField;
    location    "47";
    object      p;
}
// * * * * * * * * * * * * * * * * * * * * * * * * * * * * * * * * * * * * * //

dimensions      [0 2 -2 0 0 0 0];

internalField   nonuniform List<scalar> 
40000
(
-0.228457
-0.229333
-0.229993
-0.230534
-0.231022
-0.231459
-0.231851
-0.232208
-0.232536
-0.232844
-0.233135
-0.233415
-0.233685
-0.233947
-0.2342
-0.234445
-0.234678
-0.234897
-0.2351
-0.235284
-0.235445
-0.235581
-0.23569
-0.235772
-0.235826
-0.235854
-0.235859
-0.235846
-0.235817
-0.235789
-0.228569
-0.229439
-0.230093
-0.230631
-0.231115
-0.231549
-0.231939
-0.232292
-0.232619
-0.232924
-0.233213
-0.233491
-0.233759
-0.234019
-0.234271
-0.234514
-0.234746
-0.234964
-0.235166
-0.235348
-0.235508
-0.235642
-0.23575
-0.235829
-0.235881
-0.235906
-0.23591
-0.235895
-0.235863
-0.235835
-0.228783
-0.22964
-0.230286
-0.230816
-0.231294
-0.231722
-0.232106
-0.232454
-0.232776
-0.233076
-0.233362
-0.233635
-0.2339
-0.234157
-0.234405
-0.234645
-0.234873
-0.235088
-0.235287
-0.235466
-0.235621
-0.235752
-0.235854
-0.235928
-0.235973
-0.235992
-0.235989
-0.235968
-0.235926
-0.235894
-0.229098
-0.229936
-0.230568
-0.231088
-0.231555
-0.231975
-0.23235
-0.232692
-0.233006
-0.2333
-0.233579
-0.233847
-0.234106
-0.234357
-0.2346
-0.234835
-0.235058
-0.235268
-0.235461
-0.235634
-0.235784
-0.235907
-0.236001
-0.236066
-0.236101
-0.236109
-0.236094
-0.236062
-0.236004
-0.235964
-0.229509
-0.230324
-0.230938
-0.231443
-0.231898
-0.232306
-0.232671
-0.233002
-0.233307
-0.233592
-0.233863
-0.234122
-0.234373
-0.234617
-0.234853
-0.235081
-0.235297
-0.2355
-0.235686
-0.235851
-0.235992
-0.236105
-0.236189
-0.236241
-0.236261
-0.236253
-0.236222
-0.236173
-0.236092
-0.236039
-0.230013
-0.230799
-0.231392
-0.23188
-0.232319
-0.232712
-0.233064
-0.233382
-0.233676
-0.23395
-0.234209
-0.234459
-0.2347
-0.234934
-0.235161
-0.23538
-0.235587
-0.235781
-0.235958
-0.236113
-0.236243
-0.236344
-0.236413
-0.236448
-0.23645
-0.23642
-0.236367
-0.236297
-0.236185
-0.236113
-0.230605
-0.231358
-0.231926
-0.232393
-0.232814
-0.23319
-0.233526
-0.233829
-0.234108
-0.234369
-0.234616
-0.234853
-0.235082
-0.235305
-0.23552
-0.235728
-0.235925
-0.236107
-0.236272
-0.236415
-0.236532
-0.236617
-0.236669
-0.236684
-0.236662
-0.236606
-0.236526
-0.236427
-0.236277
-0.236177
-0.23128
-0.231995
-0.232535
-0.232979
-0.233379
-0.233735
-0.234052
-0.234338
-0.234601
-0.234846
-0.235077
-0.235299
-0.235514
-0.235723
-0.235926
-0.23612
-0.236304
-0.236473
-0.236625
-0.236753
-0.236854
-0.236922
-0.236953
-0.236944
-0.236894
-0.236805
-0.236691
-0.236559
-0.236361
-0.236219
-0.232031
-0.232705
-0.233214
-0.233633
-0.234008
-0.234342
-0.234639
-0.234905
-0.235149
-0.235375
-0.235589
-0.235794
-0.235992
-0.236185
-0.236372
-0.236551
-0.236719
-0.236874
-0.23701
-0.237122
-0.237205
-0.237252
-0.237259
-0.237222
-0.237139
-0.237013
-0.236856
-0.236683
-0.236429
-0.236226
-0.232853
-0.233482
-0.233958
-0.234349
-0.234698
-0.235008
-0.235281
-0.235525
-0.235747
-0.235953
-0.236146
-0.236331
-0.23651
-0.236685
-0.236853
-0.237015
-0.237166
-0.237303
-0.237421
-0.237515
-0.237577
-0.237602
-0.237583
-0.237514
-0.237394
-0.237223
-0.237016
-0.236795
-0.236476
-0.236179
-0.233737
-0.23432
-0.234761
-0.235122
-0.235443
-0.235726
-0.235974
-0.236193
-0.236391
-0.236573
-0.236743
-0.236906
-0.237063
-0.237216
-0.237364
-0.237505
-0.237637
-0.237754
-0.237853
-0.237926
-0.237966
-0.237965
-0.237917
-0.237814
-0.237652
-0.23743
-0.237164
-0.236886
-0.2365
-0.236041
-0.234678
-0.235213
-0.235618
-0.235947
-0.236239
-0.236493
-0.236712
-0.236904
-0.237075
-0.23723
-0.237374
-0.237512
-0.237644
-0.237773
-0.237897
-0.238015
-0.238125
-0.238221
-0.238297
-0.238347
-0.238363
-0.238336
-0.238256
-0.238115
-0.237908
-0.237629
-0.237294
-0.236952
-0.236508
-0.235734
-0.23567
-0.236157
-0.236523
-0.23682
-0.23708
-0.237302
-0.237492
-0.237653
-0.237794
-0.23792
-0.238035
-0.238143
-0.238248
-0.238349
-0.238447
-0.238539
-0.238624
-0.238695
-0.238747
-0.238773
-0.238763
-0.238706
-0.238594
-0.238413
-0.238157
-0.237816
-0.237403
-0.236989
-0.236507
-0.23522
-0.236706
-0.237144
-0.237473
-0.237736
-0.237962
-0.238151
-0.238308
-0.238437
-0.238545
-0.238637
-0.23872
-0.238796
-0.238868
-0.238938
-0.239006
-0.23907
-0.239126
-0.23917
-0.239196
-0.239195
-0.239157
-0.23907
-0.238923
-0.238701
-0.238393
-0.237987
-0.237491
-0.236975
-0.236347
-0.235043
-0.237781
-0.238172
-0.238462
-0.23869
-0.238881
-0.239035
-0.239156
-0.239249
-0.239321
-0.239377
-0.239423
-0.239463
-0.2395
-0.239535
-0.239569
-0.2396
-0.239625
-0.239639
-0.239636
-0.239605
-0.239537
-0.23942
-0.239237
-0.238973
-0.238612
-0.238137
-0.237554
-0.236928
-0.236111
-0.234724
-0.238891
-0.239235
-0.239487
-0.239679
-0.239834
-0.239951
-0.240034
-0.240088
-0.24012
-0.240136
-0.240141
-0.240141
-0.240138
-0.240134
-0.24013
-0.240125
-0.240114
-0.240095
-0.240059
-0.239997
-0.239897
-0.239746
-0.239527
-0.239221
-0.238807
-0.238262
-0.237588
-0.236845
-0.235846
-0.234211
-0.240033
-0.240332
-0.240546
-0.240702
-0.240819
-0.240897
-0.240939
-0.240951
-0.240939
-0.240911
-0.240871
-0.240825
-0.240778
-0.24073
-0.240683
-0.240637
-0.240588
-0.240531
-0.240459
-0.240362
-0.240229
-0.240043
-0.239787
-0.239438
-0.238971
-0.238357
-0.237587
-0.236722
-0.235546
-0.233528
-0.241203
-0.241461
-0.241637
-0.241757
-0.241834
-0.241871
-0.241869
-0.241835
-0.241776
-0.241698
-0.241609
-0.241513
-0.241416
-0.241319
-0.241225
-0.241133
-0.24104
-0.240941
-0.240829
-0.240695
-0.240524
-0.240302
-0.240007
-0.239615
-0.239096
-0.238414
-0.237547
-0.236556
-0.235209
-0.232681
-0.242402
-0.24262
-0.242761
-0.242843
-0.24288
-0.242872
-0.242823
-0.242739
-0.242628
-0.242497
-0.242353
-0.242202
-0.24205
-0.241899
-0.241752
-0.241609
-0.241467
-0.241321
-0.241165
-0.240989
-0.240778
-0.240516
-0.24018
-0.239744
-0.239173
-0.238425
-0.237463
-0.236341
-0.234843
-0.231668
-0.243631
-0.243812
-0.243918
-0.243962
-0.243956
-0.243902
-0.243802
-0.243665
-0.243497
-0.243307
-0.243103
-0.242891
-0.242678
-0.242468
-0.242262
-0.242062
-0.241866
-0.241669
-0.241463
-0.24124
-0.240985
-0.24068
-0.2403
-0.239818
-0.239194
-0.238381
-0.237326
-0.236069
-0.234456
-0.230498
-0.244892
-0.24504
-0.24511
-0.245115
-0.245065
-0.244961
-0.244808
-0.244612
-0.244383
-0.24413
-0.24386
-0.243582
-0.243302
-0.243026
-0.242756
-0.242493
-0.242237
-0.241982
-0.241723
-0.241448
-0.241143
-0.24079
-0.240362
-0.23983
-0.239151
-0.238273
-0.237126
-0.23573
-0.234053
-0.229187
-0.246191
-0.246307
-0.246343
-0.246308
-0.246211
-0.246055
-0.245843
-0.245585
-0.245289
-0.244966
-0.244625
-0.244275
-0.243922
-0.243574
-0.243234
-0.242903
-0.242581
-0.242263
-0.241944
-0.241611
-0.241252
-0.240845
-0.240365
-0.239778
-0.239039
-0.238093
-0.236857
-0.235309
-0.233634
-0.227766
-0.247533
-0.24762
-0.247621
-0.247545
-0.247399
-0.247186
-0.246912
-0.246586
-0.246219
-0.245821
-0.245403
-0.244974
-0.244543
-0.244117
-0.243701
-0.243296
-0.242902
-0.242516
-0.242131
-0.241736
-0.241316
-0.24085
-0.240311
-0.239662
-0.238857
-0.237837
-0.236512
-0.234798
-0.233187
-0.226281
-0.248929
-0.248986
-0.248952
-0.248832
-0.248634
-0.248361
-0.24802
-0.247622
-0.247178
-0.246699
-0.246197
-0.245684
-0.245169
-0.24466
-0.244161
-0.243677
-0.243206
-0.242746
-0.24229
-0.241826
-0.24134
-0.240809
-0.240204
-0.239487
-0.238608
-0.237507
-0.236092
-0.234195
-0.232693
-0.224794
-0.250387
-0.250416
-0.250345
-0.250179
-0.249925
-0.249588
-0.249175
-0.248699
-0.248172
-0.247607
-0.247016
-0.246414
-0.245809
-0.24521
-0.244624
-0.244055
-0.243502
-0.242963
-0.24243
-0.241893
-0.241335
-0.240733
-0.240055
-0.239262
-0.238301
-0.237108
-0.235598
-0.233512
-0.232122
-0.223388
-0.25192
-0.25192
-0.25181
-0.251594
-0.25128
-0.250874
-0.250384
-0.249825
-0.249209
-0.248552
-0.247868
-0.24717
-0.24647
-0.245777
-0.245099
-0.244439
-0.2438
-0.243177
-0.242563
-0.241947
-0.241311
-0.240631
-0.239874
-0.238996
-0.237944
-0.236651
-0.235034
-0.232772
-0.231439
-0.222161
-0.253543
-0.253511
-0.253359
-0.253089
-0.25271
-0.252229
-0.251657
-0.251009
-0.250299
-0.249545
-0.248761
-0.247963
-0.247162
-0.246371
-0.245596
-0.244843
-0.244112
-0.243401
-0.242701
-0.242001
-0.241282
-0.240517
-0.239671
-0.238701
-0.237547
-0.236145
-0.234403
-0.232002
-0.230574
-0.221157
-0.255271
-0.255203
-0.255004
-0.254676
-0.254226
-0.253665
-0.253005
-0.252262
-0.251453
-0.250595
-0.249707
-0.248804
-0.247899
-0.247005
-0.246129
-0.245278
-0.244452
-0.243648
-0.242858
-0.242068
-0.241258
-0.2404
-0.239458
-0.238385
-0.237123
-0.235607
-0.233721
-0.231241
-0.229405
-0.220263
-0.257119
-0.25701
-0.256759
-0.256366
-0.25584
-0.255192
-0.254438
-0.253594
-0.25268
-0.251715
-0.250718
-0.249705
-0.248692
-0.247691
-0.246712
-0.245759
-0.244834
-0.243933
-0.243047
-0.242161
-0.241252
-0.240291
-0.239241
-0.238055
-0.236676
-0.23505
-0.233034
-0.2306
-0.227959
-0.219685
-0.259107
-0.258949
-0.258638
-0.258174
-0.257565
-0.256824
-0.255969
-0.255019
-0.253995
-0.252917
-0.251806
-0.250679
-0.249555
-0.248444
-0.247357
-0.2463
-0.245272
-0.244269
-0.243281
-0.242289
-0.241271
-0.240195
-0.239022
-0.237707
-0.2362
-0.234467
-0.232366
-0.230153
-0.226792
-0.221665
-0.261252
-0.261035
-0.260657
-0.260114
-0.259414
-0.258574
-0.257611
-0.256549
-0.255409
-0.254213
-0.252984
-0.251741
-0.250501
-0.249278
-0.24808
-0.246914
-0.245779
-0.244668
-0.243569
-0.242462
-0.241321
-0.240112
-0.238796
-0.237331
-0.235675
-0.233813
-0.231636
-0.229626
-0.22644
-0.22897
-0.263571
-0.263285
-0.262831
-0.262201
-0.261402
-0.260454
-0.259377
-0.258196
-0.256935
-0.255618
-0.254267
-0.252904
-0.251546
-0.250206
-0.248895
-0.247615
-0.246367
-0.24514
-0.243919
-0.242682
-0.2414
-0.240036
-0.238552
-0.236908
-0.235069
-0.233035
-0.230742
-0.228662
-0.225722
-0.227466
-0.266083
-0.265716
-0.265175
-0.264449
-0.263543
-0.262479
-0.261281
-0.259976
-0.258588
-0.257144
-0.255668
-0.254182
-0.252702
-0.251243
-0.249813
-0.248416
-0.247045
-0.245692
-0.244336
-0.242951
-0.241505
-0.23996
-0.238276
-0.236417
-0.234353
-0.232092
-0.229598
-0.227243
-0.224192
-0.224296
-0.268806
-0.268344
-0.267705
-0.266872
-0.26585
-0.264662
-0.263336
-0.2619
-0.260381
-0.258807
-0.257202
-0.255588
-0.253983
-0.252401
-0.250848
-0.249324
-0.247823
-0.246329
-0.244819
-0.243264
-0.241627
-0.239869
-0.237949
-0.235835
-0.233502
-0.230961
-0.228188
-0.225454
-0.22212
-0.22084
-0.271756
-0.271183
-0.270434
-0.269485
-0.268337
-0.267017
-0.265556
-0.263983
-0.262328
-0.260618
-0.25888
-0.257136
-0.255403
-0.253692
-0.252008
-0.250349
-0.248703
-0.247051
-0.245366
-0.243613
-0.241753
-0.239746
-0.237553
-0.235144
-0.232501
-0.229636
-0.226534
-0.223383
-0.219713
-0.2173
-0.27495
-0.27425
-0.273379
-0.272302
-0.271018
-0.269558
-0.267954
-0.266239
-0.264442
-0.262593
-0.260718
-0.258839
-0.256972
-0.255126
-0.253302
-0.251495
-0.249687
-0.247855
-0.245967
-0.243985
-0.241867
-0.239573
-0.237068
-0.234329
-0.231342
-0.228123
-0.224666
-0.221105
-0.217092
-0.21386
-0.278402
-0.277558
-0.276551
-0.275336
-0.273907
-0.272298
-0.270544
-0.26868
-0.266736
-0.264744
-0.262728
-0.260709
-0.258702
-0.256711
-0.254736
-0.252763
-0.250772
-0.248733
-0.246611
-0.244363
-0.241949
-0.23933
-0.236479
-0.233378
-0.230024
-0.226436
-0.222617
-0.218672
-0.214344
-0.210522
-0.282125
-0.28112
-0.279964
-0.2786
-0.277016
-0.275249
-0.273339
-0.27132
-0.269225
-0.267084
-0.264921
-0.262757
-0.2606
-0.258454
-0.25631
-0.254151
-0.25195
-0.249673
-0.24728
-0.244729
-0.241979
-0.239
-0.235771
-0.232284
-0.228548
-0.224587
-0.220415
-0.216122
-0.211511
-0.207273
-0.286133
-0.284949
-0.28363
-0.282106
-0.280356
-0.278424
-0.27635
-0.274171
-0.271919
-0.269624
-0.267309
-0.26499
-0.262673
-0.260355
-0.258023
-0.255652
-0.25321
-0.250659
-0.247956
-0.24506
-0.241938
-0.238565
-0.234932
-0.231044
-0.22692
-0.222592
-0.218082
-0.213474
-0.208616
-0.204075
-0.290434
-0.289053
-0.287558
-0.285863
-0.28394
-0.281835
-0.279591
-0.277245
-0.274831
-0.272376
-0.269901
-0.267417
-0.264925
-0.262416
-0.259869
-0.257255
-0.254535
-0.251669
-0.248614
-0.245335
-0.241804
-0.23801
-0.233955
-0.229657
-0.225146
-0.220462
-0.215634
-0.210743
-0.205663
-0.200894
-0.295038
-0.293442
-0.291758
-0.289882
-0.287777
-0.285491
-0.283071
-0.280554
-0.277971
-0.275349
-0.272703
-0.270039
-0.267354
-0.264629
-0.261837
-0.258943
-0.255905
-0.25268
-0.249231
-0.245529
-0.241559
-0.237321
-0.232832
-0.228122
-0.223232
-0.218206
-0.21308
-0.20793
-0.202652
-0.197695
-0.29995
-0.298122
-0.296237
-0.294171
-0.291875
-0.289403
-0.286801
-0.284106
-0.281348
-0.278548
-0.275719
-0.272858
-0.269955
-0.266984
-0.263911
-0.260695
-0.257293
-0.253665
-0.24978
-0.24562
-0.241184
-0.236487
-0.231559
-0.226442
-0.221182
-0.215832
-0.210426
-0.205037
-0.199575
-0.194455
-0.305174
-0.303098
-0.301
-0.298735
-0.296242
-0.293576
-0.290787
-0.287908
-0.284966
-0.281978
-0.278948
-0.275869
-0.272718
-0.269465
-0.266068
-0.262485
-0.258672
-0.254595
-0.250235
-0.245588
-0.240665
-0.2355
-0.230133
-0.224616
-0.219001
-0.213341
-0.207673
-0.20206
-0.196425
-0.191152
-0.31071
-0.30837
-0.306049
-0.303578
-0.300881
-0.298017
-0.295035
-0.291964
-0.288828
-0.285636
-0.282386
-0.279059
-0.275627
-0.27205
-0.268282
-0.264281
-0.260009
-0.255441
-0.250571
-0.24541
-0.239988
-0.234351
-0.22855
-0.222645
-0.216689
-0.210734
-0.204817
-0.198992
-0.193193
-0.187771
-0.316556
-0.313938
-0.311384
-0.3087
-0.305795
-0.302728
-0.299546
-0.296275
-0.292932
-0.289518
-0.286021
-0.282413
-0.278658
-0.274709
-0.270521
-0.266051
-0.261272
-0.256173
-0.250762
-0.24507
-0.239141
-0.233033
-0.226808
-0.220527
-0.214245
-0.208009
-0.201855
-0.195828
-0.18987
-0.184298
-0.322704
-0.319794
-0.317
-0.314099
-0.310981
-0.307706
-0.304317
-0.300836
-0.29727
-0.29361
-0.289835
-0.285908
-0.281783
-0.277411
-0.272747
-0.267757
-0.262427
-0.25676
-0.250786
-0.244549
-0.238112
-0.231541
-0.224902
-0.218259
-0.211665
-0.205162
-0.198781
-0.192558
-0.186445
-0.180725
-0.329143
-0.325929
-0.322889
-0.319767
-0.316433
-0.312945
-0.309342
-0.305637
-0.301828
-0.297895
-0.293804
-0.289512
-0.284964
-0.280114
-0.27492
-0.269361
-0.263437
-0.257175
-0.250619
-0.243833
-0.236891
-0.229866
-0.222828
-0.215837
-0.208943
-0.202184
-0.195586
-0.189174
-0.18291
-0.17704
-0.335855
-0.332329
-0.329038
-0.325693
-0.32214
-0.318433
-0.314607
-0.310662
-0.306585
-0.302345
-0.297897
-0.293187
-0.288162
-0.282775
-0.276997
-0.270822
-0.264271
-0.257389
-0.250241
-0.242907
-0.235467
-0.228001
-0.220577
-0.213253
-0.206074
-0.199069
-0.19226
-0.185666
-0.179256
-0.173237
-0.342819
-0.338973
-0.335429
-0.331859
-0.328085
-0.324154
-0.320092
-0.315888
-0.311514
-0.306927
-0.302072
-0.29689
-0.291327
-0.285347
-0.278933
-0.272101
-0.264894
-0.257377
-0.249634
-0.241755
-0.23383
-0.225937
-0.218143
-0.2105
-0.203046
-0.195806
-0.188795
-0.182025
-0.175472
-0.169306
-0.350004
-0.345835
-0.342036
-0.338243
-0.334245
-0.330083
-0.325771
-0.321283
-0.316577
-0.311598
-0.306283
-0.300569
-0.294409
-0.287779
-0.280683
-0.273159
-0.265274
-0.257113
-0.248777
-0.240365
-0.231967
-0.223663
-0.215515
-0.207567
-0.19985
-0.192384
-0.18518
-0.17824
-0.17155
-0.165241
-0.357376
-0.352881
-0.34883
-0.344814
-0.34059
-0.336188
-0.331607
-0.326808
-0.321731
-0.31631
-0.310476
-0.304169
-0.297353
-0.29002
-0.282201
-0.273958
-0.26538
-0.256575
-0.247653
-0.23872
-0.229867
-0.221169
-0.212681
-0.204442
-0.196475
-0.188794
-0.181403
-0.174302
-0.167481
-0.161032
-0.364892
-0.360073
-0.355773
-0.351536
-0.347083
-0.34243
-0.33756
-0.332415
-0.326922
-0.321004
-0.314591
-0.30763
-0.3001
-0.292019
-0.283442
-0.274459
-0.265184
-0.255739
-0.246244
-0.236807
-0.227517
-0.218442
-0.20963
-0.201113
-0.192908
-0.185021
-0.177454
-0.170199
-0.163254
-0.156672
-0.372501
-0.367363
-0.362819
-0.358364
-0.353679
-0.348761
-0.343576
-0.338048
-0.332089
-0.325617
-0.318563
-0.310887
-0.302592
-0.293721
-0.284361
-0.274629
-0.264657
-0.254582
-0.244531
-0.234609
-0.224901
-0.215467
-0.206348
-0.197568
-0.189136
-0.181055
-0.173321
-0.165922
-0.15886
-0.152153
-0.380146
-0.374697
-0.369918
-0.365248
-0.360324
-0.355125
-0.349597
-0.343644
-0.337167
-0.33008
-0.322323
-0.313877
-0.30477
-0.295078
-0.284918
-0.274432
-0.263772
-0.253084
-0.242496
-0.23211
-0.222004
-0.212231
-0.202821
-0.193792
-0.185147
-0.176883
-0.168993
-0.161461
-0.154291
-0.147467
-0.387764
-0.382015
-0.377008
-0.372126
-0.366958
-0.36146
-0.355555
-0.349131
-0.34208
-0.334318
-0.3258
-0.316532
-0.306575
-0.296038
-0.28507
-0.273836
-0.262502
-0.251222
-0.24012
-0.229293
-0.218811
-0.208717
-0.199034
-0.189771
-0.180927
-0.172494
-0.164458
-0.156806
-0.149537
-0.142608
-0.395281
-0.389248
-0.384025
-0.378933
-0.373512
-0.367692
-0.361375
-0.354432
-0.346749
-0.338253
-0.32892
-0.318787
-0.307949
-0.296554
-0.284779
-0.272809
-0.260823
-0.248974
-0.237384
-0.226141
-0.215305
-0.204911
-0.194972
-0.185492
-0.176463
-0.167874
-0.159707
-0.151947
-0.14459
-0.137567
-0.402621
-0.396321
-0.390893
-0.385594
-0.379911
-0.373745
-0.366976
-0.359463
-0.351093
-0.341808
-0.331611
-0.320576
-0.308839
-0.296582
-0.284009
-0.271323
-0.25871
-0.24632
-0.234269
-0.222636
-0.211469
-0.200795
-0.19062
-0.18094
-0.171743
-0.163013
-0.154729
-0.146875
-0.139442
-0.13234
-0.409698
-0.403152
-0.397533
-0.392029
-0.386071
-0.379532
-0.372271
-0.364137
-0.355026
-0.3449
-0.333799
-0.321837
-0.30919
-0.296077
-0.282724
-0.269349
-0.256138
-0.243238
-0.230756
-0.218759
-0.207287
-0.196355
-0.185964
-0.176102
-0.166754
-0.157899
-0.149514
-0.141581
-0.134085
-0.12692
-0.416422
-0.409656
-0.403859
-0.398151
-0.391905
-0.384963
-0.377168
-0.368364
-0.358461
-0.347451
-0.335413
-0.322508
-0.308954
-0.294999
-0.280892
-0.266859
-0.253084
-0.239708
-0.226825
-0.214493
-0.202741
-0.191575
-0.180988
-0.170964
-0.161484
-0.152522
-0.144053
-0.136058
-0.128514
-0.121303
-0.422701
-0.41574
-0.40978
-0.403869
-0.397319
-0.389945
-0.381573
-0.372052
-0.361312
-0.349382
-0.336387
-0.322534
-0.308083
-0.293311
-0.278482
-0.263827
-0.249526
-0.235708
-0.222458
-0.209821
-0.197815
-0.186439
-0.175679
-0.165515
-0.155921
-0.146871
-0.138336
-0.130297
-0.12272
-0.115484
-0.428436
-0.421309
-0.415201
-0.409085
-0.402216
-0.394379
-0.385392
-0.37511
-0.363495
-0.350618
-0.336655
-0.321861
-0.306534
-0.290977
-0.275465
-0.260229
-0.245442
-0.231221
-0.217637
-0.204726
-0.192494
-0.180933
-0.170024
-0.159741
-0.150055
-0.140937
-0.132356
-0.124292
-0.116698
-0.109458
-0.433527
-0.426265
-0.420024
-0.413703
-0.406498
-0.398168
-0.388527
-0.377448
-0.364927
-0.351087
-0.336157
-0.32044
-0.304267
-0.287964
-0.271814
-0.256042
-0.24081
-0.226225
-0.212344
-0.199191
-0.186763
-0.175044
-0.164011
-0.153632
-0.143876
-0.134711
-0.126104
-0.118034
-0.110443
-0.10322
-0.437873
-0.430508
-0.424149
-0.417621
-0.410064
-0.401213
-0.390884
-0.378977
-0.365531
-0.350723
-0.334839
-0.318225
-0.301246
-0.284244
-0.267504
-0.251243
-0.235613
-0.220705
-0.206564
-0.193201
-0.180608
-0.16876
-0.157628
-0.147178
-0.137376
-0.128185
-0.119573
-0.111518
-0.103947
-0.0967653
-0.441374
-0.433939
-0.427478
-0.42074
-0.412814
-0.403417
-0.392373
-0.379614
-0.365233
-0.349464
-0.332648
-0.315175
-0.297439
-0.279789
-0.262512
-0.245814
-0.229832
-0.214644
-0.200281
-0.186744
-0.174016
-0.162068
-0.150865
-0.14037
-0.130545
-0.121352
-0.112757
-0.104737
-0.0972079
-0.0900908
-0.443929
-0.436459
-0.429911
-0.422961
-0.414651
-0.404685
-0.392904
-0.379282
-0.363966
-0.347254
-0.32954
-0.311255
-0.292815
-0.274576
-0.256818
-0.239736
-0.223451
-0.208026
-0.193481
-0.179807
-0.166978
-0.154961
-0.143715
-0.1332
-0.123377
-0.114205
-0.10565
-0.0976869
-0.0902222
-0.0831975
-0.445442
-0.437971
-0.43135
-0.424188
-0.415482
-0.40493
-0.392397
-0.377906
-0.361668
-0.344042
-0.325475
-0.306433
-0.28735
-0.268584
-0.250405
-0.232993
-0.216456
-0.20084
-0.186154
-0.17238
-0.159485
-0.147429
-0.136169
-0.125663
-0.115866
-0.106739
-0.0982437
-0.090358
-0.0829843
-0.0760822
-0.44582
-0.438382
-0.431705
-0.424328
-0.415216
-0.404066
-0.390775
-0.375423
-0.358286
-0.339786
-0.320419
-0.300684
-0.281024
-0.261796
-0.243257
-0.225574
-0.208835
-0.193075
-0.17829
-0.164454
-0.151527
-0.139466
-0.128223
-0.117753
-0.108009
-0.0989475
-0.0905312
-0.0827381
-0.075476
-0.0687133
-0.444976
-0.437606
-0.430885
-0.423295
-0.41377
-0.402016
-0.387971
-0.371774
-0.353772
-0.334448
-0.314344
-0.293984
-0.273818
-0.254196
-0.235363
-0.217466
-0.200578
-0.184722
-0.169881
-0.156023
-0.143102
-0.131069
-0.119874
-0.109468
-0.0998035
-0.0908317
-0.0825117
-0.0748242
-0.0676744
-0.0610043
-0.442829
-0.435559
-0.428811
-0.421009
-0.411068
-0.398711
-0.383923
-0.36691
-0.348087
-0.327999
-0.307227
-0.286317
-0.265719
-0.245776
-0.226713
-0.208661
-0.19168
-0.175775
-0.160923
-0.147083
-0.134205
-0.122235
-0.111121
-0.10081
-0.0912514
-0.0823941
-0.0741957
-0.0666417
-0.0596022
-0.0528608
-0.439305
-0.432168
-0.425407
-0.417397
-0.407043
-0.394091
-0.37858
-0.360788
-0.341199
-0.320415
-0.299053
-0.277671
-0.25672
-0.236527
-0.217301
-0.199156
-0.182134
-0.166231
-0.151413
-0.137633
-0.124836
-0.112965
-0.101963
-0.0917777
-0.0823544
-0.0736386
-0.0655935
-0.0582153
-0.0513341
-0.0444102
-0.434338
-0.427366
-0.420606
-0.412394
-0.401635
-0.388104
-0.371901
-0.353377
-0.333086
-0.311681
-0.28981
-0.26804
-0.246814
-0.226446
-0.207125
-0.188947
-0.17194
-0.156089
-0.141351
-0.127673
-0.114996
-0.103259
-0.0924048
-0.082376
-0.0731165
-0.0645701
-0.0567085
-0.0495085
-0.0426842
-0.036097
-0.427873
-0.421095
-0.414353
-0.405948
-0.394795
-0.380708
-0.363852
-0.344653
-0.323732
-0.301788
-0.279494
-0.257421
-0.236003
-0.215534
-0.196185
-0.178036
-0.1611
-0.145351
-0.130739
-0.117206
-0.104688
-0.0931233
-0.0824498
-0.0726097
-0.0635445
-0.0551976
-0.0475423
-0.0405315
-0.0338455
-0.0276178
-0.419864
-0.413309
-0.406599
-0.398013
-0.386484
-0.371871
-0.35441
-0.334601
-0.313128
-0.290732
-0.268105
-0.245817
-0.224288
-0.203794
-0.184487
-0.166428
-0.149618
-0.134022
-0.119583
-0.106238
-0.0939191
-0.0825634
-0.0721056
-0.0624859
-0.0536444
-0.0455253
-0.0381008
-0.0313068
-0.0248144
-0.0189178
-0.410274
-0.403969
-0.397309
-0.388555
-0.376673
-0.361573
-0.343562
-0.323215
-0.301275
-0.278519
-0.255651
-0.233237
-0.21168
-0.191236
-0.172037
-0.15413
-0.137502
-0.122109
-0.10789
-0.0947766
-0.0826978
-0.0715873
-0.0613796
-0.0520127
-0.0434251
-0.0355612
-0.0283934
-0.0218457
-0.0155766
-0.00999645
-0.39908
-0.39305
-0.386455
-0.377552
-0.365346
-0.349803
-0.331305
-0.310499
-0.288181
-0.265159
-0.242145
-0.219693
-0.19819
-0.17787
-0.158848
-0.141153
-0.124763
-0.109625
-0.0956719
-0.0828323
-0.0710334
-0.0602057
-0.0502825
-0.0412004
-0.0328964
-0.0253151
-0.0184302
-0.0121544
-0.00612814
-0.0008678
-0.386266
-0.380536
-0.374023
-0.364991
-0.352495
-0.336561
-0.317645
-0.296463
-0.27386
-0.25067
-0.227603
-0.205203
-0.183835
-0.163714
-0.144934
-0.127512
-0.111415
-0.0965813
-0.0829411
-0.0704185
-0.0589391
-0.0484311
-0.0388267
-0.0300611
-0.02207
-0.0147984
-0.00822196
-0.00224091
0.00352558
0.00845485
-0.37183
-0.366421
-0.36001
-0.350873
-0.338125
-0.321856
-0.302596
-0.281127
-0.258336
-0.235074
-0.212049
-0.189789
-0.168638
-0.148787
-0.130316
-0.113225
-0.0974739
-0.0829953
-0.0697135
-0.0575506
-0.0464299
-0.0362783
-0.0270266
-0.0186087
-0.0109595
-0.00402435
0.00221911
0.00788426
0.0133741
0.0179581
-0.355782
-0.350714
-0.344422
-0.335206
-0.32225
-0.305708
-0.286184
-0.264519
-0.241638
-0.218402
-0.195513
-0.173479
-0.152622
-0.133113
-0.115014
-0.0983136
-0.0829615
-0.068886
-0.0560078
-0.0442463
-0.0335231
-0.0237639
-0.0148982
-0.00685901
0.000419984
0.00699231
0.0128788
0.0182077
0.0234036
0.0276276
-0.33814
-0.333432
-0.327278
-0.318014
-0.304895
-0.288146
-0.26844
-0.246673
-0.223802
-0.200691
-0.178029
-0.156305
-0.135819
-0.11672
-0.0990553
-0.0828014
-0.0679004
-0.0542758
-0.0418451
-0.0305258
-0.0202382
-0.0109065
-0.00245964
0.00517055
0.0120512
0.0182349
0.0237411
0.0287135
0.0335979
0.0374475
-0.318935
-0.314604
-0.308609
-0.299327
-0.286096
-0.26921
-0.249405
-0.227633
-0.204872
-0.18198
-0.159633
-0.138302
-0.118261
-0.0996399
-0.0824692
-0.0667166
-0.0523168
-0.0391893
-0.0272489
-0.0164116
-0.00659641
0.00227325
0.0102693
0.0174608
0.0239156
0.029685
0.0347876
0.0393836
0.0439381
0.0473996
-0.298208
-0.294269
-0.288452
-0.279188
-0.265898
-0.248946
-0.229133
-0.207457
-0.184891
-0.162308
-0.140369
-0.11951
-0.0999857
-0.0819066
-0.0652885
-0.0500899
-0.0362397
-0.0236538
-0.0122452
-0.00192818
0.00737888
0.0157532
0.0232674
0.0299911
0.0359929
0.0413226
0.0459986
0.0501975
0.0544024
0.0574619
-0.276011
-0.272476
-0.26686
-0.257648
-0.244355
-0.227414
-0.207689
-0.186215
-0.16388
-0.14173
-0.120285
-0.0999749
-0.0810354
-0.0635594
-0.0475491
-0.0329551
-0.0197008
-0.00769935
0.00313808
0.012898
0.0216626
0.0295096
0.0365119
0.0427397
0.0482617
0.0531264
0.0573526
0.0611332
0.0649655
0.0676045
-0.252406
-0.249285
-0.24389
-0.234768
-0.221532
-0.204681
-0.185123
-0.163872
-0.141989
-0.120312
-0.0994337
-0.0797449
-0.0614551
-0.04464
-0.0292903
-0.0153487
-0.0027344
0.008642
0.0188706
0.0280384
0.0362281
0.0435173
0.049979
0.0556836
0.0606999
0.0650744
0.0688272
0.0721661
0.075597
0.0777914
-0.227464
-0.224764
-0.219611
-0.21062
-0.1975
-0.180809
-0.161472
-0.14061
-0.119214
-0.0981064
-0.0778717
-0.058872
-0.0412929
-0.0251937
-0.0105541
0.00268983
0.0146227
0.0253358
0.0349201
0.043463
0.0510471
0.0577499
0.063644
0.0687997
0.073285
0.0771445
0.0803997
0.0832709
0.0862652
0.087992
-0.201263
-0.198987
-0.194101
-0.185281
-0.172331
-0.155852
-0.13687
-0.116463
-0.0956316
-0.0751775
-0.0556587
-0.0374118
-0.0206004
-0.00526831
0.00861476
0.0211187
0.0323314
0.0423454
0.0512525
0.0591399
0.0660901
0.0721798
0.0774813
0.0820642
0.0859948
0.0893148
0.0920483
0.0944255
0.0969459
0.098183
-0.173876
-0.172045
-0.167442
-0.158829
-0.146096
-0.129938
-0.111374
-0.0915038
-0.0713183
-0.0515928
-0.0328573
-0.0154227
0.000567879
0.0150853
0.0281689
0.0398938
0.0503503
0.0596324
0.0678318
0.0750357
0.081326
0.0867786
0.0914648
0.0954532
0.0988068
0.101564
0.103754
0.105616
0.107621
0.108301
-0.145374
-0.144039
-0.139729
-0.131351
-0.118914
-0.103137
-0.085069
-0.0658155
-0.0463512
-0.0274237
-0.00953357
0.0070337
0.0221548
0.0358139
0.0480586
0.0589685
0.0686361
0.0771561
0.0846204
0.0911156
0.0967227
0.101517
0.105568
0.108943
0.111699
0.113871
0.115501
0.116833
0.118243
0.118187
-0.115839
-0.115106
-0.111055
-0.102958
-0.0908699
-0.0755414
-0.0580447
-0.0394829
-0.0208102
-0.00274442
0.0142435
0.0298933
0.0441006
0.0568618
0.068232
0.0782945
0.0871436
0.0948745
0.101579
0.107343
0.112247
0.116364
0.119764
0.12251
0.124652
0.126224
0.127289
0.128058
0.128696
0.127669
-0.0855148
-0.0852439
-0.0815271
-0.0737522
-0.0620641
-0.0472498
-0.0303948
-0.0125943
0.00522218
0.022368
0.0384023
0.0530897
0.0663434
0.0781713
0.088635
0.0978213
0.105826
0.112744
0.118667
0.12368
0.127863
0.131288
0.134025
0.13613
0.13765
0.138624
0.139136
0.1393
0.138925
0.136795
-0.0544436
-0.0546047
-0.0512558
-0.04384
-0.0326021
-0.0183635
-0.00221581
0.0147595
0.0316608
0.0478342
0.0628692
0.0765542
0.0888192
0.0996827
0.109212
0.117497
0.124634
0.130718
0.135841
0.140087
0.143534
0.146256
0.148319
0.149778
0.150677
0.151072
0.151069
0.150616
0.149152
0.146117
-0.0227118
-0.0233227
-0.0203547
-0.0133315
-0.00259232
0.011013
0.026393
0.042485
0.0584184
0.0735731
0.0875686
0.100217
0.111463
0.121335
0.129906
0.137268
0.143518
0.148751
0.153058
0.156523
0.159223
0.161231
0.162612
0.163421
0.163703
0.163539
0.163039
0.161949
0.159466
0.157714
0.00955559
0.0084855
0.0110603
0.0176591
0.0278537
0.0407726
0.0553302
0.0704872
0.0854063
0.0995019
0.112424
0.124005
0.134206
0.143065
0.150658
0.157079
0.162426
0.166794
0.170273
0.172946
0.174889
0.176175
0.176868
0.177022
0.176688
0.175958
0.174913
0.173227
0.170412
0.169344
0.0422324
0.0407003
0.0428695
0.0490143
0.0586224
0.0708067
0.0844931
0.0986695
0.112534
0.125537
0.137356
0.147846
0.156983
0.16481
0.17141
0.176876
0.181308
0.1848
0.18744
0.189312
0.190492
0.19105
0.191051
0.190547
0.189596
0.188289
0.186676
0.18444
0.181352
0.180232
0.0751922
0.0731986
0.0749509
0.0806145
0.0895982
0.101005
0.113778
0.126934
0.139711
0.151592
0.162286
0.171667
0.179723
0.186506
0.1921
0.196602
0.20011
0.202718
0.204514
0.20558
0.205991
0.205817
0.205122
0.203959
0.202388
0.200497
0.198317
0.195573
0.192179
0.190731
0.108308
0.105855
0.107181
0.112339
0.120665
0.131257
0.143079
0.155183
0.166845
0.177584
0.187135
0.195393
0.202357
0.208086
0.212668
0.216199
0.218778
0.220498
0.221446
0.221703
0.221344
0.220437
0.219045
0.217222
0.215028
0.212546
0.209801
0.20655
0.202786
0.200908
0.141451
0.138544
0.139434
0.144066
0.151705
0.16145
0.172292
0.183319
0.193844
0.203425
0.211822
0.218949
0.224816
0.229488
0.233053
0.235612
0.23726
0.238092
0.238191
0.23764
0.23651
0.234871
0.232782
0.2303
0.227483
0.224409
0.2211
0.217335
0.213163
0.210806
0.174494
0.171138
0.171587
0.175674
0.182602
0.191475
0.201312
0.211242
0.220618
0.229031
0.236269
0.242262
0.24703
0.250644
0.253196
0.254783
0.255503
0.255448
0.254703
0.253345
0.251449
0.24908
0.246299
0.24316
0.23972
0.236056
0.232182
0.227901
0.223296
0.220437
0.207308
0.20351
0.203514
0.207042
0.213239
0.22122
0.230036
0.238856
0.247075
0.254317
0.260396
0.265257
0.268931
0.271492
0.273034
0.273656
0.273454
0.272518
0.270933
0.268777
0.266119
0.263027
0.259558
0.255767
0.25171
0.247458
0.243023
0.238223
0.233177
0.229802
0.239766
0.235534
0.23509
0.23805
0.243501
0.250576
0.25836
0.266065
0.273126
0.2792
0.284124
0.287861
0.290449
0.291967
0.292509
0.292175
0.29106
0.289253
0.286838
0.283891
0.280482
0.276674
0.272526
0.26809
0.263422
0.258588
0.253596
0.248282
0.242791
0.238893
0.271742