/*--------------------------------*- C++ -*----------------------------------*\
  =========                 |
  \\      /  F ield         | OpenFOAM: The Open Source CFD Toolbox
   \\    /   O peration     | Website:  https://openfoam.org
    \\  /    A nd           | Version:  7
     \\/     M anipulation  |
\*---------------------------------------------------------------------------*/
FoamFile
{
    version     2.0;
    format      ascii;
    class       surfaceScalarField;
    location    "47";
    object      phi;
}
// * * * * * * * * * * * * * * * * * * * * * * * * * * * * * * * * * * * * * //

dimensions      [0 3 -1 0 0 0 0];

internalField   nonuniform List<scalar> 
79480
(
-7.44577e-07
8.08744e-07
-6.4167e-08
-2.86779e-06
2.30708e-06
-1.83866e-07
-6.31877e-06
3.75063e-06
-2.99652e-07
-1.10447e-05
5.13696e-06
-4.11013e-07
-1.69905e-05
6.46325e-06
-5.17486e-07
-2.4099e-05
7.72729e-06
-6.18745e-07
-3.23119e-05
8.92751e-06
-7.14633e-07
-4.15697e-05
1.0063e-05
-8.05172e-07
-5.18126e-05
1.11335e-05
-8.9059e-07
-6.29808e-05
1.21395e-05
-9.71321e-07
-7.50149e-05
1.30821e-05
-1.048e-06
-8.78566e-05
1.39632e-05
-1.12145e-06
-0.000101449
1.47849e-05
-1.19262e-06
-0.000115736
1.555e-05
-1.26256e-06
-0.000130666
1.62616e-05
-1.33237e-06
-0.000146185
1.6923e-05
-1.40308e-06
-0.000162248
1.75379e-05
-1.47566e-06
-0.000178808
1.81108e-05
-1.55088e-06
-0.000195825
1.86472e-05
-1.62933e-06
-0.000213268
1.91538e-05
-1.7113e-06
-0.000231111
1.96403e-05
-1.79682e-06
-0.000249345
2.01194e-05
-1.88557e-06
-0.000267977
2.06081e-05
-1.97689e-06
-0.000287036
2.11289e-05
-2.06977e-06
-0.000306582
2.17093e-05
-2.16283e-06
-0.00032671
2.23822e-05
-2.25426e-06
-0.000347551
2.31831e-05
-2.34182e-06
-0.000369273
2.41442e-05
-2.42275e-06
-0.000392072
2.52928e-05
-2.4935e-06
2.6675e-05
-2.54916e-06
-0.000416198
-7.38771e-07
1.54752e-06
-2.84599e-06
4.41429e-06
-6.27161e-06
7.17625e-06
-1.09635e-05
9.8289e-06
-1.68672e-05
1.23669e-05
-2.39261e-05
1.47861e-05
-3.2082e-05
1.70834e-05
-4.12758e-05
1.92568e-05
-5.14478e-05
2.13055e-05
-6.25381e-05
2.32298e-05
-7.44872e-05
2.50312e-05
-8.72365e-05
2.67124e-05
-0.000100728
2.82768e-05
-0.000114907
2.97286e-05
-0.000129718
3.10726e-05
-0.000145109
3.23141e-05
-0.000161031
3.34596e-05
-0.000177437
3.45166e-05
-0.000194284
3.54949e-05
-0.000211538
3.64075e-05
-0.00022917
3.72727e-05
-0.000247167
3.81156e-05
-0.000265529
3.89704e-05
-0.000284282
3.98823e-05
-0.000303481
4.0908e-05
-0.000323214
4.21153e-05
-0.00034361
4.35787e-05
-0.000364833
4.53677e-05
-0.000387083
4.75422e-05
5.02016e-05
-0.000410609
-7.27653e-07
2.27517e-06
-2.80421e-06
6.49085e-06
-6.18117e-06
1.05532e-05
-1.08077e-05
1.44555e-05
-1.66304e-05
1.81896e-05
-2.35935e-05
2.17492e-05
-3.16395e-05
2.51294e-05
-4.07096e-05
2.8327e-05
-5.07442e-05
3.13401e-05
-6.16834e-05
3.41689e-05
-7.34673e-05
3.68151e-05
-8.60366e-05
3.92817e-05
-9.93329e-05
4.15731e-05
-0.000113299
4.36946e-05
-0.000127879
4.56524e-05
-0.000143018
4.74535e-05
-0.000158665
4.9106e-05
-0.000174768
5.06201e-05
-0.000191282
5.20088e-05
-0.000208165
5.32903e-05
-0.000225382
5.44901e-05
-0.000242911
5.56444e-05
-0.000260744
5.68032e-05
-0.000278895
5.80333e-05
-0.000297407
5.94202e-05
-0.000316359
6.10675e-05
-0.000335872
6.30915e-05
-0.000356107
6.56028e-05
-0.000377263
6.86984e-05
7.25364e-05
-0.000399598
-7.11412e-07
2.98658e-06
-2.74314e-06
8.52258e-06
-6.04885e-06
1.38589e-05
-1.05796e-05
1.89862e-05
-1.62834e-05
2.38934e-05
-2.31057e-05
2.85715e-05
-3.09899e-05
3.30137e-05
-3.98777e-05
3.72148e-05
-4.97096e-05
4.1172e-05
-6.04254e-05
4.48847e-05
-7.19648e-05
4.83544e-05
-8.42674e-05
5.15843e-05
-9.72734e-05
5.45792e-05
-0.000110924
5.7345e-05
-0.00012516
5.98887e-05
-0.000139925
6.22182e-05
-0.000155162
6.43427e-05
-0.000170815
6.62736e-05
-0.000186832
6.80259e-05
-0.000203163
6.96211e-05
-0.000219763
7.10902e-05
-0.000236597
7.24781e-05
-0.000253642
7.38482e-05
-0.000270896
7.52874e-05
-0.000288385
7.69093e-05
-0.000306172
7.88545e-05
-0.000324365
8.12846e-05
-0.00034312
8.43578e-05
-0.000362637
8.82157e-05
9.30839e-05
-0.000383185
-6.90326e-07
3.67691e-06
-2.66377e-06
1.0496e-05
-5.87673e-06
1.70719e-05
-1.02826e-05
2.3392e-05
-1.58311e-05
2.9442e-05
-2.24694e-05
3.52098e-05
-3.01417e-05
4.06859e-05
-3.87902e-05
4.58633e-05
-4.83556e-05
5.07373e-05
-5.87772e-05
5.53064e-05
-6.9994e-05
5.95712e-05
-8.19443e-05
6.35346e-05
-9.45664e-05
6.72013e-05
-0.000107799
7.05773e-05
-0.00012158
7.36697e-05
-0.000135848
7.64861e-05
-0.000150541
7.90358e-05
-0.000165597
8.133e-05
-0.000180955
8.3384e-05
-0.000196554
8.52202e-05
-0.000212336
8.68724e-05
-0.000228249
8.83911e-05
-0.000244251
8.98502e-05
-0.000260318
9.1354e-05
-0.000276451
9.30426e-05
-0.000292691
9.50945e-05
-0.000309128
9.77216e-05
-0.00032591
0.000101139
-0.000343238
0.000105544
0.000111243
-0.000361397
-6.64759e-07
4.34167e-06
-2.5674e-06
1.23987e-05
-5.66752e-06
2.0172e-05
-9.9211e-06
2.76456e-05
-1.52801e-05
3.4801e-05
-2.16931e-05
4.16228e-05
-2.91055e-05
4.80983e-05
-3.74599e-05
5.42177e-05
-4.66971e-05
5.99745e-05
-5.67558e-05
6.53651e-05
-6.75737e-05
7.03891e-05
-7.90875e-05
7.50484e-05
-9.12331e-05
7.9347e-05
-0.000103946
8.32901e-05
-0.00011716
8.6884e-05
-0.000130809
9.01353e-05
-0.000144825
9.30517e-05
-0.000159138
9.56426e-05
-0.000173675
9.79213e-05
-0.000188364
9.99086e-05
-0.000203129
0.000101638
-0.000217898
0.000103161
-0.000232606
0.000104558
-0.000247198
0.000105947
-0.000261647
0.000107491
-0.000275961
0.000109409
-0.000290206
0.000111967
-0.000304516
0.000115449
-0.000319096
0.000120124
0.000126403
-0.000334256
-6.35152e-07
4.97682e-06
-2.45564e-06
1.42191e-05
-5.42454e-06
2.31409e-05
-9.50066e-06
3.17217e-05
-1.46383e-05
3.99386e-05
-2.07875e-05
4.7772e-05
-2.78946e-05
5.52054e-05
-3.59029e-05
6.2226e-05
-4.47526e-05
6.88242e-05
-5.43818e-05
7.49943e-05
-6.47266e-05
8.07339e-05
-7.57215e-05
8.60433e-05
-8.72996e-05
9.09251e-05
-9.93923e-05
9.53829e-05
-0.000111929
9.94211e-05
-0.000124838
0.000103044
-0.000138043
0.000106257
-0.000151465
0.000109064
-0.00016502
0.000111476
-0.000178619
0.000113508
-0.000192169
0.000115188
-0.000205574
0.000116565
-0.000218738
0.000117722
-0.000231574
0.000118782
-0.000244013
0.000119931
-0.000256026
0.000121422
-0.000267643
0.000123583
-0.00027898
0.000126786
-0.000290242
0.000131386
0.000137932
-0.00030177
-6.02021e-07
5.57884e-06
-2.33033e-06
1.59475e-05
-5.15162e-06
2.59622e-05
-9.0276e-06
3.55977e-05
-1.39147e-05
4.48258e-05
-1.97646e-05
5.36219e-05
-2.65245e-05
6.19653e-05
-3.41375e-05
6.9839e-05
-4.25436e-05
7.72302e-05
-5.16795e-05
8.41302e-05
-6.14793e-05
9.05337e-05
-7.1875e-05
9.6439e-05
-8.27958e-05
0.000101846
-9.4169e-05
0.000106756
-0.000105919
0.000111171
-0.000117965
0.000115091
-0.000130225
0.000118516
-0.000142608
0.000121447
-0.000155017
0.000123885
-0.000167347
0.000125838
-0.000179483
0.000127324
-0.000191303
0.000128385
-0.000202677
0.000129095
-0.000213476
0.000129582
-0.000223586
0.000130041
-0.000232925
0.000130761
-0.000241477
0.000132135
-0.000249329
0.000134638
-0.000256685
0.000138742
0.000145166
-0.000263919
-5.65944e-07
6.14478e-06
-2.19354e-06
1.75751e-05
-4.8531e-06
2.86217e-05
-8.50905e-06
3.92536e-05
-1.31199e-05
4.94366e-05
-1.86384e-05
5.91404e-05
-2.50124e-05
6.83393e-05
-3.21848e-05
7.70114e-05
-4.00944e-05
8.51399e-05
-4.86762e-05
9.2712e-05
-5.7862e-05
9.97195e-05
-6.758e-05
0.000106157
-7.77557e-05
0.000112022
-8.83107e-05
0.000117311
-9.91628e-05
0.000122023
-0.000110225
0.000126153
-0.000121404
0.000129695
-0.000132597
0.000132641
-0.000143695
0.000134983
-0.000154573
0.000136715
-0.000165093
0.000137845
-0.000175104
0.000138396
-0.000184439
0.00013843
-0.000192922
0.000138066
-0.000200383
0.000137502
-0.000206677
0.000137054
-0.000211724
0.000137182
-0.000215573
0.000138487
-0.000218415
0.000141584
0.000147391
-0.00022064
-5.27552e-07
6.67234e-06
-2.04757e-06
1.90951e-05
-4.5337e-06
3.11079e-05
-7.95282e-06
4.26728e-05
-1.2265e-05
5.37488e-05
-1.7424e-05
6.42994e-05
-2.33774e-05
7.42927e-05
-3.00675e-05
8.37015e-05
-3.74315e-05
9.25038e-05
-4.5402e-05
0.000100683
-5.39074e-05
0.000108225
-6.28719e-05
0.000115122
-7.22159e-05
0.000121366
-8.18548e-05
0.00012695
-9.1699e-05
0.000131867
-0.000101653
0.000136107
-0.000111612
0.000139654
-0.000121462
0.000142491
-0.000131077
0.000144597
-0.000140313
0.000145952
-0.000149009
0.000146541
-0.000156981
0.000146368
-0.000164022
0.000145471
-0.000169906
0.000143949
-0.000174395
0.000141992
-0.00017727
0.000139929
-0.00017837
0.000138283
-0.000177684
0.0001378
-0.000175381
0.000139282
0.000143829
-0.000171819
-4.87521e-07
7.15986e-06
-1.89482e-06
2.05024e-05
-4.19846e-06
3.34115e-05
-7.36722e-06
4.58415e-05
-1.13623e-05
5.77438e-05
-1.61375e-05
6.90746e-05
-2.16399e-05
7.97951e-05
-2.78102e-05
8.98719e-05
-3.45833e-05
9.9277e-05
-4.18887e-05
0.000107988
-4.96505e-05
0.000115987
-5.7788e-05
0.000123259
-6.62153e-05
0.000129793
-7.48406e-05
0.000135575
-8.35657e-05
0.000140592
-9.22847e-05
0.000144826
-0.000100882
0.000148251
-0.000109229
0.000150838
-0.000117182
0.00015255
-0.000124578
0.000153348
-0.000131229
0.000153192
-0.000136919
0.000152058
-0.000141398
0.00014995
-0.000144384
0.000146935
-0.00014557
0.000143178
-0.000144645
0.000139003
-0.000141346
0.000134984
-0.000135578
0.000132032
-0.000127496
0.000131199
0.000133628
-0.000117294
-4.46553e-07
7.60641e-06
-1.73783e-06
2.17936e-05
-3.85262e-06
3.55263e-05
-6.76093e-06
4.87498e-05
-1.04242e-05
6.14071e-05
-1.47956e-05
7.34461e-05
-1.98209e-05
8.48203e-05
-2.54383e-05
9.54892e-05
-3.15794e-05
0.000105418
-3.81695e-05
0.000114578
-4.51278e-05
0.000122945
-5.2367e-05
0.000130498
-5.9794e-05
0.00013722
-6.73082e-05
0.00014309
-7.48016e-05
0.000148086
-8.21565e-05
0.00015218
-8.92434e-05
0.000155338
-9.59187e-05
0.000157513
-0.00010202
0.000158652
-0.000107362
0.00015869
-0.000111731
0.00015756
-0.000114875
0.000155202
-0.000116502
0.000151577
-0.000116271
0.000146705
-0.000113798
0.000140704
-0.000108671
0.000133876
-0.000100503
0.000126817
-8.90633e-05
0.000120592
-7.45836e-05
0.000116719
0.000116057
-5.70127e-05
-4.05364e-07
8.01178e-06
-1.57915e-06
2.29674e-05
-3.50152e-06
3.74487e-05
-6.14271e-06
5.1391e-05
-9.46349e-06
6.47279e-05
-1.34155e-05
7.73981e-05
-1.79419e-05
8.93467e-05
-2.29775e-05
0.000100525
-2.84497e-05
0.00011089
-3.42782e-05
0.000120407
-4.03758e-05
0.000129042
-4.66477e-05
0.00013677
-5.29918e-05
0.000143564
-5.92973e-05
0.000149395
-6.5444e-05
0.000154232
-7.13006e-05
0.000158037
-7.67221e-05
0.000160759
-8.15468e-05
0.000162338
-8.55918e-05
0.000162697
-8.86476e-05
0.000161746
-9.04711e-05
0.000159384
-9.07767e-05
0.000155507
-8.92268e-05
0.000150027
-8.54219e-05
0.0001429
-7.88967e-05
0.000134179
-6.91314e-05
0.000124111
-5.55956e-05
0.000113281
-3.78122e-05
0.000102809
-1.56095e-05
9.45165e-05
9.23071e-05
8.1401e-06
-3.64665e-07
8.37644e-06
-1.42133e-06
2.40241e-05
-3.1504e-06
3.91777e-05
-5.52125e-06
5.37619e-05
-8.49279e-06
6.76994e-05
-1.20139e-05
8.09192e-05
-1.6024e-05
9.33568e-05
-2.04533e-05
0.000104954
-2.52234e-05
0.00011566
-3.02475e-05
0.000125431
-3.54303e-05
0.000134225
-4.06678e-05
0.000142008
-4.5847e-05
0.000148743
-5.08448e-05
0.000154393
-5.55268e-05
0.000158914
-5.97454e-05
0.000162256
-6.33371e-05
0.000164351
-6.61191e-05
0.00016512
-6.78848e-05
0.000164463
-6.83977e-05
0.000162259
-6.73831e-05
0.000158369
-6.45185e-05
0.000152643
-5.94207e-05
0.00014493
-5.16314e-05
0.00013511
-4.06047e-05
0.000123152
-2.57064e-05
0.000109213
-6.25033e-06
9.38247e-05
1.83883e-05
7.81701e-05
4.84569e-05
6.44479e-05
5.76246e-05
8.31393e-05
-3.25142e-07
8.70158e-06
-1.26682e-06
2.49658e-05
-2.80433e-06
4.07153e-05
-4.90484e-06
5.58624e-05
-7.52406e-06
7.03186e-05
-1.06067e-05
8.40019e-05
-1.40872e-05
9.68372e-05
-1.78895e-05
0.000108757
-2.19283e-05
0.000119699
-2.61082e-05
0.000129611
-3.03244e-05
0.000138441
-3.44616e-05
0.000146145
-3.83939e-05
0.000152675
-4.19832e-05
0.000157982
-4.50783e-05
0.000162009
-4.75118e-05
0.000164689
-4.90982e-05
0.000165938
-4.96298e-05
0.000165652
-4.88717e-05
0.000163705
-4.65559e-05
0.000159943
-4.23723e-05
0.000154185
-3.59577e-05
0.000146228
-2.68814e-05
0.000135853
-1.46263e-05
0.000122855
1.43188e-06
0.000107094
2.20403e-05
8.86042e-05
4.80576e-05
6.78074e-05
8.03259e-05
4.59017e-05
0.000119307
2.54665e-05
1.22763e-05
0.000164656
-2.87437e-07
8.98902e-06
-1.11786e-06
2.57962e-05
-2.46795e-06
4.20653e-05
-4.30109e-06
5.76955e-05
-6.56826e-06
7.25858e-05
-9.20853e-06
8.66422e-05
-1.21495e-05
9.97782e-05
-1.53078e-05
0.000111915
-1.85889e-05
0.00012298
-2.18874e-05
0.000132909
-2.50868e-05
0.000141641
-2.80584e-05
0.000149117
-3.06606e-05
0.000155277
-3.27378e-05
0.000160059
-3.41179e-05
0.00016339
-3.46103e-05
0.000165182
-3.4003e-05
0.00016533
-3.20579e-05
0.000163707
-2.85064e-05
0.000160153
-2.30429e-05
0.000154479
-1.53154e-05
0.000146458
-4.91487e-06
0.000135828
8.64125e-06
0.000122297
2.59299e-05
0.000105567
4.76502e-05
8.5374e-05
7.46558e-05
6.15986e-05
0.000107971
3.44919e-05
0.000148696
5.17747e-06
0.000197676
-2.35139e-05
-4.4827e-05
0.000254779
-2.52119e-07
9.24114e-06
-9.76458e-07
2.65205e-05
-2.14531e-06
4.32342e-05
-3.71658e-06
5.92668e-05
-5.63479e-06
7.4504e-05
-7.83163e-06
8.8839e-05
-1.02263e-05
0.000102173
-1.27259e-05
0.000114414
-1.52253e-05
0.00012548
-1.76068e-05
0.000135291
-1.97398e-05
0.000143774
-2.14796e-05
0.000150856
-2.26663e-05
0.000156464
-2.31227e-05
0.000160516
-2.26525e-05
0.000162919
-2.10369e-05
0.000163566
-1.80317e-05
0.000162325
-1.33625e-05
0.000159037
-6.71983e-06
0.00015351
2.24774e-06
0.000145512
1.39421e-05
0.000134764
2.88269e-05
0.000120943
4.7443e-05
0.000103681
7.04309e-05
8.25787e-05
9.85623e-05
5.72427e-05
0.000132784
2.73768e-05
0.000174269
-6.99342e-06
0.00022438
-4.49335e-05
0.000284367
-8.35002e-05
-0.00011503
0.00035457
-2.19661e-07
9.4608e-06
-8.44234e-07
2.71451e-05
-1.83968e-06
4.42297e-05
-3.15653e-06
6.05836e-05
-4.73099e-06
7.60785e-05
-6.48548e-06
9.05935e-05
-8.32896e-06
0.000104016
-1.0157e-05
0.000116242
-1.18515e-05
0.000127174
-1.32804e-05
0.00013672
-1.42965e-05
0.00014479
-1.4736e-05
0.000151296
-1.44172e-05
0.000156145
-1.31376e-05
0.000159236
-1.06718e-05
0.000160453
-6.76748e-06
0.000159662
-1.14189e-06
0.000156699
6.52309e-06
0.000151372
1.65865e-05
0.000143447
2.94548e-05
0.000132643
4.55908e-05
0.000118628
6.55231e-05
0.00010101
8.98616e-05
7.93426e-05
0.000119317
5.31232e-05
0.000154733
2.18266e-05
0.000197136
-1.50264e-05
0.000247816
-5.76726e-05
0.000308364
-0.000105482
0.000380433
-0.000155569
-0.000199732
0.000465136
-1.90416e-07
9.65122e-06
-7.22351e-07
2.7677e-05
-1.55333e-06
4.50606e-05
-2.62443e-06
6.16547e-05
-3.86156e-06
7.73156e-05
-5.17583e-06
9.19078e-05
-6.46384e-06
0.000105304
-7.6075e-06
0.000117386
-8.47358e-06
0.00012804
-8.9128e-06
0.000137159
-8.7584e-06
0.000144635
-7.82442e-06
0.000150362
-5.90327e-06
0.000154224
-2.76284e-06
0.000156096
1.85685e-06
0.000155834
8.24772e-06
0.000153271
1.67382e-05
0.000148209
2.76987e-05
0.000140412
4.15473e-05
0.000129599
5.87567e-05
0.000115434
7.98622e-05
9.75221e-05
0.000105471
7.54016e-05
0.000136274
4.85393e-05
0.000173064
1.63339e-05
0.000216758
-2.18676e-05
0.00026845
-6.67185e-05
0.000329503
-0.000118726
0.000401675
-0.000177654
0.000486962
-0.000240857
-0.000300308
0.000587539
-1.64586e-07
9.8158e-06
-6.11408e-07
2.81239e-05
-1.28728e-06
4.57365e-05
-2.12167e-06
6.24891e-05
-3.028e-06
7.82219e-05
-3.90393e-06
9.27837e-05
-4.63144e-06
0.000106032
-5.07644e-06
0.000117831
-5.08786e-06
0.000128052
-4.4965e-06
0.000136567
-3.11262e-06
0.000143251
-7.24392e-07
0.000147974
2.90595e-06
0.000150594
8.04533e-06
0.000150956
1.49941e-05
0.000148885
2.40906e-05
0.000144174
3.57171e-05
0.000136582
5.03052e-05
0.000125824
6.83424e-05
0.000111561
9.03794e-05
9.33968e-05
0.000117037
7.08646e-05
0.000149014
4.34245e-05
0.000187097
1.04568e-05
0.000232169
-2.87382e-05
0.000285231
-7.49295e-05
0.000347433
-0.00012892
0.000420166
-0.000191459
0.000505263
-0.000262751
0.000604929
-0.000340522
-0.000417999
0.00072262
-1.42197e-07
9.958e-06
-5.11352e-07
2.8493e-05
-1.04117e-06
4.62663e-05
-1.64722e-06
6.30952e-05
-2.22813e-06
7.88028e-05
-2.66582e-06
9.32214e-05
-2.82523e-06
0.000106191
-2.55371e-06
0.00011756
-1.67929e-06
0.000127177
-9.52379e-09
0.000134898
2.67087e-06
0.000140571
6.60496e-06
0.00014404
1.20653e-05
0.000145134
1.93591e-05
0.000143663
2.88337e-05
0.000139411
4.08815e-05
0.000132126
5.59467e-05
0.000121517
7.45318e-05
0.000107239
9.72045e-05
8.88886e-05
0.000124605
6.59967e-05
0.00015745
3.80188e-05
0.000196545
4.33012e-06
0.00024278
-3.57785e-05
0.000297142
-8.31004e-05
0.000360717
-0.000138505
0.000434706
-0.000202909
0.000520483
-0.000277237
0.000619845
-0.000362112
0.000735012
-0.00045569
-0.000553776
0.000870788
-1.23081e-07
1.00811e-05
-4.214e-07
2.87913e-05
-8.13051e-07
4.6658e-05
-1.19731e-06
6.34794e-05
-1.45564e-06
7.90612e-05
-1.45171e-06
9.32175e-05
-1.03079e-06
0.00010577
-1.86029e-08
0.000116547
1.77976e-06
0.000125379
4.58415e-06
0.000132093
8.64113e-06
0.000136514
1.42278e-05
0.000138453
2.16572e-05
0.000137704
3.12834e-05
0.000134036
4.35074e-05
0.000127187
5.87837e-05
0.00011685
7.76276e-05
0.000102673
0.000100622
8.42446e-05
0.000128424
6.10865e-05
0.000161773
3.26476e-05
0.000201495
-1.70283e-06
0.000248504
-4.2679e-05
0.000303805
-9.10797e-05
0.000368488
-0.000147784
0.000443722
-0.000213739
0.000530744
-0.000289931
0.000630874
-0.000377367
0.000745748
-0.000476986
0.000877391
-0.000587333
-0.000708157
0.00103177
-1.06854e-07
1.01879e-05
-3.39974e-07
2.90245e-05
-5.99281e-07
4.69173e-05
-7.65259e-07
6.36454e-05
-6.99727e-07
7.89956e-05
-2.4545e-07
9.27632e-05
7.74588e-07
0.00010475
2.5591e-06
0.000114763
5.3311e-06
0.000122607
9.34048e-06
0.000128084
1.48688e-05
0.000130986
2.22335e-05
0.000131088
3.17941e-05
0.000128144
4.39578e-05
0.000121873
5.91872e-05
0.000111957
7.80068e-05
9.80304e-05
0.000101011
7.96687e-05
0.000128873
5.6383e-05
0.000162348
2.76115e-05
0.000202282
-7.2862e-06
0.000249612
-4.90331e-05
0.000305367
-9.84344e-05
0.000370661
-0.000156373
0.000446676
-0.000223798
0.000534643
-0.000301706
0.00063581
-0.000391098
0.000751401
-0.000492958
0.000882756
-0.000608341
0.00103154
-0.000736119
-0.000880988
0.00120437
-9.29116e-08
1.02808e-05
-2.64673e-07
2.91962e-05
-3.94432e-07
4.7047e-05
-3.41325e-07
6.35923e-05
5.51474e-08
7.85992e-05
9.75614e-07
9.18427e-05
2.62281e-06
0.000103103
5.22335e-06
0.000112162
9.0312e-06
0.000118799
1.43316e-05
0.000122784
2.14459e-05
0.000123871
3.07377e-05
0.000121796
4.26191e-05
0.000116262
5.75579e-05
0.000106934
7.60855e-05
9.34296e-05
9.88048e-05
7.53111e-05
0.000126398
5.20754e-05
0.000159634
2.31471e-05
0.000199373
-1.21272e-05
0.000246569
-5.44829e-05
0.000302272
-0.000104736
0.000367615
-0.000163777
0.000443802
-0.00023256
0.000532081
-0.000312077
0.000633703
-0.000403329
0.000749873
-0.000507268
0.000881664
-0.000624749
0.00102998
-0.000756653
0.00119607
-0.000902212
-0.00107117
0.00138625
-8.04187e-08
1.03613e-05
-1.92264e-07
2.93081e-05
-1.9133e-07
4.70461e-05
8.72616e-08
6.33137e-05
8.28798e-07
7.78576e-05
2.24076e-06
9.04308e-05
4.55438e-06
0.00010079
8.02793e-06
0.000108689
1.29507e-05
0.000113876
1.96477e-05
0.000116086
2.84861e-05
0.000115033
3.98813e-05
0.000110401
5.43048e-05
0.000101839
7.22922e-05
8.89465e-05
9.44513e-05
7.12704e-05
0.000121471
4.82918e-05
0.000154126
1.94197e-05
0.000193288
-1.60144e-05
0.000239921
-5.87607e-05
0.000295087
-0.000109649
0.000359933
-0.000169582
0.000435677
-0.000239521
0.00052358
-0.000320463
0.000624903
-0.0004134
0.000740852
-0.000519277
0.000872498
-0.000638914
0.00102069
-0.000772944
0.00118574
-0.000921702
0.00136861
-0.00108508
-0.00127637
0.0015738
-6.83272e-08
1.04296e-05
-1.18707e-07
2.93584e-05
1.91368e-08
4.69083e-05
5.36139e-07
6.27967e-05
1.64593e-06
7.67478e-05
3.58544e-06
8.84913e-05
6.61812e-06
9.77569e-05
1.10378e-05
0.000104269
1.71736e-05
0.00010774
2.53958e-05
0.000107864
3.61225e-05
0.000104306
4.98277e-05
9.66961e-05
6.70491e-05
8.46173e-05
8.8397e-05
6.75986e-05
0.000114562
4.5105e-05
0.000146325
1.65294e-05
0.000184558
-1.88133e-05
0.000230232
-6.16888e-05
0.000284414
-0.000112943
0.000348257
-0.000173491
0.000422984
-0.000244309
0.00050986
-0.000326398
0.000610149
-0.000420752
0.000725052
-0.000528304
0.000855632
-0.000649857
0.00100272
-0.000785998
0.00116683
-0.000937054
0.00134754
-0.00110241
0.00154577
-0.00128331
-0.00149272
0.00176212
-5.54125e-08
1.0485e-05
-3.93631e-08
2.93424e-05
2.46712e-07
4.66222e-05
1.02348e-06
6.202e-05
2.53479e-06
7.52365e-05
5.05056e-06
8.59755e-05
8.87017e-06
9.39372e-05
1.43273e-05
9.88119e-05
2.17957e-05
0.000100272
3.16962e-05
9.79638e-05
4.45041e-05
9.14984e-05
6.07582e-05
8.0442e-05
8.10689e-05
6.43066e-05
0.000106127
4.25404e-05
0.000136712
1.452e-05
0.000173697
-2.04557e-05
0.000218053
-6.31688e-05
0.000270844
-0.00011448
0.000333224
-0.000175322
0.000406413
-0.00024668
0.000491671
-0.000329568
0.000590256
-0.000424982
0.000703358
-0.000533854
0.000832025
-0.00065697
0.00097706
-0.000794892
0.00113891
-0.000947848
0.00131762
-0.00111576
0.00151199
-0.00129679
0.00172313
-0.00149444
-0.00171475
0.00194516
-4.02654e-08
1.05253e-05
5.10989e-08
2.9251e-05
5.03636e-07
4.61696e-05
1.56971e-06
6.09539e-05
3.52692e-06
7.32793e-05
6.68145e-06
8.2821e-05
1.13725e-05
8.92462e-05
1.7978e-05
9.22064e-05
2.69214e-05
9.13286e-05
3.86796e-05
8.62057e-05
5.3791e-05
7.6387e-05
7.2865e-05
6.1368e-05
9.65903e-05
4.05813e-05
0.000125743
1.33877e-05
0.000161193
-2.09295e-05
0.000203905
-6.31678e-05
0.000254939
-0.000114204
0.000315442
-0.000174983
0.000386625
-0.000246505
0.000469739
-0.000329794
0.000566024
-0.000425853
0.000676653
-0.000535612
0.000802652
-0.000659853
0.000944802
-0.00079912
0.00110353
-0.000953616
0.00127877
-0.00112309
0.0014699
-0.00130689
0.0016751
-0.00150199
0.00189525
-0.00171459
-0.00193554
0.00211604
-2.13651e-08
1.05466e-05
1.58416e-07
2.90713e-05
8.02159e-07
4.55259e-05
2.1966e-06
5.95594e-05
4.65607e-06
7.08198e-05
8.5265e-06
7.89505e-05
1.41909e-05
8.35818e-05
2.20761e-05
8.43212e-05
3.26603e-05
8.07444e-05
4.64817e-05
7.23844e-05
6.41473e-05
5.87213e-05
8.63422e-05
3.91731e-05
0.000113837
1.30863e-05
0.000147495
-2.02702e-05
0.000188274
-6.17081e-05
0.000237224
-0.000112118
0.00029548
-0.000172459
0.000364241
-0.000243744
0.000444741
-0.000327006
0.000538203
-0.000423255
0.000645774
-0.000533424
0.000768452
-0.00065829
0.000906986
-0.000798387
0.00106177
-0.000953905
0.00123274
-0.00112459
0.00141926
-0.00130961
0.00161997
-0.0015076
0.00183271
-0.00171473
0.00205632
-0.00193821
-0.00214672
0.0022675
2.87481e-09
1.05438e-05
2.88564e-07
2.87856e-05
1.15528e-06
4.46592e-05
2.92678e-06
5.77879e-05
5.95709e-06
6.77895e-05
1.06355e-05
7.42721e-05
1.73928e-05
7.68244e-05
2.67093e-05
7.50048e-05
3.91227e-05
6.83311e-05
5.52374e-05
5.62696e-05
7.57337e-05
3.82251e-05
0.000101375
1.35314e-05
0.000133017
-1.85551e-05
0.000171605
-5.88586e-05
0.000218179
-0.000108282
0.00027386
-0.000167798
0.00033983
-0.00023843
0.000417306
-0.00032122
0.000507487
-0.000417187
0.000611497
-0.000527265
0.000730302
-0.000652229
0.000864615
-0.000792603
0.00101479
-0.000948563
0.00118073
-0.00111984
0.00136177
-0.00130563
0.00155667
-0.00150452
0.00176348
-0.0017144
0.00198036
-0.00193162
0.00220192
-0.00215977
-0.00233981
0.00239502
3.40409e-08
1.05097e-05
4.47489e-07
2.83721e-05
1.576e-06
4.35307e-05
3.78284e-06
5.55811e-05
7.46471e-06
6.41077e-05
1.30577e-05
6.86791e-05
2.10446e-05
6.88375e-05
3.19631e-05
6.40863e-05
4.64148e-05
5.38793e-05
6.50747e-05
3.76098e-05
8.86987e-05
1.46011e-05
0.000118131
-1.59007e-05
0.000154306
-5.47304e-05
0.000198249
-0.000102802
0.000251065
-0.000161098
0.000313919
-0.000230653
0.000388009
-0.00031252
0.000474513
-0.000407724
0.000574531
-0.000517205
0.000689001
-0.000641735
0.000818603
-0.000781831
0.000963655
-0.000937655
0.00112401
-0.00110892
0.00129896
-0.0012948
0.00148721
-0.00149387
0.00168685
-0.00170416
0.00189541
-0.00192296
0.00211132
-0.00214753
0.00232895
-0.00237741
-0.00258345
0.00257259
7.36815e-08
1.0436e-05
6.40995e-07
2.78048e-05
2.07692e-06
4.20947e-05
4.78659e-06
5.28714e-05
9.2123e-06
5.96819e-05
1.58403e-05
6.20511e-05
2.52089e-05
5.9469e-05
3.79171e-05
5.13781e-05
5.4634e-05
3.71623e-05
7.61073e-05
1.61365e-05
0.00010317
-1.24612e-05
0.000136742
-4.94736e-05
0.000177835
-9.5823e-05
0.000227535
-0.000152502
0.000286992
-0.000220554
0.000357381
-0.000301043
0.000439865
-0.000395003
0.000535521
-0.00050338
0.000645266
-0.00062695
0.000769759
-0.000766228
0.000909291
-0.000921363
0.00106368
-0.00109205
0.00123219
-0.00127743
0.00141346
-0.00147607
0.00160552
-0.00168592
0.00180585
-0.00190449
0.00201157
-0.00212868
0.00222023
-0.00235618
0.00242709
-0.00258427
-0.00279972
0.00264336
1.23239e-07
1.03128e-05
8.74496e-07
2.70535e-05
2.66976e-06
4.02995e-05
5.95828e-06
4.95829e-05
1.12306e-05
5.44096e-05
1.90263e-05
5.42555e-05
2.99421e-05
4.85531e-05
4.46416e-05
3.66785e-05
6.38635e-05
1.79404e-05
8.84287e-05
-8.4286e-06
0.000119244
-4.32767e-05
0.000157303
-8.75322e-05
0.000203675
-0.000142195
0.000259491
-0.000208318
0.00032591
-0.000286973
0.000404076
-0.000379209
0.000495053
-0.00048598
0.000599745
-0.000608072
0.000718798
-0.000746003
0.000852493
-0.000899923
0.00100064
-0.00106951
0.00116249
-0.00125389
0.00133665
-0.00145159
0.00152112
-0.00166054
0.00171332
-0.00187812
0.00191026
-0.00210143
0.00210877
-0.00232719
0.00230579
-0.0025532
0.00249764
-0.00277612
-0.00299005
0.00268797
1.84015e-07
1.01288e-05
1.15286e-06
2.60847e-05
3.36505e-06
3.80873e-05
7.31594e-06
4.5632e-05
1.35468e-05
4.81788e-05
2.26528e-05
4.51495e-05
3.52921e-05
3.59138e-05
5.21944e-05
1.97762e-05
7.41683e-05
-4.03346e-06
0.000102106
-3.63662e-05
0.000136983
-7.81537e-05
0.000179852
-0.000130401
0.000231824
-0.000194168
0.000294044
-0.000270538
0.000367642
-0.000360571
0.00045367
-0.000465237
0.000553029
-0.000585339
0.000666365
-0.000721408
0.000793965
-0.000873603
0.000935648
-0.00104161
0.00109067
-0.00122453
0.00125767
-0.00142089
0.00143463
-0.00162856
0.00161898
-0.00184489
0.0018077
-0.00206684
0.00199753
-0.00229126
0.00218527
-0.00251493
0.0023679
-0.00273583
0.0025425
-0.00295072
-0.00315839
0.00271084
2.57134e-07
9.87165e-06
1.4803e-06
2.48615e-05
4.17179e-06
3.53958e-05
8.87483e-06
4.0929e-05
1.61833e-05
4.08703e-05
2.67502e-05
3.45826e-05
4.12962e-05
2.13678e-05
6.06175e-05
4.54926e-07
8.55909e-05
-2.90068e-05
0.000117174
-6.79498e-05
0.000156402
-0.000117381
0.000204369
-0.000178367
0.000262202
-0.000252001
0.000331021
-0.000339356
0.000411874
-0.000441424
0.000505664
-0.000559027
0.000613049
-0.000692723
0.000734336
-0.000842695
0.000869375
-0.00100864
0.00101746
-0.00118969
0.00117725
-0.00138433
0.0013468
-0.00159043
0.00152354
-0.0018053
0.00170449
-0.00202583
0.00188639
-0.00224875
0.00206601
-0.00247088
0.00224043
-0.00268935
0.00240709
-0.00290249
0.00256403
-0.00310766
-0.00330663
0.00271227
3.43531e-07
9.52812e-06
1.86026e-06
2.33448e-05
5.09729e-06
3.21588e-05
1.0647e-05
3.53792e-05
1.91575e-05
3.23599e-05
3.13404e-05
2.23996e-05
4.79794e-05
4.72878e-06
6.99354e-05
-2.15011e-05
9.81487e-05
-5.72201e-05
0.000133635
-0.000103436
0.00017747
-0.000161217
0.000230768
-0.000231666
0.000294639
-0.000315872
0.000370132
-0.000414849
0.000458156
-0.000529449
0.000559394
-0.000660265
0.000674186
-0.000807516
0.000802429
-0.000970938
0.00094347
-0.00114968
0.00109604
-0.00134226
0.00125825
-0.00154653
0.00142759
-0.00175978
0.00160113
-0.00197884
0.00177564
-0.00220035
0.00194794
-0.00242104
0.00211506
-0.002638
0.00227462
-0.0028489
0.0024248
-0.00305267
0.00256465
-0.00324751
-0.00343709
0.00269512
4.4394e-07
9.08418e-06
2.2954e-06
2.14933e-05
6.14702e-06
2.83071e-05
1.26413e-05
2.8885e-05
2.24809e-05
2.25203e-05
3.64366e-05
8.44391e-06
5.53533e-05
-1.41879e-05
8.01528e-05
-4.63006e-05
0.000111831
-8.88986e-05
0.000151448
-0.000143052
0.000200101
-0.000209871
0.000258895
-0.000290459
0.000328878
-0.000385856
0.000410978
-0.000496949
0.000505905
-0.000624376
0.000614048
-0.000768407
0.000735363
-0.000928831
0.000869276
-0.00110485
0.0010146
-0.00129501
0.00116953
-0.00149719
0.00133164
-0.00170865
0.00149806
-0.0019262
0.00166563
-0.00214641
0.00183117
-0.00236589
0.00199175
-0.00258162
0.00214495
-0.00279121
0.00228909
-0.00299304
0.00242318
-0.00318676
0.0025472
-0.00337153
-0.00355213
0.00266223
5.58905e-07
8.52527e-06
2.78762e-06
1.92646e-05
7.32461e-06
2.37702e-05
1.48627e-05
2.13469e-05
2.61593e-05
1.12237e-05
4.20426e-05
-7.43941e-06
6.34156e-05
-3.55608e-05
9.12543e-05
-7.41393e-05
0.000126599
-0.000124244
0.000170535
-0.000186988
0.000224158
-0.000263493
0.000288522
-0.000354823
0.000364573
-0.000461907
0.000453057
-0.000585433
0.00055442
-0.000725738
0.000668694
-0.000882681
0.000795396
-0.00105553
0.000933446
-0.0012429
0.00108113
-0.0014427
0.00123615
-0.0016522
0.0013957
-0.0018682
0.00155668
-0.00208718
0.00171593
-0.00230566
0.00187054
-0.0025205
0.00201807
-0.00272914
0.00215677
-0.00292991
0.00228573
-0.003122
0.00240478
-0.00330581
0.00251463
-0.00348138
-0.00365404
0.00261654
6.88797e-07
7.83647e-06
3.33803e-06
1.66154e-05
8.63184e-06
1.84763e-05
1.7313e-05
1.26657e-05
3.01923e-05
-1.65559e-06
4.81525e-05
-2.53997e-05
7.2149e-05
-5.95573e-05
0.000103203
-0.000105193
0.000142383
-0.000163424
0.000190778
-0.000235383
0.000249447
-0.000322163
0.000319357
-0.000424733
0.000401295
-0.000543845
0.000495771
-0.000679908
0.000602902
-0.00083287
0.000722314
-0.00100209
0.000853046
-0.00118627
0.000993515
-0.00138337
0.00114153
-0.00159071
0.00129439
-0.00180506
0.00144906
-0.00202287
0.00160243
-0.00224054
0.00175155
-0.00245478
0.00189395
-0.0026629
0.00202783
-0.00286302
0.00215218
-0.00305426
0.00226683
-0.00323665
0.00237229
-0.00341127
0.0024698
-0.00357889
-0.00374499
0.00256076
8.33823e-07
7.00265e-06
3.94705e-06
1.35022e-05
1.00687e-05
1.23547e-05
1.99903e-05
2.74408e-06
3.45733e-05
-1.62386e-05
5.47506e-05
-4.55769e-05
8.15217e-05
-8.63285e-05
0.000115939
-0.000139611
0.000159083
-0.000206567
0.000212015
-0.000288316
0.000275724
-0.000385872
0.000351041
-0.00050005
0.000438543
-0.000631347
0.000538444
-0.000779809
0.000650486
-0.000944912
0.000773847
-0.00112545
0.000907085
-0.0013195
0.00104815