/*--------------------------------*- C++ -*----------------------------------*\
  =========                 |
  \\      /  F ield         | OpenFOAM: The Open Source CFD Toolbox
   \\    /   O peration     | Website:  https://openfoam.org
    \\  /    A nd           | Version:  7
     \\/     M anipulation  |
\*---------------------------------------------------------------------------*/
FoamFile
{
    version     2.0;
    format      ascii;
    class       volScalarField;
    location    "65";
    object      p;
}
// * * * * * * * * * * * * * * * * * * * * * * * * * * * * * * * * * * * * * //

dimensions      [0 2 -2 0 0 0 0];

internalField   nonuniform List<scalar> 
928
(
-0.0115674
-0.0113194
-0.0110749
-0.0108338
-0.0105961
-0.0115706
-0.0113226
-0.011078
-0.0108369
-0.010599
-0.011577
-0.0113289
-0.0110842
-0.0108429
-0.010605
-0.0115867
-0.0113383
-0.0110935
-0.010852
-0.0106139
-0.0115995
-0.0113509
-0.0111058
-0.0108641
-0.0106257
-0.0116155
-0.0113666
-0.0111212
-0.0108792
-0.0106406
-0.0116348
-0.0113855
-0.0111397
-0.0108974
-0.0106583
-0.0116571
-0.0114074
-0.0111612
-0.0109185
-0.010679
-0.0116827
-0.0114325
-0.0111858
-0.0109426
-0.0107027
-0.0117114
-0.0114607
-0.0112134
-0.0109696
-0.0107292
-0.0117432
-0.0114919
-0.011244
-0.0109996
-0.0107586
-0.0117782
-0.0115261
-0.0112776
-0.0110326
-0.0107909
-0.0118162
-0.0115634
-0.0113142
-0.0110684
-0.0108261
-0.010587
-0.0118573
-0.0116037
-0.0113537
-0.0111072
-0.010864
-0.0106243
-0.011647
-0.0113961
-0.0111488
-0.0109048
-0.0106643
-0.0116932
-0.0114415
-0.0111932
-0.0109484
-0.010707
-0.0117424
-0.0114896
-0.0112405
-0.0109947
-0.0107524
-0.0117944
-0.0115407
-0.0112905
-0.0110438
-0.0108005
-0.0118493
-0.0115945
-0.0113433
-0.0110955
-0.0108512
-0.011907
-0.0116511
-0.0113987
-0.0111499
-0.0109046
-0.0119675
-0.0117104
-0.0114569
-0.0112069
-0.0109605
-0.0120307
-0.0117723
-0.0115176
-0.0112665
-0.0110189
-0.0120966
-0.0118369
-0.011581
-0.0113286
-0.0110798
-0.0119041
-0.0116469
-0.0113932
-0.0111431
-0.0108965
-0.0119739
-0.0117153
-0.0114603
-0.0112089
-0.010961
-0.012046
-0.011786
-0.0115296
-0.0112769
-0.0110276
-0.01212
-0.0118585
-0.0116008
-0.0113466
-0.011096
-0.0121976
-0.0119347
-0.0116755
-0.0114199
-0.0111679
-0.0122853
-0.0120205
-0.0117596
-0.0115023
-0.0112486
-0.0123691
-0.0121026
-0.0118399
-0.0115809
-0.0113255
-0.0124024
-0.0121358
-0.0118731
-0.0116141
-0.0113587
-0.0125601
-0.0122912
-0.0120261
-0.0117647
-0.011507
-0.0127076
-0.0124366
-0.0121694
-0.011906
-0.0116463
-0.0128604
-0.0125873
-0.0123181
-0.0120526
-0.0117909
-0.0130231
-0.0127478
-0.0124763
-0.0122087
-0.0119448
-0.013194
-0.0129164
-0.0126426
-0.0123727
-0.0121065
-0.0133728
-0.0130927
-0.0128166
-0.0125443
-0.0122757
-0.0135591
-0.0132765
-0.0129979
-0.0127231
-0.0124521
-0.0137525
-0.0134673
-0.0131861
-0.0129088
-0.0126353
-0.0139524
-0.0136646
-0.0133808
-0.0131008
-0.0128247
-0.0141584
-0.0138678
-0.0135813
-0.0132987
-0.0130199
-0.0143696
-0.0140764
-0.0137871
-0.0135017
-0.0132202
-0.0145856
-0.0142895
-0.0139975
-0.0137094
-0.0134251
-0.0148056
-0.0145067
-0.0142119
-0.013921
-0.0136339
-0.0150288
-0.0147271
-0.0144295
-0.0141358
-0.013846
-0.0152546
-0.0149501
-0.0146497
-0.0143532
-0.0140605
-0.0154822
-0.0151749
-0.0148717
-0.0145724
-0.014277
-0.0157109
-0.0154009
-0.0150949
-0.0147928
-0.0144946
-0.01594
-0.0156272
-0.0153185
-0.0150137
-0.0147127
-0.0161688
-0.0158533
-0.0155419
-0.0152343
-0.0149307
-0.0163966
-0.0160785
-0.0157644
-0.0154542
-0.0151479
-0.0166228
-0.0163021
-0.0159854
-0.0156726
-0.0153637
-0.0168468
-0.0165235
-0.0162043
-0.015889
-0.0155776
-0.017068
-0.0167423
-0.0164206
-0.0161029
-0.015789
-0.0172859
-0.0169579
-0.0166338
-0.0163137
-0.0159974
-0.0175
-0.0171697
-0.0168434
-0.0165209
-0.0162023
-0.01771
-0.0173775
-0.017049
-0.0167243
-0.0164034
-0.0179154
-0.0175808
-0.0172501
-0.0169233
-0.0166002
-0.0181158
-0.0177792
-0.0174465
-0.0171176
-0.0167925
-0.018311
-0.0179725
-0.0176378
-0.017307
-0.0169799
-0.0185007
-0.0181604
-0.0178239
-0.0174911
-0.0171621
-0.0168367
-0.0186847
-0.0183426
-0.0180043
-0.0176698
-0.0173389
-0.0170117
-0.0188628
-0.018519
-0.018179
-0.0178428
-0.0175102
-0.0171812
-0.0190347
-0.0186894
-0.0183478
-0.01801
-0.0176757
-0.0173451
-0.0192005
-0.0188537
-0.0185106
-0.0181712
-0.0178354
-0.0175031
-0.0193599
-0.0190117
-0.0186672
-0.0183263
-0.017989
-0.0176552
-0.0195129
-0.0191634
-0.0188175
-0.0184752
-0.0181365
-0.0178013
-0.0196594
-0.0193086
-0.0189615
-0.0186179
-0.0182779
-0.0179414
-0.0197994
-0.0194474
-0.0190991
-0.0187543
-0.018413
-0.0180752
-0.0199328
-0.0195798
-0.0192303
-0.0188844
-0.0185419
-0.0182029
-0.0200596
-0.0197056
-0.0193551
-0.0190081
-0.0186645
-0.0183244
-0.0201799
-0.0198249
-0.0194734
-0.0191254
-0.0187808
-0.0184396
-0.0202936
-0.0199377
-0.0195853
-0.0192364
-0.0188908
-0.0185486
-0.0204007
-0.020044
-0.0196908
-0.019341
-0.0189945
-0.0186514
-0.0205013
-0.0201439
-0.0197899
-0.0194392
-0.019092
-0.018748
-0.0205954
-0.0202373
-0.0198825
-0.0195312
-0.0191831
-0.0188384
-0.020683
-0.0203243
-0.0199689
-0.0196168
-0.019268
-0.0189226
-0.0207642
-0.0204048
-0.0200488
-0.0196961
-0.0193467
-0.0190006
-0.0208389
-0.0204791
-0.0201225
-0.0197692
-0.0194192
-0.0190725
-0.0209073
-0.020547
-0.0201899
-0.0198361
-0.0194856
-0.0191383
-0.0209694
-0.0206086
-0.0202511
-0.0198968
-0.0195458
-0.019198
-0.0210251
-0.0206639
-0.020306
-0.0199513
-0.0195999
-0.0192516
-0.0210745
-0.020713
-0.0203548
-0.0199997
-0.0196479
-0.0192992
-0.0207559
-0.0203974
-0.020042
-0.0196898
-0.0193408
-0.0207927
-0.0204338
-0.0200782
-0.0197258
-0.0193765
-0.0208232
-0.0204642
-0.0201083
-0.0197557
-0.0194061
-0.0208477
-0.0204884
-0.0201324
-0.0197796
-0.0194298
-0.020866
-0.0205066
-0.0201505
-0.0197975
-0.0194476
-0.0208782
-0.0205188
-0.0201625
-0.0198094
-0.0194594
-0.0208843
-0.0205248
-0.0201685
-0.0198154
-0.0194653
-0.0124024
-0.0125601
-0.0127076
-0.0128604
-0.0130231
-0.013194
-0.0133728
-0.0135591
-0.0137525
-0.0139524
-0.0141584
-0.0143696
-0.0145856
-0.0148056
-0.0150288
-0.0152546
-0.0154822
-0.0157109
-0.01594
-0.0161688
-0.0163966
-0.0166228
-0.0168468
-0.017068
-0.0172859
-0.0175
-0.01771
-0.0179153
-0.0181158
-0.018311
-0.0185007
-0.0186847
-0.0188628
-0.0190347
-0.0192005
-0.0193599
-0.0195129
-0.0196594
-0.0197993
-0.0199328
-0.0200596
-0.0201799
-0.0202936
-0.0204007
-0.0205013
-0.0205954
-0.020683
-0.0207642
-0.0208389
-0.0209073
-0.0209694
-0.0210251
-0.0210745
-0.0211177
-0.0211547
-0.0211855
-0.0212101
-0.0212285
-0.0212408
-0.0212469
-0.0121358
-0.0122912
-0.0124366
-0.0125873
-0.0127478
-0.0129164
-0.0130927
-0.0132765
-0.0134673
-0.0136646
-0.0138678
-0.0140764
-0.0142895
-0.0145067
-0.0147271
-0.0149501
-0.0151749
-0.0154009
-0.0156272
-0.0158533
-0.0160785
-0.0163021
-0.0165235
-0.0167423
-0.0169579
-0.0171697
-0.0173775
-0.0175808
-0.0177792
-0.0179725
-0.0181604
-0.0183426
-0.018519
-0.0186894
-0.0188537
-0.0190117
-0.0191634
-0.0193086
-0.0194474
-0.0195798
-0.0197056
-0.0198249
-0.0199377
-0.020044
-0.0201439
-0.0202373
-0.0203242
-0.0204048
-0.0204791
-0.020547
-0.0206086
-0.0206639
-0.020713
-0.0207559
-0.0207927
-0.0208232
-0.0208477
-0.020866
-0.0208782
-0.0208843
-0.0118731
-0.0120261
-0.0121694
-0.0123181
-0.0124763
-0.0126426
-0.0128166
-0.0129979
-0.0131861
-0.0133808
-0.0135813
-0.0137871
-0.0139975
-0.0142119
-0.0144295
-0.0146497
-0.0148717
-0.0150949
-0.0153185
-0.0155419
-0.0157644
-0.0159854
-0.0162043
-0.0164206
-0.0166338
-0.0168434
-0.0170489
-0.0172501
-0.0174465
-0.0176378
-0.0178239
-0.0180043
-0.018179
-0.0183478
-0.0185106
-0.0186672
-0.0188175
-0.0189615
-0.0190991
-0.0192303
-0.0193551
-0.0194734
-0.0195853
-0.0196908
-0.0197899
-0.0198825
-0.0199689
-0.0200488
-0.0201225
-0.0201899
-0.0202511
-0.020306
-0.0203548
-0.0203974
-0.0204338
-0.0204642
-0.0204884
-0.0205066
-0.0205187
-0.0205248
-0.0116141
-0.0117647
-0.011906
-0.0120526
-0.0122087
-0.0123727
-0.0125443
-0.0127231
-0.0129088
-0.0131008
-0.0132987
-0.0135017
-0.0137094
-0.013921
-0.0141358
-0.0143532
-0.0145724
-0.0147928
-0.0150137
-0.0152343
-0.0154542
-0.0156726
-0.015889
-0.0161029
-0.0163137
-0.0165209
-0.0167243
-0.0169233
-0.0171176
-0.017307
-0.0174911
-0.0176698
-0.0178428
-0.01801
-0.0181712
-0.0183263
-0.0184752
-0.0186179
-0.0187543
-0.0188844
-0.0190081
-0.0191254
-0.0192364
-0.019341
-0.0194392
-0.0195312
-0.0196168
-0.0196961
-0.0197692
-0.0198361
-0.0198968
-0.0199513
-0.0199997
-0.020042
-0.0200782
-0.0201083
-0.0201324
-0.0201505
-0.0201625
-0.0201685
-0.0113587
-0.011507
-0.0116463
-0.0117909
-0.0119448
-0.0121065
-0.0122757
-0.0124521
-0.0126353
-0.0128247
-0.0130199
-0.0132202
-0.0134251
-0.0136339
-0.013846
-0.0140605
-0.014277
-0.0144946
-0.0147127
-0.0149307
-0.0151479
-0.0153637
-0.0155776
-0.015789
-0.0159974
-0.0162023
-0.0164034
-0.0166002
-0.0167925
-0.0169799
-0.0171621
-0.0173389
-0.0175102
-0.0176757
-0.0178353
-0.017989
-0.0181365
-0.0182779
-0.018413
-0.0185419
-0.0186645
-0.0187808
-0.0188908
-0.0189945
-0.019092
-0.0191831
-0.019268
-0.0193467
-0.0194192
-0.0194856
-0.0195458
-0.0195999
-0.0196479
-0.0196898
-0.0197258
-0.0197557
-0.0197796
-0.0197975
-0.0198094
-0.0198154
-0.0123691
-0.0121026
-0.0118399
-0.0115809
-0.0113255
-0.0122853
-0.0120205
-0.0117596
-0.0115023
-0.0112486
-0.0121976
-0.0119347
-0.0116754
-0.0114199
-0.0111679
-0.01212
-0.0118585
-0.0116008
-0.0113466
-0.011096
-0.012046
-0.011786
-0.0115296
-0.0112769
-0.0110276
-0.0119739
-0.0117153
-0.0114603
-0.0112089
-0.010961
-0.0121651
-0.0119041
-0.0116469
-0.0113932
-0.0111431
-0.0108965
-0.0120966
-0.0118369
-0.011581
-0.0113286
-0.0110798
-0.0120307
-0.0117723
-0.0115176
-0.0112665
-0.0110189
-0.0119675
-0.0117104
-0.0114569
-0.0112069
-0.0109604
-0.011907
-0.0116511
-0.0113987
-0.0111499
-0.0109046
-0.0118493
-0.0115945
-0.0113432
-0.0110955
-0.0108512
-0.0117944
-0.0115407
-0.0112905
-0.0110438
-0.0108005
-0.0117424
-0.0114896
-0.0112405
-0.0109947
-0.0107524
-0.0116932
-0.0114415
-0.0111932
-0.0109484
-0.010707
-0.011647
-0.0113961
-0.0111488
-0.0109048
-0.0106643
-0.0118573
-0.0116037
-0.0113537
-0.0111072
-0.010864
-0.0106243
-0.0118162
-0.0115634
-0.0113142
-0.0110684
-0.0108261
-0.010587
-0.0117782
-0.0115261
-0.0112776
-0.0110326
-0.0107909
-0.0117432
-0.0114919
-0.011244
-0.0109996
-0.0107586
-0.0117114
-0.0114607
-0.0112134
-0.0109696
-0.0107292
-0.0116827
-0.0114325
-0.0111858
-0.0109426
-0.0107027
-0.0116571
-0.0114074
-0.0111612
-0.0109185
-0.010679
-0.0116348
-0.0113855
-0.0111397
-0.0108974
-0.0106583
-0.0116155
-0.0113666
-0.0111212
-0.0108792
-0.0106406
-0.0115995
-0.0113509
-0.0111058
-0.0108641
-0.0106257
-0.0115867
-0.0113383
-0.0110935
-0.010852
-0.0106139
-0.011577
-0.0113289
-0.0110842
-0.0108429
-0.010605
-0.0115706
-0.0113226
-0.011078
-0.0108369
-0.010599
-0.0115674
-0.0113194
-0.0110749
-0.0108338
-0.0105961
)
;

boundaryField
{
    inlet
    {
        type            zeroGradient;
    }
    outlet
    {
        type            fixedValue;
        value           nonuniform 0();
    }
    cylinder
    {
        type            zeroGradient;
    }
    top
    {
        type            symmetryPlane;
    }
    bottom
    {
        type            symmetryPlane;
    }
    defaultFaces
    {
        type            empty;
    }
    procBoundary49to48
    {
        type            processor;
        value           nonuniform List<scalar> 
185
(
-0.0118189
-0.0118222
-0.0118287
-0.0118385
-0.0118516
-0.011868
-0.0118876
-0.0119104
-0.0119365
-0.0119658
-0.0119982
-0.0120339
-0.0120727
-0.0121146
-0.0119015
-0.0119015
-0.0119486
-0.0119987
-0.0120518
-0.0121078
-0.0121666
-0.0122283
-0.0122928
-0.01236
-0.0121651
-0.0121651
-0.0122363
-0.0123098
-0.0123852
-0.0124644
-0.0125538
-0.0126395
-0.0126728
-0.012833
-0.0129825
-0.0131374
-0.0133024
-0.0134757
-0.0136569
-0.0138457
-0.0140417
-0.0142443
-0.0144529
-0.014667
-0.0148857
-0.0151085
-0.0153346
-0.0155632
-0.0157936
-0.0160251
-0.0162569
-0.0164884
-0.0167188
-0.0169476
-0.017174
-0.0173976
-0.0176179
-0.0178343
-0.0180464
-0.0182539
-0.0184563
-0.0186534
-0.018845
-0.0190307
-0.0192103
-0.0193838
-0.019551
-0.0197118
-0.0198661
-0.0200138
-0.0201549
-0.0202894
-0.0204172
-0.0205384
-0.0206529
-0.0207608
-0.0208622
-0.0209569
-0.0210452
-0.0211269
-0.0212022
-0.021271
-0.0213335
-0.0213896
-0.0214393
-0.0211177
-0.0211177
-0.0211547
-0.0211855
-0.0212101
-0.0212285
-0.0212408
-0.0212469
-0.0126728
-0.012833
-0.0129825
-0.0131374
-0.0133024
-0.0134757
-0.0136569
-0.0138457
-0.0140417
-0.0142443
-0.0144529
-0.014667
-0.0148857
-0.0151085
-0.0153346
-0.0155632
-0.0157936
-0.0160251
-0.0162569
-0.0164884
-0.0167188
-0.0169476
-0.017174
-0.0173976
-0.0176179
-0.0178343
-0.0180464
-0.0182539
-0.0184563
-0.0186534
-0.018845
-0.0190307
-0.0192103
-0.0193838
-0.019551
-0.0197118
-0.0198661
-0.0200138
-0.0201549
-0.0202894
-0.0204172
-0.0205384
-0.0206529
-0.0207608
-0.0208622
-0.0209569
-0.0210452
-0.0211269
-0.0212022
-0.021271
-0.0213335
-0.0213896
-0.0214393
-0.0214828
-0.02152
-0.021551
-0.0215757
-0.0215943
-0.0216067
-0.0216128
-0.0126395
-0.0125538
-0.0124644
-0.0123852
-0.0123098
-0.0122363
-0.0122363
-0.0124299
-0.01236
-0.0122928
-0.0122283
-0.0121666
-0.0121078
-0.0120518
-0.0119987
-0.0119486
-0.0119015
-0.0119015
-0.0121146
-0.0120727
-0.0120339
-0.0119982
-0.0119658
-0.0119365
-0.0119104
-0.0118876
-0.011868
-0.0118516
-0.0118385
-0.0118287
-0.0118222
-0.0118189
)
;
    }
    procBoundary49to50
    {
        type            processor;
        value           nonuniform List<scalar> 
185
(
-0.0103615
-0.0103644
-0.0103703
-0.010379
-0.0103906
-0.0104052
-0.0104226
-0.0104429
-0.010466
-0.0104921
-0.0105209
-0.0105526
-0.0105526
-0.0103513
-0.0103878
-0.010427
-0.0104689
-0.0105134
-0.0105606
-0.0106103
-0.0106626
-0.0107174
-0.0107747
-0.0108344
-0.0108344
-0.0106533
-0.0107165
-0.0107818
-0.0108489
-0.0109194
-0.0109985
-0.0110738
-0.0111069
-0.0112529
-0.0113903
-0.0115328
-0.0116845
-0.011844
-0.0120109
-0.0121848
-0.0123655
-0.0125523
-0.0127448
-0.0129425
-0.0131447
-0.0133507
-0.0135599
-0.0137717
-0.0139854
-0.0142003
-0.0144157
-0.0146309
-0.0148455
-0.0150587
-0.01527
-0.0154789
-0.0156849
-0.0158875
-0.0160863
-0.0162809
-0.0164711
-0.0166564
-0.0166564
-0.016515
-0.0166881
-0.0168558
-0.017018
-0.0171744
-0.017325
-0.0174696
-0.0176083
-0.0177408
-0.0178673
-0.0179876
-0.0181018
-0.0182098
-0.0183116
-0.0184073
-0.0184969
-0.0185803
-0.0186577
-0.0187289
-0.0187941
-0.0188533
-0.0189065
-0.0189537
-0.018995
-0.0190303
-0.0190597
-0.0190832
-0.0191008
-0.0191126
-0.0191184
-0.0111069
-0.0112529
-0.0113903
-0.0115328
-0.0116845
-0.011844
-0.0120109
-0.0121848
-0.0123655
-0.0125523
-0.0127448
-0.0129425
-0.0131447
-0.0133507
-0.0135599
-0.0137717
-0.0139854
-0.0142003
-0.0144157
-0.0146309
-0.0148455
-0.0150587
-0.01527
-0.0154789
-0.0156848
-0.0158875
-0.0160863
-0.0162809
-0.0164711
-0.0166564
-0.0168367
-0.0170117
-0.0171812
-0.0173451
-0.0175031
-0.0176552
-0.0178013
-0.0179414
-0.0180752
-0.0182029
-0.0183244
-0.0184396
-0.0185486
-0.0186514
-0.018748
-0.0188384
-0.0189226
-0.0190006
-0.0190725
-0.0191383
-0.019198
-0.0192516
-0.0192992
-0.0193408
-0.0193765
-0.0194061
-0.0194298
-0.0194476
-0.0194594
-0.0194653
-0.0110738
-0.0109985
-0.0109194
-0.0108489
-0.0107818
-0.0107165
-0.0106533
-0.0108344
-0.0108344
-0.0107747
-0.0107174
-0.0106626
-0.0106103
-0.0105606
-0.0105134
-0.0104689
-0.010427
-0.0103878
-0.0103513
-0.0105526
-0.0105526
-0.0105209
-0.010492
-0.010466
-0.0104429
-0.0104226
-0.0104052
-0.0103906
-0.010379
-0.0103703
-0.0103644
-0.0103615
)
;
    }
}


// ************************************************************************* //
