/*--------------------------------*- C++ -*----------------------------------*\
  =========                 |
  \\      /  F ield         | OpenFOAM: The Open Source CFD Toolbox
   \\    /   O peration     | Website:  https://openfoam.org
    \\  /    A nd           | Version:  7
     \\/     M anipulation  |
\*---------------------------------------------------------------------------*/
FoamFile
{
    version     2.0;
    format      ascii;
    class       volScalarField;
    location    "50";
    object      p;
}
// * * * * * * * * * * * * * * * * * * * * * * * * * * * * * * * * * * * * * //

dimensions      [0 2 -2 0 0 0 0];

internalField   nonuniform List<scalar> 
392
(
-0.226081
-0.393597
-0.377493
-0.360592
-0.342991
-0.324816
-0.306207
-0.287327
-0.268359
-0.249435
-0.230457
-0.212244
-0.487653
-0.478559
-0.469015
-0.458876
-0.448007
-0.436302
-0.423685
-0.410112
-0.395572
-0.380087
-0.363712
-0.346535
-0.328673
-0.310265
-0.291469
-0.272457
-0.253429
-0.234507
-0.215537
-0.197527
-0.508681
-0.498451
-0.489271
-0.480956
-0.472514
-0.463682
-0.454337
-0.444328
-0.433518
-0.421801
-0.409107
-0.395402
-0.380685
-0.364993
-0.348398
-0.331004
-0.312945
-0.294375
-0.275466
-0.256402
-0.237393
-0.218553
-0.48991
-0.480188
-0.471469
-0.463551
-0.455459
-0.446923
-0.437808
-0.427959
-0.417236
-0.405539
-0.392803
-0.379004
-0.364153
-0.348304
-0.331545
-0.313996
-0.295808
-0.469022
-0.459865
-0.451656
-0.444173
-0.436467
-0.42826
-0.419407
-0.409748
-0.399144
-0.3875
-0.374759
-0.360907
-0.345972
-0.446018
-0.43748
-0.429827
-0.422817
-0.415531
-0.407685
-0.399125
-0.389687
-0.420913
-0.413045
-0.405992
-0.39949
-0.420912
-0.413045
-0.405992
-0.39949
-0.446018
-0.437479
-0.429827
-0.422817
-0.415531
-0.407685
-0.399125
-0.389687
-0.379236
-0.469022
-0.459865
-0.451656
-0.444173
-0.436467
-0.42826
-0.419407
-0.409748
-0.399144
-0.3875
-0.374759
-0.360907
-0.345971
-0.48991
-0.480188
-0.471469
-0.463551
-0.455459
-0.446923
-0.437808
-0.427959
-0.417236
-0.405539
-0.392803
-0.379003
-0.364153
-0.348304
-0.331545
-0.313996
-0.295808
-0.508681
-0.498451
-0.48927
-0.480956
-0.472514
-0.463682
-0.454337
-0.444328
-0.433517
-0.421801
-0.409107
-0.395402
-0.380685
-0.364993
-0.348398
-0.331004
-0.312945
-0.294375
-0.275466
-0.256402
-0.237393
-0.218553
-0.478559
-0.469015
-0.458876
-0.448007
-0.436302
-0.423685
-0.410112
-0.395572
-0.380087
-0.363712
-0.346535
-0.328673
-0.310265
-0.291469
-0.272457
-0.253429
-0.234507
-0.215537
-0.197527
-0.377493
-0.360592
-0.342991
-0.324816
-0.306207
-0.287327
-0.268359
-0.249435
-0.230457
-0.212244
-0.202739
-0.171575
-0.147751
-0.127572
-0.110739
-0.0964692
-0.0842043
-0.0735714
-0.064257
-0.0560393
-0.0487503
-0.190686
-0.160375
-0.137761
-0.118556
-0.102567
-0.0890297
-0.0773957
-0.0673188
-0.0584894
-0.0507003
-0.0437934
-0.0376329
-0.032118
-0.0271601
-0.0226933
-0.0186583
-0.0150109
-0.0117033
-0.008702
-0.00597605
-0.00349885
-0.00124723
0.000798559
0.00265799
0.004343
0.00587131
0.00725193
0.00849631
0.00961367
0.010612
0.0114983
0.0122786
0.0129583
0.0135418
0.014033
0.0144349
0.0147502
0.0149803
0.0151289
0.0151875
-0.177845
-0.148658
-0.127405
-0.109278
-0.0942064
-0.0814454
-0.0704787
-0.0609852
-0.052659
-0.0453117
-0.0387969
-0.0329834
-0.0277766
-0.0230915
-0.0188778
-0.0150602
-0.0116111
-0.00848199
-0.0056416
-0.00306093
-0.000714984
0.001418
0.00335678
0.00512119
0.00671322
0.00816279
0.00947258
0.0106525
0.0117117
0.0126579
0.0134976
0.0142367
0.0148799
0.0154315
0.0158952
0.0162738
0.0165697
0.0167843
0.0169215
0.0169709
0.0162008
0.0168076
0.0173274
0.0177637
0.018119
0.0183958
0.0185951
0.0187208
0.0187614
-0.00257083
-0.000136409
0.00207743
0.00409097
0.00592167
0.00758673
0.00909412
0.0104631
0.0117003
0.0128153
0.0138162
0.0147102
0.0155033
0.0162009
0.0168077
0.0173275
0.0177638
0.0181191
0.0183959
0.0185952
0.0187209
0.0187615
-0.177845
-0.148658
-0.127405
-0.109278
-0.0942064
-0.0814454
-0.0704787
-0.0609852
-0.0526591
-0.0453117
-0.038797
-0.0329835
-0.0277767
-0.0230916
-0.0188779
-0.0150603
-0.0116111
-0.00848207
-0.00564167
-0.00306098
-0.000715022
0.00141797
0.00335677
0.0051212
0.00671324
0.00816282
0.00947262
0.0106525
0.0117118
0.012658
0.0134977
0.0142367
0.01488
0.0154316
0.0158953
0.0162739
0.0165698
0.0167845
0.0169216
0.016971
-0.190686
-0.160374
-0.137761
-0.118556
-0.102567
-0.0890297
-0.0773957
-0.0673188
-0.0584894
-0.0507004
-0.0437935
-0.037633
-0.0321181
-0.0271602
-0.0226934
-0.0186584
-0.015011
-0.0117034
-0.00870207
-0.0059761
-0.00349889
-0.00124726
0.000798548
0.00265799
0.00434302
0.00587135
0.00725198
0.00849637
0.00961374
0.0106121
0.0114984
0.0122787
0.0129584
0.0135419
0.0140331
0.014435
0.0147503
0.0149804
0.015129
0.0151876
)
;

boundaryField
{
    inlet
    {
        type            zeroGradient;
    }
    outlet
    {
        type            fixedValue;
        value           nonuniform 0();
    }
    cylinder
    {
        type            zeroGradient;
    }
    top
    {
        type            symmetryPlane;
    }
    bottom
    {
        type            symmetryPlane;
    }
    defaultFaces
    {
        type            empty;
    }
    procBoundary12to11
    {
        type            processor;
        value           nonuniform List<scalar> 
140
(
-0.19967
-0.181937
-0.277151
-0.258207
-0.239171
-0.220263
-0.19967
-0.201588
-0.330019
-0.313156
-0.295519
-0.277151
-0.277275
-0.379236
-0.367681
-0.354976
-0.341117
-0.330019
-0.326147
-0.392657
-0.385204
-0.376967
-0.379236
-0.367783
-0.393737
-0.386589
-0.380175
-0.392657
-0.374215
-0.393737
-0.386589
-0.380175
-0.374215
-0.392657
-0.392657
-0.385204
-0.376967
-0.367783
-0.35752
-0.367681
-0.367681
-0.354976
-0.341117
-0.326147
-0.330019
-0.330019
-0.313156
-0.295519
-0.277275
-0.277151
-0.277151
-0.258207
-0.239171
-0.220263
-0.201588
-0.19967
-0.19967
-0.181937
-0.16423
-0.136427
-0.116679
-0.0997313
-0.0856492
-0.073715
-0.0634501
-0.0545612
-0.0467721
-0.0398779
-0.0337625
-0.0283021
-0.0234064
-0.018994
-0.0150542
-0.0114492
-0.0081984
-0.00524909
-0.00257077
-0.00013636
0.00207747
0.00409099
0.00592167
0.00758672
0.0090941
0.0104631
0.0117003
0.0128152
0.0138161
0.0147101
0.0155032
0.0155032
0.01817
0.0187404
0.0192286
0.0196375
0.0199698
0.0202275
0.0204116
0.0205262
0.0205582
0.00050988
0.00279686
0.00487769
0.00677111
0.00849329
0.0100596
0.0114797
0.0127683
0.0139332
0.0149831
0.0159256
0.0167673
0.0175138
0.0181701
0.0187405
0.0192286
0.0196376
0.0199699
0.0202276
0.0204117
0.0205263
0.0205583
-0.16423
-0.136427
-0.116679
-0.0997313
-0.0856492
-0.073715
-0.0634501
-0.0545613
-0.0467722
-0.0398779
-0.0337625
-0.0283022
-0.0234065
-0.018994
-0.0150543
-0.0114492
-0.00819848
-0.00524916
-0.00524916
)
;
    }
    procBoundary12to13
    {
        type            processor;
        value           nonuniform List<scalar> 
134
(
-0.239039
-0.405547
-0.389761
-0.373187
-0.355908
-0.33803
-0.319682
-0.301008
-0.28218
-0.263333
-0.244424
-0.244424
-0.50091
-0.491587
-0.481875
-0.471636
-0.460737
-0.449072
-0.436562
-0.423156
-0.408831
-0.408831
-0.525348
-0.51467
-0.505078
-0.496409
-0.496409
-0.525348
-0.51467
-0.505078
-0.496409
-0.487653
-0.487653
-0.491587
-0.481875
-0.471636
-0.460737
-0.449072
-0.436562
-0.423156
-0.408831
-0.393597
-0.393597
-0.389761
-0.373187
-0.355908
-0.33803
-0.319681
-0.301008
-0.28218
-0.263333
-0.244424
-0.226081
-0.213997
-0.182258
-0.157375
-0.136326
-0.118722
-0.10377
-0.0909081
-0.0797454
-0.0699625
-0.0613287
-0.0536676
-0.04225
-0.04225
-0.0364315
-0.0312029
-0.0264939
-0.022241
-0.0183963
-0.0149116
-0.0117505
-0.00888022
-0.00627252
-0.00390283
-0.00175015
0.000205329
0.00197936
0.00358657
0.00503855
0.00634743
0.00752284
0.00857323
0.00950603
0.0103277
0.0110439
0.0116593
0.0121779
0.0126032
0.0129379
0.0131836
0.0133439
0.0134119
-0.202739
-0.171575
-0.147751
-0.127572
-0.110739
-0.0964692
-0.0842043
-0.0735714
-0.0642571
-0.0560393
-0.0487504
-0.0422501
-0.0364315
-0.031203
-0.026494
-0.0222411
-0.0183964
-0.0149117
-0.0117506
-0.00888028
-0.00627256
-0.00390286
-0.00175016
0.000205331
0.00197938
0.0035866
0.00503859
0.00634749
0.00752291
0.0085733
0.00950612
0.0103278
0.011044
0.0116594
0.012178
0.0126033
0.012938
0.0131837
0.013344
0.013412
)
;
    }
}


// ************************************************************************* //
