/*--------------------------------*- C++ -*----------------------------------*\
  =========                 |
  \\      /  F ield         | OpenFOAM: The Open Source CFD Toolbox
   \\    /   O peration     | Website:  https://openfoam.org
    \\  /    A nd           | Version:  7
     \\/     M anipulation  |
\*---------------------------------------------------------------------------*/
FoamFile
{
    version     2.0;
    format      ascii;
    class       volScalarField;
    location    "50";
    object      p;
}
// * * * * * * * * * * * * * * * * * * * * * * * * * * * * * * * * * * * * * //

dimensions      [0 2 -2 0 0 0 0];

internalField   nonuniform List<scalar> 
40000
(
-0.227345
-0.228221
-0.228881
-0.229422
-0.22991
-0.230347
-0.230739
-0.231095
-0.231424
-0.231731
-0.232022
-0.232301
-0.232571
-0.232832
-0.233085
-0.233329
-0.233561
-0.233779
-0.233981
-0.234163
-0.234323
-0.234457
-0.234564
-0.234643
-0.234695
-0.23472
-0.234722
-0.234705
-0.234672
-0.23464
-0.227429
-0.2283
-0.228955
-0.229493
-0.229978
-0.230413
-0.230802
-0.231156
-0.231482
-0.231786
-0.232075
-0.232352
-0.232619
-0.232878
-0.233128
-0.233369
-0.233599
-0.233814
-0.234012
-0.234191
-0.234346
-0.234475
-0.234577
-0.23465
-0.234694
-0.234712
-0.234706
-0.234681
-0.234638
-0.234597
-0.227616
-0.228475
-0.229122
-0.229653
-0.230132
-0.23056
-0.230945
-0.231293
-0.231615
-0.231915
-0.232199
-0.232471
-0.232734
-0.232989
-0.233235
-0.233471
-0.233696
-0.233906
-0.234099
-0.234271
-0.23442
-0.234542
-0.234635
-0.234699
-0.234732
-0.234738
-0.23472
-0.234682
-0.234621
-0.234569
-0.227904
-0.228745
-0.22938
-0.2299
-0.230369
-0.230789
-0.231166
-0.231507
-0.231821
-0.232114
-0.232392
-0.232658
-0.232915
-0.233163
-0.233402
-0.233632
-0.23385
-0.234054
-0.23424
-0.234404
-0.234544
-0.234656
-0.234737
-0.234788
-0.234806
-0.234796
-0.234761
-0.234705
-0.234621
-0.234554
-0.228289
-0.229107
-0.229725
-0.230232
-0.230688
-0.231097
-0.231463
-0.231794
-0.232099
-0.232383
-0.232652
-0.23291
-0.233158
-0.233398
-0.233629
-0.233851
-0.234061
-0.234255
-0.234432
-0.234586
-0.234715
-0.234814
-0.234881
-0.234915
-0.234914
-0.234883
-0.234826
-0.234748
-0.234634
-0.234546
-0.228768
-0.229558
-0.230155
-0.230645
-0.231086
-0.231481
-0.231833
-0.232152
-0.232445
-0.232718
-0.232976
-0.233223
-0.233461
-0.233691
-0.233912
-0.234124
-0.234323
-0.234507
-0.234672
-0.234814
-0.234929
-0.235013
-0.235063
-0.235076
-0.235053
-0.234995
-0.234912
-0.234806
-0.234655
-0.234541
-0.229336
-0.230094
-0.230666
-0.231136
-0.231559
-0.231937
-0.232274
-0.232578
-0.232856
-0.233116
-0.233361
-0.233595
-0.23382
-0.234038
-0.234247
-0.234446
-0.234634
-0.234805
-0.234957
-0.235085
-0.235184
-0.23525
-0.235279
-0.235268
-0.235218
-0.235129
-0.235013
-0.234874
-0.234678
-0.234529
-0.229987
-0.230708
-0.231253
-0.231701
-0.232103
-0.232461
-0.23278
-0.233067
-0.233329
-0.233572
-0.233802
-0.234021
-0.234231
-0.234434
-0.234629
-0.234815
-0.234988
-0.235145
-0.235282
-0.235393
-0.235474
-0.23552
-0.235525
-0.235487
-0.235404
-0.235279
-0.235124
-0.234946
-0.234697
-0.234501
-0.230717
-0.231397
-0.231912
-0.232335
-0.232713
-0.233049
-0.233347
-0.233615
-0.233858
-0.234083
-0.234294
-0.234496
-0.234689
-0.234876
-0.235054
-0.235224
-0.235381
-0.235521
-0.235641
-0.235734
-0.235795
-0.235818
-0.235796
-0.235727
-0.235608
-0.235441
-0.235239
-0.235016
-0.234705
-0.234442
-0.231518
-0.232155
-0.232637
-0.233032
-0.233385
-0.233697
-0.233972
-0.234217
-0.234438
-0.234643
-0.234834
-0.235015
-0.235189
-0.235356
-0.235516
-0.235667
-0.235806
-0.235928
-0.236029
-0.236102
-0.23614
-0.236138
-0.236088
-0.235984
-0.235824
-0.235609
-0.235353
-0.235077
-0.234697
-0.234334
-0.232384
-0.232975
-0.233423
-0.233788
-0.234113
-0.234399
-0.234648
-0.234869
-0.235066
-0.235247
-0.235414
-0.235573
-0.235725
-0.235871
-0.236009
-0.23614
-0.236258
-0.236359
-0.236439
-0.23649
-0.236504
-0.236475
-0.236393
-0.236252
-0.236048
-0.235778
-0.235459
-0.235122
-0.234672
-0.234143
-0.233309
-0.233853
-0.234264
-0.234598
-0.234894
-0.23515
-0.235372
-0.235565
-0.235736
-0.23589
-0.236031
-0.236165
-0.236291
-0.236412
-0.236527
-0.236634
-0.236729
-0.236808
-0.236865
-0.236891
-0.23688
-0.236822
-0.236706
-0.236526
-0.236273
-0.235943
-0.235552
-0.235149
-0.234634
-0.233781
-0.234285
-0.234781
-0.235155
-0.235457
-0.235721
-0.235947
-0.236138
-0.236301
-0.236442
-0.236567
-0.236679
-0.236784
-0.236882
-0.236976
-0.237064
-0.237144
-0.237214
-0.237267
-0.237299
-0.2373
-0.237261
-0.237172
-0.237022
-0.2368
-0.236495
-0.236101
-0.235629
-0.23515
-0.234589
-0.233185
-0.235309
-0.235756
-0.236092
-0.23636
-0.236591
-0.236784
-0.236943
-0.237073
-0.237181
-0.237273
-0.237353
-0.237425
-0.237492
-0.237554
-0.237612
-0.237663
-0.237704
-0.23773
-0.237734
-0.237707
-0.23764
-0.23752
-0.237333
-0.237068
-0.23671
-0.236247
-0.235689
-0.235105
-0.234409
-0.232991
-0.236373
-0.236773
-0.23707
-0.237304
-0.2375
-0.237658
-0.237781
-0.237876
-0.237948
-0.238004
-0.238047
-0.238083
-0.238114
-0.238142
-0.238166
-0.238184
-0.238194
-0.238189
-0.238163
-0.238107
-0.238009
-0.237856
-0.237633
-0.237323
-0.236911
-0.236378
-0.235731
-0.235034
-0.234142
-0.232658
-0.237473
-0.237827
-0.238087
-0.238285
-0.238444
-0.238565
-0.238651
-0.238707
-0.23874
-0.238755
-0.238758
-0.238754
-0.238745
-0.238734
-0.23872
-0.238702
-0.238676
-0.238638
-0.238579
-0.23849
-0.23836
-0.238173
-0.237913
-0.23756
-0.237092
-0.236488
-0.235747
-0.234932
-0.233853
-0.232126
-0.238607
-0.238917
-0.239138
-0.2393
-0.239422
-0.239504
-0.239549
-0.239563
-0.239552
-0.239523
-0.239482
-0.239433
-0.23938
-0.239325
-0.239269
-0.23921
-0.239145
-0.239069
-0.238974
-0.23885
-0.238686
-0.238464
-0.238166
-0.237769
-0.237248
-0.236573
-0.235734
-0.234795
-0.233536
-0.231428
-0.239772
-0.240039
-0.240224
-0.240349
-0.240432
-0.240472
-0.240473
-0.240442
-0.240384
-0.240306
-0.240216
-0.240117
-0.240015
-0.239911
-0.239808
-0.239703
-0.239594
-0.239477
-0.239342
-0.239181
-0.238979
-0.23872
-0.238382
-0.237942
-0.237368
-0.236624
-0.235688
-0.23462
-0.233188
-0.23057
-0.240967
-0.241195
-0.241343
-0.241431
-0.241473
-0.241469
-0.241424
-0.241343
-0.241233
-0.241102
-0.240957
-0.240804
-0.240647
-0.24049
-0.240334
-0.240178
-0.240021
-0.239857
-0.239678
-0.239475
-0.239233
-0.238934
-0.238556
-0.23807
-0.237444
-0.236633
-0.235601
-0.234401
-0.232816
-0.229552
-0.242194
-0.242385
-0.242497
-0.242546
-0.242546
-0.242496
-0.2424
-0.242266
-0.2421
-0.241911
-0.241706
-0.241493
-0.241275
-0.241059
-0.240845
-0.240633
-0.240422
-0.240206
-0.239979
-0.239729
-0.239442
-0.2391
-0.238678
-0.238147
-0.237467
-0.236591
-0.235464
-0.23413
-0.232428
-0.228381
-0.243454
-0.243611
-0.243688
-0.243698
-0.243653
-0.243554
-0.243404
-0.243212
-0.242985
-0.242733
-0.242463
-0.242183
-0.2419
-0.241618
-0.24134
-0.241067
-0.240796
-0.240524
-0.240242
-0.239941
-0.239605
-0.239215
-0.238745
-0.238164
-0.237429
-0.236488
-0.23527
-0.233795
-0.232028
-0.227073
-0.244753
-0.244877
-0.24492
-0.24489
-0.244799
-0.244647
-0.244439
-0.244184
-0.243891
-0.24357
-0.243229
-0.242878
-0.242522
-0.242169
-0.241822
-0.24148
-0.241144
-0.24081
-0.240469
-0.240111
-0.23972
-0.239277
-0.238755
-0.238119
-0.237324
-0.236315
-0.235008
-0.233382
-0.231616
-0.225659
-0.246097
-0.246191
-0.246198
-0.246127
-0.245986
-0.245778
-0.245508
-0.245186
-0.244822
-0.244426
-0.244008
-0.243579
-0.243146
-0.242716
-0.242292
-0.241878
-0.241471
-0.241068
-0.240662
-0.240242
-0.239792
-0.23929
-0.238709
-0.238011
-0.237151
-0.236069
-0.234673
-0.232882
-0.23118
-0.224185
-0.247494
-0.247559
-0.247531
-0.247416
-0.247222
-0.246954
-0.246618
-0.246223
-0.245782
-0.245306
-0.244806
-0.244293
-0.243776
-0.243263
-0.242758
-0.242264
-0.241781
-0.241305
-0.240828
-0.24034
-0.239824
-0.239258
-0.238611
-0.237846
-0.236913
-0.235749
-0.234263
-0.232291
-0.230699
-0.222712
-0.248956
-0.248991
-0.248926
-0.248764
-0.248514
-0.248182
-0.247774
-0.247302
-0.246778
-0.246216
-0.245627
-0.245025
-0.244419
-0.243817
-0.243226
-0.242648
-0.242083
-0.241528
-0.240976
-0.240415
-0.239827
-0.23919
-0.238472
-0.237631
-0.236615
-0.235362
-0.233782
-0.231622
-0.230144
-0.221323
-0.250493
-0.250498
-0.250393
-0.250181
-0.249872
-0.24947
-0.248985
-0.248429
-0.247818
-0.247164
-0.246482
-0.245785
-0.245084
-0.244388
-0.243705
-0.243038
-0.242387
-0.241749
-0.241116
-0.240477
-0.239812
-0.239097
-0.238299
-0.237375
-0.236269
-0.234916
-0.233231
-0.230898
-0.22948
-0.220117
-0.252119
-0.252092
-0.251944
-0.251678
-0.251304
-0.250827
-0.250259
-0.249615
-0.24891
-0.248159
-0.247378
-0.246581
-0.24578
-0.244987
-0.244207
-0.243447
-0.242705
-0.241979
-0.241261
-0.240538
-0.23979
-0.238991
-0.238105
-0.237089
-0.235883
-0.234422
-0.232615
-0.230144
-0.228636
-0.219135
-0.253851
-0.253787
-0.253591
-0.253267
-0.252821
-0.252264
-0.251609
-0.25087
-0.250065
-0.249212
-0.248326
-0.247425
-0.24652
-0.245624
-0.244745
-0.243886
-0.24305
-0.242232
-0.241424
-0.240611
-0.239773
-0.238882
-0.2379
-0.236782
-0.235469
-0.233896
-0.231947
-0.229401
-0.227488
-0.218264
-0.255703
-0.255597
-0.255349
-0.254959
-0.254437
-0.253794
-0.253044
-0.252204
-0.251295
-0.250334
-0.249339
-0.248328
-0.247316
-0.246313
-0.24533
-0.244371
-0.243436
-0.242522
-0.241618
-0.240709
-0.239773
-0.238779
-0.23769
-0.236461
-0.235032
-0.233352
-0.231276
-0.228778
-0.226066
-0.217712
-0.257694
-0.257538
-0.25723
-0.256769
-0.256164
-0.255427
-0.254576
-0.253631
-0.25261
-0.251537
-0.250429
-0.249305
-0.24818
-0.247069
-0.245978
-0.244914
-0.243877
-0.242861
-0.241855
-0.240842
-0.239797
-0.238688
-0.237478
-0.236122
-0.234568
-0.232782
-0.230626
-0.228354
-0.224928
-0.219726
-0.259841
-0.259627
-0.259251
-0.258711
-0.258014
-0.257177
-0.256219
-0.255161
-0.254025
-0.252834
-0.251608
-0.250367
-0.249128
-0.247904
-0.246703
-0.24553
-0.244386
-0.243262
-0.242145
-0.241017
-0.23985
-0.23861
-0.237258
-0.235754
-0.234053
-0.232143
-0.229915
-0.227853
-0.224613
-0.227102
-0.262163
-0.261878
-0.261426
-0.260799
-0.260003
-0.259058
-0.257986
-0.256809
-0.255552
-0.254238
-0.252891
-0.25153
-0.250173
-0.248832
-0.247518
-0.246232
-0.244974
-0.243734
-0.242497
-0.24124
-0.239932
-0.238539
-0.237021
-0.235339
-0.233458
-0.23138
-0.229041
-0.226916
-0.223931
-0.225647
-0.264676
-0.26431
-0.263771
-0.263047
-0.262143
-0.261083
-0.259889
-0.258588
-0.257204
-0.255764
-0.254291
-0.252807
-0.251328
-0.249868
-0.248435
-0.247032
-0.245653
-0.244286
-0.242914
-0.24151
-0.240039
-0.238466
-0.23675
-0.234855
-0.232753
-0.230453
-0.227918
-0.225524
-0.222436
-0.222515
-0.2674
-0.266938
-0.2663
-0.26547
-0.26445
-0.263265
-0.261943
-0.260511
-0.258996
-0.257425
-0.255823
-0.254212
-0.252608
-0.251024
-0.249468
-0.247939
-0.246428
-0.244922
-0.243397
-0.241823
-0.240163
-0.238378
-0.236428
-0.234282
-0.231914
-0.229337
-0.226529
-0.223761
-0.220396
-0.219095
-0.270349
-0.269777
-0.269029
-0.268082
-0.266936
-0.265619
-0.264162
-0.262592
-0.260941
-0.259235
-0.2575
-0.255757
-0.254025
-0.252313
-0.250626
-0.248961
-0.247306
-0.245643
-0.243943
-0.242171
-0.24029
-0.238258
-0.236037
-0.233599
-0.230925
-0.228028
-0.224896
-0.221716
-0.218019
-0.215587
-0.273542
-0.272842
-0.271972
-0.270897
-0.269616
-0.268158
-0.266558
-0.264846
-0.263052
-0.261206
-0.259335
-0.257457
-0.255591
-0.253743
-0.251916
-0.250103
-0.248287
-0.246444
-0.244542
-0.242543
-0.240404
-0.238088
-0.235558
-0.232792
-0.229779
-0.226532
-0.223048
-0.219462
-0.215427
-0.212178
-0.276992
-0.276148
-0.275142
-0.273929
-0.272502
-0.270896
-0.269145
-0.267284
-0.265343
-0.263354
-0.261341
-0.259323
-0.257316
-0.255324
-0.253345
-0.251367
-0.249369
-0.24732
-0.245184
-0.24292
-0.240488
-0.237849
-0.234975
-0.23185
-0.228472
-0.22486
-0.221018
-0.217052
-0.212705
-0.208869
-0.280712
-0.279708
-0.278553
-0.277191
-0.275608
-0.273844
-0.271937
-0.26992
-0.267828
-0.26569
-0.26353
-0.261366
-0.25921
-0.257062
-0.254915
-0.252751
-0.250543
-0.248257
-0.245851
-0.243285
-0.240519
-0.237522
-0.234273
-0.230765
-0.227008
-0.223027
-0.218835
-0.214524
-0.209898
-0.205647
-0.284716
-0.283533
-0.282215
-0.280693
-0.278945
-0.277016
-0.274945
-0.272768
-0.270519
-0.268226
-0.265913
-0.263595
-0.261278
-0.258959
-0.256623
-0.254248
-0.251799
-0.249239
-0.246525
-0.243616
-0.240479
-0.23709
-0.23344
-0.229534
-0.225392
-0.221047
-0.21652
-0.211897
-0.207026
-0.202474
-0.289014
-0.287634
-0.28614
-0.284447
-0.282525
-0.280422
-0.278181
-0.275838
-0.273426
-0.270973
-0.2685
-0.266016
-0.263524
-0.261014
-0.258465
-0.255846
-0.253121
-0.250246
-0.247181
-0.24389
-0.240347
-0.236539
-0.232469
-0.228156
-0.223629
-0.218931
-0.214089
-0.209185
-0.204095
-0.199317
-0.293613
-0.292019
-0.290336
-0.288462
-0.286358
-0.284075
-0.281657
-0.279142
-0.276562
-0.273941
-0.271296
-0.268634
-0.265948
-0.263222
-0.260428
-0.25753
-0.254486
-0.251254
-0.247797
-0.244085
-0.240104
-0.235854
-0.231353
-0.22663
-0.221727
-0.216689
-0.211552
-0.206392
-0.201105
-0.196141
-0.29852
-0.296694
-0.29481
-0.292746
-0.290452
-0.287981
-0.285382
-0.282689
-0.279933
-0.277135
-0.274307
-0.271447
-0.268544
-0.265572
-0.262497
-0.259277
-0.255871
-0.252237
-0.248345
-0.244177
-0.239732
-0.235025
-0.230086
-0.224958
-0.219689
-0.214328
-0.208914
-0.203516
-0.198048
-0.192922
-0.303739
-0.301665
-0.299568
-0.297305
-0.294814
-0.29215
-0.289363
-0.286486
-0.283546
-0.280559
-0.277531
-0.274452
-0.271302
-0.268048
-0.26465
-0.261063
-0.257246
-0.253166
-0.2488
-0.244145
-0.239216
-0.234042
-0.228667
-0.223141
-0.217518
-0.21185
-0.206175
-0.200556
-0.194917
-0.189639
-0.30927
-0.306932
-0.304612
-0.302143
-0.299448
-0.296586
-0.293605
-0.290537
-0.287403
-0.284212
-0.280963
-0.277637
-0.274205
-0.270628
-0.266859
-0.262856
-0.258581
-0.25401
-0.249135
-0.243969
-0.238542
-0.232898
-0.227091
-0.221179
-0.215217
-0.209256
-0.203333
-0.197504
-0.191702
-0.186277
-0.31511
-0.312493
-0.309941
-0.30726
-0.304357
-0.301291
-0.298111
-0.294842
-0.291501
-0.288088
-0.284593
-0.280986
-0.277232
-0.273283
-0.269094
-0.264623
-0.259842
-0.254741
-0.249327
-0.243631
-0.237698
-0.231585
-0.225355
-0.219069
-0.212782
-0.206543
-0.200385
-0.194354
-0.188394
-0.182822
-0.321252
-0.318344
-0.315552
-0.312653
-0.309537
-0.306264
-0.302877
-0.299398
-0.295833
-0.292175
-0.288402
-0.284476
-0.280351
-0.27598
-0.271316
-0.266327
-0.260995
-0.255328
-0.249351
-0.243113
-0.236673
-0.230098
-0.223456
-0.21681
-0.210212
-0.203706
-0.197323
-0.191098
-0.184985
-0.179264
-0.327685
-0.324474
-0.321435
-0.318316
-0.314983
-0.311497
-0.307896
-0.304193
-0.300386
-0.296454
-0.292366
-0.288075
-0.283529
-0.278679
-0.273486
-0.267928
-0.262005
-0.255742
-0.249186
-0.2424
-0.235456
-0.228429
-0.221389
-0.214396
-0.2075
-0.20074
-0.19414
-0.187727
-0.181464
-0.175595
-0.334391
-0.330868
-0.327579
-0.324236
-0.320685
-0.31698
-0.313155
-0.309213
-0.305138
-0.300899
-0.296453
-0.291745
-0.286722
-0.281337
-0.275561
-0.269388
-0.262838
-0.255957
-0.24881
-0.241476
-0.234036
-0.226569
-0.219145
-0.21182
-0.20464
-0.197635
-0.190826
-0.184232
-0.177823
-0.171806
-0.341348
-0.337506
-0.333963
-0.330396
-0.326624
-0.322695
-0.318635
-0.314433
-0.310061
-0.305476
-0.300623
-0.295444
-0.289884
-0.283906
-0.277496
-0.270667
-0.263461
-0.255946
-0.248205
-0.240328
-0.232403
-0.224511
-0.216717
-0.209075
-0.201621
-0.194381
-0.187372
-0.180603
-0.174052
-0.167889
-0.348528
-0.344361
-0.340565
-0.336774
-0.332778
-0.328618
-0.324308
-0.319822
-0.315119
-0.310143
-0.30483
-0.299119
-0.292963
-0.286337
-0.279245
-0.271724
-0.263842
-0.255685
-0.247351
-0.238941
-0.230545
-0.222243
-0.214095
-0.206149
-0.198434
-0.190969
-0.183767
-0.176829
-0.170143
-0.163836
-0.355893
-0.351401
-0.347353
-0.343339
-0.339117
-0.334717
-0.330139
-0.325342
-0.320268
-0.31485
-0.309019
-0.302716
-0.295904
-0.288576
-0.280762
-0.272523
-0.26395
-0.255148
-0.24623
-0.2373
-0.22845
-0.219754
-0.211269
-0.203031
-0.195067
-0.187388
-0.18
-0.172901
-0.166084
-0.159639
-0.363403
-0.358587
-0.35429
-0.350055
-0.345604
-0.340953
-0.336086
-0.330943
-0.325454
-0.31954
-0.31313
-0.306174
-0.298649
-0.290573
-0.282002
-0.273025
-0.263755
-0.254314
-0.244824
-0.235391
-0.226104
-0.217033
-0.208224
-0.19971
-0.191507
-0.183624
-0.17606
-0.168809
-0.161868
-0.15529
-0.371006
-0.365871
-0.36133
-0.356878
-0.352194
-0.347279
-0.342097
-0.336572
-0.330617
-0.324149
-0.317099
-0.30943
-0.30114
-0.292276
-0.282922
-0.273195
-0.26323
-0.253161
-0.243114
-0.233197
-0.223493
-0.214063
-0.204948
-0.196171
-0.187743
-0.179666
-0.171936
-0.164542
-0.157484
-0.150782
-0.378646
-0.3732
-0.368423
-0.363755
-0.358834
-0.353638
-0.348113
-0.342163
-0.33569
-0.328608
-0.320857
-0.312417
-0.303317
-0.293632
-0.283479
-0.273
-0.262347
-0.251665
-0.241083
-0.230702
-0.220602
-0.210833
-0.201427
-0.192402
-0.183762
-0.175502
-0.167616
-0.16009
-0.152925
-0.146106
-0.386258
-0.380513
-0.375508
-0.370628
-0.365463
-0.359967
-0.354066
-0.347646
-0.3406
-0.332843
-0.324332
-0.315071
-0.305122
-0.294593
-0.283632
-0.272406
-0.26108
-0.249806
-0.23871
-0.22789
-0.217414
-0.207325
-0.197647
-0.188388
-0.179549
-0.17112
-0.16309
-0.155443
-0.14818
-0.141256
-0.393771
-0.38774
-0.38252
-0.37743
-0.372012
-0.366195
-0.359882
-0.352943
-0.345266
-0.336777
-0.327451
-0.317325
-0.306497
-0.29511
-0.283343
-0.271382
-0.259404
-0.247562
-0.235978
-0.224742
-0.213913
-0.203524
-0.193591
-0.184116
-0.175092
-0.166508
-0.158347
-0.150592
-0.143241
-0.136225
-0.401105
-0.394808
-0.389383
-0.384087
-0.378406
-0.372244
-0.365479
-0.357971
-0.349608
-0.340329
-0.330141
-0.319114
-0.307387
-0.295139
-0.282575
-0.269899
-0.257294
-0.244912
-0.232868
-0.221241
-0.210082
-0.199414
-0.189245
-0.17957
-0.170379
-0.161654
-0.153377
-0.145528
-0.138101
-0.131006
-0.408178
-0.401636
-0.396019
-0.390518
-0.384563
-0.378027
-0.37077
-0.362642
-0.353538
-0.343421
-0.332328
-0.320376
-0.30774
-0.294636
-0.281293
-0.267927
-0.254725
-0.241834
-0.229359
-0.21737
-0.205904
-0.194979
-0.184594
-0.174739
-0.165397
-0.156548
-0.148169
-0.140242
-0.132753
-0.125594
-0.414899
-0.408135
-0.402341
-0.396636
-0.390393
-0.383455
-0.375665
-0.366867
-0.356972
-0.345971
-0.333943
-0.321049
-0.307505
-0.29356
-0.279464
-0.26544
-0.251675
-0.238307
-0.225433
-0.213109
-0.201363
-0.190204
-0.179624
-0.169607
-0.160133
-0.151177
-0.142714
-0.134726
-0.127188
-0.119984
-0.421174
-0.414216
-0.408258
-0.40235
-0.395804
-0.388434
-0.380068
-0.370554
-0.359823
-0.347902
-0.334918
-0.321076
-0.306636
-0.291875
-0.277057
-0.262412
-0.248121
-0.234312
-0.22107
-0.208441
-0.196443
-0.185074
-0.174321
-0.164163
-0.154576
-0.145533
-0.137005
-0.128972
-0.121402
-0.114172
-0.426907
-0.419782
-0.413676
-0.407564
-0.400699
-0.392867
-0.383885
-0.373612
-0.362005
-0.349139
-0.335187
-0.320405
-0.30509
-0.289544
-0.274044
-0.258818
-0.24404
-0.229829
-0.216254
-0.203351
-0.191127
-0.179574
-0.168672
-0.158396
-0.148717
-0.139605
-0.131031
-0.122974
-0.115387
-0.108154
-0.431996
-0.424736
-0.418497
-0.412179
-0.404978
-0.396654
-0.38702
-0.375949
-0.363438
-0.34961
-0.334692
-0.318986
-0.302826
-0.286535
-0.270396
-0.254635
-0.239414
-0.224838
-0.210966
-0.197821
-0.185401
-0.17369
-0.162664
-0.152293
-0.142544
-0.133386
-0.124785
-0.116722
-0.109138
-0.101923
-0.43634
-0.428977
-0.422621
-0.416096
-0.408543
-0.399698
-0.389377
-0.377479
-0.364043
-0.349248
-0.333376
-0.316774
-0.299809
-0.282819
-0.26609
-0.24984
-0.234221
-0.219323
-0.205191
-0.191837
-0.179251
-0.167411
-0.156287
-0.145845
-0.136049
-0.126866
-0.118261
-0.110212
-0.102649
-0.0954743
-0.43984
-0.432407
-0.425949
-0.419215
-0.411293
-0.401902
-0.390866
-0.378118
-0.363747
-0.347991
-0.331188
-0.313728
-0.296005
-0.278368
-0.261102
-0.244416
-0.228445
-0.213266
-0.198912
-0.185385
-0.172666
-0.160726
-0.14953
-0.139042
-0.129225
-0.120039
-0.111451
-0.103438
-0.0959159
-0.088806
-0.442395
-0.434927
-0.428381
-0.421436
-0.41313
-0.403171
-0.391399
-0.377787
-0.362483
-0.345784
-0.328083
-0.309812
-0.291386
-0.27316
-0.255413
-0.238342
-0.222068
-0.206654
-0.192118
-0.178453
-0.165633
-0.153623
-0.142385
-0.131878
-0.122063
-0.112898
-0.10435
-0.0963938
-0.0889363
-0.0819189
-0.443909
-0.43644
-0.429822
-0.422663
-0.413962
-0.403417
-0.390894
-0.376414
-0.360188
-0.342576
-0.324023
-0.304995
-0.285926
-0.267172
-0.249005
-0.231605
-0.215078
-0.199473
-0.184796
-0.171031
-0.158144
-0.146097
-0.134845
-0.124346
-0.114557
-0.105437
-0.0969494
-0.0890707
-0.0817042
-0.0748099
-0.444289
-0.436852
-0.430177
-0.422805
-0.413698
-0.402555
-0.389275
-0.373934
-0.35681
-0.338324
-0.318971
-0.29925
-0.279604
-0.260389
-0.241863
-0.224191
-0.207463
-0.191713
-0.176938
-0.16311
-0.150193
-0.13814
-0.126905
-0.116442
-0.106706
-0.0976516
-0.0892424
-0.0814562
-0.0742015
-0.0674474
-0.443447
-0.436078
-0.42936
-0.421774
-0.412254
-0.400508
-0.386474
-0.370289
-0.3523
-0.332991
-0.312901
-0.292555
-0.272403
-0.252795
-0.233974
-0.216088
-0.199212
-0.183365
-0.168534
-0.154685
-0.141773
-0.129748
-0.118561
-0.108163
-0.0985059
-0.0895413
-0.0812283
-0.0735473
-0.066405
-0.0597445
-0.441302
-0.434034
-0.427288
-0.41949
-0.409556
-0.397208
-0.38243
-0.365429
-0.34662
-0.326547
-0.30579
-0.284894
-0.264311
-0.24438
-0.225329
-0.207289
-0.190318
-0.174424
-0.159582
-0.145751
-0.132882
-0.12092
-0.109813
-0.09951
-0.0899593
-0.0811092
-0.0729176
-0.0653701
-0.0583387
-0.0516048
-0.437782
-0.430646
-0.423887
-0.415882
-0.405535
-0.392592
-0.377092
-0.359313
-0.339739
-0.318969
-0.297622
-0.276254
-0.255317
-0.235137
-0.215923
-0.197789
-0.180778
-0.164886
-0.150078
-0.136307
-0.123518
-0.111655
-0.100662
-0.0904837
-0.0810678
-0.072359
-0.0643208
-0.0569498
-0.0500788
-0.0431537
-0.432819
-0.425848
-0.419091
-0.410884
-0.400131
-0.386609
-0.370418
-0.351908
-0.331631
-0.310241
-0.288385
-0.266629
-0.245417
-0.225062
-0.205753
-0.187587
-0.170591
-0.154749
-0.140021
-0.126352
-0.113684
-0.101955
-0.0911087
-0.0810874
-0.0718353
-0.0632959
-0.0554411
-0.0482484
-0.0414317
-0.0348469
-0.426359
-0.419583
-0.412843
-0.404442
-0.393297
-0.379219
-0.362375
-0.34319
-0.322283
-0.300354
-0.278075
-0.256016
-0.234612
-0.214156
-0.19482
-0.176682
-0.159757
-0.144017
-0.129415
-0.115891
-0.103382
-0.0918249
-0.0811592
-0.0713266
-0.0622686
-0.0539287
-0.0462801
-0.0392763
-0.0325969
-0.0263739
-0.418356
-0.411802
-0.405095
-0.396513
-0.384992
-0.370389
-0.35294
-0.333145
-0.311686
-0.289306
-0.266693
-0.244419
-0.222904
-0.202423
-0.183127
-0.16508
-0.148281
-0.132694
-0.118265
-0.104928
-0.0926183
-0.0812706
-0.0708205
-0.0612082
-0.0523739
-0.0442616
-0.0368438
-0.0300564
-0.0235703
-0.0176793
-0.408772
-0.402469
-0.39581
-0.387061
-0.375188
-0.360098
-0.342099
-0.321766
-0.29984
-0.2771
-0.254247
-0.231846
-0.210303
-0.189871
-0.170684
-0.152788
-0.136171
-0.120788
-0.106577
-0.093473
-0.0814027
-0.0703001
-0.0601
-0.0507404
-0.0421598
-0.0343027
-0.0271415
-0.0206001
-0.0143374
-0.00876295
-0.397585
-0.391556
-0.384963
-0.376065
-0.363868
-0.348335
-0.32985
-0.309057
-0.286754
-0.263747
-0.240747
-0.218309
-0.19682
-0.176512
-0.157501
-0.139817
-0.123437
-0.108309
-0.0943656
-0.0815347
-0.069744
-0.0589241
-0.0490084
-0.0399335
-0.0316364
-0.0240617
-0.0171833
-0.0109137
-0.00489372
0.0003609
-0.384778
-0.379049
-0.372539
-0.363512
-0.351024
-0.335101
-0.316197
-0.295029
-0.272442
-0.249265
-0.226213
-0.203826
-0.182472
-0.162363
-0.143595
-0.126183
-0.110096
-0.0952721
-0.0816408
-0.0691268
-0.0576554
-0.0471552
-0.0375581
-0.0287995
-0.0208152
-0.0135501
-0.00697994
-0.00100503
0.00475523
0.00967889
-0.370351
-0.364943
-0.358533
-0.349402
-0.336662
-0.320404
-0.301157
-0.279702
-0.256926
-0.233678
-0.210667
-0.18842
-0.167282
-0.147443
-0.128983
-0.111903
-0.0961616
-0.0816923
-0.0684193
-0.0562648
-0.045152
-0.035008
-0.0257634
-0.0173525
-0.00970986
-0.00278112
0.00345621
0.00911533
0.014599
0.0191776
-0.354311
-0.349244
-0.342954
-0.333744
-0.320795
-0.304265
-0.284753
-0.263102
-0.240236
-0.217014
-0.194139
-0.172118
-0.151274
-0.131777
-0.113688
-0.0969981
-0.0816557
-0.0675894
-0.0547198
-0.0429664
-0.0322511
-0.0224992
-0.0136406
-0.00560811
0.00166441
0.0082305
0.014111
0.019434
0.0246239
0.0288426
-0.336678
-0.331971
-0.325819
-0.31656
-0.30345
-0.286712
-0.267018
-0.245265
-0.222408
-0.199311
-0.176663
-0.154952
-0.134478
-0.115391
-0.0977365
-0.0814928
-0.0666012
-0.0529855
-0.0405633
-0.029252
-0.0189719
-0.00964748
-0.00120748
0.00641613
0.0132905
0.0194681
0.0249684
0.0299351
0.0348136
0.038658
-0.317482
-0.313152
-0.307159
-0.297883
-0.284661
-0.267785
-0.247993
-0.226234
-0.203487
-0.180609
-0.158275
-0.136956
-0.116927
-0.0983178
-0.0811576
-0.0654148
-0.0510243
-0.0379054
-0.0259733
-0.0151438
-0.00533599
0.00352665
0.011516
0.0187011
0.0251497
0.0309132
0.0360101
0.0406005
0.0451492
0.0486057
-0.296765
-0.292826
-0.287012
-0.277753
-0.264472
-0.247531
-0.22773
-0.206067
-0.183515
-0.160946
-0.13902
-0.118173
-0.0986602
-0.080592
-0.0639841
-0.048795
-0.0349538
-0.0223765
-0.0109758
-0.0006664
0.00863347
0.017001
0.0245086
0.0312261
0.0372219
0.0425458
0.0472163
0.0514098
0.055609
0.0586637
-0.274578
-0.271044
-0.26543
-0.256223
-0.242939
-0.226009
-0.206296
-0.184832
-0.162516
-0.140377
-0.118944
-0.098646
-0.0797178
-0.0622523
-0.046252
-0.0316672
-0.0184217
-0.00642846
0.00440119
0.0141537
0.0229114
0.0307518
0.0377477
0.0439694
0.0494856
0.0543447
0.0585656
0.0623408
0.0661676
0.068802
-0.250984
-0.247863
-0.24247
-0.233354
-0.220126
-0.203285
-0.18374
-0.162501
-0.140632
-0.118968
-0.0981015
-0.0784243
-0.0601454
-0.0433406
-0.0280005
-0.0140679
-0.00146202
0.00990639
0.0201274
0.0292881
0.037471
0.0447538
0.0512094
0.0569081
0.0619187
0.0662879
0.0700355
0.0733692
0.0767947
0.0789847
-0.226052
-0.223352
-0.218202
-0.209216
-0.196105
-0.179424
-0.160098
-0.13925
-0.117866
-0.0967711
-0.0765482
-0.0575597
-0.0399912
-0.0239018
-0.00927156
0.00396366
0.0158883
0.0265937
0.0361707
0.0447067
0.0522842
0.0589808
0.0648689
0.070019
0.0744988
0.0783531
0.0816033
0.0844694
0.0874585
0.0891811
-0.199862
-0.197586
-0.192702
-0.183888
-0.170946
-0.154477
-0.135507
-0.115112
-0.0942932
-0.0738512
-0.0543439
-0.0361078
-0.0193067
-0.00398413
0.00988997
0.0223855
0.0335902
0.0435968
0.0524968
0.0603776
0.0673214
0.0734051
0.0787008
0.0832783
0.0872036
0.0905186
0.0932472
0.0956196
0.0981349
0.0993679
-0.172486
-0.170655
-0.166055
-0.157447
-0.144721
-0.128574
-0.110021
-0.0901629
-0.0699894
-0.0502756
-0.0315512
-0.0141271
0.00185363
0.0163618
0.0294368
0.0411535
0.0516024
0.0608772
0.0690698
0.0762674
0.0825515
0.0879983
0.092679
0.0966621
0.100011
0.102763
0.104948
0.106806
0.108806
0.109482
-0.143996
-0.14266
-0.138353
-0.12998
-0.117551
-0.101783
-0.0837265
-0.0644845
-0.0450319
-0.0261156
-0.00823623
0.00832093
0.0234325
0.0370828
0.0493191
0.0602212
0.0698814
0.0783945
0.0858522
0.0923412
0.0979424
0.102731
0.106777
0.110147
0.112898
0.115065
0.116691
0.118018
0.119423
0.119364
-0.114472
-0.113738
-0.10969
-0.101598
-0.0895175
-0.0741986
-0.0567125
-0.0381619
-0.0195004
-0.00144549
0.0155321
0.0311722
0.0453703
0.058123
0.0694851
0.0795401
0.0883822
0.0961064
0.102804
0.108563
0.113461
0.117573
0.120968
0.123708
0.125846
0.127414
0.128474
0.129239
0.129873
0.128841
-0.0841585
-0.0838875
-0.0801731
-0.0724034
-0.0607227
-0.0459176
-0.0290729
-0.0112833
0.0065224
0.0236577
0.0396821
0.0543602
0.0676051
0.0794248
0.0898808
0.0990599
0.107057
0.113969
0.119886
0.124893
0.129071
0.132492
0.135223
0.137324
0.138839
0.139808
0.140317
0.140477
0.140097
0.137963
-0.0530986
-0.0532598
-0.0499132
-0.0425024
-0.0312716
-0.017042
-0.000904352
0.0160605
0.0329515
0.0491149
0.0641403
0.0778164
0.090073
0.100929
0.110451
0.118728
0.125859
0.131937
0.137054
0.141294
0.144737
0.147454
0.149512
0.150967
0.151861
0.152252
0.152245
0.151788
0.15032
0.147283
-0.0213784
-0.0219892
-0.0190234
-0.012005
-0.00127289
0.0123237
0.0276941
0.0437761
0.0596996
0.0748447
0.0888311
0.10147
0.112708
0.122573
0.131137
0.138492
0.144736
0.149963
0.154265
0.157725
0.16042
0.162423
0.1638
0.164604
0.164882
0.164714
0.164211
0.163117
0.160631
0.158876
0.0108776
0.00980763
0.0123802
0.0189744
0.0291622
0.0420727
0.0566211
0.0717684
0.0866779
0.100764
0.113677
0.12525
0.135444
0.144296
0.151882
0.158297
0.163638
0.168001
0.171474
0.174142
0.17608
0.177362
0.178051
0.1782
0.177863
0.177129
0.17608
0.17439
0.171573
0.170501
0.043543
0.042011
0.0441781
0.0503183
0.0599199
0.0720962
0.0857737
0.0999408
0.113796
0.12679
0.138601
0.149084
0.158213
0.166033
0.172626
0.178087
0.182513
0.186
0.188635
0.190503
0.191678
0.192232
0.192228
0.191721
0.190766
0.189455
0.187839
0.1856
0.182508
0.181386
0.0764915
0.0744979
0.0762482
0.0819074
0.0908848
0.102284
0.115048
0.128196
0.140964
0.152837
0.163522
0.172896
0.180945
0.187721
0.193309
0.197806
0.201308
0.203911
0.205702
0.206764
0.207171
0.206993
0.206294
0.205128
0.203553
0.201658
0.199476
0.196728
0.193331
0.191881
0.109596
0.107143
0.108467
0.113621
0.12194
0.132525
0.144339
0.156435
0.168088
0.178819
0.188363
0.196614
0.203572
0.209295
0.21387
0.217396
0.21997
0.221685
0.222629
0.222882
0.222519
0.221608
0.220212
0.218386
0.216188
0.213703
0.210955
0.207701
0.203935
0.202054
0.142728
0.139821
0.140709
0.145337
0.15297
0.162708
0.173542
0.184561
0.195079
0.204652
0.213042
0.220162
0.226023
0.230689
0.234249
0.236802
0.238446
0.239273
0.239368
0.238813
0.237679
0.236036
0.233944
0.231459
0.228639
0.225562
0.222249
0.218482
0.214307
0.211948
0.17576
0.172403
0.172851
0.176934
0.183856
0.192723
0.202553
0.212475
0.221843
0.230249
0.23748
0.243467
0.24823
0.251838
0.254384
0.255967
0.256682
0.256623
0.255873
0.254512
0.252613
0.25024
0.247456
0.244313
0.240871
0.237204
0.233327
0.229043
0.224437
0.221575
0.208563
0.204764
0.204766
0.208291
0.214483
0.222457
0.231266
0.240079
0.248291
0.255527
0.261599
0.266454
0.270123
0.272679
0.274216
0.274833
0.274627
0.273687
0.272098
0.269938
0.267277
0.264182
0.26071
0.256916
0.252856
0.248602
0.244163
0.239361
0.234313
0.230936
0.24101
0.236778
0.236332
0.239288
0.244735
0.251803
0.259581
0.267279
0.274333
0.280401
0.28532
0.289051
0.291634
0.293146
0.293684
0.293345
0.292226
0.290416
0.287998
0.285047
0.281634
0.277824
0.273673
0.269234
0.264563
0.259727
0.254733