/*--------------------------------*- C++ -*----------------------------------*\
  =========                 |
  \\      /  F ield         | OpenFOAM: The Open Source CFD Toolbox
   \\    /   O peration     | Website:  https://openfoam.org
    \\  /    A nd           | Version:  7
     \\/     M anipulation  |
\*---------------------------------------------------------------------------*/
FoamFile
{
    version     2.0;
    format      ascii;
    class       volVectorField;
    location    "50";
    object      U;
}
// * * * * * * * * * * * * * * * * * * * * * * * * * * * * * * * * * * * * * //

dimensions      [0 1 -1 0 0 0 0];

internalField   nonuniform List<vector> 
40000
(
(-0.000175577 0.000199237 -1.85007e-21)
(-0.00110703 0.000543043 5.73114e-21)
(-0.00310248 0.000838013 -3.65806e-21)
(-0.00591917 0.00108961 -3.92908e-24)
(-0.00942335 0.00130145 -7.58128e-25)
(-0.0135248 0.00147646 2.87555e-24)
(-0.0181299 0.00161746 -6.08121e-21)
(-0.0231478 0.00172714 1.44603e-21)
(-0.0284936 0.00180799 -4.12816e-21)
(-0.0340889 0.00186238 -1.30634e-21)
(-0.039861 0.00189257 0)
(-0.0457435 0.00190074 -4.70534e-21)
(-0.0516761 0.00188902 0)
(-0.0576044 0.00185952 0)
(-0.0634799 0.00181438 -3.98933e-21)
(-0.06926 0.00175576 3.76947e-21)
(-0.0749073 0.00168594 -1.78011e-21)
(-0.08039 0.0016073 -1.51033e-24)
(-0.0856818 0.00152246 1.58167e-21)
(-0.0907621 0.00143424 0)
(-0.0956163 0.00134585 -1.40337e-21)
(-0.100237 0.00126084 -3.95938e-21)
(-0.104624 0.00118321 4.96127e-21)
(-0.108785 0.00111738 -2.33009e-21)
(-0.11274 0.00106806 6.56019e-21)
(-0.116516 0.00104007 4.10241e-21)
(-0.120153 0.00103795 -7.69133e-21)
(-0.123697 0.00106511 7.20584e-21)
(-0.127195 0.00112398 -1.68685e-21)
(-0.130718 0.00121949 -3.16203e-21)
(-0.00020241 0.000776276 0)
(-0.00117643 0.00211126 3.82343e-21)
(-0.00320176 0.00325666 7.32808e-21)
(-0.00603788 0.00423122 -6.99349e-21)
(-0.00955233 0.00504844 -3.35129e-21)
(-0.0136558 0.00572006 1.2761e-20)
(-0.0182555 0.00625778 -3.04628e-21)
(-0.0232613 0.00667305 -5.80042e-21)
(-0.0285891 0.0069769 -7.81478e-24)
(-0.0341609 0.00717992 -1.56965e-20)
(-0.0399046 0.00729234 4.96023e-21)
(-0.0457543 0.00732391 1.8828e-20)
(-0.0516497 0.00728396 -8.91519e-21)
(-0.057537 0.00718134 -4.61312e-24)
(-0.0633678 0.00702451 -3.99608e-21)
(-0.0690994 0.00682154 -1.66428e-24)
(-0.0746946 0.00658025 0)
(-0.0801213 0.00630838 0)
(-0.0853529 0.00601374 1.2663e-20)
(-0.0903686 0.00570451 0)
(-0.0951531 0.0053895 5.61396e-21)
(-0.0996981 0.00507839 -5.27862e-21)
(-0.104003 0.00478192 -9.65314e-25)
(-0.108075 0.00451188 0)
(-0.111932 0.00428087 8.74809e-21)
(-0.115603 0.00410171 -8.20457e-21)
(-0.119126 0.00398614 7.69132e-21)
(-0.122548 0.00394248 -7.20583e-21)
(-0.125916 0.00397573 6.74625e-21)
(-0.1293 0.00409702 -1.89718e-20)
(-0.000257895 0.00134579 -7.41378e-21)
(-0.00131984 0.00365983 -7.64261e-21)
(-0.00340679 0.00564617 0)
(-0.00628285 0.00733635 0)
(-0.00981827 0.00875342 0)
(-0.0139256 0.00991765 6.39506e-21)
(-0.018514 0.0108494 0)
(-0.0234947 0.0115686 5.7919e-21)
(-0.0287852 0.0120947 1.10149e-20)
(-0.0343086 0.0124463 1.04632e-20)
(-0.039994 0.0126414 0)
(-0.0457761 0.0126973 6.19591e-24)
(-0.0515957 0.0126304 -1.78465e-20)
(-0.0573992 0.0124561 1.68902e-20)
(-0.0631388 0.0121891 7.98119e-21)
(-0.0687718 0.0118433 7.5464e-21)
(-0.074261 0.0114319 -7.11778e-21)
(-0.0795742 0.0109678 1.34402e-20)
(-0.0846843 0.0104641 -2.5332e-20)
(-0.0895694 0.00993386 3.16898e-25)
(-0.0942135 0.00939157 -2.24562e-20)
(-0.0986067 0.00885285 2.11262e-20)
(-0.102747 0.00833516 0)
(-0.10664 0.00785778 0)
(-0.110302 0.00744147 8.75208e-21)
(-0.113761 0.00710752 0)
(-0.117056 0.00687565 0)
(-0.120236 0.0067599 0)
(-0.123341 0.00676892 -1.34927e-20)
(-0.126449 0.00692049 1.26473e-20)
(-0.000341166 0.00190264 7.41378e-21)
(-0.00153512 0.00517529 8.61259e-24)
(-0.00371465 0.00798655 3.70067e-23)
(-0.00665072 0.01038 -1.40085e-20)
(-0.0102177 0.0123875 -1.33873e-20)
(-0.0143308 0.0140376 1.65186e-23)
(-0.018902 0.0153588 -2.43665e-20)
(-0.0238449 0.0163792 1.16051e-20)
(-0.0290791 0.0171262 -2.20689e-20)
(-0.0345295 0.0176263 2.09622e-20)
(-0.0401267 0.017905 -9.94585e-21)
(-0.0458068 0.0179869 1.88566e-20)
(-0.0515118 0.0178951 1.78464e-20)
(-0.0571888 0.0176516 1.48168e-23)
(-0.0627905 0.0172771 -1.59852e-20)
(-0.0682747 0.0167911 0)
(-0.0736041 0.016212 3.51583e-25)
(-0.0787462 0.0155578 1.34479e-20)
(-0.0836729 0.0148461 1.34029e-24)
(-0.0883614 0.0140953 -6.8488e-24)
(-0.092794 0.0133249 2.24622e-20)
(-0.0969589 0.0125563 -2.11261e-20)
(-0.100852 0.0118138 0)
(-0.104476 0.011124 1.86551e-20)
(-0.107845 0.0105165 2.37706e-24)
(-0.110986 0.0100219 -4.92474e-20)
(-0.113938 0.00966897 1.53867e-20)
(-0.116753 0.0094791 2.88272e-20)
(-0.119463 0.00946653 1.34926e-20)
(-0.122154 0.00965667 1.26489e-20)
(-0.000450935 0.00244191 2.97656e-20)
(-0.0018191 0.00664477 -1.53377e-20)
(-0.00412099 0.0102586 1.46684e-20)
(-0.00713651 0.013338 1.40387e-20)
(-0.0107452 0.015923 0)
(-0.0148661 0.0180494 -2.56274e-20)
(-0.0194145 0.0197535 -1.22274e-20)
(-0.0243072 0.0210711 -2.32279e-20)
(-0.0294663 0.022037 1.10352e-20)
(-0.0348194 0.0226853 2.72469e-23)
(-0.0402989 0.0230487 1.99167e-20)
(-0.045843 0.0231587 1.89012e-20)
(-0.0513946 0.0230449 -3.57431e-20)
(-0.0569024 0.0227357 1.69237e-20)
(-0.0623197 0.0222575 -1.74419e-23)
(-0.0676046 0.021635 0)
(-0.0727199 0.0208918 -1.42583e-20)
(-0.0776326 0.0200503 -2.69264e-20)
(-0.0823138 0.0191329 3.80667e-20)
(-0.0867392 0.0181623 1.19613e-20)
(-0.0908888 0.0171629 0)
(-0.0947484 0.0161618 -2.11544e-20)
(-0.0983101 0.0151895 0)
(-0.101575 0.0142807 -5.59816e-20)
(-0.104552 0.0134738 3.50201e-20)
(-0.107267 0.01281 -4.17448e-24)
(-0.10976 0.012329 3.0785e-20)
(-0.112085 0.0120618 -4.32384e-20)
(-0.114265 0.0120313 2.69935e-20)
(-0.116396 0.0122726 1.2647e-20)
(-0.000585532 0.00295902 -1.49027e-20)
(-0.00216764 0.00805621 1.53365e-20)
(-0.00462016 0.0124444 -1.03536e-24)
(-0.00773372 0.0161875 -4.22368e-20)
(-0.0113941 0.0193331 0)
(-0.0155248 0.0219236 2.56273e-20)
(-0.0200449 0.024002 -2.44983e-20)
(-0.0248752 0.0256114 4.64866e-20)
(-0.0299412 0.0267936 0)
(-0.035173 0.0275895 -2.09894e-20)
(-0.0405058 0.0280387 -1.99166e-20)
(-0.0458797 0.0281792 -1.88811e-20)
(-0.0512396 0.0280471 -5.37215e-20)
(-0.0565353 0.0276765 2.09013e-24)
(-0.0617212 0.0270993 -1.67489e-23)
(-0.0667559 0.0263452 -1.32898e-23)
(-0.0716023 0.0254425 4.28546e-20)
(-0.0762268 0.0244178 -3.1589e-23)
(-0.0805995 0.0232976 2.84286e-23)
(-0.0846942 0.0221087 -2.38947e-20)
(-0.0884886 0.0208799 -1.78397e-23)
(-0.091965 0.0196433 4.23196e-20)
(-0.0951116 0.0184357 -5.96751e-20)
(-0.0979249 0.0172993 1.86664e-20)
(-0.100411 0.0162825 0)
(-0.10259 0.0154382 0)
(-0.104504 0.0148194 -3.07848e-20)
(-0.106211 0.01447 2.88406e-20)
(-0.107722 0.0144259 -2.69874e-20)
(-0.109143 0.0147357 0)
(-0.000742951 0.00344981 -1.49514e-20)
(-0.00257578 0.00939855 0)
(-0.00520533 0.0145271 1.47324e-20)
(-0.00843447 0.0189074 8.46537e-20)
(-0.0121561 0.0225931 -2.69157e-20)
(-0.0162983 0.0256324 0)
(-0.0207852 0.0280746 -4.98872e-23)
(-0.0255415 0.0299688 2.33167e-20)
(-0.0304965 0.0313634 -2.21405e-20)
(-0.0355836 0.0323058 0)
(-0.040741 0.0328418 0)
(-0.0459109 0.0330156 -3.78822e-20)
(-0.0510405 0.0328691 5.37483e-20)
(-0.0560811 0.0324421 -1.69516e-20)
(-0.0609883 0.0317714 0)
(-0.0657213 0.0308917 3.03088e-20)
(-0.070243 0.0298352 -2.85582e-20)
(-0.0745194 0.0286326 2.69763e-20)
(-0.0785194 0.0273138 -5.08221e-20)
(-0.0822146 0.0259091 -7.18431e-20)
(-0.0855799 0.0244512 2.25174e-20)
(-0.0885937 0.0229765 2.11857e-20)
(-0.0912396 0.0215274 1.98874e-20)
(-0.0935084 0.0201538 0)
(-0.0954009 0.0189143 -3.50798e-20)
(-0.0969326 0.0178749 0)
(-0.0981449 0.0171051 0)
(-0.0991008 0.0166659 -5.76893e-20)
(-0.0997982 0.0166124 -9.46462e-24)
(-0.100348 0.0170132 -7.58605e-20)
(-0.0009209 0.0039106 1.49514e-20)
(-0.00303781 0.010662 3.09272e-20)
(-0.00586869 0.0164918 2.96147e-20)
(-0.00922971 0.0214783 -2.82424e-20)
(-0.0130214 0.0256802 0)
(-0.0171771 0.0291503 0)
(-0.0216258 0.0319432 2.45121e-20)
(-0.0262969 0.0341136 -2.33648e-20)
(-0.0311236 0.0357156 -3.79267e-23)
(-0.0360431 0.0368023 4.2209e-20)
(-0.0409965 0.0374256 0)
(-0.0459289 0.0376352 3.78821e-20)
(-0.0507896 0.0374786 0)
(-0.0555317 0.0370006 0)
(-0.0601121 0.0362429 1.67023e-23)
(-0.0644908 0.0352444 3.03322e-20)
(-0.0686308 0.0340411 -2.86514e-20)
(-0.0724976 0.0326671 5.40397e-20)
(-0.0760586 0.0311553 -2.54638e-20)
(-0.0792835 0.0295388 7.18819e-20)
(-0.0821436 0.0278532 0)
(-0.0846131 0.0261385 0)
(-0.08667 0.0244421 3.98731e-20)
(-0.0882987 0.022821 0)
(-0.089493 0.0213438 3.50552e-20)
(-0.0902618 0.0200918 -3.29056e-20)
(-0.0906448 0.0191536 3.08062e-20)
(-0.0907115 0.0186131 -2.88537e-20)
(-0.0904433 0.018553 5.39992e-20)
(-0.0899451 0.0190721 7.58855e-20)
(-0.00111687 0.00433828 0)
(-0.00354751 0.0118379 -3.09272e-20)
(-0.0066016 0.0183253 8.84665e-23)
(-0.0101094 0.0238832 0)
(-0.0139794 0.0285737 -5.42084e-20)
(-0.0181502 0.0324536 -3.51847e-23)
(-0.022556 0.0355818 2.45825e-20)
(-0.027131 0.0380178 0)
(-0.0318126 0.0398206 2.2224e-20)
(-0.0365418 0.0410486 -4.22089e-20)
(-0.041263 0.0417589 0)
(-0.0459242 0.0420064 0)
(-0.0504771 0.0418438 -3.5992e-20)
(-0.0548767 0.0413206 3.40266e-20)
(-0.0590813 0.0404828 -3.21513e-20)
(-0.0630517 0.0393732 0)
(-0.0667511 0.0380312 -2.87331e-20)
(-0.0701444 0.0364938 -8.11469e-20)
(-0.0731978 0.0347961 -1.15486e-23)
(-0.0758782 0.0329734 -7.88044e-24)
(-0.0781537 0.0310634 2.25847e-20)
(-0.0799937 0.0291087 4.24684e-20)
(-0.0813697 0.0271602 -7.97702e-20)
(-0.0822587 0.0252812 3.74683e-20)
(-0.0826459 0.0235504 -3.02546e-24)
(-0.0825315 0.0220648 2.57389e-23)
(-0.0819513 0.020936 2.78293e-23)
(-0.0809826 0.0202778 2.88752e-20)
(-0.0795893 0.0202102 0)
(-0.0778416 0.0208771 0)
(-0.00132821 0.00473032 3.0185e-20)
(-0.0040982 0.0129195 9.85211e-23)
(-0.00739484 0.0200166 9.65823e-23)
(-0.0110628 0.0261072 -5.69458e-20)
(-0.0150185 0.0312556 5.42463e-20)
(-0.0192058 0.0355215 0)
(-0.0235641 0.038967 0)
(-0.0280322 0.0416557 4.69559e-20)
(-0.0325521 0.0436509 -4.45872e-20)
(-0.0370686 0.0450155 3.7682e-23)
(-0.0415294 0.0458114 8.03892e-20)
(-0.0458855 0.0460983 3.80911e-20)
(-0.0500911 0.0459335 -7.21079e-20)
(-0.0541033 0.0453706 3.40975e-20)
(-0.0578816 0.04446 3.22535e-20)
(-0.0613877 0.0432477 -3.04442e-20)
(-0.0645851 0.0417762 5.74307e-20)
(-0.0674379 0.0400846 8.13648e-20)
(-0.069911 0.0382101 5.11304e-20)
(-0.0719687 0.0361893 2.40524e-20)
(-0.0735754 0.0340606 -4.52373e-20)
(-0.0746952 0.0318681 0)
(-0.0752929 0.0296651 3.43569e-23)
(-0.0753367 0.0275194 3.75384e-20)
(-0.0748019 0.025519 3.51395e-20)
(-0.0736775 0.0237766 -6.59401e-20)
(-0.0719919 0.0224301 -3.08639e-20)
(-0.0698325 0.0216312 5.7742e-20)
(-0.0671484 0.0215479 0)
(-0.063911 0.0223865 -5.04983e-20)
(-0.00155219 0.00508485 3.02572e-20)
(-0.00468301 0.0139011 -6.23434e-20)
(-0.00823882 0.0215568 2.09689e-23)
(-0.0120786 0.0281381 -9.55715e-23)
(-0.0161264 0.0337106 0)
(-0.0203311 0.0383355 0)
(-0.024637 0.0420778 0)
(-0.0289878 0.0450039 -4.7084e-20)
(-0.0333295 0.0471809 4.47088e-20)
(-0.0376107 0.0486758 -4.24102e-20)
(-0.0417826 0.0495545 -8.05182e-20)
(-0.0457993 0.0498811 -2.51736e-23)
(-0.0496172 0.0497169 7.23044e-20)
(-0.0531954 0.0491198 3.42235e-20)
(-0.0564949 0.0481435 0)
(-0.0594782 0.0468373 -6.10939e-20)
(-0.0621087 0.0452463 8.64518e-20)
(-0.06435 0.0434116 -8.14019e-20)
(-0.0661652 0.0413713 -5.11612e-20)
(-0.0675161 0.0391627 -1.44541e-19)
(-0.0683632 0.0368243 1.34273e-24)
(-0.0686648 0.0343999 9.91298e-24)
(-0.0683787 0.0319436 3.29069e-23)
(-0.0674635 0.0295258 -7.50235e-20)
(-0.0658829 0.0272415 1.05613e-19)
(-0.0636123 0.0252186 -4.67479e-23)
(-0.060668 0.0236235 0)
(-0.057151 0.0226534 -5.7741e-20)
(-0.0530126 0.0225343 5.39727e-20)
(-0.0479855 0.0235556 5.07338e-20)
(-0.00178607 0.00540066 0)
(-0.00529501 0.0147791 -3.13288e-20)
(-0.00912381 0.0229392 2.99306e-20)
(-0.0131452 0.0299664 5.7229e-20)
(-0.0172903 0.0359261 2.73754e-20)
(-0.0215127 0.0408804 -5.20808e-20)
(-0.0257611 0.0448959 -6.08991e-23)
(-0.0299836 0.0480415 -4.71843e-20)
(-0.0341304 0.0503875 0)
(-0.0381535 0.052004 4.26417e-20)
(-0.0420076 0.0529608 0)
(-0.0456493 0.0533259 0)
(-0.0490377 0.0531643 -7.24479e-20)
(-0.0521336 0.0525374 -6.84939e-20)
(-0.0548992 0.0515025 9.72093e-20)
(-0.0572976 0.0501115 6.10934e-20)
(-0.0592921 0.0484118 6.68494e-23)
(-0.0608454 0.046446 -5.43982e-20)
(-0.0619187 0.0442531 1.0247e-19)
(-0.062471 0.04187 4.59138e-24)
(-0.0624586 0.0393345 9.08011e-20)
(-0.0618343 0.0366889 0)
(-0.0605477 0.0339858 0)
(-0.0585475 0.0312958 7.519e-20)
(-0.0557848 0.0287179 -1.05605e-19)
(-0.0522188 0.0263932 9.8963e-20)
(-0.0478473 0.024517 -6.17537e-20)
(-0.0427883 0.0233355 5.77521e-20)
(-0.0370463 0.0231478 -1.07934e-19)
(-0.0298765 0.0244093 5.07774e-20)
(-0.00202721 0.0056772 -3.05714e-20)
(-0.00592739 0.0155512 0)
(-0.0100401 0.0241596 0)
(-0.0142509 0.0315853 -5.75806e-20)
(-0.0184974 0.0378925 1.09826e-19)
(-0.0227367 0.0431436 -5.22607e-20)
(-0.0269217 0.047406 -9.75637e-23)
(-0.0310046 0.0507505 4.73348e-20)
(-0.034939 0.0532497 0)
(-0.0386805 0.0549769 7.10325e-23)
(-0.0421865 0.0560051 1.85715e-23)
(-0.0454166 0.0564056 -7.67257e-20)
(-0.0483316 0.0562469 -1.46446e-22)
(-0.050894 0.0555938 -3.43501e-20)
(-0.0530671 0.0545065 -9.73712e-20)
(-0.0548142 0.0530396 6.12973e-20)
(-0.056098 0.0512424 -5.78155e-20)
(-0.05688 0.0491588 1.09082e-19)
(-0.0571193 0.0468283 -1.02743e-19)
(-0.0567716 0.0442872 -9.66635e-20)
(-0.0557887 0.0415714 2.81958e-23)
(-0.0541172 0.0387206 -4.27202e-20)
(-0.0516988 0.0357842 4.00825e-20)
(-0.0484715 0.0328298 4.43702e-23)
(-0.0443728 0.0299568 -1.05816e-19)
(-0.0393436 0.0273152 -6.60384e-20)
(-0.0333584 0.0251263 1.23523e-19)
(-0.0265411 0.0236799 -1.15497e-19)
(-0.0190082 0.0233725 5.39608e-20)
(-0.00947415 0.0251828 8.50898e-23)
(-0.00227311 0.00591458 9.18758e-20)
(-0.00657363 0.0162169 -3.15261e-20)
(-0.0109784 0.025216 -6.0416e-20)
(-0.0153843 0.0329907 1.73044e-19)
(-0.0197343 0.0396033 2.0696e-22)
(-0.0239885 0.0451157 0)
(-0.0281033 0.0495957 0)
(-0.0320341 0.0531155 4.75166e-20)
(-0.0357376 0.0557496 -4.5055e-20)
(-0.0391725 0.0575738 4.28215e-20)
(-0.0422988 0.0586641 -4.06144e-20)
(-0.0450781 0.0590947 -7.70518e-20)
(-0.0474732 0.0589375 1.45532e-19)
(-0.0494476 0.0582602 -3.44228e-20)
(-0.0509652 0.0571257 6.49144e-20)
(-0.0519889 0.0555913 -1.22843e-19)
(-0.0524807 0.053708 -8.22479e-24)
(-0.0524 0.0515208 5.01103e-23)
(-0.051703 0.0490696 1.02837e-19)
(-0.0503418 0.0463897 -4.43008e-23)
(-0.048263 0.043515 0)
(-0.0454067 0.0404815 0)
(-0.0417062 0.0373334 -4.02255e-20)
(-0.0370884 0.0341328 -1.50583e-19)
(-0.0314765 0.0309749 1.0585e-19)
(-0.0247924 0.0280123 -3.87497e-23)
(-0.0169884 0.025485 -1.23552e-19)
(-0.00817282 0.0237245 1.154e-19)
(0.00157824 0.0232795 -5.3995e-20)
(0.0134609 0.0256607 5.02345e-20)
(-0.00252148 0.00611353 0)
(-0.00722764 0.0167774 0)
(-0.0119296 0.0261086 6.07626e-20)
(-0.016534 0.0341811 -1.1575e-19)
(-0.0209879 0.0410548 8.24401e-23)
(-0.0252534 0.0467904 -5.26786e-20)
(-0.0292894 0.0514559 1.50482e-19)
(-0.0330539 0.0551243 -1.43081e-19)
(-0.0365064 0.0578718 -4.20059e-24)
(-0.0396077 0.0597765 -4.29565e-20)
(-0.04232 0.0609169 -1.22306e-19)
(-0.0446066 0.0613701 1.1561e-19)
(-0.0464315 0.0612107 0)
(-0.047759 0.0605095 0)
(-0.0485525 0.0593319 6.51337e-20)
(-0.0487742 0.0577374 1.2318e-19)
(-0.0483842 0.0557791 -5.80606e-20)
(-0.0473392 0.0535031 0)
(-0.0455918 0.0509495 -5.15295e-20)
(-0.043089 0.048153 1.56338e-23)
(-0.0397718 0.0451451 -4.56536e-20)
(-0.0355729 0.0419577 0)
(-0.0304165 0.0386289 -4.02753e-20)
(-0.0242184 0.0352127 3.77231e-20)
(-0.0168869 0.0317954 -7.05505e-20)
(-0.00832409 0.0285249 1.98248e-19)
(0.00154016 0.0256497 -9.23108e-23)
(0.0126107 0.0235408 5.77073e-20)
(0.0249173 0.0229135 0)
(0.0396522 0.0256667 -5.06187e-20)
(-0.0027703 0.00627535 -6.18847e-20)
(-0.00788387 0.0172349 6.36194e-20)
(-0.0128854 0.0268395 1.54682e-22)
(-0.0176892 0.0351575 -5.81357e-20)
(-0.022245 0.042246 0)
(-0.026516 0.0481643 -1.05846e-19)
(-0.0304624 0.0529802 8.24336e-23)
(-0.0340443 0.0567676 4.76673e-20)
(-0.0372228 0.0596042 3.78249e-24)
(-0.0399606 0.0615699 -1.71177e-24)
(-0.0422213 0.0627456 1.22423e-19)
(-0.0439694 0.0632111 3.86811e-20)
(-0.0451693 0.0630438 3.66948e-20)
(-0.0457849 0.0623169 -6.91937e-20)
(-0.045779 0.0610985 6.53626e-20)
(-0.0451117 0.0594505 -6.16224e-20)
(-0.0437403 0.0574277 5.81741e-20)
(-0.0416176 0.0550778 -5.48297e-20)
(-0.0386911 0.0524414 0)
(-0.0349018 0.0495527 -4.86584e-20)
(-0.0301834 0.0464415 9.12274e-20)
(-0.0244604 0.0431355 4.29252e-20)
(-0.017647 0.0396667 -4.03104e-20)
(-0.00964718 0.0360792 1.50964e-19)
(-0.00035469 0.0324465 -3.53759e-20)
(0.0103484 0.0289037 6.61336e-20)
(0.0225574 0.0256946 -6.16848e-20)
(0.0361894 0.0232179 9.00006e-23)
(0.0513474 0.0223468 0)
(0.069503 0.0254272 -9.98862e-20)
(-0.00301788 0.00640186 -1.12253e-22)
(-0.00853739 0.0175932 -6.39171e-20)
(-0.0138378 0.027413 0)
(-0.0188392 0.0359234 -5.85362e-20)
(-0.0234923 0.0431786 5.572e-20)
(-0.0277601 0.0492368 -9.47153e-23)
(-0.0316033 0.0541657 0)
(-0.0349829 0.0580396 -8.47187e-23)
(-0.0378612 0.0609378 -4.54996e-20)
(-0.0402017 0.0629421 4.32382e-20)
(-0.0419689 0.0641356 0)
(-0.0431272 0.0646006 -7.75746e-20)
(-0.043641 0.0644171 7.35933e-20)
(-0.043473 0.0636608 0)
(-0.0425838 0.0624025 0)
(-0.0409306 0.0607062 0)
(-0.0384663 0.0586289 0)
(-0.0351383 0.05622 5.49129e-20)
(-0.0308875 0.0535211 -5.17198e-20)
(-0.025647 0.0505668 1.45844e-19)
(-0.0193417 0.0473856 -9.14435e-20)
(-0.011886 0.0440025 -8.57842e-20)
(-0.003183 0.0404435 1.20857e-19)
(0.00687561 0.0367428 6.06956e-23)
(0.0184104 0.0329591 -7.07429e-20)
(0.0315578 0.0292072 -6.61318e-20)
(0.0464408 0.0257119 -6.17778e-20)
(0.0629872 0.0228727 1.15272e-19)
(0.0813254 0.0216829 -1.07335e-19)
(0.103493 0.0251153 1.99419e-19)
(-0.00326284 0.00649528 1.2488e-19)
(-0.00918394 0.0178572 -1.30573e-22)
(-0.0147799 0.0278346 -1.22997e-19)
(-0.019974 0.036484 1.17332e-19)
(-0.0247164 0.0438568 -5.60667e-20)
(-0.0289687 0.0500102 -5.32888e-20)
(-0.0326913 0.055012 5.06984e-20)
(-0.0358449 0.0589374 4.81748e-20)
(-0.038392 0.0618671 -9.15637e-20)
(-0.0402963 0.0638849 -1.30266e-19)
(-0.041522 0.065076 -4.10728e-20)
(-0.042033 0.0655253 1.55608e-19)
(-0.041792 0.0653152 -2.20656e-19)
(-0.0407597 0.064524 6.9551e-20)
(-0.0388931 0.0632249 0)
(-0.0361449 0.0614845 0)
(-0.0324621 0.0593621 0)
(-0.0277847 0.0569092 1.10061e-19)
(-0.0220452 0.0541691 -5.18031e-20)
(-0.0151668 0.0511775 -4.8791e-20)
(-0.00706287 0.0479631 -9.15541e-20)
(0.00236382 0.0445496 8.59677e-20)
(0.0132229 0.0409585 -4.03562e-20)
(0.0256359 0.0372161 -7.56688e-20)
(0.0397369 0.0333656 -1.05547e-22)
(0.0556784 0.0294977 -1.32185e-19)
(0.0736101 0.0258049 1.85304e-19)
(0.09347 0.0226541 -1.73015e-19)
(0.115347 0.0210917 5.3999e-20)
(0.142188 0.0248982 -4.95699e-20)
(-0.00350416 0.00655816 -6.25938e-20)
(-0.00981989 0.0180324 6.44147e-20)
(-0.0157049 0.0281115 6.15822e-20)
(-0.0210833 0.0368465 -1.76794e-19)
(-0.0259033 0.0442868 5.6062e-20)
(-0.0301237 0.0504893 5.35099e-20)
(-0.0337033 0.055522 0)
(-0.0366018 0.0594616 0)
(-0.038781 0.0623902 4.58193e-20)
(-0.0402035 0.064394 8.68966e-20)
(-0.0408325 0.0655604 -1.64998e-19)
(-0.0406299 0.0659766 -8.61236e-23)
(-0.0395561 0.0657276 0)
(-0.0375677 0.0648945 0)
(-0.0346171 0.0635528 -6.57796e-20)
(-0.0306505 0.0617719 4.03929e-23)
(-0.0256069 0.0596137 5.85238e-20)
(-0.0194172 0.0571323 -5.50592e-20)
(-0.0120027 0.0543734 -1.03785e-19)
(-0.00327438 0.0513751 9.74801e-20)
(0.00686775 0.0481676 4.5799e-20)
(0.0185354 0.0447751 -1.2913e-19)
(0.0318523 0.0412178 -8.06304e-20)
(0.0469542 0.0375162 7.57812e-20)
(0.0639879 0.0337013 7.0875e-20)
(0.083117 0.0298391 6.6155e-20)
(0.104514 0.0260818 0)
(0.12813 0.0227318 0)
(0.153915 0.0207855 1.06986e-19)
(0.186159 0.024993 0)
(-0.00374115 0.00659323 6.3233e-20)
(-0.0104422 0.018125 -6.49025e-20)
(-0.0166067 0.0282513 1.24178e-19)
(-0.0221571 0.0370192 -2.76746e-22)
(-0.0270382 0.0444766 0)
(-0.0312049 0.0506808 0)
(-0.0346132 0.055701 0)
(-0.037221 0.0596157 -4.85294e-20)
(-0.038988 0.062509 4.6081e-20)
(-0.0398751 0.0644695 0)
(-0.0398428 0.065587 8.25754e-20)
(-0.0388504 0.0659515 7.82834e-20)
(-0.0368538 0.0656503 -7.39989e-20)
(-0.0338045 0.0647674 6.9899e-20)
(-0.0296481 0.063381 -9.60973e-23)
(-0.0243224 0.0615635 -6.22133e-20)
(-0.0177565 0.0593795 -5.86465e-20)
(-0.00986935 0.0568865 1.65594e-19)
(-0.000568935 0.0541336 5.18338e-20)
(0.0102485 0.051162 -9.76846e-20)
(0.0226989 0.0480054 -4.5834e-20)
(0.0369101 0.0446908 4.3034e-20)
(0.0530216 0.0412397 0)
(0.0711835 0.0376713 -7.56502e-20)
(0.0915532 0.0340088 -7.07783e-20)
(0.1143 0.0302978 0)
(0.13961 0.0266497 6.15359e-20)
(0.167454 0.0232815 -1.15265e-19)
(0.197498 0.0209982 -1.60627e-19)
(0.235919 0.0256695 0)
(-0.00397337 0.00660329 -1.2663e-19)
(-0.0110483 0.0181413 6.53856e-20)
(-0.0174791 0.0282627 -1.24655e-19)
(-0.0231849 0.0370113 -2.86042e-22)
(-0.0281052 0.0444354 0)
(-0.0321899 0.0505935 0)
(-0.0353915 0.0555571 5.14252e-20)
(-0.0376647 0.0594066 9.76651e-20)
(-0.0389663 0.0622293 0)
(-0.0392541 0.064116 0)
(-0.038485 0.0651598 -1.66008e-19)
(-0.0366136 0.0654531 7.85854e-20)
(-0.0335902 0.0650863 -1.40176e-22)
(-0.0293593 0.064146 0)
(-0.0238574 0.0627137 -3.12819e-23)
(-0.0170119 0.0608647 6.23326e-20)
(-0.0087394 0.0586674 -1.62935e-22)
(0.00105524 0.0561828 -2.21073e-19)
(0.0124799 0.0534642 -5.20111e-20)
(0.0256555 0.0505577 9.76824e-20)
(0.0407154 0.0475016 9.17191e-20)
(0.0578053 0.0443281 -9.25925e-23)
(0.0770805 0.0410631 8.07715e-20)
(0.0987038 0.0377287 1.51291e-19)
(0.12284 0.0343463 7.07756e-20)
(0.149655 0.0309487 6.60864e-20)
(0.179335 0.027613 6.14642e-20)
(0.211886 0.0244737 1.14491e-19)
(0.246482 0.0219651 -7.63848e-22)
(0.291839 0.0272307 4.80567e-20)
(-0.00420061 0.00659107 1.27662e-19)
(-0.0116357 0.0180878 -1.96655e-19)
(-0.0183161 0.028154 1.25286e-19)
(-0.0241553 0.0368327 1.1955e-19)
(-0.0290863 0.0441735 5.69442e-20)
(-0.0330534 0.0502379 -3.96969e-23)
(-0.0360041 0.0551003 -5.13348e-20)
(-0.0378891 0.0588443 -9.76648e-20)
(-0.0386612 0.0615605 2.36789e-22)
(-0.0382737 0.0633432 1.75859e-19)
(-0.0366786 0.0642884 -8.35476e-20)
(-0.0338242 0.0644918 1.5745e-19)
(-0.0296532 0.0640469 -1.08573e-22)
(-0.0241009 0.0630435 -1.40378e-19)
(-0.0170929 0.0615663 -1.57086e-23)
(-0.00854353 0.0596943 0)
(0.0016453 0.0575 2.9383e-19)
(0.0135854 0.0550488 5.52136e-20)
(0.0274025 0.0523994 0)
(0.0432361 0.0496033 4.88573e-20)
(0.0612385 0.0467055 -4.59551e-20)
(0.0815722 0.0437451 1.7224e-19)
(0.104407 0.0407552 -2.42295e-19)
(0.129914 0.0377646 7.57125e-20)
(0.158258 0.0347987 0)
(0.18959 0.0318855 6.59662e-20)
(0.224069 0.0290797 -1.23075e-19)
(0.261768 0.0264673 1.14474e-19)
(0.301115 0.0239032 -1.06407e-19)
(0.354055 0.0299835 -9.75043e-20)
(-0.00442273 0.00655909 -1.28178e-19)
(-0.012202 0.0179702 -3.58979e-22)
(-0.0191107 0.0279334 -6.28035e-20)
(-0.0250553 0.0364929 -5.99234e-20)
(-0.0299612 0.0437018 -1.14596e-19)
(-0.033766 0.0496255 5.44876e-20)
(-0.0364115 0.0543428 7.95617e-23)
(-0.0378433 0.0579416 -9.82582e-20)
(-0.0380089 0.0605165 -1.3946e-19)
(-0.036856 0.0621658 1.46744e-22)
(-0.0343298 0.0629891 8.3293e-20)
(-0.0303706 0.0630858 -1.57664e-19)
(-0.0249115 0.062553 7.4609e-20)
(-0.0178765 0.0614838 7.04241e-20)
(-0.00917758 0.0599671 -9.03514e-24)
(0.00128596 0.058086 6.2559e-20)
(0.0136294 0.0559175 -1.17628e-19)
(0.027983 0.0535325 0)
(0.0444919 0.0509958 -1.04173e-19)
(0.0633147 0.0483657 9.78631e-20)
(0.0846214 0.0456953 -9.18644e-20)
(0.108589 0.0430319 -8.61643e-20)
(0.135396 0.0404181 0)
(0.165213 0.0378917 -2.26646e-19)
(0.198195 0.0354864 1.66866e-22)
(0.234457 0.0332321 -3.29725e-19)
(0.2741 0.0311712 1.84746e-19)
(0.317289 0.029409 -2.28667e-19)
(0.361446 0.0269963 1.064e-19)
(0.422369 0.034204 -9.62422e-20)
(-0.0046396 0.00650954 6.42673e-20)
(-0.0127444 0.0177938 6.609e-20)
(-0.0198553 0.0276085 6.34862e-20)
(-0.0258702 0.0360014 -1.87615e-22)
(-0.0307064 0.043031 -1.6685e-22)
(-0.034294 0.0487687 0)
(-0.0365682 0.0532985 0)
(-0.0374685 0.0567141 0)
(-0.0369359 0.0591149 0)
(-0.0349108 0.0606037 0)
(-0.03133 0.0612848 8.36254e-20)
(-0.0261239 0.0612617 -7.90718e-20)
(-0.0192139 0.0606353 7.48145e-20)
(-0.0105099 0.0595033 7.85218e-24)
(9.13264e-05 0.0579589 -6.64005e-20)
(0.0127082 0.05609 1.57666e-23)
(0.0274749 0.0539792 -1.1793e-19)
(0.0445413 0.0517038 1.10911e-19)
(0.064072 0.0493353 1.0417e-19)
(0.0862434 0.0469404 -9.77425e-20)
(0.11124 0.0445807 1.8383e-19)
(0.139246 0.0423133 0)
(0.17044 0.0401909 -1.61281e-19)
(0.204978 0.0382616 3.29567e-22)
(0.242982 0.0365688 3.91582e-22)
(0.284515 0.0351481 5.66703e-22)
(0.329568 0.0340309 -6.10538e-20)
(0.378415 0.0334347 1.14193e-19)
(0.427279 0.0313904 1.05945e-19)
(0.496151 0.0401042 5.02969e-20)
(-0.0048509 0.00644411 0)
(-0.0132593 0.0175628 6.66479e-20)
(-0.0205402 0.0271856 -6.33071e-20)
(-0.0265825 0.0353666 -1.34784e-22)
(-0.0312945 0.0421718 1.15644e-19)
(-0.0345982 0.0476802 -5.50342e-20)
(-0.0364216 0.0519829 0)
(-0.036697 0.05518 0)
(-0.0353575 0.057377 -9.38034e-20)
(-0.0323348 0.0586824 8.89873e-20)
(-0.0275553 0.0592055 8.41885e-20)
(-0.0209374 0.0590545 0)
(-0.0123884 0.0583356 7.50316e-20)
(-0.00180248 0.0571511 0)
(0.0109416 0.0555995 -1.33032e-19)
(0.0259813 0.0537745 1.88058e-19)
(0.0434707 0.0517652 1.76931e-19)
(0.0635793 0.0496559 -5.54906e-20)
(0.086489 0.0475262 -1.20399e-22)
(0.11239 0.0454516 -1.46905e-19)
(0.141474 0.043503 0)
(0.173923 0.0417476 0)
(0.209896 0.0402478 8.06882e-20)
(0.249517 0.0390611 1.50813e-19)
(0.292848 0.0382394 -1.10713e-22)
(0.339864 0.0378228 1.31673e-19)
(0.390409 0.0378241 1.22625e-19)
(0.444817 0.0386606 0)
(0.498132 0.0371909 -1.05937e-19)
(0.574269 0.0477982 1.45106e-19)
(-0.00505599 0.00636396 6.54418e-20)
(-0.0137422 0.0172801 0)
(-0.0211542 0.0266697 1.61205e-22)
(-0.0271714 0.0345959 -6.10902e-20)
(-0.0316935 0.0411343 5.83083e-20)
(-0.0346335 0.0463731 5.52293e-20)
(-0.0359116 0.0504123 -1.09476e-22)
(-0.0354517 0.0533598 4.99605e-20)
(-0.0331779 0.0553282 0)
(-0.0290112 0.0564325 -1.7851e-19)
(-0.022866 0.056788 2.65561e-22)
(-0.0146464 0.0565088 0)
(-0.00424373 0.0557065 7.52372e-20)
(0.00846597 0.0544896 -2.12573e-19)
(0.0236232 0.0529626 6.68126e-20)
(0.0413853 0.0512259 -6.27183e-20)
(0.0619259 0.0493761 -1.18144e-19)
(0.0854317 0.0475054 -1.66715e-19)
(0.112098 0.0457022 0)
(0.14212 0.0440509 0)
(0.175685 0.0426319 9.18517e-20)
(0.212954 0.0415212 8.59465e-20)
(0.254049 0.0407894 -8.07405e-20)
(0.299026 0.0405002 0)
(0.347858 0.04071 0)
(0.40039 0.0414571 0)
(0.456288 0.0427257 1.22041e-19)
(0.515807 0.045164 -5.65046e-20)
(0.573208 0.0444625 1.0652e-19)
(0.655041 0.057276 9.37495e-20)
(-0.00525374 0.00626962 -1.31092e-19)
(-0.0141868 0.0169473 6.74903e-20)
(-0.0216828 0.0260643 -6.46471e-20)
(-0.0276124 0.0336952 6.1623e-20)
(-0.031866 0.0399274 -5.83082e-20)
(-0.0343479 0.0448604 5.55211e-20)
(-0.0349696 0.0486044 -5.28218e-20)
(-0.0336456 0.0512765 -9.97968e-20)
(-0.0302895 0.0529975 9.4938e-20)
(-0.0248101 0.0538901 1.79178e-19)
(-0.0171076 0.0540766 8.45067e-20)
(-0.00707001 0.0536778 -8.00246e-20)
(0.0054293 0.052812 2.20156e-22)
(0.0205336 0.0515946 2.35486e-23)
(0.0384032 0.0501374 6.69623e-20)
(0.059215 0.0485485 0)
(0.0831594 0.0469326 1.1822e-19)
(0.110435 0.0453906 2.77827e-19)
(0.141242 0.0440197 -5.22713e-20)
(0.175769 0.042913 0)
(0.214179 0.0421589 -1.83688e-19)
(0.25659 0.0418397 -8.60246e-20)
(0.303055 0.0420303 -8.03649e-20)
(0.353531 0.0427951 7.5453e-20)
(0.407854 0.0441879 -7.00751e-20)
(0.465698 0.0462351 6.57205e-20)
(0.52654 0.0488963 -3.36419e-22)
(0.590296 0.0529552 1.12788e-19)
(0.651369 0.053256 -1.05296e-19)
(0.736164 0.0684282 -1.88796e-19)
(-0.0054423 0.00616092 6.63456e-20)
(-0.014585 0.0165646 6.79147e-20)
(-0.0221087 0.0253712 -2.36243e-22)
(-0.0278763 0.032669 4.00394e-22)
(-0.0317692 0.0385593 0)
(-0.0336827 0.0431548 -2.40381e-22)
(-0.0335189 0.0465774 -1.59508e-19)
(-0.0311819 0.0489548 0)
(-0.0265736 0.0504174 -9.533e-20)
(-0.0195887 0.0510963 -3.59867e-19)
(-0.0101117 0.0511221 8.51186e-20)
(0.00198725 0.0506235 -8.03113e-20)
(0.0168539 0.0497266 -1.50894e-19)
(0.0346512 0.0485548 1.42598e-19)
(0.0555587 0.047228 0)
(0.0797696 0.045863 6.29112e-20)
(0.107486 0.0445732 -1.77893e-19)
(0.138909 0.0434682 -5.56691e-20)
(0.17423 0.0426535 -1.56807e-19)
(0.213612 0.042229 0)
(0.257171 0.042288 1.83669e-19)
(0.304951 0.0429148 8.60202e-20)
(0.356898 0.0441816 0)
(0.412828 0.0461455 7.51347e-20)
(0.472403 0.0488481 0)
(0.535073 0.0522896 -6.50943e-20)
(0.600146 0.0564404 -1.82007e-19)
(0.66685 0.0619478 -2.25225e-19)
(0.73112 0.0636988 -1.0424e-19)
(0.814567 0.0811327 -3.42543e-21)
(-0.00561905 0.00603707 -6.63456e-20)
(-0.0149264 0.0161308 2.923e-22)
(-0.0224108 0.0245905 6.53397e-20)
(-0.027929 0.0315202 -6.20233e-20)
(-0.0313538 0.0370371 -5.91307e-20)
(-0.0325714 0.0412688 1.12121e-19)
(-0.0314739 0.0443506 5.34597e-20)
(-0.0279542 0.0464218 1.01243e-19)
(-0.0219007 0.0476236 9.53906e-20)
(-0.0131932 0.0480971 9.05573e-20)
(-0.00169858 0.0479821 1.70979e-19)
(0.0127315 0.0474164 -3.0456e-22)
(0.0302623 0.0465351 0)
(0.0510754 0.0454704 -7.12809e-20)
(0.0753663 0.0443515 -2.16873e-22)
(0.103339 0.0433043 1.314e-22)
(0.135197 0.0424509 1.77993e-19)
(0.171132 0.0419088 0)
(0.211307 0.0417898 1.04488e-19)
(0.255832 0.0421973 0)
(0.304746 0.0432242 4.52964e-24)
(0.357982 0.0449492 -8.57677e-20)
(0.415337 0.0474324 1.60752e-19)
(0.476447 0.0507118 -7.53838e-20)
(0.54076 0.0548045 -1.39911e-19)
(0.607477 0.0596673 6.53274e-20)
(0.675756 0.0653371 2.42441e-19)
(0.743891 0.0719346 5.59812e-20)
(0.810753 0.0760547 2.58894e-19)
(0.886588 0.0949134 4.93296e-20)
(-0.00578034 0.00589661 6.70855e-20)
(-0.0151978 0.0156432 -1.3765e-19)
(-0.0225641 0.0237208 0)
(-0.0277312 0.0302505 0)
(-0.0305643 0.0353671 5.95217e-20)
(-0.0309403 0.0392149 -2.64502e-22)
(-0.028741 0.0419438 -1.07017e-19)
(-0.0238469 0.0437062 -1.01442e-19)
(-0.0161324 0.0446553 3.98146e-22)
(-0.00546052 0.0449433 4.15532e-22)
(0.00831958 0.0447205 -8.54945e-20)
(0.0253751 0.0441348 1.61207e-19)
(0.0458893 0.0433314 -1.52164e-19)