/*--------------------------------*- C++ -*----------------------------------*\
  =========                 |
  \\      /  F ield         | OpenFOAM: The Open Source CFD Toolbox
   \\    /   O peration     | Website:  https://openfoam.org
    \\  /    A nd           | Version:  7
     \\/     M anipulation  |
\*---------------------------------------------------------------------------*/
FoamFile
{
    version     2.0;
    format      ascii;
    class       volScalarField;
    location    "50";
    object      p;
}
// * * * * * * * * * * * * * * * * * * * * * * * * * * * * * * * * * * * * * //

dimensions      [0 2 -2 0 0 0 0];

internalField   nonuniform List<scalar> 
928
(
-0.016076
-0.0157605
-0.01545
-0.0151444
-0.0148435
-0.0160804
-0.0157648
-0.0154542
-0.0151485
-0.0148476
-0.0160892
-0.0157735
-0.0154627
-0.0151568
-0.0148557
-0.0161024
-0.0157864
-0.0154754
-0.0151693
-0.0148679
-0.01612
-0.0158036
-0.0154923
-0.0151858
-0.0148842
-0.0161419
-0.0158251
-0.0155134
-0.0152065
-0.0149044
-0.0161682
-0.0158509
-0.0155386
-0.0152313
-0.0149288
-0.0161989
-0.015881
-0.0155681
-0.0152602
-0.0149571
-0.0162339
-0.0159153
-0.0156018
-0.0152932
-0.0149894
-0.0162732
-0.0159538
-0.0156395
-0.0153302
-0.0150258
-0.0163167
-0.0159965
-0.0156814
-0.0153713
-0.015066
-0.0163646
-0.0160435
-0.0157274
-0.0154164
-0.0151103
-0.0164167
-0.0160945
-0.0157775
-0.0154655
-0.0151584
-0.0148561
-0.016473
-0.0161497
-0.0158316
-0.0155186
-0.0152104
-0.0149071
-0.0165334
-0.016209
-0.0158898
-0.0155756
-0.0152663
-0.0149619
-0.016598
-0.0162723
-0.0159518
-0.0156364
-0.015326
-0.0150204
-0.0163397
-0.0160179
-0.0157012
-0.0153895
-0.0150826
-0.016411
-0.0160878
-0.0157697
-0.0154567
-0.0151485
-0.0164862
-0.0161615
-0.015842
-0.0155276
-0.015218
-0.0165653
-0.0162391
-0.015918
-0.0156021
-0.0152911
-0.0166482
-0.0163203
-0.0159977
-0.0156802
-0.0153677
-0.0167348
-0.0164053
-0.016081
-0.0157618
-0.0154477
-0.0151385
-0.0168251
-0.0164938
-0.0161678
-0.015847
-0.0155312
-0.0152204
-0.0169191
-0.0165859
-0.0162581
-0.0159355
-0.015618
-0.0153055
-0.0166816
-0.0163519
-0.0160275
-0.0157082
-0.0153939
-0.0167804
-0.0164488
-0.0161224
-0.0158013
-0.0154852
-0.0168816
-0.016548
-0.0162197
-0.0158966
-0.0155787
-0.0169878
-0.0166521
-0.0163218
-0.0159967
-0.0156768
-0.0171093
-0.0167711
-0.0164384
-0.016111
-0.0157888
-0.0154716
-0.0168868
-0.0165516
-0.0162218
-0.0158972
-0.0155777
-0.0169202
-0.016585
-0.0162552
-0.0159306
-0.0156112
-0.017117
-0.0167791
-0.0164465
-0.0161192
-0.015797
-0.0172973
-0.0169571
-0.0166222
-0.0162927
-0.0159682
-0.0174835
-0.017141
-0.0168038
-0.0164719
-0.0161452
-0.0176817
-0.0173366
-0.016997
-0.0166627
-0.0163336
-0.0178894
-0.0175419
-0.0171997
-0.0168629
-0.0165313
-0.0181063
-0.0177561
-0.0174114
-0.0170719
-0.0167377
-0.0183318
-0.017979
-0.0176316
-0.0172895
-0.0169526
-0.0185654
-0.0182099
-0.0178597
-0.0175149
-0.0171752
-0.0188064
-0.0184481
-0.0180951
-0.0177475
-0.0174051
-0.019054
-0.0186929
-0.0183371
-0.0179867
-0.0176415
-0.0193074
-0.0189434
-0.0185849
-0.0182317
-0.0178836
-0.0195657
-0.019199
-0.0188376
-0.0184815
-0.0181307
-0.0198281
-0.0194585
-0.0190943
-0.0187355
-0.0183818
-0.0200935
-0.0197212
-0.0193543
-0.0189926
-0.0186361
-0.0203612
-0.0199861
-0.0196165
-0.0192521
-0.0188928
-0.0206301
-0.0202524
-0.0198801
-0.019513
-0.019151
-0.0208994
-0.0205191
-0.0201442
-0.0197744
-0.0194098
-0.0211681
-0.0207854
-0.0204079
-0.0200356
-0.0196684
-0.0214356
-0.0210504
-0.0206705
-0.0202958
-0.0199261
-0.0217009
-0.0213134
-0.0209312
-0.020554
-0.0201819
-0.0219633
-0.0215737
-0.0211892
-0.0208098
-0.0204353
-0.0222222
-0.0218304
-0.0214438
-0.0210622
-0.0206856
-0.0224769
-0.0220832
-0.0216945
-0.0213109
-0.0209321
-0.0227268
-0.0223312
-0.0219407
-0.0215551
-0.0211743
-0.0229715
-0.0225742
-0.0221818
-0.0217944
-0.0214117
-0.0232104
-0.0228115
-0.0224175
-0.0220283
-0.0216439
-0.0234432
-0.0230428
-0.0226472
-0.0222564
-0.0218703
-0.0236695
-0.0232677
-0.0228707
-0.0224784
-0.0220908
-0.0238891
-0.0234861
-0.0230877
-0.022694
-0.0223049
-0.0241017
-0.0236975
-0.0232979
-0.0229029
-0.0225124
-0.0243072
-0.0239018
-0.0235011
-0.0231049
-0.0227132
-0.0245052
-0.0240989
-0.0236972
-0.0232999
-0.022907
-0.0246958
-0.0242887
-0.023886
-0.0234877
-0.0230938
-0.0248789
-0.024471
-0.0240674
-0.0236682
-0.0232733
-0.0250544
-0.0246457
-0.0242414
-0.0238414
-0.0234456
-0.0252222
-0.0248129
-0.0244079
-0.0240071
-0.0236106
-0.0253824
-0.0249726
-0.0245669
-0.0241655
-0.0237682
-0.025535
-0.0251247
-0.0247185
-0.0243164
-0.0239185
-0.02568
-0.0252692
-0.0248626
-0.02446
-0.0240614
-0.0258174
-0.0254063
-0.0249992
-0.0245961
-0.024197
-0.0259474
-0.0255359
-0.0251285
-0.024725
-0.0243254
-0.0260699
-0.0256582
-0.0252504
-0.0248465
-0.0244465
-0.026185
-0.0257731
-0.025365
-0.0249608
-0.0245604
-0.0262929
-0.0258808
-0.0254725
-0.025068
-0.0246672
-0.0263936
-0.0259813
-0.0255728
-0.025168
-0.024767
-0.0264871
-0.0260747
-0.025666
-0.025261
-0.0248597
-0.0265736
-0.026161
-0.0257522
-0.025347
-0.0249455
-0.026653
-0.0262404
-0.0258315
-0.0254262
-0.0250245
-0.0267256
-0.026313
-0.0259039
-0.0254984
-0.0250966
-0.0267914
-0.0263787
-0.0259695
-0.0255639
-0.0251619
-0.0268503
-0.0264376
-0.0260284
-0.0256227
-0.0252206
-0.0269026
-0.0264898
-0.0260806
-0.0256748
-0.0252726
-0.0269482
-0.0265354
-0.0261261
-0.0257203
-0.0253179
-0.0269872
-0.0265744
-0.026165
-0.0257592
-0.0253568
-0.0270196
-0.0266068
-0.0261974
-0.0257915
-0.0253891
-0.0270455
-0.0266327
-0.0262233
-0.0258174
-0.0254149
-0.0270649
-0.0266521
-0.0262427
-0.0258367
-0.0254342
-0.0270778
-0.026665
-0.0262556
-0.0258496
-0.0254471
-0.0270843
-0.0266714
-0.026262
-0.025856
-0.0254535
-0.0269898
-0.0270693
-0.0271419
-0.0272077
-0.0272667
-0.0273189
-0.0273645
-0.0274035
-0.0274359
-0.0274618
-0.0274812
-0.0274941
-0.0275005
-0.0169202
-0.017117
-0.0172973
-0.0174835
-0.0176817
-0.0178894
-0.0181063
-0.0183318
-0.0185655
-0.0188064
-0.019054
-0.0193074
-0.0195657
-0.0198281
-0.0200935
-0.0203612
-0.0206301
-0.0208994
-0.0211681
-0.0214356
-0.0217009
-0.0219633
-0.0222222
-0.0224769
-0.0227268
-0.0229715
-0.0232104
-0.0234432
-0.0236696
-0.0238892
-0.0241018
-0.0243072
-0.0245052
-0.0246959
-0.0248789
-0.0250544
-0.0252222
-0.0253824
-0.025535
-0.02568
-0.0258174
-0.0259474
-0.0260699
-0.0261851
-0.0262929
-0.0263936
-0.0264871
-0.0265736
-0.0266531
-0.0267256
-0.0267914
-0.0268504
-0.0269026
-0.0269482
-0.0269872
-0.0270196
-0.0270455
-0.0270649
-0.0270778
-0.0270843
-0.016585
-0.0167791
-0.0169571
-0.017141
-0.0173366
-0.0175419
-0.0177561
-0.017979
-0.0182099
-0.0184481
-0.0186929
-0.0189435
-0.019199
-0.0194585
-0.0197212
-0.0199861
-0.0202524
-0.0205191
-0.0207854
-0.0210504
-0.0213134
-0.0215737
-0.0218305
-0.0220832
-0.0223313
-0.0225742
-0.0228115
-0.0230428
-0.0232678
-0.0234861
-0.0236975
-0.0239019
-0.024099
-0.0242887
-0.024471
-0.0246457
-0.0248129
-0.0249726
-0.0251247
-0.0252692
-0.0254063
-0.0255359
-0.0256582
-0.0257731
-0.0258808
-0.0259813
-0.0260747
-0.0261611
-0.0262405
-0.026313
-0.0263787
-0.0264376
-0.0264898
-0.0265354
-0.0265744
-0.0266068
-0.0266327
-0.0266521
-0.026665
-0.0266714
-0.0162552
-0.0164465
-0.0166223
-0.0168038
-0.016997
-0.0171997
-0.0174114
-0.0176316
-0.0178597
-0.0180952
-0.0183371
-0.0185849
-0.0188376
-0.0190944
-0.0193543
-0.0196165
-0.0198801
-0.0201442
-0.0204079
-0.0206705
-0.0209312
-0.0211892
-0.0214438
-0.0216945
-0.0219407
-0.0221818
-0.0224175
-0.0226472
-0.0228707
-0.0230877
-0.0232979
-0.0235011
-0.0236972
-0.023886
-0.0240674
-0.0242414
-0.0244079
-0.024567
-0.0247185
-0.0248626
-0.0249992
-0.0251285
-0.0252504
-0.0253651
-0.0254725
-0.0255728
-0.025666
-0.0257522
-0.0258315
-0.0259039
-0.0259695
-0.0260284
-0.0260806
-0.0261261
-0.0261651
-0.0261974
-0.0262233
-0.0262427
-0.0262556
-0.026262
-0.0159306
-0.0161192
-0.0162927
-0.0164719
-0.0166627
-0.0168629
-0.0170719
-0.0172895
-0.0175149
-0.0177475
-0.0179867
-0.0182317
-0.0184815
-0.0187355
-0.0189926
-0.0192521
-0.019513
-0.0197744
-0.0200356
-0.0202958
-0.020554
-0.0208098
-0.0210623
-0.0213109
-0.0215551
-0.0217944
-0.0220283
-0.0222564
-0.0224784
-0.022694
-0.0229029
-0.0231049
-0.0232999
-0.0234877
-0.0236682
-0.0238414
-0.0240071
-0.0241655
-0.0243164
-0.02446
-0.0245961
-0.024725
-0.0248465
-0.0249608
-0.025068
-0.025168
-0.025261
-0.0253471
-0.0254262
-0.0254985
-0.025564
-0.0256227
-0.0256748
-0.0257203
-0.0257592
-0.0257915
-0.0258174
-0.0258367
-0.0258496
-0.0258561
-0.0156112
-0.0157971
-0.0159682
-0.0161452
-0.0163336
-0.0165313
-0.0167377
-0.0169526
-0.0171753
-0.0174051
-0.0176415
-0.0178836
-0.0181307
-0.0183818
-0.0186361
-0.0188928
-0.019151
-0.0194098
-0.0196684
-0.0199261
-0.0201819
-0.0204353
-0.0206856
-0.0209321
-0.0211744
-0.0214117
-0.0216439
-0.0218703
-0.0220908
-0.0223049
-0.0225125
-0.0227132
-0.022907
-0.0230938
-0.0232733
-0.0234456
-0.0236106
-0.0237682
-0.0239185
-0.0240614
-0.024197
-0.0243254
-0.0244465
-0.0245605
-0.0246673
-0.024767
-0.0248598
-0.0249456
-0.0250245
-0.0250966
-0.0251619
-0.0252206
-0.0252726
-0.025318
-0.0253568
-0.0253891
-0.0254149
-0.0254342
-0.0254471
-0.0254535
-0.0172274
-0.0168868
-0.0165516
-0.0162218
-0.0158972
-0.0155777
-0.0171093
-0.0167711
-0.0164384
-0.016111
-0.0157888
-0.0154716
-0.0169878
-0.0166521
-0.0163218
-0.0159968
-0.0156768
-0.0168816
-0.016548
-0.0162197
-0.0158967
-0.0155787
-0.0167804
-0.0164488
-0.0161224
-0.0158013
-0.0154852
-0.0166816
-0.0163519
-0.0160275
-0.0157082
-0.0153939
-0.0169191
-0.0165859
-0.0162581
-0.0159355
-0.015618
-0.0153055
-0.0168251
-0.0164938
-0.0161678
-0.015847
-0.0155312
-0.0152204
-0.0167348
-0.0164053
-0.016081
-0.0157619
-0.0154477
-0.0166482
-0.0163203
-0.0159977
-0.0156802
-0.0153677
-0.0165653
-0.0162391
-0.015918
-0.0156021
-0.0152911
-0.0164862
-0.0161615
-0.015842
-0.0155276
-0.015218
-0.016411
-0.0160878
-0.0157697
-0.0154567
-0.0151485
-0.0163397
-0.0160179
-0.0157012
-0.0153895
-0.0150826
-0.016598
-0.0162723
-0.0159518
-0.0156364
-0.015326
-0.0150204
-0.0165334
-0.016209
-0.0158898
-0.0155756
-0.0152663
-0.0149619
-0.016473
-0.0161497
-0.0158316
-0.0155186
-0.0152104
-0.0149071
-0.0164167
-0.0160945
-0.0157775
-0.0154655
-0.0151584
-0.0163646
-0.0160435
-0.0157274
-0.0154164
-0.0151103
-0.0163167
-0.0159965
-0.0156814
-0.0153713
-0.015066
-0.0162732
-0.0159538
-0.0156395
-0.0153302
-0.0150258
-0.0162339
-0.0159153
-0.0156018
-0.0152932
-0.0149894
-0.0161989
-0.015881
-0.0155681
-0.0152602
-0.0149571
-0.0161682
-0.0158509
-0.0155387
-0.0152313
-0.0149288
-0.0161419
-0.0158251
-0.0155134
-0.0152065
-0.0149044
-0.01612
-0.0158036
-0.0154923
-0.0151858
-0.0148842
-0.0161024
-0.0157864
-0.0154754
-0.0151693
-0.0148679
-0.0160892
-0.0157735
-0.0154627
-0.0151568
-0.0148557
-0.0160804
-0.0157648
-0.0154542
-0.0151485
-0.0148476
-0.016076
-0.0157605
-0.01545
-0.0151444
-0.0148435
)
;

boundaryField
{
    inlet
    {
        type            zeroGradient;
    }
    outlet
    {
        type            fixedValue;
        value           nonuniform 0();
    }
    cylinder
    {
        type            zeroGradient;
    }
    top
    {
        type            symmetryPlane;
    }
    bottom
    {
        type            symmetryPlane;
    }
    defaultFaces
    {
        type            empty;
    }
    procBoundary46to45
    {
        type            processor;
        value           nonuniform List<scalar> 
187
(
-0.0163967
-0.0164011
-0.0164101
-0.0164236
-0.0164415
-0.0164638
-0.0164907
-0.0165219
-0.0165576
-0.0165977
-0.0166422
-0.016691
-0.0167441
-0.0168015
-0.0168632
-0.016929
-0.0166667
-0.0166667
-0.0167394
-0.0168162
-0.0168968
-0.0169814
-0.0170697
-0.0171619
-0.0172577
-0.0170167
-0.0170167
-0.0171175
-0.0172207
-0.017329
-0.017453
-0.0172274
-0.0172274
-0.0172608
-0.0174605
-0.0176431
-0.0178316
-0.0180322
-0.0182425
-0.018462
-0.0186902
-0.0189266
-0.0191704
-0.0194207
-0.0196769
-0.019938
-0.0202032
-0.0204714
-0.0207417
-0.0210132
-0.021285
-0.0215563
-0.0218261
-0.0220936
-0.0223582
-0.0226191
-0.0228757
-0.0231274
-0.0233738
-0.0236143
-0.0238485
-0.0240762
-0.024297
-0.0245107
-0.0247171
-0.0249161
-0.0251075
-0.0252913
-0.0254674
-0.0256358
-0.0257965
-0.0259495
-0.0260948
-0.0262326
-0.0263628
-0.0264855
-0.0266009
-0.0267089
-0.0268096
-0.0269033
-0.0269898
-0.0270693
-0.0271419
-0.0272077
-0.0272667
-0.0273189
-0.0273645
-0.0274035
-0.0274359
-0.0274618
-0.0274812
-0.0274941
-0.0275005
-0.0274097
-0.0274893
-0.0275619
-0.0276276
-0.0276865
-0.0277388
-0.0277843
-0.0278233
-0.0278557
-0.0278815
-0.0279009
-0.0279138
-0.0279202
-0.0172608
-0.0172608
-0.0174605
-0.0176431
-0.0178316
-0.0180322
-0.0182425
-0.018462
-0.0186903
-0.0189266
-0.0191704
-0.0194208
-0.0196769
-0.0199381
-0.0202032
-0.0204714
-0.0207417
-0.0210132
-0.021285
-0.0215563
-0.0218261
-0.0220936
-0.0223582
-0.0226191
-0.0228757
-0.0231275
-0.0233738
-0.0236143
-0.0238485
-0.0240762
-0.024297
-0.0245107
-0.0247171
-0.0249161
-0.0251075
-0.0252913
-0.0254674
-0.0256358
-0.0257965
-0.0259495
-0.0260949
-0.0262326
-0.0263628
-0.0264855
-0.0266009
-0.0267089
-0.0268097
-0.0269033
-0.0269033
-0.0175737
-0.017453
-0.017329
-0.0172207
-0.0171175
-0.0170167
-0.0170167
-0.0172577
-0.0171619
-0.0170697
-0.0169814
-0.0168968
-0.0168162
-0.0167394
-0.0166667
-0.0166667
-0.0169291
-0.0168632
-0.0168015
-0.0167441
-0.016691
-0.0166422
-0.0165977
-0.0165576
-0.0165219
-0.0164907
-0.0164638
-0.0164415
-0.0164236
-0.0164101
-0.0164011
-0.0163967
)
;
    }
    procBoundary46to47
    {
        type            processor;
        value           nonuniform List<scalar> 
186
(
-0.0145473
-0.0145513
-0.0145593
-0.0145712
-0.0145872
-0.0146071
-0.0146309
-0.0146587
-0.0146904
-0.014726
-0.0147655
-0.0148089
-0.0148089
-0.0145584
-0.0146085
-0.0146622
-0.0147196
-0.0147806
-0.0148452
-0.0149133
-0.014985
-0.0150601
-0.0150601
-0.0148341
-0.0149144
-0.0149978
-0.0150845
-0.015174
-0.0152657
-0.0153619
-0.0153619
-0.0151594
-0.0152633
-0.0152967
-0.0154799
-0.0156488
-0.0158235
-0.0160095
-0.0162047
-0.0164085
-0.0166207
-0.0168407
-0.0170678
-0.0173014
-0.0175407
-0.0177849
-0.0180332
-0.0182847
-0.0185386
-0.0187941
-0.0190502
-0.0193062
-0.0195613
-0.0198148
-0.0200658
-0.0203138
-0.0205582
-0.0207984
-0.0210338
-0.0212641
-0.0214889
-0.0217077
-0.0219203
-0.0221265
-0.0223259
-0.0225185
-0.0227042
-0.0228827
-0.023054
-0.0232181
-0.023375
-0.0235245
-0.0236668
-0.0238019
-0.0239297
-0.0240503
-0.0241638
-0.0242703
-0.0243697
-0.0244621
-0.0245477
-0.0246264
-0.0246983
-0.0247635
-0.0248219
-0.0248738
-0.0249191
-0.0249578
-0.02499
-0.0250158
-0.0250351
-0.0250479
-0.0250543
-0.0152967
-0.0154799
-0.0156488
-0.0158236
-0.0160095
-0.0162047
-0.0164085
-0.0166207
-0.0168407
-0.0170678
-0.0173014
-0.0175407
-0.0177849
-0.0180332
-0.0182847
-0.0185386
-0.0187941
-0.0190502
-0.0193062
-0.0195613
-0.0198148
-0.0200658
-0.0203138
-0.0205582
-0.0207984
-0.0210338
-0.0212641
-0.0214889
-0.0217077
-0.0219203
-0.0221265
-0.0223259
-0.0225186
-0.0227042
-0.0228827
-0.023054
-0.0232181
-0.023375
-0.0235245
-0.0236668
-0.0238019
-0.0239297
-0.0240503
-0.0241639
-0.0242703
-0.0243697
-0.0244622
-0.0245477
-0.0246264
-0.0246983
-0.0247635
-0.024822
-0.0248738
-0.0249191
-0.0249578
-0.0249901
-0.0250158
-0.0250351
-0.0250479
-0.0250543
-0.0152633
-0.0151594
-0.0153619
-0.0153619
-0.0152657
-0.015174
-0.0150845
-0.0149978
-0.0149144
-0.0151386
-0.0151386
-0.0150601
-0.014985
-0.0149133
-0.0148452
-0.0147806
-0.0147196
-0.0146622
-0.0146085
-0.0148561
-0.0148561
-0.0148089
-0.0147655
-0.014726
-0.0146904
-0.0146587
-0.0146309
-0.0146071
-0.0145872
-0.0145712
-0.0145593
-0.0145513
-0.0145473
)
;
    }
}


// ************************************************************************* //
