/*--------------------------------*- C++ -*----------------------------------*\
  =========                 |
  \\      /  F ield         | OpenFOAM: The Open Source CFD Toolbox
   \\    /   O peration     | Website:  https://openfoam.org
    \\  /    A nd           | Version:  7
     \\/     M anipulation  |
\*---------------------------------------------------------------------------*/
FoamFile
{
    version     2.0;
    format      ascii;
    class       volScalarField;
    location    "36";
    object      p;
}
// * * * * * * * * * * * * * * * * * * * * * * * * * * * * * * * * * * * * * //

dimensions      [0 2 -2 0 0 0 0];

internalField   nonuniform List<scalar> 
40000
(
-0.239969
-0.240848
-0.241509
-0.242052
-0.242541
-0.242979
-0.243372
-0.243729
-0.244059
-0.244367
-0.24466
-0.24494
-0.245211
-0.245474
-0.245729
-0.245974
-0.246209
-0.246429
-0.246633
-0.246818
-0.24698
-0.247117
-0.247227
-0.247309
-0.247363
-0.247392
-0.247397
-0.247384
-0.247355
-0.247327
-0.240072
-0.240944
-0.241601
-0.24214
-0.242626
-0.243061
-0.243452
-0.243807
-0.244134
-0.24444
-0.24473
-0.245009
-0.245278
-0.245539
-0.245792
-0.246035
-0.246268
-0.246486
-0.246688
-0.246871
-0.24703
-0.247164
-0.247271
-0.247349
-0.247399
-0.247423
-0.247424
-0.247406
-0.24737
-0.247338
-0.240277
-0.241138
-0.241786
-0.242318
-0.242797
-0.243227
-0.243612
-0.243961
-0.244284
-0.244585
-0.244872
-0.245146
-0.245411
-0.245668
-0.245917
-0.246157
-0.246386
-0.246601
-0.246799
-0.246977
-0.247132
-0.24726
-0.247361
-0.247432
-0.247474
-0.247488
-0.24748
-0.247453
-0.247404
-0.247365
-0.240584
-0.241426
-0.242061
-0.242582
-0.243052
-0.243473
-0.24385
-0.244192
-0.244507
-0.244802
-0.245082
-0.24535
-0.24561
-0.245861
-0.246105
-0.246339
-0.246562
-0.246771
-0.246963
-0.247135
-0.247282
-0.247403
-0.247494
-0.247554
-0.247584
-0.247585
-0.247563
-0.247521
-0.247453
-0.247402
-0.240988
-0.241806
-0.242424
-0.242931
-0.243388
-0.243798
-0.244164
-0.244496
-0.244802
-0.245088
-0.245359
-0.24562
-0.245871
-0.246115
-0.246351
-0.246578
-0.246793
-0.246995
-0.247179
-0.247342
-0.247479
-0.247589
-0.247667
-0.247713
-0.247727
-0.24771
-0.247669
-0.247609
-0.247514
-0.247446
-0.241485
-0.242275
-0.242872
-0.243362
-0.243803
-0.244198
-0.244551
-0.244871
-0.245165
-0.24544
-0.245701
-0.24595
-0.246192
-0.246426
-0.246653
-0.24687
-0.247076
-0.247268
-0.247442
-0.247594
-0.24772
-0.247816
-0.247879
-0.247907
-0.247899
-0.247859
-0.247794
-0.247709
-0.247581
-0.247491
-0.242072
-0.242829
-0.2434
-0.24387
-0.244293
-0.244671
-0.245008
-0.245313
-0.245593
-0.245854
-0.246102
-0.246339
-0.246569
-0.246791
-0.247006
-0.247212
-0.247407
-0.247588
-0.247749
-0.247888
-0.248
-0.248079
-0.248124
-0.24813
-0.248097
-0.248028
-0.247933
-0.247818
-0.247648
-0.247527
-0.242742
-0.243461
-0.244005
-0.244451
-0.244853
-0.245211
-0.24553
-0.245818
-0.246081
-0.246327
-0.246559
-0.246781
-0.246996
-0.247205
-0.247406
-0.247599
-0.247781
-0.247948
-0.248095
-0.248219
-0.248314
-0.248375
-0.248397
-0.248378
-0.248315
-0.248212
-0.248081
-0.247929
-0.247709
-0.247543
-0.243489
-0.244167
-0.24468
-0.245101
-0.245479
-0.245815
-0.246113
-0.246381
-0.246626
-0.246853
-0.247067
-0.247272
-0.24747
-0.247663
-0.247848
-0.248025
-0.248192
-0.248343
-0.248475
-0.248581
-0.248657
-0.248697
-0.248694
-0.248646
-0.248549
-0.248406
-0.248231
-0.248036
-0.247756
-0.247526
-0.244307
-0.24494
-0.24542
-0.245814
-0.246166
-0.246477
-0.246752
-0.246998
-0.247221
-0.247427
-0.247621
-0.247806
-0.247985
-0.248159
-0.248326
-0.248485
-0.248634
-0.248768
-0.248881
-0.248969
-0.249024
-0.24904
-0.249009
-0.248928
-0.248793
-0.248603
-0.248376
-0.248131
-0.247785
-0.247457
-0.245189
-0.245776
-0.246221
-0.246585
-0.246909
-0.247193
-0.247443
-0.247663
-0.247862
-0.248045
-0.248216
-0.248378
-0.248535
-0.248687
-0.248834
-0.248973
-0.249102
-0.249215
-0.249309
-0.249375
-0.249407
-0.249397
-0.249337
-0.24922
-0.249041
-0.2488
-0.248512
-0.248207
-0.247792
-0.2473
-0.246128
-0.246668
-0.247076
-0.247409
-0.247702
-0.247958
-0.248179
-0.248373
-0.248545
-0.248701
-0.248845
-0.248983
-0.249115
-0.249242
-0.249365
-0.249481
-0.249587
-0.249679
-0.24975
-0.249793
-0.249801
-0.249763
-0.249671
-0.249515
-0.24929
-0.24899
-0.248631
-0.248262
-0.247784
-0.246973
-0.247119
-0.24761
-0.247981
-0.24828
-0.248542
-0.248767
-0.248958
-0.249121
-0.249263
-0.249389
-0.249505
-0.249613
-0.249717
-0.249817
-0.249913
-0.250004
-0.250085
-0.250152
-0.250198
-0.250217
-0.250197
-0.25013
-0.250004
-0.249808
-0.249533
-0.24917
-0.248731
-0.248288
-0.24777
-0.246434
-0.248155
-0.248598
-0.24893
-0.249195
-0.249424
-0.249615
-0.249773
-0.249904
-0.250013
-0.250106
-0.250189
-0.250265
-0.250337
-0.250406
-0.250472
-0.250533
-0.250586
-0.250626
-0.250646
-0.250637
-0.25059
-0.250492
-0.250331
-0.250093
-0.249765
-0.249335
-0.248812
-0.248266
-0.247604
-0.246248
-0.249231
-0.249626
-0.249919
-0.25015
-0.250343
-0.2505
-0.250622
-0.250717
-0.250789
-0.250846
-0.250893
-0.250933
-0.250969
-0.251003
-0.251035
-0.251064
-0.251085
-0.251095
-0.251085
-0.251047
-0.25097
-0.25084
-0.250643
-0.250362
-0.249981
-0.249482
-0.248871
-0.248212
-0.247358
-0.245922
-0.250342
-0.250691
-0.250946
-0.25114
-0.251297
-0.251416
-0.251501
-0.251556
-0.251589
-0.251606
-0.251612
-0.251611
-0.251608
-0.251603
-0.251597
-0.251589
-0.251575
-0.251551
-0.251508
-0.251439
-0.25133
-0.251167
-0.250933
-0.250609
-0.250174
-0.249605
-0.248901
-0.248125
-0.247087
-0.245401
-0.251486
-0.251789
-0.252006
-0.252165
-0.252284
-0.252363
-0.252407
-0.25242
-0.252409
-0.252382
-0.252343
-0.252297
-0.252249
-0.2522
-0.252152
-0.252103
-0.25205
-0.251988
-0.25191
-0.251805
-0.251662
-0.251464
-0.251193
-0.250826
-0.250338
-0.249699
-0.248899
-0.248
-0.246782
-0.244712
-0.252659
-0.25292
-0.2531
-0.253221
-0.253301
-0.253339
-0.253338
-0.253306
-0.253247
-0.253171
-0.253082
-0.252986
-0.252889
-0.252791
-0.252695
-0.2526
-0.252504
-0.2524
-0.252282
-0.252139
-0.251959
-0.251725
-0.251415
-0.251005
-0.250464
-0.249757
-0.248859
-0.247832
-0.246444
-0.24386
-0.253861
-0.254082
-0.254226
-0.25431
-0.254348
-0.254342
-0.254295
-0.254212
-0.254102
-0.253972
-0.253828
-0.253677
-0.253525
-0.253373
-0.253224
-0.253078
-0.252933
-0.252782
-0.25262
-0.252435
-0.252215
-0.251941
-0.25159
-0.251136
-0.250543
-0.249769
-0.248776
-0.247618
-0.246078
-0.242844
-0.255093
-0.255278
-0.255385
-0.255431
-0.255427
-0.255374
-0.255276
-0.25514
-0.254973
-0.254784
-0.254581
-0.254369
-0.254156
-0.253944
-0.253737
-0.253535
-0.253334
-0.253132
-0.252921
-0.25269
-0.252424
-0.252107
-0.251712
-0.251211
-0.250566
-0.249727
-0.248641
-0.247348
-0.245692
-0.241673
-0.256359
-0.256509
-0.256581
-0.256588
-0.25654
-0.256437
-0.256285
-0.25609
-0.255862
-0.255609
-0.25534
-0.255062
-0.254782
-0.254505
-0.254233
-0.253968
-0.253708
-0.253449
-0.253183
-0.2529
-0.252585
-0.252219
-0.251777
-0.251226
-0.250526
-0.249621
-0.248444
-0.24701
-0.245292
-0.240362
-0.257662
-0.25778
-0.257818
-0.257784
-0.257689
-0.257534
-0.257323
-0.257066
-0.256771
-0.256449
-0.256108
-0.255758
-0.255405
-0.255056
-0.254714
-0.254381
-0.254055
-0.253733
-0.253407
-0.253067
-0.252697
-0.252278
-0.251783
-0.251177
-0.250416
-0.249444
-0.248177
-0.246591
-0.244877
-0.238942
-0.259009
-0.259097
-0.2591
-0.259025
-0.25888
-0.258668
-0.258395
-0.258071
-0.257704
-0.257307
-0.256889
-0.25646
-0.256029
-0.255602
-0.255184
-0.254777
-0.254379
-0.253988
-0.253597
-0.253194
-0.252764
-0.252286
-0.251731
-0.251064
-0.250237
-0.24919
-0.247834
-0.246082
-0.244434
-0.23746
-0.260409
-0.260468
-0.260435
-0.260316
-0.260119
-0.259847
-0.259507
-0.25911
-0.258666
-0.258188
-0.257687
-0.257174
-0.256658
-0.256148
-0.255648
-0.255161
-0.254687
-0.254222
-0.253759
-0.253288
-0.252792
-0.252248
-0.251628
-0.250892
-0.24999
-0.248862
-0.247415
-0.24548
-0.243942
-0.235978
-0.261872
-0.261903
-0.261833
-0.261667
-0.261414
-0.261077
-0.260665
-0.26019
-0.259663
-0.259098
-0.258509
-0.257906
-0.257301
-0.256701
-0.256114
-0.255542
-0.254985
-0.254441
-0.253903
-0.253358
-0.252789
-0.252174
-0.251481
-0.250669
-0.249685
-0.248465
-0.246923
-0.244799
-0.243373
-0.234579
-0.263411
-0.263412
-0.263303
-0.263087
-0.262773
-0.262367
-0.261878
-0.261319
-0.260704
-0.260047
-0.259363
-0.258665
-0.257964
-0.257271
-0.256591
-0.255929
-0.255286
-0.254658
-0.254039
-0.253415
-0.252768
-0.252075
-0.251302
-0.250405
-0.249329
-0.248008
-0.24636
-0.24406
-0.242691
-0.233359
-0.265039
-0.265008
-0.264856
-0.264586
-0.264208
-0.263727
-0.263155
-0.262507
-0.261798
-0.261043
-0.26026
-0.259461
-0.25866
-0.257868
-0.257092
-0.256336
-0.255601
-0.254885
-0.254179
-0.253471
-0.252741
-0.251962
-0.251101
-0.250111
-0.248933
-0.247503
-0.245729
-0.243289
-0.241825
-0.232361
-0.266772
-0.266705
-0.266506
-0.266177
-0.265728
-0.265166
-0.264506
-0.263763
-0.262954
-0.262097
-0.261209
-0.260305
-0.2594
-0.258504
-0.257627
-0.256773
-0.255944
-0.255135
-0.254339
-0.25354
-0.252719
-0.251847
-0.250888
-0.249795
-0.248508
-0.246964
-0.245045
-0.242527
-0.240654
-0.23147
-0.268627
-0.268517
-0.268266
-0.267872
-0.267346
-0.266698
-0.265943
-0.2651
-0.264185
-0.26322
-0.262222
-0.261209
-0.260195
-0.259193
-0.258212
-0.257257
-0.256328
-0.255422
-0.254529
-0.253634
-0.252714
-0.251739
-0.250671
-0.249464
-0.24806
-0.246405
-0.244355
-0.241883
-0.239204
-0.230892
-0.27062
-0.270461
-0.27015
-0.269685
-0.269075
-0.268334
-0.267479
-0.266528
-0.265503
-0.264425
-0.263313
-0.262187
-0.261061
-0.259949
-0.25886
-0.2578
-0.256768
-0.25576
-0.254764
-0.253764
-0.252734
-0.251643
-0.250451
-0.249115
-0.247582
-0.245818
-0.243683
-0.24143
-0.23803
-0.232859
-0.27277
-0.272553
-0.272174
-0.27163
-0.270929
-0.270088
-0.269125
-0.268061
-0.266921
-0.265725
-0.264495
-0.263251
-0.26201
-0.260785
-0.259585
-0.258416
-0.257277
-0.25616
-0.255053
-0.253937
-0.252783
-0.251559
-0.250224
-0.248737
-0.247053
-0.245159
-0.242947
-0.240896
-0.237668
-0.240128
-0.275095
-0.274808
-0.274353
-0.273722
-0.272922
-0.271972
-0.270895
-0.269713
-0.268451
-0.267132
-0.265781
-0.264417
-0.263057
-0.261716
-0.260402
-0.259119
-0.257866
-0.256633
-0.255404
-0.254157
-0.252862
-0.251482
-0.249977
-0.24831
-0.246442
-0.244376
-0.242046
-0.239924
-0.236942
-0.238618
-0.277613
-0.277245
-0.276702
-0.275974
-0.275067
-0.274001
-0.272802
-0.271496
-0.270107
-0.268662
-0.267185
-0.265697
-0.264216
-0.262755
-0.261322
-0.259921
-0.258546
-0.257186
-0.255821
-0.254425
-0.252965
-0.251402
-0.249697
-0.247813
-0.24572
-0.243426
-0.240894
-0.238497
-0.235405
-0.235447
-0.280342
-0.279877
-0.279237
-0.278402
-0.277378
-0.276189
-0.274862
-0.273424
-0.271903
-0.270327
-0.268721
-0.267106
-0.2655
-0.263915
-0.262359
-0.260831
-0.259324
-0.257823
-0.256304
-0.254737
-0.253084
-0.251307
-0.249365
-0.247225
-0.244862
-0.242287
-0.239477
-0.236701
-0.233326
-0.231991
-0.283298
-0.282723
-0.281972
-0.281021
-0.27987
-0.278549
-0.277086
-0.275511
-0.273854
-0.272142
-0.270403
-0.268657
-0.266922
-0.265208
-0.263521
-0.261857
-0.260205
-0.258545
-0.256849
-0.255083
-0.253207
-0.25118
-0.248963
-0.246527
-0.243853
-0.240953
-0.237815
-0.234624
-0.230912
-0.22845
-0.286498
-0.285795
-0.284921
-0.283843
-0.282557
-0.281094
-0.279488
-0.27777
-0.275971
-0.274121
-0.272244
-0.270363
-0.268493
-0.266644
-0.264816
-0.263003
-0.261189
-0.259348
-0.257448
-0.255452
-0.253316
-0.251001
-0.248471
-0.245704
-0.242686
-0.239432
-0.235938
-0.232338
-0.228286
-0.22501
-0.289956
-0.289109
-0.288099
-0.286882
-0.28545
-0.283838
-0.282082
-0.280215
-0.27827
-0.276275
-0.274257
-0.272236
-0.270225
-0.268231
-0.266251
-0.264272
-0.262273
-0.260225
-0.258089
-0.255826
-0.253393
-0.250752
-0.247875
-0.244744
-0.241358
-0.237736
-0.23388
-0.229898
-0.225532
-0.221671
-0.293685
-0.292677
-0.291518
-0.290152
-0.288564
-0.286795
-0.284882
-0.28286
-0.280762
-0.278619
-0.276454
-0.274286
-0.272126
-0.269975
-0.267826
-0.26566
-0.263451
-0.261163
-0.258756
-0.256187
-0.253417
-0.250414
-0.247158
-0.243642
-0.239873
-0.235878
-0.23167
-0.227341
-0.222694
-0.218419
-0.297699
-0.296512
-0.29519
-0.293663
-0.29191
-0.289975
-0.287898
-0.285716
-0.283461
-0.281163
-0.278845
-0.276523
-0.274202
-0.271879
-0.26954
-0.267162
-0.26471
-0.262146
-0.259427
-0.256513
-0.253369
-0.249971
-0.246311
-0.242392
-0.238235
-0.233874
-0.229329
-0.224686
-0.219792
-0.215218
-0.302007
-0.300623
-0.299124
-0.297426
-0.295499
-0.293391
-0.291144
-0.288795
-0.286378
-0.283919
-0.281441
-0.278953
-0.276456
-0.273941
-0.271387
-0.268764
-0.266033
-0.263153
-0.260081
-0.256781
-0.253227
-0.249407
-0.245324
-0.240995
-0.236452
-0.231735
-0.226873
-0.221947
-0.216834
-0.212032
-0.306617
-0.305018
-0.303331
-0.301451
-0.299342
-0.297053
-0.29463
-0.292109
-0.289523
-0.286896
-0.284247
-0.281579
-0.278888
-0.276156
-0.273356
-0.270451
-0.2674
-0.26416
-0.260692
-0.256968
-0.252974
-0.248709
-0.244191
-0.239451
-0.234528
-0.22947
-0.224311
-0.219128
-0.213817
-0.208829
-0.311536
-0.309705
-0.307816
-0.305746
-0.303447
-0.30097
-0.298365
-0.295666
-0.292904
-0.290101
-0.287266
-0.284401
-0.281491
-0.278513
-0.27543
-0.272202
-0.268785
-0.26514
-0.261235
-0.257052
-0.25259
-0.247866
-0.242908
-0.23776
-0.232469
-0.227086
-0.221649
-0.216228
-0.210734
-0.205583
-0.316768
-0.314688
-0.312586
-0.310317
-0.30782
-0.30515
-0.302357
-0.299474
-0.296528
-0.293535
-0.2905
-0.287415
-0.284257
-0.280995
-0.277587
-0.27399
-0.27016
-0.266065
-0.261683
-0.257011
-0.252063
-0.246868
-0.241472
-0.235924
-0.230279
-0.224587
-0.218888
-0.213244
-0.207578
-0.202275
-0.322311
-0.319967
-0.317642
-0.315167
-0.312466
-0.309598
-0.306611
-0.303536
-0.300395
-0.297198
-0.293942
-0.290608
-0.287168
-0.28358
-0.2798
-0.275784
-0.271493
-0.266905
-0.262011
-0.256825
-0.251376
-0.24571
-0.23988
-0.233944
-0.227958
-0.221972
-0.216025
-0.210169
-0.20434
-0.198889
-0.328165
-0.325542
-0.322983
-0.320296
-0.317386
-0.314315
-0.311128
-0.307853
-0.304504
-0.301085
-0.297581
-0.293966
-0.290201
-0.28624
-0.282037
-0.27755
-0.272751
-0.26763
-0.262195
-0.256476
-0.250519
-0.244382
-0.238128
-0.231816
-0.225504
-0.219239
-0.213055
-0.206998
-0.20101
-0.195411
-0.334321
-0.331405
-0.328607
-0.325702
-0.322579
-0.319299
-0.315906
-0.31242
-0.308848
-0.305182
-0.301399
-0.297463
-0.293326
-0.28894
-0.28426
-0.279252
-0.2739
-0.26821
-0.262209
-0.255946
-0.249481
-0.24288
-0.236212
-0.22954
-0.222916
-0.216383
-0.209973
-0.203721
-0.19758
-0.191832
-0.340767
-0.337548
-0.334503
-0.331377
-0.328038
-0.324545
-0.320937
-0.317227
-0.313411
-0.309471
-0.305372
-0.301068
-0.296508
-0.291642
-0.28643
-0.28085
-0.274904
-0.268616
-0.262034
-0.255221
-0.24825
-0.241196
-0.234128
-0.227109
-0.220186
-0.213398
-0.206771
-0.200331
-0.194039
-0.188142
-0.347487
-0.343956
-0.34066
-0.33731
-0.333752
-0.330041
-0.326209
-0.322258
-0.318174
-0.313925
-0.309467
-0.304745
-0.299705
-0.294301
-0.288503
-0.282306
-0.275731
-0.268822
-0.261648
-0.254285
-0.246816
-0.239321
-0.231869
-0.224516
-0.217308
-0.210275
-0.203439
-0.196816
-0.190379
-0.184333
-0.354458
-0.350607
-0.347057
-0.343484
-0.339704
-0.335768
-0.3317
-0.32749
-0.323108
-0.318511
-0.313644
-0.308448
-0.30287
-0.29687
-0.290435
-0.283579
-0.276346
-0.268802
-0.261031
-0.253124
-0.245169
-0.237248
-0.229425
-0.221754
-0.214272
-0.207004
-0.199967
-0.193169
-0.186589
-0.180397
-0.361651
-0.357476
-0.353672
-0.349874
-0.345871
-0.341703
-0.337385
-0.33289
-0.328175
-0.323186
-0.317857
-0.312128
-0.30595
-0.299298
-0.292179
-0.28463
-0.276718
-0.268529
-0.260165
-0.251724
-0.243298
-0.234965
-0.226788
-0.218812
-0.211068
-0.203576
-0.196344
-0.189378
-0.182662
-0.176326
-0.36903
-0.364529
-0.360473
-0.356452
-0.352223
-0.347815
-0.343227
-0.338419
-0.333333
-0.327899
-0.322051
-0.315727
-0.30889
-0.301535
-0.293691
-0.285421
-0.276816
-0.267982
-0.259031
-0.25007
-0.241188
-0.232462
-0.223946
-0.215679
-0.207685
-0.199977
-0.192561
-0.185433
-0.178586
-0.172112
-0.376552
-0.371727
-0.367422
-0.36318
-0.358722
-0.354062
-0.349185
-0.344031
-0.338526
-0.332595
-0.326165
-0.319185
-0.311633
-0.303528
-0.294924
-0.285914
-0.27661
-0.267136
-0.257612
-0.248147
-0.238828
-0.229725
-0.220887
-0.212342
-0.20411
-0.196198
-0.188605
-0.181324
-0.174354
-0.167747
-0.384167
-0.379023
-0.374474
-0.370014
-0.365323
-0.360398
-0.355206
-0.349667
-0.343696
-0.337209
-0.330136
-0.32244
-0.31412
-0.305224
-0.295836
-0.286075
-0.276074
-0.26597
-0.25589
-0.245939
-0.236203
-0.226742
-0.217596
-0.208789
-0.200331
-0.192224
-0.184465
-0.177041
-0.169954
-0.163222
-0.391818
-0.386363
-0.381578
-0.376903
-0.371973
-0.366767
-0.36123
-0.355266
-0.348775
-0.341671
-0.333894
-0.325425
-0.316292
-0.306573
-0.296384
-0.285869
-0.275179
-0.264462
-0.253845
-0.243431
-0.233297
-0.223496
-0.21406
-0.205005
-0.196334
-0.188045
-0.18013
-0.172574
-0.165379
-0.158532
-0.39944
-0.393685
-0.388673
-0.383786
-0.378611
-0.373105
-0.367191
-0.360754
-0.353687
-0.345907
-0.337367
-0.328075
-0.31809
-0.307525
-0.296527
-0.285263
-0.2739
-0.26259
-0.251459
-0.240604
-0.230095
-0.219974
-0.210265
-0.200976
-0.192107
-0.183648
-0.175589
-0.167912
-0.16062
-0.153667
-0.406961
-0.400921
-0.395693
-0.390596
-0.385169
-0.379341
-0.373012
-0.366055
-0.358356
-0.349839
-0.340483
-0.330323
-0.319457
-0.308033
-0.296227
-0.284227
-0.272211
-0.260332
-0.248713
-0.237442
-0.226579
-0.216158
-0.206194
-0.196689
-0.187635
-0.179022
-0.170831
-0.163047
-0.155667
-0.148621
-0.414303
-0.407997
-0.402564
-0.39726
-0.39157
-0.385394
-0.378614
-0.371085
-0.362697
-0.353389
-0.343167
-0.332104
-0.320338
-0.30805
-0.295446
-0.28273
-0.270087
-0.257668
-0.245588
-0.233927
-0.222734
-0.212034
-0.201833
-0.192129
-0.182907
-0.174153
-0.165846
-0.157968
-0.150513
-0.143389
-0.421381
-0.41483
-0.409206
-0.403697
-0.397731
-0.391182
-0.383907
-0.375757
-0.366626
-0.356476
-0.345348
-0.333356
-0.32068
-0.307535
-0.294151
-0.280745
-0.267504
-0.254575
-0.242064
-0.230041
-0.218542
-0.207585
-0.197168
-0.187282
-0.17791
-0.169032
-0.160624
-0.152669
-0.145151
-0.137963
-0.428106
-0.421334
-0.415532
-0.409819
-0.403565
-0.396612
-0.388802
-0.37998
-0.370055
-0.35902
-0.346954
-0.334019
-0.320433
-0.306446
-0.292308
-0.278244
-0.264439
-0.251034
-0.238124
-0.225765
-0.213987
-0.202795
-0.192184
-0.182136
-0.172632
-0.163648
-0.155156
-0.147139
-0.139573
-0.132341
-0.434384
-0.427417
-0.421452
-0.415535
-0.408977
-0.401591
-0.393204
-0.383663
-0.3729
-0.360942
-0.347918
-0.334034
-0.319551
-0.304746
-0.289886
-0.275201
-0.26087
-0.247024
-0.233746
-0.221083
-0.209051
-0.19765
-0.186866
-0.176678
-0.167062
-0.157989
-0.149433
-0.141372
-0.133774
-0.126517
-0.440116
-0.432984
-0.426871
-0.420749
-0.413871
-0.406022
-0.397017
-0.386715
-0.375074
-0.362169
-0.348176
-0.33335
-0.31799
-0.3024
-0.286857
-0.271591
-0.256774
-0.242525
-0.228915
-0.215977
-0.20372
-0.192135
-0.181203
-0.170896
-0.161188
-0.152048
-0.143445
-0.135361
-0.127747
-0.120486
-0.445203
-0.437936
-0.43169
-0.425363
-0.418148
-0.409805
-0.400145
-0.389044
-0.376497
-0.362628
-0.347666
-0.331916
-0.315711
-0.299375
-0.283194
-0.267391
-0.252131
-0.237518
-0.223611
-0.210432
-0.197979
-0.186237
-0.17518
-0.164779
-0.155002
-0.145815
-0.137187
-0.129097
-0.121485
-0.114243
-0.449543
-0.442174
-0.435811
-0.429276
-0.421708
-0.412843
-0.402495
-0.390563
-0.37709
-0.362252
-0.346335
-0.329688
-0.312677
-0.295642
-0.278871
-0.26258
-0.246922
-0.231987
-0.21782
-0.204432
-0.191814
-0.179943
-0.168789
-0.158317
-0.148493
-0.139282
-0.130649
-0.122574
-0.114984
-0.107783
-0.453037
-0.445598
-0.439132
-0.432388
-0.42445
-0.415037
-0.403973
-0.39119
-0.376779
-0.360979
-0.34413
-0.326624
-0.308855
-0.291174
-0.273865
-0.257138
-0.241129
-0.225914
-0.211525
-0.197964
-0.185213
-0.173242
-0.162017
-0.151501
-0.141655
-0.132441
-0.123826
-0.115787
-0.108239
-0.101103
-0.455583
-0.448109
-0.441557
-0.4346
-0.426278
-0.416296
-0.404493
-0.390844
-0.375499
-0.358755
-0.341008
-0.32269
-0.304217
-0.285947
-0.268158
-0.251047
-0.234735
-0.219285
-0.204714
-0.191017
-0.178165
-0.166125
-0.154858
-0.144322
-0.134479
-0.125287
-0.116712
-0.108731
-0.101247
-0.0942039
-0.457086
-0.449611
-0.442986
-0.435816
-0.427098
-0.416528
-0.403973
-0.389455
-0.373186
-0.355528
-0.336927
-0.317853
-0.298737
-0.27994
-0.261731
-0.244292
-0.227728
-0.212087
-0.197376
-0.183578
-0.170661
-0.158583
-0.147303
-0.136776
-0.12696
-0.117813
-0.109299
-0.101396
-0.0940033
-0.0870823
-0.457452
-0.450011
-0.443329
-0.435945
-0.426819
-0.41565
-0.402337
-0.386957
-0.369788
-0.351256
-0.331856
-0.312087
-0.292395
-0.273137
-0.25457
-0.236859
-0.220094
-0.204309
-0.1895
-0.175642
-0.162693
-0.150611
-0.139348
-0.128858
-0.119095
-0.110015
-0.10158
-0.09377
-0.0864896
-0.0797061
-0.456594
-0.449221
-0.442496
-0.434898
-0.425359
-0.413586
-0.399516
-0.383291
-0.365258
-0.345901
-0.325764
-0.305371
-0.285174
-0.265523
-0.246661
-0.228737
-0.211824
-0.195944
-0.18108
-0.1672
-0.154257
-0.142204
-0.13099
-0.120565
-0.110882
-0.101892
-0.0935547
-0.0858511
-0.0786831
-0.0719904
-0.454432
-0.44716
-0.440407
-0.432597
-0.422642
-0.410265
-0.395451
-0.378409
-0.359555
-0.339434
-0.31863
-0.297687
-0.277059
-0.257087
-0.237996
-0.219919
-0.202912
-0.186984
-0.17211
-0.158249
-0.14535
-0.133361
-0.122227
-0.111898
-0.102322
-0.093447
-0.0852322
-0.0776627
-0.0706042
-0.0638453
-0.450891
-0.443752
-0.436987
-0.428968
-0.4186
-0.405627
-0.390091
-0.372269
-0.352649
-0.331832
-0.310438
-0.289025
-0.268044
-0.247822
-0.228569
-0.210399
-0.193353
-0.177428
-0.162588
-0.148788
-0.135971
-0.12408
-0.11306
-0.102857
-0.0934167
-0.0846841
-0.0766232
-0.0692281
-0.0623231
-0.055404
-0.445906
-0.438932
-0.432169
-0.423947
-0.413173
-0.399621
-0.383392
-0.364839
-0.344517
-0.32308
-0.301177
-0.279376
-0.258121
-0.237725
-0.218378
-0.200176
-0.183146
-0.167273
-0.152514
-0.138816
-0.12612
-0.114365
-0.103493
-0.0934469
-0.0841707
-0.0756079
-0.0677317
-0.0605148
-0.0536732
-0.0470824
-0.439422
-0.432643
-0.425896
-0.417482
-0.406313
-0.392205
-0.375323
-0.356095
-0.335142
-0.313167
-0.290842
-0.268739
-0.247292
-0.226797
-0.207423
-0.189251
-0.172293
-0.156522
-0.14189
-0.128338
-0.115802
-0.104219
-0.0935285
-0.083672
-0.0745908
-0.0662284
-0.0585583
-0.0515322
-0.0448318
-0.0385952
-0.431392
-0.424836
-0.418123
-0.409526
-0.397982
-0.383347
-0.36586
-0.346022
-0.324518
-0.302091
-0.279434
-0.257117
-0.235561
-0.215041
-0.19571
-0.177628
-0.160797
-0.14518
-0.130722
-0.117358
-0.105022
-0.0936493
-0.083175
-0.0735396
-0.0646828
-0.0565489
-0.0491101
-0.042302
-0.0357961
-0.0298884
-0.421781
-0.415476
-0.408811
-0.400047
-0.388149
-0.373028
-0.35499
-0.334614
-0.312644
-0.289858
-0.266961
-0.244518
-0.222935
-0.202466
-0.183244
-0.165315
-0.148667
-0.133255
-0.119017
-0.105886
-0.0937899
-0.0826632
-0.0724398
-0.0630578
-0.0544556
-0.0465776
-0.0393961
-0.032835
-0.0265529
-0.0209613
-0.410563
-0.404534
-0.397934
-0.389021
-0.376799
-0.361235
-0.342711
-0.321876
-0.299528
-0.276477
-0.253434
-0.230956
-0.209428
-0.189084
-0.17004
-0.152324
-0.135914
-0.120757
-0.106787
-0.09393
-0.0821149
-0.0712716
-0.0613335
-0.0522369
-0.043919
-0.0363242
-0.0294263
-0.0231378
-0.0170988
-0.0118273
-0.397726
-0.391996
-0.385479
-0.376437
-0.363925
-0.347969
-0.329027
-0.307817
-0.285186
-0.261967
-0.238873
-0.216447
-0.195055
-0.174911
-0.15611
-0.138668
-0.122552
-0.107701
-0.0940435
-0.0815048
-0.0700099
-0.0594871
-0.0498685
-0.0410891
-0.0330848
-0.0258003
-0.0192114
-0.0132182
-0.00743944
-0.00249946
-0.383266
-0.377858
-0.371442
-0.362294
-0.34953
-0.33324
-0.313955
-0.292459
-0.26964
-0.246351
-0.2233
-0.201014
-0.17984
-0.159968
-0.141476
-0.124367
-0.108597
-0.0941017
-0.0808038
-0.0686255
-0.0574901
-0.0473244
-0.0380591
-0.0296282
-0.0219663
-0.015019
-0.00876373
-0.00308697
0.00241463
0.00700887
-0.367192
-0.362126
-0.355829
-0.346604
-0.33363
-0.317068
-0.297519
-0.275827
-0.25292
-0.229658
-0.206744
-0.184686
-0.163807
-0.144277
-0.126159
-0.10944
-0.0940712
-0.0799796
-0.067086
-0.0553099
-0.0445728
-0.0348002
-0.0259216
-0.01787
-0.0105791
-0.00399517
0.00190257
0.0072425
0.0124497
0.0166834
-0.349525
-0.344818
-0.33866
-0.329386
-0.316251
-0.299481
-0.27975
-0.257958
-0.235062
-0.211926
-0.189239
-0.167493
-0.146986
-0.127868
-0.110184
-0.0939136
-0.0789964
-0.0653565
-0.0529113
-0.0415782
-0.0312774
-0.021933
-0.013474
-0.00583211
0.00105992
0.00725453
0.0127713
0.0177543
0.0226495
0.0265081
-0.330294
-0.325964
-0.319965
-0.310673
-0.297427
-0.280519
-0.260691
-0.238894
-0.21611
-0.193195
-0.170824
-0.149471
-0.12941
-0.110771
-0.0935829
-0.0778141
-0.0633991
-0.0502572
-0.0383032
-0.0274528
-0.0176252
-0.0087436
-0.000736074
0.00646644
0.012932
0.0187117
0.0238244
0.0284303
0.032995
0.0364651
-0.309541
-0.305603
-0.299782
-0.290508
-0.277203
-0.26023
-0.240394
-0.218696
-0.196105
-0.173501
-0.15154
-0.130661
-0.111117
-0.0930211
-0.0763867
-0.061173
-0.0473084
-0.0347091
-0.0232876
-0.0129583
-0.0036396
0.00474594
0.0122709
0.019005
0.0250168
0.0303562
0.0350417
0.0392501
0.0434647
0.0465322
-0.287317
-0.283784
-0.278163
-0.268942
-0.255634
-0.238674
-0.218929
-0.197441
-0.175063
-0.1529
-0.131436
-0.111107
-0.0921498
-0.0746575
-0.0586321
-0.0440238
-0.0307561
-0.018742
-0.00789259
0.00187872
0.0106543
0.0185118
0.0255241
0.0317616
0.0372931
0.042167
0.0464021
0.0501915
0.0540331
0.0566795
-0.263685
-0.260566
-0.255167
-0.246036
-0.232785
-0.215915
-0.196337
-0.175068
-0.153157
-0.131461
-0.110565
-0.0908584
-0.0725522
-0.055722
-0.0403582
-0.0264033
-0.0137765
-0.00238828
0.00785148
0.0170299
0.0252298
0.0325288
0.0389999
0.0447136
0.0497386
0.0541218
0.0578829
0.0612301
0.0646698
0.0668711
-0.238716
-0.236018
-0.230862
-0.221861
-0.208728
-0.192018
-0.172662
-0.151781
-0.130362
-0.109236
-0.0889835
-0.0699674
-0.0523731
-0.0362597
-0.021607
-0.00835075
0.00359368
0.0143177
0.0239124
0.0324652
0.0400587
0.0467705
0.0526733
0.0578375
0.062331
0.0661985
0.0694615
0.0723405
0.0753431
0.0770764
-0.212489
-0.210214
-0.205325
-0.196496
-0.183532
-0.167037
-0.148036
-0.12761
-0.106759
-0.0862868
-0.0667515
-0.0484894
-0.0316639
-0.0163187
-0.00242345
0.0100919
0.0213152
0.0313394
0.040256
0.0481525
0.0551114
0.0612095
0.066519
0.0711097
0.0750479
0.0783754
0.0811161
0.0835007
0.0860288
0.0872719
-0.185075
-0.183245
-0.17864
-0.170018
-0.157272
-0.141098
-0.122517
-0.102628
-0.0824247
-0.0626824
-0.0439315
-0.0264828
-0.0104791
0.00405036
0.0171451
0.0288805
0.0393468
0.0486381
0.0568463
0.0640586
0.0703568
0.0758171
0.0805107
0.0845062
0.0878668
0.0906306
0.0928274
0.0946969
0.0967092
0.0973947
-0.156547
-0.155214
-0.150901
-0.142515
-0.130065
-0.114273
-0.0961884
-0.0769178
-0.057437
-0.0384939
-0.0205895
-0.00400919
0.0111239
0.0247941
0.037049
0.0479685
0.057645
0.0661734
0.0736456
0.0801484
0.0857628
0.0905639
0.0946219
0.0980032
0.100766
0.102944
0.104581
0.105919
0.107336
0.107285
-0.126984
-0.126255
-0.122201
-0.114096
-0.101997
-0.0866537
-0.0691413
-0.0505636
-0.0318756
-0.0137955
0.00320544
0.0188673
0.0330855
0.0458568
0.0572362
0.0673074
0.0761646
0.0839031
0.0906147
0.0963855
0.101296
0.105419
0.108826
0.111577
0.113725
0.115303
0.116374
0.117149
0.117794
0.116771
-0.0966356
-0.0963672
-0.0926478
-0.0848657
-0.0731666
-0.0583387
-0.0414691
-0.0236539
-0.00582333
0.0113355
0.0273818
0.0420801
0.0553437
0.0671807
0.0776528
0.0868468
0.0948585
0.101783
0.107713
0.112732
0.116921
0.120352
0.123094
0.125205
0.12673
0.127709
0.128227
0.128396
0.128027
0.125901
-0.0655394
-0.0657029
-0.0623517
-0.0549291
-0.0436808
-0.0294296
-0.0132684
0.00372045
0.0206347
0.03682
0.0518658
0.0655607
0.0778345
0.0887062
0.098243
0.106535
0.113678
0.119768
0.124897
0.129148
0.132601
0.135328
0.137395
0.13886
0.139763
0.140163
0.140165
0.139716
0.138258
0.135228
-0.033783
-0.0343963
-0.0314263
-0.0243967
-0.0136479
-3.0945e-05
0.0153616
0.0314661
0.0474112
0.0625767
0.0765819
0.0892386
0.100493
0.110372
0.11895
0.126318
0.132573
0.137812
0.142124
0.145593
0.148298
0.15031
0.151696
0.152508
0.152795
0.152635
0.15214
0.151054
0.148575
0.146828
-0.00149153
-0.0025642
1.23924e-05
0.00661714
0.0168207
0.0297503
0.0443194
0.0594877
0.0744174
0.0885227
0.101453
0.113042
0.123251
0.132116
0.139714
0.146141
0.151493
0.155865
0.159348
0.162025
0.163972
0.165262
0.165959
0.166116
0.165786
0.16506
0.164018
0.162335
0.159524
0.15846
0.0312086
0.0296739
0.0318446
0.0379949
0.0476112
0.0598054
0.0735023
0.0876888
0.101563
0.114574
0.126401
0.136898
0.146041
0.153874
0.160478
0.165949
0.170385
0.17388
0.176525
0.1784
0.179583
0.180144
0.180148
0.179647
0.178699
0.177396
0.175786
0.173553
0.170467
0.169351
0.0641911
0.0621948
0.0639484
0.069617
0.0786082
0.0900241
0.102806
0.115972
0.128757
0.140646
0.151346
0.160733
0.168794
0.175581
0.181179
0.185685
0.189197
0.191808
0.193607
0.194675
0.195089
0.194918
0.194225
0.193065
0.191497
0.189608
0.187431
0.18469
0.181298
0.179853
0.0973288
0.0948732
0.0961999
0.101363
0.109695
0.120295
0.132126
0.144238
0.155907
0.166653
0.176209
0.184472
0.191441
0.197174
0.201759
0.205293
0.207875
0.209597
0.210548
0.210807
0.21045
0.209545
0.208155
0.206334
0.204142
0.201662
0.19892
0.19567
0.191909
0.190033
0.130493
0.127583
0.128474
0.13311
0.140755
0.150508
0.161357
0.172391
0.182923
0.192509
0.200911
0.208042
0.213912
0.218587
0.222155
0.224716
0.226367
0.227199
0.227301
0.226751
0.225623
0.223985
0.221898
0.219417
0.216602
0.21353
0.210222
0.20646
0.202288
0.199934
0.163557
0.160197
0.160647
0.164738
0.171671
0.18055
0.190394
0.20033
0.209712
0.218129
0.225371
0.231367
0.236139
0.239755
0.242308
0.243897
0.244618
0.244564
0.24382
0.242464
0.240568
0.2382
0.23542
0.232282
0.228844
0.225181
0.221309
0.217028
0.212425
0.209569
0.19639
0.192589
0.192593
0.196125
0.202326
0.210313
0.219134
0.22796
0.236183
0.243429
0.249511
0.254374
0.25805
0.260613
0.262156
0.262779
0.262577
0.261643
0.260058
0.257902
0.255245
0.252153
0.248685
0.244894
0.240838
0.236587
0.232153
0.227354
0.222309
0.218936
0.228867
0.224632
0.224188
0.22715
0.232605
0.239685
0.247474
0.255183
0.262248
0.268325
0.273252
0.27699
0.279579
0.281098
0.28164
0.281307
0.280192
0.278385
0.27597
0.273023
0.269613
0.265806
0.261658
0.257222
0.252554
0.247721
0.24273
0.237417
0.231926
0.22803
0.26086