/*--------------------------------*- C++ -*----------------------------------*\
  =========                 |
  \\      /  F ield         | OpenFOAM: The Open Source CFD Toolbox
   \\    /   O peration     | Website:  https://openfoam.org
    \\  /    A nd           | Version:  7
     \\/     M anipulation  |
\*---------------------------------------------------------------------------*/
FoamFile
{
    version     2.0;
    format      ascii;
    class       volVectorField;
    location    "55";
    object      U;
}
// * * * * * * * * * * * * * * * * * * * * * * * * * * * * * * * * * * * * * //

dimensions      [0 1 -1 0 0 0 0];

internalField   nonuniform List<vector> 
59400
(
(-5.17883e-05 0.000108218 -3.01343e-22)
(-0.000306265 0.000300537 -3.978e-22)
(-0.000856893 0.000471672 5.63261e-22)
(-0.00166133 0.000622334 -1.93947e-21)
(-0.00268566 0.000753116 -3.0175e-22)
(-0.00390904 0.000864494 -1.05804e-21)
(-0.00530996 0.000957024 2.81263e-21)
(-0.00686499 0.00103135 1.26023e-21)
(-0.00855012 0.00108819 1.32027e-21)
(-0.0103412 0.00112832 -8.24771e-22)
(-0.0122139 0.00115261 -1.88949e-21)
(-0.0141441 0.00116199 1.20472e-23)
(-0.0161082 0.00115746 -7.37029e-22)
(-0.0180829 0.00114009 8.47324e-22)
(-0.0200461 0.00111105 -2.44595e-21)
(-0.0219765 0.00107154 4.10319e-22)
(-0.0238544 0.00102289 -7.74647e-22)
(-0.0256619 0.000966456 -4.49015e-21)
(-0.0273829 0.000903698 2.00121e-21)
(-0.0290036 0.000836136 -7.36668e-22)
(-0.0305128 0.000765356 2.26942e-21)
(-0.0319023 0.000692994 -3.80091e-21)
(-0.0331668 0.000620717 6.88326e-22)
(-0.0343045 0.000550196 1.53914e-21)
(-0.035317 0.000483067 4.10102e-21)
(-0.0362093 0.000420891 1.52969e-22)
(-0.0369903 0.000365063 4.81856e-21)
(-0.0376712 0.000316611 -2.45566e-21)
(-0.0382636 0.000276435 6.14034e-22)
(-0.0387909 0.000247205 1.71901e-21)
(-6.27365e-05 0.000323577 -1.75178e-21)
(-0.000335408 0.00089855 3.34464e-21)
(-0.000899625 0.00141014 -3.89955e-21)
(-0.00171327 0.00186046 1.30854e-22)
(-0.00274255 0.0022513 2.61906e-21)
(-0.00396665 0.00258406 2.56069e-21)
(-0.00536407 0.00286041 -6.8201e-21)
(-0.0069114 0.00308228 7.07056e-22)
(-0.00858469 0.00325182 -8.73482e-21)
(-0.0103598 0.00337136 9.91425e-22)
(-0.0122125 0.0034435 2.08989e-21)
(-0.0141187 0.003471 -8.89111e-22)
(-0.0160547 0.00345688 -4.53587e-21)
(-0.0179974 0.00340436 4.5727e-21)
(-0.0199247 0.00331689 2.6931e-22)
(-0.0218154 0.00319814 -3.37995e-21)
(-0.0236498 0.003052 6.04424e-21)
(-0.02541 0.00288262 4.0742e-21)
(-0.0270799 0.00269433 -1.38883e-20)
(-0.028646 0.00249172 4.09488e-21)
(-0.030097 0.00227953 -3.97785e-21)
(-0.0314247 0.00206267 1.30757e-20)
(-0.0326242 0.00184617 7.42582e-21)
(-0.0336936 0.00163505 3.62593e-21)
(-0.0346347 0.00143423 -1.46247e-20)
(-0.035453 0.00124843 2.91781e-21)
(-0.0361575 0.00108184 -9.53006e-21)
(-0.0367599 0.000937574 -1.53144e-21)
(-0.0372699 0.00081845 3.2448e-21)
(-0.0377117 0.000732487 -9.65001e-21)
(-8.44403e-05 0.000535714 -1.34756e-21)
(-0.000393147 0.00148741 1.62359e-21)
(-0.000984221 0.00233402 -2.47703e-21)
(-0.00181599 0.00307905 4.94809e-22)
(-0.00285491 0.0037254 -1.13342e-21)
(-0.0040802 0.00427544 -5.0098e-21)
(-0.0054704 0.00473193 4.35354e-21)
(-0.00700216 0.00509805 -2.02667e-21)
(-0.00865159 0.00537736 -6.8689e-22)
(-0.0103946 0.00557376 2.86864e-21)
(-0.0122071 0.00569152 -6.96391e-21)
(-0.0140651 0.00573527 2.87838e-22)
(-0.0159449 0.00570999 -1.20569e-20)
(-0.0178237 0.00562104 1.23897e-20)
(-0.0196791 0.00547415 -1.65689e-20)
(-0.0214903 0.0052754 1.71312e-20)
(-0.0232376 0.0050313 -2.36972e-20)
(-0.0249031 0.00474871 -1.34334e-21)
(-0.0264711 0.00443488 9.9331e-21)
(-0.0279278 0.00409741 -1.64199e-20)
(-0.0292624 0.00374425 4.84453e-21)
(-0.0304667 0.00338361 -4.53233e-21)
(-0.0315361 0.00302387 6.21721e-21)
(-0.0324689 0.00267346 -2.1679e-23)
(-0.0332675 0.00234066 3.56601e-20)
(-0.0339375 0.00203338 -6.21135e-21)
(-0.0344891 0.0017587 3.18908e-20)
(-0.0349346 0.0015219 -1.28078e-20)
(-0.0352799 0.00132804 1.20444e-20)
(-0.0355509 0.00119052 2.19244e-20)
(-0.000116516 0.000742523 -2.39342e-21)
(-0.000478395 0.00206111 1.09627e-20)
(-0.00110896 0.00323376 -1.75754e-20)
(-0.00196718 0.00426527 5.05727e-21)
(-0.00301991 0.00515965 1.18022e-20)
(-0.0042464 0.00592018 -5.61329e-21)
(-0.00562522 0.00655068 -7.83729e-21)
(-0.00713313 0.00705558 2.35581e-21)
(-0.00874635 0.00743983 5.63643e-21)
(-0.0104409 0.00770886 1.94266e-20)
(-0.0121928 0.00786859 -1.06633e-20)
(-0.0139782 0.00792547 -1.40707e-20)
(-0.0157735 0.00788644 1.41243e-20)
(-0.0175559 0.00775896 -1.07567e-20)
(-0.0193035 0.00755099 1.76913e-20)
(-0.0209953 0.00727105 -2.23752e-21)
(-0.0226118 0.00692818 1.1187e-20)
(-0.0241354 0.00653197 -1.54168e-20)
(-0.0255503 0.00609256 -1.27091e-20)
(-0.0268431 0.00562058 3.44298e-20)
(-0.028003 0.00512719 -9.41621e-21)
(-0.0290223 0.00462391 3.89492e-21)
(-0.0298965 0.00412256 -1.80301e-20)
(-0.0306246 0.00363502 5.38975e-21)
(-0.0312093 0.00317305 -2.94318e-20)
(-0.0316571 0.00274786 7.43999e-21)
(-0.0319795 0.00236952 1.4688e-21)
(-0.0321898 0.00204562 5.95513e-21)
(-0.0322882 0.00178402 3.5664e-20)
(-0.0323035 0.00160361 -3.56945e-21)
(-0.000158396 0.000941955 -2.93386e-21)
(-0.000589535 0.00261384 -1.79681e-20)
(-0.00127127 0.00410006 6.09811e-21)
(-0.00216343 0.00540665 7.02973e-21)
(-0.00323334 0.00653866 -8.27931e-21)
(-0.0044603 0.00750025 2.22779e-22)
(-0.00582296 0.00829628 6.06476e-21)
(-0.00729818 0.00893239 1.78142e-20)
(-0.0088623 0.00941487 -9.35257e-21)
(-0.0104915 0.00975066 4.82435e-21)
(-0.012162 0.0099473 7.99609e-21)
(-0.01385 0.010013 8.85692e-21)
(-0.0155322 0.00995665 1.53205e-20)
(-0.0171859 0.00978773 2.86675e-21)
(-0.0187893 0.00951644 8.18764e-21)
(-0.0203216 0.00915364 -1.22837e-20)
(-0.0217637 0.00871091 1.7933e-20)
(-0.0230978 0.00820053 -2.68877e-20)
(-0.0243086 0.0076355 -8.47659e-21)
(-0.0253828 0.00702951 3.38595e-22)
(-0.0263099 0.00639691 -1.00562e-20)
(-0.0270826 0.00575259 1.38009e-20)
(-0.0276967 0.00511186 -1.06493e-20)
(-0.0281519 0.00449019 2.05048e-21)
(-0.0284516 0.00390291 3.75407e-20)
(-0.0286032 0.00336474 -2.04376e-20)
(-0.0286202 0.00288888 -1.27991e-20)
(-0.0285172 0.00248542 -5.49547e-21)
(-0.028287 0.00216585 -1.63153e-20)
(-0.0279617 0.00195458 1.28625e-20)
(-0.00020933 0.00113204 1.49084e-20)
(-0.000724438 0.00313997 1.64689e-21)
(-0.00146778 0.00492396 -4.21819e-21)
(-0.00240019 0.00649117 -2.20387e-20)
(-0.00348962 0.0078476 -7.18325e-21)
(-0.0047154 0.00899828 -2.56805e-21)
(-0.00605622 0.00994906 -2.9151e-21)
(-0.00748911 0.0107068 -2.97334e-20)
(-0.00899057 0.011279 3.3599e-20)
(-0.010537 0.0116741 -4.75245e-21)
(-0.0121046 0.0119012 -1.10415e-20)
(-0.01367 0.0119703 3.55864e-20)
(-0.01521 0.0118921 3.88728e-21)
(-0.0167022 0.0116781 -2.91835e-20)
(-0.0181249 0.0113407 5.35712e-21)
(-0.0194576 0.0108929 8.28947e-21)
(-0.0206812 0.010349 -8.65751e-22)
(-0.0217785 0.0097238 8.1791e-21)
(-0.022734 0.00903315 2.96405e-21)
(-0.023535 0.00829378 -1.16231e-20)
(-0.0241712 0.00752327 3.22036e-21)
(-0.0246356 0.00673994 -4.35563e-20)
(-0.0249248 0.00596266 1.81839e-20)
(-0.025039 0.00521063 -3.39737e-20)
(-0.0249826 0.00450291 -5.29559e-20)
(-0.0247643 0.00385798 4.99425e-20)
(-0.0243998 0.00329237 -5.78188e-20)
(-0.0239058 0.00281898 -1.02873e-20)
(-0.0232658 0.00245385 -1.59072e-20)
(-0.0225152 0.00222686 4.2348e-20)
(-0.000268401 0.00131091 1.17992e-20)
(-0.000880485 0.00363416 -2.76777e-20)
(-0.0016943 0.00569692 8.96351e-21)
(-0.00267189 0.00750734 1.88825e-20)
(-0.00378186 0.00907232 -8.97371e-22)
(-0.0050036 0.0103977 -4.62224e-21)
(-0.00631585 0.0114903 5.57592e-21)
(-0.0076958 0.012358 1.60362e-21)
(-0.00912013 0.0130097 -1.49079e-20)
(-0.0105654 0.0134552 1.11051e-21)
(-0.0120082 0.0137052 4.11682e-20)
(-0.0134251 0.0137712 -2.50788e-20)
(-0.0147935 0.0136657 -4.8298e-21)
(-0.0160909 0.0134023 4.32404e-20)
(-0.017296 0.0129954 -1.57129e-20)
(-0.0183885 0.0124603 8.53309e-21)
(-0.0193496 0.0118136 -7.4887e-21)
(-0.0201623 0.0110728 -1.05001e-20)
(-0.0208114 0.0102566 -2.65466e-20)
(-0.0212844 0.00938469 1.79707e-20)
(-0.0215716 0.00847787 -3.00323e-20)
(-0.0216663 0.00755794 4.31127e-20)
(-0.0215657 0.0066475 -2.08278e-21)
(-0.0212711 0.00576957 -2.2314e-20)
(-0.0207877 0.00494725 3.32874e-20)
(-0.0201258 0.004203 -2.70952e-20)
(-0.019304 0.00355703 2.14094e-20)
(-0.0183416 0.00302551 2.87107e-20)
(-0.0172115 0.00262999 6.16549e-23)
(-0.0159512 0.00240452 -3.82491e-20)
(-0.000334528 0.0014768 4.18888e-21)
(-0.00105459 0.00409138 1.02696e-20)
(-0.00194593 0.0064109 -5.72362e-21)
(-0.0029719 0.00844437 -3.70523e-21)
(-0.0041019 0.0101995 -5.60966e-21)
(-0.00531531 0.0116828 -2.49635e-20)
(-0.00659095 0.0129022 4.81587e-21)
(-0.00790616 0.0138665 3.16628e-20)
(-0.00923783 0.0145859 -1.55113e-20)
(-0.0105628 0.0150715 -7.20693e-21)
(-0.0118577 0.0153354 -2.21615e-20)
(-0.0130997 0.0153908 1.65443e-20)
(-0.0142661 0.015252 2.60129e-20)
(-0.015335 0.0149342 -1.42035e-20)
(-0.0162851 0.014454 5.22063e-21)
(-0.0170966 0.013829 -7.43815e-23)
(-0.0177509 0.0130778 -4.00705e-20)
(-0.0182311 0.0122207 3.05821e-20)
(-0.0185226 0.0112791 3.97294e-20)
(-0.018613 0.0102756 2.21744e-20)
(-0.018493 0.00923436 1.39503e-20)
(-0.0181565 0.00818068 -5.91092e-20)
(-0.0176015 0.00714094 6.79148e-21)
(-0.0168301 0.00614226 -3.20209e-20)
(-0.0158489 0.00521199 9.62816e-21)
(-0.01467 0.004377 -3.03833e-20)
(-0.0133151 0.00366156 -3.82844e-20)
(-0.0118072 0.0030857 6.33851e-20)
(-0.0101092 0.002678 -2.99962e-20)
(-0.00825422 0.00247474 7.57483e-20)
(-0.000406481 0.00162809 1.43082e-20)
(-0.00124324 0.00450698 -2.5228e-20)
(-0.00221702 0.00705844 3.23878e-20)
(-0.00329266 0.0092922 -8.53341e-21)
(-0.00444035 0.0112166 -9.71995e-21)
(-0.00563949 0.0128391 5.07031e-21)
(-0.00686895 0.0141683 -1.52003e-20)
(-0.00810624 0.0152141 1.85157e-20)
(-0.00932846 0.0159879 -6.21367e-21)
(-0.0105127 0.016502 1.57127e-20)
(-0.0116359 0.01677 -3.49965e-20)
(-0.0126754 0.0168065 4.37971e-20)
(-0.013609 0.0166274 -4.03958e-20)
(-0.0144148 0.0162499 2.56906e-20)
(-0.0150722 0.0156923 5.088e-20)
(-0.0155614 0.0149743 -7.50752e-21)
(-0.0158641 0.0141171 4.96795e-20)
(-0.0159638 0.013143 -7.72284e-20)
(-0.0158462 0.0120762 9.82704e-21)
(-0.0154992 0.0109424 4.27012e-21)
(-0.014914 0.00976897 -9.64599e-21)
(-0.014085 0.00858475 1.15326e-20)
(-0.0130109 0.00742007 -9.45661e-21)
(-0.011695 0.00630633 4.98769e-20)
(-0.0101454 0.00527549 5.23148e-20)
(-0.00837601 0.00435924 -7.7074e-22)
(-0.00641221 0.00358623 7.54429e-20)
(-0.00428089 0.00298005 2.86225e-20)
(-0.00193802 0.00257835 -1.03974e-19)
(0.000590835 0.00243761 2.8471e-20)
(-0.00048289 0.00176329 3.99448e-21)
(-0.00144249 0.00487667 -5.76709e-21)
(-0.00250128 0.00763266 1.99144e-20)
(-0.00362564 0.0100416 -3.58995e-20)
(-0.00478666 0.0121124 2.1382e-20)
(-0.00596369 0.0138532 -1.52217e-20)
(-0.00713565 0.0152734 5.62514e-21)
(-0.00828023 0.0163842 8.11039e-21)
(-0.00937476 0.0171977 -9.38992e-21)
(-0.0103965 0.0177276 -2.17646e-20)
(-0.0113229 0.0179887 3.19551e-20)
(-0.0121315 0.0179973 -5.48181e-20)
(-0.0128003 0.0177706 -7.71588e-21)
(-0.0133079 0.0173276 1.03579e-20)
(-0.013634 0.0166883 -3.75067e-20)
(-0.013759 0.0158745 -1.68352e-20)
(-0.0136651 0.0149094 -1.93762e-20)
(-0.013336 0.0138178 2.11771e-21)
(-0.0127577 0.0126265 -1.38916e-20)
(-0.0119185 0.011364 -3.67108e-20)
(-0.0108099 0.0100609 4.45371e-20)
(-0.00942713 0.00874975 3.78467e-20)
(-0.00776956 0.00746492 -6.48422e-20)
(-0.00584161 0.00624233 1.53194e-20)
(-0.00365297 0.00511893 1.27382e-20)
(-0.00122014 0.00413171 -1.56179e-21)
(0.00142677 0.00331415 6.0949e-20)
(0.00425703 0.00269432 5.888e-21)
(0.00733609 0.00232439 4.12234e-20)
(0.010612 0.00227498 2.53695e-20)
(-0.000562256 0.00188105 1.12832e-20)
(-0.00164803 0.00519658 -1.56039e-20)
(-0.00279176 0.00812735 1.05087e-20)
(-0.00396147 0.0106841 8.427e-21)
(-0.00512915 0.0128764 -1.01172e-20)
(-0.00627412 0.0147129 -7.66516e-21)
(-0.00737531 0.016204 -8.14545e-21)
(-0.00841058 0.0173616 3.83226e-20)
(-0.0093575 0.018199 -9.0294e-21)
(-0.0101937 0.0187311 7.81878e-20)
(-0.0108967 0.0189738 -8.84619e-20)
(-0.0114446 0.0189447 4.98516e-20)
(-0.0118157 0.0186627 3.33267e-20)
(-0.011989 0.0181481 7.16664e-20)
(-0.0119444 0.0174228 1.49973e-20)
(-0.0116629 0.0165103 4.78771e-20)
(-0.0111268 0.0154359 -2.6726e-20)
(-0.0103202 0.0142266 6.88077e-21)
(-0.00922935 0.0129117 -9.41856e-21)
(-0.00784299 0.0115225 -4.6856e-20)
(-0.00615304 0.0100928 -1.32638e-20)
(-0.0041552 0.00865876 -2.42018e-20)
(-0.00184975 0.00725901 7.5615e-20)
(0.000757677 0.00593423 -1.61895e-19)
(0.00365569 0.00472679 1.54143e-20)
(0.00682512 0.00367964 -1.14594e-19)
(0.0102305 0.00283197 3.25116e-20)
(0.0138365 0.00221829 -5.56203e-20)
(0.0177277 0.00190649 5.05771e-20)
(0.021836 0.00196921 6.4447e-20)
(-0.000642963 0.00198017 -1.28989e-20)
(-0.0018552 0.00546325 1.99162e-21)
(-0.00308094 0.00853697 -1.07085e-20)
(-0.00428993 0.0112124 2.50003e-20)
(-0.00545511 0.0134994 3.30786e-21)
(-0.0065557 0.0154075 -2.02232e-20)
(-0.00757065 0.0169478 -1.02994e-20)
(-0.00847799 0.018133 -3.09043e-20)
(-0.00925556 0.0189776 5.16785e-20)
(-0.0098812 0.0194973 -6.69915e-20)
(-0.0103329 0.0197094 3.51806e-20)
(-0.010589 0.0196327 6.57899e-20)
(-0.0106283 0.0192873 -6.12757e-20)
(-0.0104301 0.0186951 -2.077e-20)
(-0.00997464 0.0178796 -2.58011e-20)
(-0.00924334 0.0168659 -1.75794e-20)
(-0.00821888 0.0156811 9.39535e-21)
(-0.00688566 0.0143544 -3.81648e-20)
(-0.00523021 0.0129173 1.77234e-20)
(-0.00324162 0.0114039 -3.60164e-20)
(-0.000912185 0.00985117 9.29769e-21)
(0.00176185 0.00829885 2.16886e-20)
(0.00477938 0.00678985 9.41893e-21)
(0.00813354 0.00536989 4.88821e-20)
(0.0118111 0.00408725 7.56337e-20)
(0.0157901 0.00299148 1.47899e-20)
(0.0200292 0.00212832 1.72609e-20)
(0.0244874 0.00153961 -5.56997e-20)
(0.0292674 0.00131165 -4.20623e-21)
(0.0342895 0.00152619 -7.97095e-20)
(-0.000723286 0.00205962 2.77321e-21)
(-0.002059 0.00567369 6.80284e-21)
(-0.00336075 0.00885668 3.27905e-21)
(-0.00460005 0.0116198 -3.13882e-20)
(-0.00575081 0.0139734 5.11349e-20)
(-0.00679215 0.0159276 2.47925e-20)
(-0.007703 0.0174943 -3.07635e-20)
(-0.00846157 0.018687 -2.3786e-20)
(-0.00904593 0.0195212 -3.32793e-20)
(-0.00943427 0.0200135 3.45506e-20)
(-0.00960493 0.0201824 -9.49057e-21)
(-0.00953661 0.0200478 -5.11571e-20)
(-0.00920846 0.0196311 1.66994e-20)
(-0.00860031 0.0189554 -7.1454e-22)
(-0.00769281 0.0180457 -1.59364e-20)
(-0.00646769 0.0169286 -2.75563e-20)
(-0.00490803 0.015633 5.47438e-21)
(-0.00299856 0.0141898 6.8492e-20)
(-0.00072608 0.0126328 1.58403e-20)
(0.00192 0.0109986 2.35762e-20)
(0.00494703 0.00932705 -7.50572e-21)
(0.00835829 0.00766161 -3.40244e-20)
(0.0121519 0.00604951 -5.95287e-20)
(0.0163198 0.00454175 -1.59905e-20)
(0.020847 0.00319294 -7.17569e-20)
(0.0257082 0.00206003 1.40278e-20)
(0.0308558 0.0011962 2.58425e-20)
(0.036242 0.000651817 -5.82887e-20)
(0.0419885 0.000535647 1.05332e-19)
(0.0480031 0.00094305 4.44289e-20)
(-0.0008014 0.0021185 1.22056e-20)
(-0.00225414 0.00582528 8.56316e-22)
(-0.00362259 0.00908233 -3.92173e-20)
(-0.00488011 0.0119009 4.95587e-20)
(-0.00600159 0.0142917 -4.73394e-20)
(-0.00696602 0.0162654 -3.45331e-20)
(-0.0077523 0.0178346 8.22287e-20)
(-0.00833881 0.019014 4.82759e-21)
(-0.00870389 0.0198196 5.88788e-20)
(-0.00882605 0.0202691 -8.26712e-21)
(-0.00868401 0.0203821 3.07783e-20)
(-0.00825686 0.0201793 -8.316e-20)
(-0.00752423 0.0196835 2.4727e-20)
(-0.00646636 0.0189189 -2.81369e-20)
(-0.00506436 0.0179116 6.42161e-20)
(-0.00330039 0.0166898 -7.25416e-21)
(-0.00115788 0.0152836 -8.31065e-21)
(0.00137809 0.0137259 -2.24648e-21)
(0.00432042 0.0120522 2.5286e-20)
(0.00767944 0.0103014 -5.86988e-20)
(0.0114622 0.00851628 -6.38488e-20)
(0.0156716 0.0067437 7.15974e-21)
(0.0203052 0.00503527 -5.59126e-20)
(0.0253535 0.00344744 -4.9915e-21)
(0.0307998 0.00204165 1.05367e-19)
(0.0366157 0.000883065 -1.72417e-19)
(0.0427465 3.34175e-05 3.5245e-20)
(0.0491365 -0.000446862 7.80892e-20)
(0.0559269 -0.000422374 1.65798e-20)
(0.0630131 0.000216567 -7.89718e-20)
(-0.000875384 0.00215605 -4.43736e-21)
(-0.00243504 0.00591588 2.95558e-20)
(-0.0038574 0.00921049 3.81466e-20)
(-0.00511772 0.0120511 -8.03763e-21)
(-0.00619191 0.0144485 -4.99016e-20)
(-0.00705878 0.0164143 1.982e-20)
(-0.00769721 0.0179618 -3.50387e-20)
(-0.00808576 0.0191063 -2.26464e-20)
(-0.00820303 0.0198649 -8.58664e-20)
(-0.00802786 0.0202561 1.71066e-20)
(-0.00753938 0.0203004 3.87019e-20)
(-0.00671713 0.0200195 3.43656e-20)
(-0.00554119 0.0194372 3.73916e-20)
(-0.0039923 0.0185788 -1.96981e-20)
(-0.00205205 0.0174714 -4.84459e-20)
(0.000296966 0.0161444 3.03087e-20)
(0.00307089 0.0146292 4.3146e-21)
(0.0062843 0.01296 7.61177e-21)
(0.0099498 0.011174 3.92649e-20)
(0.0140775 0.00931234 7.94272e-21)
(0.0186742 0.00742006 -3.77541e-20)
(0.0237425 0.0055474 2.10516e-20)
(0.0292794 0.0037502 3.62942e-21)
(0.0352746 0.0020905 -1.07395e-19)
(0.0417093 0.000636999 3.72395e-20)
(0.048552 -0.000535988 1.92727e-20)
(0.0557404 -0.00135684 -1.29505e-20)
(0.0632091 -0.00175305 -5.76379e-20)
(0.0711173 -0.00155749 -4.0088e-20)
(0.0793435 -0.000640596 1.7912e-19)
(-0.000943232 0.00217167 -3.15692e-20)
(-0.00259584 0.00594374 3.17205e-20)
(-0.00405565 0.00923839 4.18746e-20)
(-0.00529985 0.0120667 -1.01694e-19)
(-0.00630538 0.0144396 2.65164e-20)
(-0.0070509 0.0163694 7.4922e-20)
(-0.00751522 0.0178703 3.5386e-21)
(-0.00767708 0.0189584 3.2632e-20)
(-0.00751538 0.0196514 4.96568e-20)
(-0.00700931 0.0199689 -4.29286e-20)
(-0.0061384 0.019932 -6.99424e-21)
(-0.00488268 0.0195635 -1.37851e-21)
(-0.00322273 0.0188881 1.10154e-20)
(-0.00113982 0.0179318 6.20002e-20)
(0.00138394 0.0167228 -4.13353e-20)
(0.00436546 0.0152914 5.90017e-20)
(0.00782044 0.01367 -7.54901e-21)
(0.0117631 0.0118941 -1.81875e-19)
(0.0162056 0.0100021 3.33114e-20)
(0.021158 0.00803676 -8.83465e-20)
(0.0266269 0.00604536 -6.33926e-20)
(0.0326147 0.00408107 1.46192e-20)
(0.039118 0.00220376 1.17036e-19)
(0.0461258 0.000480982 2.94203e-20)
(0.0536178 -0.0010109 -7.05358e-20)
(0.0615592 -0.00218752 2.95763e-20)
(0.0698799 -0.00296584 5.3156e-20)
(0.0785043 -0.00325863 -2.7662e-20)
(0.0876111 -0.00285925 -1.3077e-19)
(0.0970627 -0.00160821 -6.66573e-20)
(-0.00100286 0.00216488 -1.74897e-20)
(-0.00273046 0.00590753 3.0816e-20)
(-0.0042074 0.00916399 -1.01228e-19)
(-0.00541289 0.011945 4.78649e-20)
(-0.00632489 0.0142618 1.74455e-20)
(-0.00692191 0.0161274 6.0181e-21)
(-0.0071827 0.0175567 6.17025e-20)
(-0.0070862 0.0185666 1.10893e-21)
(-0.00661158 0.0191757 -6.28157e-20)
(-0.00573841 0.0194043 -5.50369e-20)
(-0.00444668 0.0192744 -2.75958e-20)
(-0.0027169 0.0188095 -1.08604e-21)
(-0.000530195 0.0180351 6.51292e-20)
(0.00213158 0.0169781 -1.21197e-20)
(0.00528576 0.0156674 -1.46642e-20)
(0.00894869 0.014134 6.01836e-20)
(0.0131355 0.0124111 -3.79406e-20)
(0.0178601 0.010535 6.81598e-20)
(0.0231343 0.00854527 -1.76906e-20)
(0.0289678 0.00648564 4.15911e-20)
(0.0353671 0.00440525 4.84173e-20)
(0.0423347 0.00235966 -2.99701e-20)
(0.049867 0.000412361 -1.06595e-19)
(0.0579525 -0.00136378 -2.31394e-20)
(0.0665698 -0.00288465 3.23644e-20)
(0.0756813 -0.00405503 -7.55044e-20)
(0.0852088 -0.00477898 7.54829e-20)
(0.0950656 -0.00495193 -1.13042e-19)
(0.105451 -0.00432046 1.51469e-19)
(0.116208 -0.0026903 -3.37409e-20)
(-0.00105209 0.00213535 7.05801e-21)
(-0.00283256 0.00580634 -1.98119e-20)
(-0.00430234 0.00898591 -1.11405e-20)
(-0.00544267 0.0116844 -1.6881e-20)
(-0.00623263 0.0139133 -1.10797e-20)
(-0.00665053 0.0156862 -4.78753e-20)
(-0.00667509 0.017019 3.12031e-21)
(-0.00628543 0.0179293 -6.72836e-21)
(-0.00546103 0.0184365 2.76987e-20)
(-0.00418185 0.0185617 -2.46243e-20)
(-0.00242833 0.0183276 9.38584e-20)
(-0.000181531 0.0177586 5.45678e-20)
(0.00257685 0.0168806 3.08731e-20)
(0.00586434 0.0157214 -7.2777e-20)
(0.00969763 0.0143104 -1.65817e-20)
(0.0140924 0.0126792 1.16011e-19)
(0.0190634 0.0108617 4.78668e-20)
(0.0246236 0.00889439 8.8638e-20)
(0.0307848 0.00681754 -5.56674e-20)
(0.0375563 0.00467571 -2.88887e-20)
(0.0449444 0.00251908 2.1085e-20)
(0.0529518 0.000405036 3.88032e-20)
(0.061575 -0.00160002 1.72208e-19)
(0.0708023 -0.00341845 1.54867e-20)
(0.080612 -0.00495852 3.84457e-20)
(0.0909639 -0.00611366 6.43779e-20)
(0.101772 -0.00677362 2.94978e-20)
(0.112938 -0.00681341 1.4092e-20)
(0.124682 -0.00592415 -9.85779e-21)
(0.136826 -0.00386783 8.36563e-20)
(-0.00108868 0.00208289 4.19862e-20)
(-0.00289561 0.00563967 -1.31993e-20)
(-0.00432979 0.00870348 2.81371e-20)
(-0.00537459 0.0112843 6.48844e-21)
(-0.0060102 0.0133934 5.69293e-20)
(-0.00621478 0.0150455 -2.44945e-20)
(-0.00596699 0.0162572 -2.77292e-20)
(-0.00524616 0.0170471 1.50142e-20)
(-0.0040321 0.0174351 -1.58054e-20)
(-0.00230515 0.0174432 -1.58263e-20)
(-4.62423e-05 0.0170948 -9.46225e-20)
(0.00276301 0.0164149 -9.80634e-20)
(0.00614028 0.0154301 4.22822e-20)
(0.0101024 0.0141688 -1.32613e-19)
(0.0146655 0.0126609 3.99006e-21)
(0.0198444 0.0109382 1.43674e-19)
(0.025653 0.0090351 4.08453e-20)
(0.0321041 0.00698828 -1.07149e-19)
(0.0392085 0.00483811 7.65969e-21)
(0.0469754 0.00262934 9.55198e-20)
(0.0554109 0.000412587 2.65231e-20)
(0.0645178 -0.00175383 7.22844e-21)
(0.0742929 -0.00380152 7.41688e-20)
(0.084725 -0.00564899 -6.60151e-20)
(0.0957923 -0.00719754 7.1699e-20)
(0.107454 -0.00832916 -4.5936e-20)
(0.119616 -0.00891805 -3.31334e-21)
(0.132168 -0.00881553 2.06923e-19)
(0.145352 -0.00764689 -8.86577e-20)
(0.158967 -0.00511788 1.9578e-19)
(-0.00111033 0.00200742 -4.13697e-21)
(-0.00291288 0.00540742 -8.1616e-21)
(-0.00427879 0.00831674 4.97779e-21)
(-0.00519361 0.0107447 -5.15592e-21)
(-0.00563871 0.0127028 5.6711e-20)
(-0.00559208 0.0142064 -3.0408e-20)
(-0.00503237 0.0152732 -8.33412e-20)
(-0.00393909 0.0159224 3.73695e-20)
(-0.00229239 0.0161748 -1.11831e-20)
(-7.30116e-05 0.0160531 -2.75818e-20)
(0.00273761 0.0155813 -4.25692e-20)
(0.00615729 0.0147853 3.52795e-20)
(0.010203 0.0136921 -1.15354e-20)
(0.014891 0.0123306 -1.36603e-20)
(0.0202364 0.010731 1.67691e-20)
(0.0262535 0.00892573 -1.32483e-20)
(0.0329552 0.00694885 -4.02227e-20)
(0.0403535 0.00483722 1.26624e-19)
(0.0484586 0.00263089 6.26963e-20)
(0.057279 0.000374262 -7.71242e-20)
(0.0668207 -0.00188243 7.18183e-20)
(0.0770865 -0.00408095 -3.95664e-20)
(0.0880736 -0.00615218 -1.87756e-20)
(0.0997718 -0.0080122 -3.6169e-21)
(0.11216 -0.00955662 -9.92031e-20)
(0.125198 -0.0106567 9.64451e-21)
(0.138786 -0.0111704 -3.88163e-20)
(0.152802 -0.0109221 -2.04546e-19)
(0.16751 -0.00945934 1.43638e-19)
(0.182685 -0.00641557 -2.34451e-19)
(-0.00111465 0.00190903 -1.39346e-21)
(-0.00287748 0.00510994 3.288e-20)
(-0.00413812 0.00782645 -2.91618e-20)
(-0.0048844 0.0100671 -2.00062e-20)
(-0.00509891 0.0118434 -1.8995e-20)
(-0.00475949 0.0131717 -1.159e-20)
(-0.00384476 0.0140705 4.77841e-20)
(-0.00233445 0.0145599 -7.23695e-20)
(-0.000209034 0.0146614 4.96375e-20)
(0.00255034 0.0143984 -9.59738e-21)
(0.00596173 0.0137957 -3.53516e-20)
(0.0100424 0.0128797 -3.36305e-20)
(0.0148086 0.0116781 -2.88539e-20)
(0.0202758 0.0102201 -2.10981e-20)
(0.0264583 0.0085366 8.16021e-20)
(0.0333694 0.00665978 6.46603e-20)
(0.0410213 0.00462391 -5.38132e-20)
(0.0494248 0.00246549 3.85008e-20)
(0.0585892 0.000224009 -6.84816e-20)
(0.0685223 -0.00205707 -3.29846e-20)
(0.0792295 -0.00432867 7.64259e-20)
(0.0907134 -0.00653379 -1.15165e-19)
(0.102972 -0.00860419 4.64352e-20)
(0.115996 -0.0104555 -4.5379e-20)
(0.129767 -0.0119798 -5.92322e-20)
(0.144245 -0.0130394 -2.52319e-20)
(0.159328 -0.0134766 1.62319e-21)
(0.174885 -0.0130863 1.17127e-19)
(0.191205 -0.0113246 -6.19123e-20)
(0.208037 -0.00773191 8.335e-21)
(-0.00109923 0.00178795 4.10229e-21)
(-0.00278237 0.00474805 -6.72409e-20)
(-0.00389638 0.00723412 4.01087e-20)
(-0.00443143 0.00925389 -2.46909e-21)
(-0.00437134 0.0108186 4.48438e-20)
(-0.00369384 0.0119457 3.72145e-20)
(-0.00237751 0.0126546 -3.5453e-20)
(-0.000402322 0.0129661 1.50501e-19)
(0.00225095 0.0129027 -3.38592e-20)
(0.00560075 0.0124884 -7.37144e-20)
(0.00966464 0.0117487 9.89979e-20)
(0.0144593 0.0107106 -1.00099e-19)
(0.0200003 0.00940239 -9.13839e-21)
(0.0263022 0.00785386 -2.43066e-20)
(0.0333787 0.00609605 7.04032e-20)
(0.0412418 0.00416147 -8.32332e-20)
(0.0499028 0.00208425 -1.19975e-21)
(0.0593711 -9.94917e-05 6.31443e-20)
(0.0696551 -0.00235111 1.05453e-19)
(0.0807612 -0.00462846 -5.56606e-20)
(0.0926939 -0.00688438 -1.40022e-19)
(0.105455 -0.00906433 1.06252e-19)
(0.119044 -0.0111027 -1.18068e-19)
(0.133451 -0.0129173 4.33853e-20)
(0.148662 -0.0144 1.1679e-19)
(0.164641 -0.0154073 1.00686e-19)
(0.181286 -0.0157686 1.37938e-19)
(0.19846 -0.0152482 1.08634e-19)
(0.216483 -0.0131964 2.23818e-19)
(0.235078 -0.00903357 -2.22949e-19)
(-0.0010616 0.00164457 -5.39869e-20)
(-0.00262046 0.00432303 5.97329e-20)
(-0.0035421 0.00654209 -3.58038e-20)
(-0.00381907 0.00830842 3.44401e-20)
(-0.00343649 0.00963304 9.01355e-20)
(-0.00237196 0.0105344 3.37662e-20)
(-0.000604064 0.0110329 -1.4254e-20)
(0.00188704 0.0111501 -4.76063e-21)
(0.00512026 0.0109092 2.68976e-20)
(0.00911367 0.010335 3.12857e-20)
(0.0138843 0.00945378 -5.79725e-20)
(0.0194484 0.00829313 4.73486e-20)
(0.0258207 0.00688202 -4.91201e-20)
(0.0330151 0.00525064 2.41817e-20)
(0.0410442 0.00343049 5.54916e-20)
(0.0499192 0.00145429 -3.0373e-20)
(0.0596498 -0.000643821 -1.1085e-19)
(0.0702445 -0.00282812 2.45953e-20)
(0.0817097 -0.00506082 -7.89969e-20)
(0.0940507 -0.00730137 -1.40428e-19)
(0.10727 -0.00950505 1.14013e-19)
(0.12137 -0.0116208 -8.04592e-20)
(0.136346 -0.0135876 6.78807e-20)
(0.152194 -0.0153284 -1.23594e-19)
(0.168901 -0.016739 1.09505e-19)
(0.186437 -0.0176759 -2.14199e-20)
(0.204704 -0.0179613 -9.40583e-20)
(0.223567 -0.0173311 3.76047e-20)
(0.243387 -0.0150158 1.04275e-19)
(0.263868 -0.0102823 -3.13489e-20)
(-0.000999294 0.00147947 1.49597e-20)
(-0.00238463 0.0038367 -2.46974e-20)
(-0.0030638 0.00575354 4.99126e-20)
(-0.00303179 0.00723538 2.75861e-21)
(-0.00227501 0.0082929 -7.72281e-20)
(-0.000770983 0.00894554 -9.67367e-21)
(0.00150175 0.00921465 5.73454e-20)
(0.00456283 0.00912263 -7.23629e-20)
(0.00843089 0.00869344 -1.08158e-20)
(0.0131236 0.0079526 4.07594e-20)
(0.0186577 0.00692708 1.56365e-20)
(0.0250487 0.00564518 -7.42282e-20)
(0.0323108 0.00413651 2.00639e-20)
(0.0404572 0.00243187 -2.88066e-20)
(0.0494994 0.00056324 3.15035e-20)
(0.0594476 -0.00143627 7.21178e-20)
(0.0703103 -0.00353237 6.39142e-20)
(0.0820943 -0.00568953 -4.24599e-20)
(0.0948044 -0.00787069 3.12765e-20)
(0.108444 -0.0100368 -1.72828e-19)
(0.123013 -0.0121457 4.79305e-21)
(0.138512 -0.0141505 -1.43841e-20)
(0.154937 -0.0159963 -7.0281e-20)
(0.172281 -0.0176143 -3.25918e-20)
(0.190536 -0.0189095 -5.68059e-20)
(0.20968 -0.0197461 -1.09252e-19)
(0.229624 -0.0199494 -2.29159e-19)
(0.250244 -0.0192358 -1.8184e-20)
(0.27196 -0.0167059 -4.56436e-20)
(0.294469 -0.0114326 -1.07432e-19)
(-0.000909825 0.0012934 -1.16997e-20)
(-0.00206779 0.00329145 -7.50943e-21)
(-0.00245013 0.00487257 4.00755e-20)
(-0.00205426 0.00604065 -8.20015e-20)
(-0.000867926 0.00680589 5.39449e-20)
(0.00113146 0.00718871 -1.17841e-20)
(0.00396538 0.00721139 2.42736e-20)
(0.00765331 0.00689712 -2.12467e-20)
(0.0122136 0.0062706 -4.95399e-20)
(0.0176637 0.00535808 2.92976e-20)
(0.0240199 0.00418723 -1.36249e-20)
(0.0312971 0.00278708 -6.62619e-21)
(0.0395092 0.00118792 -5.23942e-20)
(0.0486684 -0.000578757 1.593e-20)
(0.0587855 -0.00248034 -1.74794e-19)
(0.0698696 -0.00448316 1.17143e-19)
(0.0819279 -0.00655252 -1.34081e-19)
(0.0949656 -0.0086527 3.99793e-20)
(0.108986 -0.0107469 4.46983e-20)
(0.123989 -0.0127972 -4.37889e-20)
(0.139974 -0.0147636 6.84821e-20)
(0.156936 -0.0166034 1.25115e-19)
(0.174871 -0.0182684 3.14909e-20)
(0.19377 -0.0197005 6.64656e-20)
(0.213627 -0.0208192 -2.69517e-19)
(0.234427 -0.0215063 2.71466e-19)
(0.256095 -0.0216055 2.59128e-19)
(0.27853 -0.0208327 -5.42292e-20)
(0.302237 -0.0181606 -1.77112e-19)
(0.326943 -0.0124265 2.40313e-19)
(-0.000790756 0.00108735 1.08874e-20)
(-0.00166299 0.00269028 5.5011e-20)
(-0.00168998 0.00390427 -5.42096e-20)
(-0.000871582 0.00473143 -4.27389e-20)
(0.000803149 0.00518135 8.89475e-21)
(0.0033569 0.00527535 -1.74745e-20)
(0.00681121 0.00503666 -6.83943e-20)
(0.0111854 0.00448917 -8.57972e-20)
(0.0164976 0.00365829 -3.53629e-20)
(0.022765 0.00257097 -6.39447e-20)
(0.0300034 0.00125559 -4.47086e-20)
(0.0382277 -0.000258118 1.06156e-21)
(0.0474508 -0.00193914 -5.20334e-20)
(0.0576846 -0.00375523 3.51719e-21)
(0.0689391 -0.00567301 -2.05912e-20)
(0.0812224 -0.00765804 -1.80126e-19)
(0.0945404 -0.00967487 2.04398e-20)
(0.108897 -0.0116872 -1.69828e-20)
(0.124293 -0.0136578 -9.20898e-20)
(0.140727 -0.015549 -1.90443e-20)
(0.158195 -0.0173219 4.31872e-20)
(0.176689 -0.018937 -8.57927e-20)
(0.196201 -0.0203522 9.46637e-20)
(0.216718 -0.0215204 3.8863e-20)
(0.238234 -0.0223797 2.95111e-19)
(0.26074 -0.0228389 -1.37163e-19)
(0.284176 -0.0227809 9.24855e-20)
(0.308474 -0.0219547 1.61427e-19)
(0.334262 -0.0192317 -8.31523e-20)
(0.361367 -0.0131863 1.50496e-19)
(-0.000639705 0.000862526 2.17323e-20)
(-0.00116347 0.00203684 -6.20453e-20)
(-0.000772649 0.00285475 7.62499e-20)
(0.000530547 0.00331632 -9.38372e-20)
(0.00275576 0.00343031 7.82293e-20)
(0.00592578 0.00321894 6.50853e-20)
(0.0100622 0.00270626 -2.47613e-20)
(0.0151842 0.00191687 4.83045e-20)
(0.0213098 0.000876787 -2.46966e-20)
(0.0284559 -0.000386396 -3.10621e-20)
(0.0366381 -0.00184364 -1.92523e-20)
(0.0458707 -0.00346454 1.81133e-20)
(0.0561666 -0.00521735 -7.36759e-21)
(0.0675369 -0.00706908 8.9177e-20)
(0.079991 -0.00898548 -8.50738e-20)
(0.0935362 -0.0109312 -1.42864e-19)
(0.108178 -0.0128697 -2.05063e-20)
(0.123918 -0.0147636 7.32999e-20)
(0.140756 -0.0165746 1.20682e-19)
(0.158689 -0.018264 4.89629e-20)
(0.17771 -0.0197926 1.74471e-20)
(0.197807 -0.0211216 4.47943e-20)
(0.218968 -0.0222126 1.47381e-20)
(0.241176 -0.0230271 -1.24441e-19)
(0.26442 -0.0235209 -1.27764e-19)
(0.288693 -0.0236362 1.82139e-19)
(0.313947 -0.0233165 -2.66109e-19)
(0.340151 -0.0223938 1.08485e-19)
(0.3681 -0.0197082 -4.052e-20)
(0.397846 -0.0135923 1.16469e-20)
(-0.000454389 0.000620374 1.93377e-20)
(-0.0005628 0.00133546 -4.4031e-21)
(0.000312058 0.00173121 5.0669e-20)
(0.00216566 0.00180533 -7.95689e-21)
(0.00500639 0.00156558 1.61459e-20)