/*--------------------------------*- C++ -*----------------------------------*\
  =========                 |
  \\      /  F ield         | OpenFOAM: The Open Source CFD Toolbox
   \\    /   O peration     | Website:  https://openfoam.org
    \\  /    A nd           | Version:  7
     \\/     M anipulation  |
\*---------------------------------------------------------------------------*/
FoamFile
{
    version     2.0;
    format      ascii;
    class       volVectorField;
    location    "70";
    object      U;
}
// * * * * * * * * * * * * * * * * * * * * * * * * * * * * * * * * * * * * * //

dimensions      [0 1 -1 0 0 0 0];

internalField   nonuniform List<vector> 
183
(
(1.03964 0.171171 -4.4282e-22)
(1.06089 -0.149049 4.66202e-23)
(1.03705 -0.390774 -4.73253e-23)
(1.06538 -0.148063 1.37322e-21)
(1.04381 -0.387646 -5.57895e-23)
(1.06904 -0.146675 4.37404e-22)
(1.04981 -0.384092 9.36272e-22)
(1.07195 -0.144919 9.75346e-22)
(1.05509 -0.380143 -6.36575e-23)
(1.07421 -0.142825 6.81325e-22)
(1.05969 -0.375827 5.07159e-22)
(1.07591 -0.140424 -3.37112e-21)
(1.06366 -0.371169 -2.90169e-21)
(1.07714 -0.137741 -2.64453e-21)
(1.06706 -0.36619 6.35128e-21)
(1.07797 -0.134805 5.17139e-21)
(1.06997 -0.360908 -4.61002e-21)
(1.07845 -0.131643 -1.47939e-21)
(1.07248 -0.35534 3.68792e-21)
(1.07865 -0.128283 -4.21623e-21)
(1.07465 -0.3495 5.13608e-21)
(1.07859 -0.124753 1.14223e-21)
(1.07657 -0.343401 6.1348e-21)
(1.07832 -0.121084 1.40124e-21)
(1.07832 -0.337059 -7.60197e-21)
(1.07788 -0.117305 -4.6776e-21)
(1.07994 -0.330486 3.25623e-21)
(1.07732 -0.113444 -3.06556e-21)
(1.08149 -0.3237 1.08169e-21)
(1.07667 -0.109525 3.38341e-21)
(1.083 -0.316719 -2.68678e-22)
(1.07601 -0.105576 1.54604e-21)
(1.0845 -0.309562 8.34279e-22)
(1.07538 -0.101639 1.20634e-21)
(1.08602 -0.302249 -5.94793e-22)
(1.07485 -0.0977381 2.91812e-21)
(1.08756 -0.294799 -7.42742e-21)
(1.07451 -0.0937068 2.96834e-21)
(1.08915 -0.287215 -3.78212e-21)
(1.07445 -0.0892174 1.71947e-22)
(1.0908 -0.279521 1.56541e-21)
(1.07474 -0.0852483 -5.92064e-22)
(1.0925 -0.271941 1.716e-22)
(1.07715 -0.0859641 0)
(1.09782 -0.251617 0)
(1.10045 -0.136783 0)
(1.10278 -0.262546 0)
(1.11393 -0.144758 0)
(1.10772 -0.226835 0)
(1.12968 -0.159793 0)
(1.09885 -0.216672 0)
(1.13653 -0.147083 0)
(1.08933 -0.184684 0)
(1.13347 -0.131978 0)
(1.07157 -0.163325 0)
(1.12785 -0.108925 0)
(1.05908 -0.135305 0)
(1.11805 -0.0885564 0)
(1.05103 -0.110559 0)
(1.10731 -0.0709877 0)
(1.04806 -0.0858363 0)
(1.09574 -0.0571808 0)
(1.04706 -0.0645906 0)
(1.01477 -0.0580394 0)
(1.0849 -0.0463434 0)
(1.0463 -0.0471892 0)
(1.02032 -0.0438536 0)
(1.07561 -0.0375729 0)
(1.04521 -0.0338968 0)
(1.02672 -0.0324849 0)
(1.06816 -0.0303529 0)
(1.04404 -0.0241578 0)
(1.03229 -0.0237345 0)
(1.06237 -0.0242762 0)
(1.04308 -0.0171766 0)
(1.03646 -0.0171703 0)
(1.05787 -0.0191417 0)
(1.04243 -0.0122202 0)
(1.03923 -0.0123251 0)
(1.05438 -0.0147987 0)
(1.04205 -0.00869242 0)
(1.04091 -0.00876667 0)
(1.05166 -0.0111364 0)
(1.04185 -0.00614834 0)
(1.04178 -0.0061463 0)
(1.04963 -0.00804902 0)
(1.04177 -0.00426116 0)
(1.04216 -0.00419376 0)
(1.0482 -0.00541838 0)
(1.04175 -0.00279401 0)
(1.04228 -0.00270237 0)
(1.0473 -0.00312176 0)
(1.04177 -0.00158172 0)
(1.04229 -0.00151229 0)
(1.04685 -0.00101815 0)
(1.04176 -0.00050924 0)
(1.04225 -0.000485963 0)
(0.729417 -0.0141078 0)
(0.676936 -0.0479559 0)
(0.632758 -0.0542013 0)
(0.602615 -0.0786959 0)
(0.632899 -0.094231 0)
(0.720416 -0.108006 0)
(0.833675 -0.110231 0)
(0.928524 -0.101057 0)
(0.986978 -0.0840276 0)
(1.01523 -0.066164 0)
(1.02716 -0.050736 0)
(1.03238 -0.038404 0)
(1.03514 -0.028853 0)
(1.03681 -0.0215631 0)
(1.03786 -0.0160192 0)
(1.03846 -0.0118026 0)
(1.03879 -0.0085596 0)
(1.039 -0.00602685 0)
(1.03912 -0.00398662 0)
(1.03916 -0.00227502 0)
(1.03914 -0.000739388 0)
(0.73413 -0.296081 0)
(0.684401 -0.286073 0)
(0.637507 -0.264662 0)
(0.617591 -0.243021 0)
(0.665441 -0.210799 0)
(0.773768 -0.172215 0)
(0.899867 -0.134432 0)
(0.997206 -0.101844 0)
(1.04952 -0.0761999 0)
(1.06819 -0.057363 0)
(1.07055 -0.0435754 0)
(1.0673 -0.0331839 0)
(1.06292 -0.0252614 0)
(1.0588 -0.0191907 0)
(1.05531 -0.0145224 0)
(1.05246 -0.010903 0)
(1.05025 -0.00804851 0)
(1.0486 -0.00575456 0)
(1.04742 -0.00385246 0)
(1.04664 -0.00221235 0)
(1.04622 -0.000719959 0)
(0.764551 -0.0263002 2.40083e-21)
(0.765051 -0.307699 -6.99798e-22)
(0.778607 -0.0378393 1.20189e-21)
(0.778715 -0.319596 4.90591e-21)
(0.794408 -0.0497121 3.40171e-21)
(0.793055 -0.329891 8.96045e-21)
(0.811452 -0.0606721 -6.35597e-21)
(0.807822 -0.339396 7.17933e-21)
(0.829298 -0.0711901 -1.92476e-21)
(0.822897 -0.348335 1.89242e-20)
(0.847638 -0.081274 -1.23457e-20)
(0.838174 -0.356624 -7.48162e-21)
(0.86622 -0.0908051 8.7781e-21)
(0.853545 -0.364216 7.94178e-21)
(0.884814 -0.0997051 1.04688e-20)
(0.868903 -0.37108 -1.7594e-20)
(0.9032 -0.107919 -5.06046e-21)
(0.884147 -0.377194 5.90981e-21)
(0.921175 -0.115405 1.56966e-21)
(0.899179 -0.38254 2.96025e-21)
(0.938554 -0.122135 -2.32962e-21)
(0.913905 -0.387113 -6.92647e-22)
(0.95517 -0.128093 3.32133e-21)
(0.928241 -0.390913 -6.58997e-21)
(0.970879 -0.133277 9.86914e-21)
(0.942106 -0.393946 -7.782e-21)
(0.985565 -0.137695 -2.15732e-21)
(0.955432 -0.396229 -3.73635e-21)
(0.999134 -0.141365 2.44312e-21)
(0.968155 -0.397781 7.33905e-21)
(1.01152 -0.144316 -3.88833e-21)
(0.980222 -0.398628 -5.73101e-21)
(1.0227 -0.146581 3.81607e-22)
(0.991592 -0.3988 7.79176e-22)
(1.03265 -0.148199 -4.32881e-21)
(1.00223 -0.398331 -5.60487e-22)
(1.0414 -0.149212 1.34784e-21)
(1.0121 -0.397257 -8.23702e-22)
(1.03132 0.178765 -1.50744e-21)
(1.04897 -0.149663 5.20054e-22)
(1.0212 -0.395615 1.91001e-21)
(1.03611 0.174711 -6.13621e-23)
(1.05544 -0.149595 -4.95986e-23)
(1.02952 -0.393442 -4.72426e-22)
)
;

boundaryField
{
    inlet
    {
        type            uniformFixedValue;
        uniformValue    constant (1 0 0);
        value           nonuniform 0();
    }
    outlet
    {
        type            pressureInletOutletVelocity;
        value           nonuniform 0();
    }
    cylinder
    {
        type            fixedValue;
        value           nonuniform 0();
    }
    top
    {
        type            symmetryPlane;
    }
    bottom
    {
        type            symmetryPlane;
    }
    defaultFaces
    {
        type            empty;
    }
    procBoundary39to38
    {
        type            processor;
        value           nonuniform List<vector> 
86
(
(0.990611 0.438158 -3.19863e-22)
(1.04199 0.168133 2.75741e-22)
(1.04199 0.168133 2.75741e-22)
(1.04325 0.165578 2.23548e-22)
(1.04351 0.163476 2.10771e-21)
(1.04288 0.161793 3.0146e-22)
(1.04142 0.160493 -1.69328e-21)
(1.03924 0.159541 -1.18357e-21)
(1.03639 0.158891 3.88759e-21)
(1.03294 0.1585 -2.02147e-21)
(1.02896 0.158324 1.39862e-21)
(1.02449 0.158327 2.17636e-21)
(1.01961 0.158469 -2.84369e-21)
(1.01437 0.158716 -3.08794e-22)
(1.00884 0.159034 -5.32304e-22)
(1.00309 0.159398 -4.61744e-21)
(0.997208 0.159784 6.30436e-21)
(0.991286 0.160161 -1.49815e-21)
(0.985459 0.160473 -2.13246e-21)
(0.979918 0.160776 -3.67728e-21)
(0.975019 0.161605 4.86012e-22)
(0.971498 0.162369 -1.28623e-21)
(0.969962 0.143325 0)
(0.997506 0.0633205 0)
(1.04563 0.00738182 0)
(1.10334 -0.033206 0)
(1.14161 -0.0491418 0)
(1.1555 -0.0461471 0)
(1.14802 -0.0374959 0)
(1.13074 -0.0276588 0)
(1.1131 -0.0207969 0)
(1.09827 -0.0155543 0)
(1.08677 -0.0117359 0)
(1.07793 -0.00862703 0)
(1.07105 -0.00623691 0)
(1.06565 -0.00443898 0)
(1.06138 -0.00315655 0)
(1.05795 -0.002256 0)
(1.05519 -0.0016197 0)
(1.05302 -0.00115065 0)
(1.05143 -0.000773401 0)
(1.05039 -0.000445156 0)
(1.04985 -0.000141172 0)
(0.77038 0.307645 0)
(0.723714 0.227863 0)
(0.695252 0.195878 0)
(0.68948 0.122633 0)
(0.735501 0.0642669 0)
(0.809647 0.00443301 0)
(0.885086 -0.0289246 0)
(0.942097 -0.0421622 0)
(0.978668 -0.039422 0)
(1.0005 -0.031223 0)
(1.01386 -0.0228491 0)
(1.02258 -0.0161728 0)
(1.02858 -0.0112502 0)
(1.03274 -0.00773291 0)
(1.0356 -0.00524519 0)
(1.0375 -0.00350962 0)
(1.03874 -0.0022988 0)
(1.03954 -0.00146786 0)
(1.04002 -0.000888877 0)
(1.04023 -0.00047646 0)
(1.04029 -0.000148097 0)
(0.793624 0.30146 3.92243e-21)
(0.802217 0.298175 -2.71693e-21)
(0.811966 0.292728 3.87901e-21)
(0.823167 0.286365 -8.70448e-21)
(0.835888 0.279825 6.88775e-21)
(0.849956 0.273033 -1.18457e-20)
(0.865079 0.265911 1.66594e-20)
(0.880928 0.25852 1.84822e-21)
(0.897173 0.250951 -4.72165e-21)
(0.913499 0.243289 2.09059e-21)
(0.929609 0.235619 8.69835e-22)
(0.94523 0.228029 3.24518e-21)
(0.960122 0.220603 1.35235e-21)
(0.974075 0.213422 -4.16992e-21)
(0.98692 0.206557 3.10464e-21)
(0.998525 0.200072 -4.8099e-21)
(1.0088 0.194016 1.65579e-21)
(1.01769 0.188429 -2.08979e-21)
(1.02519 0.18334 -1.68503e-21)
(1.02519 0.18334 -1.68503e-21)
(0.986019 0.447982 -1.04444e-21)
(0.988855 0.44302 -9.88564e-23)
)
;
    }
    procBoundary39to40
    {
        type            processor;
        value           nonuniform List<vector> 
85
(
(1.00829 -0.532611 8.71622e-23)
(1.01341 -0.530757 -5.76691e-23)
(1.01812 -0.528279 -1.22867e-21)
(1.02244 -0.525184 2.00265e-21)
(1.02635 -0.521485 1.9986e-22)
(1.02987 -0.517198 2.7092e-22)
(1.03299 -0.512341 -1.26876e-21)
(1.03569 -0.506938 -2.37791e-21)
(1.03799 -0.501012 7.19094e-21)
(1.03987 -0.49459 -1.2046e-21)
(1.04136 -0.4877 5.3829e-21)
(1.04248 -0.480372 -4.4621e-21)
(1.04329 -0.472631 -4.25519e-21)
(1.04386 -0.464506 3.85682e-21)
(1.04425 -0.456029 6.24806e-22)
(1.04455 -0.447249 6.83851e-21)
(1.04484 -0.438201 -4.00677e-22)
(1.04517 -0.428847 -2.88006e-21)
(1.04559 -0.419058 1.98323e-21)
(1.04616 -0.408863 2.58255e-21)
(1.04695 -0.398974 1.77225e-22)
(1.05 -0.371908 0)
(1.0293 -0.344445 0)
(1.03419 -0.288848 0)
(1.02922 -0.243102 0)
(1.03061 -0.193258 0)
(1.02628 -0.15369 0)
(1.02073 -0.119966 0)
(1.01506 -0.0953119 0)
(1.01247 -0.0748761 0)
(1.01247 -0.0748761 0)
(0.987889 -0.0147144 0)
(0.997915 -0.00994403 0)
(1.00726 -0.0074615 0)
(1.01528 -0.00594129 0)
(1.02172 -0.0047985 0)
(1.02666 -0.00384108 0)
(1.03035 -0.00299684 0)
(1.03305 -0.00226101 0)
(1.03498 -0.00162747 0)
(1.03632 -0.00108422 0)
(1.03717 -0.000617979 0)
(1.03757 -0.000199764 0)
(0.788977 -0.426565 0)
(0.741444 -0.392097 0)
(0.70268 -0.345888 0)
(0.706561 -0.29255 0)
(0.773307 -0.227971 0)
(0.881971 -0.163098 0)
(0.986897 -0.109482 0)
(1.05451 -0.0722636 0)
(1.08183 -0.0496221 0)
(1.08515 -0.0363732 0)
(1.07948 -0.0280606 0)
(1.07225 -0.0221292 0)
(1.06576 -0.0174858 0)
(1.06042 -0.0136656 0)
(1.05613 -0.0104884 0)
(1.05273 -0.00787298 0)
(1.05011 -0.0057463 0)
(1.04816 -0.00403651 0)
(1.04677 -0.00265346 0)
(1.04584 -0.00150421 0)
(1.04537 -0.000486543 0)
(0.81365 -0.442725 3.99914e-22)
(0.825278 -0.452159 -9.93772e-21)
(0.83668 -0.460255 -1.14596e-21)
(0.848096 -0.468157 -1.45169e-21)
(0.859475 -0.475736 4.61357e-21)
(0.870764 -0.482963 -5.65233e-21)
(0.88191 -0.489811 9.81458e-22)
(0.892861 -0.496255 -3.48885e-21)
(0.903569 -0.502273 -1.6351e-21)
(0.913992 -0.507841 4.10844e-21)
(0.924092 -0.512936 -2.97945e-21)
(0.933834 -0.517539 -4.70608e-21)
(0.943192 -0.521629 -1.64805e-21)
(0.952146 -0.525186 3.3921e-21)
(0.960678 -0.528194 -1.90707e-21)
(0.96878 -0.530633 6.55556e-22)
(0.976446 -0.53249 -2.69069e-22)
(0.983674 -0.533749 -5.04681e-22)
(0.990467 -0.534399 -1.12156e-21)
(0.99683 -0.53443 5.78161e-22)
(1.00277 -0.533835 -4.78182e-22)
)
;
    }
}


// ************************************************************************* //
