/*--------------------------------*- C++ -*----------------------------------*\
  =========                 |
  \\      /  F ield         | OpenFOAM: The Open Source CFD Toolbox
   \\    /   O peration     | Website:  https://openfoam.org
    \\  /    A nd           | Version:  7
     \\/     M anipulation  |
\*---------------------------------------------------------------------------*/
FoamFile
{
    version     2.0;
    format      ascii;
    class       volScalarField;
    location    "70";
    object      p;
}
// * * * * * * * * * * * * * * * * * * * * * * * * * * * * * * * * * * * * * //

dimensions      [0 2 -2 0 0 0 0];

internalField   nonuniform List<scalar> 
36
(
-0.522635
-0.485188
-0.408788
-0.363448
-0.171118
-0.138338
-0.171118
-0.138338
-0.408788
-0.363448
-0.485188
-0.522635
-0.104748
-0.0758248
-0.0539804
-0.0376172
-0.0250854
-0.015506
-0.00814673
-0.00253575
0.00164623
0.00462675
0.00656596
0.00751089
-0.104748
-0.0758248
-0.0539804
-0.0376172
-0.0250854
-0.015506
-0.00814673
-0.00253575
0.00164623
0.00462674
0.00656595
0.00751089
)
;

boundaryField
{
    inlet
    {
        type            zeroGradient;
    }
    outlet
    {
        type            fixedValue;
        value           nonuniform 0();
    }
    cylinder
    {
        type            zeroGradient;
    }
    top
    {
        type            symmetryPlane;
    }
    bottom
    {
        type            symmetryPlane;
    }
    defaultFaces
    {
        type            empty;
    }
    procBoundary25to23
    {
        type            processor;
        value           nonuniform List<scalar> 
16
(
-0.142688
-0.111219
-0.142688
-0.0566728
-0.0377459
-0.0236332
-0.012826
-0.00457946
0.00175738
0.00658597
0.0101797
0.0127314
0.0143734
0.0151392
0.0143734
0.0151392
)
;
    }
    procBoundary25to24
    {
        type            processor;
        value           nonuniform List<scalar> 
26
(
-0.542092
-0.542092
-0.494855
-0.451622
-0.402488
-0.351207
-0.208897
-0.111219
-0.402488
-0.351207
-0.208897
-0.494855
-0.451622
-0.542092
-0.542092
-0.0814861
-0.0814861
-0.0566728
-0.0377459
-0.0236332
-0.012826
-0.00457945
0.00175738
0.00658597
0.0101797
0.0127314
)
;
    }
    procBoundary25to26
    {
        type            processor;
        value           nonuniform List<scalar> 
24
(
-0.499135
-0.470497
-0.470497
-0.445476
-0.407539
-0.368003
-0.317672
-0.195127
-0.195127
-0.407539
-0.317672
-0.368003
-0.445476
-0.470497
-0.470497
-0.499135
-0.0112172
-0.00648806
-0.00310972
-0.000896782
0.000215619
-0.00310971
-0.000896782
0.00021562
)
;
    }
    procBoundary25to27
    {
        type            processor;
        value           nonuniform List<scalar> 
18
(
-0.162095
-0.162095
-0.125458
-0.0933422
-0.0691416
-0.0507532
-0.0366424
-0.0258557
-0.0175553
-0.125458
-0.0933422
-0.0691416
-0.0507532
-0.0366424
-0.0258556
-0.0175553
-0.0112172
-0.00648806
)
;
    }
}


// ************************************************************************* //
