/*--------------------------------*- C++ -*----------------------------------*\
  =========                 |
  \\      /  F ield         | OpenFOAM: The Open Source CFD Toolbox
   \\    /   O peration     | Website:  https://openfoam.org
    \\  /    A nd           | Version:  7
     \\/     M anipulation  |
\*---------------------------------------------------------------------------*/
FoamFile
{
    version     2.0;
    format      ascii;
    class       volScalarField;
    location    "70";
    object      p;
}
// * * * * * * * * * * * * * * * * * * * * * * * * * * * * * * * * * * * * * //

dimensions      [0 2 -2 0 0 0 0];

internalField   nonuniform List<scalar> 
183
(
-0.153129
-0.139598
-0.185407
-0.168748
-0.153468
-0.13902
-0.126456
-0.226807
-0.205388
-0.186018
-0.168477
-0.152603
-0.283121
-0.254721
-0.229305
-0.206501
-0.185993
-0.323913
-0.289446
-0.258767
-0.231451
-0.207089
-0.374919
-0.333282
-0.295911
-0.2627
-0.233263
-0.433356
-0.386966
-0.342784
-0.302491
-0.26654
-0.478888
-0.441399
-0.39705
-0.351751
-0.308981
-0.270253
-0.463829
-0.439377
-0.402127
-0.358655
-0.31477
-0.431022
-0.421446
-0.397332
-0.36055
-0.318432
-0.385134
-0.376754
-0.352767
-0.336905
-0.329768
-0.286988
-0.244349
-0.290736
-0.283118
-0.334931
-0.32611
-0.302934
-0.376582
-0.366757
-0.34328
-0.307298
-0.26572
-0.404778
-0.380977
-0.344831
-0.302108
-0.258951
-0.41599
-0.379684
-0.336596
-0.292142
-0.250321
-0.212518
-0.368552
-0.323508
-0.280438
-0.241317
-0.20653
-0.308766
-0.268545
-0.232576
-0.200783
-0.172791
-0.25714
-0.22434
-0.195339
-0.169714
-0.147054
-0.216668
-0.190194
-0.166699
-0.145824
-0.127247
-0.110691
-0.163747
-0.144475
-0.127235
-0.111808
-0.0980229
-0.126979
-0.112597
-0.0995608
-0.0873191
-0.0768112
-0.100255
-0.0889534
-0.120401
-0.100762
-0.0761607
-0.0630506
-0.0485838
-0.039623
-0.0310006
-0.0231842
-0.0177476
-0.014041
-0.0102302
-0.00593578
-0.0026932
0.000102603
0.00210291
0.00347983
0.00540178
0.00743503
0.00804774
-0.109773
-0.0940201
-0.0711116
-0.0591938
-0.0456185
-0.0373454
-0.0292367
-0.0215531
-0.0163229
-0.0130077
-0.00943542
-0.00513397
-0.00187375
0.000900744
0.0028109
0.00405978
0.00602252
0.00819704
0.00872966
0.00833439
0.00991202
-0.0645547
-0.0552321
-0.0371735
-0.0295773
-0.0200118
-0.0126608
-0.00429238
0.000610122
0.00542536
0.00995615
0.0130362
0.0159405
0.0179805
0.0190611
0.0201587
0.0215299
0.0232147
0.0230958
0.0229598
0.0233172
0.0244334
-0.074627
-0.0618878
-0.0424259
-0.0337068
-0.0230687
-0.0151489
-0.00652127
-0.00128119
0.00384627
0.00850743
0.011742
0.014759
0.0169101
)
;

boundaryField
{
    inlet
    {
        type            zeroGradient;
    }
    outlet
    {
        type            fixedValue;
        value           nonuniform 0();
    }
    cylinder
    {
        type            zeroGradient;
    }
    top
    {
        type            symmetryPlane;
    }
    bottom
    {
        type            symmetryPlane;
    }
    defaultFaces
    {
        type            empty;
    }
    procBoundary13to12
    {
        type            processor;
        value           nonuniform List<scalar> 
106
(
-0.138061
-0.124324
-0.112678
-0.167506
-0.150829
-0.138061
-0.135795
-0.185309
-0.167506
-0.16579
-0.207153
-0.185309
-0.183951
-0.234745
-0.207153
-0.206686
-0.234745
-0.235903
-0.273657
-0.235903
-0.2367
-0.273657
-0.276199
-0.317175
-0.276199
-0.276566
-0.317175
-0.306519
-0.306519
-0.280812
-0.280812
-0.235504
-0.196375
-0.238029
-0.238029
-0.260379
-0.260379
-0.267731
-0.267731
-0.227499
-0.223992
-0.223992
-0.218535
-0.218535
-0.182278
-0.17911
-0.17911
-0.175928
-0.175928
-0.149099
-0.148153
-0.148153
-0.126448
-0.126992
-0.126992
-0.109204
-0.0934116
-0.0959374
-0.0959374
-0.0828143
-0.0855483
-0.0855483
-0.0738535
-0.0641164
-0.0986652
-0.0869377
-0.0658611
-0.055164
-0.0425227
-0.0349801
-0.0274298
-0.0198729
-0.0148285
-0.0119375
-0.00864599
-0.00433693
-0.00103807
0.00172606
0.00353652
0.00463314
0.0066438
0.0089894
0.00943193
0.00888538
0.0106507
-0.0540849
-0.0483224
-0.031792
-0.0253244
-0.0168957
-0.010158
-0.00203216
0.002541
0.00702681
0.0114279
0.0143573
0.0171524
0.0190843
0.0199556
0.0208824
0.0222619
0.0240384
0.0237901
0.0234618
0.0238278
0.0251239
)
;
    }
    procBoundary13to14
    {
        type            processor;
        value           nonuniform List<scalar> 
104
(
-0.166697
-0.152092
-0.201587
-0.184199
-0.168242
-0.168242
-0.24618
-0.223936
-0.20375
-0.20375
-0.306263
-0.276899
-0.250546
-0.250546
-0.350454
-0.314902
-0.314902
-0.405255
-0.362511
-0.362511
-0.46734
-0.420247
-0.420247
-0.515751
-0.478174
-0.478174
-0.503606
-0.503606
-0.474338
-0.474338
-0.415458
-0.415458
-0.439936
-0.439936
-0.448138
-0.411934
-0.411934
-0.398078
-0.352604
-0.352604
-0.335097
-0.294066
-0.294066
-0.280135
-0.246515
-0.246515
-0.236711
-0.209534
-0.185327
-0.185327
-0.180721
-0.160847
-0.143008
-0.143008
-0.141428
-0.126512
-0.112988
-0.112988
-0.112695
-0.100595
-0.130545
-0.107158
-0.0809987
-0.0667174
-0.0514108
-0.0418118
-0.0327167
-0.0247611
-0.0191085
-0.0150445
-0.0110276
-0.00673526
-0.00349478
-0.000670822
0.0014106
0.00289674
0.00478435
0.00670049
0.00738429
0.00778023
0.00778023
0.0091984
0.0181831
0.0194301
0.0208015
0.0224203
0.022421
0.0224466
0.0227978
0.0237681
-0.0843068
-0.0682906
-0.0475449
-0.0377012
-0.0260637
-0.0176138
-0.00871239
-0.00313447
0.00228806
0.00708116
0.0104734
0.0136055
0.0181831
0.0158698
)
;
    }
}


// ************************************************************************* //
