/*--------------------------------*- C++ -*----------------------------------*\
  =========                 |
  \\      /  F ield         | OpenFOAM: The Open Source CFD Toolbox
   \\    /   O peration     | Website:  https://openfoam.org
    \\  /    A nd           | Version:  7
     \\/     M anipulation  |
\*---------------------------------------------------------------------------*/
FoamFile
{
    version     2.0;
    format      ascii;
    class       volScalarField;
    location    "55";
    object      p;
}
// * * * * * * * * * * * * * * * * * * * * * * * * * * * * * * * * * * * * * //

dimensions      [0 2 -2 0 0 0 0];

internalField   nonuniform List<scalar> 
392
(
0.000344354
0.000811362
0.000341284
0.00282901
0.000342576
0.000809119
0.000339966
0.00282285
0.000339026
0.000804642
0.00033734
0.00281055
0.000797945
0.000333424
0.00279218
0.000789053
0.000328245
0.00276785
0.000777995
0.000321839
0.00273769
0.000764809
0.000314254
0.00270185
0.000749535
0.000305547
0.00266051
0.00073222
0.000295783
0.00261388
0.000712913
0.000285045
0.00256217
0.000691662
0.000273425
0.00250561
0.000668517
0.000261034
0.0024444
0.000643521
0.000248007
0.00237875
0.000616709
0.000234502
0.00230885
0.000588105
0.000220715
0.00223483
0.000557713
0.000206889
0.00215673
0.000525512
0.000193324
0.00207455
0.00049145
0.000180417
0.00198808
0.000455436
0.000168735
0.0018969
0.000417349
0.000158988
0.0018004
0.000377002
0.000151342
0.0016984
0.000333915
0.000145126
0.00159109
0.00028652
0.000147463
0.00147011
0.000232239
0.000193307
0.00130044
0.00013485
0.000341228
0.000910883
2.60881e-05
0.000258057
0.000652552
-8.03767e-05
0.000140519
0.00047286
-0.000186354
2.57087e-05
0.000309245
-0.000292058
-8.7022e-05
0.000155579
-0.000396362
-0.000195807
1.19862e-05
-0.000497869
-0.000298931
-0.000121043
-0.000595384
-0.000395291
-0.000242659
-0.000687886
-0.000484068
-0.00035196
-0.000774525
-0.000564666
-0.000448276
-0.000854652
-0.000636724
-0.000531265
-0.000927824
-0.000700112
-0.000600931
-0.000993805
-0.000754915
-0.000657599
-0.00105256
-0.000801409
-0.000701881
-0.00110421
-0.000840033
-0.000734628
-0.00114907
-0.000871357
-0.000756876
-0.00118754
-0.000896047
-0.000769791
-0.00122012
-0.000914834
-0.00077462
-0.0012474
-0.000928479
-0.000772634
-0.00126998
-0.000937745
-0.000765091
-0.00128846
-0.000943376
-0.000753193
-0.00130344
-0.000946073
-0.000738057
-0.0013155
-0.000946478
-0.000720696
-0.00132514
-0.000945169
-0.000702
-0.00133284
-0.000942646
-0.00068273
-0.001339
-0.000939335
-0.000663517
-0.00134396
-0.000935586
-0.000644866
-0.00134801
-0.000931677
-0.000627163
-0.00135135
-0.000927819
-0.00061069
-0.00135418
-0.000924167
-0.000595631
-0.00135661
-0.000920823
-0.000582097
-0.00135873
-0.000917848
-0.00057013
-0.0013606
-0.000915271
-0.000559726
-0.00136225
-0.000913094
-0.000550843
-0.00136368
-0.000911302
-0.000543412
-0.0013649
-0.000909875
-0.000537347
-0.00136588
-0.000908779
-0.00053256
-0.00136659
-0.000907897
-0.000528865
-0.00136716
-0.000907499
-0.000525285
-0.0013679
-0.000910326
-0.000519276
0.00013485
2.60882e-05
-8.03765e-05
-0.000186354
-0.000292058
-0.000396362
-0.000497869
-0.000595384
-0.000687885
-0.000774525
-0.000854652
-0.000927824
-0.000993805
-0.00105256
-0.00110421
-0.00114907
-0.00118754
-0.00122012
-0.0012474
-0.00126997
-0.00128846
-0.00130344
-0.0013155
-0.00132514
-0.00133284
-0.001339
-0.00134396
-0.001348
-0.00135135
-0.00135418
-0.00135661
-0.00135873
-0.0013606
-0.00136225
-0.00136368
-0.0013649
-0.00136588
-0.00136659
-0.00136716
-0.0013679
0.000341228
0.000258057
0.000140519
2.57087e-05
-8.70218e-05
-0.000195807
-0.00029893
-0.000395291
-0.000484068
-0.000564666
-0.000636724
-0.000700112
-0.000754915
-0.000801409
-0.000840033
-0.000871357
-0.000896047
-0.000914834
-0.000928478
-0.000937745
-0.000943376
-0.000946072
-0.000946478
-0.000945168
-0.000942646
-0.000939335
-0.000935586
-0.000931676
-0.000927819
-0.000924166
-0.000920822
-0.000917848
-0.000915271
-0.000913094
-0.000911302
-0.000909875
-0.000908779
-0.000907897
-0.000907499
-0.000910326
0.000910882
0.000652552
0.00047286
0.000309245
0.000155579
1.19859e-05
-0.000121043
-0.000242659
-0.00035196
-0.000448276
-0.000531266
-0.000600932
-0.0006576
-0.000701882
-0.000734628
-0.000756876
-0.000769791
-0.00077462
-0.000772634
-0.000765091
-0.000753193
-0.000738057
-0.000720696
-0.000702
-0.00068273
-0.000663517
-0.000644866
-0.000627163
-0.00061069
-0.000595631
-0.000582097
-0.00057013
-0.000559726
-0.000550843
-0.000543412
-0.000537347
-0.00053256
-0.000528865
-0.000525285
-0.000519276
0.00023224
0.000193307
0.00130044
0.00028652
0.000147464
0.00147011
0.000333915
0.000145126
0.00159109
0.000377002
0.000151342
0.0016984
0.000417349
0.000158988
0.0018004
0.000455436
0.000168735
0.0018969
0.00049145
0.000180417
0.00198808
0.000525512
0.000193324
0.00207455
0.000557712
0.000206889
0.00215673
0.000588104
0.000220715
0.00223482
0.000616709
0.000234502
0.00230885
0.000643521
0.000248007
0.00237875
0.000668517
0.000261034
0.0024444
0.000691662
0.000273424
0.00250561
0.000712912
0.000285044
0.00256217
0.000732219
0.000295783
0.00261388
0.000749534
0.000305546
0.00266051
0.000764808
0.000314254
0.00270185
0.000777995
0.000321839
0.00273769
0.000326674
0.000789053
0.000328244
0.00276785
0.000333718
0.000797945
0.000333423
0.00279218
0.000339025
0.000804641
0.00033734
0.00281055
0.000342575
0.000809119
0.000339966
0.00282285
0.000344354
0.000811362
0.000341284
0.00282901
)
;

boundaryField
{
    inlet
    {
        type            zeroGradient;
    }
    outlet
    {
        type            fixedValue;
        value           uniform 0;
    }
    cylinder
    {
        type            zeroGradient;
    }
    top
    {
        type            symmetryPlane;
    }
    bottom
    {
        type            symmetryPlane;
    }
    defaultFaces
    {
        type            empty;
    }
    procBoundary63to62
    {
        type            processor;
        value           nonuniform List<scalar> 
130
(
0.000173078
0.000171364
0.000167941
0.000333718
0.000333718
0.000326674
0.000317921
0.000307494
0.000295435
0.000281792
0.000266621
0.000249984
0.000231952
0.000212605
0.000192028
0.000170322
0.000147596
0.000123974
9.95961e-05
7.46223e-05
4.92331e-05
2.35966e-05
-2.13456e-06
-2.73682e-05
-5.01923e-05
-9.42004e-05
-0.000188016
-0.000289283
-0.000393768
-0.000499799
-0.000605767
-0.000710221
-0.000811921
-0.000909799
-0.00100295
-0.00109067
-0.00117242
-0.00124785
-0.00131681
-0.0013793
-0.00143546
-0.00148557
-0.00152997
-0.0015691
-0.00160344
-0.00163346
-0.00165965
-0.0016825
-0.00170244
-0.00171987
-0.00173515
-0.0017486
-0.00176046
-0.00177097
-0.00178028
-0.00178853
-0.00179583
-0.00180223
-0.0018078
-0.00181255
-0.00181651
-0.00181968
-0.00182207
-0.00182376
-0.00182473
-9.42003e-05
-0.000188016
-0.000289283
-0.000393767
-0.000499799
-0.000605766
-0.00071022
-0.000811921
-0.000909798
-0.00100295
-0.00109067
-0.00117242
-0.00124785
-0.00131681
-0.0013793
-0.00143546
-0.00148557
-0.00152997
-0.0015691
-0.00160344
-0.00163345
-0.00165965
-0.0016825
-0.00170244
-0.00171987
-0.00173515
-0.00174859
-0.00176046
-0.00177097
-0.00178028
-0.00178853
-0.00179583
-0.00180223
-0.0018078
-0.00181255
-0.00181651
-0.00181968
-0.00182207
-0.00182376
-0.00182473
-5.01922e-05
-2.73681e-05
-2.13452e-06
2.35966e-05
4.92331e-05
7.46223e-05
9.9596e-05
0.000123974
0.000147596
0.000170322
0.000192028
0.000212604
0.000231952
0.000249984
0.00026662
0.000281792
0.000295435
0.000307494
0.000317921
0.000317921
0.000156004
0.000162816
0.00016794
0.000171364
0.000173078
)
;
    }
}


// ************************************************************************* //
