/*--------------------------------*- C++ -*----------------------------------*\
  =========                 |
  \\      /  F ield         | OpenFOAM: The Open Source CFD Toolbox
   \\    /   O peration     | Website:  https://openfoam.org
    \\  /    A nd           | Version:  7
     \\/     M anipulation  |
\*---------------------------------------------------------------------------*/
FoamFile
{
    version     2.0;
    format      ascii;
    class       volVectorField;
    location    "25";
    object      U;
}
// * * * * * * * * * * * * * * * * * * * * * * * * * * * * * * * * * * * * * //

dimensions      [0 1 -1 0 0 0 0];

internalField   nonuniform List<vector> 
928
(
(0.288841 -0.0015493 -1.42921e-22)
(0.293386 -0.00153386 -2.02605e-22)
(0.297888 -0.00151851 1.56104e-22)
(0.302346 -0.00150324 -5.45044e-23)
(0.306762 -0.00148807 1.41352e-22)
(0.289817 -0.00464387 -7.18057e-22)
(0.294352 -0.00459763 -4.78482e-23)
(0.298843 -0.00455164 -1.02819e-22)
(0.303292 -0.00450591 -6.69093e-22)
(0.307698 -0.00446046 9.25648e-22)
(0.291764 -0.00772757 -2.07415e-21)
(0.296279 -0.00765068 -1.15312e-22)
(0.300751 -0.00757419 1.38099e-21)
(0.30518 -0.00749815 -6.5086e-22)
(0.309567 -0.00742257 -9.44901e-22)
(0.294677 -0.0107932 2.66565e-21)
(0.299162 -0.0106859 5.28135e-22)
(0.303604 -0.0105792 -3.40285e-21)
(0.308004 -0.0104731 1.55077e-21)
(0.312362 -0.0103676 2.61898e-21)
(0.298543 -0.0138337 1.93618e-21)
(0.302988 -0.0136963 -2.54566e-21)
(0.307391 -0.0135597 1.25288e-21)
(0.311753 -0.0134239 -9.24769e-22)
(0.316072 -0.0132888 -3.21711e-22)
(0.303349 -0.016842 -4.28821e-21)
(0.307745 -0.0166751 -3.74202e-22)
(0.312099 -0.016509 1.28523e-21)
(0.316412 -0.0163438 -2.68089e-21)
(0.320684 -0.0161797 4.87444e-21)
(0.309077 -0.0198114 7.98875e-22)
(0.313414 -0.0196153 -6.97439e-21)
(0.31771 -0.0194203 -1.7189e-21)
(0.321966 -0.0192264 8.13875e-21)
(0.326182 -0.0190336 -6.64113e-21)
(0.330357 -0.0188421 3.066e-21)
(0.315705 -0.0227351 -1.7952e-21)
(0.319974 -0.0225106 -1.30024e-21)
(0.324204 -0.0222873 7.48378e-22)
(0.328393 -0.0220652 -2.18444e-21)
(0.332544 -0.0218445 -3.53386e-22)
(0.336655 -0.0216251 -2.75789e-22)
(0.327403 -0.0253546 6.30938e-21)
(0.331557 -0.0251037 2.52727e-21)
(0.335671 -0.0248542 -5.29118e-21)
(0.339748 -0.0246061 3.99221e-21)
(0.343786 -0.0243596 -7.9459e-21)
(0.335673 -0.0281411 3.60282e-22)
(0.339742 -0.0278635 5.55478e-21)
(0.343773 -0.0275873 -6.80374e-21)
(0.347767 -0.0273127 -7.62716e-22)
(0.351724 -0.0270398 4.52608e-21)
(0.344754 -0.0308644 -7.18574e-22)
(0.34873 -0.0305609 1.55873e-23)
(0.352671 -0.0302589 3.75327e-21)
(0.356575 -0.0299587 -2.61137e-21)
(0.360442 -0.0296603 3.249e-21)
(0.354614 -0.033519 -1.07299e-20)
(0.35849 -0.0331905 9.3971e-21)
(0.362331 -0.0328637 -2.90899e-21)
(0.366138 -0.0325387 2.59376e-21)
(0.369909 -0.0322157 -1.30874e-21)
(0.365218 -0.0360995 -3.5759e-21)
(0.368987 -0.0357471 -1.5948e-21)
(0.372722 -0.0353965 -5.83692e-21)
(0.376423 -0.0350478 5.40417e-21)
(0.380091 -0.0347012 -1.4588e-21)
(0.376529 -0.0386012 -1.53578e-21)
(0.380184 -0.038226 -6.57171e-21)
(0.383806 -0.0378527 3.16912e-21)
(0.387396 -0.0374814 1.30834e-21)
(0.390954 -0.0371123 1.20566e-20)
(0.388509 -0.0410196 1.20449e-20)
(0.392042 -0.0406228 -1.68595e-23)
(0.395545 -0.040228 -2.81683e-21)
(0.399017 -0.0398352 7.92455e-21)
(0.402459 -0.0394446 6.08855e-22)
(0.405871 -0.0390563 -1.36178e-20)
(0.404523 -0.0429334 -9.22322e-22)
(0.4079 -0.0425182 -5.90926e-21)
(0.411248 -0.0421051 1.1213e-20)
(0.414568 -0.0416943 -4.99344e-21)
(0.41786 -0.0412859 7.8121e-23)
(0.417583 -0.0451541 -2.19469e-21)
(0.420829 -0.0447198 -4.82846e-21)
(0.424049 -0.0442877 8.95672e-21)
(0.427241 -0.0438579 -7.92482e-21)
(0.430407 -0.0434305 1.47833e-20)
(0.431179 -0.0472817 -8.79717e-22)
(0.43429 -0.0468297 -8.74732e-21)
(0.437376 -0.0463798 6.22317e-22)
(0.440436 -0.0459322 5.92409e-21)
(0.443472 -0.0454871 4.83588e-23)
(0.445268 -0.0493133 -1.03302e-20)
(0.448239 -0.0488449 3.11674e-21)
(0.451187 -0.0483786 2.40123e-21)
(0.454111 -0.0479147 -1.76389e-21)
(0.457012 -0.0474531 3.81163e-21)
(0.459805 -0.0512465 7.32064e-22)
(0.462632 -0.0507631 1.36421e-20)
(0.465437 -0.0502819 -1.9786e-20)
(0.468221 -0.0498028 1.72752e-20)
(0.470985 -0.0493262 -6.02472e-22)
(0.473726 -0.0488522 -4.96309e-21)
(0.477423 -0.0525825 6.23884e-21)
(0.480083 -0.0520876 -1.25952e-20)
(0.482724 -0.0515948 7.43333e-21)
(0.485346 -0.0511045 -5.38408e-21)
(0.487949 -0.0506167 8.10767e-21)
(0.492568 -0.0543013 -1.4376e-20)
(0.49508 -0.0537942 1.80839e-20)
(0.497575 -0.0532892 -1.61216e-20)
(0.500053 -0.0527865 -1.21213e-22)
(0.502513 -0.0522862 9.88105e-21)
(0.508021 -0.0559186 -1.81179e-20)
(0.510383 -0.0554007 4.14397e-21)
(0.51273 -0.0548848 4.18171e-21)
(0.515061 -0.0543711 -6.70668e-21)
(0.517378 -0.0538598 1.6415e-20)
(0.523737 -0.0574335 -8.53927e-21)
(0.525947 -0.0569064 1.12384e-20)
(0.528144 -0.056381 -3.84816e-21)
(0.530328 -0.0558577 -8.9591e-21)
(0.532499 -0.0553367 1.77922e-20)
(0.534656 -0.0548181 -5.12211e-21)
(0.541728 -0.0583111 8.54597e-21)
(0.543774 -0.0577777 6.78054e-21)
(0.545809 -0.0572462 -1.4406e-20)
(0.547833 -0.0567168 1.06537e-20)
(0.549846 -0.0561898 3.4033e-21)
(0.557682 -0.0596149 1.68169e-20)
(0.559576 -0.0590749 -1.08341e-20)
(0.561462 -0.0585366 -4.45432e-22)
(0.563339 -0.0580002 1.00948e-20)
(0.565206 -0.057466 -6.20967e-21)
(0.573767 -0.0608165 1.7006e-21)
(0.57551 -0.0602713 3.16507e-21)
(0.577246 -0.0597275 -1.2156e-20)
(0.578975 -0.0591855 1.26091e-20)
(0.580697 -0.0586455 1.48754e-21)
(0.591532 -0.0613679 2.55813e-20)
(0.593118 -0.0608201 -2.02177e-20)
(0.5947 -0.0602739 1.29285e-20)
(0.596277 -0.0597293 -1.43281e-20)
(0.597849 -0.0591868 1.23632e-21)
(0.607603 -0.0623845 4.12642e-21)
(0.609041 -0.0618336 -1.17011e-20)
(0.610476 -0.0612841 -1.52301e-20)
(0.611908 -0.060736 2.2826e-20)
(0.613338 -0.0601896 -1.34151e-20)
(0.623684 -0.0633315 7.27554e-21)
(0.624974 -0.0627785 -3.07255e-20)
(0.626264 -0.0622265 1.01592e-21)
(0.627553 -0.0616756 2.89752e-20)
(0.628842 -0.0611263 -1.44682e-20)
(0.649491 -0.0645317 0)
(0.650573 -0.0639824 0)
(0.651657 -0.0634334 0)
(0.652743 -0.0628852 0)
(0.653831 -0.0623379 0)
(0.687379 -0.0658041 0)
(0.688154 -0.0652611 -5.58551e-28)
(0.688935 -0.0647178 5.58551e-28)
(0.689722 -0.0641746 0)
(0.690515 -0.0636317 0)
(0.725615 -0.0666836 0)
(0.726084 -0.0661529 0)
(0.726564 -0.0656212 0)
(0.727053 -0.0650887 0)
(0.727552 -0.0645558 0)
(0.763827 -0.0671252 0)
(0.763997 -0.066613 0)
(0.764182 -0.0660986 0)
(0.76438 -0.0655827 0)
(0.764592 -0.0650655 0)
(0.801659 -0.0671448 0)
(0.801542 -0.0666564 -2.97668e-11)
(0.801442 -0.0661649 2.97668e-11)
(0.801361 -0.0656708 0)
(0.801296 -0.0651744 0)
(0.838774 -0.0667647 0)
(0.838386 -0.0663053 -2.98451e-11)
(0.838018 -0.0658416 2.98451e-11)
(0.837672 -0.0653742 0)
(0.837345 -0.0649034 0)
(0.874863 -0.0660107 0)
(0.874223 -0.0655847 0)
(0.873607 -0.0651532 0)
(0.873015 -0.0647168 0)
(0.872446 -0.064276 0)
(0.909645 -0.0649141 0)
(0.908777 -0.0645252 0)
(0.907936 -0.0641296 0)
(0.907121 -0.063728 0)
(0.90633 -0.0633208 0)
(0.942878 -0.0635105 0)
(0.941808 -0.0631617 -4.24614e-28)
(0.940766 -0.062805 4.24614e-28)
(0.939752 -0.062441 0)
(0.938766 -0.0620703 0)
(0.974355 -0.0618389 0)
(0.973111 -0.0615323 -3.00953e-11)
(0.971896 -0.0612165 3.00953e-11)
(0.970711 -0.0608923 0)
(0.969553 -0.0605601 0)
(1.00391 -0.0599403 0)
(1.00252 -0.059677 -3.0138e-11)
(1.00116 -0.0594034 3.0138e-11)
(0.999834 -0.0591202 0)
(0.998533 -0.058828 0)
(1.03143 -0.0578563 0)
(1.02992 -0.0576367 0)
(1.02845 -0.0574057 0)
(1.027 -0.057164 0)
(1.02558 -0.0569122 0)
(1.05682 -0.0556284 0)
(1.05522 -0.0554521 4.26744e-28)
(1.05366 -0.0552633 -4.26744e-28)
(1.05213 -0.0550628 0)
(1.05062 -0.0548513 0)
(1.08004 -0.0532967 0)
(1.07839 -0.0531625 0)
(1.07676 -0.0530148 0)
(1.07517 -0.0528545 0)
(1.0736 -0.0526823 0)
(1.1011 -0.0508991 0)
(1.09941 -0.050805 -3.02099e-11)
(1.09775 -0.0506968 3.02099e-11)
(1.09612 -0.0505751 0)
(1.09451 -0.0504407 0)
(1.12002 -0.0484702 0)
(1.11832 -0.0484139 -3.02016e-11)
(1.11664 -0.0483428 3.02016e-11)
(1.11499 -0.0482577 0)
(1.11337 -0.0481592 0)
(1.13686 -0.046041 0)
(1.13517 -0.0460198 -2.90999e-28)
(1.1335 -0.0459833 2.90999e-28)
(1.13185 -0.0459322 0)
(1.13023 -0.0458672 0)
(1.15171 -0.0436385 0)
(1.15004 -0.0436495 0)
(1.1484 -0.0436446 0)
(1.14677 -0.0436248 0)
(1.14517 -0.0435906 0)
(1.16467 -0.0412855 0)
(1.16305 -0.0413253 -4.25594e-28)
(1.16144 -0.0413492 4.25594e-28)
(1.15985 -0.0413576 0)
(1.15828 -0.0413515 0)
(1.17588 -0.0390002 0)
(1.1743 -0.0390659 0)
(1.17274 -0.0391152 0)
(1.1712 -0.039149 0)
(1.16968 -0.039168 0)
(1.18545 -0.0367971 0)
(1.18393 -0.0368853 4.24059e-28)
(1.18243 -0.0369572 -4.24059e-28)
(1.18095 -0.0370134 0)
(1.17948 -0.0370546 0)
(1.19353 -0.0346865 0)
(1.19208 -0.0347942 0)
(1.19065 -0.0348856 0)
(1.18922 -0.0349613 0)
(1.18781 -0.035022 0)
(1.20026 -0.0326752 0)
(1.19888 -0.0327995 -2.05326e-28)
(1.19752 -0.0329076 2.05326e-28)
(1.19616 -0.0330001 0)
(1.19482 -0.0330777 0)
(1.20579 -0.0307669 0)
(1.20448 -0.0309052 -2.97773e-11)
(1.20319 -0.0310274 2.97773e-11)
(1.2019 -0.0311342 0)
(1.20062 -0.0312261 0)
(1.21024 -0.0289627 0)
(1.20901 -0.0291125 -2.96869e-11)
(1.20778 -0.0292465 2.96869e-11)
(1.20656 -0.0293653 0)
(1.20535 -0.0294693 0)
(1.21375 -0.0272615 0)
(1.21259 -0.0274207 0)
(1.21144 -0.0275643 0)
(1.21029 -0.0276929 0)
(1.20914 -0.027807 0)
(1.21645 -0.0256604 0)
(1.21536 -0.0258271 -4.16765e-28)
(1.21427 -0.0259784 4.16765e-28)
(1.21318 -0.026115 0)
(1.2121 -0.0262373 0)
(1.21844 -0.0241554 0)
(1.21741 -0.0243278 0)
(1.21639 -0.0244851 0)
(1.21537 -0.024628 0)
(1.21435 -0.0247569 0)
(1.21983 -0.0227414 0)
(1.21886 -0.022918 0)
(1.2179 -0.0230799 0)
(1.21694 -0.0232276 0)
(1.21598 -0.0233616 0)
(1.22071 -0.0214127 0)
(1.2198 -0.0215922 0)
(1.21889 -0.0217573 0)
(1.21799 -0.0219086 0)
(1.21708 -0.0220466 0)
(1.22116 -0.0201635 0)
(1.22031 -0.0203447 0)
(1.21945 -0.020512 0)
(1.2186 -0.0206657 0)
(1.21775 -0.0208065 0)
(1.22126 -0.0189877 0)
(1.22046 -0.0191697 -2.89227e-11)
(1.21965 -0.0193381 2.89227e-11)
(1.21885 -0.0194933 0)
(1.21804 -0.0196359 0)
(1.22108 -0.0178795 0)
(1.22032 -0.0180613 -2.8803e-11)
(1.21956 -0.0182299 2.8803e-11)
(1.2188 -0.0183858 0)
(1.21804 -0.0185293 0)
(1.22066 -0.0168331 0)
(1.21994 -0.017014 -4.05375e-28)
(1.21923 -0.017182 4.05375e-28)
(1.2185 -0.0173377 0)
(1.21778 -0.0174815 0)
(1.22006 -0.0158432 0)
(1.21938 -0.0160224 0)
(1.2187 -0.0161893 0)
(1.21802 -0.0163441 0)
(1.21733 -0.0164874 0)
(1.21932 -0.0149049 0)
(1.21868 -0.0150818 -2.84421e-11)
(1.21803 -0.0152468 2.84421e-11)
(1.21738 -0.0154001 0)
(1.21673 -0.0155423 0)
(1.21847 -0.0140134 0)
(1.21786 -0.0141875 -2.8323e-11)
(1.21724 -0.01435 2.8323e-11)
(1.21662 -0.0145013 0)
(1.216 -0.0146419 0)
(1.21754 -0.0131648 0)
(1.21696 -0.0133354 2.71937e-28)
(1.21637 -0.0134949 -2.71937e-28)
(1.21578 -0.0136436 0)
(1.21519 -0.013782 0)
(1.21656 -0.012355 0)
(1.216 -0.0125217 3.96997e-28)
(1.21544 -0.0126777 -3.96997e-28)
(1.21487 -0.0128234 0)
(1.21431 -0.0129591 0)
(1.21374 -0.0130851 0)
(1.21555 -0.0115808 0)
(1.21501 -0.011743 0)
(1.21447 -0.011895 0)
(1.21393 -0.0120372 0)
(1.21339 -0.0121698 0)
(1.21284 -0.0122931 0)
(1.21452 -0.010839 0)
(1.21401 -0.0109963 0)
(1.21349 -0.0111439 0)
(1.21297 -0.0112821 0)
(1.21244 -0.0114111 0)
(1.21192 -0.0115312 0)
(1.2135 -0.0101268 0)
(1.213 -0.0102788 0)
(1.2125 -0.0104215 0)
(1.212 -0.0105553 0)
(1.21149 -0.0106803 0)
(1.21099 -0.0107969 0)
(1.21248 -0.00944169 0)
(1.212 -0.00958794 0)
(1.21152 -0.00972541 0)
(1.21104 -0.00985434 0)
(1.21055 -0.00997499 0)
(1.21006 -0.0100876 0)
(1.21149 -0.00878146 0)
(1.21103 -0.00892155 0)
(1.21056 -0.00905335 0)
(1.21009 -0.00917707 0)
(1.20962 -0.00929296 0)
(1.20915 -0.00940124 0)
(1.21052 -0.00814396 0)
(1.21008 -0.00827753 -3.88105e-28)
(1.20963 -0.00840328 3.88105e-28)
(1.20917 -0.00852143 0)
(1.20872 -0.00863219 0)
(1.20826 -0.00873577 0)
(1.2096 -0.00752731 0)
(1.20917 -0.00765399 0)
(1.20873 -0.00777334 0)
(1.20829 -0.00788556 0)
(1.20784 -0.00799084 0)
(1.2074 -0.0080894 0)
(1.20871 -0.00692973 0)
(1.20829 -0.00704918 -2.7284e-11)
(1.20787 -0.00716179 2.7284e-11)
(1.20744 -0.00726775 0)
(1.20701 -0.00736724 0)
(1.20658 -0.00746044 0)
(1.20788 -0.00634956 0)
(1.20747 -0.00646147 -2.72032e-11)
(1.20706 -0.00656703 2.72032e-11)
(1.20664 -0.00666642 0)
(1.20622 -0.0067598 0)
(1.2058 -0.00684734 0)
(1.2071 -0.00578527 0)
(1.2067 -0.00588933 -3.834e-28)
(1.2063 -0.00598755 3.834e-28)
(1.20589 -0.00608007 0)
(1.20548 -0.00616706 0)
(1.20506 -0.00624867 0)
(1.20637 -0.00523537 0)
(1.20598 -0.00533132 0)
(1.20559 -0.00542192 0)
(1.20519 -0.00550731 0)
(1.20479 -0.00558764 0)
(1.20438 -0.00566305 0)
(1.2057 -0.00469847 0)
(1.20532 -0.00478605 3.81506e-28)
(1.20494 -0.00486878 -3.81506e-28)
(1.20455 -0.00494679 0)
(1.20416 -0.00502022 0)
(1.20376 -0.00508918 0)
(1.20509 -0.00417321 0)
(1.20472 -0.00425218 5.09127e-28)
(1.20435 -0.00432682 -5.09127e-28)
(1.20396 -0.00439723 0)
(1.20358 -0.00446353 0)
(1.20319 -0.00452583 0)
(1.20455 -0.00365828 0)
(1.20418 -0.00372845 0)
(1.20381 -0.00379478 0)
(1.20344 -0.00385739 0)
(1.20306 -0.00391636 0)
(1.20267 -0.0039718 0)
(1.20407 -0.0031524 0)
(1.20371 -0.00321358 0)
(1.20335 -0.00327143 0)
(1.20298 -0.00332606 0)
(1.2026 -0.00337753 0)
(1.20222 -0.00342593 0)
(1.20365 -0.00265431 0)
(1.2033 -0.00270635 -2.67979e-11)
(1.20294 -0.00275557 2.67979e-11)
(1.20258 -0.00280206 0)
(1.20221 -0.00284587 0)
(1.20183 -0.00288709 0)
(1.20331 -0.0021628 0)
(1.20296 -0.00220556 -2.67648e-11)
(1.2026 -0.00224601 2.67648e-11)
(1.20224 -0.00228423 0)
(1.20188 -0.00232025 0)
(1.20151 -0.00235415 0)
(1.20268 -0.00171002 0)
(1.20233 -0.00174159 0)
(1.20198 -0.00177143 0)
(1.20161 -0.00179956 0)
(1.20124 -0.00182603 0)
(1.20248 -0.00121854 -2.67182e-11)
(1.20213 -0.00124116 2.67182e-11)
(1.20177 -0.00126253 0)
(1.20141 -0.00128268 0)
(1.20105 -0.00130165 0)
(1.20234 -0.000729956 -5.34096e-11)
(1.20199 -0.000743551 5.34096e-11)
(1.20164 -0.000756397 0)
(1.20128 -0.000768513 0)
(1.20091 -0.00077992 0)
(1.20227 -0.000243119 -2.72e-11)
(1.20192 -0.000247655 2.72e-11)
(1.20157 -0.000251941 0)
(1.20121 -0.000255984 0)
(1.20085 -0.00025979 0)
(0.649491 0.0645315 0)
(0.687379 0.065804 0)
(0.725615 0.0666835 0)
(0.763828 0.0671251 0)
(0.801659 0.0671447 0)
(0.838775 0.0667647 0)
(0.874863 0.0660107 0)
(0.909646 0.064914 0)
(0.942878 0.0635105 0)
(0.974355 0.0618389 0)
(1.00391 0.0599403 0)
(1.03143 0.0578563 0)
(1.05682 0.0556284 0)
(1.08004 0.0532968 0)
(1.1011 0.0508992 0)
(1.12002 0.0484702 0)
(1.13686 0.046041 0)
(1.15171 0.0436386 0)
(1.16467 0.0412855 0)
(1.17588 0.0390003 0)
(1.18545 0.0367972 0)
(1.19353 0.0346866 0)
(1.20026 0.0326752 0)
(1.20579 0.0307669 0)
(1.21024 0.0289627 0)
(1.21375 0.0272615 0)
(1.21645 0.0256605 0)
(1.21844 0.0241555 0)
(1.21983 0.0227414 0)
(1.22071 0.0214128 0)
(1.22116 0.0201636 0)
(1.22126 0.0189878 0)
(1.22108 0.0178795 0)
(1.22066 0.0168332 0)
(1.22006 0.0158433 0)
(1.21932 0.0149049 0)
(1.21847 0.0140135 0)
(1.21754 0.0131648 0)
(1.21656 0.0123551 0)
(1.21555 0.0115808 0)
(1.21452 0.010839 0)
(1.2135 0.0101268 0)
(1.21248 0.00944174 0)
(1.21149 0.0087815 0)
(1.21052 0.008144 0)
(1.2096 0.00752735 0)
(1.20871 0.00692976 0)
(1.20788 0.0063496 0)
(1.2071 0.0057853 0)
(1.20637 0.0052354 0)
(1.2057 0.0046985 0)
(1.20509 0.00417323 0)
(1.20455 0.0036583 0)
(1.20407 0.00315241 0)
(1.20365 0.00265433 0)
(1.20331 0.00216281 0)
(1.20303 0.00167665 0)
(1.20282 0.00119465 0)
(1.20268 0.000715598 0)
(1.20261 0.000238328 0)
(0.650573 0.0639822 2.87079e-11)
(0.688154 0.065261 2.95112e-11)
(0.726084 0.0661528 -5.55754e-28)
(0.763998 0.0666129 0)
(0.801542 0.0666563 0)
(0.838386 0.0663052 -7.1722e-29)
(0.874223 0.0655846 0)
(0.908778 0.0645252 2.89089e-28)
(0.941808 0.0631617 0)
(0.973111 0.0615323 4.25342e-28)
(1.00252 0.059677 0)
(1.02992 0.0576367 -4.26415e-28)
(1.05522 0.0554521 0)
(1.07839 0.0531625 -2.9124e-28)
(1.09941 0.0508051 0)
(1.11832 0.048414 0)
(1.13517 0.0460199 0)
(1.15004 0.0436495 3.01531e-11)
(1.16305 0.0413254 3.01133e-11)
(1.1743 0.0390659 -2.89852e-28)
(1.18393 0.0368854 -4.2406e-28)
(1.19208 0.0347943 0)
(1.19888 0.0327996 2.05326e-28)
(1.20448 0.0309053 7.09971e-29)
(1.20901 0.0291126 4.19569e-28)
(1.21259 0.0274208 0)
(1.21536 0.0258272 0)
(1.21741 0.0243279 -4.15259e-28)
(1.21886 0.022918 -2.82214e-28)
(1.2198 0.0215923 -4.12087e-28)
(1.22031 0.0203448 0)
(1.22046 0.0191698 -2.78852e-28)
(1.22032 0.0180614 0)
(1.21994 0.017014 -4.05375e-28)
(1.21938 0.0160225 0)
(1.21868 0.0150819 -5.37602e-28)
(1.21786 0.0141875 0)
(1.21696 0.0133354 2.71937e-28)
(1.216 0.0125217 0)
(1.21501 0.011743 3.95397e-28)
(1.21401 0.0109963 2.68667e-28)
(1.213 0.0102788 0)
(1.212 0.00958799 0)
(1.21103 0.0089216 -2.65675e-28)
(1.21008 0.00827758 0)
(1.20917 0.00765403 0)
(1.20829 0.00704922 0)
(1.20747 0.0064615 -3.84467e-28)
(1.2067 0.00588936 3.834e-28)
(1.20598 0.00533135 0)
(1.20532 0.00478607 0)
(1.20472 0.00425221 0)
(1.20418 0.00372846 2.59191e-28)
(1.20371 0.00321359 0)
(1.2033 0.00270636 3.78739e-28)
(1.20296 0.00220557 2.58047e-28)
(1.20268 0.00171002 0)
(1.20248 0.00121855 0)
(1.20234 0.00072996 -2.57469e-28)
(1.20227 0.00024312 0)
(0.651657 0.0634333 -2.87079e-11)
(0.688935 0.0647177 -2.95112e-11)
(0.726564 0.0656211 5.55754e-28)
(0.764182 0.0660986 0)
(0.801443 0.0661649 0)
(0.838019 0.0658415 7.1722e-29)
(0.873607 0.0651532 0)
(0.907936 0.0641296 -2.89089e-28)
(0.940766 0.062805 0)
(0.971897 0.0612166 -4.25342e-28)
(1.00116 0.0594034 0)
(1.02845 0.0574058 4.26415e-28)
(1.05366 0.0552633 0)
(1.07676 0.0530149 2.9124e-28)
(1.09775 0.0506968 0)
(1.11664 0.0483429 0)
(1.1335 0.0459834 0)
(1.1484 0.0436447 -3.01531e-11)
(1.16144 0.0413493 -3.01133e-11)
(1.17274 0.0391153 2.89852e-28)
(1.18243 0.0369573 4.2406e-28)
(1.19065 0.0348857 0)
(1.19752 0.0329077 -2.05326e-28)
(1.20319 0.0310275 -7.09971e-29)
(1.20778 0.0292466 -4.19569e-28)
(1.21144 0.0275644 0)
(1.21427 0.0259785 0)
(1.21639 0.0244852 4.15259e-28)
(1.2179 0.02308 2.82214e-28)
(1.21889 0.0217574 4.12087e-28)
(1.21945 0.0205121 0)
(1.21965 0.0193381 2.78852e-28)
(1.21956 0.01823 0)
(1.21923 0.0171821 4.05375e-28)
(1.2187 0.0161893 0)
(1.21803 0.0152468 5.37602e-28)
(1.21724 0.0143501 0)
(1.21637 0.0134949 -2.71937e-28)
(1.21544 0.0126777 0)
(1.21447 0.0118951 -3.95397e-28)
(1.21349 0.0111439 -2.68667e-28)
(1.2125 0.0104216 0)
(1.21152 0.00972546 0)
(1.21056 0.00905339 2.65675e-28)
(1.20963 0.00840333 0)
(1.20873 0.00777338 0)
(1.20787 0.00716183 0)
(1.20706 0.00656707 3.84467e-28)
(1.2063 0.00598758 -3.834e-28)
(1.20559 0.00542195 0)
(1.20494 0.0048688 0)
(1.20435 0.00432684 0)
(1.20381 0.0037948 -2.59191e-28)
(1.20335 0.00327145 0)
(1.20294 0.00275559 -3.78739e-28)
(1.2026 0.00224603 -2.58047e-28)
(1.20233 0.0017416 0)
(1.20213 0.00124116 0)
(1.20199 0.000743555 2.57469e-28)
(1.20192 0.000247656 0)
(0.652743 0.0628851 0)
(0.689722 0.0641744 0)
(0.727053 0.0650886 0)
(0.76438 0.0655826 0)
(0.801361 0.0656707 0)
(0.837672 0.0653741 0)
(0.873015 0.0647168 0)
(0.907121 0.063728 0)
(0.939753 0.062441 0)
(0.970711 0.0608923 0)
(0.999834 0.0591202 0)
(1.027 0.0571641 0)
(1.05213 0.0550629 0)
(1.07517 0.0528546 0)
(1.09612 0.0505752 0)
(1.11499 0.0482578 0)
(1.13185 0.0459323 0)
(1.14677 0.0436249 0)
(1.15985 0.0413577 0)
(1.1712 0.0391491 0)
(1.18095 0.0370135 0)
(1.18922 0.0349614 0)
(1.19616 0.0330002 0)
(1.2019 0.0311343 0)
(1.20656 0.0293654 0)
(1.21029 0.027693 0)
(1.21318 0.0261151 0)
(1.21537 0.0246281 0)
(1.21694 0.0232277 0)
(1.21799 0.0219087 0)
(1.2186 0.0206658 0)
(1.21885 0.0194934 0)
(1.2188 0.0183858 0)
(1.2185 0.0173378 0)
(1.21802 0.0163442 0)
(1.21738 0.0154002 0)
(1.21662 0.0145014 0)
(1.21578 0.0136437 0)
(1.21487 0.0128234 0)
(1.21393 0.0120373 0)
(1.21297 0.0112821 0)
(1.212 0.0105553 0)
(1.21104 0.00985439 0)
(1.21009 0.00917712 0)
(1.20917 0.00852147 0)
(1.20829 0.0078856 0)
(1.20744 0.00726779 0)
(1.20664 0.00666645 0)
(1.20589 0.00608011 0)
(1.20519 0.00550734 0)
(1.20455 0.00494682 0)
(1.20396 0.00439726 0)
(1.20344 0.00385741 0)
(1.20298 0.00332608 0)
(1.20258 0.00280207 0)
(1.20224 0.00228424 0)
(1.20198 0.00177143 0)
(1.20177 0.00126253 0)
(1.20164 0.0007564 0)
(1.20157 0.000251942 0)
(0.653831 0.0623378 0)
(0.690515 0.0636316 0)
(0.727552 0.0645557 0)
(0.764592 0.0650654 0)
(0.801296 0.0651744 0)
(0.837346 0.0649034 0)
(0.872446 0.0642761 0)
(0.906331 0.0633208 0)
(0.938766 0.0620703 0)
(0.969554 0.0605602 0)
(0.998534 0.058828 0)
(1.02558 0.0569123 0)
(1.05062 0.0548513 0)
(1.0736 0.0526824 0)
(1.09451 0.0504408 0)
(1.11337 0.0481593 0)
(1.13023 0.0458673 0)
(1.14517 0.0435907 0)
(1.15828 0.0413516 0)
(1.16968 0.0391681 0)
(1.17948 0.0370547 0)
(1.18781 0.0350221 0)
(1.19482 0.0330778 0)
(1.20062 0.0312263 0)
(1.20535 0.0294694 0)
(1.20914 0.0278071 0)
(1.2121 0.0262374 0)
(1.21435 0.024757 0)
(1.21598 0.0233617 0)
(1.21708 0.0220467 0)
(1.21775 0.0208066 0)
(1.21804 0.0196359 0)
(1.21804 0.0185294 0)
(1.21778 0.0174816 0)
(1.21733 0.0164875 0)
(1.21673 0.0155424 0)
(1.216 0.014642 0)
(1.21519 0.0137821 0)
(1.21431 0.0129592 0)
(1.21339 0.0121698 0)
(1.21244 0.0114111 0)
(1.21149 0.0106804 0)
(1.21055 0.00997505 0)
(1.20962 0.00929301 0)
(1.20872 0.00863224 0)
(1.20784 0.00799089 0)
(1.20701 0.00736728 0)
(1.20622 0.00675984 0)
(1.20548 0.0061671 0)
(1.20479 0.00558767 0)
(1.20416 0.00502025 0)
(1.20358 0.00446356 0)
(1.20306 0.00391639 0)
(1.2026 0.00337755 0)
(1.20221 0.00284589 0)
(1.20188 0.00232026 0)
(1.20161 0.00179957 0)
(1.20141 0.00128269 0)
(1.20128 0.000768517 0)
(1.20121 0.000255985 0)
(0.623684 0.0633314 -7.18741e-21)
(0.624975 0.0627784 3.06226e-20)
(0.626265 0.0622263 -9.7431e-22)
(0.627554 0.0616755 -3.5856e-21)
(0.628842 0.0611262 -1.07553e-20)
(0.607603 0.0623843 -4.1537e-21)
(0.609041 0.0618335 1.18426e-20)
(0.610476 0.0612839 1.52095e-20)
(0.611909 0.0607358 -2.28203e-20)
(0.613338 0.0601895 1.33671e-20)
(0.591532 0.0613677 -2.58373e-20)
(0.593119 0.0608199 1.98685e-20)
(0.5947 0.0602737 -1.28176e-20)
(0.596277 0.0597292 1.39756e-20)
(0.597849 0.0591867 -1.25296e-21)
(0.573768 0.0608162 1.10591e-20)
(0.57551 0.0602711 9.25417e-21)
(0.577246 0.0597274 7.1684e-22)
(0.578975 0.0591854 -1.24941e-20)
(0.580697 0.0586453 -1.00825e-21)
(0.557682 0.0596147 -1.6779e-20)
(0.559577 0.0590747 1.05693e-20)
(0.561462 0.0585364 3.27152e-22)
(0.563339 0.0580001 -1.02402e-20)
(0.565207 0.0574658 5.90197e-21)
(0.541728 0.0583109 -8.71286e-21)
(0.543774 0.0577775 -6.62272e-21)
(0.545809 0.0572461 1.44482e-20)
(0.547833 0.0567167 -1.06075e-20)
(0.549846 0.0561896 -3.50334e-21)
(0.523737 0.0574333 8.4628e-21)
(0.525947 0.0569061 -1.10376e-20)
(0.528144 0.0563808 1.59058e-20)
(0.530328 0.0558575 -2.81012e-21)
(0.532499 0.0553365 -1.74557e-20)
(0.534656 0.0548179 5.32093e-21)
(0.508021 0.0559183 6.05698e-21)
(0.510383 0.0554005 6.87586e-21)
(0.51273 0.0548846 -4.38668e-21)
(0.515062 0.0543709 6.60132e-21)
(0.517378 0.0538596 -1.6526e-20)
(0.492568 0.0543011 1.44829e-20)
(0.49508 0.053794 -1.79585e-20)
(0.497575 0.053289 1.54858e-20)
(0.500053 0.0527863 -2.30848e-22)
(0.502514 0.052286 -1.02743e-20)
(0.477423 0.0525822 -6.68727e-21)
(0.480083 0.0520873 1.30968e-20)
(0.482725 0.0515946 -7.5973e-21)
(0.485346 0.0511043 5.33843e-21)
(0.487949 0.0506165 2.74555e-21)
(0.459805 0.0512462 -1.04566e-21)
(0.462632 0.0507629 -1.25894e-20)
(0.465437 0.0502816 1.97903e-20)
(0.468222 0.0498026 -1.71573e-20)
(0.470985 0.049326 1.7495e-21)
(0.473727 0.048852 1.57092e-20)
(0.445269 0.049313 1.0598e-20)
(0.448239 0.0488446 -3.91156e-21)
(0.451187 0.0483784 -2.0194e-21)
(0.454111 0.0479144 1.50877e-21)
(0.457012 0.0474529 -4.55868e-21)
(0.431179 0.0472814 4.52576e-22)
(0.43429 0.0468294 9.08168e-21)
(0.437376 0.0463795 -1.16794e-21)
(0.440437 0.045932 -5.35832e-21)
(0.443472 0.0454869 1.10126e-22)
(0.417583 0.0451538 2.59476e-21)
(0.420829 0.0447195 4.34714e-21)
(0.424049 0.0442874 -8.86531e-21)
(0.427242 0.0438576 7.84739e-21)
(0.430407 0.0434303 -1.48812e-20)
(0.404523 0.0429331 7.60013e-22)
(0.4079 0.0425179 5.56602e-21)
(0.411249 0.0421048 -1.0554e-20)
(0.414569 0.041694 4.83365e-21)
(0.41786 0.0412856 -5.19479e-22)
(0.388509 0.0410193 -1.52478e-22)
(0.392043 0.0406225 2.08611e-22)
(0.395545 0.0402277 3.87005e-21)
(0.399017 0.0398349 -8.97621e-21)
(0.402459 0.0394443 -7.8406e-22)
(0.405871 0.0390561 1.41228e-20)
(0.37653 0.0386009 1.8223e-21)
(0.380184 0.0382257 6.62784e-21)
(0.383806 0.0378524 -3.70638e-21)
(0.387396 0.0374811 -1.14823e-21)
(0.390954 0.037112 -1.15593e-20)
(0.365218 0.0360992 3.83583e-21)
(0.368987 0.0357468 1.53513e-21)
(0.372722 0.0353962 5.7366e-21)
(0.376423 0.0350476 -5.14649e-21)
(0.380092 0.034701 1.0726e-21)
(0.354614 0.0335186 1.03317e-20)
(0.35849 0.0331901 -9.07754e-21)
(0.362331 0.0328633 3.71166e-21)
(0.366138 0.0325384 -2.57988e-21)
(0.369909 0.0322154 2.07859e-21)
(0.344754 0.0308641 4.92006e-22)
(0.34873 0.0305605 -5.59163e-21)
(0.352671 0.0302586 1.64894e-21)
(0.356575 0.0299584 2.8188e-21)
(0.360443 0.02966 -3.77755e-21)
(0.335673 0.0281408 -1.4449e-22)
(0.339742 0.0278631 -6.07392e-21)
(0.343774 0.0275869 6.76723e-21)
(0.347768 0.0273124 5.18094e-22)
(0.351725 0.0270395 -4.57575e-21)
(0.327403 0.0253542 -6.22479e-21)
(0.331557 0.0251033 -2.4885e-21)
(0.335671 0.0248538 4.78891e-21)
(0.339748 0.0246058 -4.10674e-21)
(0.343786 0.0243593 8.17237e-21)
(0.315705 0.0227347 1.60819e-21)
(0.319975 0.0225103 1.03791e-21)
(0.324204 0.022287 -7.68726e-22)
(0.328394 0.0220649 2.39493e-21)
(0.332544 0.0218442 3.9854e-22)
(0.336655 0.0216248 -2.89418e-23)
(0.309077 0.019811 -6.42361e-22)
(0.313414 0.019615 7.29077e-21)
(0.31771 0.01942 1.65999e-21)
(0.321966 0.0192261 -7.90652e-21)
(0.326182 0.0190333 6.93832e-21)
(0.330357 0.0188418 -2.89771e-21)
(0.303349 0.0168416 4.05713e-21)
(0.307745 0.0166747 -6.45721e-23)
(0.312099 0.0165086 -8.81962e-22)
(0.316412 0.0163435 2.46295e-21)
(0.320685 0.0161793 -4.87824e-21)
(0.298543 0.0138333 -1.82986e-21)
(0.302988 0.013696 2.76169e-21)
(0.307391 0.0135593 1.37144e-21)
(0.311753 0.0134235 -4.64799e-21)
(0.316072 0.0132885 2.89488e-21)
(0.294677 0.0107928 -2.61843e-21)
(0.299162 0.0106855 2.19464e-21)
(0.303604 0.0105788 5.81944e-22)
(0.308004 0.0104727 -1.53163e-21)
(0.312362 0.0103673 -2.75208e-21)
(0.291764 0.00772718 7.35198e-22)
(0.296279 0.0076503 1.66501e-21)
(0.300751 0.00757383 -1.41806e-21)
(0.30518 0.00749781 7.73627e-22)
(0.309567 0.00742225 1.02913e-21)
(0.289817 0.00464348 7.67756e-22)
(0.294352 0.00459725 7.92861e-23)
(0.298843 0.00455128 1.1701e-22)
(0.303292 0.00450557 6.90127e-22)
(0.307698 0.00446014 -8.85281e-22)
(0.288841 0.0015489 1.08536e-22)
(0.293386 0.00153349 -1.63712e-22)
(0.297888 0.00151815 1.94824e-22)
(0.302346 0.0015029 3.87316e-23)
(0.306762 0.00148775 -1.67128e-22)
)
;

boundaryField
{
    inlet
    {
        type            uniformFixedValue;
        uniformValue    constant (1 0 0);
        value           nonuniform 0();
    }
    outlet
    {
        type            pressureInletOutletVelocity;
        value           nonuniform 0();
    }
    cylinder
    {
        type            fixedValue;
        value           nonuniform 0();
    }
    top
    {
        type            symmetryPlane;
    }
    bottom
    {
        type            symmetryPlane;
    }
    defaultFaces
    {
        type            empty;
    }
    procBoundary32to31
    {
        type            processor;
        value           nonuniform List<vector> 
191
(
(0.284253 -0.00156481 -6.29005e-22)
(0.285238 -0.00469034 -3.29236e-22)
(0.287206 -0.00780485 -3.2629e-21)
(0.290149 -0.010901 2.004e-21)
(0.294055 -0.0139717 3.57385e-22)
(0.298911 -0.0170098 -1.28769e-21)
(0.304698 -0.0200084 -3.13321e-21)
(0.311396 -0.0229607 -5.16813e-21)
(0.323211 -0.0256068 1.0545e-21)
(0.323211 -0.0256068 1.0545e-21)
(0.331566 -0.0284202 1.62674e-21)
(0.340741 -0.0311695 4.38924e-22)
(0.350702 -0.0338491 -3.16144e-21)
(0.361415 -0.0364536 -1.29618e-20)
(0.372843 -0.0389782 8.7484e-21)
(0.384946 -0.0414182 -7.78011e-22)
(0.401117 -0.0433505 1.75978e-21)
(0.401117 -0.0433505 1.75978e-21)
(0.414309 -0.0455903 1.10875e-21)
(0.428043 -0.0477356 8.37765e-21)
(0.442274 -0.0497835 -4.44553e-21)
(0.456957 -0.0517317 -1.82267e-21)
(0.474744 -0.0530794 -9.48341e-22)
(0.474744 -0.0530794 -9.48341e-22)
(0.490039 -0.0548103 -1.70048e-20)
(0.505644 -0.0564382 -1.67048e-20)
(0.521514 -0.0579623 -1.42532e-20)
(0.539671 -0.0588462 1.27605e-20)
(0.539671 -0.0588462 1.27605e-20)
(0.55578 -0.0601564 -6.25721e-21)
(0.572019 -0.0613629 -2.00319e-20)
(0.589941 -0.0619168 5.53481e-21)
(0.589941 -0.0619168 5.53481e-21)
(0.606163 -0.0629363 2.15216e-21)
(0.622394 -0.0638852 -4.9399e-21)
(0.648412 -0.065081 0)
(0.686611 -0.0663465 0)
(0.725157 -0.0672127 0)
(0.763673 -0.067635 0)
(0.801796 -0.0676296 0)
(0.839186 -0.0672194 0)
(0.875528 -0.0664308 0)
(0.910541 -0.0652957 0)
(0.943977 -0.0638507 0)
(0.97563 -0.0621357 0)
(1.00533 -0.0601925 0)
(1.03296 -0.0580636 0)
(1.05844 -0.0557915 0)
(1.08173 -0.0534169 0)
(1.10282 -0.0509783 0)
(1.12175 -0.0485108 0)
(1.13858 -0.046046 0)
(1.1534 -0.043611 0)
(1.16632 -0.0412287 0)
(1.17747 -0.0389176 0)
(1.18698 -0.0366919 0)
(1.19499 -0.0345618 0)
(1.20165 -0.0325339 0)
(1.2071 -0.0306118 0)
(1.21148 -0.0287963 0)
(1.21492 -0.027086 0)
(1.21755 -0.0254778 0)
(1.21947 -0.0239674 0)
(1.2208 -0.0225495 0)
(1.22162 -0.0212184 0)
(1.22202 -0.0199678 0)
(1.22207 -0.0187917 0)
(1.22184 -0.017684 0)
(1.22138 -0.016639 0)
(1.22074 -0.0156512 0)
(1.21997 -0.0147156 0)
(1.21908 -0.0138275 0)
(1.21813 -0.0129827 0)
(1.21712 -0.0121774 0)
(1.21608 -0.0114081 0)
(1.21503 -0.0106716 0)
(1.21399 -0.00996524 0)
(1.21295 -0.00928641 0)
(1.21194 -0.00863282 0)
(1.21096 -0.00800236 0)
(1.21002 -0.00739309 0)
(1.20913 -0.00680325 0)
(1.20828 -0.00623114 0)
(1.20749 -0.0056752 0)
(1.20675 -0.00513394 0)
(1.20607 -0.00460593 0)
(1.20546 -0.00408979 0)
(1.2049 -0.00358418 0)
(1.20442 -0.00308781 0)
(1.204 -0.00259939 0)
(1.20365 -0.00211768 0)
(1.20303 -0.00167665 0)
(1.20303 -0.00167665 0)
(1.20282 -0.00119465 0)
(1.20268 -0.000715594 0)
(1.20261 -0.000238327 0)
(0.648412 0.0650808 0)
(0.686612 0.0663463 0)
(0.725158 0.0672126 0)
(0.763673 0.0676349 0)
(0.801796 0.0676295 0)