/*--------------------------------*- C++ -*----------------------------------*\
  =========                 |
  \\      /  F ield         | OpenFOAM: The Open Source CFD Toolbox
   \\    /   O peration     | Website:  https://openfoam.org
    \\  /    A nd           | Version:  7
     \\/     M anipulation  |
\*---------------------------------------------------------------------------*/
FoamFile
{
    version     2.0;
    format      ascii;
    class       surfaceScalarField;
    location    "55";
    object      phi;
}
// * * * * * * * * * * * * * * * * * * * * * * * * * * * * * * * * * * * * * //

dimensions      [0 3 -1 0 0 0 0];

internalField   nonuniform List<scalar> 
272
(
2.19465e-05
-0.000125159
8.63957e-05
-0.000453558
0.000191717
-0.000861954
0.000332069
-0.00133163
-0.00183366
2.36445e-05
-0.000148804
9.15113e-05
-0.000521424
0.000200048
-0.00097049
0.000341167
-0.00147275
0.00050217
-0.00199466
0.000667959
-0.00249939
0.000824484
-0.00295597
0.00096168
-0.00334581
0.00107472
-0.00366435
0.00116355
-0.00391836
-0.00412118
2.51976e-05
-0.000174001
9.58758e-05
-0.000592103
0.000206408
-0.00108102
0.00034649
-0.00161283
0.000501753
-0.00214992
0.000656672
-0.00265431
0.000798152
-0.00309745
0.000917981
-0.00346564
0.00101334
-0.00375971
0.00108576
-0.00399077
0.0011393
-0.00417472
0.00117888
-0.0043277
0.00120903
-0.00446325
0.00123329
-0.00459139
0.00125416
-0.00471871
0.0012732
-0.00484926
0.00129138
-0.00498532
0.00130921
-0.005128
-0.00527762
2.65659e-05
9.93657e-05
0.00021061
0.000347904
0.000495609
0.000638286
0.000764173
0.00086699
0.00094574
0.00100318
0.00104392
0.0010728
0.00109392
0.00111031
0.00112397
0.00113611
0.00114745
0.00115836
0.00116902
0.00117938
0.0011893
0.00102101
0.00535518
0.00102206
0.00551284
0.00567515
0.00102234
2.71926e-05
0.000170042
0.000101819
0.000587661
0.000215891
0.00108171
0.000356576
0.00162233
0.00050766
0.00216971
0.000653206
0.00268387
0.000781175
0.00313498
0.000885272
0.00350891
0.000964651
0.00380679
0.00102228
0.00404033
0.00106295
0.0042261
0.00109162
0.00438074
0.00111242
0.00451811
0.00112836
0.00464829
0.00114139
0.00477789
0.00115268
0.00491085
0.00116289
0.00504935
0.00117237
0.00519441
0.00118129
0.0011896
0.00119719
2.57839e-05
0.000144258
9.82404e-05
0.000515205
0.000211628
0.000968326
0.000355273
0.00147869
0.000514255
0.00201073
0.000672495
0.00252563
0.000816534
0.00299094
0.000938058
0.00338739
0.00103436
0.00371049
0.00110717
0.00396752
0.00116077
0.00120022
0.00123011
0.00125399
0.0012743
0.00129255
0.00130964
2.41839e-05
0.000120074
9.3757e-05
0.000445631
0.000205133
0.00085695
0.000349942
0.00133388
0.000514973
0.000684546
0.00084416
0.000983548
0.00109793
2.24338e-05
8.84945e-05
0.000196595
0.000270264
-0.0196458
0.00022881
-0.0195838
0.000189373
-0.0195438
0.000149997
-0.019476
0.000111646
-0.0194475
7.35939e-05
-0.0194104
3.73759e-05
-0.0194159
-0.0193818
0.0010327
0.000903387
0.000800956
0.000712799
0.000636187
0.000569809
0.000509913
0.000455445
0.000406736
0.000362768
0.000321865
0.000283052
0.00024631
0.00021173
0.000178729
0.000147808
0.000116812
8.67398e-05
5.69519e-05
2.91568e-05
0.000861888
0.0221081
0.000732341
0.0215478
0.000631299
0.0212806
0.000547503
0.0209748
0.000478164
0.0207605
0.000418798
0.0205456
0.000366794
0.0203565
0.000321981
0.0202022
0.000282642
0.0200751
0.000245944
0.0199198
0.000214337
0.0198394
0.000184335
0.0197199
0.000157968
0.019657
0.000134116
0.0195851
0.000112423
0.0195319
9.15143e-05
0.0194694
7.1249e-05
0.0194216
5.23157e-05
0.0193945
3.50102e-05
0.0193856
1.77793e-05
0.0193632
0.0193411
0.0010306
0.00089302
0.000784093
0.000691515
0.000613468
0.000545266
0.000484645
0.000431239
0.000383275
0.000338152
0.000298101
0.000259761
0.000225041
0.000192722
0.000162532
0.000133222
0.00010468
7.74292e-05
5.16788e-05
2.60434e-05
)
;

boundaryField
{
    inlet
    {
        type            calculated;
        value           nonuniform 0();
    }
    outlet
    {
        type            calculated;
        value           nonuniform 0();
    }
    cylinder
    {
        type            calculated;
        value           uniform 0;
    }
    top
    {
        type            symmetryPlane;
        value           uniform 0;
    }
    bottom
    {
        type            symmetryPlane;
        value           uniform 0;
    }
    defaultFaces
    {
        type            empty;
        value           nonuniform 0();
    }
    procBoundary18to17
    {
        type            processor;
        value           nonuniform List<scalar> 
85
(
-0.000200567
-0.000664902
-0.00119227
-0.00175013
-0.00229763
-0.00279699
-0.00322334
-0.00356846
-0.00383846
-0.00404822
-0.00421546
-0.00435657
-0.00448438
-0.00460778
-0.00473237
-0.0048614
-0.00499665
-0.00513891
-0.00528827
-0.00544416
-0.0056048
-0.00535697
-0.0055139
-0.00567543
-0.000197235
-0.000662287
-0.00119579
-0.00176302
-0.0023208
-0.00282942
-0.00326295
-0.00361301
-0.00388617
-0.00409796
-0.00426677
-0.0044094
-0.00453891
-0.00466424
-0.00479092
-0.00492214
-0.00505956
-0.00101922
-0.00520389
-0.0218407
-0.0212863
-0.0210396
-0.0207838
-0.0205881
-0.0204403
-0.0202865
-0.0201483
-0.0200479
-0.0199562
-0.0198581
-0.0197596
-0.0196751
-0.0196112
-0.0195508
-0.0195129
-0.019445
-0.0194174
-0.0193806
-0.0193881
-0.0193527
-0.0219476
-0.0214182
-0.0211796
-0.020891
-0.0206911
-0.0204863
-0.0203045
-0.0201574
-0.0200358
-0.0198831
-0.0198078
-0.0196899
-0.0196306
-0.0195612
-0.0195102
-0.0194485
-0.0194013
-0.0193755
-0.0193682
-0.0193459
-0.0193233
)
;
    }
    procBoundary18to19
    {
        type            processor;
        value           nonuniform List<scalar> 
91
(
0.000103213
0.000389108
0.000756633
0.00119128
0.00166898
0.000496747
0.0023336
0.00279944
0.00320861
0.00355131
0.00382952
0.00405334
0.00123139
0.00428811
0.00443311
0.00456712
0.00469784
0.00483021
0.00496714
0.00511017
0.00525988
0.00132694
0.0054338
0.00559489
0.00534626
0.00550453
0.00566756
0.0041725
0.00434129
0.00448822
0.00462441
0.00475759
0.0048926
0.00503226
0.00132606
0.005178
0.0018457
0.00235606
0.00283132
0.003248
0.00359611
0.00118743
0.00387801
9.76403e-05
0.000379571
0.00074885
0.000340704
0.00118977
0.0196888
0.0196253
0.0195832
0.0195153
0.0194858
0.0194485
0.0194522
0.0194192
0.0219972
0.0214156
0.021142
0.020872
0.0206647
0.0205067
0.0203464
0.0202028
0.0200966
0.0200002
0.019899
0.0197984
-0.000313338
0.0197118
0.0222746
0.0216853
0.0213895
0.0210674
0.0208385
0.0206138
0.0204171
0.0202556
0.0201231
0.0199649
0.0198794
0.0197582
0.0196917
0.0196174
0.0195621
0.0194987
0.0194501
0.0194217
0.0194113
0.0193888
0.0193671
)
;
    }
}


// ************************************************************************* //
