/*--------------------------------*- C++ -*----------------------------------*\
  =========                 |
  \\      /  F ield         | OpenFOAM: The Open Source CFD Toolbox
   \\    /   O peration     | Website:  https://openfoam.org
    \\  /    A nd           | Version:  7
     \\/     M anipulation  |
\*---------------------------------------------------------------------------*/
FoamFile
{
    version     2.0;
    format      ascii;
    class       volScalarField;
    location    "48";
    object      p;
}
// * * * * * * * * * * * * * * * * * * * * * * * * * * * * * * * * * * * * * //

dimensions      [0 2 -2 0 0 0 0];

internalField   nonuniform List<scalar> 
40000
(
-0.228061
-0.228937
-0.229596
-0.230137
-0.230625
-0.231062
-0.231454
-0.23181
-0.232139
-0.232446
-0.232737
-0.233017
-0.233287
-0.233548
-0.233802
-0.234046
-0.234278
-0.234498
-0.2347
-0.234883
-0.235044
-0.23518
-0.235288
-0.235369
-0.235422
-0.23545
-0.235455
-0.235441
-0.235411
-0.235383
-0.228163
-0.229032
-0.229687
-0.230224
-0.230709
-0.231143
-0.231532
-0.231885
-0.232211
-0.232516
-0.232805
-0.233082
-0.23335
-0.23361
-0.233861
-0.234103
-0.234334
-0.234551
-0.234752
-0.234933
-0.235092
-0.235225
-0.235331
-0.235409
-0.235459
-0.235483
-0.235485
-0.235468
-0.235434
-0.235404
-0.228368
-0.229225
-0.22987
-0.2304
-0.230878
-0.231306
-0.231689
-0.232038
-0.232359
-0.232659
-0.232944
-0.233217
-0.23348
-0.233736
-0.233984
-0.234222
-0.234449
-0.234663
-0.234859
-0.235036
-0.23519
-0.235318
-0.235418
-0.23549
-0.235532
-0.235549
-0.235543
-0.235519
-0.235474
-0.23544
-0.228673
-0.229511
-0.230144
-0.230662
-0.23113
-0.231549
-0.231925
-0.232265
-0.232579
-0.232873
-0.233151
-0.233418
-0.233675
-0.233925
-0.234167
-0.2344
-0.234621
-0.234829
-0.23502
-0.23519
-0.235337
-0.235457
-0.235549
-0.23561
-0.235642
-0.235646
-0.235628
-0.235591
-0.23553
-0.235486
-0.229075
-0.22989
-0.230504
-0.231009
-0.231464
-0.231871
-0.232236
-0.232566
-0.232871
-0.233155
-0.233425
-0.233683
-0.233933
-0.234175
-0.234409
-0.234634
-0.234848
-0.235048
-0.235231
-0.235393
-0.23553
-0.23564
-0.235719
-0.235767
-0.235783
-0.23577
-0.235735
-0.235681
-0.235596
-0.235538
-0.22957
-0.230356
-0.230949
-0.231436
-0.231876
-0.232268
-0.232619
-0.232937
-0.23323
-0.233503
-0.233761
-0.234009
-0.234249
-0.234481
-0.234706
-0.234922
-0.235126
-0.235317
-0.23549
-0.235641
-0.235766
-0.235863
-0.235927
-0.235957
-0.235954
-0.235918
-0.23586
-0.235784
-0.235667
-0.23559
-0.230153
-0.230905
-0.231474
-0.231941
-0.232361
-0.232737
-0.233072
-0.233375
-0.233653
-0.233913
-0.234158
-0.234393
-0.234621
-0.234841
-0.235054
-0.235258
-0.235451
-0.23563
-0.235791
-0.235929
-0.236041
-0.236121
-0.236167
-0.236176
-0.236148
-0.236086
-0.235999
-0.235894
-0.235738
-0.235631
-0.230819
-0.231533
-0.232074
-0.232518
-0.232917
-0.233273
-0.23359
-0.233875
-0.234137
-0.23438
-0.23461
-0.23483
-0.235043
-0.235249
-0.235448
-0.235639
-0.235819
-0.235984
-0.236131
-0.236254
-0.236349
-0.236411
-0.236435
-0.23642
-0.236363
-0.236267
-0.236145
-0.236005
-0.2358
-0.235652
-0.231561
-0.232234
-0.232744
-0.233163
-0.233538
-0.233872
-0.234168
-0.234433
-0.234676
-0.234901
-0.235113
-0.235315
-0.235511
-0.235701
-0.235884
-0.236059
-0.236223
-0.236373
-0.236504
-0.23661
-0.236686
-0.236727
-0.236727
-0.236682
-0.236591
-0.236457
-0.236292
-0.236111
-0.235849
-0.235638
-0.232374
-0.233003
-0.23348
-0.23387
-0.23422
-0.234529
-0.234801
-0.235045
-0.235265
-0.235469
-0.235661
-0.235843
-0.23602
-0.236191
-0.236355
-0.236512
-0.236659
-0.236791
-0.236903
-0.23699
-0.237045
-0.237062
-0.237035
-0.236958
-0.236829
-0.236649
-0.236434
-0.236203
-0.235877
-0.235571
-0.23325
-0.233833
-0.234274
-0.234635
-0.234957
-0.235239
-0.235486
-0.235704
-0.235901
-0.236081
-0.236249
-0.236409
-0.236563
-0.236712
-0.236856
-0.236993
-0.237119
-0.237231
-0.237323
-0.237389
-0.237421
-0.237412
-0.237355
-0.237243
-0.237072
-0.23684
-0.236565
-0.236277
-0.235882
-0.235415
-0.234183
-0.234718
-0.235123
-0.235453
-0.235744
-0.235998
-0.236217
-0.236408
-0.236577
-0.23673
-0.236872
-0.237007
-0.237136
-0.23726
-0.23738
-0.237494
-0.237597
-0.237687
-0.237756
-0.237799
-0.237806
-0.23777
-0.237681
-0.237531
-0.237313
-0.237024
-0.236678
-0.236326
-0.235872
-0.235091
-0.235166
-0.235654
-0.236021
-0.236318
-0.236578
-0.2368
-0.236988
-0.237149
-0.237289
-0.237412
-0.237525
-0.23763
-0.237731
-0.237828
-0.237921
-0.238008
-0.238087
-0.238151
-0.238196
-0.238213
-0.238194
-0.238129
-0.238006
-0.237815
-0.237548
-0.237196
-0.236773
-0.236348
-0.235856
-0.234565
-0.236195
-0.236634
-0.236963
-0.237226
-0.237452
-0.237642
-0.237797
-0.237925
-0.238032
-0.238122
-0.238202
-0.238275
-0.238344
-0.238409
-0.238472
-0.23853
-0.23858
-0.238617
-0.238635
-0.238625
-0.238578
-0.238481
-0.238323
-0.238091
-0.237771
-0.237354
-0.236846
-0.236319
-0.235681
-0.234372
-0.237263
-0.237654
-0.237945
-0.238174
-0.238365
-0.238519
-0.238639
-0.238731
-0.238801
-0.238856
-0.238899
-0.238935
-0.238968
-0.238999
-0.239028
-0.239053
-0.239071
-0.239078
-0.239066
-0.239026
-0.238949
-0.23882
-0.238626
-0.238351
-0.237978
-0.237492
-0.236897
-0.23626
-0.235432
-0.234039
-0.238366
-0.238711
-0.238964
-0.239157
-0.239312
-0.239429
-0.239511
-0.239564
-0.239594
-0.239608
-0.239611
-0.239607
-0.2396
-0.239591
-0.239582
-0.23957
-0.239553
-0.239525
-0.239481
-0.239409
-0.2393
-0.239138
-0.238907
-0.238589
-0.238163
-0.237606
-0.236919
-0.236165
-0.235155
-0.233514
-0.239501
-0.239802
-0.240017
-0.240174
-0.240291
-0.240368
-0.24041
-0.24042
-0.240407
-0.240377
-0.240334
-0.240285
-0.240233
-0.240181
-0.240129
-0.240076
-0.240019
-0.239954
-0.239873
-0.239767
-0.239623
-0.239427
-0.239158
-0.238797
-0.238318
-0.237691
-0.236909
-0.236032
-0.234845
-0.232821
-0.240665
-0.240925
-0.241103
-0.241223
-0.241301
-0.241337
-0.241334
-0.241299
-0.241238
-0.241159
-0.241067
-0.240968
-0.240866
-0.240765
-0.240665
-0.240566
-0.240466
-0.240358
-0.240238
-0.240093
-0.239912
-0.239679
-0.239372
-0.238967
-0.238435
-0.23774
-0.236861
-0.235857
-0.2345
-0.231966
-0.241859
-0.242079
-0.242221
-0.242304
-0.242341
-0.242333
-0.242284
-0.242199
-0.242086
-0.241953
-0.241806
-0.241652
-0.241495
-0.24134
-0.241187
-0.241037
-0.240888
-0.240734
-0.240568
-0.240382
-0.24016
-0.239887
-0.239539
-0.23909
-0.238506
-0.237745
-0.23677
-0.235636
-0.234127
-0.230948
-0.243083
-0.243266
-0.243373
-0.243418
-0.243412
-0.243358
-0.243258
-0.24312
-0.242951
-0.242759
-0.242552
-0.242337
-0.24212
-0.241905
-0.241693
-0.241487
-0.241283
-0.241077
-0.240862
-0.240629
-0.240363
-0.240046
-0.239654
-0.239159
-0.238522
-0.237697
-0.236628
-0.23536
-0.233735
-0.229774
-0.24434
-0.244489
-0.244561
-0.244567
-0.244518
-0.244414
-0.24426
-0.244064
-0.243833
-0.243578
-0.243305
-0.243024
-0.24274
-0.242459
-0.242183
-0.241914
-0.24165
-0.241387
-0.241118
-0.240833
-0.240518
-0.240153
-0.239713
-0.239168
-0.238476
-0.237585
-0.236426
-0.235018
-0.23333
-0.228461
-0.245634
-0.245753
-0.24579
-0.245756
-0.24566
-0.245504
-0.245292
-0.245033
-0.244736
-0.244411
-0.244068
-0.243714
-0.243358
-0.243005
-0.242659
-0.242321
-0.241992
-0.241666
-0.241337
-0.240995
-0.240625
-0.240206
-0.239714
-0.239114
-0.238363
-0.237404
-0.236156
-0.234597
-0.23291
-0.227039
-0.246974
-0.247062
-0.247065
-0.24699
-0.246844
-0.246632
-0.246358
-0.246032
-0.245663
-0.245263
-0.244843
-0.244411
-0.243976
-0.243546
-0.243124
-0.242712
-0.242311
-0.241917
-0.241523
-0.241118
-0.240687
-0.24021
-0.239659
-0.238998
-0.23818
-0.237148
-0.235812
-0.234087
-0.232465
-0.225555
-0.248366
-0.248426
-0.248393
-0.248274
-0.248077
-0.247804
-0.247464
-0.247065
-0.246619
-0.246139
-0.245636
-0.24512
-0.244601
-0.244087
-0.243583
-0.243092
-0.242614
-0.242146
-0.241681
-0.241208
-0.240712
-0.24017
-0.239553
-0.238824
-0.237933
-0.23682
-0.235393
-0.233487
-0.231974
-0.224071
-0.249821
-0.249853
-0.249784
-0.249619
-0.249365
-0.249029
-0.248616
-0.24814
-0.247612
-0.247045
-0.246453
-0.245847
-0.245239
-0.244636
-0.244045
-0.24347
-0.24291
-0.242363
-0.241822
-0.241275
-0.240707
-0.240094
-0.239405
-0.238601
-0.237628
-0.236424
-0.234903
-0.232808
-0.231409
-0.22267
-0.251353
-0.251355
-0.251247
-0.251032
-0.250719
-0.250313
-0.249824
-0.249264
-0.248648
-0.247989
-0.247303
-0.246603
-0.245899
-0.245202
-0.244519
-0.243854
-0.243208
-0.242577
-0.241956
-0.241331
-0.240685
-0.239994
-0.239226
-0.238338
-0.237274
-0.235971
-0.234344
-0.232075
-0.230733
-0.22145
-0.252974
-0.252945
-0.252794
-0.252525
-0.252147
-0.251667
-0.251095
-0.250447
-0.249737
-0.248981
-0.248196
-0.247395
-0.246592
-0.245796
-0.245017
-0.244258
-0.243521
-0.242802
-0.242095
-0.241386
-0.240657
-0.239882
-0.239026
-0.238046
-0.236882
-0.23547
-0.23372
-0.231311
-0.229877
-0.220455
-0.254701
-0.254635
-0.254437
-0.25411
-0.253662
-0.253101
-0.252441
-0.251698
-0.250889
-0.250031
-0.249141
-0.248236
-0.247328
-0.24643
-0.245551
-0.244694
-0.243862
-0.243051
-0.242254
-0.241455
-0.240636
-0.239769
-0.238817
-0.237734
-0.236463
-0.234938
-0.233045
-0.230559
-0.228718
-0.21957
-0.256549
-0.256441
-0.256191
-0.2558
-0.255275
-0.254628
-0.253874
-0.25303
-0.252116
-0.25115
-0.250152
-0.249137
-0.248121
-0.247117
-0.246134
-0.245176
-0.244245
-0.243338
-0.242445
-0.24155
-0.240633
-0.239663
-0.238604
-0.237409
-0.236022
-0.234388
-0.232366
-0.229928
-0.227283
-0.219005
-0.258536
-0.258379
-0.25807
-0.257607
-0.256999
-0.256259
-0.255404
-0.254454
-0.25343
-0.252352
-0.251239
-0.250112
-0.248984
-0.247871
-0.24678
-0.245718
-0.244685
-0.243676
-0.24268
-0.241682
-0.240655
-0.239571
-0.238389
-0.237067
-0.235553
-0.233813
-0.231708
-0.229492
-0.226129
-0.221002
-0.26068
-0.260465
-0.260088
-0.259546
-0.258847
-0.258007
-0.257046
-0.255984
-0.254843
-0.253648
-0.252418
-0.251173
-0.249931
-0.248705
-0.247504
-0.246333
-0.245193
-0.244076
-0.242971
-0.241857
-0.240708
-0.239492
-0.238168
-0.236697
-0.235035
-0.233168
-0.230988
-0.228978
-0.225794
-0.228335
-0.262999
-0.262714
-0.262261
-0.261632
-0.260835
-0.259887
-0.258811
-0.257631
-0.25637
-0.255052
-0.253701
-0.252336
-0.250976
-0.249634
-0.248319
-0.247036
-0.245782
-0.24455
-0.243323
-0.24208
-0.240791
-0.239421
-0.23793
-0.236281
-0.234437
-0.2324
-0.230105
-0.228027
-0.225091
-0.226847
-0.265511
-0.265145
-0.264605
-0.263879
-0.262974
-0.261911
-0.260715
-0.25941
-0.258022
-0.256578
-0.255102
-0.253614
-0.252133
-0.250671
-0.249239
-0.247837
-0.246463
-0.245104
-0.243742
-0.242352
-0.2409
-0.239349
-0.23766
-0.235796
-0.233728
-0.231466
-0.228972
-0.22662
-0.223575
-0.22369
-0.268233
-0.267772
-0.267134
-0.266302
-0.265281
-0.264094
-0.262769
-0.261333
-0.259815
-0.25824
-0.256635
-0.25502
-0.253414
-0.25183
-0.250274
-0.248747
-0.247241
-0.245743
-0.244228
-0.242668
-0.241026
-0.239263
-0.237339
-0.235221
-0.232886
-0.230344
-0.227573
-0.224843
-0.221516
-0.220247
-0.271183
-0.270611
-0.269863
-0.268915
-0.267767
-0.266449
-0.264988
-0.263416
-0.261761
-0.260052
-0.258314
-0.256569
-0.254834
-0.253121
-0.251435
-0.249773
-0.248123
-0.246467
-0.244777
-0.24302
-0.241156
-0.239145
-0.236948
-0.234537
-0.231894
-0.229029
-0.22593
-0.222784
-0.21912
-0.216718
-0.274376
-0.273677
-0.272807
-0.271731
-0.270448
-0.268989
-0.267386
-0.265671
-0.263874
-0.262026
-0.260151
-0.258272
-0.256403
-0.254555
-0.25273
-0.250919
-0.249108
-0.247273
-0.245381
-0.243395
-0.241273
-0.238977
-0.23647
-0.233729
-0.230743
-0.227526
-0.224072
-0.220517
-0.216511
-0.213289
-0.277827
-0.276985
-0.275978
-0.274765
-0.273336
-0.271728
-0.269975
-0.268111
-0.266168
-0.264176
-0.26216
-0.260141
-0.258133
-0.256141
-0.254163
-0.252188
-0.250194
-0.248153
-0.246027
-0.243777
-0.24136
-0.23874
-0.235887
-0.232786
-0.229433
-0.225848
-0.222033
-0.218094
-0.213773
-0.209961
-0.28155
-0.280546
-0.279391
-0.278028
-0.276444
-0.274678
-0.272769
-0.27075
-0.268656
-0.266515
-0.264353
-0.262188
-0.260031
-0.257883
-0.255737
-0.253577
-0.251374
-0.249095
-0.246699
-0.244146
-0.241395
-0.238415
-0.235185
-0.231699
-0.227965
-0.224008
-0.21984
-0.215553
-0.21095
-0.206721
-0.285557
-0.284374
-0.283055
-0.281532
-0.279784
-0.277853
-0.27578
-0.273601
-0.271349
-0.269055
-0.26674
-0.264421
-0.262103
-0.259784
-0.257451
-0.255078
-0.252635
-0.250082
-0.247377
-0.24448
-0.241358
-0.237985
-0.234353
-0.230467
-0.226345
-0.222021
-0.217516
-0.212915
-0.208064
-0.203532
-0.289857
-0.288477
-0.286983
-0.285289
-0.283366
-0.281262
-0.279019
-0.276674
-0.274261
-0.271806
-0.269331
-0.266847
-0.264354
-0.261845
-0.259297
-0.256682
-0.253961
-0.251094
-0.248038
-0.244758
-0.241228
-0.237435
-0.233381
-0.229086
-0.224578
-0.219899
-0.215076
-0.210191
-0.20512
-0.200358
-0.29446
-0.292865
-0.291182
-0.289307
-0.287202
-0.284917
-0.282498
-0.279982
-0.2774
-0.274778
-0.272132
-0.269469
-0.266783
-0.264057
-0.261266
-0.258371
-0.255332
-0.252107
-0.248658
-0.244956
-0.240987
-0.236751
-0.232264
-0.227558
-0.222671
-0.217651
-0.21253
-0.207387
-0.202116
-0.197168
-0.299371
-0.297544
-0.29566
-0.293595
-0.291299
-0.288828
-0.286227
-0.283533
-0.280775
-0.277976
-0.275147
-0.272287
-0.269384
-0.266413
-0.26334
-0.260124
-0.256722
-0.253094
-0.24921
-0.245052
-0.240617
-0.235922
-0.230997
-0.225883
-0.220628
-0.215283
-0.209883
-0.204501
-0.199047
-0.193934
-0.304593
-0.302519
-0.300422
-0.298157
-0.295665
-0.293
-0.290212
-0.287333
-0.284392
-0.281404
-0.278375
-0.275296
-0.272147
-0.268894
-0.265498
-0.261914
-0.258102
-0.254027
-0.249668
-0.245022
-0.240103
-0.23494
-0.229576
-0.224063
-0.218453
-0.212798
-0.207136
-0.20153
-0.195903
-0.190638
-0.310129
-0.30779
-0.305469
-0.302999
-0.300303
-0.29744
-0.294458
-0.291388
-0.288253
-0.285062
-0.281812
-0.278486
-0.275055
-0.271478
-0.267712
-0.263712
-0.259441
-0.254875
-0.250007
-0.244849
-0.23943
-0.233795
-0.227999
-0.222098
-0.216147
-0.210198
-0.204287
-0.198469
-0.192677
-0.187262
-0.315973
-0.313356
-0.310803
-0.30812
-0.305216
-0.302149
-0.298968
-0.295698
-0.292356
-0.288943
-0.285446
-0.28184
-0.278086
-0.274138
-0.269951
-0.265483
-0.260706
-0.255609
-0.250201
-0.244512
-0.238587
-0.232483
-0.226262
-0.219985
-0.213708
-0.207479
-0.201331
-0.19531
-0.189359
-0.183795
-0.32212
-0.319211
-0.316418
-0.313518
-0.310401
-0.307126
-0.303738
-0.300258
-0.296692
-0.293034
-0.28926
-0.285334
-0.28121
-0.27684
-0.272178
-0.267191
-0.261863
-0.256199
-0.250228
-0.243995
-0.237562
-0.230994
-0.224361
-0.217723
-0.211133
-0.204636
-0.198261
-0.192045
-0.185939
-0.180226
-0.328557
-0.325345
-0.322306
-0.319185
-0.315851
-0.312364
-0.308762
-0.305058
-0.301249
-0.297318
-0.293229
-0.288938
-0.284392
-0.279544
-0.274352
-0.268796
-0.262876
-0.256616
-0.250064
-0.243283
-0.236345
-0.229324
-0.22229
-0.215305
-0.208417
-0.201663
-0.195071
-0.188666
-0.182409
-0.176546
-0.335269
-0.331744
-0.328454
-0.325109
-0.321557
-0.317851
-0.314026
-0.310082
-0.306006
-0.301767
-0.297321
-0.292613
-0.28759
-0.282206
-0.276431
-0.270259
-0.263712
-0.256833
-0.24969
-0.24236
-0.234925
-0.227463
-0.220044
-0.212726
-0.205551
-0.198553
-0.19175
-0.185162
-0.178759
-0.172747
-0.342231
-0.338387
-0.334843
-0.331274
-0.327501
-0.323571
-0.31951
-0.315307
-0.310934
-0.306349
-0.301495
-0.296316
-0.290756
-0.284778
-0.278369
-0.271541
-0.264337
-0.256824
-0.249086
-0.241212
-0.233291
-0.225403
-0.217614
-0.209977
-0.202528
-0.195294
-0.18829
-0.181525
-0.174979
-0.168821
-0.349415
-0.345247
-0.341449
-0.337657
-0.33366
-0.329499
-0.325187
-0.320701
-0.315997
-0.31102
-0.305706
-0.299995
-0.293839
-0.287212
-0.28012
-0.272601
-0.264719
-0.256564
-0.248232
-0.239825
-0.231432
-0.223133
-0.21499
-0.207047
-0.199336
-0.191876
-0.184678
-0.177744
-0.171061
-0.164758
-0.356786
-0.352292
-0.348242
-0.344227
-0.340004
-0.335603
-0.331023
-0.326225
-0.32115
-0.315731
-0.3099
-0.303596
-0.296783
-0.289455
-0.28164
-0.273401
-0.264829
-0.256028
-0.247112
-0.238183
-0.229336
-0.220643
-0.21216
-0.203926
-0.195965
-0.188289
-0.180905
-0.173809
-0.166995
-0.160553
-0.364301
-0.359483
-0.355184
-0.350948
-0.346496
-0.341844
-0.336975
-0.331832
-0.326341
-0.320425
-0.314015
-0.307058
-0.299532
-0.291455
-0.282883
-0.273905
-0.264635
-0.255195
-0.245705
-0.236273
-0.226989
-0.217919
-0.209113
-0.200601
-0.192401
-0.18452
-0.176959
-0.16971
-0.162771
-0.156196
-0.371909
-0.366772
-0.36223
-0.357776
-0.353091
-0.348174
-0.342991
-0.337465
-0.331508
-0.325039
-0.317988
-0.310317
-0.302025
-0.29316
-0.283805
-0.274077
-0.264111
-0.254042
-0.243995
-0.234079
-0.224376
-0.214948
-0.205834
-0.197059
-0.188633
-0.180558
-0.172829
-0.165437
-0.158381
-0.15168
-0.379554
-0.374106
-0.369327
-0.364658
-0.359735
-0.354538
-0.349012
-0.34306
-0.336586
-0.329502
-0.321749
-0.313308
-0.304205
-0.294518
-0.284363
-0.273883
-0.263228
-0.252546
-0.241963
-0.231583
-0.221483
-0.211714
-0.20231
-0.193286
-0.184647
-0.176389
-0.168504
-0.160979
-0.153815
-0.146997
-0.387171
-0.381423
-0.376418
-0.371536
-0.366369
-0.360872
-0.35497
-0.348548
-0.341499
-0.333741
-0.325227
-0.315964
-0.306012
-0.295481
-0.284518
-0.273289
-0.261962
-0.250687
-0.23959
-0.228769
-0.218293
-0.208204
-0.198526
-0.189269
-0.18043
-0.172002
-0.163973
-0.156326
-0.149063
-0.14214
-0.394688
-0.388656
-0.383434
-0.378343
-0.372923
-0.367105
-0.36079
-0.353849
-0.34617
-0.337678
-0.328349
-0.318221
-0.307389
-0.295999
-0.28423
-0.272266
-0.260286
-0.248442
-0.236857
-0.22562
-0.21479
-0.2044
-0.194467
-0.184993
-0.17597
-0.167386
-0.159225
-0.15147
-0.144119
-0.137102
-0.402028
-0.395729
-0.390302
-0.385004
-0.379322
-0.373157
-0.366391
-0.358881
-0.350515
-0.341233
-0.331041
-0.320012
-0.308281
-0.296029
-0.283462
-0.270783
-0.258175
-0.245791
-0.233745
-0.222118
-0.210957
-0.200288
-0.190118
-0.180444
-0.171252
-0.162527
-0.154249
-0.1464
-0.138973
-0.131877
-0.409105
-0.40256
-0.396942
-0.391439
-0.385483
-0.378945
-0.371686
-0.363556
-0.354449
-0.344327
-0.333231
-0.321275
-0.308635
-0.295527
-0.28218
-0.268811
-0.255606
-0.242712
-0.230235
-0.218244
-0.206777
-0.195851
-0.185465
-0.175609
-0.166266
-0.157416
-0.149037
-0.141109
-0.133619
-0.126459
-0.41583
-0.409064
-0.403268
-0.397562
-0.391317
-0.384377
-0.376584
-0.367784
-0.357885
-0.34688
-0.334848
-0.321949
-0.308401
-0.294452
-0.280351
-0.266324
-0.252555
-0.239185
-0.226307
-0.213981
-0.202234
-0.191073
-0.180492
-0.170474
-0.160998
-0.152041
-0.143578
-0.135588
-0.128049
-0.120844
-0.42211
-0.415149
-0.40919
-0.40328
-0.396732
-0.38936
-0.380991
-0.371474
-0.360738
-0.348813
-0.335824
-0.321978
-0.307533
-0.292767
-0.277944
-0.263295
-0.249
-0.235188
-0.221944
-0.209312
-0.197311
-0.18594
-0.175186
-0.165027
-0.155438
-0.146393
-0.137863
-0.12983
-0.122258
-0.115027
-0.427846
-0.420719
-0.414612
-0.408497
-0.40163
-0.393796
-0.384811
-0.374534
-0.362923
-0.350052
-0.336095
-0.321308
-0.305987
-0.290435
-0.27493
-0.2597
-0.244919
-0.230703
-0.217126
-0.204219
-0.191993
-0.180438
-0.169533
-0.159255
-0.149575
-0.140462
-0.131885
-0.123826
-0.116238
-0.109003
-0.432938
-0.425676
-0.419436
-0.413116
-0.405913
-0.397586
-0.387948
-0.376873
-0.364358
-0.350524
-0.3356
-0.319889
-0.303723
-0.287426
-0.271282
-0.255516
-0.24029
-0.225711
-0.211836
-0.198687
-0.186264
-0.174551
-0.163523
-0.153149
-0.143399
-0.134238
-0.125636
-0.117571
-0.109984
-0.102767
-0.437286
-0.429921
-0.423563
-0.417036
-0.409481
-0.400633
-0.390308
-0.378405
-0.364964
-0.350163
-0.334284
-0.317677
-0.300705
-0.283709
-0.266975
-0.25072
-0.235096
-0.220194
-0.206058
-0.192701
-0.180112
-0.16827
-0.157142
-0.146698
-0.1369
-0.127714
-0.119107
-0.111057
-0.103491
-0.096314
-0.440788
-0.433354
-0.426894
-0.420157
-0.412233
-0.402839
-0.391799
-0.379045
-0.364669
-0.348907
-0.332097
-0.31463
-0.296901
-0.279258
-0.261986
-0.245294
-0.229318
-0.214135
-0.199778
-0.186246
-0.173524
-0.161581
-0.150383
-0.139892
-0.130072
-0.120883
-0.112293
-0.104278
-0.0967536
-0.0896412
-0.443345
-0.435876
-0.429328
-0.422381
-0.414073
-0.40411
-0.392333
-0.378715
-0.363405
-0.346699
-0.328992
-0.310714
-0.29228
-0.274048
-0.256296
-0.239219
-0.22294
-0.207521
-0.192981
-0.179312
-0.166489
-0.154476
-0.143235
-0.132725
-0.122906
-0.113739
-0.105188
-0.0972299
-0.0897698
-0.0827497
-0.444861
-0.43739
-0.430771
-0.42361
-0.414906
-0.404357
-0.391829
-0.377343
-0.361111
-0.343491
-0.32493
-0.305896
-0.286819
-0.268059
-0.249886
-0.23248
-0.215948
-0.200338
-0.185657
-0.171888
-0.158997
-0.146946
-0.135692
-0.12519
-0.115398
-0.106274
-0.0977841
-0.0899029
-0.0825337
-0.0756364
-0.445242
-0.437804
-0.431128
-0.423753
-0.414643
-0.403496
-0.39021
-0.374864
-0.357732
-0.339238
-0.319878
-0.300149
-0.280496
-0.261274
-0.242741
-0.225064
-0.20833
-0.192576
-0.177796
-0.163965
-0.151043
-0.138986
-0.127748
-0.117282
-0.107543
-0.0984856
-0.0900736
-0.0822848
-0.0750272
-0.0682694
-0.444401
-0.437031
-0.430311
-0.422723
-0.4132
-0.40145
-0.387409
-0.371218
-0.353222
-0.333904
-0.313807
-0.293453
-0.273294
-0.253678
-0.23485
-0.216959
-0.200077
-0.184226
-0.16939
-0.155537
-0.14262
-0.130592
-0.119401
-0.109
-0.0993394
-0.0903718
-0.082056
-0.0743725
-0.0672271
-0.0605623
-0.442257
-0.434987
-0.42824
-0.42044
-0.410502
-0.398149
-0.383365
-0.366357
-0.347541
-0.327459
-0.306694
-0.28579
-0.265199
-0.245261
-0.226204
-0.208158
-0.191181
-0.175282
-0.160435
-0.1466
-0.133726
-0.121761
-0.11065
-0.100343
-0.0907895
-0.0819364
-0.073742
-0.0661918
-0.0591569
-0.0524197
-0.438736
-0.4316
-0.424839
-0.416831
-0.40648
-0.393532
-0.378026
-0.36024
-0.340657
-0.319879
-0.298524
-0.277148
-0.256203
-0.236016
-0.216795
-0.198656
-0.181639
-0.165741
-0.150928
-0.137152
-0.124359
-0.112493
-0.101495
-0.091314
-0.0818948
-0.0731829
-0.0651417
-0.0577676
-0.0508918
-0.0439682
-0.433774
-0.426801
-0.420043
-0.411833
-0.401076
-0.387549
-0.371351
-0.352833
-0.332548
-0.31115
-0.289285
-0.26752
-0.246301
-0.225938
-0.206623
-0.18845
-0.171448
-0.155602
-0.140869
-0.127195
-0.114522
-0.10279
-0.0919394
-0.0819146
-0.072659
-0.0641165
-0.0562586
-0.0490627
-0.0422426
-0.0356572
-0.427313
-0.420535
-0.413793
-0.40539
-0.39424
-0.380157
-0.363306
-0.344113
-0.323198
-0.30126
-0.278972
-0.256905
-0.235493
-0.21503
-0.195687
-0.177543
-0.160612
-0.144867
-0.13026
-0.116731
-0.104217
-0.0926563
-0.0819868
-0.0721506
-0.0630892
-0.054746
-0.0470944
-0.0400874
-0.033405
-0.0271801
-0.419308
-0.412753
-0.406044
-0.397459
-0.385933
-0.371325
-0.353869
-0.334065
-0.312598
-0.290209
-0.267588
-0.245306
-0.223783
-0.203294
-0.183992
-0.165938
-0.149133
-0.133541
-0.119106
-0.105765
-0.0934507
-0.0820989
-0.0716449
-0.062029
-0.0531912
-0.0450757
-0.0376548
-0.0308644
-0.0243754
-0.0184819
-0.409723
-0.403418
-0.396758
-0.388006
-0.376127
-0.361032
-0.343025
-0.322684
-0.30075
-0.278
-0.255138
-0.232729
-0.211178
-0.190739
-0.171545
-0.153643
-0.13702
-0.121631
-0.107416
-0.0943068
-0.082232
-0.0711253
-0.0609213
-0.0515581
-0.0429741
-0.0351136
-0.0279493
-0.021405
-0.0151393
-0.00956221
-0.398532
-0.392503
-0.385909
-0.377007
-0.364805
-0.349266
-0.330773
-0.309972
-0.28766
-0.264644
-0.241635
-0.219189
-0.197692
-0.177377
-0.15836
-0.140669
-0.124283
-0.10915
-0.095201
-0.0823653
-0.0705702
-0.0597462
-0.0498266
-0.040748
-0.0324475
-0.0248695
-0.017988
-0.0117155
-0.00569245
-0.000435154
-0.385723
-0.379993
-0.373481
-0.364451
-0.351958
-0.336028
-0.317117
-0.295941
-0.273344
-0.250159
-0.227098
-0.204703
-0.183341
-0.163225
-0.144449
-0.127031
-0.110939
-0.0961093
-0.082473
-0.0699543
-0.0584785
-0.0479741
-0.0383732
-0.029611
-0.0216232
-0.0143549
-0.00778158
-0.00180368
0.00395961
0.00888593
-0.371293
-0.365884
-0.359473
-0.350338
-0.337593
-0.321328
-0.302073
-0.280609
-0.257825
-0.234568
-0.211549
-0.189293
-0.168147
-0.148301
-0.129834
-0.112748
-0.097001
-0.0825263
-0.0692483
-0.057089
-0.0459719
-0.0358238
-0.0265754
-0.0181608
-0.0105147
-0.00358276
0.00265764
0.00831973
0.0138065
0.0183877
-0.355249
-0.350181
-0.34389
-0.334676
-0.321723
-0.305185
-0.285666
-0.264006
-0.241131
-0.217901
-0.195017
-0.172988
-0.152135
-0.132631
-0.114536
-0.0978399
-0.0824917
-0.0684201
-0.0555455
-0.0437875
-0.0330678
-0.0233118
-0.0144493
-0.0064133
0.000862617
0.00743193
0.0133155
0.0186414
0.0238344
0.0280556
-0.337612
-0.332904
-0.326751
-0.317489
-0.304373
-0.287628
-0.267927
-0.246165
-0.223299
-0.200193
-0.177536
-0.155817
-0.135336
-0.116242
-0.0985809
-0.082331
-0.0674338
-0.0538128
-0.0413856
-0.0300697
-0.0197854
-0.0104569
-0.00201312
0.00561405
0.0124918
0.0186725
0.0241759
0.0291455
0.034027
0.0378739
-0.318412
-0.314081
-0.308086
-0.298807
-0.285579
-0.268697
-0.248897
-0.22713
-0.204374
-0.181487
-0.159144
-0.137818
-0.117781
-0.0991649
-0.0819982
-0.0662495
-0.0518533
-0.0387293
-0.0267923
-0.0159582
-0.00614617
0.00272044
0.0107135
0.0179021
0.0243541
0.0301207
0.0352206
0.0398138
0.0443655
0.0478245
-0.297691
-0.293751
-0.287935
-0.278673
-0.265386
-0.248438
-0.228629
-0.206958
-0.184397
-0.161819
-0.139885
-0.11903
-0.0995103
-0.0814353
-0.0648209
-0.049626
-0.0357793
-0.0231968
-0.0117914
-0.00147748
0.00782657
0.016198
0.0237093
0.0304303
0.0364293
0.0417563
0.0464297
0.0506261
0.0548282
0.0578853
-0.275499
-0.271964
-0.266348
-0.257138
-0.243848
-0.226911
-0.207191
-0.185719
-0.163393
-0.141246
-0.119805
-0.0994992
-0.0805638
-0.0630916
-0.047085
-0.0324944
-0.0192435
-0.00724525
0.0035891
0.013346
0.0221078
0.029952
0.0369515
0.0431766
0.0486961
0.0535582
0.0577819
0.06156
0.0653897
0.0680264
-0.251899
-0.248778
-0.243383
-0.234263
-0.22103
-0.204183
-0.18463
-0.163382
-0.141505
-0.119832
-0.0989578
-0.079273
-0.0609871
-0.0441758
-0.0288296
-0.0148913
-0.00228015
0.00909319
0.0193188
0.0284838
0.0366707
0.0439573
0.0504164
0.0561185
0.0611322
0.0655043
0.0692547
0.0725912
0.0760196
0.0782118
-0.226962
-0.224261
-0.21911
-0.21012
-0.197004
-0.180316
-0.160982
-0.140126
-0.118734
-0.0976305
-0.0773999
-0.058404
-0.0408286
-0.0247329
-0.0100967
0.00314409
0.0150739
0.0257841
0.0353656
0.0439058
0.0514873
0.0581875
0.0640791
0.0692324
0.0737153
0.0775725
0.0808254
0.0836942
0.0866861
0.0884109
-0.200766
-0.19849
-0.193604
-0.184786
-0.171839
-0.155364
-0.136386
-0.115983
-0.0951557
-0.0747057
-0.0551908
-0.0369476
-0.0201398
-0.004811
0.0090689
0.0215699
0.0327796
0.0427909
0.0516952
0.0595801
0.0665278
0.0726151
0.0779142
0.0824948
0.0864231
0.0897409
0.0924722
0.0948472
0.0973652
0.0986004
-0.173384
-0.171552
-0.166951
-0.158339
-0.145609
-0.129455
-0.110895
-0.0910282
-0.0708467
-0.0511251
-0.0323934
-0.0149623
0.00102494
0.0155392
0.0286198
0.0403418
0.0507955
0.060075
0.0682718
0.0754734
0.0817612
0.0872115
0.0918955
0.0958817
0.0992331
0.101988
0.104176
0.106036
0.108039
0.108717
-0.144888
-0.143552
-0.139243
-0.130867
-0.118432
-0.102658
-0.0845941
-0.0653444
-0.0458839
-0.0269601
-0.00907354
0.00749038
0.0226083
0.0362644
0.0485063
0.0594135
0.0690785
0.0775959
0.0850578
0.0915506
0.0971555
0.101947
0.105997
0.109369
0.112123
0.114293
0.115922
0.117251
0.118659
0.118601
-0.115358
-0.114624
-0.110574
-0.102479
-0.0903929
-0.0750676
-0.0575743
-0.0390162
-0.0203471
-0.00228488
0.0146997
0.0303464
0.0445506
0.057309
0.0686764
0.0787364
0.087583
0.0953116
0.102014
0.107775
0.112677
0.116792
0.12019
0.122934
0.125074
0.126645
0.127707
0.128475
0.129111
0.128082
-0.0850381
-0.084767
-0.0810508
-0.0732776
-0.0615919
-0.0467806
-0.0299289
-0.0121319
0.00568109
0.0228235
0.0388547
0.0535391
0.0667899
0.0786152
0.0890763
0.0982602
0.106262
0.113178
0.119099
0.12411
0.128291
0.131714
0.134449
0.136553
0.138071
0.139042
0.139553
0.139715
0.139338
0.137206
-0.0539718
-0.0541328
-0.0507845
-0.0433703
-0.0321346
-0.0178989
-0.00175444
0.0152175
0.0321156
0.0482859
0.0633179
0.0770001
0.0892624
0.100123
0.10965
0.117933
0.125067
0.13115
0.13627
0.140514
0.14396
0.14668
0.148741
0.150198
0.151095
0.151489
0.151484
0.151029
0.149563
0.146528
-0.022245
-0.0228556
-0.0198882
-0.0128665
-0.00212956
0.011473
0.02685
0.0429389
0.0588693
0.074021
0.0880137
0.100659
0.111902
0.121772
0.130341
0.137701
0.143949
0.14918
0.153485
0.156948
0.159646
0.161653
0.163032
0.163839
0.164119
0.163954
0.163452
0.162361
0.159876
0.158123
0.0100177
0.00894785
0.011522
0.0181194
0.0283119
0.0412282
0.055783
0.070937
0.0858531
0.099946
0.112865
0.124444
0.134643
0.1435
0.15109
0.15751
0.162855
0.167221
0.170698
0.173368
0.17531
0.176595
0.177286
0.177438
0.177103
0.176371
0.175324
0.173637
0.170821
0.169751
0.0426898
0.0411579
0.0433266
0.04947
0.059076
0.0712579
0.0849416
0.0991152
0.112977
0.125977
0.137794
0.148282
0.157416
0.165241
0.171839
0.177303
0.181734
0.185224
0.187862
0.189733
0.190911
0.191468
0.191466
0.190961
0.190009
0.188701
0.187086
0.184849
0.181759
0.180638
0.075645
0.0736516
0.0754034
0.0810657
0.0900474
0.101452
0.114222
0.127376
0.14015
0.152029
0.16272
0.172099
0.180153
0.186934
0.192526
0.197026
0.200532
0.203139
0.204933
0.205998
0.206407
0.206232
0.205535
0.204371
0.202799
0.200906
0.198725
0.19598
0.192584
0.191135
0.108756
0.106304
0.107629
0.112786
0.12111
0.1317
0.143519
0.155621
0.16728
0.178017
0.187566
0.195822
0.202784
0.208512
0.213091
0.216621
0.219198
0.220917
0.221863
0.222119
0.221758
0.22085
0.219456
0.217632
0.215437
0.212954
0.210208
0.206955
0.20319
0.201311
0.141895
0.138988
0.139878
0.144509
0.152146
0.161889
0.172728
0.183753
0.194276
0.203855
0.21225
0.219375
0.22524
0.22991
0.233474
0.236031
0.237678
0.238508
0.238606
0.238053
0.236923
0.235282
0.233192
0.230709
0.22789
0.224815
0.221504
0.217739
0.213565
0.211207
0.174934
0.171577
0.172026
0.176113
0.183038
0.19191
0.201745
0.211672
0.221046
0.229458
0.236693
0.242685
0.247451
0.251064
0.253614
0.2552
0.255918
0.255862
0.255115
0.253757
0.251859
0.249489
0.246707
0.243566
0.240126
0.23646
0.232585
0.228303
0.223697
0.220837
0.207744
0.203945
0.203949
0.207476
0.213672
0.221651
0.230465
0.239283
0.2475
0.25474
0.260817
0.265677
0.269349
0.271909
0.273449
0.27407
0.273866
0.27293
0.271344
0.269186
0.266527
0.263434
0.259964
0.256172
0.252114
0.247861
0.243424
0.238623
0.233576
0.2302
0.240197
0.235966
0.235521
0.23848
0.24393
0.251003
0.258785
0.266488
0.273547
0.27962
0.284543
0.288278
0.290865
0.292381
0.292922
0.292586
0.29147
0.289662
0.287246
0.284298
0.280887
0.277079
0.27293
0.268493
0.263824
0.258989
0.253996
0.248681
0.243189
0.23929
0.272169
0.267514
0.266622
0.269004