/*--------------------------------*- C++ -*----------------------------------*\
  =========                 |
  \\      /  F ield         | OpenFOAM: The Open Source CFD Toolbox
   \\    /   O peration     | Website:  https://openfoam.org
    \\  /    A nd           | Version:  7
     \\/     M anipulation  |
\*---------------------------------------------------------------------------*/
FoamFile
{
    version     2.0;
    format      ascii;
    class       volVectorField;
    location    "48";
    object      U;
}
// * * * * * * * * * * * * * * * * * * * * * * * * * * * * * * * * * * * * * //

dimensions      [0 1 -1 0 0 0 0];

internalField   nonuniform List<vector> 
40000
(
(-0.000176971 0.000310373 -1.85589e-21)
(-0.0011107 0.000849705 5.74923e-21)
(-0.00310784 0.00131925 -3.6695e-21)
(-0.00592577 0.00172519 -3.92818e-24)
(-0.0094308 0.00207196 -8.71598e-25)
(-0.0135328 0.00236353 2.87516e-24)
(-0.0181382 0.00260397 -6.10015e-21)
(-0.0231561 0.00279736 1.4505e-21)
(-0.0285018 0.00294779 -4.14109e-21)
(-0.0340969 0.00305935 -1.31037e-21)
(-0.0398686 0.0031361 0)
(-0.0457508 0.00318203 -4.71998e-21)
(-0.051683 0.00320106 0)
(-0.0576109 0.00319699 0)
(-0.0634861 0.00317345 -4.00172e-21)
(-0.0692658 0.0031339 3.78119e-21)
(-0.0749127 0.00308163 -1.78558e-21)
(-0.0803951 0.00301978 -1.51598e-24)
(-0.0856867 0.0029514 1.58653e-21)
(-0.0907668 0.00287949 0)
(-0.0956209 0.00280713 -1.40769e-21)
(-0.100241 0.00273753 -3.97189e-21)
(-0.104628 0.00267414 4.97689e-21)
(-0.10879 0.00262063 -2.33731e-21)
(-0.112744 0.00258084 6.58086e-21)
(-0.116521 0.00255857 4.11552e-21)
(-0.120158 0.00255721 -7.71608e-21)
(-0.123702 0.00257894 7.22921e-21)
(-0.127201 0.00262466 -1.69217e-21)
(-0.130724 0.0026973 -3.17291e-21)
(-0.000206479 0.000886814 0)
(-0.00118679 0.00241639 3.83611e-21)
(-0.00321618 0.00373567 7.35146e-21)
(-0.00605461 0.00486407 -7.0158e-21)
(-0.00956993 0.00581591 -3.36203e-21)
(-0.013673 0.00660391 1.28017e-20)
(-0.0182714 0.00724099 -3.05599e-21)
(-0.023275 0.00774001 -5.81888e-21)
(-0.0286 0.00811353 -8.33523e-24)
(-0.0341685 0.00837388 -1.57462e-20)
(-0.0399086 0.00853303 4.97583e-21)
(-0.0457543 0.00860257 1.88873e-20)
(-0.0516458 0.00859358 -8.9432e-21)
(-0.057529 0.0085166 -4.62961e-24)
(-0.0633556 0.00838157 -4.00906e-21)
(-0.0690831 0.00819786 -1.53578e-24)
(-0.0746742 0.00797433 0)
(-0.0800969 0.00771942 0)
(-0.0853247 0.00744143 1.27035e-20)
(-0.0903365 0.00714869 0)
(-0.0951174 0.0068499 5.63186e-21)
(-0.0996588 0.00655439 -5.2958e-21)
(-0.10396 0.00627235 -6.98079e-25)
(-0.108029 0.00601484 0)
(-0.111883 0.00579359 8.77764e-21)
(-0.11555 0.00562039 -8.2311e-21)
(-0.11907 0.00550591 7.71607e-21)
(-0.122489 0.00545719 -7.2292e-21)
(-0.125854 0.00547778 6.7693e-21)
(-0.129235 0.00557691 -1.90396e-20)
(-0.000264568 0.00145499 -7.43853e-21)
(-0.00133672 0.00396151 -7.66741e-21)
(-0.00343003 0.00612014 0)
(-0.00630944 0.00796301 0)
(-0.00984573 0.00951391 0)
(-0.0139518 0.0107941 6.41632e-21)
(-0.0185372 0.0118249 0)
(-0.0235136 0.0126279 5.81036e-21)
(-0.0287986 0.0132238 1.10499e-20)
(-0.0343157 0.0136329 1.04964e-20)
(-0.0399941 0.0138752 0)
(-0.0457688 0.0139694 6.78737e-24)
(-0.0515807 0.0139338 -1.79042e-20)
(-0.0573764 0.0137856 1.69449e-20)
(-0.0631081 0.0135408 8.00654e-21)
(-0.0687332 0.0132146 7.5707e-21)
(-0.0742147 0.0128214 -7.1407e-21)
(-0.0795202 0.0123746 1.34842e-20)
(-0.0846227 0.0118878 -2.54143e-20)
(-0.0895004 0.0113745 -1.02902e-25)
(-0.0941371 0.0108487 -2.25303e-20)
(-0.0985231 0.010326 2.11972e-20)
(-0.102656 0.00982309 0)
(-0.106542 0.00935863 0)
(-0.110198 0.00895249 8.78388e-21)
(-0.11365 0.00862498 0)
(-0.116938 0.00839473 0)
(-0.120111 0.00827459 0)
(-0.12321 0.00827183 -1.35433e-20)
(-0.126312 0.00840248 1.26925e-20)
(-0.000350319 0.00200977 7.43853e-21)
(-0.00155822 0.00547165 8.00664e-24)
(-0.00374631 0.00845273 3.6884e-23)
(-0.00668672 0.010997 -1.40555e-20)
(-0.0102545 0.0131372 -1.34316e-20)
(-0.0143655 0.0149025 1.69031e-23)
(-0.0189322 0.0163224 -2.44469e-20)
(-0.0238686 0.0174265 1.16435e-20)
(-0.0290946 0.0182434 -2.21417e-20)
(-0.0345357 0.0188014 2.10313e-20)
(-0.0401226 0.0191277 -9.97832e-21)
(-0.045792 0.0192484 1.8919e-20)
(-0.0514856 0.0191886 1.79042e-20)
(-0.0571512 0.0189718 1.58896e-23)
(-0.0627413 0.0186201 -1.60381e-20)
(-0.0682139 0.0181542 0)
(-0.0735317 0.0175938 7.32811e-25)
(-0.0786623 0.0169574 1.3493e-20)
(-0.0835778 0.0162633 9.42875e-25)
(-0.0882551 0.0155298 -7.57208e-24)
(-0.0926767 0.0147764 2.25375e-20)
(-0.0968308 0.0140244 -2.11972e-20)
(-0.100713 0.0132971 0)
(-0.104326 0.0126209 1.87216e-20)
(-0.107685 0.0120241 4.21619e-24)
(-0.110815 0.0115366 -4.9427e-20)
(-0.113756 0.011186 1.5443e-20)
(-0.116561 0.0109927 2.89389e-20)
(-0.119261 0.0109695 1.35432e-20)
(-0.121942 0.0111405 1.26998e-20)
(-0.000462398 0.00254628 2.98684e-20)
(-0.00184801 0.00693402 -1.53906e-20)
(-0.0041605 0.0107144 1.47183e-20)
(-0.00718128 0.0139422 1.40857e-20)
(-0.0107908 0.016658 0)
(-0.0149088 0.0188986 -2.57139e-20)
(-0.0194511 0.0207009 -1.22692e-20)
(-0.0243351 0.022102 -2.33056e-20)
(-0.0294836 0.0231381 1.10713e-20)
(-0.0348244 0.0238448 2.84398e-23)
(-0.0402906 0.0242563 1.99833e-20)
(-0.0458204 0.0244058 1.8965e-20)
(-0.0513573 0.0243248 -3.58619e-20)
(-0.0568499 0.024043 1.69809e-20)
(-0.0622518 0.0235883 -1.84419e-23)
(-0.0675214 0.0229868 0)
(-0.0726214 0.0222629 -1.43058e-20)
(-0.0775189 0.0214399 -2.70184e-20)
(-0.0821851 0.0205406 3.81976e-20)
(-0.0865955 0.019588 1.20036e-20)
(-0.0907304 0.0186063 0)
(-0.0945753 0.0176224 -2.12298e-20)
(-0.0981225 0.0166661 0)
(-0.101372 0.0157715 -5.61852e-20)
(-0.104336 0.0149761 3.51497e-20)
(-0.107036 0.0143201 -4.81906e-24)
(-0.109514 0.0138424 3.09068e-20)
(-0.111823 0.0135729 -4.34082e-20)
(-0.113989 0.0135332 2.71052e-20)
(-0.116106 0.0137575 1.26996e-20)
(-0.000599091 0.00305997 -1.49543e-20)
(-0.00220183 0.00833664 1.539e-20)
(-0.00466682 0.0128872 -1.55557e-24)
(-0.00778645 0.0167757 -4.23825e-20)
(-0.0114476 0.02005 0)
(-0.0155745 0.0227532 2.57138e-20)
(-0.0200871 0.0249292 -2.45824e-20)
(-0.0249068 0.0266218 4.66434e-20)
(-0.0299597 0.0278744 0)
(-0.0351765 0.0287291 -2.10596e-20)
(-0.0404929 0.0292272 -1.99832e-20)
(-0.0458493 0.0294081 -1.89443e-20)
(-0.0511909 0.0293096 -5.39037e-20)
(-0.0564679 0.0289673 2.49485e-24)
(-0.0616348 0.0284144 -1.73735e-23)
(-0.0666505 0.0276822 -1.35909e-23)
(-0.0714778 0.0267996 4.30022e-20)
(-0.0760834 0.0257943 -3.34393e-23)
(-0.0804372 0.024693 3.03023e-23)
(-0.0845132 0.0235229 -2.39775e-20)
(-0.0882889 0.0223126 -1.93123e-23)
(-0.0917468 0.021094 4.24722e-20)
(-0.094875 0.0199032 -5.98958e-20)
(-0.0976697 0.0187818 1.87352e-20)
(-0.100137 0.0177774 0)
(-0.102297 0.0169419 0)
(-0.104192 0.0163274 -3.09065e-20)
(-0.105879 0.0159768 2.89633e-20)
(-0.107371 0.0159251 -2.71009e-20)
(-0.108772 0.0162203 0)
(-0.000758349 0.00354674 -1.5005e-20)
(-0.00261463 0.00966859 0)
(-0.0052583 0.0149546 1.47836e-20)
(-0.00849423 0.0194766 8.49481e-20)
(-0.0122165 0.0232885 -2.70092e-20)
(-0.0163543 0.0264388 0)
(-0.0208322 0.0289776 -5.11424e-23)
(-0.0255761 0.0309548 2.33965e-20)
(-0.0305157 0.03242 -2.22163e-20)
(-0.0355852 0.0334216 0)
(-0.0407232 0.0340072 0)
(-0.0458725 0.0342223 -3.80125e-20)
(-0.0509806 0.0341104 5.39315e-20)
(-0.055999 0.0337127 -1.70097e-20)
(-0.0608836 0.0330675 0)
(-0.0655939 0.0322106 3.04141e-20)
(-0.0700929 0.0311753 -2.86561e-20)
(-0.0743465 0.0299929 2.70711e-20)
(-0.0783238 0.0286939 -5.10011e-20)
(-0.0819965 0.0273089 -7.21017e-20)
(-0.0853392 0.0258703 2.25985e-20)
(-0.0883305 0.0244145 2.12649e-20)
(-0.0909539 0.0229832 1.99612e-20)
(-0.0932 0.0216257 0)
(-0.0950697 0.0203995 -3.52206e-20)
(-0.0965781 0.01937 0)
(-0.0977664 0.0186055 0)
(-0.0986978 0.0181663 -5.79396e-20)
(-0.0993704 0.0181068 -9.58342e-24)
(-0.0998937 0.0184955 -7.62196e-20)
(-0.00093785 0.00400296 1.5005e-20)
(-0.00308062 0.0109202 3.10384e-20)
(-0.00592701 0.0169018 2.97203e-20)
(-0.00929543 0.0220259 -2.83414e-20)
(-0.0130877 0.0263509 0)
(-0.0172382 0.02993 0)
(-0.0216768 0.0328183 2.45969e-20)
(-0.0263337 0.0350713 -2.34458e-20)
(-0.0311429 0.0367439 -3.83708e-23)
(-0.0360423 0.0378905 4.23557e-20)
(-0.0409736 0.0385641 0)
(-0.0458824 0.038816 3.80123e-20)
(-0.0507184 0.0386951 0)
(-0.0554351 0.0382475 0)
(-0.0599895 0.0375164 1.70791e-23)
(-0.0643419 0.0365418 3.04384e-20)
(-0.0684555 0.0353607 -2.87531e-20)
(-0.0722958 0.034008 5.42327e-20)
(-0.0758304 0.0325169 -2.55563e-20)
(-0.0790288 0.0309211 7.21425e-20)
(-0.0818624 0.0292558 0)
(-0.0843054 0.0275611 0)
(-0.0863357 0.0258835 4.00288e-20)
(-0.0879375 0.0242794 0)
(-0.0891045 0.0228168 3.51962e-20)
(-0.0898454 0.0215757 -3.30415e-20)
(-0.0901996 0.0206439 3.09424e-20)
(-0.0902363 0.0201047 -2.89864e-20)
(-0.0899377 0.02004 5.42477e-20)
(-0.0894063 0.020549 7.62551e-20)
(-0.00113506 0.00442558 0)
(-0.0035935 0.012083 -3.10384e-20)
(-0.00666424 0.0187159 8.98772e-23)
(-0.0101799 0.0244066 0)
(-0.0140504 0.0292168 -5.44007e-20)
(-0.0182154 0.0332035 -3.49248e-23)
(-0.02261 0.0364257 2.46691e-20)
(-0.0271692 0.0389436 0)
(-0.0318314 0.040817 2.23014e-20)
(-0.0365383 0.0421054 -4.23556e-20)
(-0.0412349 0.0428668 0)
(-0.0458697 0.0431576 0)
(-0.0503949 0.0430318 -3.61182e-20)
(-0.0547659 0.0425402 3.4146e-20)
(-0.0589413 0.0417302 -3.22641e-20)
(-0.062882 0.0406457 0)
(-0.0665515 0.039327 -2.88365e-20)
(-0.0699147 0.0378118 -8.14397e-20)
(-0.0729378 0.036136 -1.2835e-23)
(-0.0755879 0.034335 -9.32252e-24)
(-0.077833 0.0324464 2.26693e-20)
(-0.0796423 0.0305126 4.26339e-20)
(-0.0809875 0.0285841 -8.00814e-20)
(-0.0818453 0.0267233 3.76215e-20)
(-0.0822007 0.0250083 -7.24693e-24)
(-0.0820538 0.0235347 2.08817e-23)
(-0.0814398 0.0224135 2.26343e-23)
(-0.0804358 0.0217576 2.9007e-20)
(-0.0790063 0.0216867 0)
(-0.0772185 0.0223449 0)
(-0.0013473 0.00481216 3.02959e-20)
(-0.00414655 0.0131503 9.86374e-23)
(-0.0074607 0.0203861 9.78346e-23)
(-0.0111369 0.0266042 -5.71507e-20)
(-0.015093 0.0318686 5.44402e-20)
(-0.0192739 0.0362385 0)
(-0.0236199 0.0397765 0)
(-0.0280711 0.0425463 4.71217e-20)
(-0.0325699 0.044612 -4.47446e-20)
(-0.037062 0.0460374 3.8326e-23)
(-0.0414959 0.0468851 8.06728e-20)
(-0.0458232 0.0472164 3.82255e-20)
(-0.0499984 0.0470894 -7.23626e-20)
(-0.053979 0.0465594 3.42181e-20)
(-0.0577249 0.0456778 3.23687e-20)
(-0.0611981 0.0444917 -3.0553e-20)
(-0.0643622 0.0430446 5.76374e-20)
(-0.0671814 0.0413765 8.16637e-20)
(-0.0696206 0.0395249 5.1322e-20)
(-0.0716443 0.0375267 2.41452e-20)
(-0.0732167 0.0354206 -4.5409e-20)
(-0.0743018 0.0332501 0)
(-0.0748645 0.0310682 3.34062e-23)
(-0.0748728 0.0289421 3.76938e-20)
(-0.0743017 0.0269585 3.52918e-20)
(-0.07314 0.0252295 -6.62287e-20)
(-0.0714156 0.0238916 -3.10028e-20)
(-0.0692154 0.023096 5.80221e-20)
(-0.06649 0.0230106 0)
(-0.0632066 0.0238414 -5.07685e-20)
(-0.00157182 0.0051609 3.03699e-20)
(-0.00473288 0.0141168 -6.25719e-20)
(-0.00830677 0.0219038 2.1931e-23)
(-0.012155 0.0286069 -9.65744e-23)
(-0.016203 0.0342911 0)
(-0.0204009 0.0390172 0)
(-0.0246938 0.0428501 0)
(-0.0290264 0.0458563 -4.72514e-20)
(-0.0333456 0.0481036 4.48677e-20)
(-0.0376008 0.0496594 -4.25601e-20)
(-0.0417439 0.0505906 -8.08032e-20)
(-0.0457294 0.0509624 -2.54668e-23)
(-0.0495144 0.0508373 7.25616e-20)
(-0.0530584 0.0502742 3.43459e-20)
(-0.0563227 0.0493281 0)
(-0.0592701 0.0480493 -6.13152e-20)
(-0.0618642 0.0464839 8.67681e-20)
(-0.0640685 0.0446736 -8.17006e-20)
(-0.0658464 0.0426573 -5.13506e-20)
(-0.0671596 0.0404724 -1.45091e-19)
(-0.0679686 0.0381575 -2.36768e-24)
(-0.0682318 0.0357563 5.81332e-24)
(-0.0679065 0.0333223 3.20272e-23)
(-0.0669515 0.0309252 -7.53395e-20)
(-0.0653303 0.0286591 1.06071e-19)
(-0.0630177 0.0266508 -5.23254e-23)
(-0.0600295 0.0250656 0)
(-0.0564662 0.0241001 -5.80211e-20)
(-0.0522821 0.0239816 5.42543e-20)
(-0.0472081 0.0249968 5.10073e-20)
(-0.00180591 0.00547067 0)
(-0.00534553 0.0149789 -3.14443e-20)
(-0.00919269 0.0232626 3.00409e-20)
(-0.0132226 0.0304056 5.74369e-20)
(-0.0173679 0.0364723 2.74738e-20)
(-0.0215831 0.0415246 -5.22689e-20)
(-0.0258179 0.0456285 -6.17071e-23)
(-0.0300214 0.0488531 -4.73533e-20)
(-0.0341445 0.0512687 0)
(-0.0381402 0.0529463 4.27939e-20)
(-0.0419637 0.0539562 0)
(-0.0455724 0.0543673 0)
(-0.0489258 0.0542457 -7.27066e-20)
(-0.0519851 0.053654 -6.87395e-20)
(-0.054713 0.0526504 9.75598e-20)
(-0.0570728 0.0512879 6.13147e-20)
(-0.0590279 0.0496149 6.89292e-23)
(-0.0605412 0.0476745 -5.45988e-20)
(-0.061574 0.0455065 1.02856e-19)
(-0.0620853 0.0431481 4.13672e-24)
(-0.0620314 0.0406371 9.11547e-20)
(-0.0613648 0.0380157 0)
(-0.0600353 0.035336 0)
(-0.0579913 0.0326679 7.55108e-20)
(-0.0551836 0.0301095 -1.06071e-19)
(-0.051571 0.0278006 9.94106e-20)
(-0.0471506 0.0259356 -6.20511e-20)
(-0.0420384 0.0247606 5.80438e-20)
(-0.0362449 0.0245778 -1.08503e-19)
(-0.0290443 0.0258388 5.10536e-20)
(-0.0020469 0.005741 -3.06864e-20)
(-0.00597773 0.0157348 0)
(-0.0101088 0.0244586 0)
(-0.0143281 0.0319936 -5.77914e-20)
(-0.0185746 0.0384031 1.10225e-19)
(-0.0228065 0.0437484 -5.24501e-20)
(-0.0269776 0.0480968 -9.79239e-23)
(-0.0310408 0.0515188 4.75049e-20)
(-0.0349507 0.054087 0)
(-0.0386637 0.0558751 7.14914e-23)
(-0.0421379 0.0569567 1.86643e-23)
(-0.0453334 0.0574039 -7.70001e-20)
(-0.0482116 0.0572861 -1.47456e-22)
(-0.0507355 0.0566692 -3.4474e-20)
(-0.0528687 0.0556142 -9.77234e-20)
(-0.0545748 0.0541768 6.15217e-20)
(-0.0558167 0.0524073 -5.80271e-20)
(-0.0565561 0.0503501 1.09489e-19)
(-0.056752 0.0480453 -1.0313e-19)
(-0.0563604 0.0455297 -9.70353e-20)
(-0.0553327 0.0428393 3.10353e-23)
(-0.0536157 0.0400136 -4.28903e-20)
(-0.0511508 0.0371015 4.02515e-20)
(-0.047876 0.0341701 5.27433e-23)
(-0.0437283 0.0313177 -1.06285e-19)
(-0.0386482 0.0286928 -6.6346e-20)
(-0.0326088 0.0265156 1.24122e-19)
(-0.0257294 0.0250758 -1.16084e-19)
(-0.0181277 0.0247677 5.4249e-20)
(-0.00859186 0.0265662 7.749e-23)
(-0.00229232 0.00597211 9.22211e-20)
(-0.00662298 0.016384 -3.16441e-20)
(-0.0110458 0.0254901 -6.06381e-20)
(-0.0154601 0.0333674 1.73678e-19)
(-0.0198101 0.0400771 2.07933e-22)
(-0.0240568 0.0456799 0)
(-0.0281574 0.0502431 0)
(-0.0320682 0.0538385 4.76872e-20)
(-0.0357468 0.0565406 -4.52166e-20)
(-0.0391524 0.0584254 4.29749e-20)
(-0.042246 0.0595692 -4.07597e-20)
(-0.0449895 0.0600471 -7.73277e-20)
(-0.0473465 0.0599315 1.46054e-19)
(-0.0492809 0.0592912 -3.45465e-20)
(-0.0507568 0.05819 6.51502e-20)
(-0.0517376 0.0566859 -1.23291e-19)
(-0.0521854 0.054831 -1.06468e-23)
(-0.0520598 0.052671 4.9172e-23)
(-0.0513172 0.0502462 1.03228e-19)
(-0.0499095 0.0475925 -4.29574e-23)
(-0.0477832 0.0447438 0)
(-0.0448786 0.041736 0)
(-0.0411287 0.038613 -4.03908e-20)
(-0.0364602 0.0354362 -1.51232e-19)
(-0.030796 0.0322997 1.0632e-19)
(-0.0240575 0.0293545 -4.13225e-23)
(-0.0161959 0.0268388 -1.24157e-19)
(-0.00731745 0.0250819 1.16001e-19)
(0.00251326 0.024631 -5.42806e-20)
(0.0144375 0.026992 5.05317e-20)
(-0.00253991 0.0061648 0)
(-0.00727524 0.0169278 0)
(-0.0119948 0.0263575 6.09867e-20)
(-0.0166074 0.0345258 -1.16174e-19)
(-0.0210612 0.041491 8.33961e-23)
(-0.0253193 0.0473129 -5.28691e-20)
(-0.0293411 0.0520586 1.51025e-19)
(-0.0330856 0.0558005 -1.43595e-19)
(-0.0365129 0.0586148 -4.00965e-24)
(-0.0395847 0.0605794 -4.31104e-20)
(-0.0422637 0.0617732 -1.22743e-19)
(-0.0445139 0.0622738 1.16024e-19)
(-0.0462998 0.0621566 0)
(-0.0475861 0.061493 0)
(-0.0483367 0.0603493 6.53694e-20)
(-0.0485141 0.0587859 1.2363e-19)
(-0.0480786 0.0568566 -5.82733e-20)
(-0.046987 0.0546084 0)
(-0.0451921 0.0520817 -5.17265e-20)
(-0.042641 0.0493118 1.18115e-23)
(-0.0392743 0.0463302 -4.58356e-20)
(-0.0350249 0.043169 0)
(-0.0298169 0.0398658 -4.04469e-20)
(-0.0235657 0.036474 3.78835e-20)
(-0.0161794 0.0330787 -7.08753e-20)
(-0.00755941 0.0298262 1.99181e-19)
(0.00236495 0.0269628 -8.64426e-23)
(0.0135005 0.0248576 5.80091e-20)
(0.0258849 0.0242273 0)
(0.0406872 0.0269569 -5.09219e-20)
(-0.00278767 0.00632048 -6.2116e-20)
(-0.00792904 0.0173689 6.38572e-20)
(-0.0129474 0.0270635 1.54351e-22)
(-0.0177591 0.0354702 -5.83492e-20)
(-0.0223149 0.0426446 0)
(-0.0265786 0.0486447 -1.06228e-19)
(-0.0305112 0.0535375 8.3028e-23)
(-0.0340732 0.057396 4.78385e-20)
(-0.0372268 0.0602977 3.5998e-24)
(-0.0399352 0.0623224 -1.50348e-24)
(-0.0421626 0.0635511 1.2286e-19)
(-0.0438739 0.064064 3.88193e-20)
(-0.0450344 0.063939 3.68257e-20)
(-0.0456084 0.0632501 -6.94427e-20)
(-0.0455588 0.0620661 6.55978e-20)
(-0.0448464 0.0604497 -6.18467e-20)
(-0.0434285 0.0584564 5.8389e-20)
(-0.0412582 0.0561345 -5.50324e-20)
(-0.038283 0.0535252 0)
(-0.0344442 0.0506632 -4.8843e-20)
(-0.0296751 0.0475784 9.15918e-20)
(-0.0239001 0.0442987 4.31009e-20)
(-0.0170336 0.0408556 -4.04813e-20)
(-0.00897925 0.0372927 1.51618e-19)
(0.000369703 0.0336824 -3.55323e-20)
(0.0111316 0.0301582 6.64461e-20)
(0.0234027 0.0269613 -6.19998e-20)
(0.0371017 0.0244882 8.32449e-23)
(0.052336 0.023612 0)
(0.0705696 0.026671 -1.00485e-19)
(-0.00303396 0.00644103 -1.13315e-22)
(-0.00857956 0.0177112 -6.41552e-20)
(-0.0138959 0.0276124 0)
(-0.0189049 0.0362045 -5.87494e-20)
(-0.023558 0.0435397 5.59217e-20)
(-0.0278188 0.0496751 -9.53149e-23)
(-0.0316487 0.0546771 0)
(-0.0350091 0.0586195 -8.45414e-23)
(-0.037863 0.0615808 -4.56618e-20)
(-0.0401746 0.0636428 4.33924e-20)
(-0.0419087 0.0648886 0)
(-0.0430307 0.0654006 -7.78509e-20)
(-0.0435052 0.0652594 7.38542e-20)
(-0.0432955 0.0645412 0)
(-0.0423626 0.0633174 0)
(-0.0406641 0.0616529 0)
(-0.038153 0.0596052 0)
(-0.034777 0.0572244 5.51178e-20)
(-0.0304771 0.0545526 -5.19129e-20)
(-0.0251867 0.0516249 1.46407e-19)
(-0.0188302 0.0484699 -9.18029e-20)
(-0.0113221 0.0451127 -8.61361e-20)
(-0.00256548 0.0415791 1.21358e-19)
(0.00754833 0.0379028 5.99795e-23)
(0.0191402 0.0341415 -7.10613e-20)
(0.0323473 0.0304082 -6.64443e-20)
(0.0472933 0.0269253 -6.20853e-20)
(0.063908 0.0240896 1.1588e-19)
(0.082322 0.0228915 -1.07937e-19)
(0.104574 0.0263023 2.00618e-19)
(-0.00327744 0.00652876 1.25346e-19)
(-0.00922264 0.0179598 -1.31239e-22)
(-0.0148335 0.0280103 -1.23447e-19)
(-0.0200347 0.0367342 1.17759e-19)
(-0.0247774 0.0441811 -5.62688e-20)
(-0.0290233 0.0504068 -5.34799e-20)
(-0.0327332 0.0554778 5.08803e-20)
(-0.0358684 0.0594686 4.83463e-20)
(-0.0383921 0.0624592 -9.1889e-20)
(-0.0402683 0.064533 -1.30727e-19)
(-0.0414619 0.0657753 -4.12182e-20)
(-0.0419372 0.0662709 1.5616e-19)
(-0.0416576 0.0661026 -2.2144e-19)
(-0.0405841 0.0653493 6.9798e-20)
(-0.0386744 0.0640847 0)
(-0.0358812 0.062376 0)
(-0.0321521 0.0602831 0)
(-0.0274272 0.057858 1.10467e-19)
(-0.021639 0.0551447 -5.19952e-20)
(-0.0147109 0.0521792 -4.89736e-20)
(-0.00655633 0.0489904 -9.19119e-20)
(0.00292229 0.045602 8.63132e-20)
(0.0138345 0.0420357 -4.05208e-20)
(0.0263024 0.0383169 -7.59874e-20)
(0.0404604 0.0344882 -9.86749e-23)
(0.0564613 0.0306386 -1.32817e-19)
(0.074456 0.0269582 1.86227e-19)
(0.0943848 0.0238106 -1.73919e-19)
(0.116337 0.0222373 5.42904e-20)
(0.143267 0.0260188 -4.98791e-20)
(-0.00351715 0.00658629 -6.28263e-20)
(-0.00985479 0.0181204 6.46515e-20)
(-0.0157535 0.0282644 6.18068e-20)
(-0.0211388 0.0370669 -1.77432e-19)
(-0.0259592 0.0445753 5.62652e-20)
(-0.0301738 0.0508449 5.37018e-20)
(-0.0337416 0.0559428 0)
(-0.036623 0.0599444 0)
(-0.0387799 0.0629313 4.59817e-20)
(-0.0401757 0.0649891 8.7204e-20)
(-0.0407738 0.0662051 -1.65578e-19)
(-0.0405369 0.0666666 -8.54399e-23)
(-0.0394256 0.0664588 0)
(-0.0373973 0.065663 0)
(-0.0344046 0.0643554 -6.60139e-20)
(-0.0303941 0.0626058 3.87195e-23)
(-0.0253053 0.0604767 5.87339e-20)
(-0.0190692 0.0580226 -5.52611e-20)
(-0.0116072 0.0552898 -1.04169e-19)
(-0.00283045 0.0523167 9.78505e-20)
(0.0073611 0.0491339 4.5979e-20)
(0.0190793 0.0457655 -1.29641e-19)
(0.0324481 0.0422316 -8.09689e-20)
(0.0476036 0.0385525 7.60933e-20)
(0.0646931 0.0347582 7.1185e-20)
(0.0838808 0.0309135 6.64664e-20)
(0.105341 0.0271683 0)
(0.129025 0.0238211 0)
(0.154885 0.0218617 1.07588e-19)
(0.187222 0.0260395 0)
(-0.00375244 0.00661642 6.34641e-20)
(-0.0104731 0.0181994 -6.51378e-20)
(-0.0166501 0.0283829 1.24627e-19)
(-0.0222071 0.0372112 -2.76249e-22)
(-0.0270889 0.0447306 0)
(-0.0312505 0.0509968 0)
(-0.0346483 0.0560778 0)
(-0.0372403 0.0600509 -4.87003e-20)
(-0.0389866 0.0629995 4.62432e-20)
(-0.0398485 0.0650117 0)
(-0.0397872 0.066177 8.28653e-20)
(-0.038762 0.0665853 7.85569e-20)
(-0.0367297 0.0663242 -7.42572e-20)
(-0.0336422 0.0654778 7.01439e-20)
(-0.0294455 0.0641247 -9.4696e-23)
(-0.0240777 0.0623377 -6.24331e-20)
(-0.0174683 0.0601822 -5.88555e-20)
(-0.00953653 0.0577157 1.66194e-19)
(-0.000190536 0.054988 5.20278e-20)
(0.0106734 0.0520406 -9.80495e-20)
(0.0231712 0.0489073 -4.60126e-20)
(0.0374308 0.0456153 4.32047e-20)
(0.0535923 0.042186 0)
(0.0718058 0.0386383 -7.59703e-20)
(0.0922296 0.0349947 -7.10914e-20)
(0.115034 0.0312998 0)
(0.140406 0.0276627 6.18492e-20)
(0.168319 0.0242973 -1.15849e-19)
(0.198436 0.0219992 -1.61521e-19)
(0.236954 0.0266355 0)
(-0.00398294 0.00662199 -1.27092e-19)
(-0.0110751 0.0182032 6.56204e-20)
(-0.0175173 0.0283743 -1.25102e-19)
(-0.0232293 0.0371767 -2.85381e-22)
(-0.0281507 0.0446568 0)
(-0.0322313 0.0508717 0)
(-0.0354237 0.0558914 5.16053e-20)
(-0.0376826 0.0597955 9.80058e-20)
(-0.0389654 0.0626701 0)
(-0.03923 0.0646059 0)
(-0.0384339 0.0656953 -1.66584e-19)
(-0.0365319 0.0660307 7.88573e-20)
(-0.0334751 0.0657025 -1.3959e-22)
(-0.0292081 0.0647975 0)
(-0.0236681 0.0633975 -3.11165e-23)
(-0.0167828 0.0615781 6.2551e-20)
(-0.00846918 0.0594081 -1.59338e-22)
(0.00136765 0.056949 -2.21864e-19)
(0.0128354 0.0542545 -5.21992e-20)
(0.0260549 0.0513707 9.80473e-20)
(0.0411597 0.0483365 9.20732e-20)
(0.0582955 0.0451838 -8.65293e-23)
(0.0776181 0.0419387 8.10973e-20)
(0.0992908 0.0386229 1.51928e-19)
(0.123479 0.0352573 7.10888e-20)
(0.15035 0.0318736 6.63918e-20)
(0.180091 0.0285474 6.17757e-20)
(0.212711 0.0254104 1.15111e-19)
(0.247381 0.0228861 -7.44921e-22)
(0.29284 0.0281118 4.83633e-20)
(-0.00420849 0.00660577 1.28119e-19)
(-0.0116584 0.0181383 -1.97358e-19)
(-0.0183491 0.0282473 1.25731e-19)
(-0.0241943 0.0369734 1.19973e-19)
(-0.0291269 0.0443644 5.71441e-20)
(-0.0330908 0.0504802 -4.0644e-23)
(-0.0360338 0.055394 -5.15157e-20)
(-0.0379064 0.0591885 -9.80055e-20)
(-0.0386617 0.0619532 2.3675e-22)
(-0.0382533 0.0637819 1.76466e-19)
(-0.0366335 0.0647702 -8.38335e-20)
(-0.033751 0.0650136 1.57991e-19)
(-0.0295492 0.0646055 -1.08712e-22)
(-0.0239634 0.0636359 -1.40862e-19)
(-0.01692 0.0621896 -1.51347e-23)
(-0.00833359 0.060346 0)
(0.00189355 0.0581778 2.94864e-19)
(0.013873 0.0557509 5.54131e-20)
(0.0277303 0.0531241 0)
(0.0436049 0.0503493 4.90393e-20)
(0.0616493 0.0474717 -4.61263e-20)
(0.0820262 0.0445302 1.72913e-19)
(0.104906 0.0415581 -2.4327e-19)
(0.13046 0.0385837 7.60198e-20)
(0.158855 0.0356321 0)
(0.190241 0.0327303 6.62667e-20)
(0.224781 0.0299319 -1.23674e-19)
(0.262551 0.0273211 1.15068e-19)
(0.301971 0.0247408 -1.07e-19)
(0.355019 0.0307772 -9.81001e-20)
(-0.00442902 0.00657032 -1.28634e-19)
(-0.0122209 0.0180107 -3.57812e-22)
(-0.0191389 0.0280103 -6.30256e-20)
(-0.0250892 0.0366111 -6.01343e-20)
(-0.0299973 0.0438643 -1.14994e-19)
(-0.0338 0.0498342 5.46773e-20)
(-0.0364393 0.0545982 7.87816e-23)
(-0.0378606 0.0582432 -9.8597e-20)
(-0.0380117 0.0608629 -1.3994e-19)
(-0.0368404 0.062555 1.48025e-22)
(-0.0342921 0.0634186 8.35804e-20)
(-0.0303075 0.0635529 -1.58203e-19)
(-0.0248204 0.0630548 7.48637e-20)
(-0.0177549 0.0620176 7.06637e-20)
(-0.00902356 0.0605302 -8.64845e-24)
(0.00147397 0.058676 6.27741e-20)
(0.0138527 0.0565322 -1.18039e-19)
(0.0282425 0.0541701 0)
(0.0447885 0.0516545 -1.04543e-19)
(0.0636494 0.0490442 9.82181e-20)
(0.0849953 0.0463921 -9.22058e-20)
(0.109004 0.0437457 -8.64971e-20)
(0.135853 0.0411475 0)
(0.165716 0.0386349 -2.27592e-19)
(0.198747 0.0362413 1.61607e-22)
(0.235065 0.0339959 -3.31242e-19)
(0.274768 0.0319398 1.85635e-19)
(0.318031 0.0301784 -2.2985e-19)
(0.362261 0.0277494 1.06993e-19)
(0.423298 0.0349102 -9.68297e-20)
(-0.00464444 0.00651783 6.44949e-20)
(-0.0127599 0.0178256 6.63225e-20)
(-0.0198791 0.0276708 6.37062e-20)
(-0.0258996 0.0360993 -1.87574e-22)
(-0.0307386 0.0431678 -1.66909e-22)
(-0.0343253 0.0489464 0)
(-0.0365948 0.0535182 0)
(-0.0374866 0.0569756 0)
(-0.0369418 0.0594173 0)
(-0.0349008 0.0609455 0)
(-0.0313007 0.0616639 8.39101e-20)
(-0.0260722 0.0616757 -7.93393e-20)
(-0.019137 0.0610817 7.50676e-20)
(-0.0104057 0.0599797 7.17114e-24)
(0.000224831 0.0584628 -6.66274e-20)
(0.0128726 0.0566191 1.61773e-23)
(0.0276714 0.0545316 -1.18334e-19)
(0.044771 0.0522774 1.11296e-19)
(0.0643359 0.0499286 1.04541e-19)
(0.0865427 0.0475517 -9.81029e-20)
(0.111576 0.0452087 1.84508e-19)
(0.139621 0.0429565 0)
(0.170856 0.0408476 -1.61923e-19)
(0.205438 0.0389299 3.19692e-22)
(0.243493 0.0372464 3.80201e-22)
(0.285081 0.035832 5.56253e-22)
(0.330197 0.034717 -6.13553e-20)
(0.37912 0.0341204 1.14782e-19)
(0.428058 0.0320598 1.06528e-19)
(0.497051 0.0407251 5.06013e-20)
(-0.00485448 0.00645 0)
(-0.0132718 0.0175872 6.68781e-20)
(-0.0205602 0.0272353 -6.35281e-20)
(-0.026608 0.0354465 -1.33871e-22)
(-0.0313233 0.0422855 1.1604e-19)
(-0.0346273 0.0478298 -5.52223e-20)
(-0.0364477 0.0521697 0)
(-0.0367166 0.0554042 0)
(-0.0353672 0.0576382 -9.41198e-20)
(-0.0323311 0.0589793 8.92875e-20)
(-0.027535 0.0595365 8.44703e-20)
(-0.0208976 0.0594177 0)
(-0.0123266 0.0587287 7.52822e-20)
(-0.00171634 0.057572 0)
(0.0110539 0.0560459 -1.33482e-19)
(0.0261215 0.0542444 1.88696e-19)
(0.0436401 0.0522567 1.77536e-19)
(0.0637791 0.0501671 -5.56826e-20)
(0.0867206 0.0480556 -1.176e-22)
(0.112655 0.0459975 -1.4743e-19)
(0.141774 0.044064 0)
(0.17426 0.042322 0)
(0.210275 0.040834 8.10053e-20)
(0.24994 0.039657 1.51437e-19)
(0.293323 0.0388426 -1.02989e-22)
(0.340397 0.0384301 1.32269e-19)
(0.391007 0.0384311 1.23214e-19)
(0.445494 0.0392658 0)
(0.498884 0.0377797 -1.06521e-19)
(0.575148 0.0483381 1.45985e-19)
(-0.00505852 0.00636796 6.56651e-20)
(-0.0137521 0.0172985 0)
(-0.021171 0.0267087 1.60221e-22)
(-0.0271939 0.0346602 -6.12982e-20)
(-0.0317197 0.0412275 5.8505e-20)
(-0.0346611 0.0464975 5.54157e-20)
(-0.0359378 0.0505693 -1.10387e-22)
(-0.0354733 0.0535499 5.01266e-20)
(-0.0331917 0.0555513 0)
(-0.0290142 0.0566877 -1.79104e-19)
(-0.0228551 0.057074 2.65595e-22)
(-0.0146188 0.056824 0)
(-0.00419686 0.0560491 7.54856e-20)
(0.00853428 0.0548576 -2.13281e-19)
(0.0237148 0.0533541 6.70354e-20)
(0.0415021 0.0516392 -6.29298e-20)
(0.0620694 0.0498093 -1.18544e-19)
(0.0856035 0.0479568 -1.67284e-19)
(0.1123 0.0461703 0)
(0.142354 0.0445342 0)
(0.175953 0.0431289 9.21849e-20)
(0.21326 0.0420303 8.62746e-20)
(0.254396 0.0413088 -8.10488e-20)
(0.29942 0.0410278 0)
(0.348305 0.0412431 0)
(0.400898 0.0419926 0)
(0.456864 0.0432587 1.22622e-19)
(0.516465 0.0456936 -5.68024e-20)
(0.573943 0.0449755 1.07075e-19)
(0.655904 0.0577403 9.43056e-20)
(-0.00525547 0.00627219 -1.31538e-19)
(-0.0141947 0.0169609 6.77188e-20)
(-0.021697 0.0260945 -6.4864e-20)
(-0.0276325 0.0337465 6.18292e-20)
(-0.0318905 0.040003 -5.85049e-20)
(-0.0343748 0.0449626 5.57067e-20)
(-0.0349964 0.0487348 -5.29985e-20)
(-0.0336696 0.0514358 -1.00131e-19)
(-0.0303077 0.0531858 9.52521e-20)
(-0.0248197 0.0541069 1.79772e-19)
(-0.0171057 0.0543209 8.47859e-20)
(-0.0070539 0.0539483 -8.0289e-20)
(0.00546208 0.0531074 2.19028e-22)
(0.0205853 0.0519131 2.41768e-23)
(0.0384759 0.0504774 6.71839e-20)
(0.0593107 0.0489084 0)
(0.0832799 0.0473108 1.18619e-19)
(0.110583 0.0457857 2.78773e-19)
(0.141418 0.0444302 -5.24505e-20)
(0.175977 0.0433375 0)
(0.214421 0.042596 -1.84353e-19)
(0.256872 0.0422878 -8.63447e-20)
(0.30338 0.0424876 -8.06822e-20)
(0.353904 0.0432594 7.57509e-20)
(0.408284 0.0446564 -7.03799e-20)
(0.466191 0.0467046 6.60063e-20)
(0.527105 0.0493615 -3.40385e-22)
(0.590944 0.053415 1.13359e-19)
(0.652095 0.0536991 -1.05869e-19)
(0.737015 0.0688225 -1.89933e-19)
(-0.00544351 0.00616253 6.65664e-20)
(-0.0145915 0.0165746 6.81414e-20)
(-0.0221212 0.0253945 -2.36024e-22)
(-0.0278947 0.0327094 3.99582e-22)
(-0.0317925 0.0386198 0)
(-0.0337093 0.0432378 -2.40515e-22)
(-0.0335466 0.0466845 -1.60035e-19)
(-0.0312084 0.0490867 0)
(-0.026596 0.0505745 -9.56444e-20)
(-0.0196044 0.0512783 -3.6105e-19)
(-0.0101179 0.0513284 8.53981e-20)
(0.00199306 0.0508532 -8.05736e-20)
(0.0168743 0.0499785 -1.5139e-19)
(0.0346885 0.0488276 1.43065e-19)
(0.0556153 0.0475203 0)
(0.0798476 0.0461735 6.31204e-20)
(0.107588 0.0449006 -1.78485e-19)
(0.139037 0.0438113 -5.5857e-20)
(0.174387 0.0430109 -1.57343e-19)
(0.213802 0.0425995 0)
(0.257397 0.0426703 1.8433e-19)
(0.305217 0.0433072 8.63403e-20)
(0.35721 0.0445824 0)
(0.413192 0.0465525 7.54364e-20)
(0.472826 0.0492582 0)
(0.535562 0.0526993 -6.5393e-20)
(0.600708 0.0568443 -1.82877e-19)
(0.667493 0.0623439 -2.26363e-19)
(0.731842 0.0640774 -1.04802e-19)
(0.815406 0.0814614 -3.43378e-21)
(-0.00561997 0.00603809 -6.65664e-20)
(-0.014932 0.0161382 2.92074e-22)
(-0.0224224 0.0246084 6.55554e-20)
(-0.0279465 0.0315519 -6.22287e-20)
(-0.0313766 0.0370852 -5.93251e-20)
(-0.0325982 0.0413356 1.12491e-19)
(-0.0315028 0.0444375 5.36353e-20)
(-0.0279829 0.0465298 1.01575e-19)
(-0.0219269 0.0477532 9.57036e-20)
(-0.0132141 0.0482483 9.0853e-20)
(-0.00171168 0.0481545 1.71535e-19)
(0.0127289 0.0476094 -3.039e-22)
(0.0302728 0.0467478 0)
(0.0511015 0.0457018 -7.15141e-20)
(0.0754106 0.0446007 -2.16428e-22)
(0.103404 0.0435701 1.30696e-22)
(0.135286 0.0427323 1.78585e-19)
(0.171248 0.0422048 0)
(0.211452 0.0420993 1.04846e-19)
(0.256011 0.0425192 0)
(0.304964 0.0435573 3.66082e-24)
(0.358242 0.0452919 -8.60911e-20)
(0.415646 0.047783 1.6137e-19)
(0.476811 0.0510677 -7.56802e-20)
(0.541185 0.0551626 -1.405e-19)
(0.607968 0.0600237 6.56082e-20)
(0.67632 0.0656863 2.43586e-19)
(0.744533 0.0722725 5.6273e-20)
(0.811473 0.0763733 2.603e-19)
(0.887411 0.0951783 4.96266e-20)
(-0.00578123 0.00589737 6.73045e-20)
(-0.0152031 0.015649 -1.38101e-19)
(-0.0225753 0.0237347 0)
(-0.0277484 0.0302754 0)
(-0.0305872 0.0354052 5.97156e-20)
(-0.0309676 0.0392682 -2.64614e-22)
(-0.028771 0.0420137 -1.07367e-19)
(-0.0238777 0.0437938 -1.01772e-19)
(-0.0161614 0.0447612 3.99837e-22)
(-0.00548541 0.0450676 4.16047e-22)
(0.00830152 0.0448631 -8.57721e-20)
(0.0253666 0.0442954 1.6173e-19)
(0.0458931 0.0435094 -1.52657e-19)