/*--------------------------------*- C++ -*----------------------------------*\
  =========                 |
  \\      /  F ield         | OpenFOAM: The Open Source CFD Toolbox
   \\    /   O peration     | Website:  https://openfoam.org
    \\  /    A nd           | Version:  7
     \\/     M anipulation  |
\*---------------------------------------------------------------------------*/
FoamFile
{
    version     2.0;
    format      ascii;
    class       volScalarField;
    location    "10";
    object      p;
}
// * * * * * * * * * * * * * * * * * * * * * * * * * * * * * * * * * * * * * //

dimensions      [0 2 -2 0 0 0 0];

internalField   nonuniform List<scalar> 
183
(
-0.116537
-0.158901
-0.145712
-0.133888
-0.123297
-0.113531
-0.10452
-0.214344
-0.194075
-0.175984
-0.159828
-0.145382
-0.132458
-0.120919
-0.110617
-0.27502
-0.246739
-0.22144
-0.19891
-0.178874
-0.161056
-0.145197
-0.131065
-0.359405
-0.323289
-0.289056
-0.257716
-0.229565
-0.204511
-0.182295
-0.162613
-0.411629
-0.377654
-0.340805
-0.304246
-0.269933
-0.238762
-0.210934
-0.451687
-0.439535
-0.420436
-0.39214
-0.357225
-0.319816
-0.283117
-0.248987
-0.430042
-0.41839
-0.398849
-0.369724
-0.334161
-0.296515
-0.405131
-0.39404
-0.374185
-0.344463
-0.377038
-0.366564
-0.345888
-0.3464
-0.37742
-0.366935
-0.405383
-0.394283
-0.374455
-0.344774
-0.430165
-0.418506
-0.398996
-0.36992
-0.334399
-0.296774
-0.451681
-0.439526
-0.420462
-0.392219
-0.357355
-0.319976
-0.283285
-0.249148
-0.411595
-0.377677
-0.340868
-0.304329
-0.270019
-0.238839
-0.210992
-0.359375
-0.323288
-0.289066
-0.257723
-0.229561
-0.204487
-0.182247
-0.162538
-0.274961
-0.246673
-0.22136
-0.198812
-0.178752
-0.160907
-0.145021
-0.130864
-0.214197
-0.19391
-0.175796
-0.159614
-0.145143
-0.132192
-0.120625
-0.110289
-0.158633
-0.145425
-0.133577
-0.122957
-0.113171
-0.104151
-0.116156
-0.103716
-0.0937869
-0.0795228
-0.0746684
-0.0663139
-0.0624192
-0.0575659
-0.0531424
-0.0499416
-0.0936561
-0.0868935
-0.0733854
-0.0697924
-0.0621231
-0.0588769
-0.0545568
-0.0503635
-0.047466
-0.0457774
-0.0436874
-0.0407317
-0.0383626
-0.0362767
-0.0351304
-0.0341995
-0.0327387
-0.0310322
-0.0305286
-0.0308104
-0.0295551
-0.0296793
-0.028287
-0.0337485
-0.0330288
-0.0320241
-0.0305329
-0.0304509
-0.0308397
-0.0304199
-0.0295104
-0.093137
-0.0865057
-0.0731646
-0.0700009
-0.062554
-0.0584913
-0.0526805
-0.0489972
-0.0456925
-0.041902
-0.0396134
-0.0372787
-0.0356975
-0.0352706
-0.0343533
-0.0333175
-0.0318773
-0.0316943
-0.031903
-0.0314826
-0.0306948
-0.103227
-0.093412
-0.0793
-0.074779
)
;

boundaryField
{
    inlet
    {
        type            zeroGradient;
    }
    outlet
    {
        type            fixedValue;
        value           nonuniform 0();
    }
    cylinder
    {
        type            zeroGradient;
    }
    top
    {
        type            symmetryPlane;
    }
    bottom
    {
        type            symmetryPlane;
    }
    defaultFaces
    {
        type            empty;
    }
    procBoundary14to13
    {
        type            processor;
        value           nonuniform List<scalar> 
104
(
-0.101039
-0.092189
-0.118503
-0.107318
-0.101039
-0.0973345
-0.145176
-0.129716
-0.118503
-0.115996
-0.186288
-0.164525
-0.145176
-0.145323
-0.218206
-0.186288
-0.190884
-0.259976
-0.218206
-0.226283
-0.308571
-0.259976
-0.271021
-0.346543
-0.308571
-0.316493
-0.346543
-0.336086
-0.336086
-0.311835
-0.312473
-0.336586
-0.336586
-0.346939
-0.346939
-0.316918
-0.308912
-0.308912
-0.271368
-0.260229
-0.260229
-0.22652
-0.218352
-0.218352
-0.191005
-0.186322
-0.186322
-0.16453
-0.145296
-0.145069
-0.145069
-0.129578
-0.115823
-0.118252
-0.118252
-0.107037
-0.0970187
-0.10069
-0.10069
-0.0917973
-0.0832982
-0.0796912
-0.0672335
-0.0647669
-0.0578982
-0.055289
-0.0515393
-0.0475622
-0.044953
-0.043719
-0.0419552
-0.0390769
-0.0367223
-0.0347004
-0.0337216
-0.0329658
-0.0315035
-0.0296925
-0.0292746
-0.0292746
-0.0285518
-0.026999
-0.0322171
-0.031718
-0.0307365
-0.0291683
-0.0291907
-0.0297871
-0.0293656
-0.0283057
-0.0827546
-0.0792748
-0.0670026
-0.0650696
-0.058549
-0.055044
-0.0495944
-0.046239
-0.0432791
-0.0396416
-0.0375228
-0.0353273
-0.0338983
-0.0338983
)
;
    }
    procBoundary14to15
    {
        type            processor;
        value           nonuniform List<scalar> 
98
(
-0.127725
-0.171615
-0.158247
-0.14621
-0.135394
-0.125499
-0.125499
-0.228583
-0.208202
-0.189944
-0.173581
-0.173581
-0.29065
-0.262428
-0.237047
-0.237047
-0.375575
-0.340194
-0.306305
-0.306305
-0.428154
-0.395386
-0.395386
-0.470023
-0.457436
-0.438892
-0.438892
-0.469894
-0.457307
-0.4388
-0.4388
-0.428011
-0.395307
-0.395307
-0.375455
-0.340111
-0.306242
-0.306242
-0.290526
-0.262304
-0.236914
-0.236914
-0.228391
-0.207996
-0.189719
-0.173335
-0.173335
-0.171323
-0.157938
-0.145882
-0.135043
-0.12513
-0.12513
-0.127333
-0.11338
-0.100572
-0.0856913
-0.0793703
-0.070509
-0.0659006
-0.0605672
-0.0558981
-0.0523838
-0.0478258
-0.0478258
-0.0454388
-0.0423987
-0.0399937
-0.0378323
-0.0365302
-0.0354427
-0.0339761
-0.0323521
-0.03177
-0.0319414
-0.0308049
-0.0665518
-0.0619166
-0.0557575
-0.0517381
-0.0481013
-0.0441567
-0.0416867
-0.0392064
-0.0374698
-0.0367846
-0.035688
-0.0346129
-0.0332026
-0.0329227
-0.0329739
-0.0325504
-0.0318607
-0.112909
-0.100204
-0.085462
-0.0665518
-0.079381
)
;
    }
}


// ************************************************************************* //
