/*--------------------------------*- C++ -*----------------------------------*\
  =========                 |
  \\      /  F ield         | OpenFOAM: The Open Source CFD Toolbox
   \\    /   O peration     | Website:  https://openfoam.org
    \\  /    A nd           | Version:  7
     \\/     M anipulation  |
\*---------------------------------------------------------------------------*/
FoamFile
{
    version     2.0;
    format      ascii;
    class       volScalarField;
    location    "40";
    object      p;
}
// * * * * * * * * * * * * * * * * * * * * * * * * * * * * * * * * * * * * * //

dimensions      [0 2 -2 0 0 0 0];

internalField   nonuniform List<scalar> 
8820
(
-0.264889
-0.266319
-0.267206
-0.267864
-0.268421
-0.268895
-0.269308
-0.269674
-0.269998
-0.270279
-0.270509
-0.270682
-0.270788
-0.270824
-0.270789
-0.270686
-0.270534
-0.270364
-0.270164
-0.269855
-0.269928
-0.265273
-0.266672
-0.267542
-0.268187
-0.268734
-0.2692
-0.269608
-0.269972
-0.270297
-0.270582
-0.270819
-0.271001
-0.27112
-0.271171
-0.271151
-0.271067
-0.270934
-0.270785
-0.27061
-0.270331
-0.270445
-0.265851
-0.267204
-0.268044
-0.268668
-0.269196
-0.269648
-0.270044
-0.270399
-0.270719
-0.271001
-0.271238
-0.271423
-0.271546
-0.2716
-0.271583
-0.271497
-0.27136
-0.271203
-0.271023
-0.270734
-0.270855
-0.266613
-0.267903
-0.268705
-0.269299
-0.269801
-0.27023
-0.270608
-0.270948
-0.271256
-0.271529
-0.27176
-0.27194
-0.272059
-0.272106
-0.272078
-0.271974
-0.271808
-0.271614
-0.271393
-0.271053
-0.271136
-0.267548
-0.26876
-0.269513
-0.270069
-0.270537
-0.270937
-0.271289
-0.271607
-0.271897
-0.272156
-0.272375
-0.272545
-0.272651
-0.272683
-0.272632
-0.272492
-0.272274
-0.272013
-0.271713
-0.271277
-0.271264
-0.268639
-0.269761
-0.270457
-0.270967
-0.271394
-0.271756
-0.272075
-0.272366
-0.272632
-0.27287
-0.273072
-0.273226
-0.273315
-0.273324
-0.273239
-0.27305
-0.272758
-0.272398
-0.271981
-0.271401
-0.27121
-0.26987
-0.270892
-0.271522
-0.271978
-0.272356
-0.272674
-0.272953
-0.273209
-0.273444
-0.273657
-0.273837
-0.27397
-0.274038
-0.27402
-0.273894
-0.273644
-0.273261
-0.272771
-0.272197
-0.271424
-0.270921
-0.271225
-0.272137
-0.272694
-0.273089
-0.27341
-0.273676
-0.273908
-0.27412
-0.274319
-0.274501
-0.274654
-0.274763
-0.274806
-0.274758
-0.274589
-0.274271
-0.273783
-0.273136
-0.272368
-0.271366
-0.270296
-0.272684
-0.273481
-0.273959
-0.274286
-0.274542
-0.274746
-0.274922
-0.275084
-0.275238
-0.275381
-0.275503
-0.275585
-0.275601
-0.275522
-0.27531
-0.274924
-0.274326
-0.273507
-0.272519
-0.271284
-0.26938
-0.274231
-0.274911
-0.275303
-0.275555
-0.275737
-0.27587
-0.275979
-0.27608
-0.276181
-0.276278
-0.276361
-0.276411
-0.276399
-0.276289
-0.276036
-0.275587
-0.274882
-0.273891
-0.272627
-0.270931
-0.26885
-0.275851
-0.276412
-0.276716
-0.276885
-0.276982
-0.277034
-0.277064
-0.277093
-0.277128
-0.277169
-0.277205
-0.277215
-0.27717
-0.277029
-0.276738
-0.27623
-0.275427
-0.274269
-0.272722
-0.270529
-0.267923
-0.277533
-0.277978
-0.278188
-0.278265
-0.278268
-0.278225
-0.278163
-0.278105
-0.278061
-0.278033
-0.278009
-0.27797
-0.277884
-0.277706
-0.277376
-0.276813
-0.27592
-0.274601
-0.272782
-0.270104
-0.266614
-0.279269
-0.279602
-0.279714
-0.279692
-0.279588
-0.279435
-0.279266
-0.279104
-0.278965
-0.27885
-0.278751
-0.278648
-0.278508
-0.278283
-0.277906
-0.277287
-0.276306
-0.274832
-0.272749
-0.269633
-0.264951
-0.281057
-0.281284
-0.281296
-0.281163
-0.280939
-0.280661
-0.280366
-0.280082
-0.279827
-0.279607
-0.279414
-0.279229
-0.279018
-0.278729
-0.27829
-0.2776
-0.276525
-0.274893
-0.272547
-0.269087
-0.262941
-0.282905
-0.283031
-0.282936
-0.282682
-0.282324
-0.281902
-0.281463
-0.281036
-0.280646
-0.280299
-0.279991
-0.279702
-0.279398
-0.279023
-0.278499
-0.277717
-0.276528
-0.274727
-0.272094
-0.268436
-0.26064
-0.284826
-0.284855
-0.284647
-0.28426
-0.28375
-0.283168
-0.282563
-0.281974
-0.281426
-0.280931
-0.280486
-0.280071
-0.27965
-0.279163
-0.278528
-0.277626
-0.276295
-0.274308
-0.271348
-0.267651
-0.258192
-0.286841
-0.286775
-0.286446
-0.285911
-0.285234
-0.284472
-0.283682
-0.282909
-0.282184
-0.28152
-0.280916
-0.280353
-0.279792
-0.27917
-0.278397
-0.277343
-0.275839
-0.27365
-0.27033
-0.266715
-0.255845
-0.288982
-0.288816
-0.288356
-0.287659
-0.286795
-0.285834
-0.284841
-0.283866
-0.282944
-0.282093
-0.281312
-0.280582
-0.27986
-0.279079
-0.278142
-0.276909
-0.275203
-0.272793
-0.269122
-0.265587
-0.25385
-0.291288
-0.291013
-0.290407
-0.289529
-0.288461
-0.287284
-0.286069
-0.284875
-0.28374
-0.282686
-0.281713
-0.280799
-0.279898
-0.278937
-0.277813
-0.27638
-0.274455
-0.271805
-0.267857
-0.264165
-0.252219
-0.293804
-0.293403
-0.292632
-0.291555
-0.290265
-0.288853
-0.287402
-0.285974
-0.284614
-0.283344
-0.282165
-0.281051
-0.279953
-0.278792
-0.277458
-0.275807
-0.273666
-0.270794
-0.266782
-0.26252
-0.250995
-0.296581
-0.296027
-0.29507
-0.293774
-0.292242
-0.29058
-0.288878
-0.287205
-0.285609
-0.284113
-0.282715
-0.281385
-0.280068
-0.27868
-0.277108
-0.275216
-0.272861
-0.269832
-0.266089
-0.261309
-0.252346
-0.299671
-0.298931
-0.297762
-0.296224
-0.294432
-0.292504
-0.290539
-0.288612
-0.28677
-0.285037
-0.283406
-0.28184
-0.280275
-0.278622
-0.276768
-0.274589
-0.27198
-0.268801
-0.265346
-0.261027
-0.260524
-0.303128
-0.302161
-0.30075
-0.298946
-0.296875
-0.294667
-0.292429
-0.290237
-0.288141
-0.286157
-0.284272
-0.282441
-0.280588
-0.278617
-0.276417
-0.27388
-0.270938
-0.267541
-0.263965
-0.260133
-0.258556
-0.307005
-0.305763
-0.304076
-0.301982
-0.299612
-0.29711
-0.294587
-0.292122
-0.289758
-0.287506
-0.285339
-0.2832
-0.281002
-0.278642
-0.276015
-0.273029
-0.269648
-0.265869
-0.261926
-0.257776
-0.254739
-0.311352
-0.309779
-0.307781
-0.305371
-0.302683
-0.299873
-0.297054
-0.294303
-0.291654
-0.289105
-0.286615
-0.28411
-0.281493
-0.278658
-0.275508
-0.271976
-0.268051
-0.263756
-0.259281
-0.254565
-0.25042
-0.316213
-0.314251
-0.311904
-0.309153
-0.306127
-0.302994
-0.299866
-0.296811
-0.29385
-0.290965
-0.288093
-0.285147
-0.282021
-0.278612
-0.274843
-0.270674
-0.266122
-0.26123
-0.256161
-0.250847
-0.245819
-0.321627
-0.319214
-0.316482
-0.313363
-0.309981
-0.306508
-0.303054
-0.29967
-0.29636
-0.29308
-0.289751
-0.28627
-0.282531
-0.278448
-0.273971
-0.269093
-0.263862
-0.258342
-0.252685
-0.246815
-0.241207
-0.327625
-0.3247
-0.321546
-0.318036
-0.314278
-0.310448
-0.306643
-0.302894
-0.299179
-0.29543
-0.291546
-0.287422
-0.282963
-0.278109
-0.272849
-0.267217
-0.261288
-0.255147
-0.248932
-0.242584
-0.236515
-0.33423
-0.330734
-0.327125
-0.323202
-0.319049
-0.314839
-0.310651
-0.306485
-0.30229
-0.297972
-0.29342
-0.288535
-0.283248
-0.277541
-0.271447
-0.26504
-0.258419
-0.251683
-0.244954
-0.23819
-0.231758
-0.341457
-0.337334
-0.33324
-0.328884
-0.324316
-0.319698
-0.315079
-0.310425
-0.305652
-0.300646
-0.295298
-0.289531
-0.28332
-0.276698
-0.269743
-0.262563
-0.255273
-0.247978
-0.240777
-0.233646
-0.226886
-0.349308
-0.344507
-0.339905
-0.335099
-0.330093
-0.325026
-0.319912
-0.314676
-0.309202
-0.303371
-0.297092
-0.290331
-0.283118
-0.27554
-0.267718
-0.259784
-0.251859
-0.244041
-0.236405
-0.228943
-0.221878
-0.357771
-0.35225
-0.34712
-0.341849
-0.336375
-0.330807
-0.325112
-0.319172
-0.312855
-0.30605
-0.298708
-0.290854
-0.282582
-0.274032
-0.265357
-0.2567
-0.248176
-0.239869
-0.231831
-0.224062
-0.216704
-0.366816
-0.360543
-0.354872
-0.349119
-0.34314
-0.336998
-0.330609
-0.323823
-0.316503
-0.308572
-0.300046
-0.291023
-0.281662
-0.272145
-0.262643
-0.253299
-0.244212
-0.235449
-0.227036
-0.218981
-0.21134
-0.376394
-0.369347
-0.363128
-0.356874
-0.350337
-0.343526
-0.336309
-0.328511
-0.320018
-0.310819
-0.301009
-0.290767
-0.280309
-0.269846
-0.259554
-0.249562
-0.239949
-0.230759
-0.221996
-0.213671
-0.20576
-0.386431
-0.3786
-0.37183
-0.36505
-0.357887
-0.35029
-0.342082
-0.333093
-0.323263
-0.312669
-0.301502
-0.290017
-0.278476
-0.267103
-0.256063
-0.245463
-0.23536
-0.225771
-0.216682
-0.208103
-0.199938
-0.396826
-0.388217
-0.380896
-0.373554
-0.365678
-0.35715
-0.347774
-0.337411
-0.32609
-0.314001
-0.301434
-0.288711
-0.276118
-0.263879
-0.252137
-0.240971
-0.23041
-0.22045
-0.211062
-0.202248
-0.193848
-0.407449
-0.398082
-0.39021
-0.38226
-0.373561
-0.36394
-0.353205
-0.341292
-0.328353
-0.314701
-0.300721
-0.286785
-0.273188
-0.260133
-0.247737
-0.236046
-0.225064
-0.214763
-0.205103
-0.196074
-0.187464
-0.418141
-0.40805
-0.399626
-0.391007
-0.381355
-0.370462
-0.358179
-0.344561
-0.329905
-0.314657
-0.299282
-0.284179
-0.269635
-0.255822
-0.242821
-0.230649
-0.219281
-0.208672
-0.198772
-0.18955
-0.180762
-0.428714
-0.417945
-0.408966
-0.3996
-0.38885
-0.376498
-0.362491
-0.347039
-0.330608
-0.313766
-0.297039
-0.280833
-0.265407
-0.250896
-0.237344
-0.224735
-0.213022
-0.202141
-0.192034
-0.182649
-0.173718
-0.438951
-0.427565
-0.418019
-0.407816
-0.395809
-0.381817
-0.365931
-0.348556
-0.330332
-0.311932
-0.29392
-0.276685
-0.260451
-0.245307
-0.231258
-0.218261
-0.206245
-0.195133
-0.184858
-0.17534
-0.166311
-0.448608
-0.436675
-0.426549
-0.415405
-0.401978
-0.38618
-0.368295
-0.348951
-0.328954
-0.309063
-0.289851
-0.271676
-0.254711
-0.239002
-0.224516
-0.211182
-0.198911
-0.187611
-0.177211
-0.167597
-0.158518
-0.457425
-0.445023
-0.434294
-0.422096
-0.407095
-0.389348
-0.369388
-0.348075
-0.326366
-0.305076
-0.284766
-0.265746
-0.248135
-0.231933
-0.217072
-0.203458
-0.190982
-0.179543
-0.169061
-0.159393
-0.150319
-0.465121
-0.452336
-0.440976
-0.427611
-0.410895
-0.391096
-0.36903
-0.345792
-0.322466
-0.299894
-0.2786
-0.258838
-0.24067
-0.224051
-0.208883
-0.195047
-0.182422
-0.170896
-0.160381
-0.150703
-0.141696
-0.471411
-0.45833
-0.446307
-0.431668
-0.413121
-0.39121
-0.367058
-0.341983
-0.317165
-0.293445
-0.271294
-0.250899
-0.232268
-0.215314
-0.199908
-0.185914
-0.173197
-0.161639
-0.151143
-0.141509
-0.132632
-0.476006
-0.462717
-0.450001
-0.43399
-0.413532
-0.389497
-0.363329
-0.336544
-0.310387
-0.285669
-0.262794
-0.241882
-0.222887
-0.205681
-0.190112
-0.176026
-0.163276
-0.151738
-0.141311
-0.131782
-0.123103
-0.478623
-0.465216
-0.451776
-0.434319
-0.41191
-0.38579
-0.357722
-0.329389
-0.302066
-0.276511
-0.253055
-0.231748
-0.212491
-0.195123
-0.179469
-0.165357
-0.15263
-0.141158
-0.13084
-0.121466
-0.113035
-0.478993
-0.465554
-0.451368
-0.432416
-0.408062
-0.379948
-0.350138
-0.320449
-0.29215
-0.265931
-0.242041
-0.220463
-0.201052
-0.183616
-0.167958
-0.153893
-0.141249
-0.129888
-0.119707
-0.110489
-0.102258
-0.476868
-0.463479
-0.448537
-0.428073
-0.401828
-0.371859
-0.340504
-0.309672
-0.2806
-0.253896
-0.229724
-0.208006
-0.188554
-0.171147
-0.155572
-0.14163
-0.129136
-0.117952
-0.107966
-0.0988795
-0.0905599
-0.472025
-0.458768
-0.443071
-0.421117
-0.393081
-0.361439
-0.328767
-0.297025
-0.267394
-0.240388
-0.216091
-0.194366
-0.174987
-0.15771
-0.142307
-0.128567
-0.116299
-0.105376
-0.0956881
-0.0868266
-0.0781192
-0.464277
-0.45123
-0.434799
-0.411411
-0.381731
-0.348637
-0.314899
-0.282494
-0.252521
-0.225401
-0.201138
-0.179541
-0.160352
-0.143309
-0.128171
-0.114713
-0.102747
-0.0921628
-0.082769
-0.073989
-0.0660148
-0.453474
-0.440709
-0.423585
-0.39886
-0.367725
-0.333431
-0.298898
-0.266082
-0.23599
-0.208943
-0.184872
-0.163541
-0.144663
-0.127959
-0.113181
-0.100092
-0.088509
-0.07831
-0.0692477
-0.0607525
-0.0535452
-0.439506
-0.427095
-0.409341
-0.383411
-0.351044
-0.315826
-0.280781
-0.247813
-0.217823
-0.191036
-0.167317
-0.146386
-0.127948
-0.111688
-0.0973588
-0.0847232
-0.0735967
-0.0638468
-0.055192
-0.0470972
-0.0405728
-0.42231
-0.410322
-0.39202
-0.36505
-0.331704
-0.295859
-0.26059
-0.227727
-0.198058
-0.171717
-0.148512
-0.128124
-0.110231
-0.0945247
-0.080739
-0.0686388
-0.05804
-0.0488058
-0.0406273
-0.0329858
-0.0271085
-0.401866
-0.390366
-0.371621
-0.343806
-0.309758
-0.273592
-0.238391
-0.205886
-0.176752
-0.151044
-0.128503
-0.108791
-0.0915645
-0.076513
-0.0633634
-0.0518786
-0.0418778
-0.0332226
-0.0255759
-0.0184234
-0.0132057
-0.3782
-0.367253
-0.348188
-0.319745
-0.285293
-0.249117
-0.214266
-0.182366
-0.15398
-0.129075
-0.107352
-0.0884462
-0.0720034
-0.057708
-0.0452834
-0.0344917
-0.0251564
-0.0171378
-0.0100693
-0.00344091
0.00109015
-0.351385
-0.341049
-0.321806
-0.29298
-0.25843
-0.222539
-0.18831
-0.15726
-0.129824
-0.105893
-0.0851339
-0.0671614
-0.0516143
-0.0381732
-0.0265599
-0.0165364
-0.0079313
-0.00060308
0.0058441
0.0119153
0.0157506
-0.321535
-0.311867
-0.292608
-0.263665
-0.229298
-0.193956
-0.160655
-0.130683
-0.104385
-0.0815918
-0.0619351
-0.0450178
-0.0304735
-0.0179812
-0.00726197
0.00192044
0.00973186
0.0163158
0.0220984
0.0275877
0.0307512
-0.288795
-0.279864
-0.260775
-0.231951
-0.197968
-0.163583
-0.131444
-0.102761
-0.0777816
-0.0562766
-0.0378537
-0.0221065
-0.00866615
0.00278795
0.0125343
0.0208056
0.0277608
0.0335472
0.0386248
0.0435103
0.0459987
-0.253339
-0.245248
-0.22649
-0.197885
-0.164785
-0.131578
-0.100834
-0.0736378
-0.0501411
-0.0300649
-0.0129976
0.00147268
0.0137145
0.0240472
0.0327471
0.0400415
0.0460839
0.051032
0.055378
0.0596139
0.0612744
-0.215366
-0.208249
-0.189843
-0.161895
-0.129915
-0.0981292
-0.0689974
-0.0434677
-0.0216033
-0.00308394
0.0125163
0.0256115
0.0365681
0.0457025
0.0532873
0.0595447
0.0646299
0.0687228
0.072326
0.0758175
0.0764224
-0.175098
-0.169129
-0.15119
-0.124212
-0.0935718
-0.0634409
-0.036118
-0.0124155
0.00768249
0.0245304
0.0385635
0.0501951
0.0597875
0.0676526
0.0740576
0.0792213
0.0833119
0.0865389
0.089365
0.0919926
0.0917123
-0.132889
-0.128116
-0.110899
-0.0850575
-0.0559923
-0.0277293
-0.00238944
0.0193447
0.0375588
0.0526348
0.0650131
0.0751033
0.0832616
0.0897931
0.0949572
0.0989706
0.10202
0.104332
0.10627
0.107945
0.107455
-0.0892222
-0.0854149
-0.0691961
-0.0447022
-0.0174278
0.00877984
0.031986
0.0516307
0.0678611
0.08108
0.0917293
0.100212
0.106877
0.112019
0.115889
0.118701
0.120653
0.121952
0.12282
0.123423
0.122744
-0.0442428
-0.0414542
-0.0263787
-0.00343213
0.0218597
0.045852
0.0667983
0.0842539
0.098419
0.109712
0.118572
0.125395
0.130519
0.134228
0.136764
0.138336
0.139147
0.139347
0.138932
0.137956
0.137627
0.00171745
0.00341506
0.0172316
0.0384563
0.0616013
0.0832464
0.101832
0.117021
0.129058
0.138372
0.145399
0.150522
0.154069
0.156315
0.157489
0.157799
0.157432
0.156485
0.154904
0.152961
0.152122
0.048295
0.0488529
0.0613041
0.0806595
0.101523
0.120718
0.136868
0.149734
0.1596
0.1669
0.172063
0.175462
0.177412
0.178174
0.177971
0.177
0.175426
0.173308
0.170615
0.167779
0.166118
0.0951263
0.0945123
0.105505
0.12287
0.141349
0.15802
0.171684
0.182194
0.189865
0.195134
0.19842
0.200083
0.200427
0.199701
0.198117
0.195861
0.19308
0.189815
0.186072
0.182345
0.17976
0.141847
0.140041
0.149499
0.164782
0.180804
0.194905
0.20606
0.214202
0.219673
0.22291
0.22432
0.224252
0.222994
0.220786
0.217828
0.214294
0.210314
0.205921
0.201152
0.196523
0.192999
0.188092
0.185088
0.192954
0.20609
0.219612
0.231127
0.239774
0.245559
0.248845
0.250066
0.249618
0.247836
0.244995
0.241322
0.237007
0.232214
0.227057
0.221565
0.215794
0.210264
0.205795
0.233501
0.229304
0.235541
0.246495
0.257506
0.266446
0.272609
0.276069
0.277204
0.276443
0.274169
0.270703
0.266309
0.261202
0.255559
0.249533
0.243228
0.236668
0.229923
0.223503
0.218096
0.277722
0.272345
0.276939
0.285704
0.294222
0.300626
0.304354
0.30554
0.304576
0.301882
0.297829
0.292725
0.286821
0.280318
0.273386
0.266165
0.258748
0.251157
0.243472
0.236181
0.229849
0.320409
0.31388
0.316838
0.323435
0.329506
0.333437
0.334802
0.333786
0.330792
0.32623
0.32046
0.313776
0.306415
0.298568
0.290395
0.282023
0.273539
0.264961
0.256375
0.248238
0.241002
0.361231
0.353587
0.354937
0.359415
0.363113
0.364659
0.363754
0.360628
0.355689
0.349341
0.341928
0.333733
0.324981
0.315852
0.306494
0.297026
0.287525
0.278009
0.268567
0.259616
0.251506
0.399871
0.39116
0.390953
0.393386
0.394811
0.394085
0.391022
0.385894
0.379113
0.371072
0.362105
0.352481
0.342413
0.332072
0.321595
0.311093
0.300633
0.290235
0.279987
0.270261
0.261314
0.43603
0.426312
0.424616
0.425104
0.42438
0.421515
0.416427
0.409423
0.400916
0.391291
0.38087
0.369909
0.358611
0.347137
0.335616
0.324147
0.312793
0.301574
0.290576
0.280119
0.270381
0.469428
0.458771
0.455676
0.454343
0.451616
0.446765
0.439803
0.431063
0.420961
0.409873
0.398108
0.385913
0.37348
0.360962
0.348477
0.336118
0.323941
0.311967
0.300278
0.289143
0.278667
0.499809
0.488291
0.483903
0.480893
0.476332
0.469667
0.460996
0.450675
0.439122
0.426702
0.413716
0.400399
0.386935
0.373467
0.360107
0.34694
0.334016
0.321359
0.309043
0.297287
0.286134
0.526939
0.514647
0.509088
0.504566
0.498356
0.490067
0.479866
0.468133
0.455283
0.441675
0.427598
0.413279
0.398895
0.384581
0.370441
0.356552
0.342963
0.329698
0.316824
0.30451
0.292748
0.550608
0.537637
0.531046
0.525193
0.517537
0.507827
0.49629
0.483324
0.469343
0.454697
0.439669
0.424477
0.409291
0.394238
0.379418
0.364902
0.350734
0.33694
0.32358
0.310776
0.29848
0.570635
0.557087
0.549615
0.542628
0.533744
0.522828
0.51016
0.49615
0.481211
0.465688
0.449855
0.433925
0.41806
0.402383
0.386988
0.371942
0.357284
0.343045
0.329275
0.316055
0.303303
0.586868
0.57285
0.564658
0.556748
0.546865
0.53497
0.521384
0.506528
0.490813
0.474579
0.458094
0.441565
0.42515
0.408968
0.393108
0.377632
0.362579
0.347979
0.333877
0.320318
0.307197
0.599183
0.584807
0.576066
0.567452
0.556809
0.544172
0.529889
0.514391
0.498087
0.481313
0.464334
0.447352
0.43052
0.413955
0.397743
0.381941
0.366588
0.351715
0.337362
0.323546
0.310143
0.607484
0.592867
0.583755
0.574665
0.563509
0.550371
0.535618
0.519687
0.502987
0.48585
0.468537
0.451249
0.434138
0.417315
0.400865
0.384844
0.36929
0.354234
0.339711
0.325723
0.31213
0.61171
0.596971
0.587669
0.578336
0.56692
0.553526
0.538535
0.522384
0.505481
0.48816
0.470678
0.453235
0.435981
0.419028
0.402457
0.386325
0.370669
0.35552
0.340912
0.326836
0.313149
0.611828
0.597086
0.58778
0.57844
0.567017
0.553616
0.538619
0.522463
0.505555
0.488229
0.470743
0.453297
0.436039
0.419083
0.40251
0.386376
0.370718
0.355568
0.340959
0.326882
0.313194
0.607838
0.593213
0.584086
0.574977
0.5638
0.550642
0.535871
0.519924
0.503208
0.486057
0.468733
0.451434
0.434313
0.417482
0.401024
0.384997
0.369437
0.354376
0.33985
0.325859
0.312266
0.599771
0.585382
0.576617
0.56797
0.557293
0.544622
0.530309
0.514784
0.498454
0.481659
0.464659
0.447659
0.430811
0.414232
0.398007
0.382195
0.366833
0.351952
0.337593
0.323773
0.310368
0.587689
0.573652
0.565426
0.55747
0.547539
0.535599
0.521971
0.507076
0.491326
0.47506
0.458548
0.441994
0.425557
0.409355
0.393477
0.377986
0.362921
0.34831
0.334199
0.320635
0.307511
0.571684
0.558112
0.550596
0.543553
0.534607
0.523633
0.51091
0.496851
0.481868
0.466305
0.450436
0.434474
0.41858
0.402878
0.387461
0.372395
0.357722
0.343469
0.329688
0.31646
0.303706
0.55188
0.538881
0.532237
0.526315
0.518586
0.508804
0.497202
0.484176
0.47014
0.455447
0.440375
0.425144
0.409923
0.39484
0.379993
0.365453
0.351266
0.337456
0.324083
0.311269
0.29897
0.528429
0.516104
0.510484
0.505882
0.499585
0.491213
0.480935
0.469133
0.456219
0.442554
0.428427
0.414062
0.399637
0.385287
0.371115
0.3572
0.343588
0.330304
0.317414
0.305089
0.293324
0.501511
0.489956
0.485498
0.482397
0.477738
0.470978
0.462219
0.451818
0.440193
0.427709
0.414664
0.401295
0.387784
0.374275
0.360879
0.347681
0.334731
0.322052
0.309719
0.29795
0.286795
0.471335
0.460636
0.457464
0.45603
0.453193
0.448236
0.441175
0.432346
0.422163
0.411003
0.399173
0.386919
0.374434
0.361869
0.349344
0.33695
0.324744
0.312746
0.301037
0.289888
0.27941
0.438133
0.428369
0.42659
0.426967
0.426122
0.42314
0.417944
0.410841
0.402245
0.39254
0.382046
0.37102
0.359665
0.34814
0.336574
0.325066
0.31368
0.302434
0.291414
0.280944
0.271204
0.402161
0.393402
0.393104
0.395417
0.396712
0.395858
0.392678
0.387442
0.380563
0.372436
0.36339
0.353694
0.343563
0.333166
0.32264
0.312095
0.3016
0.291173
0.280902
0.27116
0.262212
0.363698
0.356003
0.357258
0.361607
0.365165
0.366575
0.365542
0.3623
0.357256
0.350813
0.343316
0.335044
0.326223
0.317033
0.307621
0.298107
0.288567
0.27902
0.269553
0.260586
0.252476
0.323044
0.316461
0.319318
0.32578
0.331702
0.335487
0.336716
0.335576
0.332469
0.327806
0.321945
0.315178
0.307743
0.299831
0.291599
0.283178
0.274651
0.266039
0.257426
0.249272
0.242038
0.280513
0.27508
0.27957
0.288192
0.296554
0.302803
0.306387
0.307441
0.306357
0.303556
0.299405
0.294213
0.288229
0.281656
0.274662
0.267386
0.259924
0.252296
0.244582
0.237272
0.230944
0.236438
0.232182
0.238311
0.249117
0.259965
0.268743
0.274754
0.278074
0.279083
0.278208
0.27583
0.272271
0.267792
0.262609
0.256899
0.250814
0.24446
0.237859
0.231082
0.224642
0.219241
0.191162
0.188099
0.195854
0.208837
0.222189
0.233535
0.242022
0.247661
0.250815
0.251916
0.251358
0.249476
0.246546
0.242792
0.238405
0.233548
0.228337
0.2228
0.216993
0.211439
0.20698
0.145038
0.143174
0.152518
0.167644
0.18349
0.197415
0.208405
0.216394
0.221726
0.224837
0.226132
0.225959
0.224606
0.222311
0.219275
0.215672
0.211633
0.207189
0.202377
0.19772
0.194207
0.0984271
0.0977538
0.108632
0.125838
0.144136
0.160625
0.174117
0.184468
0.191994
0.197131
0.200296
0.201849
0.202092
0.201274
0.199606
0.197275
0.194427
0.191104
0.18731
0.183547
0.180973
0.0516932
0.0521924
0.0645288
0.0837221
0.104401
0.123409
0.139382
0.152083
0.161798
0.168961
0.173998
0.177281
0.179123
0.179788
0.179494
0.178439
0.176791
0.174605
0.171849
0.16896
0.167309
0.00520124
0.0068413
0.0205429
0.0416043
0.0645616
0.0860157
0.104419
0.119438
0.131319
0.14049
0.147385
0.152386
0.155821
0.157962
0.159038
0.159256
0.158805
0.15778
0.156118
0.154098
0.153253
-0.0406853
-0.0379521
-0.0229912
-0.000208381
0.0248936
0.0486912
0.0694503
0.0867314
0.100736
0.11188
0.120603
0.127299
0.132304
0.135902
0.138332
0.139804
0.14052
0.140629
0.140113
0.139017
0.13864
-0.085603
-0.0818474
-0.0657426
-0.041412
-0.0143288
0.0116813
0.0346964
0.0541623
0.0702272
0.0832931
0.0938004
0.102151
0.108691
0.113715
0.117472
0.120174
0.12202
0.123213
0.123957
0.124396
0.123598
-0.129219
-0.124494
-0.107389
-0.0817099
-0.0528361
-0.0247728
0.000372837
0.0219243
0.0399689
0.0548875
0.0671194
0.0770721
0.0851005
0.0915078
0.0965514
0.100446
0.103379
0.105571
0.107374
0.108869
0.108218
-0.17138
-0.165467
-0.147634
-0.120816
-0.090366
-0.0604361
-0.03331
-0.00979326
0.0101315
0.0268183
0.0407009
0.0521907
0.0616484
0.069384
0.0756625
0.0807007
0.0846656
0.0877651
0.0904497
0.0929026
0.092457
-0.211616
-0.204554
-0.186246
-0.158457
-0.126667
-0.0950824
-0.0661491
-0.0408077
-0.0191195
-0.000764454
0.0146818
0.0276316
0.0384494
0.0474499
0.0549035
0.0610305
0.0659845
0.069944
0.0734022
0.0767243
0.0771771
-0.249566
-0.241526
-0.222868
-0.19441
-0.161501
-0.128495
-0.0979502
-0.0709444
-0.0476261
-0.0277168
-0.0108062
0.00351573
0.0156157
0.0258112
0.0343764
0.0415369
0.0474447
0.0522558
0.0564545
0.0605229
0.0620372
-0.285008
-0.276123
-0.25713
-0.228455
-0.194652
-0.160469
-0.12853
-0.100038
-0.0752384
-0.053902
-0.0356378
-0.0200411
-0.00674488
0.00456965
0.0141791
0.0223142
0.0291327
0.0347803
0.0397101
0.0444294
0.0467707
-0.31774
-0.308116
-0.288947
-0.260148
-0.225962
-0.190815
-0.157714
-0.127933
-0.101816
-0.0791923
-0.0596955
-0.0429301
-0.0285312
-0.0161798
-0.00559876
0.0034464
0.0111202
0.017565
0.0232008
0.0285268
0.0315432
-0.347591
-0.337297
-0.318137
-0.289448
-0.255075
-0.219378
-0.185346
-0.154487
-0.12723
-0.10347
-0.0828709
-0.0650506
-0.0496494
-0.0363497
-0.0248747
-0.0149886
-0.0065207
0.000669238
0.00697175
0.0128839
0.0165748
-0.374413
-0.363505
-0.344518
-0.316206
-0.281924
-0.245939
-0.211281
-0.17957
-0.151364
-0.126629
-0.105065
-0.0863113
-0.070014
-0.0558594
-0.0435725
-0.0329171
-0.0237177
-0.0158354
-0.00890838
-0.00243419
0.0019559
-0.398092
-0.386628
-0.367957
-0.340265
-0.306381
-0.2704
-0.235389
-0.20307
-0.174115
-0.148574
-0.126192
-0.10663
-0.0895483
-0.0746362
-0.0616227
-0.0502722
-0.040405
-0.0318833
-0.0243742
-0.0173706
-0.0122908
-0.418555
-0.406601
-0.388367
-0.361513
-0.328323
-0.292656
-0.257573
-0.224893
-0.1954
-0.169224
-0.146176
-0.125937
-0.108186
-0.0926163
-0.0789642
-0.0669955
-0.0565273
-0.0474229
-0.0393774
-0.0318795
-0.0261368
-0.435776
-0.423397
-0.405705
-0.379883
-0.347662
-0.312617
-0.277751
-0.244962
-0.215144
-0.188519
-0.164954
-0.144169
-0.12587
-0.109745
-0.0955457
-0.0830382
-0.0720382
-0.0624139
-0.0538866
-0.0459299
-0.0395371
-0.449774
-0.437038
-0.419971
-0.395346
-0.364349
-0.330218
-0.295858
-0.263216
-0.233291
-0.206403
-0.182482
-0.161293
-0.142551
-0.125977
-0.111325
-0.0983602
-0.0868994
-0.0768209
-0.0678794
-0.0595158
-0.0524407
-0.460612
-0.447592
-0.431213
-0.407916
-0.378365
-0.345425
-0.311853
-0.279614
-0.249803
-0.222837
-0.198719
-0.17726
-0.158202
-0.141285
-0.126269
-0.11293
-0.10108
-0.090612
-0.0813309
-0.0726724
-0.0648386
-0.4684
-0.455169
-0.439519
-0.417646
-0.389728
-0.35823
-0.325715
-0.294133
-0.264658
-0.2378
-0.213643
-0.192051
-0.172797
-0.155641
-0.140355
-0.126727
-0.114571
-0.103758
-0.0941767
-0.0854183
-0.0768663
-0.473287
-0.459924
-0.445022
-0.424632
-0.398494
-0.368658
-0.337451
-0.30677
-0.277847
-0.251284
-0.227246
-0.205655
-0.186322
-0.16903
-0.153565
-0.13973
-0.127341
-0.116261
-0.106379
-0.0973965
-0.0891937
-0.475462
-0.462046
-0.447898
-0.42901
-0.404752
-0.37676
-0.347087
-0.317539
-0.28938
-0.263295
-0.239532
-0.218074
-0.198777
-0.181448
-0.165894
-0.151928
-0.139382
-0.128118
-0.118033
-0.108911
-0.100776
-0.475146
-0.461762
-0.448355
-0.430953
-0.408629
-0.382619
-0.354676
-0.326475
-0.299282
-0.273854
-0.250516
-0.229321
-0.210169
-0.192902
-0.177343
-0.163323
-0.150685
-0.139302
-0.12907
-0.119782
-0.111438
-0.472587
-0.459321
-0.446633
-0.43067
-0.410286
-0.386348
-0.360292
-0.333628
-0.307592
-0.28299
-0.260225
-0.239417
-0.220519
-0.203405
-0.187923
-0.173919
-0.161249
-0.14979
-0.13944
-0.129988
-0.121389
-0.468053
-0.454995
-0.442998
-0.428399
-0.409914
-0.388087
-0.364036
-0.339068
-0.314361
-0.290747
-0.268696
-0.248395
-0.229852
-0.21298
-0.197652
-0.183732
-0.171086
-0.159597
-0.149169
-0.139603
-0.130796
-0.461829
-0.449067
-0.437729
-0.424398
-0.407734
-0.388007
-0.366027
-0.342884
-0.319656
-0.297178
-0.275975
-0.256296
-0.238206
-0.22166
-0.206559
-0.192787
-0.180222
-0.168756
-0.158299
-0.14868
-0.139733
-0.4542
-0.441823
-0.431114
-0.418944
-0.403985
-0.386297
-0.36641
-0.345178
-0.323554
-0.302347
-0.282116
-0.263168
-0.245624
-0.229482
-0.214678
-0.201116
-0.188691
-0.1773
-0.166867
-0.157246
-0.148224
-0.445456
-0.433547
-0.423439
-0.412318
-0.398925
-0.383173
-0.365347
-0.346071
-0.326146
-0.306325
-0.287179
-0.269064
-0.252153
-0.236493
-0.222051
-0.208758
-0.196525
-0.185263
-0.174899
-0.165322
-0.156284
-0.435871
-0.42451
-0.414982
-0.404798
-0.392816
-0.378861
-0.36302
-0.345699
-0.327532
-0.309188
-0.291228
-0.274041
-0.257848
-0.242739
-0.228722
-0.215752
-0.203762
-0.192674
-0.182424
-0.172931
-0.163932
-0.42571
-0.414966
-0.406003
-0.396654
-0.385923
-0.373597
-0.359623
-0.344211
-0.327823
-0.311023
-0.294334
-0.27816
-0.262761
-0.248272
-0.234736
-0.22214
-0.210438
-0.199568
-0.189472
-0.1801
-0.171188
-0.415213
-0.405146
-0.396739
-0.388134
-0.378497
-0.367621
-0.355361
-0.341769
-0.327142
-0.31192
-0.296568
-0.281483
-0.26695
-0.253142
-0.240142
-0.227967
-0.216595
-0.205981
-0.196077
-0.186855
-0.178072
-0.404597
-0.395254
-0.387399
-0.379462
-0.370774
-0.361164
-0.350442
-0.338544
-0.325619
-0.311978
-0.298005
-0.28407
-0.270467
-0.257401
-0.244987
-0.233276
-0.222272
-0.21195
-0.20227
-0.193224
-0.184606
-0.39405
-0.385465
-0.378161
-0.370831
-0.362964
-0.354443
-0.345072
-0.334712
-0.323393
-0.311301
-0.298724
-0.285984
-0.273367
-0.261096
-0.249318
-0.238112
-0.22751
-0.21751
-0.208084
-0.199236
-0.190812
-0.383731
-0.375923
-0.36917
-0.362402
-0.355247
-0.347654
-0.339446
-0.330451
-0.320611
-0.309999
-0.298806
-0.287286
-0.275701
-0.264275
-0.253177
-0.242516
-0.23235
-0.222699
-0.213552
-0.204921
-0.196714
-0.373769
-0.366742
-0.36054
-0.354299
-0.347771
-0.340964
-0.333742
-0.325933
-0.31742
-0.308189
-0.298337
-0.28804
-0.277516
-0.266978
-0.256605
-0.246527
-0.236827
-0.227552
-0.218707
-0.210308
-0.202336
-0.364263
-0.358009
-0.352355
-0.346616
-0.340646
-0.334508
-0.328116
-0.321314
-0.313966
-0.305993
-0.297408
-0.288311
-0.278862
-0.269244
-0.259634
-0.250176
-0.240975
-0.2321
-0.22358
-0.215427
-0.207701
-0.355288
-0.349783
-0.34467
-0.339414
-0.333953
-0.328391
-0.322693
-0.316737
-0.310387
-0.30353
-0.296114
-0.288167
-0.279784
-0.271107
-0.262294
-0.253492
-0.244822
-0.236372
-0.228198
-0.220304
-0.212835
-0.346892
-0.342105
-0.337518
-0.33273
-0.32774
-0.322684
-0.31757
-0.312319
-0.30681
-0.300919
-0.294554
-0.287681
-0.280332
-0.272599
-0.264607
-0.256494
-0.248387
-0.240391
-0.232585
-0.224965
-0.21776
-0.339104
-0.334991
-0.330914
-0.326577
-0.322029
-0.317427
-0.312813
-0.308148
-0.30334
-0.29827
-0.292826
-0.28693
-0.280559
-0.273751
-0.266591
-0.259194
-0.251683
-0.244168
-0.236758
-0.229433
-0.222498
-0.331935
-0.328446
-0.324853
-0.320953
-0.316825
-0.312637
-0.30846
-0.304289
-0.300061
-0.295678
-0.291022
-0.285992
-0.280523
-0.2746
-0.268264
-0.261597
-0.254709
-0.247708
-0.240725
-0.233723
-0.227077
-0.325381
-0.32246
-0.319323
-0.315839
-0.312112
-0.308311
-0.304526
-0.300778
-0.297035
-0.293221
-0.289228
-0.284947
-0.280284
-0.275184
-0.269643
-0.263705
-0.257458
-0.251
-0.244478
-0.237844
-0.231516
-0.319425
-0.317013
-0.3143
-0.311212
-0.307867
-0.304432
-0.301006
-0.297631
-0.294299
-0.290957
-0.287516
-0.283868
-0.279907
-0.275549
-0.270751
-0.265519
-0.259915
-0.254018
-0.247993
-0.241779
-0.235861
-0.314041
-0.312079
-0.309754
-0.307039
-0.304058
-0.300971
-0.297881
-0.294843
-0.291868
-0.288923
-0.28594
-0.282819
-0.279455
-0.275745
-0.271618
-0.267046
-0.26206
-0.256723
-0.251217
-0.24549
-0.240094
-0.309195
-0.307625
-0.305652
-0.303285
-0.300649
-0.297894
-0.295122
-0.292396
-0.28974
-0.287137
-0.284536
-0.281853
-0.278985
-0.275826
-0.272283
-0.268299
-0.263878
-0.259064
-0.254071
-0.248859
-0.244282
-0.304846
-0.303611
-0.301955
-0.29991
-0.2976
-0.295162
-0.292694
-0.290263
-0.287899