/*--------------------------------*- C++ -*----------------------------------*\
  =========                 |
  \\      /  F ield         | OpenFOAM: The Open Source CFD Toolbox
   \\    /   O peration     | Website:  https://openfoam.org
    \\  /    A nd           | Version:  7
     \\/     M anipulation  |
\*---------------------------------------------------------------------------*/
FoamFile
{
    version     2.0;
    format      ascii;
    class       surfaceScalarField;
    location    "40";
    object      phi;
}
// * * * * * * * * * * * * * * * * * * * * * * * * * * * * * * * * * * * * * //

dimensions      [0 3 -1 0 0 0 0];

internalField   nonuniform List<scalar> 
17388
(
-3.38596e-06
6.44429e-06
-3.05833e-06
-1.22781e-05
1.69004e-05
-8.00828e-06
-2.58125e-05
2.56742e-05
-1.21398e-05
-4.32133e-05
3.29438e-05
-1.5543e-05
-6.37777e-05
3.88815e-05
-1.83171e-05
-8.68689e-05
4.36639e-05
-2.05727e-05
-0.000111907
4.74621e-05
-2.24241e-05
-0.000138358
5.04337e-05
-2.39823e-05
-0.000165727
5.27168e-05
-2.53479e-05
-0.000193548
5.44259e-05
-2.66056e-05
-0.00022138
5.56521e-05
-2.782e-05
-0.000248815
5.64692e-05
-2.90339e-05
-0.000275491
5.69447e-05
-3.02688e-05
-0.000301121
5.71565e-05
-3.15262e-05
-0.000325544
5.7213e-05
-3.27905e-05
-0.000348788
5.72752e-05
-3.40313e-05
-0.000371155
5.75741e-05
-3.52068e-05
-0.000393305
5.84168e-05
-3.62664e-05
-0.000416313
6.01608e-05
-3.7153e-05
-0.000441675
6.31583e-05
-3.77965e-05
6.77573e-05
-3.81059e-05
-0.000471326
-3.30862e-06
9.75291e-06
-1.20108e-05
2.56026e-05
-2.527e-05
3.89334e-05
-4.23317e-05
5.00055e-05
-6.25091e-05
5.9059e-05
-8.51774e-05
6.63322e-05
-0.000109765
7.20498e-05
-0.000135745
7.64136e-05
-0.000162625
7.95965e-05
-0.000189939
8.174e-05
-0.000217245
8.29583e-05
-0.000244126
8.33504e-05
-0.000270203
8.30212e-05
-0.000295159
8.21128e-05
-0.000318789
8.08429e-05
-0.000341061
7.95466e-05
-0.000362201
7.87149e-05
-0.000382795
7.90108e-05
-0.000403861
8.12265e-05
-0.000426885
8.61822e-05
9.47424e-05
-0.00045387
-3.19058e-06
1.29435e-05
-1.15997e-05
3.40117e-05
-2.44304e-05
5.17641e-05
-4.09585e-05
6.65336e-05
-6.05206e-05
7.86211e-05
-8.25096e-05
8.83212e-05
-0.000106367
9.59076e-05
-0.000131576
0.000101622
-0.000157649
0.00010567
-0.000184124
0.000108214
-0.000210552
0.000109386
-0.0002365
0.000109299
-0.000261556
0.000108078
-0.000285351
0.000105908
-0.000307593
0.000103084
-0.00032813
0.000100084
-0.000347044
9.76286e-05
-0.000364762
9.67291e-05
-0.000382181
9.86455e-05
-0.000400748
0.000104749
0.00011657
-0.000422575
-3.03438e-06
1.59779e-05
-1.1053e-05
4.20303e-05
-2.33083e-05
6.40194e-05
-3.91139e-05
8.23392e-05
-5.78358e-05
9.73429e-05
-7.88888e-05
0.000109374
-0.000101732
0.000118751
-0.00012586
0.00012575
-0.000150794
0.000130604
-0.000176074
0.000133494
-0.000201246
0.000134558
-0.000225858
0.00013391
-0.000249456
0.000131676
-0.000271597
0.000128048
-0.000291871
0.000123358
-0.00030996
0.000118173
-0.000325726
0.000113395
-0.000339355
0.000110358
-0.000351532
0.000110823
-0.000363604
0.000116822
0.000130761
-0.000377796
-2.84361e-06
1.88215e-05
-1.03819e-05
4.95686e-05
-2.1924e-05
7.55615e-05
-3.68264e-05
9.72417e-05
-5.44879e-05
0.000115004
-7.43481e-05
0.000129234
-9.58848e-05
0.000140287
-0.000118607
0.000148472
-0.000142046
0.000154044
-0.000165746
0.000157194
-0.000189247
0.00015806
-0.000212078
0.000156742
-0.000233742
0.00015334
-0.000253712
0.000148018
-0.000271445
0.000141092
-0.000286419
0.000133147
-0.000298217
0.000125193
-0.000306689
0.00011883
-0.000312201
0.000116335
-0.00031589
0.00012051
0.000134899
-0.000320027
-2.62291e-06
2.14444e-05
-9.60114e-06
5.65468e-05
-2.03042e-05
8.62646e-05
-3.41337e-05
0.000111071
-5.05218e-05
0.000131392
-6.89332e-05
0.000147646
-8.88644e-05
0.000160218
-0.000109838
0.000169446
-0.000131396
0.000175601
-0.000153085
0.000178883
-0.000174444
0.000179419
-0.000194985
0.000177282
-0.000214169
0.000172524
-0.000231394
0.000165243
-0.000245979
0.000155677
-0.000257184
0.000144353
-0.000264273
0.000132282
-0.000266678
0.000121235
-0.000264322
0.000113979
-0.000257987
0.000114175
0.000126714
-0.000249802
-2.37811e-06
2.38225e-05
-8.72909e-06
6.28978e-05
-1.84828e-05
9.60182e-05
-3.10838e-05
0.000123672
-4.59956e-05
0.000146304
-6.27053e-05
0.000164356
-8.07248e-05
0.000178238
-9.95875e-05
0.000188309
-0.000118841
0.000194855
-0.000138037
0.000198078
-0.000156709
0.000198092
-0.000174356
0.000194929
-0.000190408
0.000188576
-0.000204197
0.000179031
-0.000214923
0.000166402
-0.000221638
0.000151068
-0.000223278
0.000133922
-0.000218805
0.000116762
-0.000207591
0.000102765
-0.000189966
9.65494e-05
0.000104263
-0.000167515
-2.11614e-06
2.59386e-05
-7.78776e-06
6.85694e-05
-1.65001e-05
0.000104731
-2.77353e-05
0.000134907
-4.0982e-05
0.000159551
-5.57434e-05
0.000179117
-7.15401e-05
0.000194035
-8.79095e-05
0.000204678
-0.000104399
0.000211345
-0.000120556
0.000214235
-0.000135906
0.000213442
-0.000149936
0.000208958
-0.000162049
0.000200689
-0.000171528
0.00018851
-0.000177478
0.000172353
-0.00017878
0.00015237
-0.000174071
0.000129213
-0.000161825
0.000104516
-0.000140753
8.16928e-05
-0.000110887
6.66833e-05
6.66985e-05
-7.33222e-05
-1.84503e-06
2.77837e-05
-6.80243e-06
7.35268e-05
-1.44031e-05
0.000112331
-2.41567e-05
0.000144661
-3.55675e-05
0.000170962
-4.81445e-05
0.000191694
-6.1407e-05
0.000207297
-7.48847e-05
0.000218156
-8.81123e-05
0.000224572
-0.00010062
0.000226743
-0.000111916
0.000224739
-0.000121462
0.000218504
-0.000128635
0.000207862
-0.000132677
0.000192552
-0.000132627
0.000172302
-0.000127235
0.000146978
-0.000114891
0.000116869
-9.3599e-05
8.32246e-05
-6.10708e-05
4.91646e-05
-1.56559e-05
2.12685e-05
1.46126e-05
3.643e-05
-1.57355e-06
2.93572e-05
-5.80084e-06
7.77541e-05
-1.22435e-05
0.000118774
-2.04245e-05
0.000152842
-2.98502e-05
0.000180387
-4.00219e-05
0.000201866
-5.04431e-05
0.000217718
-6.06196e-05
0.000228332
-7.00557e-05
0.000234008
-7.82448e-05
0.000234932
-8.4654e-05
0.000231148
-8.87003e-05
0.00022255
-8.97164e-05
0.000208878
-8.68989e-05
0.000189735
-7.92326e-05
0.000164636
-6.53844e-05
0.00013313
-4.35636e-05
9.50478e-05
-1.13877e-05
5.10487e-05
3.40614e-05
3.71548e-06
9.53982e-05
-4.00683e-05
-6.29738e-05
0.000172985
-1.3109e-06
3.06681e-05
-4.81172e-06
8.12549e-05
-1.00748e-05
0.000124037
-1.66184e-05
0.000159386
-2.39338e-05
0.000187703
-3.14976e-05
0.00020943
-3.87792e-05
0.000225
-4.52402e-05
0.000234793
-5.03304e-05
0.000239099
-5.34786e-05
0.00023808
-5.40783e-05
0.000231748
-5.14676e-05
0.00021994
-4.48985e-05
0.000202309
-3.34928e-05
0.000178329
-1.6171e-05
0.000147314
8.45717e-06
0.000108502
4.22661e-05
6.12388e-05
8.78603e-05
5.4546e-06
0.000148693
-5.71174e-05
0.000228894
-0.000120269
-0.000165535
0.000331455
-1.06599e-06
3.17341e-05
-3.86269e-06
8.40516e-05
-7.94833e-06
0.000128123
-1.28149e-05
0.000164252
-1.79182e-05
0.000192806
-2.26902e-05
0.000214202
-2.65444e-05
0.000228854
-2.88739e-05
0.000237123
-2.90449e-05
0.00023927
-2.63867e-05
0.000235422
-2.01784e-05
0.000225539
-9.63031e-06
0.000209392
6.13941e-06
0.00018654
2.81402e-05
0.000156328
5.75596e-05
0.000117895
9.58536e-05
7.02078e-05
0.00014491
1.21822e-05
0.00020733
-5.69647e-05
0.000286806
-0.000136594
0.000388393
-0.000221855
-0.00029527
0.000518128
-8.46695e-07
3.25808e-05
-2.97752e-06
8.61825e-05
-5.90767e-06
0.000131053
-9.07794e-06
0.000167423
-1.1886e-05
0.000195614
-1.3696e-05
0.000216012
-1.38416e-05
0.000229
-1.16186e-05
0.0002349
-6.27664e-06
0.000233928
2.99423e-06
0.000226151
1.70782e-05
0.000211455
3.69496e-05
0.00018952
6.36914e-05
0.000159798
9.85164e-05
0.000121503
0.000142797
7.36141e-05
0.000198114
1.48907e-05
0.000266355
-5.60589e-05
0.000349976
-0.000140585
0.000452473
-0.000239091
0.000578928
-0.000348311
-0.00045542
0.000739079
-6.58854e-07
3.32397e-05
-2.17291e-06
8.76965e-05
-3.98183e-06
0.000132862
-5.44794e-06
0.000168889
-5.88613e-06
0.000196052
-4.56587e-06
0.000214691
-7.14559e-07
0.000225148
6.50033e-06
0.000227685
1.79834e-05
0.000222445
3.47276e-05
0.000209407
5.78318e-05
0.000188351
8.85163e-05
0.000158836
0.000128136
0.000120178
0.000178188
7.14513e-05
0.000240316
1.14861e-05
0.00031631
-6.11036e-05
0.000408122
-0.000147871
0.000517992
-0.000250455
0.000648905
-0.000370005
0.000804947
-0.000504353
-0.000649902
0.000999428
-5.05253e-07
3.37449e-05
-1.45502e-06
8.86463e-05
-2.17853e-06
0.000133585
-1.92959e-06
0.00016864
8.93668e-08
0.000194033
4.72172e-06
0.000210059
1.28869e-05
0.000216983
2.55793e-05
0.000214993
4.38967e-05
0.000204127
6.90619e-05
0.000184241
0.000102442
0.000154971
0.000145562
0.000115716
0.000200112
6.56277e-05
0.000267942
3.62143e-06
0.000351035
-7.16065e-05
0.00045146
-0.000161529
0.0005713
-0.000267711
0.000712589
-0.000391743
0.000877627
-0.000535043
0.0010687
-0.000695422
-0.000882626
0.00130142
-3.84693e-07
3.41296e-05
-8.16435e-07
8.9078e-05
-4.76691e-07
0.000133245
1.51658e-06
0.000166647
6.10182e-06
0.000189448
1.42831e-05
0.000201878
2.71447e-05
0.000204122
4.5885e-05
0.000196252
7.18409e-05
0.000178171
0.000106514
0.000149569
0.00015159
0.000109895
0.000208951
5.83545e-05
0.000280669
-6.09001e-06
0.000368978
-8.4688e-05
0.000476217
-0.000178845
0.000604728
-0.00029004
0.000756708
-0.000419691
0.00093398
-0.000569015
0.00113799
-0.000739056
0.0013691
-0.000926525
-0.00115606
0.00164253
-2.91239e-07
3.44208e-05
-2.32952e-07
8.90197e-05
1.17405e-06
0.000131838
4.98721e-06
0.000162833
1.23175e-05
0.000182118
2.43545e-05
0.000189841
4.23968e-05
0.000186079
6.78885e-05
0.000170761
0.000102452
0.000143608
0.000147916
0.000104104
0.000206331
5.14797e-05
0.00027997
-1.5284e-05
0.000371298
-9.7418e-05
0.000482912
-0.000196303
0.000617435
-0.000313367
0.000777348
-0.000449953
0.000964779
-0.000607122
0.0011812
-0.000785432
0.00142684
-0.000984703
0.00170092
-0.00120061
-0.00146904
0.00201391
-2.14174e-07
3.4635e-05
3.33375e-07
8.84722e-05
2.86319e-06
0.000129309
8.63701e-06
0.00015706
1.89748e-05
0.00017178
3.52928e-05
0.000173523
5.91461e-05
0.000162226
9.2272e-05
0.000137635
0.000136626
9.92535e-05
0.000194407
4.63237e-05
0.000268058
-2.2171e-05
0.000360242
-0.000107468
0.000473775
-0.000210952
0.000611512
-0.000334039
0.000776166
-0.000478021
0.000970067
-0.000643855
0.00119487
-0.000831926
0.00145131
-0.00104187
0.00173788
-0.00127127
0.00205407
-0.0015168
-0.00181457
0.0023996
-1.37675e-07
3.47727e-05
9.4047e-07
8.7394e-05
4.71134e-06
0.000125538
1.2675e-05
0.000149096
2.63992e-05
0.000158056
4.75696e-05
0.000152352
7.80441e-05
0.000131752
0.0001199
9.57789e-05
0.000175467
4.36864e-05
0.000247337
-2.55465e-05
0.00033834
-0.000113174
0.000451473
-0.000220601
0.000589773
-0.000349252
0.000756126
-0.000500393
0.000953004
-0.000674898
0.00118214
-0.000872988
0.00144415
-0.00109394
0.00173836
-0.00133608
0.00206107
-0.00159399
0.00241292
-0.00186865
-0.00217877
0.00277712
-4.30469e-08
3.48157e-05
1.65908e-06
8.56919e-05
6.86663e-06
0.00012033
1.73556e-05
0.000138607
3.49812e-05
0.00014043
6.17432e-05
0.00012559
9.98468e-05
9.3648e-05
0.000151748
4.38775e-05
0.000220173
-2.47383e-05
0.000308095
-0.000113469
0.000418663
-0.000223742
0.000555061
-0.000356999
0.0007203
-0.000514491
0.000916928
-0.000697021
0.00114669
-0.000904661
0.00141016
-0.00113646
0.00170637
-0.00139015
0.00203255
-0.00166226
0.00238313
-0.00194457
0.00275729
-0.00224281
-0.00254063
0.00311915
9.71949e-08
3.47185e-05
2.56823e-06
8.32209e-05
9.49473e-06
0.000113404
2.29609e-05
0.000125141
4.51489e-05
0.000118242
7.84138e-05
9.23255e-05
0.000125345
4.67171e-05
0.000188796
-1.95738e-05
0.000271874
-0.000107817
0.000377864
-0.000219458
0.000510078
-0.000355955
0.000671624
-0.000518546
0.000865094
-0.000707961
0.00109218
-0.000924111
0.00135331
-0.00116579
0.00164726
-0.00143041
0.00197107
-0.00171395
0.00231971
-0.0020109
0.00268766
-0.00231252
0.00306636
-0.00262151
-0.00286687
0.00339261
2.99855e-07
3.44187e-05
3.74877e-06
7.9772e-05
1.27663e-05
0.000104386
2.97785e-05
0.000108129
5.73305e-05
9.069e-05
9.81655e-05
5.14905e-05
0.000155274
-1.03913e-05
0.000231894
-9.61938e-05
0.000331441
-0.000207364
0.000457356
-0.000345373
0.000612849
-0.000511449
0.000800559
-0.000706255
0.00102213
-0.000929536
0.00127781
-0.00117979
0.00156605
-0.00145402
0.00188333
-0.0017477
0.00222432
-0.00205494
0.00258188
-0.00236846
0.002951
-0.00268164
0.00331855
-0.00298906
-0.00326626
0.00371794
5.91252e-07
3.38274e-05
5.27967e-06
7.50836e-05
1.68435e-05
9.28222e-05
3.80767e-05
8.68953e-05
7.19145e-05
5.68523e-05
0.000121503
1.90173e-06
0.000190222
-7.91098e-05
0.000281625
-0.000187597
0.00039929
-0.00032503
0.000546558
-0.00049264
0.000726151
-0.000691042
0.000939727
-0.000919831
0.0011874
-0.00117721
0.00146736
-0.00145974
0.00177564
-0.00176231
0.00210625
-0.00207831
0.0024516
-0.00240029
0.0028034
-0.00272026
0.00315412
-0.00303236
0.00349437
-0.00332931
-0.00360959
0.00383769
9.90813e-07
3.28366e-05
7.23004e-06
6.88443e-05
2.18669e-05
7.81853e-05
4.80814e-05
6.06808e-05
8.92103e-05
1.57234e-05
0.000148793
-5.76805e-05
0.000230536
-0.000160853
0.000338178
-0.000295239
0.000475222
-0.000462074
0.000644541
-0.000661959
0.000847886
-0.000894387
0.00108537
-0.00115731
0.00135501
-0.00144686
0.00165255
-0.00175728
0.0019715
-0.00208126
0.00230369
-0.0024105
0.00264009
-0.00273669
0.00297197
-0.00305214
0.00329166
-0.00335204
0.00359334
-0.00363099
-0.00389359
0.00387735
1.5146e-06
3.1322e-05
9.655e-06
6.07039e-05
2.79454e-05
5.98949e-05
5.99569e-05
2.86693e-05
0.000109418
-3.37374e-05
0.00018021
-0.000128472
0.000276254
-0.000256898
0.000401259
-0.000420244
0.000558316
-0.000619131
0.000749376
-0.000853019
0.000974679
-0.00111969
0.00123226
-0.00141489
0.00151769
-0.00173228
0.00182418
-0.00206377
0.00214313
-0.00240021
0.00246507
-0.00273244
0.00278078
-0.0030524
0.00308246
-0.00335382
0.0033644
-0.00363398
0.00362334
-0.00388993
-0.0041305
0.00386025
2.17436e-06
2.91477e-05
1.25933e-05
5.0285e-05
3.51492e-05
3.73389e-05
7.37926e-05
-9.97405e-06
0.000132602
-9.25472e-05
0.000215707
-0.000211577
0.000327058
-0.000368249
0.000470034
-0.00056322
0.000646895
-0.000795992
0.000858162
-0.00106429
0.00110206
-0.00136358
0.00137418
-0.00168702
0.0016676
-0.00202571
0.00197343
-0.0023696
0.00228184
-0.00270862
0.00258329
-0.00303389
0.00286976
-0.00333887
0.00313568
-0.00361975
0.0033781
-0.0038764
0.00359714
-0.00410897
-0.00432779
0.00379442
2.97745e-06
2.61702e-05
1.60662e-05
3.71963e-05
4.35077e-05
9.8974e-06
8.95966e-05
-5.60629e-05
0.000158685
-0.000161635
0.000254995
-0.000307887
0.00038225
-0.000495503
0.000543121
-0.000724091
0.000738566
-0.000991437
0.000967185
-0.00129291
0.00122482
-0.00162122
0.00150456
-0.00196676
0.00179737
-0.00231851
0.00209311
-0.00266533
0.0023819
-0.00299741
0.00265548
-0.00330747
0.00290813
-0.00359152
0.00313716
-0.00384877
0.00334256
-0.00408181
0.00352695
-0.00429336
-0.0044942
0.00369336
3.92742e-06
2.22428e-05
2.00786e-05
2.10451e-05
5.30085e-05
-2.30324e-05
0.000107293
-0.000110347
0.000187433
-0.000241776
0.000297533
-0.000417987
0.000440756
-0.000638726
0.000618636
-0.000901971
0.000830351
-0.00120315
0.0010722
-0.00153476
0.00133754
-0.00188655
0.00161728
-0.00224651
0.00190104
-0.00260227
0.00217857
-0.00294286
0.00244121
-0.00326005
0.00268297
-0.00354923
0.00290097
-0.00380952
0.00309536
-0.00404315
0.0032685
-0.00425495
0.00342456
-0.00444942
-0.00463687
0.00356724
5.02451e-06
1.72183e-05
2.46198e-05
1.44974e-06
6.35981e-05
-6.20107e-05
0.000126719
-0.000173468
0.000218465
-0.000333521
0.000342537
-0.000542059
0.000501158
-0.000797347
0.000694271
-0.00109508
0.000918883
-0.00142776
0.00116883
-0.0017847
0.00143519
-0.00215291
0.00170739
-0.00251871
0.00197478
-0.00286966
0.00222816
-0.00319625
0.00246106
-0.00349295
0.00267024
-0.00375841
0.00285561
-0.00399489
0.00301958
-0.00420712
0.00316602
-0.00440139
0.00329971
-0.00458311
-0.0047615
0.00342433
6.26613e-06
1.09521e-05
2.96639e-05
-2.19481e-05
7.51827e-05
-0.00010753
0.000147632
-0.000245917
0.000251245
-0.000437135
0.000388995
-0.000679809
0.000561743
-0.000970096
0.000767438
-0.00130078
0.00100068
-0.001661
0.00125295
-0.00203697
0.00151364
-0.0024136
0.00177166
-0.00277673
0.00201717
-0.00311517
0.00224298
-0.00342206
0.00244529
-0.00369525
0.00262358
-0.00393671
0.00278003
-0.00415134
0.0029185
-0.00434559
0.0030435
-0.00452639
0.00315969
-0.0046993
-0.00487211
0.00327031
7.64673e-06
3.30542e-06
3.51698e-05
-4.94711e-05
8.76267e-05
-0.000159986
0.000169699
-0.00032799
0.000285099
-0.000552535
0.000435698
-0.000830407
0.000620593
-0.00115499
0.000835444
-0.00151563
0.00107244
-0.001898
0.00132116
-0.00228569
0.00157013
-0.00266258
0.00180877
-0.00301538
0.00202902
-0.00333541
0.00222621
-0.00361926
0.00239922
-0.00386826
0.00254982
-0.0040873
0.00268167
-0.00428319
0.00279935
-0.00446327
0.00290731
-0.00463436
0.00300966
-0.00480165
-0.00497142
0.00310897
9.15741e-06
-5.85199e-06
4.10797e-05
-8.13934e-05
0.000100752
-0.000219658
0.000192509
-0.000419747
0.000319224
-0.00067925
0.000481287
-0.00099247
0.000675695
-0.0013494
0.000895704
-0.00173564
0.00113137
-0.00213367
0.00137105
-0.00252536
0.00160339
-0.00289492
0.00181925
-0.00323124
0.00201289
-0.00352906
0.0021823
-0.00378867
0.00232866
-0.00401462
0.00245535
-0.00421399
0.00256682
-0.00439467
0.00266769
-0.00456414
0.00276198
-0.00472865
0.00285303
-0.0048927
-0.0050611
0.00294271
1.07853e-05
-1.66373e-05
4.73176e-05
-0.000117926
0.000114335
-0.000286676
0.000215569
-0.000520981
0.000352715
-0.000816396
0.000524325
-0.00116408
0.000725085
-0.00155016
0.000945958
-0.00195651
0.0011754
-0.00236311
0.0014014
-0.00275136
0.00161363
-0.00310714
0.00180502
-0.00342264
0.00197241
-0.00369644
0.00211613
-0.00393238
0.0022391
-0.00413759
0.00234565
-0.00432053
0.0024404
-0.00448943
0.00252759
-0.00465132
0.00261059
-0.00481165
0.002692
-0.00497411
-0.00514213
0.00277303
1.25127e-05
-2.915e-05
5.37883e-05
-0.000159201
0.000128112
-0.000360999
0.000238324
-0.000631193
0.000384602
-0.000962674
0.00056338
-0.00134286
0.000766991
-0.00175377
0.000984448
-0.00217397
0.00120332
-0.00258199
0.00141211
-0.00296015
0.00160221
-0.00329725
0.00176898
-0.0035894
0.00191163
-0.00383909
0.00203241
-0.00405316
0.00213534
-0.00424053
0.0022251
-0.00441028
0.00230606
-0.00457038
0.00238185
-0.00472712
0.00245518
-0.00488497
0.00252793
-0.00504686
-0.00521504
0.00260083
1.43163e-05
-4.34663e-05
6.03769e-05
-0.000205262
0.00014178
-0.000442402
0.000260171
-0.000749585
0.000413901
-0.0011164
0.000597122
-0.00152608
0.000799967
-0.00195662
0.00101004
-0.00238404
0.00121483
-0.00278677
0.00140408
-0.0031494
0.00157137
-0.00346454
0.00171445
-0.00373248
0.00183458
-0.00395922
0.00193534
-0.00415392
0.00202131
-0.0043265
0.00209703
-0.00448601
0.0021664
-0.00463976
0.00223239
-0.00479312
0.00229706
-0.00494964
0.00236172
-0.00511153
-0.00528005
0.00242674
1.61675e-05
-5.96338e-05
6.69509e-05
-0.000256045
0.000155006
-0.000530457
0.000280488
-0.000875067
0.000439673
-0.00127559
0.000624416
-0.00171082
0.000822989
-0.00215519
0.00102226
-0.00258332
0.00121039
-0.0029749
0.00137892
-0.00331793
0.00152376
-0.00360937
0.00164481
-0.00385354
0.00174493
-0.00405934
0.00182845
-0.00423744
0.00190004
-0.00439809
0.00196388
-0.00454985
0.00202325
-0.00469912
0.00208048
-0.00485035
0.00213708
-0.00500624
0.00219395
-0.0051684
-0.00533726
0.00225117
1.80324e-05
-7.76662e-05
7.33635e-05
-0.000311377
0.000167445
-0.000624538
0.000298666
-0.00100629
0.000461084
-0.00143801
0.000644392
-0.00189413
0.000835505
-0.0023463
0.00102126
-0.00276907
0.0011911
-0.00314474
0.0013387
-0.00346553
0.00146218
-0.00373285
0.00156326
-0.00395462
0.00164582
-0.0041419
0.00171454
-0.00430616
0.00177386
-0.00445741
0.00182741
-0.00460339
0.00187785
-0.00474957
0.00192697
-0.00489946
0.00197584
-0.00505511
0.00202503
-0.00521759
-0.00538668
0.00207445
1.98727e-05
-9.75389e-05
7.94592e-05
-0.000370963
0.000178749
-0.000723828
0.000314146
-0.00114169
0.000477453
-0.00160131
0.000656498
-0.00207317
0.000837425
-0.00252723
0.0010077
-0.00293935
0.0011585
-0.00329553
0.00128567
-0.00359271
0.00138935
-0.00383653
0.00147258
-0.00403784
0.00153985
-0.00420917
0.0015958
-0.00436212
0.00164445
-0.00450606
0.00168884
-0.00464778
0.00173106
-0.00479179
0.00177244
-0.00494084
0.00181374
-0.00509641
0.00185528
-0.00525913
-0.00542828
0.00189687
2.16473e-05
-0.000119186
8.50802e-05
-0.000434396
0.00018859
-0.000827337
0.000326446
-0.00127954
0.00048829
-0.00176316
0.000660501
-0.00224539
0.00082907
-0.0026958
0.000982625
-0.0030929
0.00111432
-0.00342723
0.00122211
-0.00370049
0.00130772
-0.00392214
0.00137514
-0.00410526
0.00142907
-0.0042631
0.00147388
-0.00440693
0.00151304
-0.00454522
0.00154904
-0.00468377
0.00158347
-0.00482623
0.00161732
-0.00497469
0.0016511
-0.00513019
0.00168497
-0.005293
-0.00546201
0.0017187
2.33134e-05
-0.0001425
9.00734e-05
-0.000501156
0.000196675
-0.000933939
0.000335191
-0.00141806
0.000493318
-0.00192128
0.000656481
-0.00240855
0.000811091
-0.00285041
0.000947336
-0.00322915
0.00106041
-0.00354031
0.00115012
-0.0037902
0.00121945
-0.00399147
0.0012729
-0.00415871
0.00131511
-0.00430531
0.00135001
-0.00444183
0.00138053
-0.00457574
0.00140863
-0.00471187
0.00143553
-0.00485313
0.00146193
-0.00500109
0.00148819
-0.00515644
0.00151435
-0.00531916
-0.00548785
0.00154019
2.48288e-05
-0.000167328
9.42978e-05
-0.000570625
0.000202761
-0.0010424
0.000340126
-0.00155542
0.000492466
-0.00207362
0.000644778
-0.00256086
0.000784378
-0.00299001
0.000903246
-0.00334802
0.000998542
-0.0036356
0.00107162
-0.00386328
0.00112634
-0.00404619
0.00116741
-0.00419978
0.00119918
-0.00433708
0.00122509
-0.00446774
0.00124754
-0.00459819
0.00126806
-0.00473239
0.00128756
-0.00487262
0.00130654
-0.00502007
0.00132524
-0.00517515
0.00134365
-0.00533757
-0.00550576
0.00136156
2.61533e-05
-0.000193482
9.76306e-05
-0.000642102
0.000206663
-0.00115144
0.000341127
-0.00168989
0.00048586
-0.00221836
0.000625939
-0.00270094
0.000749964
-0.00311403
0.000851792
-0.00344985
0.000930366
-0.00371418
0.000988266
-0.00392118
0.00102989
-0.00408781
0.00105988
-0.00422977
0.00108221
-0.00435941
0.0010998
-0.00448533
0.00111458
-0.00461297
0.0011277
-0.00474551
0.00113984
-0.00488477
0.00115138
-0.00503161
0.00116248
-0.00518624
0.00117308
-0.00534817
-0.00551572
0.00118304
2.72505e-05
-0.000220732
9.99725e-05
-0.000714824
0.000208266
-0.00125973
0.00033819
-0.00181981
0.000473785
-0.00235395
0.000600657
-0.00282781
0.000708945
-0.00322232
0.000794353
-0.00353525
0.000857362
-0.00377719
0.000901458
-0.00396528
0.000931284
-0.00411764
0.00095127
-0.00424976
0.000964922
-0.00437306
0.000974663
-0.00449508
0.000982005
-0.00462031
0.000987827
-0.00475134
0.000992627
-0.00488957
0.00099668
-0.00503566
0.0010001
-0.00518966
0.00100284
-0.00535091
-0.0055177
0.00100482
2.80889e-05
-0.000248821
0.000101251
-0.000787986
0.000207519
-0.001366
0.000331426
-0.00194372
0.000456652
-0.00247918
0.000569714
-0.00294087
0.000662418
-0.00331503
0.000732203
-0.00360504
0.000780817
-0.0038258
0.000812359
-0.00399682
0.000831496
-0.00413677
0.000842317
-0.00426058
0.000847849
-0.0043786
0.000850063
-0.00449729
0.000850126
-0.00462037
0.000848691
-0.0047499
0.000846129
-0.00488701
0.000842646
-0.00503218
0.000838329
-0.00518535
0.000833138
-0.00534572
-0.00551164
0.000827075
2.86436e-05
-0.000277465
0.000101423
-0.000860765
0.00020444
-0.00146901
0.00032104
-0.00206032
0.000434964
-0.0025931
0.000533923
-0.00303983
0.000611433
-0.00339254
0.000666487
-0.00366009
0.000701831
-0.00386115
0.00072192
-0.0040169
0.000731279
-0.00414613
0.000733591
-0.00426289
0.000731415
-0.00437642
0.000726324
-0.0044922
0.000719201
-0.00461325
0.000710524
-0.00474122
0.000700564
-0.00487705
0.000689483
-0.0050211
0.000677355
-0.00517322
0.000664154
-0.00533252
-0.0054974
0.00064992
2.88966e-05
-0.000306361
0.000100473
-0.000932341
0.000199103
-0.00156764
0.00030731
-0.00216852
0.000409275
-0.00269507
0.000494097
-0.00312465
0.000556961
-0.0034554
0.000598207
-0.00370134
0.000621323
-0.00388426
0.000630908
-0.00402649
0.000631232
-0.00414646
0.000625539
-0.0042572
0.000615956
-0.00436684
0.000603716
-0.00447996
0.000589471
-0.004599
0.000573557
-0.00472531
0.000556164
-0.00485965
0.000537411
-0.00500235
0.000517379
-0.00515318
0.000496085
-0.00531123
-0.0054748
0.000473481
2.88369e-05
-0.000335198
9.84135e-05
-0.00100192
0.00019163
-0.00166086
0.000290566
-0.00226746
0.000380158
-0.00278466
0.000451012
-0.00319551
0.000499878
-0.00350427
0.000528226
-0.00372968
0.000540052
-0.00389609
0.00053994
-0.00402638
0.000531824
-0.00413834
0.000518515
-0.00424389
0.000501749
-0.00435007
0.000482475
-0.00446068
0.000461161
-0.00457769
0.000438033
-0.00470218
0.000413206
-0.00483483
0.000386743
-0.00497588
0.000358675
-0.00512512
0.000329066
-0.00528162
-0.00544377
0.000298037
2.84609e-05
-0.000363659
9.52819e-05
-0.00106874
0.000182185
-0.00174776
0.00027117
-0.00235644
0.000348187
-0.00286168
0.000405389
-0.00325271
0.000440958
-0.00353984
0.000457272
-0.003746
0.000458642
-0.00389746
0.000449507
-0.00401724
0.000433428
-0.00412226
0.000412802
-0.00422326
0.000389024
-0.00432629
0.000362808
-0.00443447
0.000334478
-0.00454936
0.000304177
-0.00467188
0.000271975
-0.00480262
0.00023791
-0.00494182
0.00020189
-0.0050891
0.000163309
-0.00524304
-0.00540407
0.000123607
2.77719e-05
-0.000391431
9.1136e-05
-0.0011321
0.000170958
-0.00182759
0.000249497
-0.00243498
0.000313911
-0.00292609
0.000357886
-0.00329668
0.000380872
-0.00356282
0.000385955
-0.00375108
0.000377595
-0.0038891
0.000360001
-0.00399965
0.000336341
-0.0040986
0.000308633
-0.00419555
0.000277979
-0.00429564
0.000244901
-0.00440139
0.000209608
-0.00451406
0.000172175
-0.00463445
0.000132655
-0.0047631
9.11177e-05
-0.00490028
4.78602e-05
-0.00504584
3.23404e-06
-0.00519841
-0.00535187
-4.89605e-05
2.67793e-05
-0.00041821
8.605e-05
-0.00119137
0.000158158
-0.0018997
0.000225924
-0.00250275
0.000277845
-0.00297801
0.000309085
-0.00332793
0.000320195
-0.00357393
0.000314781
-0.00374567
0.00029732
-0.00387164
0.000271733
-0.00397406
0.000240803
-0.00406767
0.000206203
-0.00416095
0.000168789
-0.00425823
0.000128928
-0.00436153
8.67272e-05
-0.00447186
4.22036e-05
-0.00458992
-4.63604e-06
-0.00471626
-5.36269e-05
-0.00485129
-0.000104793
-0.00499467
-0.000158881
-0.00514432
-0.00529729
-0.000213466
2.54976e-05
-0.000443708
8.01109e-05
-0.00124599
0.000144
-0.00196358
0.000200811
-0.00255956
0.00024046
-0.00301766
0.0002595
-0.00334697
0.00025941
-0.00357384
0.000244161
-0.00373042
0.000218144
-0.00384562
0.000184954
-0.00394087
0.000147008
-0.00402972
0.00010568
-0.00411962
6.16017e-05
-0.00421415
1.50253e-05
-0.00431495
-3.39908e-05
-0.00442285
-8.54948e-05
-0.00453842
-0.000139489
-0.00466227
-0.000195953
-0.00479483
-0.000254882
-0.00493574
-0.000316121
-0.00508308
-0.00523479
-0.000378625
2.3946e-05
-0.000467654
7.34137e-05
-0.00129545
0.000128703
-0.00201887
0.000174501
-0.00260536
0.00020218
-0.00304534
0.000209571
-0.00335436
0.000198925
-0.0035632
0.000174434
-0.00370593
0.000140328
-0.00381151
9.98663e-05
-0.00390041
5.51119e-05
-0.00398497
7.16742e-06
-0.00407168
-4.34357e-05
-0.00416355
-9.66023e-05
-0.00426179
-0.000152363
-0.00436709
-0.000210784
-0.00448
-0.000271917
-0.00460114
-0.000335747
-0.004731
-0.000402152
-0.00486934
-0.000470818
-0.00501442
-0.00516409
-0.000541511
2.21472e-05
-0.000489801
6.60584e-05
-0.00133937
0.000112478
-0.00206529
0.00014731
-0.00264019
0.00016338
-0.00306141
0.000159679
-0.00335066
0.000139075
-0.00354259
0.000105872
-0.00367273
6.40841e-05
-0.00376973
1.66208e-05
-0.00385295
-3.47338e-05
-0.00393362
-8.91034e-05
-0.00401731
-0.000146174
-0.00410647
-0.000205864
-0.0042021
-0.000268259
-0.00430469
-0.000333485
-0.00441477
-0.000401648
-0.00453297
-0.000472749
-0.0046599
-0.000546622
-0.00479547
-0.000622957
-0.00493808
-0.00508544
-0.000701615
2.01264e-05
-0.000509928
5.81463e-05
-0.00137739
9.55292e-05
-0.00210268
0.000119529
-0.00266419
0.000124391
-0.00306627
0.000110142
-0.00333641
8.01356e-05
-0.00351258
3.86941e-05
-0.00363128
-1.04292e-05
-0.0037206
-6.4616e-05
-0.00379876
-0.000122412
-0.00387582
-0.000183123
-0.0039566
-0.000246524
-0.00404307
-0.000312617
-0.004136
-0.000381525
-0.00423578
-0.000453426
-0.00434287
-0.000528482
-0.00445792
-0.000606735
-0.00458164
-0.000688022
-0.00471418
-0.000772007
-0.0048541
-0.00499896
-0.000858482
1.79118e-05
-0.000527839
4.97787e-05
-0.00140925
7.80475e-05
-0.00213094
9.14163e-05
-0.00267756
8.54958e-05
-0.00306035
6.12255e-05
-0.00331214
2.23379e-05
-0.0034737
-2.69173e-05
-0.00358203
-8.30422e-05
-0.00366448
-0.000143762
-0.00373804
-0.000207842
-0.00381174
-0.000274758
-0.00388968
-0.000344371
-0.00397346
-0.000416738
-0.00406364
-0.000492019
-0.0041605
-0.000570438
-0.00426445
-0.000652222
-0.00437613
-0.000737487
-0.00449638
-0.000826107
-0.00462556
-0.000917679
-0.00476252
-0.00490481
-0.00101183
1.55346e-05
-0.000543374
4.10548e-05
-0.00143477
6.02134e-05
-0.0021501
6.32056e-05
-0.00268055
4.69353e-05
-0.00304408
1.31953e-05
-0.0032784
-3.41336e-05
-0.00342637
-9.08272e-05
-0.00352534
-0.000153687
-0.00360162
-0.000220727
-0.003671
-0.000290935
-0.00374153
-0.00036392
-0.0038167
-0.000439617
-0.00389776
-0.000518118
-0.00398514
-0.000599614
-0.00407901
-0.000684367
-0.0041797
-0.000772676
-0.00428783
-0.000864758
-0.0044043
-0.000960562
-0.00452976
-0.00105962
-0.00466347
-0.00480312
-0.0011613
1.30325e-05
-0.000556406
3.20748e-05
-0.00145382
4.2194e-05
-0.00216022
3.51015e-05
-0.00267346
9.05193e-06
-0.00301803
-3.38399e-05
-0.0032355
-8.91525e-05
-0.00337106
-0.000152932
-0.00346156
-0.000222266
-0.00353228
-0.000295434
-0.00359783
-0.000371616
-0.00366535
-0.000450533
-0.00373778
-0.000532174
-0.00381612
-0.00061666
-0.00390065
-0.000704197
-0.00399147
-0.000795079
-0.00408882
-0.00088967
-0.00419323
-0.00098831
-0.00430565
-0.00109107
-0.00442699
-0.00119745
-0.00455709
-0.00469406
-0.00130651
1.04398e-05
-0.000566846
2.2933e-05
-0.00146631
2.41415e-05
-0.00216143
7.47468e-06
-0.00265679
-2.8316e-05
-0.00298224
-7.9726e-05
-0.00318409
-0.000142601
-0.00330818
-0.000213144
-0.00339101
-0.000288711
-0.00345672
-0.000367822
-0.00351872
-0.000449824
-0.00358335
-0.000534529
-0.00365308
-0.000621969
-0.00372868
-0.000712282
-0.00381034