/*--------------------------------*- C++ -*----------------------------------*\
  =========                 |
  \\      /  F ield         | OpenFOAM: The Open Source CFD Toolbox
   \\    /   O peration     | Website:  https://openfoam.org
    \\  /    A nd           | Version:  7
     \\/     M anipulation  |
\*---------------------------------------------------------------------------*/
FoamFile
{
    version     2.0;
    format      ascii;
    class       volVectorField;
    location    "27";
    object      U;
}
// * * * * * * * * * * * * * * * * * * * * * * * * * * * * * * * * * * * * * //

dimensions      [0 1 -1 0 0 0 0];

internalField   nonuniform List<vector> 
40000
(
(-0.000178379 0.000291679 -2.10664e-21)
(-0.00112006 0.00079257 6.52282e-21)
(-0.00313443 0.00122224 -4.16226e-21)
(-0.00597644 0.0015875 -3.95971e-24)
(-0.00951108 0.00189338 -8.95186e-25)
(-0.0136473 0.0021444 2.89827e-24)
(-0.018291 0.00234507 -6.91299e-21)
(-0.0233503 0.00249983 1.64365e-21)
(-0.0287399 0.002613 -4.69142e-21)
(-0.034381 0.00268876 -1.4844e-21)
(-0.0402006 0.00273114 0)
(-0.0461319 0.00274396 -5.34501e-21)
(-0.0521143 0.00273087 0)
(-0.0580934 0.00269527 0)
(-0.0640206 0.00264036 -4.53009e-21)
(-0.069853 0.00256915 4.27999e-21)
(-0.0755534 0.00248444 -2.02086e-21)
(-0.0810899 0.00238895 -1.55559e-24)
(-0.0864362 0.00228534 1.79543e-21)
(-0.0915717 0.00217631 0)
(-0.096482 0.00206474 -1.59274e-21)
(-0.10116 0.00195371 -4.49386e-21)
(-0.105604 0.00184666 5.63082e-21)
(-0.109825 0.00174731 -2.64438e-21)
(-0.113841 0.00165962 7.4454e-21)
(-0.117681 0.00158759 4.65621e-21)
(-0.121384 0.00153481 -8.72998e-21)
(-0.124999 0.00150367 8.17938e-21)
(-0.128573 0.00149539 -1.91472e-21)
(-0.132178 0.00151323 -3.59018e-21)
(-0.000207674 0.000873599 0)
(-0.0011956 0.00237373 4.35193e-21)
(-0.00324214 0.00366054 8.33715e-21)
(-0.00610476 0.00475432 -7.95649e-21)
(-0.00964995 0.00567017 -3.81059e-21)
(-0.0137877 0.00642152 1.45104e-20)
(-0.0184249 0.00702191 -3.46251e-21)
(-0.0234705 0.00748466 -6.59173e-21)
(-0.0288402 0.00782271 -8.52267e-24)
(-0.0344556 0.00804859 -1.7835e-20)
(-0.0402444 0.00817434 5.63577e-21)
(-0.0461402 0.00821146 2.13876e-20)
(-0.0520829 0.00817084 -1.01262e-20)
(-0.0580183 0.00806268 -4.71178e-24)
(-0.063898 0.00789656 -4.53767e-21)
(-0.0696793 0.00768141 -1.54032e-24)
(-0.0753249 0.00742564 0)
(-0.0808028 0.00713731 0)
(-0.0860863 0.00682432 1.43753e-20)
(-0.0911546 0.00649475 0)
(-0.0959926 0.00615711 6.37217e-21)
(-0.100592 0.00582066 -5.99182e-21)
(-0.104952 0.00549562 -7.20725e-25)
(-0.109081 0.00519321 0)
(-0.112997 0.00492539 9.93057e-21)
(-0.116728 0.00470429 -9.31245e-21)
(-0.120314 0.00454095 8.72997e-21)
(-0.123804 0.00444279 -8.17937e-21)
(-0.127243 0.00441379 7.65937e-21)
(-0.130707 0.00446383 -2.15431e-20)
(-0.000265815 0.0014474 -8.4418e-21)
(-0.00134559 0.00393373 -8.69893e-21)
(-0.00345608 0.00606751 0)
(-0.00635971 0.007882 0)
(-0.00992593 0.00940196 0)
(-0.0140668 0.0106495 7.27096e-21)
(-0.0186911 0.0116468 0)
(-0.0237096 0.012416 6.58313e-21)
(-0.0290395 0.0129782 1.25177e-20)
(-0.0346037 0.0133543 1.1889e-20)
(-0.0403309 0.0135641 0)
(-0.0461559 0.0136266 7.00037e-24)
(-0.0520193 0.0135599 -2.02708e-20)
(-0.0578674 0.0133808 1.91826e-20)
(-0.0636523 0.0131052 9.06343e-21)
(-0.0693313 0.0127478 8.56863e-21)
(-0.0748672 0.0123225 -8.08195e-21)
(-0.0802277 0.0118426 1.52592e-20)
(-0.0853858 0.011321 -2.87581e-20)
(-0.0903196 0.0107711 -1.21673e-25)
(-0.0950129 0.0102069 -2.54918e-20)
(-0.0994561 0.00964362 2.39818e-20)
(-0.103647 0.00909833 0)
(-0.107592 0.00858981 0)
(-0.111307 0.00813831 9.93698e-21)
(-0.11482 0.00776461 0)
(-0.118172 0.0074879 0)
(-0.121412 0.00732156 0)
(-0.124582 0.00727342 -1.5323e-20)
(-0.12776 0.00736048 1.43615e-20)
(-0.000351888 0.00200785 8.4418e-21)
(-0.00156777 0.00545888 8.00117e-24)
(-0.00377317 0.00842284 3.72267e-23)
(-0.00673778 0.0109451 -1.59375e-20)
(-0.0103353 0.0130595 -1.52259e-20)
(-0.0144809 0.0147962 1.7138e-23)
(-0.0190861 0.0161859 -2.76995e-20)
(-0.0240643 0.0172586 1.31895e-20)
(-0.0293348 0.0180438 -2.50781e-20)
(-0.0348225 0.0185701 2.38174e-20)
(-0.0404578 0.018865 -1.12988e-20)
(-0.0461769 0.0189548 2.14203e-20)
(-0.0519214 0.0188643 2.02708e-20)
(-0.0576386 0.018617 1.63478e-23)
(-0.0632811 0.0182347 -1.81527e-20)
(-0.0688066 0.0177379 0)
(-0.0741778 0.0171457 7.82999e-25)
(-0.0793622 0.0164762 1.52683e-20)
(-0.0843317 0.0157475 9.27947e-25)
(-0.0890633 0.0149777 -7.86164e-24)
(-0.0935394 0.0141861 2.54992e-20)
(-0.0977481 0.0133939 -2.39817e-20)
(-0.101685 0.0126247 0)
(-0.105353 0.011905 2.1179e-20)
(-0.108767 0.0112639 4.46061e-24)
(-0.111954 0.0107315 -5.59164e-20)
(-0.114953 0.0103365 1.74708e-20)
(-0.117817 0.0100998 3.27392e-20)
(-0.120579 0.0100351 1.53229e-20)
(-0.123327 0.0101676 1.43683e-20)
(-0.000464551 0.00254995 3.3883e-20)
(-0.00185884 0.00693612 -1.74546e-20)
(-0.0041889 0.0107071 1.66902e-20)
(-0.00723378 0.0139191 1.59679e-20)
(-0.0108727 0.0166144 0)
(-0.0150247 0.0188306 -2.91333e-20)
(-0.0196048 0.0206059 -1.38963e-20)
(-0.0245297 0.0219783 -2.63981e-20)
(-0.0297217 0.0229846 1.25395e-20)
(-0.0351081 0.023661 2.90373e-23)
(-0.0406214 0.0240422 2.26249e-20)
(-0.0461996 0.0241614 2.14673e-20)
(-0.0517859 0.0240503 -4.05965e-20)
(-0.0573286 0.0237384 1.92196e-20)
(-0.0627812 0.0232534 -1.89353e-23)
(-0.0681017 0.0226211 0)
(-0.073253 0.0218656 -1.6189e-20)
(-0.0782017 0.0210098 -3.05699e-20)
(-0.0829192 0.0200761 4.32159e-20)
(-0.0873808 0.0190873 1.35787e-20)
(-0.0915665 0.0180675 0)
(-0.095462 0.0170436 -2.40155e-20)
(-0.0990591 0.0160456 0)
(-0.102358 0.0151078 -6.35581e-20)
(-0.105371 0.0142685 3.97624e-20)
(-0.108119 0.0135687 -4.86952e-24)
(-0.110646 0.0130481 3.49629e-20)
(-0.113005 0.0127374 -4.91085e-20)
(-0.11522 0.0126596 3.06641e-20)
(-0.11739 0.0128498 1.43678e-20)
(-0.000602073 0.00306907 -1.69618e-20)
(-0.00221451 0.0083532 1.74541e-20)
(-0.00469742 0.0129019 -1.66731e-24)
(-0.00784102 0.016781 -4.80313e-20)
(-0.0115311 0.0200399 0)
(-0.0156911 0.0227229 2.91332e-20)
(-0.0202404 0.0248752 -2.78373e-20)
(-0.0250997 0.0265417 5.2829e-20)
(-0.0301945 0.0277665 0)
(-0.0354551 0.0285924 -2.38463e-20)
(-0.0408167 0.0290612 -2.26248e-20)
(-0.0462195 0.0292127 -2.14462e-20)
(-0.0516083 0.0290846 -6.10081e-20)
(-0.0569329 0.0287126 2.58341e-24)
(-0.0621478 0.0281297 -1.78128e-23)
(-0.0672115 0.0273669 -1.39437e-23)
(-0.0720868 0.0264529 4.86543e-20)
(-0.0767401 0.0254148 -3.43763e-23)
(-0.0811413 0.0242792 3.11851e-23)
(-0.0852639 0.023073 -2.71268e-20)
(-0.0890855 0.0218247 -1.99548e-23)
(-0.0925882 0.020566 4.80441e-20)
(-0.0957598 0.0193334 -6.77494e-20)
(-0.0985965 0.0181689 2.1193e-20)
(-0.101104 0.0171206 0)
(-0.103303 0.0162414 0)
(-0.105234 0.0155848 -3.49626e-20)
(-0.106957 0.0151946 3.27637e-20)
(-0.108484 0.0151072 -3.06595e-20)
(-0.109919 0.0153722 0)
(-0.00076238 0.00356099 -1.70135e-20)
(-0.00262967 0.00969898 0)
(-0.00529171 0.0149904 1.67565e-20)
(-0.00855141 0.0195092 9.62482e-20)
(-0.0123019 0.0233108 -3.06002e-20)
(-0.0164716 0.0264451 0)
(-0.0209847 0.0289635 -5.19865e-23)
(-0.0257663 0.0309172 2.64906e-20)
(-0.0307458 0.0323565 -2.51543e-20)
(-0.0358568 0.033331 0)
(-0.0410375 0.0338884 0)
(-0.0462304 0.0340749 -4.30188e-20)
(-0.0513825 0.033934 6.10365e-20)
(-0.0564453 0.033507 -1.9249e-20)
(-0.0613743 0.0328321 0)
(-0.0661288 0.0319448 3.44096e-20)
(-0.0706715 0.0308782 -3.24238e-20)
(-0.0749682 0.0296632 3.06241e-20)
(-0.0789877 0.0283299 -5.76942e-20)
(-0.0827013 0.0269088 -8.15545e-20)
(-0.0860835 0.0254321 2.55622e-20)
(-0.0891124 0.0239359 2.40517e-20)
(-0.0917712 0.0224624 2.25791e-20)
(-0.09405 0.0210611 0)
(-0.0959493 0.0197905 -3.98355e-20)
(-0.0974838 0.018717 0)
(-0.0986951 0.0179102 0)
(-0.0996462 0.017432 -6.55405e-20)
(-0.100334 0.0173385 -9.96155e-24)
(-0.100871 0.0177001 -8.62243e-20)
(-0.000943119 0.00402203 1.70135e-20)
(-0.00309846 0.0109635 3.51702e-20)
(-0.00596376 0.0169576 3.36683e-20)
(-0.00935571 0.0220843 -3.21085e-20)
(-0.0131753 0.0264039 0)
(-0.0173563 0.0299711 0)
(-0.0218282 0.0328424 2.78521e-20)
(-0.0265206 0.0350745 -2.65407e-20)
(-0.0313671 0.0367234 -3.89729e-23)
(-0.0363051 0.0378444 4.79334e-20)
(-0.0412759 0.038491 0)
(-0.0462248 0.0387151 4.30187e-20)
(-0.0511011 0.0385658 0)
(-0.0558581 0.0380894 0)
(-0.0604524 0.0373289 1.73401e-23)
(-0.0648442 0.0363241 3.44342e-20)
(-0.0689963 0.0351118 -3.25234e-20)
(-0.0728739 0.0337265 6.13407e-20)
(-0.0764444 0.0322012 -2.89044e-20)
(-0.0796768 0.0305691 8.15963e-20)
(-0.0825422 0.0288655 0)
(-0.0850142 0.0271299 0)
(-0.0870703 0.0254094 4.52675e-20)
(-0.088694 0.0237607 0)
(-0.0898783 0.0222524 3.98104e-20)
(-0.0906313 0.0209659 -3.73701e-20)
(-0.0909921 0.0199907 3.49991e-20)
(-0.0910302 0.019412 -3.27869e-20)
(-0.090726 0.0193139 6.13649e-20)
(-0.0901831 0.0197982 8.62588e-20)
(-0.00114172 0.00444903 0)
(-0.00361449 0.0121383 -3.51702e-20)
(-0.00670475 0.0187902 9.11689e-23)
(-0.0102437 0.0244891 0)
(-0.0141404 0.0292987 -6.15883e-20)
(-0.0183343 0.0332774 -3.53065e-23)
(-0.02276 0.0364859 2.79255e-20)
(-0.0273521 0.0389855 0)
(-0.0320485 0.0408373 2.52407e-20)
(-0.0367906 0.0421016 -4.79332e-20)
(-0.0415229 0.0428372 0)
(-0.0461937 0.0431012 0)
(-0.0507547 0.0429477 -4.08582e-20)
(-0.0551612 0.0424276 3.86271e-20)
(-0.0593711 0.0415885 -3.64976e-20)
(-0.0633455 0.040474 0)
(-0.0670472 0.0391243 -3.26085e-20)
(-0.0704409 0.0375767 -9.2104e-20)
(-0.0734924 0.0358665 -1.34206e-23)
(-0.0761685 0.0340291 -9.82333e-24)
(-0.0784364 0.0321017 2.56349e-20)
(-0.0802649 0.0301265 4.82107e-20)
(-0.081625 0.0281541 -9.05593e-20)
(-0.0824923 0.0262472 4.25418e-20)
(-0.0828512 0.0244847 -7.56524e-24)
(-0.0827005 0.0229636 2.1477e-23)
(-0.082075 0.0217966 2.35035e-23)
(-0.0810518 0.0210994 3.28084e-20)
(-0.0795932 0.0209944 0)
(-0.0777659 0.0216293 0)
(-0.00135545 0.00483952 3.43166e-20)
(-0.00417096 0.0132163 9.98124e-23)
(-0.00750528 0.0204771 9.92098e-23)
(-0.0112044 0.0267087 -6.46917e-20)
(-0.0151856 0.0319769 6.16285e-20)
(-0.0193935 0.0363427 0)
(-0.0237682 0.0398702 0)
(-0.0282492 0.0426243 5.33151e-20)
(-0.0327788 0.0446704 -5.06255e-20)
(-0.0373022 0.0460733 3.88322e-23)
(-0.0417675 0.0468966 9.12525e-20)
(-0.0461259 0.0472018 4.32358e-20)
(-0.0503318 0.0470478 -8.18447e-20)
(-0.0543422 0.0464899 3.87006e-20)
(-0.0581167 0.0455794 3.66046e-20)
(-0.0616169 0.0443636 -3.45513e-20)
(-0.064806 0.0428856 6.51806e-20)
(-0.067648 0.041185 9.23333e-20)
(-0.070107 0.0392991 5.80235e-20)
(-0.0721472 0.0372643 2.72995e-20)
(-0.0737323 0.0351188 -5.1342e-20)
(-0.0748254 0.0329062 0)
(-0.0753905 0.0306792 3.41791e-23)
(-0.0753947 0.0285052 4.2616e-20)
(-0.0748116 0.0264718 3.9909e-20)
(-0.0736288 0.0246921 -7.48908e-20)
(-0.0718731 0.0233051 -3.50615e-20)
(-0.0696313 0.0224649 6.56249e-20)
(-0.0668514 0.0223435 0)
(-0.0634971 0.0231511 -5.74343e-20)
(-0.00158154 0.00519163 3.43919e-20)
(-0.00476087 0.0141922 -7.08422e-20)
(-0.00835561 0.0220095 2.2379e-23)
(-0.0122263 0.028731 -9.79065e-23)
(-0.0162983 0.0344232 0)
(-0.0205212 0.0391489 0)
(-0.02484 0.0429742 0)
(-0.0291992 0.0459673 -5.34467e-20)
(-0.0335453 0.048197 5.07505e-20)
(-0.0378273 0.049732 -4.81411e-20)
(-0.0419969 0.05064 -9.13853e-20)
(-0.0460083 0.0509867 -2.62367e-23)
(-0.0498182 0.0508352 8.20469e-20)
(-0.0533857 0.0502446 3.88309e-20)
(-0.0566717 0.04927 0)
(-0.0596386 0.0479618 -6.93162e-20)
(-0.0622496 0.0463655 9.80899e-20)
(-0.0644678 0.0445228 -9.23706e-20)
(-0.0662559 0.042472 -5.8052e-20)
(-0.0675752 0.0402502 -1.64019e-19)
(-0.0683853 0.0378956 -3.12127e-24)
(-0.0686438 0.0354515 5.33596e-24)
(-0.0683072 0.032971 3.2672e-23)
(-0.0673328 0.0305241 -8.51831e-20)
(-0.0656827 0.0282053 1.19928e-19)
(-0.0633301 0.0261426 -5.43986e-23)
(-0.0602892 0.0245036 0)
(-0.0566599 0.0234889 -6.56237e-20)
(-0.0523948 0.0233311 6.13711e-20)
(-0.0472154 0.0243219 5.76752e-20)
(-0.00181721 0.00550421 0)
(-0.00537716 0.0150622 -3.55815e-20)
(-0.00924585 0.0233811 3.39935e-20)
(-0.0132979 0.0305467 6.49818e-20)
(-0.0174657 0.0366254 3.10712e-20)
(-0.0217037 0.0416805 -5.91204e-20)
(-0.0259616 0.0457798 -6.25045e-23)
(-0.030188 0.0489937 -5.355e-20)
(-0.0343338 0.0513938 0)
(-0.0383517 0.0530521 4.83784e-20)
(-0.0421964 0.0540399 0)
(-0.0458252 0.0544269 0)
(-0.049197 0.0542796 -8.21945e-20)
(-0.0522728 0.0536609 -7.77105e-20)
(-0.0550147 0.052629 1.10275e-19)
(-0.0573857 0.0512372 6.93156e-20)
(-0.0593487 0.0495334 7.08489e-23)
(-0.0608659 0.0475606 -6.17147e-20)
(-0.0618982 0.0453581 1.16264e-19)
(-0.0624038 0.0429626 4.22118e-24)
(-0.0623381 0.0404114 1.03029e-19)
(-0.0616528 0.0377462 0)
(-0.0602966 0.0350188 0)
(-0.0582163 0.0322989 8.53596e-20)
(-0.0553613 0.0296847 -1.19928e-19)
(-0.051688 0.0273171 1.12406e-19)
(-0.0471915 0.0253928 -7.01711e-20)
(-0.0419867 0.0241626 6.56483e-20)
(-0.0360846 0.0239355 -1.22738e-19)
(-0.0287437 0.0251714 5.77202e-20)
(-0.00205977 0.0057768 -3.47127e-20)
(-0.00601296 0.0158245 0)
(-0.0101662 0.0245876 0)
(-0.0144072 0.0321491 -6.5341e-20)
(-0.0186748 0.0385739 1.2462e-19)
(-0.0229272 0.0439253 -5.9304e-20)
(-0.0271182 0.0482717 -9.93261e-23)
(-0.0312006 0.0516852 5.37037e-20)
(-0.0351288 0.0542398 0)
(-0.0388588 0.0560102 7.27451e-23)
(-0.0423485 0.0570709 1.93836e-23)
(-0.0455576 0.0574948 -8.70292e-20)
(-0.0484474 0.0573519 -1.50057e-22)
(-0.0509801 0.0567084 -3.89614e-20)
(-0.053119 0.0556255 -1.10442e-19)
(-0.0548271 0.0541589 6.95271e-20)
(-0.0560669 0.0523586 -6.55778e-20)
(-0.0567993 0.0502689 1.23729e-19)
(-0.0569827 0.0479295 -1.16543e-19)
(-0.0565722 0.0453765 -1.09661e-19)
(-0.0555185 0.0426455 3.22788e-23)
(-0.0537671 0.0397754 -4.84733e-20)
(-0.0512585 0.0368144 4.5497e-20)
(-0.0479288 0.0338293 5.53389e-23)
(-0.0437132 0.030918 -1.20149e-19)
(-0.0385499 0.0282299 -7.50133e-20)
(-0.0324089 0.0259872 1.40363e-19)
(-0.0254073 0.0244838 -1.31294e-19)
(-0.0176649 0.0241213 6.13664e-20)
(-0.00795588 0.0258954 7.76268e-23)
(-0.0023067 0.00600959 1.04302e-19)
(-0.00666167 0.0164787 -3.57843e-20)
(-0.0111073 0.0256274 -6.85502e-20)
(-0.0155428 0.0335344 1.96331e-19)
(-0.0199123 0.0402625 2.10565e-22)
(-0.0241772 0.0458741 0)
(-0.0282945 0.0504378 0)
(-0.0322205 0.0540269 5.38886e-20)
(-0.0359126 0.0567171 -5.11045e-20)
(-0.0393298 0.0585856 4.85617e-20)
(-0.0424328 0.0597096 -4.60563e-20)
(-0.0451833 0.060165 -8.73622e-20)
(-0.0475442 0.0600248 1.6504e-19)
(-0.0494792 0.0593582 -3.90345e-20)
(-0.0509517 0.0582292 7.36297e-20)
(-0.0519246 0.056696 -1.39305e-19)
(-0.0523593 0.0548103 -1.21125e-23)
(-0.0522147 0.0526178 4.95475e-23)
(-0.0514464 0.0501581 1.16643e-19)
(-0.0500053 0.0474668 -4.33698e-23)
(-0.0478371 0.0445772 0)
(-0.0448808 0.0415244 0)
(-0.041068 0.0383516 -4.56394e-20)
(-0.0363238 0.0351195 -1.70936e-19)
(-0.030569 0.0319215 1.20186e-19)
(-0.0237224 0.0289088 -4.35692e-23)
(-0.0157319 0.0263208 -1.40402e-19)
(-0.00670152 0.0244902 1.31209e-19)
(0.00330796 0.0239736 -6.14009e-20)
(0.0154531 0.0263088 5.71939e-20)
(-0.00255569 0.00620341 0)
(-0.00731718 0.0170261 0)
(-0.01206 0.026501 6.89032e-20)
(-0.0166932 0.0347016 -1.3128e-19)
(-0.0211651 0.0416879 8.45169e-23)
(-0.0254389 0.0475209 -5.97283e-20)
(-0.0294741 0.0522692 1.70604e-19)
(-0.0332296 0.0560067 -1.62206e-19)
(-0.0366655 0.0588106 -3.96389e-24)
(-0.0397432 0.0607602 -4.8699e-20)
(-0.0424252 0.0619352 -1.38638e-19)
(-0.0446751 0.062414 1.31075e-19)
(-0.046457 0.0622727 0)
(-0.0477349 0.061583 0)
(-0.0484724 0.0604116 7.38518e-20)
(-0.0486311 0.058819 1.39651e-19)
(-0.0481706 0.0568587 -6.58283e-20)
(-0.0470469 0.0545776 0)
(-0.0452117 0.0520158 -5.84369e-20)
(-0.0426113 0.049208 1.08193e-23)
(-0.039185 0.0461852 -5.17798e-20)
(-0.0348645 0.0429785 0)
(-0.0295723 0.0396249 -4.56981e-20)
(-0.0232222 0.0361767 4.28112e-20)
(-0.0157198 0.032718 -8.0121e-20)
(-0.00696416 0.0293944 2.2519e-19)
(0.00311923 0.0264526 -8.92239e-23)
(0.0144398 0.0242644 6.56168e-20)
(0.0270403 0.0235577 0)
(0.0421169 0.0262529 -5.75866e-20)
(-0.00280474 0.00635969 -7.01775e-20)
(-0.00797395 0.0174694 7.21446e-20)
(-0.013016 0.0272111 1.56061e-22)
(-0.0178477 0.0356522 -6.59058e-20)
(-0.02242 0.0428496 0)
(-0.0266968 0.0488628 -1.19952e-19)
(-0.0306394 0.05376 8.39687e-23)
(-0.0342082 0.0576157 5.40419e-20)
(-0.0373653 0.0605084 3.54333e-24)
(-0.0400736 0.0625191 -2.05781e-24)
(-0.0422972 0.0637298 1.38757e-19)
(-0.0440006 0.0642215 4.38387e-20)
(-0.0451485 0.0640727 4.15769e-20)
(-0.0457047 0.0633578 -7.84252e-20)
(-0.0456315 0.0621461 7.40829e-20)
(-0.0448888 0.0605001 -6.98569e-20)
(-0.043433 0.0584755 6.59474e-20)
(-0.0412163 0.0561204 -6.21562e-20)
(-0.0381851 0.0534755 0)
(-0.0342793 0.0505752 -5.51621e-20)
(-0.0294311 0.0474487 1.03478e-19)
(-0.0235635 0.0441233 4.86902e-20)
(-0.016589 0.0406294 -4.57335e-20)
(-0.00840943 0.0370094 1.71334e-19)
(0.00108406 0.0333347 -4.01571e-20)
(0.0120127 0.0297369 7.51191e-20)
(0.0244765 0.0264568 -7.01226e-20)
(0.0383971 0.0238922 8.6518e-23)
(0.0538868 0.0229263 0)
(0.072452 0.0259406 -1.13801e-19)
(-0.00305216 0.00648036 -1.14932e-22)
(-0.00862707 0.0178126 -7.24461e-20)
(-0.0139675 0.0277621 0)
(-0.0189958 0.0363899 -6.63104e-20)
(-0.0236637 0.0437498 6.31288e-20)
(-0.0279351 0.0498997 -9.64041e-23)
(-0.0317714 0.0549076 0)
(-0.0351341 0.0588485 -8.57424e-23)
(-0.0379862 0.0618019 -5.15557e-20)
(-0.0402916 0.0638508 4.89844e-20)
(-0.0420149 0.0650791 0)
(-0.0431209 0.0655703 -8.78924e-20)
(-0.0435738 0.0654053 8.33577e-20)
(-0.0433363 0.0646612 0)
(-0.0423685 0.0634093 0)
(-0.0406271 0.0617148 0)
(-0.0380642 0.0596353 0)
(-0.0346263 0.0572206 6.22445e-20)
(-0.0302531 0.0545126 -5.86252e-20)
(-0.0248764 0.0515459 1.65364e-19)
(-0.0184194 0.0483487 -1.03693e-19)
(-0.0107946 0.0449453 -9.7313e-20)
(-0.00190349 0.0413606 1.37109e-19)
(0.00836477 0.0376272 6.20189e-23)
(0.0201333 0.0338011 -8.03131e-20)
(0.033542 0.0299935 -7.51171e-20)
(0.0487183 0.0264247 -7.0213e-20)
(0.0655953 0.0234904 1.31099e-19)
(0.084306 0.0221884 -1.22176e-19)
(0.106953 0.0255422 2.27246e-19)
(-0.00329662 0.00656777 1.41482e-19)
(-0.00927237 0.0180608 -1.3286e-22)
(-0.0149075 0.0281601 -1.39297e-19)
(-0.0201272 0.0369207 1.32884e-19)
(-0.0248829 0.0443931 -6.34796e-20)
(-0.0291367 0.0506345 -6.03462e-20)
(-0.0328495 0.0557124 5.74128e-20)
(-0.0359825 0.0597026 5.45556e-20)
(-0.0384989 0.062686 -1.03682e-19)
(-0.0403625 0.0647473 -1.4751e-19)
(-0.0415378 0.0659726 -4.65213e-20)
(-0.0419887 0.0664475 1.76247e-19)
(-0.041678 0.0662554 -2.4995e-19)
(-0.040566 0.0654758 7.87835e-20)
(-0.0386094 0.0641826 0)
(-0.03576 0.0624432 0)
(-0.0319639 0.0603177 0)
(-0.0271603 0.0578578 1.24723e-19)
(-0.0212799 0.0551074 -5.87088e-20)
(-0.0142445 0.052102 -5.52946e-20)
(-0.00596576 0.0488702 -1.03804e-19)
(0.00365589 0.045435 9.74926e-20)
(0.0147321 0.0418173 -4.57723e-20)
(0.027387 0.0380415 -8.5849e-20)
(0.0417574 0.0341486 -1.00208e-22)
(0.0579987 0.0302253 -1.50165e-19)
(0.0762656 0.0264586 2.1061e-19)
(0.0965015 0.0232087 -1.9675e-19)
(0.118794 0.021518 6.14168e-20)
(0.146187 0.0252285 -5.65278e-20)
(-0.00353713 0.00662461 -7.08961e-20)
(-0.0099063 0.01822 7.29475e-20)
(-0.0158293 0.0284126 6.97325e-20)
(-0.0212322 0.037252 -2.00128e-19)
(-0.0260638 0.0447864 6.3476e-20)
(-0.0302836 0.0510723 6.05702e-20)
(-0.0338505 0.0561777 0)
(-0.036725 0.0601792 0)
(-0.038869 0.0631595 5.18787e-20)
(-0.0402454 0.0652051 9.83932e-20)
(-0.0408175 0.0664042 -1.86795e-19)
(-0.0405473 0.0668449 -8.70479e-23)
(-0.0393948 0.066613 0)
(-0.0373166 0.0657903 0)
(-0.0342641 0.0644533 -7.4506e-20)
(-0.030183 0.0626722 3.74475e-23)
(-0.0250111 0.0605093 6.62954e-20)
(-0.0186779 0.0580192 -6.23891e-20)
(-0.0111032 0.0552481 -1.176e-19)
(-0.00219615 0.0522339 1.10492e-19)
(0.00814544 0.0490069 5.19259e-20)
(0.0200356 0.0455908 -1.46413e-19)
(0.0336006 0.042005 -9.14731e-20)
(0.048979 0.0382689 8.59557e-20)
(0.0663202 0.0344113 8.04389e-20)
(0.0857909 0.0304946 7.51418e-20)
(0.107568 0.0266652 0)
(0.131609 0.023216 0)
(0.157851 0.0211288 1.2183e-19)
(0.190726 0.0252209 0)
(-0.00377305 0.00665371 7.15405e-20)
(-0.0105259 0.0182965 -7.34386e-20)
(-0.0167271 0.028528 1.40489e-19)
(-0.0223007 0.0373929 -2.78949e-22)
(-0.0271917 0.0449383 0)
(-0.0313556 0.0512208 0)
(-0.0347486 0.0563096 0)
(-0.0373288 0.0602827 -5.49132e-20)
(-0.0390562 0.0632248 5.21426e-20)
(-0.0398918 0.0652247 0)
(-0.0397963 0.0663729 9.34739e-20)
(-0.0387285 0.06676 8.86045e-20)
(-0.0366443 0.0664743 -8.37671e-20)
(-0.0334946 0.0656001 7.91331e-20)
(-0.0292243 0.0642168 -9.47945e-23)
(-0.0237702 0.0623971 -7.04501e-20)
(-0.0170602 0.0602065 -6.64191e-20)
(-0.00901161 0.0577026 1.87583e-19)
(0.00046939 0.0549349 5.87433e-20)
(0.0114887 0.0519448 -1.10694e-19)
(0.0241646 0.0487659 -5.196e-20)
(0.0386277 0.0454248 4.87944e-20)
(0.0550204 0.0419427 0)
(0.0734954 0.0383378 -8.58332e-20)
(0.0942134 0.0346317 -8.03452e-20)
(0.117346 0.030867 0)
(0.143084 0.0271496 6.99754e-20)
(0.171404 0.0236868 -1.31077e-19)
(0.201944 0.0212546 -1.82886e-19)
(0.241077 0.0257926 0)
(-0.00400401 0.006658 -1.43246e-19)
(-0.0111288 0.0182972 7.3926e-20)
(-0.0175948 0.0285149 -1.40968e-19)
(-0.0233222 0.037353 -2.88034e-22)
(-0.0282507 0.0448585 0)
(-0.0323305 0.0510894 0)
(-0.0355141 0.0561165 5.81449e-20)
(-0.0377562 0.0600205 1.10437e-19)
(-0.0390137 0.0628883 0)
(-0.0392446 0.0648114 0)
(-0.0384056 0.0658833 -1.8781e-19)
(-0.036451 0.0661968 8.89085e-20)
(-0.0333307 0.0658431 -1.40163e-22)
(-0.0289885 0.0649095 0)
(-0.02336 0.0634779 -3.23082e-23)
(-0.0163716 0.0616244 7.05691e-20)
(-0.00793827 0.0594179 -1.60084e-22)
(0.00203691 0.0569196 -2.50383e-19)
(0.0136639 0.0541833 -5.89152e-20)
(0.027066 0.051255 1.10691e-19)
(0.0423794 0.0481734 1.03968e-19)
(0.0597525 0.04497 -8.64455e-23)
(0.0793437 0.0416707 9.16024e-20)
(0.101319 0.038297 1.71653e-19)
(0.125846 0.0348692 8.03421e-20)
(0.153093 0.0314178 7.50676e-20)
(0.183247 0.0280158 6.99013e-20)
(0.216327 0.0247899 1.30325e-19)
(0.251454 0.0221296 -7.58457e-22)
(0.297601 0.0272482 5.50015e-20)
(-0.00422985 0.0066403 1.44283e-19)
(-0.0117126 0.0182285 -2.2228e-19)
(-0.0184265 0.0283823 1.41603e-19)
(-0.0242855 0.0371426 1.35119e-19)
(-0.029223 0.044558 6.43634e-20)
(-0.0331828 0.0506889 -4.0941e-23)
(-0.0361126 0.0556094 -5.80545e-20)
(-0.0379629 0.0594031 -1.10436e-19)
(-0.0386864 0.0621604 2.38247e-22)
(-0.0382363 0.0639759 1.98865e-19)
(-0.0365644 0.0649458 -9.44503e-20)
(-0.0336185 0.0651665 1.78096e-19)
(-0.0293408 0.0647319 -1.08123e-22)
(-0.0236657 0.0637323 -1.58847e-19)
(-0.0165177 0.0622532 -1.60409e-23)
(-0.00780979 0.0603739 0)
(0.00255784 0.0581673 3.32687e-19)
(0.014699 0.0556994 6.25435e-20)
(0.0287419 0.0530289 0)
(0.0448286 0.0502076 5.53621e-20)
(0.0631143 0.0472805 -5.20734e-20)
(0.0837646 0.0442864 1.95276e-19)
(0.106952 0.0412585 -2.74784e-19)
(0.132851 0.0382251 8.58818e-20)
(0.16163 0.035211 0)
(0.193439 0.0322428 7.49403e-20)
(0.228439 0.0293723 -1.39928e-19)
(0.266716 0.0266831 1.30283e-19)
(0.306619 0.023969 -1.21242e-19)
(0.360417 0.0298943 -1.11398e-19)
(-0.00445052 0.0066032 -1.44803e-19)
(-0.0122751 0.0180965 -3.60861e-22)
(-0.0192154 0.0281387 -7.0963e-20)
(-0.0251779 0.0367719 -6.77088e-20)
(-0.0300882 0.0440479 -1.29439e-19)
(-0.0338832 0.0500316 6.15547e-20)
(-0.0365046 0.0548012 7.95673e-23)
(-0.0378977 0.0584443 -1.11033e-19)
(-0.0380099 0.0610557 -1.5765e-19)
(-0.0367883 0.0627334 1.48214e-22)
(-0.0341778 0.0635777 9.4195e-20)
(-0.0301182 0.0636881 -1.7831e-19)
(-0.0245419 0.0631622 8.43763e-20)
(-0.0173715 0.0620938 7.96579e-20)
(-0.00851807 0.060572 -9.51744e-24)
(0.00212094 0.0586804 7.07939e-20)
(0.0146627 0.0564965 -1.33169e-19)
(0.0292398 0.0540914 0)
(0.0459999 0.0515301 -1.17977e-19)
(0.0651045 0.0488713 1.10863e-19)
(0.0867265 0.0461677 -1.041e-19)
(0.111046 0.0434669 -9.76785e-20)
(0.138244 0.0408112 0)
(0.168495 0.0382381 -2.57173e-19)
(0.201954 0.0357812 1.63318e-22)
(0.238737 0.0334696 -3.74606e-19)
(0.27894 0.0313433 2.10017e-19)
(0.32275 0.029514 -2.60275e-19)
(0.367476 0.0269558 1.21235e-19)
(0.429301 0.0340051 -1.10125e-19)
(-0.00466594 0.00654895 7.25806e-20)
(-0.0128136 0.0179066 7.46343e-20)
(-0.0199538 0.0277918 7.16492e-20)
(-0.0259846 0.0362504 -1.89176e-22)
(-0.0308229 0.0433397 -1.68375e-22)
(-0.0343978 0.0491304 0)
(-0.0366443 0.0537063 0)
(-0.0375015 0.0571604 0)
(-0.0369099 0.0595923 0)
(-0.0348094 0.061105 0)
(-0.0311362 0.0618027 9.45277e-20)
(-0.0258199 0.0617893 -8.93948e-20)
(-0.0187809 0.0611662 8.45817e-20)
(-0.00992788 0.0600314 7.96392e-24)
(0.000844032 0.0584785 -7.5124e-20)
(0.0136551 0.0565958 1.56003e-23)
(0.0286416 0.0544664 -1.33466e-19)
(0.0459561 0.0521675 1.25559e-19)
(0.0657657 0.0497712 1.17974e-19)
(0.0882498 0.047344 -1.10748e-19)
(0.113595 0.0449477 2.08295e-19)
(0.141991 0.0426393 0)
(0.173615 0.0404714 -1.82926e-19)
(0.208626 0.0384918 3.229e-22)
(0.247148 0.0367437 3.84827e-22)
(0.289239 0.0352623 5.64332e-22)
(0.334884 0.0340765 -6.94744e-20)
(0.38438 0.0334202 1.29991e-19)
(0.433811 0.0312357 1.20762e-19)
(0.503593 0.039789 5.72502e-20)
(-0.00487584 0.00647929 0)
(-0.0133246 0.0176631 7.5194e-20)
(-0.0206325 0.0273482 -7.14701e-20)
(-0.0266882 0.035587 -1.34801e-22)
(-0.0313994 0.0424444 1.30493e-19)
(-0.0346871 0.0479986 -6.2104e-20)
(-0.0364787 0.0523407 0)
(-0.0367058 0.0555702 0)
(-0.035301 0.0577928 -1.05933e-19)
(-0.0321953 0.0591168 1.00494e-19)
(-0.0273142 0.0596519 9.5092e-20)
(-0.020575 0.0595064 0)
(-0.011884 0.0587867 8.47983e-20)
(-0.00113356 0.0575957 0)
(0.0117992 0.0560322 -1.50477e-19)
(0.0270538 0.0541901 2.12759e-19)
(0.0447869 0.0521589 2.00234e-19)
(0.0651704 0.0500231 -6.28132e-20)
(0.0883892 0.0478625 -1.17242e-22)
(0.114636 0.0457527 -1.66396e-19)
(0.144105 0.0437646 0)
(0.17698 0.0419651 0)
(0.213423 0.0404167 9.15069e-20)
(0.253554 0.0391765 1.71151e-19)
(0.297437 0.038296 -1.03514e-22)
(0.34504 0.0378149 1.49608e-19)
(0.396194 0.0377419 1.39459e-19)
(0.451256 0.0385208 0)
(0.505118 0.0369151 -1.20754e-19)
(0.582126 0.0473558 1.65925e-19)
(-0.00507962 0.00639537 7.376e-20)
(-0.0138035 0.017369 0)
(-0.0212399 0.0268131 1.61275e-22)
(-0.0272678 0.0347892 -6.88822e-20)
(-0.0317856 0.0413722 6.57349e-20)
(-0.0347056 0.0466497 6.22987e-20)
(-0.035947 0.0507214 -1.11162e-22)
(-0.0354328 0.053695 5.63507e-20)
(-0.0330864 0.0556831 0)
(-0.0288279 0.0568006 -2.01522e-19)
(-0.0225705 0.0571631 2.67044e-22)
(-0.0142171 0.0568849 0)
(-0.00365742 0.0560779 8.50035e-20)
(0.00923414 0.0548507 -2.40271e-19)
(0.0246001 0.0533082 7.55337e-20)
(0.0426004 0.0515514 -7.09515e-20)
(0.0634109 0.0496768 -1.33676e-19)
(0.087221 0.047777 -1.88677e-19)
(0.114228 0.0459404 0)
(0.144631 0.0442515 0)
(0.178617 0.0427908 1.04076e-19)
(0.21635 0.0416339 9.74515e-20)
(0.257949 0.0408511 -9.15486e-20)
(0.303469 0.0405057 0)
(0.352876 0.0406531 0)
(0.406009 0.0413314 0)
(0.462515 0.0425181 1.38851e-19)
(0.522666 0.0448945 -6.43968e-20)
(0.580576 0.0440599 1.21299e-19)
(0.663182 0.0566907 1.07613e-19)
(-0.00527616 0.00629772 -1.47728e-19)
(-0.0142442 0.0170258 7.60417e-20)
(-0.0217618 0.0261899 -7.28156e-20)
(-0.0276987 0.0338632 6.94168e-20)
(-0.0319441 0.0401323 -6.57349e-20)
(-0.0344011 0.0450967 6.25918e-20)
(-0.0349802 0.0488663 -5.95488e-20)
(-0.0335948 0.0515581 -1.12578e-19)
(-0.0301575 0.0532928 1.07073e-19)
(-0.0245759 0.0541932 2.02194e-19)
(-0.016749 0.0543816 9.54101e-20)
(-0.0065631 0.0539793 -9.03496e-20)
(0.00611011 0.0531047 2.20471e-22)
(0.0214159 0.0518735 2.3709e-23)
(0.039517 0.0503977 7.5683e-20)
(0.0605925 0.0487858 0)
(0.0848355 0.0471427 1.33751e-19)
(0.112447 0.0455695 3.14429e-19)
(0.143629 0.0441635 -5.91667e-20)
(0.178572 0.0430178 0)
(0.217438 0.0422205 -2.08134e-19)
(0.260347 0.0418537 -9.75198e-20)
(0.307345 0.0419915 -9.11774e-20)
(0.358384 0.0426976 8.56046e-20)
(0.413292 0.0440243 -7.96176e-20)
(0.471731 0.0459972 7.467e-20)
(0.533157 0.0485678 -3.49893e-22)
(0.597491 0.052552 1.28535e-19)
(0.659011 0.052721 -1.20083e-19)
(0.744429 0.0676792 -2.16517e-19)
(-0.00546365 0.00618613 7.46676e-20)
(-0.0146386 0.0166339 7.64666e-20)
(-0.0221806 0.0254804 -2.38004e-22)
(-0.0279515 0.0328132 4.02341e-22)
(-0.0318314 0.0387332 0)
(-0.0337141 0.0433529 -2.42208e-22)
(-0.0335007 0.0467943 -1.79693e-19)
(-0.0310938 0.0491849 0)
(-0.0263942 0.0506551 -1.07467e-19)
(-0.0192952 0.0513363 -4.05904e-19)
(-0.0096795 0.0513592 9.60255e-20)
(0.0025843 0.0508526 -9.06365e-20)
(0.0176441 0.0499431 -1.70427e-19)
(0.035665 0.0487541 1.61063e-19)
(0.056829 0.0474059 0)
(0.0813316 0.0460157 7.11428e-20)
(0.109377 0.0446969 -2.01185e-19)
(0.141169 0.0435595 -6.29879e-20)
(0.1769 0.0427087 -1.77491e-19)
(0.216732 0.0422445 0)
(0.260779 0.0422598 2.08108e-19)
(0.309083 0.042838 9.75147e-20)
(0.361582 0.0440506 0)
(0.418083 0.045953 8.52833e-20)
(0.478234 0.0485849 0)
(0.541469 0.0519446 -7.4045e-20)
(0.607073 0.0559946 -2.07191e-19)
(0.674268 0.0614059 -2.56701e-19)
(0.7389 0.0630218 -1.18987e-19)
(0.822786 0.0801919 -3.40128e-21)
(-0.00563942 0.00605975 -7.46676e-20)
(-0.014976 0.0161916 2.94363e-22)
(-0.0224751 0.0246847 7.35121e-20)
(-0.0279919 0.0316424 -6.9819e-20)
(-0.031398 0.0371818 -6.65606e-20)
(-0.0325778 0.0414308 1.26269e-19)
(-0.0314222 0.0445246 6.01898e-20)
(-0.0278226 0.0466027 1.14032e-19)
(-0.021666 0.0478063 1.07527e-19)
(-0.0128303 0.0482768 1.0207e-19)
(-0.00118078 0.0481542 1.92795e-19)
(0.0134331 0.0475765 -3.05937e-22)
(0.0311787 0.046679 0)
(0.05224 0.0455943 -8.05131e-20)
(0.0768147 0.0444518 -2.17242e-22)
(0.105109 0.0433777 1.31595e-22)
(0.137329 0.0424943 2.01285e-19)
(0.173666 0.0419192 0)
(0.214282 0.0417639 1.18278e-19)
(0.259288 0.0421317 0)
(0.308717 0.0431147 2.47868e-24)
(0.362494 0.0447905 -9.72605e-20)
(0.420407 0.0472178 1.82351e-19)
(0.482076 0.0504321 -8.55312e-20)
(0.546933 0.0544481 -1.58957e-19)
(0.614157 0.059219 7.42557e-20)
(0.682886 0.0647754 2.75987e-19)
(0.751397 0.0712486 6.38518e-20)
(0.818506 0.0752185 2.95735e-19)
(0.894604 0.0937451 5.62287e-20)
(-0.00579979 0.00591706 7.54104e-20)
(-0.0152434 0.0156964 -1.54765e-19)
(-0.0226201 0.023801 0)
(-0.0277803 0.0303521 0)
(-0.0305878 0.0354846 6.69537e-20)
(-0.0309178 0.039343 -2.66518e-22)
(-0.0286504 0.0420775 -1.20477e-19)
(-0.0236647 0.0438407 -1.1423e-19)
(-0.0158332 0.0447861 4.02163e-22)
(-0.00501709 0.0450661 4.18586e-22)
(0.00893653 0.0448313 -9.64021e-20)
(0.0261971 0.0442299 1.8186e-19)