/*--------------------------------*- C++ -*----------------------------------*\
  =========                 |
  \\      /  F ield         | OpenFOAM: The Open Source CFD Toolbox
   \\    /   O peration     | Website:  https://openfoam.org
    \\  /    A nd           | Version:  7
     \\/     M anipulation  |
\*---------------------------------------------------------------------------*/
FoamFile
{
    version     2.0;
    format      ascii;
    class       volVectorField;
    location    "15";
    object      U;
}
// * * * * * * * * * * * * * * * * * * * * * * * * * * * * * * * * * * * * * //

dimensions      [0 1 -1 0 0 0 0];

internalField   nonuniform List<vector> 
2304
(
(-0.00428829 0.00310619 -2.94603e-20)
(-0.0139486 0.00471186 -4.7121e-20)
(-0.0251103 0.00406709 1.63363e-20)
(-0.0323301 0.00231822 2.51467e-20)
(-0.0341235 -1.0866e-05 -7.57195e-20)
(-0.030144 -0.00263728 -3.10224e-20)
(-0.0203523 -0.0053755 -8.98571e-20)
(-0.00502701 -0.0080043 3.23762e-20)
(0.0153956 -0.0100818 3.15848e-20)
(0.0390789 -0.0105863 1.05505e-20)
(-0.00506503 0.00887151 -4.2937e-20)
(-0.0139012 0.0133013 -4.05187e-20)
(-0.0222602 0.0113013 3.16302e-20)
(-0.0256509 0.00614916 9.09663e-20)
(-0.0229285 -0.000639485 7.63484e-20)
(-0.0139197 -0.00825552 1.09622e-19)
(0.00127798 -0.0161579 3.30561e-20)
(0.0222732 -0.0237392 -2.04002e-20)
(0.04872 -0.0297546 9.3883e-21)
(0.0793609 -0.0311181 -1.62065e-20)
(-0.00634809 0.013364 6.41426e-21)
(-0.0133003 0.0195033 4.436e-20)
(-0.0160188 0.0159609 1.23241e-19)
(-0.0117978 0.00767908 -5.60016e-20)
(-0.000151014 -0.00300136 1.2027e-19)
(0.0187612 -0.0148101 1.01462e-19)
(0.0445764 -0.0269381 9.36969e-20)
(0.0766093 -0.0385354 -5.90865e-20)
(0.114567 -0.0477469 -1.4506e-19)
(0.158607 -0.0493902 -4.2899e-20)
(-0.00763685 0.0159468 2.13345e-19)
(-0.0111805 0.0220961 2.9399e-19)
(-0.00533381 0.0167471 -5.9033e-20)
(0.010193 0.00578239 -2.44502e-19)
(0.0349778 -0.00786754 -4.43622e-19)
(0.068352 -0.0225745 -1.34159e-19)
(0.109527 -0.0373782 -1.92693e-20)
(0.157327 -0.0513717 -3.40434e-19)
(0.211168 -0.0623939 -1.80398e-19)
(0.273757 -0.0629823 7.00877e-20)
(-0.00826167 0.0162439 -2.00489e-20)
(-0.00620901 0.0203878 -1.89646e-19)
(0.0113058 0.0129594 -2.81026e-20)
(0.041734 -4.29714e-05 -7.81542e-20)
(0.0835554 -0.0153909 -2.13399e-20)
(0.135398 -0.0312577 1.48717e-19)
(0.195837 -0.0466228 -6.1961e-20)
(0.262968 -0.0607202 -1.61795e-19)
(0.335303 -0.0715368 1.23159e-19)
(0.419036 -0.0687221 3.70275e-20)
(-0.00744277 0.0142001 2.44039e-19)
(0.00320649 0.0143032 9.63937e-20)
(0.0357238 0.0046628 2.96585e-19)
(0.0845455 -0.00944924 -1.52112e-19)
(0.146848 -0.0248688 -3.56227e-20)
(0.220301 -0.0397458 4.69027e-20)
(0.302525 -0.0531145 -3.01746e-19)
(0.390586 -0.064511 -1.94683e-19)
(0.481518 -0.0725372 1.57137e-19)
(0.584445 -0.063198 1.20303e-19)
(-0.00439169 0.010048 -7.0898e-19)
(0.0187586 0.00440339 -4.53699e-20)
(0.0698749 -0.00718885 -4.03235e-19)
(0.140375 -0.0210813 -1.75316e-19)
(0.225901 -0.0345608 -3.80147e-19)
(0.32282 -0.0459784 4.05094e-19)
(0.427355 -0.0546045 -2.2594e-19)
(0.53516 -0.0603722 8.19045e-21)
(0.641649 -0.062457 -9.07797e-20)
(0.754944 -0.044206 4.26579e-19)
(0.00165688 0.00426223 -3.75753e-19)
(0.042054 -0.00809215 -2.77511e-19)
(0.115522 -0.020759 -8.49812e-19)
(0.210526 -0.0325936 -4.19158e-20)
(0.320901 -0.0417631 7.59957e-20)
(0.441291 -0.0471565 -2.54713e-19)
(0.566128 -0.0485877 -5.78227e-19)
(0.689508 -0.0464315 -1.22923e-19)
(0.805814 -0.0396414 -1.13805e-19)
(0.914274 -0.0160095 1.32252e-19)
(0.011396 -0.00246592 2.47719e-19)
(0.0744035 -0.021403 1.46221e-19)
(0.173823 -0.0334685 1.14923e-19)
(0.295255 -0.0408651 -2.82033e-20)
(0.430372 -0.0431667 -5.6389e-19)
(0.571689 -0.0402831 -9.53124e-19)
(0.711713 -0.0330138 2.38868e-20)
(0.843516 -0.0223265 -1.84861e-19)
(0.962255 -0.00710478 -2.76113e-19)
(1.05466 0.00610162 2.86988e-20)
(0.0253769 -0.00926536 -1.95157e-19)
(0.116594 -0.0333215 -2.1697e-19)
(0.244921 -0.0422422 -6.46307e-20)
(0.393213 -0.0424208 -1.23814e-19)
(0.550643 -0.035459 -2.06497e-19)
(0.707382 -0.022852 -2.55904e-19)
(0.854226 -0.00687873 2.56545e-19)
(0.983693 0.0102098 -1.91248e-19)
(1.09133 0.0271257 -2.76497e-19)
(1.17076 0.0328978 2.02296e-19)
(0.0439259 -0.0151186 1.24364e-19)
(0.168641 -0.0413782 1.06776e-19)
(0.327603 -0.0438802 -1.06495e-19)
(0.501168 -0.0340272 -1.36931e-19)
(0.675936 -0.0160945 -4.30692e-20)
(0.840097 0.00638745 -2.93608e-19)
(0.983793 0.0295479 -6.17256e-20)
(1.10055 0.0501634 4.18876e-19)
(1.18794 0.0660372 1.88261e-19)
(1.24547 0.0711567 1.94309e-19)
(0.067053 -0.018906 9.98431e-20)
(0.229597 -0.0430658 -5.96129e-20)
(0.419143 -0.0355046 -2.53955e-19)
(0.61411 -0.0133318 1.29544e-19)
(0.799035 0.0159857 4.38949e-19)
(0.961358 0.0467745 2.35555e-19)
(1.09248 0.0739975 -2.52513e-19)
(1.189 0.094347 9.69414e-20)
(1.25241 0.106282 -3.00886e-19)
(1.28679 0.107995 -1.8152e-19)
(0.0943554 -0.019475 -2.22235e-19)
(0.297448 -0.036112 9.26878e-20)
(0.515399 -0.0150008 2.67774e-19)
(0.725793 0.0206633 -2.50151e-19)
(0.912442 0.0600993 2.74518e-19)
(1.06409 0.0959782 1.83472e-19)
(1.17567 0.123125 2.41019e-19)
(1.24852 0.139346 2.55187e-19)
(1.28869 0.144899 -1.24728e-19)
(1.30383 0.141358 1.87386e-20)
(0.124953 -0.0157507 1.91497e-19)
(0.369149 -0.0187803 -3.24056e-19)
(0.611186 0.0186226 4.34165e-20)
(0.829607 0.0674075 -2.22823e-19)
(1.00964 0.11404 2.75797e-19)
(1.14376 0.150718 2.55133e-19)
(1.23231 0.173544 1.97463e-20)
(1.28197 0.182532 -7.57425e-20)
(1.30264 0.180245 -9.54416e-20)
(1.30383 0.170549 -6.09177e-20)
(0.157481 -0.00687709 -3.11127e-20)
(0.440832 0.00984224 1.84187e-19)
(0.700862 0.0650263 -4.71833e-20)
(0.919514 0.124911 1.2174e-19)
(1.08601 0.174609 -8.13336e-21)
(1.19868 0.207544 1.39551e-19)
(1.26412 0.222497 -3.95842e-20)
(1.2938 0.222323 -5.10782e-20)
(1.29999 0.211795 1.36777e-19)
(1.29234 0.19601 -4.40859e-20)
(0.190157 0.00763359 -5.0672e-20)
(0.508153 0.0496269 1.03578e-19)
(0.779 0.122528 -2.11343e-20)
(0.990776 0.190092 4.80173e-20)
(1.13911 0.238211 -3.3676e-20)
(1.22945 0.263367 7.82486e-20)
(1.27433 0.268009 -5.48566e-20)
(1.28862 0.257885 -2.82084e-20)
(1.28533 0.239448 2.80697e-20)
(1.2731 0.218054 -1.77783e-20)
(0.220921 0.0277715 4.78898e-20)
(0.566744 0.0993052 -9.73237e-20)
(0.840988 0.188278 -2.27824e-20)
(1.04035 0.259219 -4.09898e-20)
(1.16853 0.301321 3.16033e-20)
(1.23816 0.315658 -6.08408e-20)
(1.26656 0.308737 3.97165e-20)
(1.27032 0.288762 1.77106e-20)
(1.26188 0.263134 -2.07183e-20)
(1.24829 0.236817 1.28609e-20)
(0.247625 0.0529494 1.01593e-19)
(0.612678 0.156517 6.27434e-20)
(0.88347 0.258567 1.66618e-20)
(1.06694 0.328333 -3.60128e-20)
(1.17536 0.360749 5.66159e-21)
(1.22766 0.362432 -8.91495e-20)
(1.24425 0.343752 2.54828e-20)
(1.24198 0.314643 2.70442e-20)
(1.2318 0.28273 1.23169e-20)
(1.21898 0.252226 -1.31782e-20)
(0.268261 0.0819916 -1.87364e-20)
(0.642869 0.217994 3.16361e-20)
(0.904567 0.329199 -7.29813e-20)
(1.07079 0.393568 1.36984e-19)
(1.16174 0.413734 -3.30648e-20)
(1.20102 0.40213 -3.63841e-21)
(1.21044 0.372344 -4.86826e-22)
(1.20598 0.33526 1.18263e-20)
(1.19664 0.298189 -4.28712e-21)
(1.18602 0.264161 4.81207e-21)
(0.281177 0.113199 -4.14941e-20)
(0.655373 0.279845 -4.14623e-20)
(0.903923 0.395848 2.09371e-19)
(1.05342 0.451389 2.80018e-19)
(1.1304 0.45796 -1.44868e-19)
(1.16123 0.433485 -3.47699e-20)
(1.16776 0.393875 -3.18832e-20)
(1.1642 0.350212 -9.2102e-21)
(1.1576 0.309238 6.93291e-22)
(1.15064 0.272313 3.41073e-21)
(0.285275 0.144485 -2.5572e-20)
(0.649573 0.337895 3.64628e-20)
(0.882561 0.454371 9.6434e-20)
(1.01728 0.498771 -5.01227e-20)
(1.08432 0.491561 -9.9801e-20)
(1.11123 0.455449 6.18789e-21)
(1.11846 0.407711 -5.00982e-20)
(1.11816 0.359064 1.98964e-20)
(1.11572 0.315214 -7.62038e-20)
(1.11368 0.276252 -9.70845e-20)
(0.280142 0.173541 -2.55415e-19)
(0.626212 0.388087 -1.15905e-20)
(0.842531 0.500982 9.96213e-20)
(0.965353 0.533175 2.85714e-20)
(1.02684 0.51313 1.44725e-20)
(1.05383 0.467214 -3.42525e-20)
(1.06459 0.413386 9.19698e-21)
(1.06926 0.361372 1.08028e-19)
(1.07203 0.315674 9.15502e-20)
(1.07567 0.275539 9.75158e-20)
(0.266036 0.197956 1.16688e-19)
(0.587021 0.42677 -3.70952e-20)
(0.786885 0.532783 -1.87317e-20)
(0.901266 0.552513 -1.62608e-20)
(0.961305 0.521507 -5.90552e-20)
(0.991634 0.468248 -8.23226e-20)
(1.00811 0.410522 1.19117e-19)
(1.019 0.356812 -4.24723e-20)
(1.0278 0.310392 -1.64785e-19)
(1.03755 0.270429 -5.83658e-20)
(0.243919 0.215547 -8.41686e-20)
(0.53474 0.450672 -5.14961e-20)
(0.71953 0.547406 -8.65522e-20)
(0.828915 0.555594 -2.44512e-20)
(0.890877 0.516064 -2.37379e-19)
(0.927082 0.458147 -4.75459e-19)
(0.95083 0.398735 1.39891e-20)
(0.96888 0.344888 -1.37142e-19)
(0.98446 0.298775 -2.27204e-19)
(1.00011 0.261402 2.24214e-19)
(0.215442 0.224598 4.21634e-20)
(0.473074 0.457591 -1.32204e-19)
(0.644666 0.543364 -3.33493e-19)
(0.75214 0.54177 -1.77081e-20)
(0.81868 0.496622 2.81753e-20)
(0.862488 0.436841 -2.3806e-19)
(0.894426 0.377881 -1.75309e-19)
(0.920215 0.325251 -1.67661e-19)
(0.943052 0.279247 -7.74866e-20)
(0.96155 0.241179 2.73168e-19)
(0.1827 0.223851 1.07611e-19)
(0.406176 0.446268 -4.67042e-20)
(0.566708 0.520118 4.28485e-19)
(0.674793 0.511078 -1.91608e-19)
(0.74773 0.463487 -4.08708e-20)
(0.800075 0.404708 7.33825e-20)
(0.840543 0.348436 -5.84244e-19)
(0.874077 0.299049 9.10493e-20)
(0.903285 0.256487 -6.48484e-20)
(0.925507 0.221445 -5.49779e-21)
(0.148122 0.212684 6.90647e-19)
(0.3384 0.416444 1.34716e-19)
(0.490059 0.478027 3.22181e-19)
(0.600584 0.464192 -1.98108e-19)
(0.680911 0.417356 -5.61773e-20)
(0.742038 0.362314 4.55514e-19)
(0.790815 0.31077 -4.59514e-20)
(0.831459 0.266063 -2.49634e-19)
(0.866102 0.227855 2.41228e-19)
(0.892712 0.196341 -1.4643e-19)
(0.114271 0.19116 -5.52385e-19)
(0.274051 0.368882 -8.31163e-20)
(0.418902 0.41831 2.11423e-19)
(0.532945 0.402397 1.23833e-19)
(0.620855 0.359349 -1.94858e-20)
(0.69039 0.310554 -1.71782e-19)
(0.746855 0.265623 2.46661e-19)
(0.793916 0.227029 -3.97307e-19)
(0.833559 0.194285 1.42889e-19)
(0.86478 0.167247 7.22139e-20)
(0.0836387 0.160032 8.58818e-20)
(0.217137 0.305308 1.26643e-19)
(0.357011 0.342974 1.36815e-19)
(0.474913 0.327543 -7.30758e-19)
(0.569858 0.290991 -2.68646e-19)
(0.646844 0.250621 -6.05069e-20)
(0.709954 0.213908 -4.25317e-20)
(0.762477 0.182602 -1.62093e-19)
(0.806461 0.156174 4.69348e-19)
(0.841908 0.13428 1.91717e-19)
(0.0584712 0.120684 2.45361e-19)
(0.171144 0.228312 1.69206e-19)
(0.307602 0.254719 -1.2405e-19)
(0.429042 0.241978 2.20872e-19)
(0.529846 0.21417 -3.38144e-19)
(0.612852 0.184007 8.57762e-21)
(0.681242 0.156818 -2.60495e-20)
(0.738064 0.133753 -6.48595e-20)
(0.785511 0.114345 -7.12745e-20)
(0.824431 0.0981958 3.3212e-21)
(0.0406034 0.0750477 -4.64012e-20)
(0.13886 0.14119 6.85751e-20)
(0.273206 0.156813 6.19132e-20)
(0.397322 0.148457 8.30209e-20)
(0.502316 0.131077 6.6483e-20)
(0.589544 0.112439 -1.74109e-19)
(0.661596 0.0957324 -4.88317e-21)
(0.721384 0.0816083 -2.76703e-20)
(0.771238 0.0697457 -1.21863e-19)
(0.812623 0.0598378 -1.01233e-19)
(0.0313336 0.0254642 -1.54154e-20)
(0.122221 0.0477751 1.06107e-19)
(0.255564 0.0529435 1.34136e-19)
(0.381115 0.0500371 1.36541e-19)
(0.488291 0.0441261 7.89181e-20)
(0.577693 0.0378224 -5.73955e-20)
(0.651619 0.0321876 -1.65404e-19)
(0.712921 0.0274316 2.87764e-20)
(0.764008 0.0234405 -1.38103e-20)
(0.80667 0.0200998 3.3217e-20)
(0.0313336 -0.0254642 7.44555e-20)
(0.122221 -0.0477751 1.11448e-19)
(0.255564 -0.0529435 -3.6915e-20)
(0.381115 -0.0500371 -5.37309e-20)
(0.488291 -0.0441261 6.54882e-20)
(0.577693 -0.0378224 5.99996e-20)
(0.651619 -0.0321876 1.65404e-19)
(0.712921 -0.0274316 -5.86478e-20)
(0.764008 -0.0234405 -5.51364e-20)
(0.80667 -0.0200998 7.26728e-21)
(0.0406034 -0.0750477 1.04147e-19)
(0.13886 -0.14119 7.99054e-20)
(0.273206 -0.156813 -6.8506e-20)
(0.397322 -0.148457 -1.53881e-19)
(0.502316 -0.131077 -1.5099e-19)
(0.589544 -0.112439 -2.01262e-19)
(0.661596 -0.0957324 1.35366e-19)
(0.721384 -0.0816083 -5.90866e-20)
(0.771238 -0.0697457 -1.4179e-20)
(0.812623 -0.0598378 -1.74046e-20)
(0.0584712 -0.120684 -2.52715e-20)
(0.171144 -0.228312 -1.17616e-19)
(0.307602 -0.254719 -2.34898e-19)
(0.429042 -0.241978 9.70708e-20)
(0.529846 -0.21417 -2.10795e-19)
(0.612852 -0.184007 1.93672e-19)
(0.681242 -0.156818 -1.60596e-19)
(0.738064 -0.133753 -1.02072e-20)
(0.785511 -0.114345 2.43604e-19)
(0.824431 -0.0981958 1.71767e-19)
(0.0836387 -0.160032 -4.22753e-19)
(0.217137 -0.305308 -5.44248e-19)
(0.357011 -0.342974 1.31498e-19)
(0.474913 -0.327543 4.00887e-19)
(0.569858 -0.290991 7.47684e-19)
(0.646844 -0.250621 2.30997e-19)
(0.709954 -0.213908 9.86957e-20)
(0.762477 -0.182602 5.31866e-19)
(0.806461 -0.156174 -9.81839e-20)
(0.841908 -0.13428 -2.76616e-19)
(0.114271 -0.19116 6.43554e-20)
(0.274051 -0.368882 1.19399e-19)
(0.418902 -0.41831 -4.36744e-19)
(0.532945 -0.402397 1.35482e-19)
(0.620855 -0.359349 2.9462e-20)
(0.69039 -0.310554 -5.03481e-19)
(0.746855 -0.265623 -3.75058e-19)
(0.793916 -0.227029 2.19227e-19)
(0.833559 -0.194285 -5.40898e-19)
(0.86478 -0.167247 -5.63073e-20)
(0.148122 -0.212684 -2.02624e-19)
(0.3384 -0.416444 -1.70997e-19)
(0.490059 -0.478027 -9.68764e-20)
(0.600584 -0.464192 -6.1183e-20)
(0.680911 -0.417356 5.61773e-20)
(0.742038 -0.362314 5.73482e-19)
(0.790815 -0.31077 1.74335e-19)
(0.831459 -0.266063 2.49634e-19)
(0.866102 -0.227855 -2.14358e-19)
(0.892712 -0.196341 -4.3545e-20)
(0.1827 -0.223851 7.92436e-20)
(0.406176 -0.446268 2.18311e-19)
(0.566708 -0.520118 -5.34515e-20)
(0.674793 -0.511078 1.08846e-19)
(0.74773 -0.463487 1.63484e-19)
(0.800075 -0.404708 -7.33825e-20)
(0.840543 -0.348436 -2.2369e-19)
(0.874077 -0.299049 -1.38607e-20)
(0.903285 -0.256487 1.26658e-19)
(0.925507 -0.221445 3.61995e-20)
(0.215442 -0.224598 -3.58328e-20)
(0.473074 -0.457591 -3.93927e-20)
(0.644666 -0.543364 8.51913e-20)
(0.75214 -0.54177 -1.97591e-19)
(0.81868 -0.496622 -1.50772e-19)
(0.862488 -0.436841 2.13043e-19)
(0.894426 -0.377881 5.00166e-19)
(0.920215 -0.325251 -1.03945e-19)
(0.943052 -0.279247 7.74866e-20)
(0.96155 -0.241179 -1.14071e-19)
(0.243919 -0.215547 -1.0901e-19)
(0.53474 -0.450672 3.85035e-20)
(0.71953 -0.547406 -4.01308e-20)
(0.828915 -0.555594 8.98607e-20)
(0.890877 -0.516064 2.37379e-19)
(0.927082 -0.458147 5.00471e-19)
(0.95083 -0.398735 -1.39891e-20)
(0.96888 -0.344888 1.00986e-20)
(0.98446 -0.298775 7.93669e-20)
(1.00011 -0.261402 -4.46333e-20)
(0.266036 -0.197956 3.77819e-20)
(0.587021 -0.42677 5.0087e-20)
(0.786885 -0.532783 -1.72099e-20)
(0.901266 -0.552513 1.62608e-20)
(0.961305 -0.521507 5.90552e-20)
(0.991634 -0.468248 4.74319e-20)
(1.00811 -0.410522 -1.19117e-19)
(1.019 -0.356812 4.24723e-20)
(1.0278 -0.310392 1.24317e-19)
(1.03755 -0.270429 -1.21183e-19)
(0.280142 -0.173541 1.00948e-19)
(0.626212 -0.388087 -4.06199e-21)
(0.842531 -0.500982 -6.36838e-20)
(0.965353 -0.533175 -2.85714e-20)
(1.02684 -0.51313 -1.44725e-20)
(1.05383 -0.467214 3.42525e-20)
(1.06459 -0.413386 -9.19698e-21)
(1.06926 -0.361372 -1.08028e-19)
(1.07203 -0.315674 -9.15502e-20)
(1.07567 -0.275539 -9.75158e-20)
(0.285275 -0.144485 2.5572e-20)
(0.649573 -0.337895 -6.23233e-20)
(0.882561 -0.454371 -2.4382e-19)
(1.01728 -0.498771 3.77001e-20)
(1.08432 -0.491561 9.9801e-20)
(1.11123 -0.455449 -6.1879e-21)
(1.11846 -0.407711 5.00982e-20)
(1.11816 -0.359064 -1.98964e-20)
(1.11572 -0.315214 7.62038e-20)
(1.11368 -0.276252 9.70845e-20)
(0.281177 -0.113199 -1.52976e-19)
(0.655373 -0.279845 -4.86582e-20)
(0.903923 -0.395848 -2.09371e-19)
(1.05342 -0.451389 -1.29373e-19)
(1.1304 -0.45796 -7.2888e-20)
(1.16123 -0.433485 3.47699e-20)
(1.16776 -0.393875 3.18832e-20)
(1.1642 -0.350212 9.21021e-21)
(1.1576 -0.309238 -6.93299e-22)
(1.15064 -0.272313 -3.41072e-21)
(0.268261 -0.0819916 1.41805e-19)
(0.642869 -0.217994 -2.5208e-19)
(0.904567 -0.329199 2.25847e-20)
(1.07079 -0.393568 -1.42829e-19)
(1.16174 -0.413734 3.30648e-20)
(1.20102 -0.40213 3.63841e-21)
(1.21044 -0.372344 4.86826e-22)
(1.20598 -0.33526 -1.18263e-20)
(1.19664 -0.298189 4.28712e-21)
(1.18602 -0.264161 -4.81207e-21)
(0.247625 -0.0529494 -3.01951e-20)
(0.612678 -0.156517 1.57692e-19)
(0.88347 -0.258567 -4.23573e-20)
(1.06694 -0.328333 1.06459e-19)
(1.17536 -0.360749 -5.66159e-21)
(1.22766 -0.362432 8.91495e-20)
(1.24425 -0.343752 -2.54828e-20)
(1.24198 -0.314643 -2.70442e-20)
(1.2318 -0.28273 8.73981e-21)
(1.21898 -0.252226 -4.70827e-21)
(0.220921 -0.0277715 -4.78898e-20)
(0.566744 -0.0993052 9.73237e-20)
(0.840988 -0.188278 2.27824e-20)
(1.04035 -0.259219 4.09898e-20)
(1.16853 -0.301321 -3.16033e-20)
(1.23816 -0.315658 6.08408e-20)
(1.26656 -0.308737 -3.97165e-20)
(1.27032 -0.288762 -1.77106e-20)
(1.26188 -0.263134 2.07183e-20)
(1.24829 -0.236817 -1.28609e-20)
(0.190157 -0.00763359 5.0672e-20)
(0.508153 -0.0496269 -1.03578e-19)
(0.779 -0.122528 2.11343e-20)
(0.990776 -0.190092 -4.80173e-20)
(1.13911 -0.238211 3.3676e-20)
(1.22945 -0.263367 -7.82486e-20)
(1.27433 -0.268009 5.48566e-20)
(1.28862 -0.257885 2.82084e-20)
(1.28533 -0.239448 -2.80697e-20)
(1.2731 -0.218054 7.06948e-22)
(0.157481 0.0068771 1.16442e-19)
(0.440832 -0.00984224 8.08014e-20)
(0.700862 -0.0650263 1.86571e-20)
(0.919514 -0.124911 -4.36631e-20)
(1.08601 -0.174609 8.13336e-21)
(1.19868 -0.207544 -1.39551e-19)
(1.26412 -0.222497 3.95842e-20)
(1.2938 -0.222323 5.10782e-20)
(1.29999 -0.211795 -8.57175e-20)
(1.29234 -0.19601 7.51382e-22)
(0.124953 0.0157507 -1.20502e-20)
(0.369149 0.0187803 5.9066e-20)
(0.611186 -0.0186226 -1.0686e-19)
(0.829607 -0.0674075 2.22823e-19)
(1.00964 -0.11404 -2.75797e-19)
(1.14376 -0.150718 -2.71277e-20)
(1.23231 -0.173544 -1.97463e-20)
(1.28197 -0.182532 7.57425e-20)
(1.30264 -0.180245 9.54416e-20)
(1.30383 -0.170549 6.09177e-20)
(0.0943554 0.019475 -4.25431e-20)
(0.297448 0.036112 -9.26878e-20)
(0.515399 0.0150008 6.05635e-20)
(0.725793 -0.0206633 2.79482e-19)
(0.912442 -0.0600993 -2.74518e-19)
(1.06409 -0.0959782 -4.11463e-19)
(1.17567 -0.123125 -2.41019e-19)
(1.24852 -0.139346 -2.55187e-19)
(1.28869 -0.144899 1.24728e-19)
(1.30383 -0.141358 -1.87386e-20)
(0.067053 0.018906 -9.98431e-20)
(0.229597 0.0430658 9.62113e-20)
(0.419143 0.0355046 -7.43941e-20)
(0.61411 0.0133318 -1.58876e-19)
(0.799035 -0.0159857 -4.38949e-19)
(0.961358 -0.0467745 -2.35555e-19)
(1.09248 -0.0739975 2.52513e-19)
(1.189 -0.094347 -9.69414e-20)
(1.25241 -0.106282 3.00886e-19)
(1.28679 -0.107995 1.8152e-19)
(0.0439259 0.0151187 -7.78154e-19)
(0.168641 0.0413782 -1.43375e-19)
(0.327603 0.0438802 3.68752e-19)
(0.501168 0.0340272 1.36931e-19)
(0.675936 0.0160945 4.30692e-20)
(0.840097 -0.00638744 2.93608e-19)
(0.983793 -0.0295479 6.17256e-20)
(1.10055 -0.0501634 -4.18876e-19)
(1.18794 -0.0660372 -1.88261e-19)
(1.24547 -0.0711567 -1.94309e-19)
(0.0253769 0.00926536 8.48952e-19)
(0.116594 0.0333215 -3.36858e-19)
(0.244921 0.0422422 1.92206e-19)
(0.393213 0.0424208 5.11139e-20)
(0.550643 0.035459 2.06497e-19)
(0.707382 0.022852 2.55904e-19)
(0.854226 0.00687874 -2.56545e-19)
(0.983693 -0.0102098 1.91248e-19)
(1.09133 -0.0271257 2.76497e-19)
(1.17076 -0.0328978 4.86754e-20)
(0.011396 0.00246592 3.80626e-19)
(0.0744035 0.021403 7.95146e-20)
(0.173823 0.0334685 1.18318e-19)
(0.295255 0.0408651 2.82033e-20)
(0.430372 0.0431668 5.6389e-19)
(0.571689 0.0402831 9.53124e-19)
(0.711713 0.0330138 -2.38868e-20)
(0.843516 0.0223265 1.84861e-19)
(0.962255 0.00710478 2.76113e-19)
(1.05466 -0.00610161 -2.79758e-19)
(0.00165688 -0.00426223 -2.52597e-19)
(0.042054 0.00809215 1.05084e-20)
(0.115522 0.020759 5.20388e-19)
(0.210526 0.0325936 4.19158e-20)
(0.320901 0.0417631 -7.59957e-20)
(0.441291 0.0471565 2.54713e-19)
(0.566128 0.0485877 2.31031e-19)
(0.689508 0.0464315 2.01746e-19)
(0.805814 0.0396414 1.13805e-19)
(0.914274 0.0160095 -2.69453e-19)
(-0.00439169 -0.010048 1.89635e-19)
(0.0187586 -0.00440339 2.81705e-19)
(0.0698749 0.00718886 1.76447e-20)
(0.140375 0.0210813 1.12963e-19)
(0.225901 0.0345608 1.94599e-19)
(0.32282 0.0459784 -8.7849e-20)
(0.427355 0.0546045 5.73197e-19)
(0.53516 0.0603722 -8.70283e-20)
(0.641649 0.062457 1.03161e-19)
(0.754944 0.044206 -2.89359e-19)
(-0.00744277 -0.0142001 -7.59524e-20)
(0.00320649 -0.0143032 -3.32735e-19)
(0.0357238 -0.00466279 8.9028e-20)
(0.0845455 0.00944924 2.1447e-19)
(0.146848 0.0248688 2.21195e-19)
(0.220301 0.0397458 -3.64198e-19)
(0.302525 0.0531145 4.83219e-20)
(0.390586 0.064511 1.94683e-19)
(0.481518 0.0725372 -3.22541e-19)
(0.584445 0.063198 -4.26515e-19)
(-0.00826167 -0.0162439 3.71314e-19)
(-0.00620901 -0.0203877 8.14486e-20)
(0.0113058 -0.0129594 -2.95283e-19)
(0.041734 4.29768e-05 1.01516e-19)
(0.0835554 0.0153909 1.48968e-20)
(0.135398 0.0312577 -3.61748e-19)
(0.195837 0.0466228 -4.33297e-21)
(0.262968 0.0607202 1.0948e-19)
(0.335303 0.0715368 -1.03387e-19)
(0.419036 0.0687221 2.59212e-19)
(-0.00763685 -0.0159468 -5.39663e-20)
(-0.0111805 -0.0220961 3.33551e-20)
(-0.00533381 -0.0167471 2.36337e-19)
(0.010193 -0.00578238 4.05506e-19)
(0.0349778 0.00786754 1.68758e-19)
(0.068352 0.0225745 2.46336e-19)
(0.109527 0.0373782 3.39081e-19)
(0.157327 0.0513717 1.0248e-19)
(0.211168 0.0623939 1.48602e-19)
(0.273757 0.0629823 -1.79332e-20)
(-0.00634809 -0.013364 -1.17051e-19)
(-0.0133003 -0.0195033 -9.21624e-20)
(-0.0160188 -0.0159609 6.74003e-20)
(-0.0117978 -0.00767907 -1.22282e-19)
(-0.000151013 0.00300136 1.92825e-19)
(0.0187612 0.0148101 -5.68889e-22)
(0.0445764 0.0269381 -1.96253e-20)
(0.0766093 0.0385354 1.0959e-19)
(0.114567 0.0477469 7.49763e-20)
(0.158607 0.0493902 8.7968e-22)
(-0.00506503 -0.00887151 1.70608e-20)
(-0.0139012 -0.0133013 -3.56398e-20)
(-0.0222602 -0.0113013 -3.12006e-20)
(-0.0256509 -0.00614915 -3.5217e-20)
(-0.0229285 0.00063949 1.75485e-20)
(-0.0139197 0.00825553 -1.08251e-19)
(0.00127798 0.0161579 3.15878e-22)
(0.0222732 0.0237392 7.15167e-20)
(0.04872 0.0297546 7.16644e-20)
(0.0793609 0.0311181 2.34803e-20)
(-0.00428829 -0.00310619 6.59337e-21)
(-0.0139486 -0.00471186 -4.80703e-20)
(-0.0251103 -0.00406709 -6.13062e-20)
(-0.0323301 -0.00231821 -6.51731e-20)
(-0.0341235 1.08719e-05 2.76023e-21)
(-0.030144 0.00263729 2.96514e-20)
(-0.0203523 0.00537551 -1.75979e-20)
(-0.00502701 0.00800431 -1.55876e-20)
(0.0153956 0.0100818 8.00765e-21)
(0.0390789 0.0105864 -3.37743e-20)
(0.0637825 -0.00661567 -2.09326e-21)
(0.0827111 -0.00761757 -6.44788e-21)
(0.112678 -0.00819027 -1.8288e-21)
(0.142442 -0.00844585 -3.56764e-21)
(0.173088 -0.00863089 -4.08e-21)
(0.204539 -0.00867301 -4.89967e-21)
(0.236059 -0.00856468 1.77554e-21)
(0.267131 -0.00834175 3.03726e-21)
(0.297401 -0.00803903 6.87042e-22)
(0.326619 -0.00768606 -3.87721e-22)
(0.354628 -0.00730714 -2.07805e-21)
(0.381352 -0.00692062 3.40138e-22)
(0.406773 -0.00653976 6.77223e-22)
(0.430917 -0.00617345 -3.55492e-22)
(0.453829 -0.00582809 -7.0584e-22)
(0.475598 -0.00550687 -5.15771e-22)
(0.496268 -0.00521377 -1.10753e-22)
(0.516043 -0.00494648 -1.23537e-22)
(0.534751 -0.00471407 -9.62556e-23)
(0.553166 -0.00449695 -2.30574e-23)
(0.569766 -0.00434049 4.34172e-24)
(0.588555 -0.0041393 -3.00644e-23)
(0.600445 -0.00412042 -1.66666e-24)
(0.627132 -0.00383668 1.11074e-23)
(0.106415 -0.0195506 -1.76513e-20)
(0.121801 -0.0223836 2.08705e-20)
(0.150427 -0.0241378 3.14565e-20)
(0.178944 -0.0249342 5.75264e-21)
(0.20813 -0.0254809 5.78493e-21)
(0.238045 -0.0255953 5.20446e-21)
(0.267959 -0.0252642 5.2494e-21)
(0.297378 -0.0245969 9.28442e-21)
(0.325991 -0.0236976 4.99536e-21)
(0.35358 -0.0226536 -3.24856e-21)
(0.380014 -0.021536 1.42517e-21)
(0.405234 -0.0203979 3.03535e-21)
(0.429229 -0.0192779 -9.09083e-22)
(0.452029 -0.0182016 -2.36576e-21)
(0.473682 -0.0171877 -2.51084e-21)
(0.494273 -0.016245 -5.43313e-22)
(0.513843 -0.0153856 1.33241e-21)
(0.532591 -0.0146017 4.03956e-22)
(0.550337 -0.0139217 2.80265e-22)
(0.567852 -0.013285 2.0678e-22)
(0.583616 -0.01283 2.3485e-23)
(0.601579 -0.01224 -2.41322e-23)
(0.612838 -0.0121871 -1.09676e-23)
(0.638444 -0.01137 -1.48744e-23)
(0.188871 -0.0314088 -5.703e-20)
(0.197797 -0.0357455 2.66775e-20)
(0.223445 -0.0387665 6.10967e-20)
(0.24942 -0.0401939 4.19651e-20)
(0.275674 -0.041089 1.04025e-21)
(0.302503 -0.0412475 -7.84973e-21)
(0.329223 -0.0406835 3.89345e-21)
(0.355393 -0.0395843 1.45112e-21)
(0.380774 -0.0381214 -6.3991e-21)
(0.405211 -0.0364353 -2.24024e-21)
(0.428615 -0.0346382 -8.9557e-22)
(0.450952 -0.0328138 -1.92163e-21)
(0.472226 -0.031022 4.25037e-21)
(0.492471 -0.0293026 1.66464e-21)
(0.511731 -0.0276847 1.39045e-21)
(0.530088 -0.0261816 1.25053e-21)
(0.547571 -0.0248134 4.12603e-22)
(0.564372 -0.0235653 3.87486e-22)
(0.580299 -0.0224873 4.11483e-22)
(0.596109 -0.0214733 6.83953e-22)
(0.610293 -0.020761 3.16704e-22)
(0.626682 -0.0198221 3.3454e-23)
(0.636761 -0.019746 -3.23965e-23)
(0.660302 -0.0184913 2.52636e-23)
(0.305692 -0.0409301 9.37572e-20)
(0.306353 -0.0467781 1.70693e-20)
(0.327051 -0.0511675 -5.59917e-20)
(0.349063 -0.0533616 -4.37338e-20)
(0.370886 -0.054615 -7.35775e-21)
(0.393063 -0.0547961 -3.95804e-20)
(0.41505 -0.0540079 -3.4927e-20)
(0.436487 -0.052521 -3.58445e-20)
(0.457235 -0.050567 -2.02483e-20)
(0.477209 -0.0483312 -1.5468e-20)
(0.496362 -0.0459591 -1.4193e-20)
(0.514685 -0.0435579 -3.64983e-21)
(0.53219 -0.0412043 5.09035e-22)
(0.54891 -0.0389488 1.85794e-22)
(0.56488 -0.0368295 -1.14628e-21)
(0.580171 -0.0348618 -3.04161e-21)
(0.594796 -0.0330749 -2.91485e-21)
(0.608932 -0.0314436 -1.34521e-21)
(0.622371 -0.0300446 -3.05192e-22)
(0.635843 -0.0287194 4.77753e-22)
(0.647875 -0.0278123 6.76054e-23)
(0.662094 -0.0265877 -3.20667e-23)
(0.670584 -0.026505 -1.02234e-22)
(0.691265 -0.024953 3.95975e-23)
(0.448967 -0.0463667 5.09635e-21)
(0.441051 -0.0545915 1.29373e-19)
(0.454795 -0.0604415 3.10591e-20)
(0.471201 -0.0635229 3.67631e-21)
(0.487036 -0.0651913 -8.40977e-21)
(0.503016 -0.0654198 -1.46897e-20)
(0.51884 -0.0644724 -8.63191e-22)
(0.534272 -0.0627049 1.80636e-20)
(0.549259 -0.0603945 -2.70506e-21)
(0.563772 -0.0577591 -2.30345e-20)
(0.577793 -0.0549682 -1.88827e-20)
(0.591314 -0.0521458 3.56297e-22)
(0.604344 -0.0493812 1.02941e-20)
(0.616898 -0.0467327 3.7612e-21)
(0.628998 -0.044246 8.90603e-22)
(0.640688 -0.0419377 9.16111e-22)
(0.651965 -0.0398468 -1.12671e-21)
(0.66298 -0.0379357 7.49268e-22)
(0.673512 -0.036312 2.53764e-21)
(0.684242 -0.0347599 3.78252e-22)
(0.693773 -0.0337339 2.08656e-22)
(0.705421 -0.0323057 -1.73688e-22)
(0.712097 -0.0322372 4.16362e-23)
(0.729367 -0.0305484 -7.20222e-23)
(0.608672 -0.0458771 -3.1154e-20)
(0.593727 -0.0581996 -9.01169e-20)
(0.598898 -0.0656107 -1.01548e-19)
(0.607752 -0.069701 -4.66853e-20)
(0.615961 -0.0719301 8.77142e-21)
(0.624319 -0.072351 -1.76997e-20)
(0.632802 -0.0714279 3.73741e-21)
(0.641295 -0.0695921 1.97662e-20)
(0.649792 -0.0671485 -2.56148e-21)
(0.658272 -0.0643353 -6.94803e-21)
(0.666701 -0.061338 6.03586e-21)
(0.675049 -0.0582934 1.29321e-21)
(0.683294 -0.0553017 -1.05801e-20)
(0.691423 -0.0524286 -4.85602e-21)
(0.699424 -0.0497283 3.32456e-21)
(0.707314 -0.0472184 3.03038e-21)
(0.715064 -0.0449502 -7.61324e-22)
(0.72279 -0.0428725 -1.20837e-21)
(0.730271 -0.0411274 1.70656e-22)
(0.738103 -0.0394406 1.69259e-21)
(0.745025 -0.0383743 2.63478e-22)
(0.753918 -0.0368325 -2.13561e-22)
(0.758746 -0.0368023 -1.34598e-22)
(0.772335 -0.035127 -2.63292e-24)
(0.774144 -0.0390829 -2.56907e-20)
(0.755349 -0.0574885 -1.23468e-19)
(0.750515 -0.0664497 -1.13962e-19)
(0.749528 -0.0716377 -1.80854e-20)
(0.748515 -0.0746065 1.32696e-19)
(0.748181 -0.0754776 5.55701e-20)
(0.748634 -0.0748694 1.51412e-20)
(0.749794 -0.0732512 9.92252e-21)
(0.751609 -0.0709407 -2.86384e-20)
(0.753995 -0.0681895 1.51497e-20)
(0.756858 -0.0651985 -3.02233e-21)
(0.760107 -0.0621196 -1.7654e-20)
(0.763671 -0.0590671 2.35532e-21)
(0.76749 -0.0561173 8.46405e-21)
(0.771518 -0.0533361 5.47728e-22)
(0.77573 -0.0507439 1.08737e-21)
(0.780074 -0.0484064 -5.89992e-22)
(0.784622 -0.0462598 1.86944e-21)
(0.789164 -0.0444813 2.56667e-21)
(0.794181 -0.0427425 1.14369e-21)
(0.798613 -0.0416996 4.37279e-23)
(0.80478 -0.0401295 1.83476e-23)
(0.807902 -0.0401553 9.48839e-23)
(0.817807 -0.0386111 1.52844e-24)
(0.938642 -0.0288648 3.20714e-20)
(0.917044 -0.0515998 7.47005e-20)
(0.899811 -0.0616174 -4.25362e-20)
(0.886577 -0.0682463 -8.38412e-20)
(0.875234 -0.0724962 3.02082e-20)
(0.865907 -0.0744208 -2.07572e-21)
(0.858436 -0.0746463 -1.42128e-20)
(0.85259 -0.0736597 2.64039e-20)
(0.848164 -0.0718117 -6.88969e-21)
(0.844948 -0.069388 -1.03439e-20)
(0.842744 -0.0666212 -6.92473e-21)
(0.841385 -0.0636911 -1.38529e-20)
(0.84074 -0.0607354 -3.768e-21)
(0.840697 -0.0578477 5.36423e-21)
(0.84117 -0.0551094 -4.06329e-21)
(0.842096 -0.0525473 -7.37409e-21)
(0.843403 -0.0502419 2.22257e-22)
(0.845109 -0.0481216 5.94206e-22)
(0.847039 -0.0463898 -1.0746e-22)
(0.849519 -0.0446876 -3.29231e-22)
(0.851765 -0.0437151 2.85446e-22)
(0.855412 -0.0422227 4.52126e-22)
(0.857106 -0.0422875 -1.54922e-24)
(0.863555 -0.0409972 -2.36715e-23)
(1.15807 0.00357908 0)
(1.11437 -0.0215353 0)
(1.07771 -0.0368455 0)
(1.04899 -0.0484973 0)
(1.0263 -0.0565919 0)
(1.00781 -0.0616023 -3.11243e-28)
(0.99247 -0.0643385 -3.11244e-28)
(0.979701 -0.0654225 0)
(0.969075 -0.0652913 0)
(0.960225 -0.0642826 0)
(0.952847 -0.0626751 0)
(0.946696 -0.0606922 0)
(0.941585 -0.058513 0)
(0.937356 -0.0562639 0)
(0.933892 -0.0540578 0)
(0.931088 -0.0519423 0)
(0.928869 -0.0500226 0)
(0.927181 -0.0482389 0)
(0.925935 -0.0468058 0)
(0.925204 -0.0453966 0)
(0.924685 -0.0446388 0)
(0.924943 -0.0435069 0)
(0.924774 -0.0435818 0)
(0.926455 -0.0428975 0)
(1.25681 0.0353538 0)
(1.23322 0.00896098 0)
(1.20571 -0.0112681 0)
(1.18043 -0.0266481 0)
(1.15832 -0.0378116 0)
(1.13858 -0.0454605 0)
(1.12079 -0.050405 0)
(1.10489 -0.0533369 0)
(1.0908 -0.0547751 0)
(1.07835 -0.0551152 0)
(1.06735 -0.0546753 0)
(1.0576 -0.0537075 0)
(1.04896 -0.0524155 0)
(1.04129 -0.0509449 0)
(1.03447 -0.0494261 0)
(1.02839 -0.0479227 0)
(1.023 -0.046546 0)
(1.01815 -0.0452663 0)
(1.01392 -0.0442562 0)
(1.01004 -0.0433135 0)
(1.00684 -0.0428186 0)
(1.00361 -0.0422527 0)
(1.00159 -0.0422914 0)
(0.998193 -0.0423932 0)
(1.28333 0.0480571 0)
(1.2737 0.0236792 0)
(1.25742 0.00436144 0)
(1.24072 -0.0106171 0)
(1.22476 -0.0220541 0)
(1.20929 -0.0305313 8.61842e-28)
(1.19431 -0.036568 8.61842e-28)
(1.18009 -0.0406593 0)
(1.16683 -0.0432363 0)
(1.15457 -0.0446544 0)