/*--------------------------------*- C++ -*----------------------------------*\
  =========                 |
  \\      /  F ield         | OpenFOAM: The Open Source CFD Toolbox
   \\    /   O peration     | Website:  https://openfoam.org
    \\  /    A nd           | Version:  7
     \\/     M anipulation  |
\*---------------------------------------------------------------------------*/
FoamFile
{
    version     2.0;
    format      ascii;
    class       volVectorField;
    location    "5";
    object      U;
}
// * * * * * * * * * * * * * * * * * * * * * * * * * * * * * * * * * * * * * //

dimensions      [0 1 -1 0 0 0 0];

internalField   nonuniform List<vector> 
183
(
(1.01872 0.273701 1.95381e-20)
(0.998243 0.288791 8.69008e-21)
(1.00263 0.272486 2.01312e-20)
(0.977628 0.302964 -2.93996e-20)
(0.980698 0.28659 3.38411e-20)
(0.95584 0.318917 2.87778e-20)
(0.959507 0.300338 -2.14383e-20)
(0.932518 0.335115 -5.25623e-20)
(0.937392 0.315421 6.50252e-21)
(0.906815 0.35098 -8.39729e-21)
(0.913284 0.330146 -5.66583e-20)
(0.878256 0.366617 1.0338e-19)
(0.886486 0.344427 4.90328e-21)
(0.846592 0.381955 -5.28479e-20)
(0.856785 0.358359 -7.95697e-20)
(0.866462 0.336558 3.82902e-20)
(0.823955 0.371777 3.59889e-21)
(0.835721 0.348673 1.91327e-19)
(0.787722 0.384492 7.30125e-20)
(0.801832 0.360082 2.01609e-20)
(0.747801 0.396255 1.01441e-19)
(0.764567 0.370549 2.9321e-19)
(0.780334 0.346892 -7.61684e-20)
(0.723657 0.379798 -5.00409e-20)
(0.742186 0.355026 -1.10156e-19)
(0.678822 0.387491 -3.57688e-20)
(0.700462 0.361678 6.41594e-20)
(0.720694 0.337971 -7.51041e-20)
(0.65491 0.366483 1.42982e-19)
(0.67834 0.341956 -7.11986e-20)
(0.605268 0.369014 2.28765e-19)
(0.632278 0.343812 5.36539e-20)
(0.657409 0.320704 2.51792e-19)
(0.582284 0.343088 1.18365e-19)
(0.611052 0.319565 -1.39901e-19)
(0.560945 0.315553 -4.14927e-19)
(0.591351 0.293844 -6.66605e-20)
(0.5069 0.308108 -2.90513e-19)
(0.541372 0.28653 1.11962e-19)
(0.573285 0.266757 -3.87104e-19)
(0.487707 0.275494 2.66093e-20)
(0.523678 0.256146 -6.83888e-20)
(0.47066 0.241545 -1.1305e-19)
(0.507966 0.224541 8.49263e-21)
(0.455858 0.206421 1.85542e-19)
(0.494324 0.19186 -1.27215e-19)
(0.400616 0.183368 1.93119e-19)
(0.443387 0.170289 -3.60197e-20)
(0.482833 0.158256 -2.87628e-20)
(0.389684 0.143579 3.43231e-20)
(0.433321 0.133322 6.72058e-20)
(0.381427 0.103073 8.74656e-20)
(0.42572 0.0957019 -7.4502e-20)
(0.375895 0.0620518 -7.97108e-20)
(0.420627 0.057611 3.65454e-20)
(0.373121 0.0207199 9.50916e-21)
(0.418073 0.0192366 -2.65326e-20)
(0.373121 -0.0207158 2.47973e-20)
(0.418073 -0.0192326 -2.2775e-20)
(0.375895 -0.0620477 3.97398e-20)
(0.420627 -0.057607 -8.39662e-20)
(0.381427 -0.103069 -1.34072e-19)
(0.42572 -0.0956979 2.7066e-20)
(0.389683 -0.143575 -1.99745e-19)
(0.433321 -0.133318 1.77212e-19)
(0.473559 -0.123886 1.59649e-19)
(0.400615 -0.183364 1.32066e-20)
(0.443387 -0.170285 1.40862e-19)
(0.482833 -0.158252 -2.26179e-19)
(0.455857 -0.206417 7.08062e-20)
(0.494324 -0.191856 -1.79112e-19)
(0.470659 -0.241541 -1.17092e-19)
(0.507965 -0.224537 -2.7184e-19)
(0.487707 -0.27549 2.00808e-19)
(0.523678 -0.256142 2.10039e-19)
(0.506899 -0.308104 1.41482e-19)
(0.541372 -0.286526 1.57152e-19)
(0.573284 -0.266753 1.42789e-19)
(0.560944 -0.31555 -5.93869e-20)
(0.59135 -0.29384 -1.2706e-19)
(0.582283 -0.343084 -2.77368e-19)
(0.611052 -0.319562 5.72925e-20)
(0.605267 -0.36901 2.80556e-20)
(0.632278 -0.343808 -5.83817e-20)
(0.657408 -0.320701 6.73249e-21)
(0.65491 -0.36648 2.23804e-19)
(0.678339 -0.341952 -2.54668e-19)
(0.678822 -0.387488 -3.97547e-20)
(0.700462 -0.361674 -9.62227e-20)
(0.720693 -0.337968 3.62833e-20)
(0.723657 -0.379794 6.80574e-20)
(0.742185 -0.355023 -2.18889e-19)
(0.7478 -0.396251 -2.00622e-20)
(0.764566 -0.370546 1.80694e-19)
(0.780334 -0.346889 1.69619e-19)
(0.787721 -0.384489 -1.79075e-19)
(0.801831 -0.360079 -3.25488e-19)
(0.823954 -0.371774 4.1315e-19)
(0.83572 -0.34867 -2.71812e-19)
(0.846592 -0.381952 2.20861e-20)
(0.856784 -0.358356 -2.09863e-19)
(0.866462 -0.336555 -8.83799e-21)
(0.878256 -0.366614 1.0345e-19)
(0.886485 -0.344423 -1.53953e-19)
(0.894306 -0.323889 8.79508e-20)
(0.906815 -0.350977 1.27988e-19)
(0.913284 -0.330143 -1.72808e-19)
(0.932518 -0.335112 1.40239e-19)
(0.937392 -0.315417 4.21609e-20)
(0.95584 -0.318914 -7.74453e-20)
(0.959507 -0.300335 9.16186e-20)
(0.977628 -0.302961 -4.07665e-20)
(0.980698 -0.286586 -1.12548e-19)
(0.998244 -0.288787 7.00062e-20)
(1.00263 -0.272482 -8.18107e-20)
(1.04079 0.215897 1.29683e-21)
(1.06192 0.201426 -7.29944e-22)
(1.07477 0.165656 -2.97779e-22)
(1.08144 0.143817 6.91909e-22)
(1.08283 0.122893 1.74682e-21)
(1.08226 0.10638 2.22287e-21)
(1.08022 0.0919869 -1.03785e-21)
(1.07767 0.0795985 1.05653e-21)
(1.07477 0.06894 6.71948e-23)
(1.07173 0.0596824 9.6106e-22)
(1.06871 0.051567 -6.205e-22)
(1.06583 0.0443958 -3.7565e-22)
(1.02935 0.21531 3.24472e-23)
(1.05499 0.200923 -7.95593e-22)
(1.06952 0.167325 5.95947e-22)
(1.07736 0.145283 -2.2225e-21)
(1.07951 0.124482 8.51509e-22)
(1.07945 0.107821 2.22103e-21)
(1.07773 0.0933219 -3.14095e-21)
(1.07547 0.0807584 1.05826e-22)
(1.07286 0.0699299 1.77059e-21)
(1.07007 0.0605262 -8.14091e-23)
(1.06725 0.0522827 -8.84073e-22)
(1.06453 0.0449987 4.56611e-22)
(1.06197 0.0385061 -6.70665e-22)
(1.05964 0.0326644 -3.25115e-22)
(1.05757 0.0273539 1.16698e-21)
(1.05578 0.0224773 -4.75448e-22)
(1.05429 0.0179429 4.90791e-23)
(1.0531 0.0136847 -2.79465e-22)
(1.05221 0.0096228 2.20696e-22)
(1.05165 0.00571229 -7.237e-24)
(1.05136 0.00189357 9.49602e-24)
(1.055 -0.0227424 -2.97086e-23)
(1.05351 -0.0181496 -3.79777e-22)
(1.05232 -0.0138392 -5.04173e-23)
(1.05142 -0.00972868 -8.88826e-23)
(1.05084 -0.0057749 -1.98687e-22)
(1.05054 -0.00191754 -7.12198e-23)
(1.02935 -0.215306 2.99926e-23)
(1.05499 -0.20092 8.12666e-22)
(1.06952 -0.167321 -4.55315e-22)
(1.07736 -0.145279 1.96186e-21)
(1.07952 -0.124479 -1.14368e-21)
(1.07945 -0.107822 -2.31461e-21)
(1.07774 -0.0933245 2.82987e-21)
(1.07547 -0.0807599 -2.36883e-21)
(1.07286 -0.0699315 9.98614e-24)
(1.07007 -0.060528 3.09564e-24)
(1.06725 -0.0522842 6.54303e-22)
(1.06453 -0.0449999 -2.00857e-22)
(1.06197 -0.0385069 6.68844e-22)
(1.05964 -0.032665 3.24108e-22)
(1.05757 -0.0273546 -1.16348e-21)
(1.05579 -0.022478 4.03146e-22)
(1.05429 -0.0179435 -2.292e-22)
(1.0531 -0.0136852 1.91969e-22)
(1.05221 -0.00962312 -2.32263e-22)
(1.05165 -0.00571251 2.54796e-22)
(1.05136 -0.00189364 -8.87039e-23)
(1.0408 -0.215893 1.25676e-21)
(1.06192 -0.201423 1.51991e-22)
(1.07477 -0.165652 1.0828e-21)
(1.08144 -0.143813 -4.4087e-22)
(1.08284 -0.12289 -1.45293e-21)
(1.08227 -0.106381 -2.12132e-21)
(1.08022 -0.0919892 1.33689e-21)
(1.07767 -0.0795999 -1.31834e-21)
)
;

boundaryField
{
    inlet
    {
        type            uniformFixedValue;
        uniformValue    constant (1 0 0);
        value           nonuniform 0();
    }
    outlet
    {
        type            pressureInletOutletVelocity;
        value           nonuniform 0();
    }
    cylinder
    {
        type            fixedValue;
        value           nonuniform 0();
    }
    top
    {
        type            symmetryPlane;
    }
    bottom
    {
        type            symmetryPlane;
    }
    defaultFaces
    {
        type            empty;
    }
    procBoundary6to5
    {
        type            processor;
        value           nonuniform List<vector> 
115
(
(0.986233 0.270117 -1.14292e-20)
(0.986233 0.270117 -1.14292e-20)
(0.963134 0.283689 2.20131e-20)
(0.963134 0.283689 2.20131e-20)
(0.941876 0.29705 -9.10162e-20)
(0.941876 0.29705 -9.10162e-20)
(0.919373 0.310819 -6.29184e-20)
(0.919373 0.310819 -6.29184e-20)
(0.894306 0.323892 -3.22411e-20)
(0.894306 0.323892 -3.22411e-20)
(0.87562 0.316418 5.91157e-20)
(0.846853 0.327349 7.71103e-20)
(0.846853 0.327349 7.71103e-20)
(0.815148 0.33758 1.84744e-19)
(0.815148 0.33758 1.84744e-19)
(0.795173 0.3251 -1.29428e-20)
(0.759566 0.332242 1.68052e-19)
(0.759566 0.332242 1.68052e-19)
(0.739633 0.316176 2.06086e-19)
(0.700204 0.31944 1.06622e-19)
(0.700204 0.31944 1.06622e-19)
(0.680826 0.2995 4.05875e-20)
(0.637784 0.298006 -1.47491e-20)
(0.637784 0.298006 -1.47491e-20)
(0.619575 0.273952 -1.06345e-19)
(0.60288 0.248644 -1.30129e-19)
(0.556956 0.238423 2.62927e-20)
(0.556956 0.238423 2.62927e-20)
(0.542458 0.208968 6.76453e-20)
(0.529873 0.178527 1.32319e-19)
(0.519273 0.147241 4.56996e-20)
(0.473559 0.123889 -1.95304e-19)
(0.473559 0.123889 -1.95304e-19)
(0.466556 0.0889241 -1.55152e-20)
(0.461864 0.0535282 4.97885e-20)
(0.459511 0.0178729 9.50556e-21)
(0.459511 -0.017869 7.78312e-21)
(0.461864 -0.0535243 -3.77611e-20)
(0.466555 -0.0889202 -4.21806e-20)
(0.466555 -0.0889202 -4.21806e-20)
(0.510719 -0.115252 -1.51563e-20)
(0.519273 -0.147237 -6.11617e-20)
(0.529873 -0.178524 -7.79685e-20)
(0.542458 -0.208964 -9.60621e-20)
(0.556956 -0.238419 2.47306e-19)
(0.556956 -0.238419 2.47306e-19)
(0.60288 -0.248641 1.05352e-20)
(0.619574 -0.273949 1.13648e-19)
(0.637784 -0.298002 -1.82047e-19)
(0.637784 -0.298002 -1.82047e-19)
(0.680825 -0.299497 -3.09831e-19)
(0.700204 -0.319436 1.67732e-19)
(0.700204 -0.319436 1.67732e-19)
(0.739633 -0.316173 -1.18401e-19)
(0.759566 -0.332239 -3.93832e-20)
(0.759566 -0.332239 -3.93832e-20)
(0.795173 -0.325096 2.06649e-20)
(0.815148 -0.337577 -2.72235e-19)
(0.815148 -0.337577 -2.72235e-19)
(0.846853 -0.327346 -1.17357e-19)
(0.846853 -0.327346 -1.17357e-19)
(0.87562 -0.316414 -7.70952e-20)
(0.87562 -0.316414 -7.70952e-20)
(0.901741 -0.304871 3.4306e-20)
(0.919372 -0.310815 -5.24923e-21)
(0.919372 -0.310815 -5.24923e-21)
(0.941876 -0.297047 -5.02811e-22)
(0.941876 -0.297047 -5.02811e-22)
(0.963134 -0.283686 -1.22184e-19)
(0.963134 -0.283686 -1.22184e-19)
(0.986234 -0.270114 -1.10067e-19)
(0.986234 -0.270114 -1.10067e-19)
(1.01527 0.214246 -1.121e-20)
(1.04445 0.199892 3.43065e-21)
(1.06116 0.168809 -4.68242e-22)
(1.07104 0.146728 -1.78684e-22)
(1.07478 0.126044 -1.04364e-21)
(1.07585 0.109246 -1.71341e-22)
(1.07498 0.0946411 1.17367e-21)
(1.07333 0.081898 -7.75061e-23)
(1.07118 0.0708948 5.74821e-22)
(1.06871 0.0613462 -6.46884e-22)
(1.0661 0.0529776 -1.04881e-22)
(1.06353 0.0455835 1.68877e-21)
(1.06107 0.0389945 -1.32471e-22)
(1.0588 0.0330684 2.91175e-22)
(1.05677 0.0276837 2.70548e-22)
(1.055 0.0227417 -2.55336e-22)
(1.05351 0.018149 3.81261e-22)
(1.05232 0.0138387 -1.64311e-22)
(1.05142 0.00972834 3.02897e-22)
(1.05084 0.00577466 1.99476e-22)
(1.05054 0.00191746 7.15995e-23)
(1.05438 -0.0230112 1.33842e-22)
(1.05283 -0.0183612 -3.82833e-22)
(1.05158 -0.0139987 1.07504e-22)
(1.05063 -0.00983967 -2.8967e-22)
(1.05 -0.00584117 1.08807e-22)
(1.04968 -0.00194189 -1.94133e-22)
(1.01527 -0.214243 8.02657e-21)
(1.04445 -0.199889 -4.88419e-21)
(1.06116 -0.168804 -2.31116e-22)
(1.07104 -0.146724 8.80421e-23)
(1.07479 -0.126041 1.05694e-21)
(1.07586 -0.109247 5.8225e-22)
(1.07498 -0.0946441 -8.23894e-22)
(1.07333 -0.0818997 9.20779e-22)
(1.07118 -0.0708966 6.2315e-23)
(1.06871 -0.0613481 3.72531e-22)
(1.06611 -0.0529792 6.96137e-22)
(1.06353 -0.0455848 -1.33927e-21)
(1.06107 -0.0389954 4.34327e-22)
(1.0588 -0.033069 1.77314e-22)
(1.05677 -0.0276843 -1.76746e-22)
(1.05677 -0.0276843 -1.76746e-22)
)
;
    }
    procBoundary6to7
    {
        type            processor;
        value           nonuniform List<vector> 
124
(
(1.03471 0.273996 8.27115e-21)
(1.0156 0.289977 -3.56005e-20)
(1.0156 0.289977 -3.56005e-20)
(0.995848 0.30484 -3.12979e-20)
(0.995848 0.30484 -3.12979e-20)
(0.974588 0.321511 4.83519e-21)
(0.974588 0.321511 4.83519e-21)
(0.951994 0.338874 -3.43675e-20)
(0.951994 0.338874 -3.43675e-20)
(0.927368 0.35621 -6.61995e-20)
(0.927368 0.35621 -6.61995e-20)
(0.900035 0.373458 -1.22844e-19)
(0.900035 0.373458 -1.22844e-19)
(0.869641 0.390601 2.08496e-19)
(0.869641 0.390601 2.08496e-19)
(0.83588 0.407508 -7.46554e-20)
(0.811533 0.39682 -3.21971e-20)
(0.811533 0.39682 -3.21971e-20)
(0.772764 0.410999 -1.10509e-19)
(0.772764 0.410999 -1.10509e-19)
(0.729954 0.424214 1.10513e-19)
(0.703883 0.406757 2.69115e-19)
(0.703883 0.406757 2.69115e-19)
(0.655641 0.415619 4.95978e-20)
(0.629766 0.393223 2.72254e-20)
(0.629766 0.393223 2.72254e-20)
(0.576173 0.396478 4.28517e-19)
(0.551262 0.368735 -1.03295e-19)
(0.528126 0.339235 -3.47679e-19)
(0.528126 0.339235 -3.47679e-19)
(0.469562 0.331512 3.59952e-20)
(0.448734 0.296494 1.25473e-19)
(0.430229 0.260013 1.25136e-19)
(0.414157 0.222242 -1.51177e-19)
(0.414157 0.222242 -1.51177e-19)
(0.354152 0.197279 8.7969e-20)
(0.342291 0.154496 3.57856e-20)
(0.33333 0.110923 1.19153e-19)
(0.327326 0.0667827 -4.35974e-20)
(0.324315 0.0223004 1.35401e-21)
(0.324315 -0.0222962 1.20147e-20)
(0.327326 -0.0667785 5.37209e-21)
(0.33333 -0.110919 -1.31221e-20)
(0.34229 -0.154491 -1.89922e-19)
(0.354152 -0.197275 -1.52662e-19)
(0.414157 -0.222238 1.32398e-19)
(0.414157 -0.222238 1.32398e-19)
(0.430228 -0.260009 -2.23929e-19)
(0.448733 -0.29649 2.83947e-19)
(0.469561 -0.331508 2.16375e-19)
(0.528125 -0.339232 4.09731e-19)
(0.528125 -0.339232 4.09731e-19)
(0.551261 -0.368732 -8.26893e-20)
(0.576172 -0.396474 -2.0025e-19)
(0.629766 -0.39322 -1.28332e-19)
(0.629766 -0.39322 -1.28332e-19)
(0.65564 -0.415615 2.63124e-19)
(0.703882 -0.406753 1.93967e-20)
(0.703882 -0.406753 1.93967e-20)
(0.729954 -0.424211 -1.52581e-19)
(0.772763 -0.410995 -2.27415e-19)
(0.772763 -0.410995 -2.27415e-19)
(0.811532 -0.396817 5.76344e-20)
(0.811532 -0.396817 5.76344e-20)
(0.835879 -0.407505 -6.09116e-20)
(0.86964 -0.390598 5.36959e-21)
(0.86964 -0.390598 5.36959e-21)
(0.900035 -0.373455 8.2125e-20)
(0.900035 -0.373455 8.2125e-20)
(0.927367 -0.356206 -1.4127e-20)
(0.927367 -0.356206 -1.4127e-20)
(0.951994 -0.338871 5.57591e-20)
(0.951994 -0.338871 5.57591e-20)
(0.974588 -0.321508 -1.88874e-20)
(0.974588 -0.321508 -1.88874e-20)
(0.995849 -0.304836 4.18824e-20)
(0.995849 -0.304836 4.18824e-20)
(1.0156 -0.289974 2.61539e-20)
(1.01872 -0.273698 -6.80622e-20)
(1.01872 -0.273698 -6.80622e-20)
(1.05278 0.2159 -2.41293e-21)
(1.06953 0.201335 -6.6559e-22)
(1.08025 0.163818 1.13406e-21)
(1.08553 0.14236 -2.17226e-21)
(1.08607 0.121313 -1.9741e-21)
(1.08499 0.104959 3.83063e-21)
(1.08263 0.0906674 -3.41174e-21)
(1.07982 0.0784422 -9.99173e-22)
(1.07668 0.0679393 -1.67956e-21)
(1.07342 0.0588214 1.43342e-22)
(1.07022 0.0508326 1.52367e-21)
(1.06717 0.0437744 -7.91114e-22)
(1.06314 0.0380022 1.17468e-22)
(1.06314 0.0380022 1.17468e-22)
(1.06071 0.0322473 5.38434e-22)
(1.05856 0.0270133 3.87733e-22)
(1.05671 0.0222041 3.34676e-22)
(1.05517 0.0177299 6.93461e-22)
(1.05394 0.0135256 2.97017e-22)
(1.05303 0.00951363 6.76024e-23)
(1.05245 0.00564809 2.89148e-22)
(1.05215 0.00186901 3.76568e-22)
(1.07477 -0.0689416 -1.79645e-21)
(1.07173 -0.059684 -9.59112e-22)
(1.06871 -0.0515684 6.19267e-22)
(1.06583 -0.044397 3.74959e-22)
(1.06314 -0.038003 5.62612e-22)
(1.06071 -0.032248 4.17765e-22)
(1.05856 -0.0270139 -2.32172e-22)
(1.05671 -0.0222047 6.37486e-23)
(1.05517 -0.0177305 7.21376e-22)
(1.05394 -0.013526 4.47528e-22)
(1.05303 -0.00951394 -1.4379e-22)
(1.05245 -0.0056483 4.07808e-22)
(1.05215 -0.00186908 2.99679e-22)
(1.05278 -0.215896 1.33813e-21)
(1.06953 -0.201331 1.2129e-21)
(1.08025 -0.163814 -2.03659e-21)
(1.08553 -0.142357 2.16899e-21)
(1.08607 -0.121311 1.97166e-21)
(1.085 -0.10496 -3.82468e-21)
(1.08263 -0.0906694 3.40665e-21)
(1.07477 -0.0689416 -1.79645e-21)
(1.07982 -0.0784434 9.97862e-22)
)
;
    }
}


// ************************************************************************* //
