/*--------------------------------*- C++ -*----------------------------------*\
  =========                 |
  \\      /  F ield         | OpenFOAM: The Open Source CFD Toolbox
   \\    /   O peration     | Website:  https://openfoam.org
    \\  /    A nd           | Version:  7
     \\/     M anipulation  |
\*---------------------------------------------------------------------------*/
FoamFile
{
    version     2.0;
    format      ascii;
    class       volVectorField;
    location    "62";
    object      U;
}
// * * * * * * * * * * * * * * * * * * * * * * * * * * * * * * * * * * * * * //

dimensions      [0 1 -1 0 0 0 0];

internalField   nonuniform List<vector> 
40000
(
(-0.000182706 0.000844021 -1.85193e-21)
(-0.00112263 0.00234798 5.73736e-21)
(-0.0031179 0.00370439 -3.66156e-21)
(-0.00592781 0.00491957 -3.90211e-24)
(-0.00941976 0.00599847 -1.2354e-24)
(-0.0135043 0.0069467 2.85531e-24)
(-0.0180885 0.00777118 -6.08703e-21)
(-0.0230822 0.00848006 1.4473e-21)
(-0.028401 0.00908275 -4.13243e-21)
(-0.0339669 0.00958979 -1.30746e-21)
(-0.0397075 0.0100127 0)
(-0.0455567 0.0103635 -4.70986e-21)
(-0.0514543 0.0106548 0)
(-0.0573458 0.0108988 0)
(-0.0631828 0.0111074 -3.99311e-21)
(-0.0689224 0.0112914 3.77305e-21)
(-0.074527 0.0114605 -1.78155e-21)
(-0.0799647 0.0116229 -1.5132e-24)
(-0.0852086 0.0117855 1.58295e-21)
(-0.0902378 0.0119533 0)
(-0.0950374 0.0121302 -1.40453e-21)
(-0.0995992 0.0123188 -3.96399e-21)
(-0.103923 0.0125207 4.96689e-21)
(-0.108016 0.0127368 -2.33219e-21)
(-0.111897 0.0129673 6.56774e-21)
(-0.115595 0.0132118 4.10804e-21)
(-0.119148 0.0134686 -7.70279e-21)
(-0.122603 0.0137347 7.21761e-21)
(-0.126009 0.0140041 -1.68891e-21)
(-0.129435 0.0142715 -3.17064e-21)
(-0.000224703 0.00141407 0)
(-0.00122984 0.0038979 3.83036e-21)
(-0.0032674 0.00609581 7.33726e-21)
(-0.00610121 0.00802701 -7.00225e-21)
(-0.00960134 0.00970605 -3.35572e-21)
(-0.0136802 0.0111471 1.2777e-20)
(-0.0182467 0.0123657 -3.05013e-21)
(-0.023212 0.0133785 -5.8076e-21)
(-0.0284934 0.0142032 -9.7965e-24)
(-0.034014 0.0148583 -1.5715e-20)
(-0.0397024 0.0153633 4.96566e-21)
(-0.0454935 0.0157375 1.88488e-20)
(-0.0513275 0.0160006 -8.92479e-21)
(-0.0571508 0.0161713 -4.62549e-24)
(-0.0629153 0.0162679 -4.00197e-21)
(-0.0685782 0.0163069 -1.15956e-24)
(-0.0741022 0.0163036 0)
(-0.079455 0.0162716 0)
(-0.0846097 0.0162227 1.26798e-20)
(-0.0895449 0.0161675 0)
(-0.094245 0.0161154 5.62119e-21)
(-0.0987012 0.0160751 -5.28692e-21)
(-0.102912 0.0160552 1.84744e-25)
(-0.106885 0.0160639 0)
(-0.110636 0.0161094 8.76733e-21)
(-0.114195 0.0161995 -8.21721e-21)
(-0.117599 0.01634 7.70277e-21)
(-0.120896 0.016533 -7.21758e-21)
(-0.124134 0.0167757 6.76364e-21)
(-0.127383 0.0170696 -1.90371e-20)
(-0.000294728 0.00197162 -7.4279e-21)
(-0.00140955 0.00541529 -7.65391e-21)
(-0.00352062 0.00843905 0)
(-0.00639861 0.0110743 0)
(-0.00991761 0.0133446 0)
(-0.0139928 0.0152722 6.40674e-21)
(-0.0185358 0.0168808 0)
(-0.0234602 0.0181952 5.79918e-21)
(-0.0286853 0.0192411 1.10285e-20)
(-0.0341359 0.0200448 1.04759e-20)
(-0.0397426 0.0206329 0)
(-0.0454411 0.0210323 8.36634e-24)
(-0.0511731 0.0212692 -1.78719e-20)
(-0.0568857 0.0213691 1.69144e-20)
(-0.0625312 0.021356 7.99081e-21)
(-0.0680674 0.0212525 7.55676e-21)
(-0.073457 0.0210789 -7.12755e-21)
(-0.0786674 0.0208541 1.34615e-20)
(-0.0836714 0.020595 -2.53698e-20)
(-0.0884466 0.0203173 -1.22736e-24)
(-0.0929763 0.0200361 -2.24954e-20)
(-0.0972502 0.0197659 2.11688e-20)
(-0.101265 0.0195222 0)
(-0.105027 0.0193206 0)
(-0.108551 0.0191778 8.78137e-21)
(-0.111863 0.0191101 0)
(-0.115003 0.0191318 0)
(-0.118021 0.0192511 0)
(-0.120957 0.0194695 -1.35501e-20)
(-0.123889 0.0197965 1.26907e-20)
(-0.000391578 0.00251171 7.4279e-21)
(-0.00165881 0.00688713 5.75102e-24)
(-0.00387357 0.0107148 3.59563e-23)
(-0.00681549 0.0140372 -1.40364e-20)
(-0.0103639 0.0168861 -1.3411e-20)
(-0.0144376 0.0192913 1.7889e-23)
(-0.0189517 0.0212839 -2.44084e-20)
(-0.0238229 0.0228965 1.16251e-20)
(-0.0289732 0.0241621 -2.21062e-20)
(-0.03433 0.0251143 2.09972e-20)
(-0.0398256 0.025787 -9.9612e-21)
(-0.0453978 0.0262138 1.88886e-20)
(-0.0509895 0.0264276 1.78719e-20)
(-0.0565489 0.02646 1.85787e-23)
(-0.0620294 0.0263408 -1.60121e-20)
(-0.0673889 0.0260981 0)
(-0.0725902 0.0257574 1.63835e-24)
(-0.0776007 0.0253424 1.34732e-20)
(-0.0823922 0.0248749 -1.04404e-25)
(-0.0869412 0.0243757 -9.78917e-24)
(-0.0912294 0.0238648 2.25056e-20)
(-0.0952442 0.023363 -2.11687e-20)
(-0.0989803 0.022892 0)
(-0.10244 0.0224755 1.87105e-20)
(-0.105638 0.0221387 1.12591e-23)
(-0.108596 0.0219074 -4.94188e-20)
(-0.111357 0.0218055 1.54415e-20)
(-0.11397 0.0218492 2.89642e-20)
(-0.11647 0.0220468 1.355e-20)
(-0.118942 0.022417 1.27233e-20)
(-0.000513656 0.00302972 2.98379e-20)
(-0.00197368 0.00830122 -1.53747e-20)
(-0.00432092 0.0129047 1.47006e-20)
(-0.00734577 0.0168925 1.40658e-20)
(-0.0109339 0.0203037 0)
(-0.0150084 0.0231746 -2.56795e-20)
(-0.0194886 0.0255434 -1.22542e-20)
(-0.0242949 0.0274493 -2.32717e-20)
(-0.0293526 0.0289323 1.10525e-20)
(-0.034592 0.030033 3.142e-23)
(-0.039948 0.0307918 1.99534e-20)
(-0.0453604 0.0312488 1.89378e-20)
(-0.0507739 0.031443 -3.58056e-20)
(-0.0561381 0.0314121 1.69567e-20)
(-0.0614073 0.0311913 -2.07868e-23)
(-0.0665401 0.0308138 0)
(-0.0714993 0.0303101 -1.42837e-20)
(-0.076252 0.0297085 -2.69833e-20)
(-0.0807689 0.0290352 3.81512e-20)
(-0.0850251 0.0283156 1.19927e-20)
(-0.0890001 0.0275747 0)
(-0.0926787 0.0268388 -2.12145e-20)
(-0.0960522 0.0261361 0)
(-0.0991198 0.025498 -5.61661e-20)
(-0.101891 0.024959 3.51474e-20)
(-0.104388 0.0245555 -6.33039e-24)
(-0.10665 0.0243229 3.09389e-20)
(-0.108732 0.0242877 -4.3456e-20)
(-0.110659 0.0244681 2.71582e-20)
(-0.112524 0.0248953 1.27276e-20)
(-0.000659013 0.00352139 -1.49393e-20)
(-0.00234937 0.00964634 1.53764e-20)
(-0.0048561 0.014992 -3.35873e-24)
(-0.00798197 0.019619 -4.23374e-20)
(-0.0116198 0.0235724 0)
(-0.0156975 0.0268944 2.56795e-20)
(-0.0201391 0.0296291 -2.45533e-20)
(-0.0248694 0.031822 4.65792e-20)
(-0.0298174 0.0335193 0)
(-0.0349167 0.0347678 -2.10285e-20)
(-0.040105 0.035614 -1.99533e-20)
(-0.0453247 0.0361041 -1.89157e-20)
(-0.0505225 0.036283 -5.38281e-20)
(-0.0556495 0.0361935 3.51024e-24)
(-0.0606613 0.0358764 -1.87917e-23)
(-0.0655171 0.0353696 -1.43648e-23)
(-0.0701798 0.0347081 4.29478e-20)
(-0.0746161 0.0339243 -3.7632e-23)
(-0.0787957 0.0330487 3.47183e-23)
(-0.0826918 0.0321106 -2.39516e-20)
(-0.0862814 0.0311396 -2.36645e-23)
(-0.0895458 0.0301669 4.24473e-20)
(-0.0924722 0.0292271 -5.98796e-20)
(-0.0950555 0.0283591 1.87315e-20)
(-0.0973002 0.0276071 0)
(-0.0992247 0.0270198 0)
(-0.100869 0.0266461 -3.09386e-20)
(-0.102291 0.0265264 2.90296e-20)
(-0.103503 0.0266935 -2.71628e-20)
(-0.104605 0.0271952 0)
(-0.000825403 0.00398298 -1.49971e-20)
(-0.00278031 0.0109124 0)
(-0.00547154 0.0169614 1.47693e-20)
(-0.00871539 0.0221968 8.4864e-20)
(-0.0124124 0.026669 -2.69819e-20)
(-0.0164958 0.0304246 0)
(-0.0208947 0.0335129 -5.40636e-23)
(-0.0255385 0.0359848 2.33674e-20)
(-0.0303603 0.037892 -2.21887e-20)
(-0.0352974 0.0392868 0)
(-0.0402906 0.0402214 0)
(-0.0452851 0.0407475 -3.79635e-20)
(-0.0502299 0.0409153 5.38578e-20)
(-0.0550779 0.0407728 -1.69871e-20)
(-0.0597858 0.0403654 0)
(-0.0643139 0.0397356 3.03774e-20)
(-0.0686251 0.0389223 -2.86184e-20)
(-0.0726857 0.037962 2.70431e-20)
(-0.0764642 0.0368885 -5.09492e-20)
(-0.0799316 0.0357347 -7.20464e-20)
(-0.0830622 0.0345341 2.25829e-20)
(-0.0858331 0.0333222 2.12608e-20)
(-0.0882269 0.0321392 1.99579e-20)
(-0.0902325 0.0310317 0)
(-0.0918488 0.0300539 -3.52533e-20)
(-0.0930888 0.0292678 0)
(-0.0939914 0.0287389 0)
(-0.0946189 0.0285258 -5.80897e-20)
(-0.0949699 0.0286822 -5.95456e-24)
(-0.0951455 0.0292799 -7.6563e-20)
(-0.00101035 0.00441129 1.49971e-20)
(-0.00326036 0.0120909 3.10212e-20)
(-0.00615881 0.0187994 2.97e-20)
(-0.00953632 0.0246087 -2.83157e-20)
(-0.0133015 0.0295726 0)
(-0.0173932 0.0337415 0)
(-0.0217455 0.0371687 2.45694e-20)
(-0.0262928 0.0399097 -2.3419e-20)
(-0.0309727 0.0420209 -3.86314e-23)
(-0.0357262 0.0435595 4.23062e-20)
(-0.0404975 0.0445828 0)
(-0.0452347 0.0451474 3.79633e-20)
(-0.0498893 0.0453083 0)
(-0.0544162 0.0451184 0)
(-0.0587736 0.0446274 1.71578e-23)
(-0.0629224 0.0438816 3.04026e-20)
(-0.0668262 0.0429238 -2.87239e-20)
(-0.0704503 0.0417936 5.41801e-20)
(-0.0737621 0.040528 -2.55375e-20)
(-0.0767306 0.0391626 7.20905e-20)
(-0.0793265 0.0377338 0)
(-0.0815227 0.036281 0)
(-0.0832958 0.0348491 4.00406e-20)
(-0.0846283 0.0334916 0)
(-0.0855117 0.032273 3.5234e-20)
(-0.085952 0.0312697 -3.30872e-20)
(-0.0859853 0.030567 3.10279e-20)
(-0.0856797 0.0302473 -2.90881e-20)
(-0.0850172 0.0303936 5.44493e-20)
(-0.0840855 0.0311116 7.66474e-20)
(-0.0012112 0.00480373 0)
(-0.00378292 0.0131744 -3.10212e-20)
(-0.00690882 0.0204949 9.2907e-23)
(-0.0104343 0.0268397 0)
(-0.014276 0.032265 -5.43559e-20)
(-0.0183782 0.0368239 -3.29027e-23)
(-0.0226805 0.0405728 2.46459e-20)
(-0.027122 0.0435707 0)
(-0.0316448 0.0458783 2.22762e-20)
(-0.0361938 0.0475568 -4.2306e-20)
(-0.0407168 0.048668 0)
(-0.0451649 0.0492729 0)
(-0.0494921 0.0494311 -3.60755e-20)
(-0.0536556 0.0491994 3.41055e-20)
(-0.0576149 0.0486316 -3.22262e-20)
(-0.0613319 0.0477776 0)
(-0.0647705 0.0466834 -2.88069e-20)
(-0.0678954 0.0453912 -8.13669e-20)
(-0.0706729 0.0439406 -1.72976e-23)
(-0.0730693 0.0423692 -1.46535e-23)
(-0.0750518 0.0407156 2.26598e-20)
(-0.0765886 0.0390217 4.26423e-20)
(-0.0776498 0.0373361 -8.0101e-20)
(-0.0782103 0.0357183 3.76562e-20)
(-0.0782527 0.0342425 -2.32062e-23)
(-0.0777737 0.0330005 -2.13078e-24)
(-0.0768045 0.0321005 -2.78888e-24)
(-0.0754204 0.0316554 2.91001e-20)
(-0.0735865 0.0317871 0)
(-0.0713428 0.0326494 0)
(-0.00142522 0.00515834 3.0287e-20)
(-0.00434115 0.0141574 9.65314e-23)
(-0.00771212 0.0220386 1.00031e-22)
(-0.0113982 0.0288772 -5.71131e-20)
(-0.015324 0.0347306 5.43999e-20)
(-0.0194391 0.0396532 0)
(-0.0236879 0.0437039 0)
(-0.0280146 0.0469445 4.7074e-20)
(-0.0323656 0.0494386 -4.46993e-20)
(-0.0366896 0.0512514 3.94395e-23)
(-0.0409382 0.0524484 8.05828e-20)
(-0.0450653 0.0530945 3.81814e-20)
(-0.0490278 0.0532531 -7.22791e-20)
(-0.0527847 0.052985 3.41786e-20)
(-0.0562973 0.0523473 3.23335e-20)
(-0.0595283 0.0513933 -3.05198e-20)
(-0.0624417 0.0501715 5.75805e-20)
(-0.0650021 0.0487266 8.15966e-20)
(-0.0671739 0.0470997 5.12918e-20)
(-0.0689212 0.0453301 2.41426e-20)
(-0.0702073 0.0434572 -4.53933e-20)
(-0.0709953 0.0415244 0)
(-0.0712483 0.0395825 2.54717e-23)
(-0.0709325 0.0376955 3.77277e-20)
(-0.0700201 0.0359462 3.536e-20)
(-0.0684964 0.0344419 -6.63618e-20)
(-0.066384 0.0333161 -3.10861e-20)
(-0.0637677 0.03272 5.82677e-20)
(-0.060602 0.0328254 0)
(-0.056805 0.0338492 -5.11051e-20)
(-0.00164966 0.00547385 3.03663e-20)
(-0.00492811 0.015036 -6.25483e-20)
(-0.00855905 0.0234238 2.51036e-23)
(-0.0124167 0.0307117 -9.77043e-23)
(-0.0164333 0.0369567 0)
(-0.0205629 0.0422141 0)
(-0.024755 0.0465439 0)
(-0.0289581 0.05001 -4.72049e-20)
(-0.0331227 0.0526787 4.48235e-20)
(-0.0372016 0.0546181 -4.2514e-20)
(-0.0411496 0.0558969 -8.07123e-20)
(-0.0449237 0.0565835 -2.46576e-23)
(-0.0484832 0.0567449 7.24775e-20)
(-0.0517893 0.056445 3.43059e-20)
(-0.0548048 0.0557442 0)
(-0.0574933 0.0546984 -6.12489e-20)
(-0.0598188 0.0533587 8.66843e-20)
(-0.0617453 0.0517714 -8.16296e-20)
(-0.0632357 0.0499789 -5.13092e-20)
(-0.0642515 0.0480209 -1.45025e-19)
(-0.0647521 0.0459372 -1.66291e-23)
(-0.0646949 0.043771 -1.07449e-23)
(-0.0640358 0.0415738 2.48205e-23)
(-0.0627314 0.0394119 -7.54331e-20)
(-0.0607424 0.0373747 1.06247e-19)
(-0.0580399 0.0355839 -6.32031e-23)
(-0.0546332 0.0342005 0)
(-0.0506193 0.0334208 -5.82666e-20)
(-0.0459668 0.0334804 5.45679e-20)
(-0.0403318 0.0346881 5.13829e-20)
(-0.00188183 0.00574968 0)
(-0.00553696 0.015808 -3.14329e-20)
(-0.00944001 0.0246461 3.003e-20)
(-0.0134785 0.0323361 5.74025e-20)
(-0.0175914 0.0389337 2.7451e-20)
(-0.0217368 0.0444939 -5.2231e-20)
(-0.0258684 0.0490773 -6.32997e-23)
(-0.0299389 0.0527491 -4.73104e-20)
(-0.0339027 0.0555777 0)
(-0.0377159 0.0576336 4.2747e-20)
(-0.0413367 0.0589882 0)
(-0.0447249 0.059713 0)
(-0.0478423 0.0598779 -7.26202e-20)
(-0.0506518 0.0595499 -6.86593e-20)
(-0.0531175 0.0587921 9.74445e-20)
(-0.0552038 0.0576628 6.12483e-20)
(-0.0568747 0.0562152 7.13663e-23)
(-0.0580932 0.0544969 -5.45469e-20)
(-0.0588205 0.052551 1.0279e-19)
(-0.0590153 0.0504172 1.83159e-24)
(-0.0586328 0.0481346 9.11289e-20)
(-0.0576247 0.045745 0)
(-0.0559392 0.0432984 0)
(-0.0535226 0.0408612 7.55984e-20)
(-0.0503228 0.0385262 -1.06275e-19)
(-0.0462947 0.0364272 9.96525e-20)
(-0.0414283 0.0347525 -6.22737e-20)
(-0.0358295 0.0337463 5.83157e-20)
(-0.0295317 0.0337297 -1.09143e-19)
(-0.0217918 0.0352347 5.14314e-20)
(-0.00211919 0.00598589 -3.06839e-20)
(-0.00616114 0.0164727 0)
(-0.0103457 0.0257035 0)
(-0.0145724 0.0337464 -5.77581e-20)
(-0.0187857 0.040655 1.10147e-19)
(-0.0229472 0.0464832 -5.24119e-20)
(-0.027014 0.0512918 -9.54337e-23)
(-0.0309424 0.0551467 4.74612e-20)
(-0.0346903 0.0581176 0)
(-0.0382168 0.0602772 6.95652e-23)
(-0.041483 0.0616992 1.66428e-23)
(-0.0444512 0.0624576 -7.69072e-20)
(-0.0470853 0.062625 -1.42922e-22)
(-0.0493499 0.0622711 -3.44315e-20)
(-0.0512101 0.0614615 -9.76034e-20)
(-0.0526306 0.0602565 6.14522e-20)
(-0.053575 0.0587111 -5.79615e-20)
(-0.0540051 0.0568741 1.09386e-19)
(-0.05388 0.0547889 -1.03042e-19)
(-0.0531551 0.0524947 -9.69806e-20)
(-0.0517813 0.050029 3.79583e-23)
(-0.0497041 0.047431 -4.28872e-20)
(-0.0468637 0.0447476 4.02863e-20)
(-0.0431958 0.0420422 7.32631e-23)
(-0.0386344 0.0394073 -1.06466e-19)
(-0.0331164 0.0369841 -6.65223e-20)
(-0.0266085 0.0349847 1.24571e-19)
(-0.0192076 0.0336965 -1.16634e-19)
(-0.0110042 0.033534 5.45748e-20)
(-0.00103091 0.0355153 4.90396e-23)
(-0.0023594 0.00618323 9.22096e-20)
(-0.00679453 0.0170312 -3.16379e-20)
(-0.0112672 0.0265962 -6.06065e-20)
(-0.0156873 0.0349412 1.73579e-19)
(-0.0200038 0.042117 2.05666e-22)
(-0.0241804 0.0481759 0)
(-0.0281771 0.0531782 0)
(-0.031953 0.0571904 4.76372e-20)
(-0.0354687 0.0602832 -4.51691e-20)
(-0.0386862 0.0625307 4.29264e-20)
(-0.0415687 0.0640089 -4.07086e-20)
(-0.0440809 0.064794 -7.72233e-20)
(-0.0461882 0.0649609 1.45865e-19)
(-0.0478564 0.0645816 -3.45008e-20)
(-0.0490512 0.0637239 6.5073e-20)
(-0.0497371 0.0624503 -1.23135e-19)
(-0.0498768 0.0608172 -1.64854e-23)
(-0.0494303 0.0588743 4.26127e-23)
(-0.048354 0.0566653 1.03144e-19)
(-0.0465994 0.0542286 -3.43865e-23)
(-0.0441124 0.0515997 0)
(-0.040832 0.0488143 0)
(-0.03669 0.0459146 -4.03935e-20)
(-0.0316111 0.0429581 -1.514e-19)
(-0.0255149 0.0400327 1.06499e-19)
(-0.0183192 0.0372806 -3.81015e-23)
(-0.00997004 0.0349301 -1.2461e-19)
(-0.000556233 0.0333055 1.16594e-19)
(0.00991971 0.032969 -5.45762e-20)
(0.0223936 0.0353991 5.09523e-20)
(-0.0026004 0.00634305 0)
(-0.00743156 0.0174861 0)
(-0.0121963 0.0273267 6.09536e-20)
(-0.0168129 0.0359218 -1.16098e-19)
(-0.0212333 0.043319 8.53293e-23)
(-0.0254224 0.0495687 -5.28206e-20)
(-0.029342 0.0547307 1.50877e-19)
(-0.0329534 0.0588713 -1.4344e-19)
(-0.0362191 0.0620623 -3.28601e-24)
(-0.0391031 0.0643791 -4.30586e-20)
(-0.0415706 0.0658994 -1.22576e-19)
(-0.0435878 0.0667014 1.15869e-19)
(-0.0451213 0.0668622 0)
(-0.0461374 0.066456 0)
(-0.0466016 0.0655526 6.52793e-20)
(-0.0464777 0.0642164 1.23454e-19)
(-0.0457267 0.062505 -5.81934e-20)
(-0.0443058 0.0604694 0)
(-0.0421677 0.0581534 -5.1678e-20)
(-0.0392593 0.0555947 -1.12152e-24)
(-0.0355207 0.0528265 -4.58101e-20)
(-0.0308835 0.0498809 0)
(-0.0252705 0.0467941 -4.04596e-20)
(-0.0185951 0.0436157 3.79079e-20)
(-0.0107623 0.0404243 -7.1025e-20)
(-0.00166973 0.0373564 1.99698e-19)
(0.00875914 0.0346462 -5.16407e-23)
(0.0204462 0.0326558 5.82875e-20)
(0.0334727 0.0321137 0)
(0.0489164 0.0348585 -5.13685e-20)
(-0.00284045 0.00646721 -6.20957e-20)
(-0.00806733 0.0178413 6.38362e-20)
(-0.0131255 0.0278993 1.48319e-22)
(-0.0179392 0.036692 -5.83118e-20)
(-0.0224621 0.0442631 0)
(-0.0266589 0.0506616 -1.06123e-19)
(-0.0304922 0.0559462 8.38032e-23)
(-0.0339245 0.0601835 4.77856e-20)
(-0.0369197 0.0634459 2.95287e-24)
(-0.039443 0.0658101 2.2337e-24)
(-0.0414608 0.0673554 1.22692e-19)
(-0.0429402 0.068162 3.87604e-20)
(-0.0438481 0.0683088 3.67624e-20)
(-0.0441508 0.067872 -6.93328e-20)
(-0.0438127 0.0669233 6.54939e-20)
(-0.0427958 0.065529 -6.17549e-20)
(-0.0410582 0.0637483 5.83044e-20)
(-0.0385534 0.0616331 -5.49525e-20)
(-0.0352292 0.0592278 0)
(-0.0310264 0.0565695 -4.87757e-20)
(-0.0258778 0.0536899 9.15511e-20)
(-0.0197068 0.0506174 4.30855e-20)
(-0.0124262 0.047382 -4.0483e-20)
(-0.00393766 0.0440241 1.51729e-19)
(0.00586843 0.0406095 -3.55726e-20)
(0.0171145 0.0372612 6.66002e-20)
(0.0299035 0.0342062 -6.22548e-20)
(0.0441686 0.0318294 4.38741e-23)
(0.0600419 0.0310029 0)
(0.0789677 0.0340545 -1.01297e-19)
(-0.00307815 0.00655808 -1.14966e-22)
(-0.00869769 0.018102 -6.41276e-20)
(-0.0140479 0.0283204 0)
(-0.0190569 0.0372575 -5.86996e-20)
(-0.023678 0.044954 5.58675e-20)
(-0.0278749 0.0514571 -9.59567e-23)
(-0.0316097 0.056825 0)
(-0.0348452 0.0611244 -7.96341e-23)
(-0.0375457 0.0644284 -4.55978e-20)
(-0.0396771 0.0668153 4.33316e-20)
(-0.041206 0.0683657 0)
(-0.0420995 0.0691616 -7.77219e-20)
(-0.0423241 0.0692838 7.37206e-20)
(-0.0418449 0.0688105 0)
(-0.0406243 0.0678154 0)
(-0.0386211 0.0663663 0)
(-0.0357894 0.0645242 0)
(-0.0320774 0.0623424 5.50338e-20)
(-0.0274262 0.0598662 -5.18337e-20)
(-0.0217688 0.0571329 1.46244e-19)
(-0.0150292 0.0541732 -9.17184e-20)
(-0.00712048 0.0510126 -8.6117e-20)
(0.00205559 0.047676 1.21349e-19)
(0.0126099 0.0441943 4.15282e-23)
(0.0246664 0.0406189 -7.11447e-20)
(0.038366 0.0370524 -6.65984e-20)
(0.0538399 0.0337013 -6.22847e-20)
(0.0710328 0.0309448 1.16404e-19)
(0.0900863 0.0297585 -1.08594e-19)
(0.113071 0.0331308 2.02228e-19)
(-0.00331251 0.00661835 1.25286e-19)
(-0.0093192 0.0182742 -1.31214e-22)
(-0.0149576 0.0285973 -1.23352e-19)
(-0.020157 0.0376262 1.17652e-19)
(-0.0248689 0.0453986 -5.62083e-20)
(-0.0290546 0.0519606 -5.34164e-20)
(-0.0326747 0.0573701 5.08198e-20)
(-0.0356914 0.0616945 4.8278e-20)
(-0.0380684 0.0650079 -9.17536e-20)
(-0.0397711 0.0673897 -1.30512e-19)
(-0.0407658 0.0689226 -4.11431e-20)
(-0.0410186 0.0696902 1.55884e-19)
(-0.0404944 0.0697751 -2.21037e-19)
(-0.0391559 0.0692574 6.96669e-20)
(-0.0369622 0.0682129 0)
(-0.0338675 0.0667112 0)
(-0.02982 0.0648152 0)
(-0.0247608 0.0625799 1.10263e-19)
(-0.0186223 0.060052 -5.1904e-20)
(-0.0113277 0.0572699 -4.88816e-20)
(-0.00278974 0.0542645 -9.18041e-20)
(0.00709047 0.0510602 8.62448e-20)
(0.0184243 0.0476779 -4.04974e-20)
(0.031336 0.044141 -7.59799e-20)
(0.0459634 0.0404864 -6.19228e-23)
(0.0624633 0.0367933 -1.33106e-19)
(0.0809944 0.0332354 1.86815e-19)
(0.101513 0.0301541 -1.7466e-19)
(0.124107 0.0285598 5.45756e-20)
(0.15181 0.0322604 -5.03289e-20)
(-0.00354287 0.00665097 -6.27924e-20)
(-0.00992914 0.0183646 6.46057e-20)
(-0.015849 0.0287388 6.17549e-20)
(-0.0212306 0.0378072 -1.77248e-19)
(-0.0260221 0.0456056 5.62112e-20)
(-0.0301808 0.0521795 5.3638e-20)
(-0.0336652 0.0575875 0)
(-0.0364353 0.0618976 0)
(-0.0384538 0.0651857 4.59112e-20)
(-0.0396845 0.0675328 8.70604e-20)
(-0.0400921 0.0690233 -1.65265e-19)
(-0.0396407 0.0697427 -7.47232e-23)
(-0.0382924 0.0697758 0)
(-0.036006 0.0692045 0)
(-0.0327357 0.0681065 -6.58722e-20)
(-0.0284294 0.0665537 3.84165e-23)
(-0.0230274 0.0646111 5.8608e-20)
(-0.0164614 0.0623359 -5.51538e-20)
(-0.00865308 0.059777 -1.03954e-19)
(0.000486867 0.0569748 9.76931e-20)
(0.0110593 0.0539617 4.59199e-20)
(0.0231776 0.0507628 -1.29478e-19)
(0.0369677 0.047398 -8.09433e-20)
(0.0525686 0.0438857 7.6052e-20)
(0.0701311 0.0402515 7.12112e-20)
(0.089824 0.0365512 6.65886e-20)
(0.111829 0.0329191 0)
(0.136116 0.0296297 0)
(0.162622 0.0276237 1.08203e-19)
(0.195779 0.0316735 0)
(-0.00376891 0.00665902 6.34098e-20)
(-0.0105254 0.0183802 -6.50744e-20)
(-0.0167172 0.0287542 1.24497e-19)
(-0.0222691 0.0378109 -2.6823e-22)
(-0.027124 0.0455852 0)
(-0.0312347 0.0521235 0)
(-0.0345559 0.0574854 0)
(-0.037045 0.0617407 -4.8619e-20)
(-0.0386621 0.0649673 4.6166e-20)
(-0.0393687 0.0672481 0)
(-0.0391267 0.0686699 8.27076e-20)
(-0.0378969 0.0693201 7.83963e-20)
(-0.0356369 0.0692856 -7.40806e-20)
(-0.0323004 0.0686507 6.99869e-20)
(-0.0278345 0.0674951 -8.86439e-23)
(-0.0221787 0.0658931 -6.22859e-20)
(-0.0152634 0.0639122 -5.87094e-20)
(-0.00700845 0.0616124 1.65799e-19)
(0.00267798 0.0590454 5.19302e-20)
(0.0139 0.056255 -9.78388e-20)
(0.0267746 0.0532767 -4.59403e-20)
(0.0414316 0.0501383 4.31621e-20)
(0.0580133 0.0468613 0)
(0.0766735 0.0434634 -7.59354e-20)
(0.0975746 0.0399635 -7.11128e-20)
(0.120891 0.0363988 0)
(0.14682 0.0328647 6.20477e-20)
(0.175354 0.0295521 -1.16197e-19)
(0.206122 0.0271897 -1.62391e-19)
(0.245515 0.0316532 0)
(-0.00399059 0.00664553 -1.26978e-19)
(-0.0111062 0.0183281 6.55454e-20)
(-0.0175573 0.0286529 -1.24955e-19)
(-0.0232629 0.0376479 -2.77057e-22)
(-0.0281597 0.0453488 0)
(-0.0321946 0.0518037 0)
(-0.0353178 0.0570745 5.15186e-20)
(-0.0374828 0.0612336 9.78287e-20)
(-0.0386463 0.0643615 0)
(-0.0387663 0.0665439 0)
(-0.0378004 0.0678699 -1.66217e-19)
(-0.0357047 0.0684295 7.86733e-20)
(-0.0324309 0.0683119 -1.37032e-22)
(-0.0279252 0.0676037 0)
(-0.0221259 0.0663874 -2.28265e-23)
(-0.0149618 0.0647398 6.23903e-20)
(-0.00635086 0.0627314 -1.37395e-22)
(0.00380152 0.0604255 -2.21293e-19)
(0.015603 0.0578779 -5.20684e-20)
(0.0291751 0.0551364 9.78366e-20)
(0.0446527 0.0522414 9.19019e-20)
(0.0621836 0.0492255 -5.80858e-23)
(0.0819268 0.0461151 8.0987e-20)
(0.104049 0.0429308 1.51836e-19)
(0.128722 0.0396909 7.11102e-20)
(0.156117 0.0364211 6.64542e-20)
(0.186428 0.033186 6.19554e-20)
(0.219693 0.0300995 1.15632e-19)
(0.255022 0.0275009 -6.51675e-22)
(0.301418 0.0325163 4.87505e-20)
(-0.00420804 0.00661337 1.27968e-19)
(-0.0116699 0.0182151 -1.97122e-19)
(-0.0183641 0.0284444 1.25566e-19)
(-0.0242019 0.0373294 1.19804e-19)
(-0.0291124 0.0449082 5.70546e-20)
(-0.0330359 0.0512324 -4.68089e-23)
(-0.0359172 0.0563673 -5.14356e-20)
(-0.037705 0.060389 -9.78285e-20)
(-0.0383512 0.0633814 2.36408e-22)
(-0.0378091 0.0654333 1.76088e-19)
(-0.036031 0.0666369 -8.36355e-20)
(-0.0329662 0.0670853 1.57598e-19)
(-0.0285587 0.0668703 -1.17286e-22)
(-0.0227451 0.0660814 -1.40489e-19)
(-0.0154526 0.0648038 -5.77125e-24)
(-0.00659699 0.0631177 0)
(0.00391902 0.061097 2.94032e-19)
(0.0162066 0.0588093 5.52723e-20)
(0.0303918 0.056315 0)
(0.0466149 0.0536675 4.89201e-20)
(0.06503 0.0509132 -4.60141e-20)
(0.0858026 0.0480918 1.72581e-19)
(0.109106 0.0452367 -2.4292e-19)
(0.135118 0.0423754 7.59053e-20)
(0.164008 0.0395308 0)
(0.195936 0.0367255 6.62897e-20)
(0.231066 0.034004 -1.23896e-19)
(0.269509 0.0314423 1.15431e-19)
(0.309596 0.0287842 -1.07526e-19)
(0.363649 0.0345836 -9.87991e-20)
(-0.00442147 0.00656511 -1.2847e-19)
(-0.012215 0.0180473 -3.47472e-22)
(-0.0191318 0.0281371 -6.29383e-20)
(-0.025074 0.0368657 -6.00455e-20)
(-0.0299625 0.0442754 -1.14799e-19)
(-0.0337299 0.0504228 5.45847e-20)
(-0.0363147 0.0553782 7.20949e-23)
(-0.03766 0.0592224 -9.83999e-20)
(-0.037712 0.0620433 -1.39637e-19)
(-0.0364176 0.0639343 1.60596e-22)
(-0.0337221 0.064991 8.33954e-20)
(-0.0295664 0.0653099 -1.57797e-19)
(-0.0238846 0.0649863 7.46659e-20)
(-0.0166016 0.0641128 7.04576e-20)
(-0.00763092 0.0627781 -2.43985e-26)
(0.00312732 0.0610662 6.25876e-20)
(0.0157877 0.0590555 -1.17693e-19)
(0.0304803 0.0568183 0)
(0.0473507 0.0544208 -1.04224e-19)
(0.0665591 0.0519231 9.79319e-20)
(0.0882776 0.0493792 -9.19582e-20)
(0.112687 0.0468371 -8.63155e-20)
(0.13997 0.0443392 0)
(0.170303 0.0419223 -2.2735e-19)
(0.203848 0.0396178 1.43232e-22)
(0.240728 0.0374513 -3.31446e-19)
(0.281045 0.0354562 1.85923e-19)
(0.325013 0.0337419 -2.30542e-19)
(0.369918 0.0312356 1.0752e-19)
(0.432021 0.038144 -9.74649e-20)
(-0.004631 0.00650287 6.44071e-20)
(-0.0127393 0.0178297 6.62268e-20)
(-0.0198532 0.0277388 6.36009e-20)
(-0.0258652 0.0362665 -1.86419e-22)
(-0.0306868 0.043462 -1.65852e-22)
(-0.0342427 0.0493885 0)
(-0.0364644 0.0541227 0)
(-0.0372882 0.0577512 0)
(-0.0366533 0.0603676 0)
(-0.0344991 0.06207 0)
(-0.0307619 0.0629586 8.37005e-20)
(-0.0253722 0.0631339 -7.9118e-20)
(-0.0182521 0.0626951 7.48582e-20)
(-0.00931218 0.061739 -2.44939e-24)
(0.00154999 0.0603584 -6.64265e-20)
(0.0144522 0.0586417 2.38883e-23)
(0.0295284 0.0566727 -1.17941e-19)
(0.0469287 0.0545294 1.10927e-19)
(0.0668188 0.052285 1.04221e-19)
(0.089377 0.0500072 -9.78375e-20)
(0.11479 0.0477585 1.83991e-19)
(0.143248 0.0455963 0)
(0.174932 0.0435731 -1.61609e-19)
(0.210004 0.0417356 2.86724e-22)
(0.248596 0.0401252 3.37688e-22)
(0.290773 0.0387734 5.20566e-22)
(0.336529 0.0377024 -6.1462e-20)
(0.386188 0.037149 1.1511e-19)
(0.435802 0.0350133 1.06991e-19)
(0.505902 0.0434192 5.09796e-20)
(-0.00483652 0.00642819 0)
(-0.0132395 0.0175664 6.67655e-20)
(-0.0205194 0.0272557 -6.34289e-20)
(-0.0265582 0.0355405 -1.27455e-22)
(-0.0312581 0.042479 1.15822e-19)
(-0.0345351 0.048143 -5.5116e-20)
(-0.036313 0.0526172 0)
(-0.0365205 0.0559955 0)
(-0.0350887 0.058378 -9.38895e-20)
(-0.0319476 0.0598686 8.9069e-20)
(-0.0270227 0.0605729 8.4239e-20)
(-0.020232 0.0605963 0)
(-0.0114833 0.060043 7.5052e-20)
(-0.000670656 0.0590142 0)
(0.0123267 0.057608 -1.33049e-19)
(0.0276461 0.0559184 1.8807e-19)
(0.045442 0.0540351 1.76931e-19)
(0.0658847 0.0520432 -5.55011e-20)
(0.0891577 0.0500236 -1.1232e-22)
(0.115454 0.0480524 -1.46961e-19)
(0.144967 0.0462013 0)
(0.177884 0.0445374 0)
(0.21437 0.0431228 8.08324e-20)
(0.254551 0.0420132 1.51221e-19)
(0.298498 0.0412582 -6.79347e-23)
(0.346188 0.0408941 1.32285e-19)
(0.397462 0.0409221 1.2337e-19)
(0.452704 0.0417931 0)
(0.506765 0.040233 -1.06984e-19)
(0.584141 0.0505286 1.46917e-19)
(-0.00503752 0.00634197 6.5547e-20)
(-0.0137115 0.0172598 0)
(-0.0211191 0.026692 1.54297e-22)
(-0.0271325 0.0346944 -6.11842e-20)
(-0.0316441 0.0413362 5.83868e-20)
(-0.0345612 0.0466996 5.52975e-20)
(-0.0357992 0.0508791 -1.16648e-22)
(-0.0352783 0.0539771 5.00027e-20)
(-0.0329198 0.0561015 0)
(-0.028643 0.0573631 -1.78623e-19)
(-0.0223605 0.0578738 2.67561e-22)
(-0.013976 0.057745 0)
(-0.0033803 0.0570865 7.52373e-20)
(0.00955084 0.0560053 -2.12582e-19)
(0.0249581 0.0546058 6.68125e-20)
(0.0429996 0.0529883 -6.27083e-20)
(0.0638496 0.0512497 -1.18124e-19)
(0.0876963 0.0494831 -1.66682e-19)
(0.114737 0.0477775 0)
(0.145169 0.046218 0)
(0.179184 0.0448855 9.18865e-20)
(0.216946 0.0438555 8.60466e-20)
(0.25858 0.0431978 -8.08346e-20)
(0.304148 0.0429741 0)
(0.353625 0.0432376 0)
(0.406857 0.0440231 0)
(0.463502 0.0453 1.22723e-19)
(0.523857 0.0477592 -5.69746e-20)
(0.581988 0.0469659 1.07383e-19)
(0.665016 0.0594608 9.47722e-20)
(-0.00523289 0.00624438 -1.31296e-19)
(-0.0141489 0.0169106 6.7592e-20)
(-0.0216381 0.0260506 -6.47363e-20)
(-0.0275631 0.0337335 6.17041e-20)
(-0.031807 0.040042 -5.83867e-20)
(-0.0342683 0.045071 5.55834e-20)
(-0.0348533 0.0489259 -5.28811e-20)
(-0.0334725 0.0517194 -9.98939e-20)
(-0.0300365 0.0535682 9.50063e-20)
(-0.0244517 0.0545913 1.79286e-19)
(-0.0166166 0.0549078 8.45354e-20)
(-0.00641772 0.0546362 -8.00517e-20)
(0.00627246 0.053893 2.12456e-22)
(0.0215981 0.0527923 3.20857e-23)
(0.0397204 0.0514455 6.69539e-20)
(0.0608175 0.0499607 0)
(0.085081 0.0484428 1.18192e-19)
(0.112712 0.0469931 2.77752e-19)
(0.143911 0.0457095 -5.22588e-20)
(0.178871 0.0446855 0)
(0.217758 0.0440092 -1.83746e-19)
(0.260691 0.0437626 -8.60825e-20)
(0.307727 0.0440188 -8.04982e-20)
(0.358821 0.0448399 7.55781e-20)
(0.413812 0.0462755 -7.03213e-20)
(0.47237 0.0483479 6.59514e-20)
(0.53396 0.0510002 -3.64548e-22)
(0.598525 0.0550588 1.1357e-19)
(0.660297 0.0552638 -1.06266e-19)
(0.746178 0.070099 -1.90984e-19)
(-0.00542074 0.00613487 6.64332e-20)
(-0.0145435 0.0165182 6.80058e-20)
(-0.0220585 0.0253319 -2.34053e-22)
(-0.0278203 0.0326611 3.94675e-22)
(-0.0317031 0.0386037 0)
(-0.0335962 0.0432692 -2.41642e-22)
(-0.0333965 0.0467758 -1.59661e-19)
(-0.031004 0.0492475 0)
(-0.026317 0.0508113 -9.5403e-20)
(-0.0192277 0.0515953 -3.60051e-19)
(-0.00961801 0.0517274 8.51548e-20)
(0.00264351 0.051334 -8.0322e-20)
(0.0177043 0.0505398 -1.50891e-19)
(0.0357289 0.049467 1.42579e-19)
(0.0568982 0.048235 0)
(0.0814072 0.0469605 6.28867e-20)
(0.109459 0.0457572 -1.77817e-19)
(0.141259 0.0447349 -5.56505e-20)
(0.176998 0.0439993 -1.56755e-19)
(0.216842 0.0436504 0)
(0.260907 0.0437812 1.83707e-19)
(0.30924 0.0444744 8.6078e-20)
(0.361785 0.0458004 0)
(0.418355 0.0478125 7.52745e-20)
(0.478608 0.0505476 0)
(0.541986 0.0540001 -6.53923e-20)
(0.607782 0.0581247 -1.83008e-19)
(0.675231 0.0636007 -2.26759e-19)
(0.74015 0.0652461 -1.05131e-19)
(0.824519 0.0823032 -3.46451e-21)
(-0.00559831 0.00601217 -6.64332e-20)
(-0.0148845 0.0160803 2.90768e-22)
(-0.0223588 0.0245348 6.54206e-20)
(-0.0278693 0.0314785 -6.20987e-20)
(-0.031282 0.037027 -5.91929e-20)
(-0.0324771 0.0413056 1.12237e-19)
(-0.0313416 0.044447 5.35122e-20)
(-0.027764 0.0465878 1.01327e-19)
(-0.0216292 0.0478665 9.54519e-20)
(-0.0128135 0.0484217 9.06063e-20)
(-0.00118118 0.0483911 1.71032e-19)
(0.0134185 0.0479104 -3.00972e-22)
(0.0311529 0.0471136 0)
(0.0522057 0.0461318 -7.12679e-20)
(0.0767743 0.045094 -2.18955e-22)
(0.105065 0.0441256 1.28414e-22)
(0.137282 0.0433491 1.77915e-19)
(0.173621 0.042882 0)
(0.214243 0.0428359 1.04454e-19)
(0.259261 0.043314 0)
(0.308713 0.0444081 3.01592e-25)
(0.362528 0.0461949 -8.58377e-20)
(0.4205 0.0487315 1.60933e-19)
(0.482256 0.052051 -7.54993e-20)
(0.547236 0.056165 -1.40281e-19)
(0.614626 0.0610219 6.55224e-20)
(0.683573 0.066646 2.43683e-19)
(0.752355 0.0731709 5.64061e-20)
(0.819788 0.0771603 2.61119e-19)
(0.896359 0.0955738 4.99389e-20)
(-0.00576172 0.00587436 6.71638e-20)
(-0.0151583 0.015593 -1.37814e-19)
(-0.0225131 0.0236562 0)
(-0.0276697 0.0301859 0)
(-0.0304868 0.0353165 5.95807e-20)
(-0.0308357 0.0391911 -2.65637e-22)
(-0.0285931 0.0419581 -1.0711e-19)
(-0.023635 0.0437682 -1.01507e-19)
(-0.0158318 0.0447724 4.12853e-22)
(-0.00504309 0.045121 4.21283e-22)
(0.00888522 0.0449628 -8.55167e-20)
(0.0261232 0.0444441 1.61214e-19)
(0.0468568 0.043709 -1.52152e-19)
(0.0712854 0.0428989 7.17514e-20)
(0.0996168 0.0421522 6.7221e-20)