/*--------------------------------*- C++ -*----------------------------------*\
  =========                 |
  \\      /  F ield         | OpenFOAM: The Open Source CFD Toolbox
   \\    /   O peration     | Website:  https://openfoam.org
    \\  /    A nd           | Version:  7
     \\/     M anipulation  |
\*---------------------------------------------------------------------------*/
FoamFile
{
    version     2.0;
    format      ascii;
    class       volScalarField;
    location    "45";
    object      p;
}
// * * * * * * * * * * * * * * * * * * * * * * * * * * * * * * * * * * * * * //

dimensions      [0 2 -2 0 0 0 0];

internalField   nonuniform List<scalar> 
392
(
-0.0155646
-0.0149554
-0.0143649
-0.0155712
-0.0149618
-0.0143711
-0.0155845
-0.0149746
-0.0143834
-0.0156045
-0.0149938
-0.0144018
-0.0156311
-0.0150193
-0.0144264
-0.0156643
-0.0150512
-0.0144571
-0.015704
-0.0150894
-0.0144938
-0.0157503
-0.0151339
-0.0145366
-0.0158031
-0.0151847
-0.0145854
-0.0158623
-0.0152417
-0.0146402
-0.015928
-0.0153048
-0.0147009
-0.016
-0.015374
-0.0147674
-0.0160782
-0.0154492
-0.0148397
-0.0142489
-0.0155303
-0.0149177
-0.0143239
-0.0156173
-0.0150013
-0.0144043
-0.0157101
-0.0150905
-0.01449
-0.0158085
-0.0151851
-0.0145809
-0.0159125
-0.0152851
-0.0146771
-0.016022
-0.0153903
-0.0147782
-0.0161363
-0.0155002
-0.0148838
-0.0162549
-0.0156143
-0.0149935
-0.016382
-0.0157364
-0.0151109
-0.0165266
-0.0158752
-0.0152441
-0.0166612
-0.0160043
-0.0153679
-0.0167537
-0.016095
-0.0154569
-0.0148384
-0.0170344
-0.0163681
-0.0157225
-0.0150967
-0.0173191
-0.0166456
-0.015993
-0.0153601
-0.0176191
-0.0169382
-0.0162782
-0.0156381
-0.0179413
-0.0172526
-0.0165849
-0.0159371
-0.0175863
-0.0169105
-0.0162547
-0.0179366
-0.0172525
-0.0165884
-0.0183011
-0.0176086
-0.0169361
-0.0186772
-0.0179762
-0.0172952
-0.0190619
-0.0183524
-0.017663
-0.0194523
-0.0187345
-0.0180367
-0.0198453
-0.0191195
-0.0184135
-0.0202381
-0.0195045
-0.0187907
-0.0206278
-0.0198869
-0.0191656
-0.0210121
-0.0202643
-0.0195358
-0.0213886
-0.0206343
-0.0198992
-0.0217554
-0.0209951
-0.0202537
-0.0221107
-0.0213449
-0.0205977
-0.022453
-0.0216823
-0.0209298
-0.0227813
-0.0220061
-0.0212488
-0.0230947
-0.0223154
-0.0215538
-0.0233923
-0.0226094
-0.0218439
-0.0236739
-0.0228878
-0.0221188
-0.0239389
-0.0231501
-0.022378
-0.0241873
-0.023396
-0.0226212
-0.0244189
-0.0236256
-0.0228484
-0.0246339
-0.0238388
-0.0230595
-0.0248323
-0.0240357
-0.0232546
-0.0250142
-0.0242163
-0.0234337
-0.02518
-0.024381
-0.023597
-0.0253297
-0.0245299
-0.0237448
-0.0254636
-0.0246631
-0.023877
-0.025582
-0.0247809
-0.023994
-0.0256851
-0.0248835
-0.024096
-0.025773
-0.024971
-0.024183
-0.0258459
-0.0250437
-0.0242552
-0.0259041
-0.0251016
-0.0243129
-0.0259476
-0.025145
-0.024356
-0.0259766
-0.0251738
-0.0243847
-0.025991
-0.0251882
-0.024399
-0.0167537
-0.0170344
-0.0173192
-0.0176191
-0.0179414
-0.0182831
-0.0186417
-0.0190147
-0.0193992
-0.0197923
-0.0201908
-0.0205917
-0.0209921
-0.021389
-0.02178
-0.0221627
-0.0225352
-0.0228956
-0.0232427
-0.0235751
-0.0238922
-0.0241931
-0.0244774
-0.0247448
-0.0249952
-0.0252286
-0.025445
-0.0256446
-0.0258276
-0.0259941
-0.0261444
-0.0262788
-0.0263976
-0.0265009
-0.026589
-0.0266621
-0.0267204
-0.0267639
-0.0267929
-0.0268074
-0.016095
-0.0163681
-0.0166457
-0.0169382
-0.0172527
-0.0175863
-0.0179366
-0.0183012
-0.0186772
-0.0190619
-0.0194523
-0.0198453
-0.0202381
-0.0206278
-0.0210121
-0.0213886
-0.0217554
-0.0221107
-0.022453
-0.0227814
-0.0230947
-0.0233924
-0.0236739
-0.0239389
-0.0241873
-0.0244189
-0.0246339
-0.0248323
-0.0250142
-0.02518
-0.0253297
-0.0254636
-0.025582
-0.0256851
-0.025773
-0.0258459
-0.0259041
-0.0259476
-0.0259766
-0.025991
-0.0154569
-0.0157225
-0.015993
-0.0162782
-0.0165849
-0.0169105
-0.0172525
-0.0176086
-0.0179762
-0.0183525
-0.0187345
-0.0191195
-0.0195045
-0.019887
-0.0202643
-0.0206344
-0.0209951
-0.0213449
-0.0216823
-0.0220061
-0.0223154
-0.0226095
-0.0228878
-0.0231501
-0.023396
-0.0236256
-0.0238388
-0.0240357
-0.0242164
-0.024381
-0.0245299
-0.0246631
-0.0247809
-0.0248835
-0.024971
-0.0250437
-0.0251016
-0.025145
-0.0251739
-0.0251882
-0.0166612
-0.0160043
-0.0153679
-0.0165266
-0.0158752
-0.0152441
-0.016382
-0.0157364
-0.0151109
-0.016255
-0.0156143
-0.0149936
-0.0161363
-0.0155002
-0.0148839
-0.016022
-0.0153903
-0.0147782
-0.0159125
-0.0152851
-0.0146771
-0.0158085
-0.0151851
-0.0145809
-0.0157101
-0.0150905
-0.01449
-0.0156173
-0.0150013
-0.0144043
-0.0161626
-0.0155303
-0.0149177
-0.0143239
-0.0160782
-0.0154492
-0.0148397
-0.0142489
-0.016
-0.015374
-0.0147674
-0.015928
-0.0153048
-0.0147009
-0.0158623
-0.0152417
-0.0146402
-0.0158031
-0.0151847
-0.0145854
-0.0157503
-0.015134
-0.0145366
-0.015704
-0.0150894
-0.0144938
-0.0156643
-0.0150512
-0.0144571
-0.0156311
-0.0150193
-0.0144264
-0.0156045
-0.0149938
-0.0144018
-0.0155845
-0.0149746
-0.0143834
-0.0155712
-0.0149618
-0.0143711
-0.0155646
-0.0149554
-0.0143649
)
;

boundaryField
{
    inlet
    {
        type            zeroGradient;
    }
    outlet
    {
        type            fixedValue;
        value           nonuniform 0();
    }
    cylinder
    {
        type            zeroGradient;
    }
    top
    {
        type            symmetryPlane;
    }
    bottom
    {
        type            symmetryPlane;
    }
    defaultFaces
    {
        type            empty;
    }
    procBoundary49to48
    {
        type            processor;
        value           nonuniform List<scalar> 
131
(
-0.0161935
-0.0162004
-0.0162142
-0.016235
-0.0162626
-0.0162971
-0.0163385
-0.0163866
-0.0164415
-0.0165032
-0.0165715
-0.0166463
-0.0167277
-0.0161626
-0.0161626
-0.0162531
-0.0163496
-0.016452
-0.0165602
-0.0166741
-0.016793
-0.0169165
-0.0170486
-0.0171994
-0.0173397
-0.017434
-0.0177224
-0.0180144
-0.0183218
-0.0186519
-0.0182831
-0.0182831
-0.0186417
-0.0190147
-0.0193992
-0.0197923
-0.0201908
-0.0205917
-0.020992
-0.021389
-0.02178
-0.0221627
-0.0225351
-0.0228956
-0.0232426
-0.0235751
-0.0238921
-0.024193
-0.0244774
-0.0247448
-0.0249952
-0.0252286
-0.025445
-0.0256446
-0.0258275
-0.0259941
-0.0261444
-0.0262788
-0.0263976
-0.0265009
-0.026589
-0.0266621
-0.0267204
-0.0267639
-0.0267929
-0.0268074
-0.017434
-0.0177224
-0.0180145
-0.0183218
-0.0186519
-0.0190018
-0.0193688
-0.0197501
-0.020143
-0.0205443
-0.0209509
-0.0213596
-0.0217672
-0.0221711
-0.0225685
-0.0229572
-0.023335
-0.0237003
-0.0240516
-0.0243879
-0.0247082
-0.025012
-0.0252987
-0.0255682
-0.0258203
-0.026055
-0.0262725
-0.0264729
-0.0266565
-0.0268235
-0.0269742
-0.0271088
-0.0272277
-0.0273311
-0.0274192
-0.0274923
-0.0275505
-0.0275941
-0.027623
-0.0276375
-0.0173397
-0.0171994
-0.0170487
-0.0169165
-0.016793
-0.0166741
-0.0165602
-0.016452
-0.0163496
-0.0162531
-0.0162531
-0.0168155
-0.0167277
-0.0166463
-0.0165715
-0.0165032
-0.0164416
-0.0163866
-0.0163385
-0.0162971
-0.0162626
-0.016235
-0.0162142
-0.0162004
-0.0161935
)
;
    }
    procBoundary49to50
    {
        type            processor;
        value           nonuniform List<scalar> 
131
(
-0.0137924
-0.0137983
-0.0138101
-0.0138279
-0.0138515
-0.013881
-0.0139163
-0.0139575
-0.0140044
-0.0140571
-0.0141154
-0.0141793
-0.0141793
-0.0136758
-0.0137479
-0.0138252
-0.0139077
-0.0139951
-0.0140875
-0.0141847
-0.0142863
-0.0143918
-0.0145046
-0.0146325
-0.0147512
-0.0147512
-0.0142388
-0.0144899
-0.0147463
-0.0150172
-0.0153085
-0.0156181
-0.0159436
-0.0162829
-0.0166335
-0.0169928
-0.0173581
-0.0177267
-0.0180959
-0.0184631
-0.0188261
-0.0191825
-0.0195306
-0.0198686
-0.0201952
-0.0205091
-0.0208094
-0.0210954
-0.0213665
-0.0216223
-0.0218625
-0.022087
-0.0222957
-0.0224887
-0.0226661
-0.0228278
-0.0229742
-0.0231053
-0.0232214
-0.0233225
-0.0234088
-0.0234805
-0.0235377
-0.0235806
-0.0236091
-0.0236233
-0.0148385
-0.0150967
-0.0153602
-0.0156382
-0.0159372
-0.0162547
-0.0165884
-0.0169361
-0.0172952
-0.017663
-0.0180367
-0.0184135
-0.0187907
-0.0191656
-0.0195358
-0.0198992
-0.0202537
-0.0205977
-0.0209298
-0.0212488
-0.0215538
-0.0218439
-0.0221188
-0.022378
-0.0226212
-0.0228484
-0.0230595
-0.0232546
-0.0234337
-0.0235971
-0.0237448
-0.023877
-0.0239941
-0.024096
-0.024183
-0.0242552
-0.0243129
-0.024356
-0.0243847
-0.024399
-0.0147512
-0.0146325
-0.0145047
-0.0143918
-0.0142863
-0.0141848
-0.0140875
-0.0139951
-0.0139077
-0.0138252
-0.0137479
-0.0136758
-0.0141794
-0.0141794
-0.0141154
-0.0140571
-0.0140044
-0.0139575
-0.0139163
-0.013881
-0.0138515
-0.0138279
-0.0138101
-0.0137983
-0.0137924
)
;
    }
}


// ************************************************************************* //
