/*--------------------------------*- C++ -*----------------------------------*\
  =========                 |
  \\      /  F ield         | OpenFOAM: The Open Source CFD Toolbox
   \\    /   O peration     | Website:  https://openfoam.org
    \\  /    A nd           | Version:  7
     \\/     M anipulation  |
\*---------------------------------------------------------------------------*/
FoamFile
{
    version     2.0;
    format      ascii;
    class       volVectorField;
    location    "4";
    object      U;
}
// * * * * * * * * * * * * * * * * * * * * * * * * * * * * * * * * * * * * * //

dimensions      [0 1 -1 0 0 0 0];

internalField   nonuniform List<vector> 
40000
(
(-0.000916624 0.00143706 -2.68042e-21)
(-0.00542845 0.00373383 8.38651e-21)
(-0.0147256 0.00556684 -5.37355e-21)
(-0.0274326 0.00701412 -1.69068e-23)
(-0.0427754 0.00813665 -4.76025e-24)
(-0.0602604 0.00898752 1.49821e-23)
(-0.0794362 0.00961494 -9.09991e-21)
(-0.0999124 0.0100618 2.16882e-21)
(-0.121372 0.0103655 -6.2469e-21)
(-0.143561 0.0105579 -1.98493e-21)
(-0.166277 0.0106653 0)
(-0.189364 0.010708 -7.31856e-21)
(-0.212699 0.0107011 0)
(-0.236179 0.0106543 0)
(-0.25972 0.0105732 -6.44251e-21)
(-0.28324 0.0104595 6.17802e-21)
(-0.306656 0.0103123 -2.98565e-21)
(-0.329881 0.0101292 -5.00218e-23)
(-0.352816 0.00990639 2.69765e-21)
(-0.375353 0.00963974 0)
(-0.397371 0.00932508 -2.52158e-21)
(-0.418736 0.00895854 -7.20675e-21)
(-0.439306 0.00853674 9.15538e-21)
(-0.458926 0.00805691 -4.3978e-21)
(-0.477436 0.00751688 1.24535e-20)
(-0.494673 0.00691487 7.91605e-21)
(-0.51046 0.00624762 -1.50126e-20)
(-0.524587 0.00550811 1.41918e-20)
(-0.536867 0.00469406 -3.34197e-21)
(-0.547276 0.00381589 -6.30645e-21)
(-0.00104513 0.00427657 0)
(-0.00570237 0.0111189 5.62011e-21)
(-0.0150099 0.0165874 1.08089e-20)
(-0.027636 0.0209115 -1.03156e-20)
(-0.0428326 0.0242709 -4.99887e-21)
(-0.0601228 0.0268218 1.90155e-20)
(-0.0790681 0.0287066 -4.59009e-21)
(-0.0992874 0.0300521 -8.79802e-21)
(-0.120469 0.030969 -6.48719e-23)
(-0.142362 0.0315519 -2.40265e-20)
(-0.164766 0.0318789 7.60844e-21)
(-0.187523 0.032011 2.93562e-20)
(-0.210506 0.0319928 -1.4036e-20)
(-0.233612 0.031854 -9.54689e-23)
(-0.256751 0.0316108 -6.56895e-21)
(-0.279838 0.031269 -4.49757e-23)
(-0.302787 0.0308262 0)
(-0.325503 0.0302748 0)
(-0.347886 0.0296036 2.18467e-20)
(-0.369821 0.0288004 0)
(-0.391181 0.0278525 1.01038e-20)
(-0.411828 0.0267485 -9.58877e-21)
(-0.431613 0.0254782 -7.25813e-23)
(-0.450375 0.0240336 0)
(-0.467948 0.0224086 1.67677e-20)
(-0.484164 0.0205988 -1.57857e-20)
(-0.498847 0.0185956 1.50123e-20)
(-0.511781 0.0163798 -1.41916e-20)
(-0.522759 0.0139453 1.34057e-20)
(-0.531813 0.0113241 -3.78641e-20)
(-0.00129621 0.00701434 -1.08344e-20)
(-0.00623808 0.018261 -1.12052e-20)
(-0.0155659 0.0272749 0)
(-0.028033 0.034424 0)
(-0.0429419 0.039996 0)
(-0.0598483 0.0442422 9.60678e-21)
(-0.0783386 0.0473922 0)
(-0.09805 0.0496511 8.7335e-21)
(-0.118682 0.0511988 1.67161e-20)
(-0.139991 0.0521897 1.59992e-20)
(-0.161775 0.0527515 0)
(-0.183877 0.0529848 5.16161e-23)
(-0.206165 0.0529637 -2.82049e-20)
(-0.22853 0.0527375 2.70313e-20)
(-0.250875 0.0523339 1.29127e-20)
(-0.273107 0.0517628 1.25028e-20)
(-0.295132 0.0510208 -1.17929e-20)
(-0.316847 0.0500955 2.28641e-20)
(-0.338143 0.0489687 -4.37737e-20)
(-0.358895 0.0476198 1.42824e-22)
(-0.378966 0.0460279 -4.005e-20)
(-0.398208 0.0441739 3.85654e-20)
(-0.416459 0.0420412 0)
(-0.433549 0.0396173 0)
(-0.4493 0.0368933 1.68621e-20)
(-0.463536 0.0338642 0)
(-0.476082 0.0305205 0)
(-0.486712 0.0268361 0)
(-0.495179 0.0228036 -2.70051e-20)
(-0.50162 0.0184785 2.52663e-20)
(-0.00165831 0.00958698 1.08344e-20)
(-0.00701194 0.0250076 -2.23691e-24)
(-0.016369 0.0374191 1.4959e-22)
(-0.0286044 0.0473066 -2.08286e-20)
(-0.0430933 0.0550497 -1.99661e-20)
(-0.0594378 0.0609819 1.02736e-22)
(-0.0772607 0.0654084 -3.67209e-20)
(-0.0962255 0.0686038 1.76212e-20)
(-0.116049 0.0708104 -3.37203e-20)
(-0.136494 0.0722373 3.22686e-20)
(-0.157366 0.0730589 -1.54877e-20)
(-0.178501 0.0734133 2.95249e-20)
(-0.199763 0.0734034 2.82043e-20)
(-0.221036 0.0730982 1.24581e-22)
(-0.242212 0.0725374 -2.60344e-20)
(-0.263187 0.071736 0)
(-0.283856 0.0706901 -1.44505e-22)
(-0.304106 0.0693831 2.29608e-20)
(-0.323813 0.0677902 1.54192e-22)
(-0.342841 0.0658826 -2.39233e-22)
(-0.361041 0.0636314 4.01394e-20)
(-0.378248 0.0610096 -3.8564e-20)
(-0.394289 0.0579946 0)
(-0.408977 0.0545699 3.54179e-20)
(-0.422119 0.0507259 3.27167e-22)
(-0.43353 0.04646 -9.61237e-20)
(-0.443037 0.0417681 3.01928e-20)
(-0.450406 0.0366272 5.77157e-20)
(-0.455325 0.0310339 2.70037e-20)
(-0.45807 0.0250701 2.55672e-20)
(-0.00211492 0.0119376 4.40771e-20)
(-0.00799004 0.0312202 -2.28174e-20)
(-0.0173836 0.0468266 2.1824e-20)
(-0.0293226 0.0593315 2.09528e-20)
(-0.0432726 0.0691858 0)
(-0.0588935 0.0767872 -3.87315e-20)
(-0.075854 0.0825024 -1.86479e-20)
(-0.0938511 0.0866635 -3.53429e-20)
(-0.112623 0.0895657 1.68784e-20)
(-0.131946 0.0914663 1.87742e-22)
(-0.151628 0.0925815 3.10638e-20)
(-0.171503 0.0930847 2.99998e-20)
(-0.19143 0.0931062 -5.68255e-20)
(-0.211281 0.0927349 2.71849e-20)
(-0.230938 0.0920229 -1.42302e-22)
(-0.250284 0.0909913 0)
(-0.2692 0.0896372 -2.39472e-20)
(-0.287559 0.0879405 -4.61977e-20)
(-0.305223 0.0858703 6.66066e-20)
(-0.322043 0.0833902 2.15115e-20)
(-0.337854 0.0804631 0)
(-0.352479 0.0770543 -3.90068e-20)
(-0.365726 0.0731354 0)
(-0.377395 0.0686862 -1.06877e-19)
(-0.387277 0.063698 6.7724e-20)
(-0.395173 0.0581742 1.25376e-22)
(-0.400914 0.0521235 6.14572e-20)
(-0.40427 0.0455401 -8.67821e-20)
(-0.404834 0.0384357 5.47251e-20)
(-0.403017 0.0309221 2.56921e-20)
(-0.00264553 0.0140177 -2.21351e-20)
(-0.00912997 0.0367787 2.28705e-20)
(-0.0185653 0.0553266 -4.59436e-23)
(-0.0301529 0.0702943 -6.36837e-20)
(-0.0434619 0.0821792 0)
(-0.0582182 0.0914232 3.8731e-20)
(-0.0741437 0.0984369 -3.75707e-20)
(-0.0909752 0.103595 7.09146e-20)
(-0.108477 0.107236 0)
(-0.12644 0.109656 -3.2455e-20)
(-0.144678 0.111106 -3.1063e-20)
(-0.163025 0.111793 -2.97425e-20)
(-0.181331 0.111873 -8.60966e-20)
(-0.19946 0.111453 -1.08487e-22)
(-0.21728 0.1106 -2.80648e-22)
(-0.23466 0.109341 -4.11131e-22)
(-0.251466 0.107677 7.23866e-20)
(-0.267558 0.105584 -2.7878e-22)
(-0.282783 0.103028 2.70476e-22)
(-0.296977 0.0999636 -4.27537e-20)
(-0.309963 0.0963473 -5.22401e-22)
(-0.321548 0.0921362 7.84872e-20)
(-0.33153 0.0872956 -1.12227e-19)
(-0.339693 0.081802 3.565e-20)
(-0.345816 0.0756479 0)
(-0.349686 0.0688449 0)
(-0.351141 0.061422 -6.14528e-20)
(-0.349961 0.0534081 5.86741e-20)
(-0.345627 0.0448481 -5.48846e-20)
(-0.338606 0.0358902 0)
(-0.00322674 0.0157893 -2.25414e-20)
(-0.010383 0.0415857 0)
(-0.0198627 0.0627768 2.21856e-20)
(-0.0310552 0.0800197 1.28325e-19)
(-0.0436405 0.0938321 -4.08361e-20)
(-0.0574157 0.104678 0)
(-0.0721608 0.112994 -2.90146e-22)
(-0.0876564 0.11918 3.59564e-20)
(-0.103697 0.123605 -3.41433e-20)
(-0.12009 0.126594 0)
(-0.136659 0.128428 0)
(-0.153236 0.12934 -6.02545e-20)
(-0.169669 0.12951 8.62765e-20)
(-0.185807 0.129066 -2.73661e-20)
(-0.201508 0.128086 0)
(-0.216627 0.126608 5.10773e-20)
(-0.231015 0.124635 -4.76051e-20)
(-0.244517 0.122145 4.73112e-20)
(-0.256968 0.119098 -8.88817e-20)
(-0.268192 0.115444 -1.28793e-19)
(-0.278 0.111133 4.09832e-20)
(-0.28619 0.106113 3.97449e-20)
(-0.29255 0.100343 3.7791e-20)
(-0.296857 0.0937961 0)
(-0.29888 0.0864643 -6.89768e-20)
(-0.298398 0.0783678 0)
(-0.29525 0.0695594 0)
(-0.289253 0.0601196 -1.17812e-19)
(-0.27976 0.0501525 -6.42771e-23)
(-0.267092 0.0398531 -1.57605e-19)
(-0.00383353 0.0172255 2.25414e-20)
(-0.0116967 0.045569 4.71668e-20)
(-0.0212201 0.0690667 4.52479e-20)
(-0.0319858 0.0883662 -4.29362e-20)
(-0.0437865 0.103979 0)
(-0.0564916 0.11637 0)
(-0.0699412 0.125979 3.76177e-20)
(-0.0839623 0.133219 -3.62278e-20)
(-0.0983815 0.138471 -2.5049e-22)
(-0.113028 0.142081 6.62656e-20)
(-0.127734 0.144351 0)
(-0.142335 0.145536 6.02523e-20)
(-0.156673 0.145835 0)
(-0.170591 0.145395 0)
(-0.183932 0.144308 -2.49276e-22)
(-0.196539 0.142624 5.05636e-20)
(-0.208251 0.14035 -4.93112e-20)
(-0.2189 0.137466 9.35059e-20)
(-0.228309 0.133931 -4.54047e-20)
(-0.236292 0.129692 1.2877e-19)
(-0.242655 0.12469 0)
(-0.24719 0.118868 0)
(-0.249683 0.112178 7.60776e-20)
(-0.24991 0.104586 0)
(-0.247642 0.0960841 6.92922e-20)
(-0.242651 0.0866959 -6.53988e-20)
(-0.23478 0.0764965 6.29892e-20)
(-0.223905 0.0656264 -5.94807e-20)
(-0.209284 0.0542761 1.11641e-19)
(-0.190678 0.0427028 1.58529e-19)
(-0.00444064 0.0183116 0)
(-0.0130174 0.0486835 -4.71667e-20)
(-0.0225805 0.0741209 4.66247e-22)
(-0.0328999 0.0952296 0)
(-0.0438777 0.112491 -8.35993e-20)
(-0.0554531 0.126348 -1.7055e-22)
(-0.0675253 0.137226 3.79872e-20)
(-0.0799682 0.145533 0)
(-0.0926427 0.151651 3.46504e-20)
(-0.1054 0.155932 -6.62635e-20)
(-0.118085 0.158691 0)
(-0.130539 0.160198 0)
(-0.142601 0.16067 -5.86361e-20)
(-0.154107 0.160268 5.54347e-20)
(-0.164891 0.159102 -5.3316e-20)
(-0.174785 0.15723 0)
(-0.183616 0.15467 -4.89894e-20)
(-0.191205 0.151404 -1.41347e-19)
(-0.197369 0.147392 -8.37377e-22)
(-0.201916 0.14258 -8.20231e-22)
(-0.204648 0.136905 4.11898e-20)
(-0.205361 0.130304 8.04305e-20)
(-0.203843 0.122722 -1.51633e-19)
(-0.199882 0.114119 7.30879e-20)
(-0.193257 0.10448 -7.34574e-22)
(-0.183748 0.09383 -9.73118e-22)
(-0.171194 0.0822558 -8.0605e-22)
(-0.155558 0.0699479 5.93854e-20)
(-0.136138 0.0572122 0)
(-0.111445 0.044458 0)
(-0.00502388 0.0190448 4.65784e-20)
(-0.0142932 0.0509122 3.44697e-22)
(-0.0238878 0.0779006 4.68825e-22)
(-0.0337538 0.100546 -8.82107e-20)
(-0.0438933 0.119278 8.3832e-20)
(-0.0543093 0.134498 0)
(-0.0649569 0.146602 0)
(-0.0757555 0.155974 7.35634e-20)
(-0.0865998 0.162983 -6.98531e-20)
(-0.0973652 0.167978 -6.31947e-23)
(-0.107911 0.171276 1.27971e-19)
(-0.118087 0.173156 6.15881e-20)
(-0.127731 0.173846 -1.17255e-19)
(-0.136677 0.173523 5.57611e-20)
(-0.144752 0.172309 5.41736e-20)
(-0.151779 0.170276 -5.1135e-20)
(-0.157577 0.167449 9.85729e-20)
(-0.161961 0.16382 1.42753e-19)
(-0.164741 0.159353 9.18819e-20)
(-0.165726 0.153992 4.48037e-20)
(-0.16472 0.147673 -8.27449e-20)
(-0.161526 0.140332 0)
(-0.155946 0.131906 -5.72754e-22)
(-0.147781 0.12235 7.28325e-20)
(-0.136837 0.11164 7.04472e-20)
(-0.122909 0.0997945 -1.32398e-19)
(-0.105836 0.0868983 -6.28565e-20)
(-0.0856632 0.0731552 1.20212e-19)
(-0.0619493 0.0590186 0)
(-0.0314999 0.0455834 -1.06787e-19)
(-0.0055613 0.019434 4.7081e-20)
(-0.0154762 0.0522654 -9.6767e-20)
(-0.0250906 0.0804041 1.89622e-22)
(-0.0345071 0.104293 -4.10724e-22)
(-0.0438148 0.124293 0)
(-0.0530719 0.140749 0)
(-0.0622829 0.15401 0)
(-0.0714092 0.164423 -7.40948e-20)
(-0.0803782 0.172333 7.03574e-20)
(-0.0890896 0.178072 -6.71882e-20)
(-0.09742 0.181952 -1.28952e-19)
(-0.105228 0.184251 -6.36114e-22)
(-0.112356 0.185206 1.17665e-19)
(-0.118639 0.185003 5.65241e-20)
(-0.123899 0.183778 0)
(-0.127955 0.181614 -1.03684e-19)
(-0.130623 0.17855 1.49382e-19)
(-0.131712 0.174584 -1.42089e-19)
(-0.131034 0.169688 -9.03094e-20)
(-0.128399 0.163812 -2.62374e-19)
(-0.12362 0.156892 -1.57406e-21)
(-0.116511 0.148861 -1.50013e-21)
(-0.106893 0.139658 -6.15691e-22)
(-0.0945929 0.129229 -1.47388e-19)
(-0.0794443 0.117543 2.09726e-19)
(-0.061276 0.104606 -2.23327e-22)
(-0.0399366 0.090487 0)
(-0.0155002 0.0753622 -1.20201e-19)
(0.0122993 0.0598209 1.13775e-19)
(0.0473205 0.045882 1.07999e-19)
(-0.00603437 0.0194985 0)
(-0.0165252 0.052779 -4.90345e-20)
(-0.026144 0.0816652 4.6846e-20)
(-0.035125 0.106491 8.94169e-20)
(-0.0436282 0.127532 4.29175e-20)
(-0.0517553 0.145069 -8.15734e-20)
(-0.0595521 0.159391 -1.10129e-22)
(-0.0670165 0.170797 -7.42429e-20)
(-0.074106 0.179595 0)
(-0.080744 0.186091 6.79925e-20)
(-0.0868248 0.190582 0)
(-0.0922193 0.193339 0)
(-0.0967789 0.194601 -1.18369e-19)
(-0.10034 0.194561 -1.13529e-19)
(-0.102728 0.193363 1.62421e-19)
(-0.10376 0.191104 1.03678e-19)
(-0.103252 0.187835 9.56279e-22)
(-0.101014 0.183566 -9.45412e-20)
(-0.0968622 0.178278 1.83489e-19)
(-0.0906136 0.171926 -6.64985e-23)
(-0.0820925 0.164454 1.67033e-19)
(-0.0711313 0.155797 0)
(-0.0575727 0.145893 0)
(-0.0412722 0.134687 1.46893e-19)
(-0.0220978 0.122139 -2.109e-19)
(8.22262e-05 0.108243 1.99865e-19)
(0.0253911 0.0930415 -1.26896e-19)
(0.0537393 0.0766645 1.2031e-19)
(0.085322 0.0597514 -2.27457e-19)
(0.124623 0.0449543 1.08325e-19)
(-0.00642881 0.0192666 -4.84177e-20)
(-0.0174075 0.0525122 0)
(-0.0270121 0.081751 0)
(-0.0355805 0.107197 -9.07059e-20)
(-0.0433247 0.129036 1.72868e-19)
(-0.0503768 0.147473 -8.22014e-20)
(-0.0568141 0.16273 -4.07988e-22)
(-0.0626641 0.17505 7.47337e-20)
(-0.0679102 0.184696 0)
(-0.0724978 0.19194 4.21499e-22)
(-0.0763396 0.197054 5.1584e-22)
(-0.0793209 0.200296 -1.24362e-19)
(-0.0813038 0.201899 -5.61107e-22)
(-0.0821326 0.202058 -5.71638e-20)
(-0.0816382 0.200926 -1.63334e-19)
(-0.0796431 0.19861 1.04821e-19)
(-0.0759654 0.195173 -9.88664e-20)
(-0.0704235 0.190638 1.91637e-19)
(-0.0628395 0.184997 -1.82008e-19)
(-0.0530431 0.178217 -1.75089e-19)
(-0.0408738 0.170248 7.38534e-22)
(-0.0261847 0.161032 -7.95582e-20)
(-0.00884387 0.150511 7.74748e-20)
(0.0112634 0.138628 9.17317e-22)
(0.034235 0.125342 -2.09244e-19)
(0.0601635 0.110631 -1.33144e-19)
(0.0891445 0.0945122 2.53409e-19)
(0.121089 0.0770647 -2.40243e-19)
(0.155985 0.0588728 1.13682e-19)
(0.199441 0.0430202 3.52905e-22)
(-0.00673473 0.0187742 1.45715e-19)
(-0.0181 0.0515442 -4.99957e-20)
(-0.0276702 0.0807585 -9.54168e-20)
(-0.0358561 0.106508 2.73157e-19)
(-0.0429018 0.128885 6.06784e-22)
(-0.0489567 0.148016 0)
(-0.0541183 0.164054 0)
(-0.0584356 0.17718 7.54477e-20)
(-0.0619126 0.187605 -7.16747e-20)
(-0.0645142 0.195559 6.82854e-20)
(-0.066171 0.201284 -6.55854e-20)
(-0.0667837 0.205018 -1.25399e-19)
(-0.0662285 0.206983 2.38114e-19)
(-0.064361 0.207371 -5.66027e-20)
(-0.0610224 0.206339 1.09479e-19)
(-0.0560445 0.204002 -2.08245e-19)
(-0.0492548 0.200435 -1.4973e-21)
(-0.0404821 0.195675 -7.82805e-22)
(-0.0295611 0.189725 1.83448e-19)
(-0.0163365 0.182566 8.3466e-22)
(-0.000666997 0.174157 0)
(0.0175722 0.164451 0)
(0.0384871 0.153395 -7.55366e-20)
(0.0621642 0.140937 -2.92767e-19)
(0.0886721 0.127032 2.08985e-19)
(0.118072 0.11165 6.58675e-22)
(0.150439 0.0947836 -2.52381e-19)
(0.185727 0.0764555 2.40156e-19)
(0.223564 0.0570783 -1.12588e-19)
(0.271055 0.0402118 1.06458e-19)
(-0.00694761 0.0180628 0)
(-0.0185907 0.0499692 0)
(-0.0281055 0.0788089 9.64901e-20)
(-0.0359444 0.104551 -1.83117e-19)
(-0.0423645 0.127199 2.85369e-22)
(-0.0475184 0.1468 -8.3406e-20)
(-0.0515125 0.163437 2.38466e-19)
(-0.0544087 0.177229 -2.27188e-19)
(-0.0562256 0.188329 6.29764e-23)
(-0.0569439 0.196926 -6.8554e-20)
(-0.0565106 0.203224 -1.96919e-19)
(-0.0548429 0.207435 1.87119e-19)
(-0.0518325 0.209764 0)
(-0.0473502 0.210396 0)
(-0.0412516 0.209489 1.08822e-19)
(-0.0333822 0.207162 2.08624e-19)
(-0.0235841 0.203502 -9.87712e-20)
(-0.0117008 0.198556 0)
(0.00241645 0.192343 -9.17833e-20)
(0.0189044 0.184854 -1.45849e-21)
(0.0378841 0.176065 -8.3578e-20)
(0.0594576 0.165937 0)
(0.0837076 0.154425 -7.58926e-20)
(0.110698 0.141485 7.2117e-20)
(0.140478 0.127073 -1.39742e-19)
(0.173092 0.111151 3.96458e-19)
(0.208608 0.0936929 1.24786e-21)
(0.247085 0.0746768 1.18401e-19)
(0.287666 0.0542404 0)
(0.339243 0.0364225 -1.06818e-19)
(-0.00706798 0.0171771 -9.88971e-20)
(-0.0188789 0.047893 1.01669e-19)
(-0.028318 0.0760429 2.90024e-22)
(-0.0358497 0.101483 -9.23598e-20)
(-0.0417253 0.124131 0)
(-0.0460877 0.143963 -1.67824e-19)
(-0.0490415 0.160994 1.5236e-22)
(-0.0506523 0.175281 7.57943e-20)
(-0.050947 0.186925 -6.09561e-23)
(-0.0499179 0.196064 -3.12541e-22)
(-0.0475264 0.202865 1.96639e-19)
(-0.0437055 0.207511 6.28067e-20)
(-0.0383641 0.210184 5.98609e-20)
(-0.0313905 0.211059 -1.14427e-19)
(-0.0226581 0.210287 1.0809e-19)
(-0.0120305 0.207993 -1.03899e-19)
(0.000632129 0.204269 9.98539e-20)
(0.0154673 0.199174 -9.41122e-20)
(0.0326046 0.19274 0)
(0.0521607 0.184973 -8.53758e-20)
(0.0742363 0.175861 1.67562e-19)
(0.0989141 0.165376 7.92198e-20)
(0.12626 0.153486 -7.50702e-20)
(0.156324 0.140151 2.88077e-19)
(0.189154 0.125332 -6.82687e-20)
(0.224797 0.108986 1.30345e-19)
(0.26333 0.0910727 -1.25101e-19)
(0.304992 0.0715541 -1.18063e-21)
(0.348327 0.0502152 0)
(0.404321 0.0315008 -2.07824e-19)
(-0.00710124 0.0161636 -4.64243e-22)
(-0.0189745 0.0454276 -1.02367e-19)
(-0.0283201 0.072614 0)
(-0.035587 0.0974774 -9.30766e-20)
(-0.0410038 0.119862 8.84167e-20)
(-0.0446922 0.139678 -2.11644e-22)
(-0.0467448 0.15688 0)
(-0.0472229 0.171469 -2.11603e-22)
(-0.046155 0.183492 -7.26409e-20)
(-0.0435408 0.193042 6.89321e-20)
(-0.0393526 0.200247 0)
(-0.0335387 0.205255 -1.25589e-19)
(-0.026025 0.208227 1.18699e-19)
(-0.016719 0.20932 0)
(-0.00551416 0.208679 0)
(0.00770522 0.206426 0)
(0.023058 0.202659 0)
(0.040661 0.197447 9.49533e-20)
(0.0606232 0.190832 -8.94307e-20)
(0.0830424 0.182834 2.59453e-19)
(0.108003 0.173454 -1.64458e-19)
(0.135574 0.162678 -1.58994e-19)
(0.165816 0.150483 2.25003e-19)
(0.198784 0.136838 -1.41103e-21)
(0.23454 0.121706 -1.35572e-19)
(0.273165 0.105044 -1.30337e-19)
(0.314755 0.0867977 -1.22447e-19)
(0.359807 0.0669532 2.31931e-19)
(0.406131 0.044894 -2.19338e-19)
(0.467191 0.0253775 4.13125e-19)
(-0.0070572 0.0150683 2.0064e-19)
(-0.0188978 0.0426871 -3.76284e-22)
(-0.0281363 0.0686824 -1.96249e-19)
(-0.0351816 0.0927236 1.8659e-19)
(-0.0402256 0.114592 -8.90141e-20)
(-0.0433594 0.134146 -8.45257e-20)
(-0.0446547 0.151286 8.04156e-20)
(-0.0441612 0.165962 7.65146e-20)
(-0.0419031 0.178176 -1.45415e-19)
(-0.0378824 0.187979 -2.07565e-19)
(-0.0320796 0.195457 -6.61612e-20)
(-0.0244558 0.200729 2.50264e-19)
(-0.0149532 0.203927 -3.57338e-19)
(-0.00349846 0.205191 1.12955e-19)
(0.00999423 0.204655 0)
(0.0256189 0.202437 0)
(0.0434731 0.198637 0)
(0.0636531 0.19333 1.87643e-19)
(0.0862499 0.186569 -8.88161e-20)
(0.111347 0.178387 -8.39662e-20)
(0.13902 0.168796 -1.63005e-19)
(0.169337 0.157795 1.55585e-19)
(0.20237 0.145371 -7.36454e-20)
(0.238196 0.131501 -1.4045e-19)
(0.276918 0.116155 1.76502e-21)
(0.318679 0.0992899 -2.5646e-19)
(0.363592 0.0808308 3.6575e-19)
(0.412481 0.060847 -3.46564e-19)
(0.462234 0.0382775 1.10358e-19)
(0.529264 0.0181405 -1.03269e-19)
(-0.00694948 0.0139352 -1.00599e-19)
(-0.0186776 0.0397826 1.03031e-19)
(-0.0278004 0.0644082 9.81769e-20)
(-0.0346668 0.087415 -2.81051e-19)
(-0.0394205 0.108537 8.91465e-20)
(-0.0421145 0.127588 8.48874e-20)
(-0.0427932 0.144428 0)
(-0.041488 0.158968 0)
(-0.0382139 0.171169 7.27607e-20)
(-0.0329705 0.181042 1.38314e-19)
(-0.025743 0.18864 -2.6313e-19)
(-0.0165021 0.194049 -1.27823e-22)
(-0.00520452 0.197376 0)
(0.00820575 0.198742 0)
(0.0237952 0.198266 -1.08002e-19)
(0.0416381 0.196061 -9.65054e-22)
(0.0618128 0.192225 9.70584e-20)
(0.0843994 0.186839 -9.33393e-20)
(0.109477 0.179964 -1.76563e-19)
(0.137124 0.171642 1.69955e-19)
(0.167419 0.161899 8.12793e-20)
(0.200449 0.150745 -2.29495e-19)
(0.236312 0.138177 -1.47884e-19)
(0.275135 0.124182 1.38672e-19)
(0.31708 0.108734 1.32219e-19)
(0.362369 0.0917953 1.2743e-19)
(0.411115 0.0732688 0)
(0.46451 0.0533663 0)
(0.518245 0.0305346 2.13681e-19)
(0.592072 0.0101155 0)
(-0.00679463 0.0128049 1.01454e-19)
(-0.0183492 0.0368189 -1.0357e-19)
(-0.027354 0.059946 1.97922e-19)
(-0.0340816 0.0817432 -3.35223e-22)
(-0.0386194 0.101912 0)
(-0.0409776 0.120236 0)
(-0.0411683 0.136547 0)
(-0.0392001 0.150724 -7.67799e-20)
(-0.0350738 0.162696 7.29048e-20)
(-0.0287831 0.172445 0)
(-0.0203134 0.179991 1.31425e-19)
(-0.00964167 0.185392 1.2449e-19)
(0.00326473 0.188732 -1.18812e-19)
(0.018448 0.190111 1.12274e-19)
(0.0359594 0.189634 6.84577e-22)
(0.0558581 0.187406 -1.01383e-19)
(0.0782097 0.183523 -9.65113e-20)
(0.103086 0.178068 2.76478e-19)
(0.130565 0.171109 8.91903e-20)
(0.160733 0.162697 -1.66666e-19)
(0.193691 0.152869 -8.03933e-20)
(0.229559 0.141646 7.73079e-20)
(0.268488 0.129036 0)
(0.310666 0.115037 -1.37324e-19)
(0.356323 0.0996253 -1.30658e-19)
(0.405761 0.082781 0)
(0.459043 0.0643722 1.19136e-19)
(0.517725 0.0448239 -2.21617e-19)
(0.576036 0.0220353 -3.19221e-19)
(0.657557 0.00197975 0)
(-0.00661113 0.0117131 -2.03084e-19)
(-0.0179525 0.0338904 1.0424e-19)
(-0.0268425 0.0554385 -1.98276e-19)
(-0.0334664 0.0758904 -2.9687e-22)
(-0.0378504 0.0949305 0)
(-0.0399594 0.112328 0)
(-0.0397701 0.127894 8.11054e-20)
(-0.037265 0.141488 1.53913e-19)
(-0.0324276 0.153019 0)
(-0.0252411 0.162443 0)
(-0.0156875 0.169758 -2.62543e-19)
(-0.00374502 0.174996 1.24433e-19)
(0.0106134 0.178219 3.43944e-22)
(0.0274222 0.17951 0)
(0.0467242 0.17896 -6.3286e-23)
(0.0685716 0.176666 1.00795e-19)
(0.0930275 0.17272 1.51071e-21)
(0.120168 0.167207 -3.64972e-19)
(0.150083 0.1602 -8.65943e-20)
(0.182887 0.151757 1.66662e-19)
(0.218716 0.141926 1.58985e-19)
(0.257744 0.13074 1.89941e-21)
(0.300185 0.118218 1.42464e-19)
(0.346291 0.104364 2.7292e-19)
(0.396348 0.0891683 1.30653e-19)
(0.450699 0.0726307 1.22478e-19)
(0.509274 0.0545719 1.17448e-19)
(0.573918 0.0356981 2.23717e-19)
(0.637179 0.0132671 1.83589e-22)
(0.726507 -0.00581128 9.52115e-20)
(-0.00641824 0.0106898 2.0378e-19)
(-0.0175286 0.0310783 -3.13369e-19)
(-0.0263117 0.0510126 1.98892e-19)
(-0.0328593 0.0700235 1.89326e-19)
(-0.0371347 0.0877944 8.99173e-20)
(-0.0390569 0.104091 -1.99282e-22)
(-0.0385663 0.118719 -8.1125e-20)
(-0.0356174 0.13153 -1.53913e-19)
(-0.0301734 0.142418 1.1539e-22)
(-0.0222036 0.151326 2.76803e-19)
(-0.0116814 0.158231 -1.30991e-19)
(0.00141892 0.163149 2.48441e-19)
(0.017126 0.166125 2.63876e-22)
(0.0354747 0.167225 -2.23308e-19)
(0.056509 0.16653 4.70937e-23)
(0.080286 0.164128 0)
(0.106879 0.160107 4.77601e-19)
(0.136384 0.154554 9.18521e-20)
(0.16892 0.147546 0)
(0.204642 0.13915 8.25479e-20)
(0.24374 0.129422 -7.76433e-20)
(0.286447 0.118406 2.97634e-19)
(0.333034 0.106132 -4.25639e-19)
(0.383799 0.092615 1.32152e-19)
(0.439031 0.0778548 0)
(0.499042 0.0618797 1.19185e-19)
(0.563518 0.0444482 -2.28988e-19)
(0.634435 0.0265974 2.16117e-19)
(0.702612 0.00486372 -2.04214e-19)
(0.798912 -0.0125611 -1.92781e-19)
(-0.00623481 0.00975825 -2.04313e-19)
(-0.0171171 0.0284481 -2.69951e-22)
(-0.0258036 0.0467747 -9.95913e-20)
(-0.0322911 0.0642877 -9.47975e-20)
(-0.0364812 0.0806851 -1.80496e-19)
(-0.0382488 0.0957417 8.58364e-20)
(-0.0374982 0.109269 -2.63395e-23)
(-0.034155 0.12112 -1.54227e-19)
(-0.0281597 0.131186 -2.18897e-19)
(-0.0194641 0.139401 2.05146e-22)
(-0.00802797 0.145735 1.31178e-19)
(0.00618556 0.150189 -2.48129e-19)
(0.0232151 0.152797 1.17342e-19)
(0.043106 0.153612 1.10961e-19)
(0.065916 0.152708 4.06524e-23)
(0.0917203 0.150165 9.96396e-20)
(0.120618 0.146071 -1.90187e-19)
(0.152739 0.140513 0)
(0.188247 0.133572 -1.70245e-19)
(0.227348 0.125324 1.61797e-19)
(0.270286 0.115834 -1.53847e-19)
(0.317344 0.105154 -1.47918e-19)
(0.368821 0.0933233 0)
(0.425007 0.080369 -4.00165e-19)
(0.486112 0.066298 -2.83777e-23)
(0.552302 0.0511695 -6.00711e-19)
(0.622911 0.0346686 3.42049e-19)
(0.699806 0.0181746 -4.28906e-19)
(0.772315 -0.00251872 2.04203e-19)
(0.873657 -0.0177141 -1.85906e-19)
(-0.00607794 0.0089347 1.02272e-19)
(-0.0167527 0.0260482 1.04809e-19)
(-0.025352 0.042808 1.00121e-19)
(-0.0317808 0.0588029 -2.55043e-22)
(-0.0358827 0.0737595 -2.41762e-22)
(-0.0374918 0.0874734 0)
(-0.0364776 0.0997728 0)
(-0.0327367 0.11052 0)
(-0.0261848 0.119615 0)
(-0.0167524 0.126991 0)
(-0.00437963 0.132615 1.30917e-19)
(0.0109893 0.136483 -1.23745e-19)
(0.0294127 0.138622 1.1708e-19)
(0.0509583 0.139079 -9.26483e-23)
(0.0757104 0.137921 -1.05118e-19)
(0.103777 0.135227 6.86755e-23)
(0.135296 0.131083 -1.877e-19)
(0.170443 0.125579 1.77981e-19)
(0.209432 0.118801 1.70242e-19)
(0.252518 0.11083 -1.63284e-19)
(0.299984 0.10174 3.06111e-19)
(0.352127 0.0915904 0)
(0.409217 0.0804273 -2.76924e-19)
(0.471449 0.0682835 -8.24763e-23)
(0.538849 0.0551697 1.08422e-22)
(0.6113 0.0411699 1.91678e-21)
(0.687708 0.0258979 -1.1101e-19)
(0.769548 0.011023 2.12789e-19)
(0.84522 -0.00831705 1.97454e-19)
(0.9487 -0.0209273 9.68942e-20)
(-0.00596174 0.00822773 0)
(-0.0164624 0.0239085 1.05068e-19)
(-0.0249786 0.0391707 -1.00111e-19)
(-0.0313313 0.0536602 1.27854e-23)
(-0.0353116 0.0671448 1.81394e-19)
(-0.0367173 0.0794512 -8.62412e-20)
(-0.0353853 0.0904332 0)
(-0.0311832 0.0999737 0)
(-0.0239999 0.107985 -1.46103e-19)
(-0.0137402 0.114411 1.38599e-19)
(-0.000318565 0.119221 1.30786e-19)
(0.0163482 0.122414 0)
(0.0363486 0.124014 1.16708e-19)
(0.0597842 0.124069 0)
(0.0867781 0.122642 -2.09172e-19)
(0.117482 0.119814 2.96738e-19)
(0.152081 0.115672 2.81015e-19)
(0.1908 0.110309 -8.89751e-20)
(0.233897 0.103816 6.61935e-22)
(0.281653 0.0962789 -2.39911e-19)
(0.334354 0.0877756 0)
(0.392248 0.078369 0)
(0.455493 0.068107 1.37686e-19)
(0.524082 0.0570212 2.61592e-19)
(0.597745 0.0451184 1.43615e-21)
(0.675953 0.0324902 2.35294e-19)
(0.757173 0.0187037 2.22521e-19)
(0.8422 0.00558566 0)
(0.919375 -0.0121493 -1.97444e-19)
(1.02147 -0.0221056 2.74002e-19)
(-0.00589615 0.00763852 1.02941e-19)
(-0.0162629 0.0220405 0)
(-0.0246904 0.0358951 8.80161e-24)
(-0.0309267 0.0489202 -9.5811e-20)
(-0.0347183 0.0609352 9.10731e-20)
(-0.0358311 0.0718069 8.61538e-20)
(-0.0340724 0.0814227 -3.11339e-22)
(-0.0292806 0.0896929 7.74584e-20)
(-0.0213159 0.0965516 0)
(-0.0100532 0.101957 -2.76765e-19)
(0.00462548 0.10589 2.2418e-22)
(0.0228389 0.108357 0)
(0.044715 0.109387 1.16425e-19)
(0.0703989 0.10903 -3.30416e-19)
(0.100061 0.107355 1.04058e-19)
(0.133901 0.104443 -9.85655e-20)
(0.172153 0.100385 -1.86279e-19)
(0.215077 0.0952781 -2.63956e-19)
(0.262952 0.089216 0)
(0.316047 0.0822873 0)
(0.374584 0.0745683 1.50014e-19)
(0.438683 0.0661191 1.43648e-19)
(0.508289 0.0569802 -1.34945e-19)
(0.583088 0.0471722 0)
(0.662415 0.0366892 0)
(0.745245 0.0256016 0)
(0.829669 0.0134829 2.16106e-19)
(0.915581 0.0020999 -1.02403e-19)
(0.992309 -0.0138552 1.90866e-19)
(1.08935 -0.0213916 1.75154e-19)
(-0.00588601 0.00716111 -2.05916e-19)
(-0.0161586 0.0204381 1.05861e-19)
(-0.0244769 0.0329884 -1.00997e-19)
(-0.0305306 0.0446127 9.61346e-20)
(-0.0340299 0.0551906 -9.10734e-20)
(-0.0347144 0.0646356 8.63783e-20)
(-0.0323638 0.0728757 -8.21781e-20)
(-0.026788 0.0798547 -1.55065e-19)
(-0.017816 0.0855336 1.46909e-19)
(-0.0052887 0.0898919 2.77271e-19)
(0.0109501 0.0929282 1.30633e-19)
(0.0310615 0.0946614 -1.23702e-19)
(0.0552195 0.0951305 -4.21033e-23)
(0.0836183 0.0943933 1.05081e-22)
(0.116477 0.0925242 1.03862e-19)
(0.15404 0.0896105 0)
(0.196575 0.0857475 1.85887e-19)
(0.244353 0.0810337 4.39316e-19)
(0.297628 0.0755637 -8.29134e-20)
(0.356598 0.0694228 0)
(0.421342 0.0626799 -2.99074e-19)
(0.491761 0.0553827 -1.41323e-19)
(0.56749 0.0475541 -1.35094e-19)
(0.64782 0.0391913 1.26835e-19)
(0.731636 0.0302664 -1.20995e-19)
(0.8174 0.0207947 1.13475e-19)
(0.902948 0.0104289 -3.25541e-21)
(0.987187 0.000589027 1.99329e-19)
(1.06149 -0.013468 -1.90305e-19)
(1.15004 -0.0191136 -3.47456e-19)
(-0.0059305 0.00678323 1.03557e-19)
(-0.0161403 0.0190792 1.06003e-19)
(-0.0243098 0.0304342 -2.74976e-22)
(-0.0300861 0.0407383 3.51012e-22)
(-0.0331527 0.0499365 0)
(-0.0332274 0.0579946 -3.37714e-22)
(-0.0300653 0.0648859 -2.47204e-19)
(-0.0234476 0.0705922 0)
(-0.0131705 0.0751068 -1.47456e-19)
(0.000962645 0.0784352 -5.55503e-19)
(0.0191502 0.0805977 1.31316e-19)
(0.0415995 0.0816308 -1.23662e-19)
(0.068533 0.0815876 -2.3293e-19)
(0.100193 0.0805372 2.19982e-19)
(0.136839 0.0785627 0)
(0.178745 0.0757576 9.80142e-20)
(0.226182 0.0722208 -2.77375e-19)
(0.279391 0.0680503 -8.75806e-20)
(0.338544 0.0633363 -2.48002e-19)
(0.40369 0.058154 0)
(0.474686 0.0525563 2.97329e-19)
(0.551122 0.0465679 1.41317e-19)
(0.632248 0.0401829 0)
(0.716914 0.033363 1.25641e-19)
(0.803554 0.0260495 0)
(0.890181 0.0181753 -1.12509e-19)
(0.974521 0.00953975 -3.16871e-19)
(1.0546 0.000910737 -3.95131e-19)
(1.12468 -0.0111052 -1.82659e-19)
(1.20179 -0.0157118 3.91151e-22)
(-0.00602291 0.00648742 -1.03557e-19)
(-0.0161854 0.0179283 3.39705e-22)
(-0.0241431 0.0281956 1.01664e-19)
(-0.0295179 0.0372703 -9.6486e-20)
(-0.031975 0.0451659 -9.16815e-20)
(-0.0312154 0.0519036 1.73915e-19)
(-0.0269719 0.0575046 8.27827e-20)
(-0.0189973 0.0619927 1.56506e-19)
(-0.00705435 0.0653963 1.47276e-19)
(0.00909304 0.0677508 1.39579e-19)
(0.0296867 0.0691019 2.63068e-19)
(0.0549797 0.0695069 -2.45247e-22)
(0.0852392 0.069036 0)
(0.120745 0.0677719 -1.0994e-19)
(0.16178 0.0658073 -6.63655e-23)
(0.208619 0.0632416 -2.76594e-23)
(0.261494 0.0601746 2.77273e-19)
(0.32056 0.0566997 0)
(0.385839 0.0528964 1.65387e-19)
(0.457155 0.0488213 0)
(0.534061 0.0445013 -6.56383e-22)
(0.615773 0.0399276 -1.40438e-19)
(0.701117 0.0350543 2.64708e-19)
(0.788505 0.0297982 -1.25814e-19)
(0.875979 0.0240619 -2.34463e-19)
(0.961243 0.0176904 1.09351e-19)
(1.04205 0.0106498 4.17143e-19)
(1.11587 0.00286303 9.86162e-20)
(1.18015 -0.00683564 4.50787e-19)
(1.24343 -0.0117983 8.37394e-20)
(-0.00615097 0.00625253 1.04137e-19)
(-0.0162588 0.0169399 -2.13809e-19)
(-0.023916 0.0262195 0)
(-0.0287352 0.0341602 0)
(-0.0303721 0.0408436 9.20771e-20)
(-0.0285151 0.0463476 -3.6788e-22)
(-0.0228771 0.0507432 -1.65391e-19)
(-0.0131838 0.0540972 -1.56296e-19)
(0.000835644 0.0564755 8.01086e-22)
(0.0194555 0.057946 6.11491e-22)
(0.0429585 0.0585815 -1.3146e-19)
(0.0716377 0.0584626 2.47708e-19)
(0.105793 0.0576782 -2.33829e-19)
(0.145723 0.0563251 1.10317e-19)
(0.191708 0.0545055 1.03754e-19)
(0.243977 0.052322 -1.95747e-19)
(0.302677 0.0498718 -9.24664e-20)
(0.367811 0.0472379 8.71453e-20)
(0.43918 0.0444808 0)
(0.516312 0.0416296 -1.56205e-19)
(0.5984 0.0386748 -6.79987e-22)
(0.684252 0.0355638 0)
(0.772272 0.0322019 0)
(0.860497 0.0284549 -1.24477e-19)
(0.946693 0.0241819 3.51021e-19)
(1.02845 0.0191611 -2.20344e-19)
(1.10364 0.0134726 -1.02347e-19)
(1.16972 0.00630943 0)
(1.22673 -0.000805416 -1.78525e-19)
(1.27446 -0.00856229 0)
(-0.00629757 0.00605541 -1.04685e-19)
(-0.0163149 0.0160624 -2.70822e-22)
(-0.0235547 0.0244414 0)
(-0.0276359 0.0313421 0)
(-0.0282119 0.0369112 -9.25345e-20)
(-0.0249623 0.0412827 1.76301e-19)
(-0.0175826 0.044577 -1.6695e-19)
(-0.00577352 0.0469045 1.56976e-19)
(0.0107666 0.0483692 -8.42181e-22)
(0.0323463 0.0490722 -2.81117e-19)
(0.059282 0.049115 -1.32424e-19)