/*--------------------------------*- C++ -*----------------------------------*\
  =========                 |
  \\      /  F ield         | OpenFOAM: The Open Source CFD Toolbox
   \\    /   O peration     | Website:  https://openfoam.org
    \\  /    A nd           | Version:  7
     \\/     M anipulation  |
\*---------------------------------------------------------------------------*/
FoamFile
{
    version     2.0;
    format      ascii;
    class       volVectorField;
    location    "15";
    object      U;
}
// * * * * * * * * * * * * * * * * * * * * * * * * * * * * * * * * * * * * * //

dimensions      [0 1 -1 0 0 0 0];

internalField   nonuniform List<vector> 
392
(
(0.664113 -0.000776579 3.0841e-25)
(0.667984 -0.000773371 -6.48332e-24)
(0.671843 -0.000770379 -7.36561e-24)
(0.664604 -0.00232499 1.47882e-23)
(0.668467 -0.00231552 1.67266e-23)
(0.672318 -0.00230671 -8.09937e-24)
(0.665583 -0.00386853 3.53196e-23)
(0.66943 -0.00385287 -2.47168e-23)
(0.673265 -0.00383831 -1.18251e-23)
(0.667047 -0.00540397 6.62774e-23)
(0.67087 -0.00538224 3.47317e-23)
(0.674682 -0.00536205 -5.92901e-24)
(0.668989 -0.00692813 -6.47304e-23)
(0.672782 -0.00690051 1.37986e-23)
(0.676563 -0.00687484 4.72181e-23)
(0.671403 -0.00843788 5.56763e-23)
(0.675157 -0.00840457 -3.11931e-23)
(0.6789 -0.00837364 -4.22337e-24)
(0.674278 -0.00993017 5.05318e-24)
(0.677986 -0.00989143 1.34747e-22)
(0.681685 -0.00985547 -1.78732e-23)
(0.677603 -0.011402 7.63698e-23)
(0.681259 -0.0113581 -1.0303e-22)
(0.684906 -0.0113175 1.47967e-25)
(0.681365 -0.0128505 -3.80467e-23)
(0.684963 -0.0128019 1.18454e-22)
(0.688551 -0.0127568 6.46665e-23)
(0.685551 -0.014273 1.21148e-22)
(0.689082 -0.0142199 -7.68617e-23)
(0.692607 -0.0141708 7.90586e-23)
(0.690142 -0.0156666 -1.62784e-22)
(0.693603 -0.0156095 1.46748e-22)
(0.697057 -0.0155568 -4.82542e-23)
(0.695123 -0.0170291 1.83757e-22)
(0.698508 -0.0169684 7.35197e-23)
(0.701887 -0.0169124 -1.76389e-22)
(0.700474 -0.0183579 2.15622e-23)
(0.703778 -0.0182941 -7.55405e-23)
(0.707077 -0.0182354 1.28252e-22)
(0.706176 -0.0196509 1.48438e-22)
(0.709395 -0.0195845 2.94179e-23)
(0.712609 -0.0195235 -8.81593e-23)
(0.712209 -0.0209059 2.22357e-22)
(0.715337 -0.0208375 1.69812e-23)
(0.718463 -0.0207747 -2.38237e-22)
(0.71855 -0.0221213 3.86867e-22)
(0.721585 -0.0220513 -6.94362e-23)
(0.724619 -0.0219872 2.12952e-22)
(0.725177 -0.0232952 -2.96801e-22)
(0.728117 -0.0232241 9.08073e-23)
(0.731056 -0.0231593 -3.34784e-24)
(0.732069 -0.0244261 -1.40272e-22)
(0.73491 -0.0243546 1.67312e-24)
(0.737752 -0.0242896 -4.15442e-23)
(0.739201 -0.0255127 -2.26441e-22)
(0.741942 -0.0254413 4.20669e-22)
(0.744685 -0.0253767 -2.05707e-22)
(0.74655 -0.0265538 2.9249e-22)
(0.74919 -0.0264831 -4.91954e-22)
(0.751832 -0.0264194 3.09238e-22)
(0.754093 -0.0275485 -2.94071e-22)
(0.756631 -0.0274789 -3.98002e-23)
(0.759171 -0.0274168 2.29035e-22)
(0.761716 -0.0273618 1.60503e-23)
(0.761807 -0.028496 -8.99461e-23)
(0.764241 -0.0284282 9.14087e-23)
(0.76668 -0.0283681 1.73661e-23)
(0.769124 -0.0283152 -1.85422e-22)
(0.769668 -0.0293968 -3.1193e-22)
(0.771999 -0.029331 8.6612e-23)
(0.774336 -0.0292734 6.33521e-23)
(0.776679 -0.0292231 1.25061e-22)
(0.779882 -0.0301875 -9.7951e-23)
(0.782117 -0.0301326 1.28592e-23)
(0.784359 -0.0300854 4.3086e-23)
(0.795297 -0.0317436 0)
(0.797329 -0.0316945 0)
(0.799369 -0.0316532 7.73341e-29)
(0.81915 -0.0337328 0)
(0.820863 -0.0336928 0)
(0.822586 -0.033661 7.56766e-29)
(0.843595 -0.0353782 0)
(0.844987 -0.0353495 0)
(0.84639 -0.035329 0)
(0.868256 -0.0366806 0)
(0.869331 -0.0366651 0)
(0.870418 -0.036658 0)
(0.892784 -0.0376484 0)
(0.89355 -0.0376477 0)
(0.894331 -0.0376553 4.19028e-30)
(0.916857 -0.0382938 0)
(0.917328 -0.0383093 0)
(0.917815 -0.0383328 1.00054e-28)
(0.940191 -0.038634 -1.42295e-28)
(0.940386 -0.0386663 0)
(0.940596 -0.0387066 -1.07207e-28)
(0.962542 -0.0386898 1.42295e-28)
(0.96248 -0.0387394 0)
(0.962434 -0.0387968 0)
(0.983706 -0.038485 5.28804e-30)
(0.983411 -0.038552 0)
(0.983132 -0.0386265 -4.64055e-30)
(1.00352 -0.0380456 -5.28804e-30)
(1.00302 -0.0381296 0)
(1.00253 -0.0382207 4.64055e-30)
(1.02188 -0.0373989 0)
(1.0212 -0.0374989 0)
(1.02052 -0.0376059 0)
(1.0387 -0.0365723 0)
(1.03786 -0.0366873 0)
(1.03703 -0.0368091 0)
(1.05395 -0.0355932 0)
(1.05297 -0.0357217 0)
(1.05201 -0.0358567 0)
(1.06762 -0.0344877 0)
(1.06653 -0.034628 0)
(1.06546 -0.0347746 0)
(1.07974 -0.0332804 5.84138e-30)
(1.07857 -0.0334307 1.92829e-29)
(1.07741 -0.033587 0)
(1.09036 -0.031994 -5.84138e-30)
(1.08913 -0.0321522 -1.92829e-29)
(1.0879 -0.0323163 0)
(1.09957 -0.0306488 2.64801e-12)
(1.09829 -0.0308129 0)
(1.09701 -0.0309827 1.48829e-28)
(1.10745 -0.0292626 -2.64801e-12)
(1.10614 -0.0294305 0)
(1.10483 -0.029604 -1.48829e-28)
(1.11411 -0.0278505 0)
(1.11277 -0.0280204 1.76518e-28)
(1.11144 -0.0281956 0)
(1.11965 -0.0264255 0)
(1.11831 -0.0265953 -1.76518e-28)
(1.11696 -0.0267704 0)
(1.12419 -0.0249976 0)
(1.12285 -0.0251657 0)
(1.1215 -0.025339 0)
(1.12784 -0.023575 0)
(1.12651 -0.0237398 0)
(1.12517 -0.0239096 0)
(1.13072 -0.0221636 0)
(1.1294 -0.0223238 0)
(1.12807 -0.0224888 0)
(1.13292 -0.0207678 0)
(1.13162 -0.0209221 0)
(1.1303 -0.0210811 0)
(1.13456 -0.0193902 -1.80963e-28)
(1.13327 -0.0195377 1.43214e-28)
(1.13197 -0.0196896 0)
(1.13572 -0.0180323 1.80963e-28)
(1.13445 -0.0181721 -1.43214e-28)
(1.13317 -0.0183162 0)
(1.13648 -0.0166946 0)
(1.13523 -0.016826 0)
(1.13397 -0.0169615 0)
(1.13693 -0.0153768 0)
(1.1357 -0.0154993 0)
(1.13446 -0.0156257 0)
(1.13713 -0.0140779 1.72121e-28)
(1.13592 -0.0141912 -1.90243e-28)
(1.13469 -0.014308 0)
(1.13714 -0.0127968 -1.72121e-28)
(1.13594 -0.0129005 1.90243e-28)
(1.13473 -0.0130075 0)
(1.13702 -0.0115318 0)
(1.13583 -0.0116258 1.48005e-28)
(1.13463 -0.0117228 -1.65621e-28)
(1.13679 -0.0102813 0)
(1.13562 -0.0103654 -1.48005e-28)
(1.13443 -0.0104523 1.65621e-28)
(1.13651 -0.00904356 0)
(1.13535 -0.00911766 0)
(1.13418 -0.0091943 0)
(1.13621 -0.00781674 0)
(1.13505 -0.0078809 0)
(1.13389 -0.00794727 -3.98261e-29)
(1.1359 -0.00659921 0)
(1.13476 -0.00665342 0)
(1.1336 -0.00670952 -1.13305e-28)
(1.13562 -0.00538932 0)
(1.13448 -0.00543361 0)
(1.13333 -0.00547946 0)
(1.13537 -0.00418554 0)
(1.13424 -0.00421995 1.50444e-28)
(1.13309 -0.00425557 0)
(1.13518 -0.00298642 0)
(1.13405 -0.00301097 -1.50444e-28)
(1.13291 -0.00303639 0)
(1.13504 -0.00179057 1.76864e-28)
(1.13391 -0.00180528 0)
(1.13278 -0.00182052 2.07374e-30)
(1.13497 -0.000596644 -1.78764e-28)
(1.13385 -0.000601547 0)
(1.13271 -0.000606626 4.16139e-29)
(1.13616 0.00177638 -3.16945e-12)
(1.13609 0.000591918 3.20349e-12)
(0.795296 0.0317416 0)
(0.81915 0.033731 0)
(0.843595 0.0353766 0)
(0.868257 0.0366791 0)
(0.892784 0.037647 0)
(0.916858 0.0382926 0)
(0.940192 0.0386329 0)
(0.962543 0.0386888 0)
(0.983707 0.0384842 0)
(1.00353 0.0380449 0)
(1.02188 0.0373983 0)
(1.0387 0.0365718 0)
(1.05395 0.0355928 0)
(1.06762 0.0344873 0)
(1.07974 0.0332801 0)
(1.09037 0.0319938 0)
(1.09957 0.0306486 0)
(1.10745 0.0292624 0)
(1.11411 0.0278504 0)
(1.11965 0.0264253 0)
(1.12419 0.0249975 0)
(1.12784 0.0235749 0)
(1.13072 0.0221636 0)
(1.13293 0.0207677 0)
(1.13456 0.0193902 2.84695e-12)
(1.13572 0.0180323 -2.84695e-12)
(1.13649 0.0166946 0)
(1.13694 0.0153768 0)
(1.13714 0.0140779 0)
(1.13715 0.0127968 0)
(1.13702 0.0115318 2.94184e-12)
(1.13679 0.0102813 -2.94184e-12)
(1.13651 0.00904354 0)
(1.13621 0.00781673 0)
(1.1359 0.0065992 0)
(1.13562 0.00538932 0)
(1.13537 0.00418554 -1.9007e-28)
(1.13518 0.00298642 1.9007e-28)
(1.13504 0.00179056 -2.99559e-12)
(1.13498 0.000596643 3.02777e-12)
(0.797328 0.0316926 0)
(0.820863 0.0336912 0)
(0.844987 0.035348 0)
(0.869331 0.0366639 0)
(0.893551 0.0376466 1.57929e-29)
(0.917329 0.0383083 -1.57929e-29)
(0.940387 0.0386655 0)
(0.962481 0.0387387 0)
(0.983412 0.0385513 0)
(1.00302 0.038129 0)
(1.0212 0.0374985 2.28281e-12)
(1.03786 0.036687 -2.28281e-12)
(1.05297 0.0357214 0)
(1.06653 0.0346278 0)
(1.07857 0.0334305 0)
(1.08913 0.0321521 0)
(1.09829 0.0308128 0)
(1.10614 0.0294305 0)
(1.11278 0.0280203 -1.76522e-28)
(1.11831 0.0265953 1.76522e-28)
(1.12285 0.0251657 0)
(1.12651 0.0237398 0)
(1.1294 0.0223238 0)
(1.13162 0.0209222 0)
(1.13327 0.0195377 2.68304e-12)
(1.13445 0.0181721 -2.68304e-12)
(1.13523 0.016826 0)
(1.1357 0.0154993 0)
(1.13592 0.0141912 0)
(1.13594 0.0129005 0)
(1.13583 0.0116258 2.77279e-12)
(1.13562 0.0103654 -2.77279e-12)
(1.13535 0.00911768 0)
(1.13505 0.00788091 0)
(1.13476 0.00665343 0)
(1.13448 0.00543362 0)
(1.13424 0.00421995 0)
(1.13405 0.00301097 0)
(1.13392 0.00180528 0)
(1.13385 0.000601548 0)
(0.799368 0.0316516 -7.73395e-29)
(0.822586 0.0336595 -7.56819e-29)
(0.846391 0.0353278 0)
(0.870419 0.0366569 0)
(0.894331 0.0376544 0)
(0.917816 0.038332 -1.04251e-28)
(0.940597 0.0387059 1.07214e-28)
(0.962436 0.0387963 0)
(0.983134 0.038626 4.64079e-30)
(1.00254 0.0382203 -4.64079e-30)
(1.02053 0.0376056 2.13802e-12)
(1.03703 0.0368088 -2.13802e-12)
(1.05201 0.0358565 0)
(1.06546 0.0347745 0)
(1.07741 0.0335869 0)
(1.0879 0.0323162 0)
(1.09701 0.0309827 0)
(1.10483 0.029604 0)
(1.11144 0.0281956 0)
(1.11697 0.0267704 0)
(1.12151 0.025339 0)
(1.12517 0.0239097 0)
(1.12807 0.0224889 0)
(1.1303 0.0210812 0)
(1.13197 0.0196897 2.52097e-12)
(1.13317 0.0183162 -2.52097e-12)
(1.13397 0.0169616 0)
(1.13446 0.0156258 0)
(1.13469 0.0143081 -1.5244e-28)
(1.13473 0.0130076 1.5244e-28)
(1.13463 0.0117228 0)
(1.13443 0.0104523 0)
(1.13418 0.00919435 0)
(1.13389 0.00794731 3.98263e-29)
(1.1336 0.00670955 1.13306e-28)
(1.13333 0.00547949 0)
(1.1331 0.00425559 0)
(1.13291 0.0030364 0)
(1.13278 0.00182053 -2.07377e-30)
(1.13271 0.000606629 -4.16141e-29)
(0.779881 0.0301853 1.3975e-22)
(0.782116 0.0301306 -1.66751e-23)
(0.784359 0.0300836 -4.03284e-23)
(0.769667 0.0293943 2.93439e-22)
(0.771998 0.0293287 -9.20343e-23)
(0.774335 0.0292713 -4.28545e-23)
(0.776678 0.0292212 -1.02566e-22)
(0.761806 0.0284935 1.80588e-22)
(0.76424 0.0284258 -1.37965e-22)
(0.766679 0.0283659 2.7476e-23)
(0.769123 0.0283132 1.48698e-22)
(0.754092 0.0275459 2.44089e-22)
(0.75663 0.0274765 6.28378e-23)
(0.75917 0.0274146 -2.71976e-22)
(0.761715 0.0273598 -4.35813e-24)
(0.746549 0.0265512 -2.49869e-22)
(0.749189 0.0264806 4.7155e-22)
(0.751831 0.0264171 -2.72792e-22)
(0.7392 0.0255099 2.14112e-22)
(0.741941 0.0254387 -3.72653e-22)
(0.744684 0.0253743 2.86594e-22)
(0.732068 0.0244233 6.12488e-23)
(0.734909 0.0243519 -6.16907e-23)
(0.737751 0.0242871 -1.17563e-22)
(0.725176 0.0232923 2.78055e-22)
(0.728116 0.0232214 -1.60306e-22)
(0.731055 0.0231568 -2.99088e-23)
(0.718549 0.0221184 -2.90081e-22)
(0.721585 0.0220485 2.27241e-22)
(0.724619 0.0219846 -1.13166e-22)
(0.712208 0.020903 -2.94852e-22)
(0.715337 0.0208347 -1.30261e-22)
(0.718462 0.0207721 1.91356e-22)
(0.706176 0.0196479 -2.38807e-22)
(0.709394 0.0195817 8.07588e-23)
(0.712608 0.0195208 -1.12242e-23)
(0.700474 0.0183549 9.17422e-23)
(0.703777 0.0182913 4.59701e-24)
(0.707076 0.0182327 -3.16294e-23)
(0.695122 0.0170261 -1.27785e-22)
(0.698507 0.0169655 -1.29464e-22)
(0.701886 0.0169097 1.22654e-22)
(0.690142 0.0156636 7.03973e-23)
(0.693603 0.0156066 -6.62339e-23)
(0.697057 0.0155541 7.86536e-23)
(0.68555 0.0142699 -2.79443e-23)
(0.689082 0.014217 6.08464e-24)
(0.692607 0.014168 6.14346e-24)
(0.681365 0.0128475 2.9478e-23)
(0.684962 0.0127989 -4.97692e-23)
(0.688551 0.012754 -1.34709e-22)
(0.677603 0.0113989 -1.50173e-22)
(0.681259 0.0113552 3.33855e-23)
(0.684906 0.0113147 -4.17284e-24)
(0.674278 0.00992708 4.38797e-23)
(0.677986 0.00988847 -7.87902e-23)
(0.681685 0.00985267 5.27177e-23)
(0.671403 0.00843479 -5.40533e-23)
(0.675157 0.0084016 3.45622e-23)
(0.6789 0.00837082 -3.60268e-23)
(0.668989 0.00692503 -3.10878e-23)
(0.672781 0.00689753 -8.04221e-23)
(0.676563 0.00687201 -1.91761e-23)
(0.667047 0.00540086 8.89048e-24)
(0.67087 0.00537926 5.56943e-23)
(0.674682 0.00535921 6.65187e-24)
(0.665583 0.00386541 -3.86142e-23)
(0.66943 0.00384988 -1.39937e-23)
(0.673265 0.00383547 -6.16673e-24)
(0.664604 0.00232187 -1.92344e-23)
(0.668466 0.00231253 3.2739e-24)
(0.672318 0.00230387 2.46804e-23)
(0.664114 0.00077346 1.10033e-24)
(0.667984 0.000770382 -1.80955e-24)
(0.671843 0.000767532 3.43915e-24)
)
;

boundaryField
{
    inlet
    {
        type            uniformFixedValue;
        uniformValue    constant (1 0 0);
        value           nonuniform 0();
    }
    outlet
    {
        type            pressureInletOutletVelocity;
        value           nonuniform 0();
    }
    cylinder
    {
        type            fixedValue;
        value           nonuniform 0();
    }
    top
    {
        type            symmetryPlane;
    }
    bottom
    {
        type            symmetryPlane;
    }
    defaultFaces
    {
        type            empty;
    }
    procBoundary58to57
    {
        type            processor;
        value           nonuniform List<vector> 
131
(
(0.66023 -0.000780006 3.85008e-24)
(0.660729 -0.00233513 -2.11653e-24)
(0.661724 -0.00388531 2.97787e-23)
(0.663211 -0.00542726 -7.91546e-24)
(0.665185 -0.00695777 4.46074e-23)
(0.667637 -0.00847364 3.84833e-23)
(0.670559 -0.00997179 7.96386e-23)
(0.673937 -0.0114492 2.02895e-22)
(0.677759 -0.0129029 7.67136e-24)
(0.68201 -0.0143302 2.02044e-22)
(0.686673 -0.0157282 -4.37932e-23)
(0.691731 -0.0170946 1.41962e-22)
(0.697164 -0.0184269 1.24257e-22)
(0.702953 -0.0197229 1.24018e-22)
(0.709076 -0.0209804 4.10543e-24)
(0.715511 -0.0221976 2.9135e-22)
(0.722236 -0.0233728 -3.781e-22)
(0.729226 -0.0245045 3.6912e-24)
(0.736459 -0.0255913 -1.87045e-22)
(0.743911 -0.026632 -4.1863e-24)
(0.751558 -0.0276258 -1.34725e-22)
(0.759376 -0.0285718 -2.09544e-22)
(0.76734 -0.0294706 -5.21847e-23)
(0.777652 -0.0302507 -6.20069e-23)
(0.777652 -0.0302507 -6.20069e-23)
(0.793272 -0.0318015 0)
(0.817447 -0.0337815 0)
(0.842215 -0.0354157 0)
(0.867195 -0.0367049 0)
(0.892032 -0.0376578 0)
(0.916401 -0.0382871 0)
(0.940013 -0.0386102 1.51383e-28)
(0.96262 -0.0386484 -1.51383e-28)
(0.984017 -0.038426 -5.6166e-30)
(1.00404 -0.0379695 5.6166e-30)
(1.02258 -0.0373063 0)
(1.03956 -0.0364645 0)
(1.05493 -0.0354716 0)
(1.06871 -0.034354 0)
(1.08091 -0.0331366 0)
(1.0916 -0.031842 0)
(1.10086 -0.0304907 5.60786e-12)
(1.10877 -0.0291004 -5.60786e-12)
(1.11544 -0.0276864 -1.69144e-28)
(1.12099 -0.0262611 1.69144e-28)
(1.12553 -0.0248348 0)
(1.12917 -0.0234153 0)
(1.13204 -0.0220085 0)
(1.13423 -0.0206183 0)
(1.13584 -0.0192474 0)
(1.13698 -0.017897 0)
(1.13773 -0.0165675 0)
(1.13816 -0.0152583 0)
(1.13834 -0.0139685 0)
(1.13834 -0.0126966 0)
(1.13819 -0.0114411 0)
(1.13796 -0.0102002 0)
(1.13767 -0.00897205 0)
(1.13735 -0.00775486 0)
(1.13704 -0.00654693 0)
(1.13675 -0.00534663 0)
(1.1365 -0.00415239 0)
(1.1363 -0.00296277 0)
(1.13616 -0.00177639 -1.87129e-28)
(1.13609 -0.00059192 1.89139e-28)
(1.13727 0.00176275 -3.34522e-12)
(1.1372 0.000587376 3.38115e-12)
(0.793271 0.0317993 0)
(0.817447 0.0337796 0)
(0.842214 0.0354139 0)
(0.867195 0.0367033 0)
(0.892033 0.0376562 0)
(0.916402 0.0382857 0)
(0.940014 0.0386089 0)
(0.962621 0.0386473 0)
(0.984018 0.038425 0)
(1.00404 0.0379686 0)
(1.02258 0.0373055 0)
(1.03956 0.0364638 0)
(1.05493 0.035471 0)
(1.06871 0.0343535 0)
(1.08092 0.0331361 -2.7363e-12)
(1.09161 0.0318417 2.7363e-12)
(1.10086 0.0304904 2.80399e-12)
(1.10877 0.0291001 -2.80399e-12)
(1.11545 0.0276861 -2.86487e-12)
(1.12099 0.0262609 2.86487e-12)
(1.12553 0.0248346 0)
(1.12917 0.0234151 0)
(1.13204 0.0220083 0)
(1.13423 0.0206182 0)
(1.13584 0.0192473 3.01274e-12)
(1.13698 0.0178969 -3.01274e-12)
(1.13773 0.0165674 0)
(1.13816 0.0152582 0)
(1.13834 0.0139684 0)
(1.13834 0.0126966 0)
(1.1382 0.0114411 0)
(1.13796 0.0102002 0)
(1.13767 0.00897201 0)
(1.13735 0.00775483 0)
(1.13704 0.00654691 0)
(1.13675 0.00534661 0)
(1.1365 0.00415238 0)
(1.1363 0.00296276 0)
(1.1363 0.00296276 0)
(0.777651 0.0302484 6.20106e-23)
(0.777651 0.0302484 6.20106e-23)
(0.767339 0.029468 -3.46908e-24)
(0.759374 0.0285691 2.0465e-22)
(0.751557 0.027623 1.7118e-22)
(0.74391 0.0266292 1.43682e-23)
(0.736458 0.0255884 3.27642e-22)
(0.729225 0.0245015 -6.76607e-23)
(0.722234 0.0233698 2.00157e-22)
(0.71551 0.0221946 -2.13342e-22)
(0.709075 0.0209773 -6.76704e-23)
(0.702953 0.0197198 -9.75305e-23)
(0.697164 0.0184238 -1.65162e-22)
(0.691731 0.0170915 -1.47126e-22)
(0.686673 0.0157251 8.23499e-23)
(0.682009 0.014327 -1.16488e-22)
(0.677759 0.0128997 -1.19604e-22)
(0.673937 0.011446 -1.31915e-22)
(0.670558 0.00996858 -6.56506e-23)
(0.667637 0.00847043 -8.99357e-23)
(0.665185 0.00695455 -5.08174e-23)
(0.663211 0.00542404 2.35297e-23)
(0.661724 0.00388208 -2.54251e-23)
(0.660729 0.0023319 2.27663e-23)
(0.66023 0.000776772 -8.29255e-24)
)
;
    }
    procBoundary58to59
    {
        type            processor;
        value           nonuniform List<vector> 
130
(
(0.675691 -0.000767579 -1.36509e-23)
(0.676158 -0.0022985 -1.41442e-23)
(0.677091 -0.00382476 -2.23253e-23)
(0.678485 -0.00534328 2.44025e-24)
(0.680335 -0.006851 2.9987e-23)
(0.682635 -0.00834494 4.37979e-23)
(0.685375 -0.00982217 6.59216e-23)
(0.688545 -0.0112798 -1.03219e-22)
(0.692133 -0.0127151 4.01002e-23)
(0.696124 -0.0141255 2.53895e-23)
(0.700506 -0.0155082 2.22066e-23)
(0.70526 -0.0168611 -5.3727e-23)
(0.710371 -0.0181816 -1.17595e-22)
(0.715819 -0.0194678 1.16535e-22)
(0.721586 -0.0207176 -1.55526e-22)
(0.727652 -0.0219292 4.63658e-23)
(0.733995 -0.0231009 -1.32097e-22)
(0.740594 -0.0242313 -1.16707e-22)
(0.747429 -0.025319 -1.44997e-23)
(0.754477 -0.0263628 2.60355e-23)
(0.754477 -0.0263628 2.60355e-23)
(0.764263 -0.0273131 1.48344e-22)
(0.771571 -0.0282688 -1.04795e-23)
(0.779026 -0.0291794 9.63625e-23)
(0.786608 -0.0300449 1.12929e-22)
(0.801416 -0.0316191 7.73355e-29)
(0.824319 -0.0336366 7.56766e-29)
(0.847805 -0.0353163 0)
(0.871519 -0.0366585 0)
(0.895126 -0.0376706 0)
(0.918317 -0.038364 1.04244e-28)
(0.940822 -0.0387544 -1.07207e-28)
(0.962405 -0.0388615 0)
(0.982869 -0.038708 -2.08484e-29)
(1.00206 -0.0383186 2.08484e-29)
(1.01987 -0.0377194 -4.06363e-29)
(1.03621 -0.036937 4.06363e-29)
(1.05106 -0.0359977 0)
(1.0644 -0.034927 0)
(1.07626 -0.0337489 0)
(1.08668 -0.0324858 0)
(1.09574 -0.0311577 -4.46299e-29)
(1.10352 -0.0297826 4.46299e-29)
(1.11011 -0.0283758 -9.45578e-29)
(1.11562 -0.0269504 9.45578e-29)
(1.12016 -0.025517 0)
(1.12383 -0.0240842 0)
(1.12673 -0.0226584 0)
(1.12898 -0.0212446 0)
(1.13067 -0.0198459 -4.80944e-29)
(1.13188 -0.0184644 4.80944e-29)
(1.1327 -0.017101 0)
(1.1332 -0.0157558 0)
(1.13345 -0.0144285 1.02019e-28)
(1.13351 -0.0131179 -1.02019e-28)
(1.13342 -0.0118228 0)
(1.13324 -0.0105419 0)
(1.13299 -0.00927341 0)
(1.13272 -0.00801581 -3.98261e-29)
(1.13243 -0.00676748 -1.13305e-28)
(1.13217 -0.00552684 0)
(1.13194 -0.00429239 0)
(1.13176 -0.00306267 0)
(1.13163 -0.00183628 2.60746e-28)
(1.13156 -0.000611877 -2.19836e-28)
(0.801416 0.0316176 -7.73409e-29)
(0.824319 0.0336354 -7.56819e-29)
(0.847806 0.0353152 0)
(0.87152 0.0366576 0)
(0.895127 0.0376699 -1.87199e-29)
(0.918319 0.0383633 -8.5531e-29)
(0.940824 0.0387538 1.07214e-28)
(0.962406 0.0388611 0)
(0.982871 0.0387076 0)
(1.00206 0.0383184 0)
(1.01987 0.0377193 1.99468e-12)
(1.03621 0.0369369 -1.99468e-12)
(1.05106 0.0359977 0)
(1.0644 0.034927 0)
(1.07626 0.0337489 2.32767e-29)
(1.08668 0.0324858 -2.32767e-29)
(1.09574 0.0311578 0)
(1.10352 0.0297827 0)
(1.11011 0.028376 9.45601e-29)
(1.11562 0.0269505 -9.45601e-29)
(1.12016 0.0255171 0)
(1.12383 0.0240843 0)
(1.12674 0.0226586 0)
(1.12898 0.0212447 0)
(1.13067 0.019846 2.36069e-12)
(1.13188 0.0184645 -2.36069e-12)
(1.1327 0.0171011 0)
(1.1332 0.015756 0)
(1.13345 0.0144286 0)
(1.13351 0.013118 0)
(1.13343 0.0118229 2.44013e-12)
(1.13324 0.010542 -2.44013e-12)
(1.13299 0.00927348 0)
(1.13272 0.00801587 3.98263e-29)
(1.13244 0.00676753 1.13306e-28)
(1.13217 0.00552688 0)
(1.13194 0.00429242 0)
(1.13176 0.00306269 0)
(1.13163 0.0018363 -1.14029e-28)
(1.13156 0.000611882 7.1544e-29)
(0.786608 0.0300433 -7.99438e-23)
(0.779026 0.0291778 -1.01121e-22)
(0.771571 0.028267 3.31651e-23)
(0.764263 0.0273113 -1.87204e-22)
(0.754477 0.0263607 2.48406e-23)
(0.754477 0.0263607 2.48406e-23)
(0.747429 0.0253168 -5.28218e-24)
(0.740594 0.0242291 1.24232e-22)
(0.733994 0.0230986 1.53563e-23)
(0.727651 0.0219269 3.72065e-23)
(0.721586 0.0207152 1.05071e-22)
(0.715819 0.0194654 -8.56963e-23)
(0.710371 0.0181792 1.33288e-22)
(0.70526 0.0168585 -2.04009e-24)
(0.700506 0.0155057 5.51388e-24)
(0.696124 0.0141229 2.85904e-23)
(0.692132 0.0127125 -6.14504e-23)
(0.688545 0.0112772 1.0249e-22)
(0.685375 0.00981953 -4.88018e-23)
(0.682635 0.00834229 -6.36053e-23)
(0.680335 0.00684834 -4.98034e-24)
(0.678485 0.00534061 -2.50445e-23)
(0.677091 0.00382209 1.95719e-23)
(0.676158 0.00229582 2.02303e-23)
(0.675691 0.0007649 5.24033e-24)
)
;
    }
}


// ************************************************************************* //
