/*--------------------------------*- C++ -*----------------------------------*\
  =========                 |
  \\      /  F ield         | OpenFOAM: The Open Source CFD Toolbox
   \\    /   O peration     | Website:  https://openfoam.org
    \\  /    A nd           | Version:  7
     \\/     M anipulation  |
\*---------------------------------------------------------------------------*/
FoamFile
{
    version     2.0;
    format      ascii;
    class       volScalarField;
    location    "60";
    object      p;
}
// * * * * * * * * * * * * * * * * * * * * * * * * * * * * * * * * * * * * * //

dimensions      [0 2 -2 0 0 0 0];

internalField   nonuniform List<scalar> 
183
(
-0.387593
-0.387704
-0.387695
-0.390587
-0.39083
-0.390935
-0.394312
-0.394556
-0.398156
-0.398567
-0.402346
-0.402953
-0.406838
-0.407665
-0.411562
-0.412623
-0.41642
-0.417715
-0.418774
-0.422804
-0.424084
-0.427738
-0.429193
-0.432368
-0.433927
-0.435047
-0.438132
-0.43923
-0.441692
-0.442652
-0.445237
-0.445
-0.446966
-0.446258
-0.446569
-0.443629
-0.445999
-0.44224
-0.436111
-0.439958
-0.432792
-0.428599
-0.417241
-0.411121
-0.395233
-0.404417
-0.387496
-0.367606
-0.379623
-0.359295
-0.335449
-0.351352
-0.328274
-0.305039
-0.299253
-0.307148
-0.296247
-0.323793
-0.314627
-0.304901
-0.335942
-0.330054
-0.32238
-0.343614
-0.340017
-0.335804
-0.345662
-0.343474
-0.34827
-0.347259
-0.349659
-0.349
-0.351107
-0.350272
-0.349897
-0.351995
-0.351299
-0.354424
-0.353349
-0.356056
-0.355109
-0.359175
-0.357987
-0.361129
-0.360115
-0.364288
-0.363188
-0.362341
-0.366201
-0.365281
-0.368121
-0.367358
-0.370773
-0.370027
-0.369394
-0.37253
-0.371917
-0.374311
-0.373809
-0.376145
-0.375736
-0.378073
-0.377743
-0.380142
-0.379885
-0.382512
-0.382403
-0.382219
-0.384912
-0.384908
-0.384804
-0.0589494
-0.0490165
-0.040729
-0.0338592
-0.0280235
-0.0232218
-0.0191491
-0.0157943
-0.0130405
-0.0108032
-0.00908313
-0.00777958
-0.00699402
-0.00652523
-0.23831
-0.187743
-0.152862
-0.12447
-0.102016
-0.0843095
-0.069671
-0.0578067
-0.04803
-0.0398765
-0.0331222
-0.0273777
-0.0226534
-0.0186411
-0.0153359
-0.0126219
-0.0104148
-0.00871533
-0.00742544
-0.00665271
-0.00618264
-0.236829
-0.18575
-0.150993
-0.122765
-0.100373
-0.257068
-0.202653
-0.164077
-0.134487
-0.108402
-0.0884004
-0.071607
-0.0580587
-0.0468818
-0.264927
-0.207542
-0.16885
-0.138146
-0.111357
-0.0908126
-0.07354
-0.0596343
-0.0481773
-0.0386935
-0.0309592
-0.0245629
-0.0192844
-0.0150562
-0.0115159
-0.0087675
-0.00652217
-0.00486895
-0.00363414
-0.00285273
-0.00243326
-0.00317208
-0.00274914
)
;

boundaryField
{
    inlet
    {
        type            zeroGradient;
    }
    outlet
    {
        type            fixedValue;
        value           nonuniform 0();
    }
    cylinder
    {
        type            zeroGradient;
    }
    top
    {
        type            symmetryPlane;
    }
    bottom
    {
        type            symmetryPlane;
    }
    defaultFaces
    {
        type            empty;
    }
    procBoundary29to28
    {
        type            processor;
        value           nonuniform List<scalar> 
120
(
-0.387389
-0.390244
-0.393917
-0.393917
-0.397588
-0.401582
-0.405863
-0.410367
-0.415009
-0.421296
-0.421296
-0.426058
-0.430579
-0.43656
-0.43656
-0.440207
-0.444534
-0.444534
-0.446631
-0.447859
-0.447859
-0.447975
-0.444635
-0.444635
-0.436882
-0.436882
-0.423654
-0.423654
-0.418101
-0.397351
-0.397351
-0.371843
-0.371843
-0.34393
-0.321651
-0.321651
-0.294238
-0.294238
-0.300105
-0.288739
-0.288739
-0.317482
-0.317482
-0.331344
-0.331344
-0.341034
-0.341034
-0.346558
-0.347517
-0.347517
-0.349367
-0.349367
-0.350692
-0.350692
-0.352423
-0.353189
-0.353189
-0.355936
-0.357412
-0.357412
-0.360672
-0.362425
-0.362425
-0.365578
-0.367287
-0.369025
-0.369025
-0.371592
-0.373194
-0.374841
-0.376558
-0.37838
-0.38035
-0.38035
-0.382556
-0.384837
-0.0828846
-0.068417
-0.0567137
-0.047079
-0.0390485
-0.0324005
-0.0267399
-0.0220868
-0.0181298
-0.0148702
-0.0121933
-0.0100139
-0.00833266
-0.00705544
-0.00629498
-0.0058232
-0.235756
-0.183953
-0.149103
-0.121085
-0.0828846
-0.0987414
-0.250202
-0.198062
-0.159636
-0.130928
-0.105556
-0.0860512
-0.0697044
-0.056501
-0.0455894
-0.0376191
-0.0376191
-0.0300605
-0.0238005
-0.0186299
-0.014492
-0.0110188
-0.00832574
-0.00611934
-0.00449854
-0.00328586
-0.00251834
-0.0021022
)
;
    }
    procBoundary29to30
    {
        type            processor;
        value           nonuniform List<scalar> 
110
(
-0.387529
-0.390853
-0.394588
-0.398747
-0.403317
-0.408245
-0.413441
-0.413441
-0.419436
-0.424959
-0.430231
-0.430231
-0.435452
-0.439551
-0.44276
-0.44276
-0.443372
-0.444033
-0.444033
-0.438452
-0.438452
-0.426994
-0.422576
-0.422576
-0.402454
-0.402454
-0.376026
-0.376026
-0.344582
-0.344582
-0.310919
-0.310919
-0.239904
-0.314847
-0.273429
-0.314847
-0.330753
-0.330753
-0.340748
-0.340748
-0.34622
-0.34622
-0.348586
-0.348586
-0.349886
-0.351106
-0.351106
-0.352766
-0.352766
-0.354635
-0.35718
-0.35718
-0.35945
-0.361812
-0.364584
-0.364584
-0.366788
-0.368922
-0.371388
-0.371388
-0.373359
-0.375346
-0.377398
-0.379577
-0.381948
-0.384578
-0.0603268
-0.0501756
-0.0417075
-0.0346846
-0.028729
-0.0238289
-0.0196811
-0.0162645
-0.0134622
-0.011187
-0.00944102
-0.00812074
-0.00731985
-0.00685121
-0.239904
-0.189635
-0.154826
-0.126327
-0.103771
-0.0858243
-0.0709938
-0.0709938
-0.273429
-0.212912
-0.174158
-0.142137
-0.114604
-0.0934086
-0.0756024
-0.0612972
-0.049529
-0.0398017
-0.0318772
-0.0253329
-0.0199393
-0.0156155
-0.0120047
-0.00919817
-0.0069121
-0.00522525
-0.00396788
-0.00396788
-0.00347351
-0.00304634
)
;
    }
}


// ************************************************************************* //
