/*--------------------------------*- C++ -*----------------------------------*\
  =========                 |
  \\      /  F ield         | OpenFOAM: The Open Source CFD Toolbox
   \\    /   O peration     | Website:  https://openfoam.org
    \\  /    A nd           | Version:  7
     \\/     M anipulation  |
\*---------------------------------------------------------------------------*/
FoamFile
{
    version     2.0;
    format      ascii;
    class       surfaceScalarField;
    location    "30";
    object      phi;
}
// * * * * * * * * * * * * * * * * * * * * * * * * * * * * * * * * * * * * * //

dimensions      [0 3 -1 0 0 0 0];

internalField   nonuniform List<scalar> 
279
(
-0.0010235
0.000794064
-0.00074832
0.00119122
-0.00114917
-0.000989258
0.000833155
0.0012257
-0.000927975
0.000862966
0.00124953
-0.000841263
0.000881278
0.00126018
-0.000731279
0.000886412
0.00125575
-0.000600532
0.000877321
0.00123507
-0.000451683
0.000853626
0.00119771
-0.000287333
0.000815605
0.00114399
-0.000109783
0.000763999
0.00107542
7.84988e-05
0.000699843
0.000992236
0.00027561
0.000628213
0.00089634
0.000480858
0.000550508
0.000790616
0.000693003
0.000469663
0.000678141
0.00091115
0.000388999
0.000562334
0.00113442
0.000312001
0.000446953
0.00136171
0.000242187
0.000335907
0.00159147
0.000183012
0.000233257
0.00182146
0.00013781
0.000143081
0.00204855
0.000109634
6.92069e-05
0.0022688
0.000101679
1.51701e-05
0.0024788
0.000119067
-1.67446e-05
0.0189434
0.000552123
0.0188922
3.44925e-05
-0.000900048
0.0231708
0.000855229
0.023069
0.000136246
-0.00080364
0.0246489
0.000956206
0.0246053
0.000179827
-0.000704335
0.0249133
0.000958553
0.024897
0.000196206
-0.00062325
0.024794
0.000926884
0.0247877
0.000202417
-0.000548164
0.0245917
0.000882336
0.0245859
0.000208241
-0.000476631
0.024386
0.000833387
0.0243813
0.000212961
-0.000408491
0.0241889
0.000781594
0.0241868
0.000215027
-0.000345869
0.0240009
0.000726739
0.0240027
0.000213218
-0.000290507
0.0238304
0.000670364
0.0238353
0.000208335
-0.000241851
0.0236748
0.000613103
0.0236823
0.000200869
-0.000199149
0.0235284
0.000554956
0.0235387
0.000190579
-0.000162092
0.0233899
0.000495389
0.0234034
0.000177074
-0.000130707
0.0232666
0.000435066
0.0232829
0.000160781
-0.00010423
0.0231609
0.0231795
0.000142105
-8.18874e-05
0.0230934
0.000122022
-6.25302e-05
0.0230167
9.96409e-05
-4.65248e-05
0.0229549
7.58159e-05
-3.29393e-05
0.0229093
5.08114e-05
-2.12223e-05
0.0228813
2.58081e-05
-1.01303e-05
0.0228633
-6.83179e-05
0.0191698
0.000567439
0.000353036
0.0231681
0.000589403
0.0245577
0.000703304
0.024802
0.000751638
0.0246952
0.000763513
0.0245085
0.000754982
0.0243156
0.00073051
0.0241259
0.000696068
0.0239533
0.000652686
0.0237869
0.000604014
0.0236351
0.000550653
0.0234918
0.000494632
0.0233641
0.000436549
0.0232506
0.000377234
0.0231509
0.000316359
0.0230606
0.000253865
0.0229821
0.000190608
0.0229226
0.000127595
0.0228824
6.41352e-05
0.0228524
0.0228327
-0.000825533
0.00116028
-0.000474698
-0.000224713
-6.31073e-05
4.37302e-05
0.000116856
0.000165537
0.00019506
0.000211377
0.000216658
0.0002146
0.00020616
0.000193112
0.000176306
0.000156609
0.000134135
0.000109121
8.26395e-05
5.58164e-05
2.83127e-05
0.00249331
0.000609661
0.00118608
0.00228936
0.000626286
0.00119326
0.00207161
0.000624224
0.00118474
0.0018418
0.000609117
0.00116432
0.00160436
0.000585813
0.00113553
0.00136366
0.000558375
0.0011015
0.00112319
0.000530128
0.00106492
0.000885854
0.000503693
0.00102813
0.000654133
0.000481065
0.000993202
0.000430122
0.000463706
0.000962083
0.000215705
0.000452555
0.0009368
1.36765e-05
0.00044625
0.000920866
-0.000179001
0.000450657
0.000911626
-0.000356209
0.000464083
0.000911765
-0.000517192
0.000486358
0.000922196
-0.000660063
0.00051706
0.000943002
-0.000782689
0.000555302
0.000973435
-0.000882878
0.000599705
0.00101191
-0.000958547
0.000648332
0.00105607
-0.00100793
0.000698779
0.00110294
-0.00102978
)
;

boundaryField
{
    inlet
    {
        type            calculated;
        value           nonuniform 0();
    }
    outlet
    {
        type            calculated;
        value           nonuniform 0();
    }
    cylinder
    {
        type            calculated;
        value           nonuniform 0();
    }
    top
    {
        type            symmetryPlane;
        value           uniform 0;
    }
    bottom
    {
        type            symmetryPlane;
        value           uniform 0;
    }
    defaultFaces
    {
        type            empty;
        value           nonuniform 0();
    }
    procBoundary34to33
    {
        type            processor;
        value           nonuniform List<scalar> 
85
(
0.000977758
0.000950168
0.000898164
0.000822951
0.000726145
0.000609624
0.000475377
0.000325354
0.000161389
-1.43431e-05
-0.00020398
-0.000403152
-0.000612159
-0.000830486
-0.00105742
-0.0012919
-0.0015323
-0.00177626
-0.00202037
-0.00226085
-0.00249618
-0.0193764
-0.0234739
-0.0247499
-0.0249157
-0.0247623
-0.0245471
-0.024337
-0.0241371
-0.023946
-0.023774
-0.0236176
-0.0234703
-0.0233303
-0.0232063
-0.0230999
0.000374097
-0.0230734
-0.0229943
-0.0229311
-0.0228843
-0.0228563
-0.0228375
-0.0196689
-0.0235895
-0.0247941
-0.0249159
-0.0247435
-0.0245204
-0.0243071
-0.0241014
-0.0239188
-0.0237435
-0.0235864
-0.0234384
-0.0233081
-0.0231925
-0.0230916
-0.0229997
-0.0229196
-0.0228593
-0.0228194
-0.0227889
-0.0227685
-0.00253553
-0.00230598
-0.00206955
-0.00182669
-0.00158106
-0.00133622
-0.00109494
-0.000859419
-0.000631505
-0.000412762
-0.000204554
-7.37106e-06
0.000174594
0.000342783
0.000494917
0.000629361
0.000744448
0.000838475
0.000909919
0.000957486
0.00098024
)
;
    }
    procBoundary34to35
    {
        type            processor;
        value           nonuniform List<scalar> 
85
(
-0.00106556
-0.00102373
-0.000951806
-0.000851907
-0.000726849
-0.000579856
-0.000414326
-0.000233614
-4.12037e-05
0.000161678
0.000371506
0.000586582
0.000805477
0.00102696
0.0012498
0.00147276
0.00169412
0.00191164
0.00212242
0.00232284
0.00251071
0.000780885
0.0190113
0.0229726
0.024506
0.0248159
0.0247127
0.0245143
0.0243131
0.0241242
0.0239473
0.0237867
0.0236396
0.0235016
0.023372
0.0232564
0.0231572
0.0230741
0.0230007
0.0229414
0.0228976
0.0228702
0.0228532
0.018835
0.0228173
0.0243078
0.0246404
0.0245883
0.0244354
0.0242669
0.0240964
0.023937
0.0237816
0.0236371
0.0235002
0.0233771
0.0232674
0.0231706
0.0230831
0.0230071
0.0229491
0.0229092
0.0228799
0.022861
0.00246751
0.00228218
0.00208013
0.00186222
0.00163315
0.00139769
0.00115976
0.000922643
0.000689066
0.00046124
0.000240988
2.96102e-05
-0.000169761
-0.000356348
-0.000527624
-0.000680869
-0.000813122
-0.00092135
-0.00100271
-0.00105481
-0.00107601
)
;
    }
}


// ************************************************************************* //
