2 	-3.97256 	-6.28803e-18 	1.1656 	0.000283402 	0
2 	-3.91768 	-9.3238e-18 	1.16571 	0.000851785 	0
2 	-3.8628 	-9.93095e-18 	1.16593 	0.00142467 	0
2 	-3.80791 	-9.58401e-18 	1.16626 	0.00200494 	0
2 	-3.75303 	-9.23706e-18 	1.1667 	0.00259567 	0
2 	-3.69815 	-9.58401e-18 	1.16725 	0.00319988 	0
2 	-3.64327 	-1.15789e-17 	1.16791 	0.00382065 	0
2 	-3.58839 	-1.46147e-17 	1.16868 	0.00446109 	0
2 	-3.53351 	-1.46147e-17 	1.16956 	0.00512434 	0
2 	-3.47863 	-1.02779e-17 	1.17056 	0.00581364 	0
2 	-3.42374 	-8.02276e-18 	1.17166 	0.00653224 	0
2 	-3.36886 	-9.41053e-18 	1.17288 	0.00728349 	0
2 	-3.31398 	-7.84928e-18 	1.17421 	0.00807081 	0
2 	-3.2591 	-1.00177e-17 	1.17566 	0.0088977 	0
2 	-3.20422 	-1.26198e-17 	1.17722 	0.00976776 	0
2 	-3.14934 	-1.04514e-17 	1.17889 	0.0106847 	0
2 	-3.09445 	-1.20994e-17 	1.18068 	0.0116523 	0
2 	-3.03957 	-1.34004e-17 	1.18258 	0.0126745 	0
2 	-2.98469 	-1.37473e-17 	1.1846 	0.0137555 	0
2 	-2.92981 	-1.54821e-17 	1.18673 	0.0148994 	0
2 	-2.87493 	-1.52219e-17 	1.18897 	0.0161107 	0
2 	-2.82005 	-1.46147e-17 	1.19133 	0.017394 	0
2 	-2.76517 	-1.60025e-17 	1.1938 	0.0187542 	0
2 	-2.71028 	-1.53953e-17 	1.19637 	0.0201963 	0
2 	-2.6554 	-1.40943e-17 	1.19905 	0.0217259 	0
2 	-2.60052 	-1.24463e-17 	1.20182 	0.0233486 	0
2 	-2.54564 	-9.06359e-18 	1.20469 	0.0250706 	0
2 	-2.49076 	-6.37477e-18 	1.20763 	0.0268986 	0
2 	-2.43588 	-5.42067e-18 	1.21065 	0.0288397 	0
2 	-2.38099 	-5.42067e-18 	1.21371 	0.0309018 	0
2 	-2.32611 	-4.11963e-18 	1.2168 	0.0330932 	0
2 	-2.27123 	-3.51247e-18 	1.21988 	0.0354232 	0
2 	-2.21635 	-6.72171e-18 	1.22292 	0.0379019 	0
2 	-2.16147 	-9.23706e-18 	1.22587 	0.04054 	0
2 	-2.10659 	-9.93095e-18 	1.22866 	0.0433491 	0
2 	-2.0517 	-1.20994e-17 	1.23122 	0.0463414 	0
2 	-1.99682 	-1.05381e-17 	1.23344 	0.0495294 	0
2 	-1.94194 	-8.80338e-18 	1.23521 	0.0529257 	0
2 	-1.88706 	-1.01044e-17 	1.23638 	0.0565419 	0
2 	-1.83218 	-1.07983e-17 	1.23678 	0.0603885 	0
2 	-1.7773 	-1.70433e-17 	1.23621 	0.0644731 	0
2 	-1.72242 	-2.12067e-17 	1.23442 	0.0687997 	0
2 	-1.66753 	-2.39822e-17 	1.23117 	0.0733665 	0
2 	-1.61265 	-2.81455e-17 	1.22614 	0.0781646 	0
2 	-1.55777 	-2.75384e-17 	1.21903 	0.0831755 	0
2 	-1.50289 	-2.49363e-17 	1.20949 	0.0883695 	0
2 	-1.44801 	-2.46761e-17 	1.19717 	0.0937034 	0
2 	-1.39313 	-2.71047e-17 	1.18173 	0.0991189 	0
2 	-1.33824 	-3.10078e-17 	1.16283 	0.104541 	0
2 	-1.28336 	-3.55181e-17 	1.1402 	0.109878 	0
2 	-1.22848 	-3.84672e-17 	1.1136 	0.115022 	0
2 	-1.1736 	-3.9508e-17 	1.08287 	0.11985 	0
2 	-1.11872 	-3.92478e-17 	1.04798 	0.124228 	0
2 	-1.06384 	-3.57783e-17 	1.00899 	0.128014 	0
2 	-1.00896 	-3.26558e-17 	0.966119 	0.131068 	0
2 	-0.954074 	-3.36099e-17 	0.919718 	0.133253 	0
2 	-0.899192 	-3.4564e-17 	0.870295 	0.134448 	0
2 	-0.844311 	-3.59518e-17 	0.818497 	0.134598 	0
2 	-0.789429 	-3.60385e-17 	0.765097 	0.133526 	0
2 	-0.734548 	-3.61253e-17 	0.710991 	0.130624 	0
2 	-0.697791 	-3.57568e-17 	0.673715 	0.129755 	-4.87512e-20
2 	-0.688084 	-3.64292e-17 	0.671137 	0.127797 	-8.90973e-21
2 	-0.677789 	-3.53884e-17 	0.645984 	0.127075 	-6.01637e-20
2 	-0.657792 	-3.11538e-17 	0.620495 	0.126147 	-1.46268e-20
2 	-0.642276 	-2.83782e-17 	0.594738 	0.124918 	-2.03976e-21
2 	-0.631994 	-2.5327e-17 	0.590943 	0.12304 	9.7258e-20
2 	-0.616669 	-2.66089e-17 	0.564586 	0.121538 	1.76744e-20
2 	-0.595563 	-2.88288e-17 	0.538119 	0.119723 	-1.81769e-20
2 	-0.581786 	-2.62144e-17 	0.511627 	0.117597 	-3.19558e-20
2 	-0.570972 	-2.29537e-17 	0.506665 	0.115777 	2.05532e-20
2 	-0.552312 	-1.82818e-17 	0.47986 	0.113387 	8.20075e-22
2 	-0.530189 	-1.70375e-17 	0.45322 	0.110692 	-1.79755e-20
2 	-0.515245 	-2.00392e-17 	0.426839 	0.1077 	-9.73102e-21
2 	-0.503947 	-2.05896e-17 	0.420834 	0.105933 	-9.4596e-20
2 	-0.485002 	-1.83881e-17 	0.394488 	0.102697 	1.43213e-20
2 	-0.461963 	-1.57434e-17 	0.368615 	0.0991816 	-2.44871e-20
2 	-0.440781 	-1.57434e-17 	0.343315 	0.0953978 	-9.63333e-21
2 	-0.429053 	-1.66533e-17 	0.336454 	0.0936995 	4.18656e-20
2 	-0.415055 	-1.66533e-17 	0.311572 	0.0897148 	1.98541e-23
2 	-0.391213 	-1.88039e-17 	0.287487 	0.08549 	-3.58622e-20
2 	-0.367129 	-2.12041e-17 	0.264298 	0.0810385 	-1.93571e-20
2 	-0.342819 	-2.25475e-17 	0.242105 	0.0763743 	-1.37141e-20
2 	-0.329505 	-2.54759e-17 	0.221008 	0.0715115 	1.13515e-21
2 	-0.317192 	-2.37167e-17 	0.213165 	0.0700734 	-8.87905e-21
2 	-0.293574 	-2.18575e-17 	0.193109 	0.0651123 	5.70353e-21
2 	-0.268669 	-2.24682e-17 	0.174354 	0.0599883 	-1.42307e-20
2 	-0.243596 	-1.97892e-17 	0.156988 	0.0547162 	5.84855e-21
2 	-0.21837 	-2.08208e-17 	0.141095 	0.0493106 	1.51965e-20
2 	-0.193006 	-2.25462e-17 	0.126754 	0.0437862 	6.76239e-21
2 	-0.172627 	-2.26386e-17 	0.114036 	0.0381575 	-1.29111e-21
2 	-0.159855 	-2.35922e-17 	0.105702 	0.0372792 	-1.33748e-21
2 	-0.141928 	-2.5327e-17 	0.0946191 	0.0316862 	-4.95062e-21
2 	-0.116246 	-2.5327e-17 	0.0852929 	0.0260219 	-2.29074e-20
2 	-0.0904901 	-2.18575e-17 	0.0777721 	0.0202995 	-1.04336e-21
2 	-0.0646769 	-1.83881e-17 	0.0720961 	0.0145322 	-1.3719e-20
2 	-0.0388226 	-1.66533e-17 	0.068295 	0.00873285 	-4.8135e-21
2 	-0.0129436 	-1.66533e-17 	0.0663892 	0.00291437 	2.33534e-21
2 	0.0129436 	-1.66533e-17 	0.0663889 	-0.00291047 	-2.36828e-21
2 	0.0388226 	-1.66533e-17 	0.0682941 	-0.00872895 	4.88936e-21
2 	0.0646769 	-1.49186e-17 	0.0720945 	-0.0145283 	1.38286e-20
2 	0.0904901 	-1.49186e-17 	0.0777699 	-0.0202956 	1.33124e-21
2 	0.116246 	-1.83881e-17 	0.0852902 	-0.026018 	2.21644e-20
2 	0.141928 	-2.28983e-17 	0.0946158 	-0.0316823 	2.24319e-20
2 	0.159855 	-2.85884e-17 	0.105698 	-0.0372753 	9.29105e-22
2 	0.172627 	-3.2839e-17 	0.114032 	-0.0381533 	1.19426e-21
2 	0.193006 	-3.46893e-17 	0.126749 	-0.043782 	-6.47818e-21
2 	0.21837 	-3.17496e-17 	0.14109 	-0.0493064 	-1.62725e-20
2 	0.243596 	-2.66848e-17 	0.156983 	-0.054712 	-4.78553e-21
2 	0.268669 	-2.64147e-17 	0.174348 	-0.0599841 	1.22765e-20
2 	0.293574 	-2.60209e-17 	0.193103 	-0.0651081 	-3.68933e-21
2 	0.317192 	-2.41617e-17 	0.213159 	-0.0700692 	9.95457e-21
2 	0.329505 	-2.59209e-17 	0.221001 	-0.0715071 	-3.06217e-22
2 	0.342819 	-2.13332e-17 	0.242098 	-0.0763699 	1.34177e-20
2 	0.367129 	-1.70407e-17 	0.26429 	-0.0810342 	1.73043e-20
2 	0.391213 	-1.89773e-17 	0.287479 	-0.0854857 	3.51739e-20
2 	0.415055 	-1.8735e-17 	0.311565 	-0.0897106 	1.2326e-21
2 	0.429053 	-1.67472e-17 	0.336446 	-0.0936953 	-4.13641e-20
2 	0.440781 	-1.53169e-17 	0.343307 	-0.0953933 	1.18831e-20
2 	0.461963 	-1.27944e-17 	0.368607 	-0.0991772 	2.2616e-20
2 	0.485002 	-1.04083e-17 	0.39448 	-0.102693 	-1.18202e-20
2 	0.503947 	-9.42109e-18 	0.420825 	-0.105929 	2.33607e-20
2 	0.515245 	-1.02584e-17 	0.426831 	-0.107696 	6.95127e-21
2 	0.530189 	-9.4047e-18 	0.453211 	-0.110688 	8.92831e-20
2 	0.552312 	-6.83263e-18 	0.479851 	-0.113383 	6.97466e-20
2 	0.570972 	-5.1488e-18 	0.506656 	-0.115773 	-2.13855e-20
2 	0.581786 	-2.16452e-18 	0.511619 	-0.117593 	3.01328e-20
2 	0.595563 	-1.81052e-18 	0.538111 	-0.119718 	1.87384e-20
2 	0.616669 	-4.79479e-18 	0.564577 	-0.121534 	-1.84156e-20
2 	0.631994 	-5.93576e-18 	0.590935 	-0.123036 	-9.57324e-20
2 	0.642276 	-3.78285e-18 	0.59473 	-0.124914 	3.49315e-21
2 	0.657792 	-2.70431e-18 	0.620487 	-0.126143 	1.38107e-20
2 	0.677789 	-5.55112e-18 	0.645976 	-0.127071 	-1.21502e-20
2 	0.688084 	-8.1406e-18 	0.67113 	-0.127792 	8.82652e-21
2 	0.697791 	-1.11111e-17 	0.673707 	-0.12975 	4.89977e-20
2 	0.734548 	-1.56555e-17 	0.710984 	-0.13062 	0
2 	0.789429 	-1.66964e-17 	0.76509 	-0.133521 	0
2 	0.844311 	-1.77372e-17 	0.81849 	-0.134594 	0
2 	0.899192 	-1.73903e-17 	0.870289 	-0.134444 	0
2 	0.954074 	-1.70433e-17 	0.919713 	-0.133249 	0
2 	1.00896 	-1.84311e-17 	0.966114 	-0.131064 	0
2 	1.06384 	-2.21608e-17 	1.00899 	-0.12801 	0
2 	1.11872 	-2.64976e-17 	1.04798 	-0.124224 	0
2 	1.1736 	-2.64976e-17 	1.08287 	-0.119847 	0
2 	1.22848 	-2.64976e-17 	1.11359 	-0.115019 	0
2 	1.28336 	-2.90996e-17 	1.1402 	-0.109875 	0
2 	1.33824 	-2.90996e-17 	1.16283 	-0.104538 	0
2 	1.39313 	-2.84925e-17 	1.18173 	-0.0991158 	0
2 	1.44801 	-3.04874e-17 	1.19717 	-0.0937004 	0
2 	1.50289 	-3.04874e-17 	1.20949 	-0.0883666 	0
2 	1.55777 	-2.96201e-17 	1.21903 	-0.0831727 	0
2 	1.61265 	-3.13548e-17 	1.22614 	-0.0781619 	0
2 	1.66753 	-3.00537e-17 	1.23117 	-0.073364 	0
2 	1.72242 	-3.22221e-17 	1.23442 	-0.0687972 	0
2 	1.7773 	-3.69926e-17 	1.23621 	-0.0644708 	0
2 	1.83218 	-3.56916e-17 	1.23678 	-0.0603862 	0
2 	1.88706 	-3.43906e-17 	1.23638 	-0.0565398 	0
2 	1.94194 	-3.50844e-17 	1.23521 	-0.0529236 	0
2 	1.99682 	-3.57783e-17 	1.23344 	-0.0495275 	0
2 	2.0517 	-3.57783e-17 	1.23122 	-0.0463396 	0
2 	2.10659 	-3.57783e-17 	1.22866 	-0.0433473 	0
2 	2.16147 	-3.70794e-17 	1.22587 	-0.0405383 	0
2 	2.21635 	-3.83804e-17 	1.22292 	-0.0379003 	0
2 	2.27123 	-3.90743e-17 	1.21988 	-0.0354217 	0
2 	2.32611 	-4.10692e-17 	1.2168 	-0.0330918 	0
2 	2.38099 	-4.23703e-17 	1.21371 	-0.0309004 	0
2 	2.43588 	-4.10692e-17 	1.21065 	-0.0288384 	0
2 	2.49076 	-4.10692e-17 	1.20763 	-0.0268974 	0
2 	2.54564 	-4.10692e-17 	1.20469 	-0.0250695 	0
2 	2.60052 	-3.84672e-17 	1.20182 	-0.0233475 	0
2 	2.6554 	-3.71661e-17 	1.19905 	-0.0217248 	0
2 	2.71028 	-3.54314e-17 	1.19637 	-0.0201953 	0
2 	2.76517 	-3.43906e-17 	1.1938 	-0.0187532 	0
2 	2.82005 	-3.37834e-17 	1.19133 	-0.0173931 	0
2 	2.87493 	-3.24824e-17 	1.18897 	-0.0161099 	0
2 	2.92981 	-3.24824e-17 	1.18673 	-0.0148986 	0
2 	2.98469 	-3.41303e-17 	1.1846 	-0.0137548 	0
2 	3.03957 	-3.92478e-17 	1.18258 	-0.0126739 	0
2 	3.09445 	-4.30642e-17 	1.18068 	-0.0116517 	0
2 	3.14934 	-4.81816e-17 	1.17889 	-0.0106841 	0
2 	3.20422 	-5.16511e-17 	1.17722 	-0.00976723 	0
2 	3.2591 	-4.86153e-17 	1.17566 	-0.00889721 	0
2 	3.31398 	-4.51458e-17 	1.17422 	-0.00807036 	0
2 	3.36886 	-4.51458e-17 	1.17288 	-0.00728308 	0
2 	3.42374 	-4.52326e-17 	1.17166 	-0.00653187 	0
2 	3.47863 	-4.22835e-17 	1.17056 	-0.0058133 	0
2 	3.53351 	-4.09825e-17 	1.16956 	-0.00512405 	0
2 	3.58839 	-3.80335e-17 	1.16868 	-0.00446083 	0
2 	3.64327 	-3.50844e-17 	1.16791 	-0.00382043 	0
2 	3.69815 	-3.47375e-17 	1.16725 	-0.00319969 	0
2 	3.75303 	-3.47375e-17 	1.1667 	-0.00259551 	0
2 	3.80791 	-3.89008e-17 	1.16626 	-0.00200482 	0
2 	3.8628 	-4.43652e-17 	1.16593 	-0.00142458 	0
2 	3.91768 	-4.67071e-17 	1.16571 	-0.000851733 	0
2 	3.97256 	-4.88325e-17 	1.16561 	-0.000283385 	0
