/*--------------------------------*- C++ -*----------------------------------*\
  =========                 |
  \\      /  F ield         | OpenFOAM: The Open Source CFD Toolbox
   \\    /   O peration     | Website:  https://openfoam.org
    \\  /    A nd           | Version:  7
     \\/     M anipulation  |
\*---------------------------------------------------------------------------*/
FoamFile
{
    version     2.0;
    format      ascii;
    class       volScalarField;
    location    "5";
    object      p;
}
// * * * * * * * * * * * * * * * * * * * * * * * * * * * * * * * * * * * * * //

dimensions      [0 2 -2 0 0 0 0];

internalField   nonuniform List<scalar> 
183
(
-0.0457306
-0.0391697
-0.0468536
-0.0381683
-0.0299541
-0.0484371
-0.038207
-0.0293389
-0.0395602
-0.0287814
-0.0428819
-0.0297593
-0.0184558
-0.0327995
-0.0189229
-0.00707717
-0.0216459
-0.00694983
-0.0279554
-0.00935227
0.00625035
-0.0158474
0.00412358
0.0207442
0.0188015
0.0365639
0.0347163
0.0537101
0.0520307
0.0721825
0.0712824
0.092079
0.109553
0.0937507
0.113821
0.131843
0.138489
0.155854
0.168133
0.182472
0.197104
0.213446
0.225396
0.252219
0.257398
0.266964
0.296265
0.299674
0.346192
0.338295
0.339971
0.387007
0.377999
0.425143
0.415086
0.460317
0.449283
0.492269
0.48034
0.520762
0.545586
0.566559
0.583526
0.596361
0.604971
0.609292
0.609292
0.604972
0.596363
0.583528
0.566563
0.545591
0.520767
0.492275
0.480346
0.460324
0.44929
0.425151
0.415093
0.387016
0.378007
0.346201
0.338303
0.33998
0.296274
0.299684
0.252229
0.257408
0.266974
0.213457
0.225406
0.168144
0.182482
0.197115
0.1385
0.155865
0.0937622
0.113832
0.131854
0.0712942
0.0920908
0.109565
0.0520428
0.0721945
0.0347287
0.0537224
0.0188142
0.0365766
0.00413655
0.0207572
-0.00933896
0.0062638
-0.0216322
-0.00693598
-0.0327854
-0.0189086
-0.00706262
-0.0428675
-0.0297446
-0.0184408
-0.0395451
-0.0287659
-0.0484215
-0.0381911
-0.0293225
-0.0468372
-0.0381515
-0.0299367
-0.0457133
-0.0391519
-0.0380863
-0.0476915
-0.04024
-0.0401958
-0.0360208
-0.0331546
-0.0298918
-0.0270331
-0.0244214
-0.0220827
-0.0200127
-0.0181985
-0.0166254
-0.0152776
-0.0141403
-0.0131985
-0.0124411
-0.0118548
-0.0114328
-0.0111661
-0.0110608
-0.0109162
-0.0105257
-0.0102801
-0.010183
-0.0140552
-0.0130087
-0.0121393
-0.011439
-0.0108962
-0.0105059
-0.0102604
-0.0101634
-0.0380673
-0.0476706
-0.0402173
-0.0401718
-0.035996
-0.0331293
-0.0298666
-0.027008
-0.0243969
-0.0220589
-0.0199894
-0.0181759
-0.0166034
-0.0152561
-0.0141193
-0.0131779
-0.0124209
-0.0118348
-0.0114131
-0.0111466
)
;

boundaryField
{
    inlet
    {
        type            zeroGradient;
    }
    outlet
    {
        type            fixedValue;
        value           nonuniform 0();
    }
    cylinder
    {
        type            zeroGradient;
    }
    top
    {
        type            symmetryPlane;
    }
    bottom
    {
        type            symmetryPlane;
    }
    defaultFaces
    {
        type            empty;
    }
    procBoundary10to9
    {
        type            processor;
        value           nonuniform List<scalar> 
144
(
-0.0241837
-0.0213749
-0.0241837
-0.0138086
-0.0194677
-0.0213749
-0.0114549
-0.0194677
-0.00871988
-0.00871988
0.00303787
0.00547372
0.00303787
0.0159678
0.00547372
0.0193027
0.0193027
0.0344997
0.0344997
0.0511232
0.0511232
0.0691906
0.0691906
0.0886797
0.0886797
0.123509
0.146601
0.146601
0.171069
0.171069
0.20951
0.237298
0.237298
0.276167
0.30689
0.30689
0.344899
0.378001
0.378001
0.413493
0.446193
0.475871
0.508029
0.508029
0.532148
0.552522
0.569001
0.581467
0.589828
0.594024
0.594025
0.589829
0.581469
0.569004
0.552525
0.532152
0.508034
0.508034
0.475876
0.4462
0.4135
0.378009
0.378009
0.344908
0.306899
0.306899
0.276177
0.237308
0.237308
0.209521
0.17108
0.17108
0.146613
0.146613
0.12352
0.0886917
0.0886917
0.069203
0.069203
0.0511359
0.0511359
0.0345129
0.0345129
0.0193163
0.0193163
0.00548779
0.00548779
0.0159821
0.00305273
0.00305273
-0.0087045
-0.0087045
-0.0194518
-0.0194518
-0.0114386
-0.021358
-0.021358
-0.0137912
-0.0241658
-0.0241658
-0.0255176
-0.0389979
-0.0336377
-0.0347811
-0.0317646
-0.0296258
-0.0269649
-0.024552
-0.0222987
-0.0202379
-0.0183863
-0.016746
-0.0153124
-0.0140768
-0.0130298
-0.0121601
-0.0114593
-0.0114593
-0.00997232
-0.0096128
-0.00938773
-0.00929827
-0.0128517
-0.0118946
-0.0110965
-0.0104522
-0.00995217
-0.0095929
-0.009368
-0.00927862
-0.0254984
-0.0389768
-0.0336147
-0.0347567
-0.0317393
-0.0296
-0.0269392
-0.0245265
-0.0222738
-0.0202137
-0.0183627
-0.0167231
-0.0152901
-0.0152901
)
;
    }
    procBoundary10to11
    {
        type            processor;
        value           nonuniform List<scalar> 
123
(
-0.0610912
-0.05377
-0.0639296
-0.0545629
-0.0545629
-0.0676106
-0.0565258
-0.0565258
-0.0601904
-0.0601904
-0.0662986
-0.0519806
-0.0519806
-0.058127
-0.058127
-0.0490539
-0.0490539
-0.0595034
-0.0390125
-0.0390125
-0.0500427
-0.0500427
-0.0396089
-0.00262121
-0.00262121
0.0119497
0.0119497
0.0285201
0.0285201
0.0485678
0.0485678
0.0747386
0.121786
0.121786
0.159394
0.206483
0.206483
0.257754
0.303001
0.303001
0.30301
0.30301
0.257764
0.206493
0.206493
0.159405
0.121798
0.121798
0.0747503
0.0485797
0.0485797
0.0285323
0.0285323
0.0119621
0.0119621
-0.00260856
-0.00260856
-0.0158345
-0.0158345
-0.0279422
-0.0279422
-0.038999
-0.038999
-0.0490401
-0.0490401
-0.0581128
-0.0581128
-0.0662841
-0.0519658
-0.0519658
-0.0601751
-0.0601751
-0.0675951
-0.0565098
-0.0565098
-0.0639133
-0.0545461
-0.0545461
-0.061074
-0.0537523
-0.050319
-0.0560601
-0.0465922
-0.045375
-0.040107
-0.036578
-0.0327572
-0.0294849
-0.0265332
-0.0239257
-0.0216407
-0.0196533
-0.0179403
-0.0164792
-0.0152503
-0.0142352
-0.0134199
-0.0127891
-0.0123348
-0.012046
-0.0119314
-0.0110413
-0.0503001
-0.0560395
-0.0465699
-0.0453516
-0.0400828
-0.0365533
-0.0327324
-0.0294603
-0.0265091
-0.0239022
-0.0216177
-0.0196309
-0.0179185
-0.0164579
-0.0152295
-0.0142147
-0.0133998
-0.0127693
-0.0123151
-0.0110413
-0.0120265
)
;
    }
}


// ************************************************************************* //
