/*--------------------------------*- C++ -*----------------------------------*\
  =========                 |
  \\      /  F ield         | OpenFOAM: The Open Source CFD Toolbox
   \\    /   O peration     | Website:  https://openfoam.org
    \\  /    A nd           | Version:  7
     \\/     M anipulation  |
\*---------------------------------------------------------------------------*/
FoamFile
{
    version     2.0;
    format      ascii;
    class       volVectorField;
    location    "50";
    object      U;
}
// * * * * * * * * * * * * * * * * * * * * * * * * * * * * * * * * * * * * * //

dimensions      [0 1 -1 0 0 0 0];

internalField   nonuniform List<vector> 
183
(
(0.991077 0.019198 0)
(0.99733 0.0193095 0)
(1.00163 0.0189806 0)
(1.00312 0.0194668 0)
(1.00392 0.0189267 0)
(1.00573 0.0196781 0)
(1.00698 0.0206943 0)
(1.00675 0.0204569 0)
(1.00661 0.0196164 0)
(1.00933 0.020012 0)
(1.01174 0.0198749 0)
(1.01241 0.0187529 0)
(1.01068 0.0172049 0)
(1.01026 0.0151927 0)
(1.01155 0.0138593 0)
(1.01367 0.0124145 0)
(1.01274 0.0100075 0)
(1.01241 0.00749968 0)
(1.01293 0.00573294 0)
(1.0145 0.00337132 0)
(1.01332 0.000981666 0)
(0.983112 0.0205492 0)
(0.982532 0.0259582 0)
(0.983611 0.0299293 0)
(0.98682 0.0322415 0)
(0.990658 0.0343591 0)
(0.993723 0.0346883 0)
(0.996572 0.0335627 0)
(0.999948 0.0322659 0)
(1.00297 0.0308319 0)
(1.00354 0.0282294 0)
(1.00348 0.0254925 0)
(1.00434 0.023031 0)
(1.00678 0.0206737 0)
(1.00832 0.0185514 0)
(1.00829 0.0159545 0)
(1.0074 0.0132197 0)
(1.00836 0.010922 0)
(1.00905 0.0087359 0)
(1.00892 0.00615344 0)
(1.00808 0.00371922 0)
(1.00886 0.00127654 0)
(0.985484 0.0183444 -7.49544e-22)
(0.98498 0.0187266 1.77226e-21)
(0.983834 0.0171299 1.17103e-20)
(0.985588 0.0179559 -6.49664e-23)
(0.982407 0.0158965 -6.23023e-21)
(0.986156 0.0171818 5.71429e-21)
(0.981178 0.0147788 -1.26281e-20)
(0.986662 0.0164066 8.30438e-21)
(0.980127 0.013675 7.48461e-21)
(0.987096 0.0156006 -3.19331e-20)
(0.979228 0.0125795 5.20362e-21)
(0.987458 0.0147641 2.11932e-20)
(0.961988 0.042171 1.7558e-20)
(0.978456 0.0114999 -1.33895e-20)
(0.987755 0.0139008 1.57954e-20)
(0.961775 0.039539 3.08447e-20)
(0.977788 0.0104409 -1.29809e-20)
(0.987995 0.0130111 -4.99006e-21)
(0.961552 0.0368317 -3.56363e-20)
(0.977204 0.00932635 1.29178e-20)
(0.988188 0.0120989 8.2336e-21)
(0.961327 0.0340607 1.99553e-20)
(0.976688 0.00836295 3.04564e-21)
(0.988351 0.011159 -9.77901e-21)
(0.961126 0.0312248 -1.28845e-20)
(0.976228 0.00752299 -1.33817e-20)
(0.988476 0.0101953 1.02467e-20)
(0.960942 0.0283241 2.42994e-20)
(0.975817 0.00659859 -1.37137e-20)
(0.988579 0.00919873 1.59515e-20)
(0.96078 0.0253676 -4.19786e-20)
(0.975449 0.00569926 4.31188e-20)
(0.988665 0.00818467 -3.7481e-20)
(0.960639 0.022358 1.16234e-20)
(0.975123 0.00481474 -1.45728e-20)
(0.960518 0.0193006 3.11902e-20)
(0.974839 0.00394347 5.688e-21)
(0.960416 0.016201 3.10317e-21)
(0.974597 0.00308572 -1.43198e-20)
(0.960333 0.0130653 -5.89526e-21)
(0.974397 0.00224083 2.77268e-21)
(0.960268 0.00989994 5.43329e-21)
(0.974239 0.00140661 -8.90281e-21)
(0.960219 0.00671051 -8.95052e-21)
(0.974124 0.000580988 5.14637e-21)
(0.960188 0.00349849 2.1881e-21)
(0.974053 -0.000239311 -3.04181e-21)
(0.960173 0.000291946 -2.50773e-22)
(0.974026 -0.00106311 2.49005e-23)
(0.960172 -0.00291555 -8.15632e-22)
(0.974042 -0.00188931 3.04134e-22)
(0.960187 -0.00613489 1.35625e-21)
(0.974102 -0.00270447 -1.58343e-21)
(0.960219 -0.00933879 -4.12411e-21)
(0.974206 -0.00350912 6.34711e-21)
(0.960269 -0.012523 6.62795e-21)
(0.974354 -0.00431262 -8.9141e-21)
(0.960338 -0.0156825 -7.1592e-21)
(0.974543 -0.00511987 4.61304e-21)
(0.960427 -0.0188106 -2.53577e-21)
(0.974773 -0.00593667 -1.38546e-20)
(0.960537 -0.0219013 2.15697e-20)
(0.975042 -0.00678479 1.02615e-20)
(0.960667 -0.0249486 3.50106e-22)
(0.97535 -0.00767187 -7.59699e-21)
(0.988711 -0.00876306 -7.08914e-22)
(0.96082 -0.0279464 -3.95683e-20)
(0.975696 -0.00858572 3.69199e-20)
(0.988644 -0.00977015 -3.4847e-20)
(0.960994 -0.0308892 2.53971e-20)
(0.976081 -0.00952409 -1.10287e-20)
(0.988567 -0.0107582 1.46756e-20)
(0.961191 -0.0337724 -9.77176e-21)
(0.976507 -0.0104866 -4.90314e-21)
(0.988478 -0.0117257 8.28844e-21)
(0.961407 -0.0365915 3.30671e-20)
(0.97698 -0.0114729 5.39624e-21)
(0.98837 -0.0126712 -1.14744e-20)
(0.96164 -0.0393428 -5.31128e-20)
(0.977505 -0.0124824 1.91265e-20)
(0.988237 -0.0135938 -6.5549e-22)
(0.961881 -0.0420235 1.25097e-20)
(0.978096 -0.0135142 -1.76763e-20)
(0.98807 -0.0144928 -3.15959e-21)
(0.962116 -0.044631 -2.47511e-20)
(0.978767 -0.014567 -2.2935e-20)
(0.987859 -0.0153673 1.39124e-20)
(0.979538 -0.0156402 1.36501e-20)
(0.987593 -0.0162169 1.06885e-20)
(0.980431 -0.0167325 9.47749e-21)
(0.987262 -0.0170405 -3.10264e-20)
(0.981473 -0.0178349 3.8334e-21)
(0.986861 -0.017834 -2.70627e-22)
(0.982687 -0.0189559 -1.54243e-20)
(0.98639 -0.0185983 1.20548e-20)
(0.984096 -0.0201999 1.51942e-20)
(0.985855 -0.0193633 -3.13175e-21)
(0.985725 -0.0214135 -4.64807e-21)
(0.98528 -0.0201247 -6.30163e-22)
(0.991251 -0.0221665 0)
(0.983508 -0.0219335 0)
(0.99764 -0.0226086 0)
(0.982865 -0.0270249 0)
(1.00115 -0.0220371 0)
(0.98444 -0.0309414 0)
(1.00362 -0.0218436 0)
(0.987077 -0.0336349 0)
(1.00558 -0.0222898 0)
(0.990093 -0.0351439 0)
(1.00656 -0.023077 0)
(0.99356 -0.0352519 0)
(1.0066 -0.0217918 0)
(0.997413 -0.0354834 0)
(1.00693 -0.0215636 0)
(1.00082 -0.0342302 0)
(1.00799 -0.0211949 0)
(1.00323 -0.0322374 0)
(1.00892 -0.0200413 0)
(1.00515 -0.0302037 0)
(1.00919 -0.0196753 0)
(1.00703 -0.0272991 0)
(1.00954 -0.0179162 0)
(1.00843 -0.024887 0)
(1.01062 -0.0168764 0)
(1.0088 -0.0219329 0)
(1.01347 -0.0158059 0)
(1.00747 -0.0188238 0)
(1.01524 -0.0146331 0)
(1.00649 -0.0156467 0)
(1.01464 -0.0125098 0)
(1.00713 -0.0129699 0)
(1.01305 -0.0101513 0)
(1.00851 -0.0105639 0)
(1.01345 -0.00824374 0)
(1.00842 -0.00803906 0)
(1.01539 -0.00613169 0)
(1.00711 -0.00558243 0)
(1.01531 -0.00351028 0)
(1.00717 -0.00334531 0)
(1.01355 -0.00105775 0)
(1.00845 -0.00113791 0)
)
;

boundaryField
{
    inlet
    {
        type            uniformFixedValue;
        uniformValue    constant (1 0 0);
        value           nonuniform 0();
    }
    outlet
    {
        type            pressureInletOutletVelocity;
        value           nonuniform 0();
    }
    cylinder
    {
        type            fixedValue;
        value           nonuniform 0();
    }
    top
    {
        type            symmetryPlane;
    }
    bottom
    {
        type            symmetryPlane;
    }
    defaultFaces
    {
        type            empty;
    }
    procBoundary1to0
    {
        type            processor;
        value           nonuniform List<vector> 
86
(
(1.00341 0.00362632 0)
(1.0059 0.00192478 0)
(1.00696 0.00111982 0)
(1.00624 0.000407272 0)
(1.00507 -0.000365617 0)
(1.00453 -0.000495468 0)
(1.00404 -8.71025e-06 0)
(1.00293 0.000547179 0)
(1.00198 0.000948401 0)
(1.00274 0.00161373 0)
(1.00386 0.00224009 0)
(1.00391 0.00266083 0)
(1.00248 0.00287032 0)
(1.00157 0.00273414 0)
(1.00196 0.00265707 0)
(1.00292 0.00257916 0)
(1.00243 0.00222947 0)
(1.00195 0.00169302 0)
(1.00219 0.00126633 0)
(1.0029 0.000748474 0)
(1.0024 0.000242634 0)
(1.00115 0.00343637 -1.58328e-21)
(1.00046 0.00313953 1.20551e-20)
(0.99984 0.00284038 -1.0955e-20)
(0.999277 0.00258173 1.26389e-21)
(0.99878 0.00232467 -6.79983e-21)
(0.998348 0.00207243 5.01391e-21)
(0.997978 0.00182944 2.2522e-20)
(0.997666 0.001596 -8.47678e-22)
(0.997404 0.00137155 4.62142e-22)
(0.997187 0.00115609 6.92112e-21)
(0.997007 0.000949489 -2.77465e-20)
(0.996858 0.000752183 8.55025e-21)
(0.996734 0.000563277 -2.13161e-20)
(0.988736 0.00719835 -3.01246e-21)
(0.988736 0.00719835 -3.01246e-21)
(0.988797 0.00620189 -1.39735e-20)
(0.988848 0.00516591 9.34414e-21)
(0.988889 0.00411259 1.81381e-22)
(0.988922 0.00304393 -2.40932e-21)
(0.988945 0.00196332 -3.9944e-21)
(0.98896 0.000873475 -7.5316e-22)
(0.988965 -0.000226196 1.64475e-21)
(0.988963 -0.0013306 1.75089e-21)
(0.988952 -0.00242662 -5.27613e-22)
(0.988932 -0.00351014 -2.94856e-21)
(0.988904 -0.0045839 -1.80162e-21)
(0.988867 -0.00564749 -8.28483e-22)
(0.988823 -0.00669974 9.58347e-21)
(0.98877 -0.00773895 -1.5599e-20)
(0.98877 -0.00773895 -1.5599e-20)
(0.996476 -0.00203314 1.37944e-20)
(0.996557 -0.0022252 -2.12581e-20)
(0.996657 -0.0024259 6.9796e-21)
(0.996781 -0.00263539 -2.92603e-20)
(0.996935 -0.00285367 6.72104e-21)
(0.997126 -0.00308066 -6.07085e-22)
(0.997361 -0.00331623 -6.90012e-21)
(0.997649 -0.00356049 2.27428e-20)
(0.997995 -0.00381365 -6.07604e-22)
(0.998404 -0.00407286 -8.10476e-21)
(0.998879 -0.00433036 -2.04537e-21)
(0.999422 -0.00460561 -7.90688e-21)
(1.00003 -0.00493343 9.45232e-21)
(1.0007 -0.00523874 -2.4796e-21)
(1.00292 -0.0054328 0)
(1.00551 -0.00373387 0)
(1.00635 -0.00284548 0)
(1.00619 -0.00188634 0)
(1.00573 -0.00118402 0)
(1.0049 -0.000964457 0)
(1.00366 -0.000674535 0)
(1.00259 -0.000951999 0)
(1.00207 -0.00134094 0)
(1.00173 -0.00163083 0)
(1.00121 -0.00222941 0)
(1.00088 -0.0024039 0)
(1.00133 -0.00270106 0)
(1.00299 -0.00291711 0)
(1.00418 -0.00314087 0)
(1.00381 -0.00304883 0)
(1.00271 -0.00267724 0)
(1.00277 -0.00222807 0)
(1.00381 -0.00171254 0)
(1.00375 -0.00106988 0)
(1.00269 -0.000354086 0)
)
;
    }
    procBoundary1to2
    {
        type            processor;
        value           nonuniform List<vector> 
86
(
(0.960477 0.0602242 0)
(0.966168 0.0663708 0)
(0.972929 0.0712576 0)
(0.98224 0.0721665 0)
(0.99089 0.0733585 0)
(0.996737 0.0700282 0)
(1.00227 0.0645589 0)
(1.00884 0.0611979 0)
(1.01433 0.0581039 0)
(1.01484 0.0514308 0)
(1.01537 0.045399 0)
(1.01722 0.0412694 0)
(1.02185 0.0375785 0)
(1.02406 0.0340125 0)
(1.02382 0.0285879 0)
(1.02197 0.023309 0)
(1.02443 0.0198037 0)
(1.02562 0.0161446 0)
(1.02556 0.0109678 0)
(1.02338 0.00670804 0)
(1.02574 0.00246268 0)
(0.961613 0.0565394 9.28769e-21)
(0.961968 0.0542652 1.66954e-21)
(0.962217 0.0519224 -1.04149e-21)
(0.96232 0.0496118 -1.64384e-22)
(0.962292 0.0472151 -5.72101e-21)
(0.96217 0.0447306 1.31847e-20)
(0.96217 0.0447306 1.31847e-20)
(0.924442 0.0488467 7.88855e-21)
(0.922064 0.0453761 7.06183e-21)
(0.919881 0.0419014 -2.7966e-20)
(0.917876 0.0384245 1.62994e-20)
(0.916043 0.0349466 -2.53407e-20)
(0.914375 0.031468 3.41859e-20)
(0.912874 0.0279889 -4.79949e-20)
(0.91154 0.0245094 2.54793e-20)
(0.910373 0.0210294 7.41791e-21)
(0.909376 0.017549 -5.66019e-21)
(0.908549 0.0140682 -7.96786e-21)
(0.907893 0.0105878 -1.68777e-20)
(0.907409 0.00710778 9.54008e-21)
(0.907097 0.00361504 -6.99712e-21)
(0.906959 0.000151395 1.06124e-21)
(0.906994 -0.0033062 -4.68473e-22)
(0.907203 -0.00679206 -4.99612e-21)
(0.907584 -0.0102664 1.91225e-20)
(0.908139 -0.0137352 -1.46419e-20)
(0.908864 -0.0172012 -5.97725e-22)
(0.909761 -0.0206636 -1.38467e-20)
(0.910827 -0.0241224 3.49725e-21)
(0.912062 -0.0275775 2.57269e-20)
(0.913464 -0.0310288 -2.77373e-20)
(0.915031 -0.0344764 4.63907e-20)
(0.916764 -0.0379202 -1.60873e-20)
(0.918661 -0.0413601 3.36291e-20)
(0.920727 -0.0447958 -6.14086e-20)
(0.922969 -0.0482262 1.23877e-21)
(0.925403 -0.05165 2.18858e-20)
(0.962324 -0.0471638 -4.88736e-20)
(0.962324 -0.0471638 -4.88736e-20)
(0.962478 -0.0496193 8.78026e-21)
(0.962543 -0.0519857 1.30498e-20)
(0.962484 -0.0542654 1.04358e-20)
(0.962284 -0.0565702 2.977e-21)
(0.961983 -0.0588039 -2.47617e-21)
(0.961018 -0.062602 0)
(0.966647 -0.0678118 0)
(0.975127 -0.0731268 0)
(0.983202 -0.07531 0)
(0.990496 -0.073853 0)
(0.997904 -0.0700222 0)
(1.00548 -0.0689929 0)
(1.01143 -0.0647417 0)
(1.01557 -0.0595321 0)
(1.01886 -0.055036 0)
(1.02218 -0.0484992 0)
(1.02451 -0.0440814 0)
(1.02529 -0.0379932 0)
(1.02295 -0.0317648 0)
(1.02161 -0.025973 0)
(1.02294 -0.0220574 0)
(1.0254 -0.0183247 0)
(1.0249 -0.0135334 0)
(1.02211 -0.0092419 0)
(1.02229 -0.00606773 0)
(1.02499 -0.00232101 0)
)
;
    }
}


// ************************************************************************* //
