/*--------------------------------*- C++ -*----------------------------------*\
  =========                 |
  \\      /  F ield         | OpenFOAM: The Open Source CFD Toolbox
   \\    /   O peration     | Website:  https://openfoam.org
    \\  /    A nd           | Version:  7
     \\/     M anipulation  |
\*---------------------------------------------------------------------------*/
FoamFile
{
    version     2.0;
    format      ascii;
    class       volVectorField;
    location    "40";
    object      U;
}
// * * * * * * * * * * * * * * * * * * * * * * * * * * * * * * * * * * * * * //

dimensions      [0 1 -1 0 0 0 0];

internalField   nonuniform List<vector> 
392
(
(0.504759 -0.00100756 -7.60539e-23)
(0.509599 -0.000987964 2.464e-23)
(0.51435 -0.000968851 3.31745e-23)
(0.505594 -0.00301968 -1.41235e-22)
(0.510421 -0.00296097 1.35043e-22)
(0.515158 -0.0029037 -3.69202e-23)
(0.507261 -0.0050228 2.02641e-22)
(0.512059 -0.00492519 8.04504e-23)
(0.516769 -0.00482997 -7.98964e-23)
(0.509751 -0.00701095 4.4574e-22)
(0.514507 -0.00687483 -2.18184e-22)
(0.519176 -0.00674203 -1.26798e-22)
(0.513052 -0.00897832 -3.20071e-22)
(0.517753 -0.00880419 -8.25458e-22)
(0.522368 -0.00863431 1.78473e-22)
(0.517148 -0.0109192 -1.15409e-21)
(0.52178 -0.0107077 -1.14197e-22)
(0.526328 -0.0105014 -2.58907e-23)
(0.522019 -0.012828 -5.07538e-22)
(0.52657 -0.01258 9.81608e-22)
(0.531039 -0.012338 1.27586e-22)
(0.527641 -0.0146996 -7.08247e-23)
(0.5321 -0.0144159 -6.35363e-22)
(0.536477 -0.0141391 -3.02173e-23)
(0.533989 -0.0165287 -6.10147e-22)
(0.538343 -0.0162104 1.09346e-21)
(0.542617 -0.0158999 2.35616e-22)
(0.541032 -0.0183107 1.8402e-21)
(0.54527 -0.0179589 -1.60235e-21)
(0.549432 -0.0176157 -1.27291e-22)
(0.548736 -0.0200409 2.7643e-22)
(0.552849 -0.019657 1.78097e-22)
(0.556888 -0.0192823 6.76975e-22)
(0.557067 -0.0217154 -2.41516e-22)
(0.561045 -0.0213006 -4.12057e-22)
(0.564953 -0.0208958 -1.36962e-21)
(0.565988 -0.0233303 -1.08894e-21)
(0.569822 -0.022886 -6.33212e-22)
(0.573591 -0.0224524 1.22441e-22)
(0.575456 -0.0248821 -5.15366e-22)
(0.579141 -0.0244099 -1.36054e-21)
(0.582762 -0.023949 1.14182e-21)
(0.585433 -0.0263678 1.83464e-22)
(0.58896 -0.0258692 1.10079e-21)
(0.592428 -0.0253825 -9.60659e-22)
(0.595838 -0.0249074 -1.69502e-23)
(0.599239 -0.0272614 2.25106e-21)
(0.602548 -0.0267504 -9.5905e-22)
(0.605802 -0.0262516 -3.45729e-22)
(0.609933 -0.0285842 -4.11055e-22)
(0.613079 -0.0280506 2.17838e-21)
(0.616174 -0.0275296 -1.38621e-21)
(0.620998 -0.0298359 8.78512e-22)
(0.623978 -0.0292812 4.3362e-22)
(0.62691 -0.0287396 -5.93514e-22)
(0.632391 -0.0310152 4.34337e-22)
(0.635201 -0.030441 1.20897e-21)
(0.637968 -0.0298804 -1.61291e-21)
(0.644067 -0.0321207 -1.39202e-21)
(0.646706 -0.0315287 -1.67572e-23)
(0.649306 -0.0309506 2.23344e-21)
(0.655982 -0.0331514 -3.17474e-21)
(0.658449 -0.0325432 6.09706e-22)
(0.660881 -0.0319492 7.59645e-22)
(0.668091 -0.0341079 5.19861e-23)
(0.670387 -0.0334851 -1.49299e-21)
(0.67265 -0.0328768 -7.84595e-23)
(0.680352 -0.034997 -8.29462e-22)
(0.682477 -0.0343607 -1.28949e-21)
(0.684574 -0.0337393 2.98287e-21)
(0.692722 -0.0358183 -4.56365e-21)
(0.694678 -0.0351698 6.01167e-21)
(0.69661 -0.0345363 -2.63942e-21)
(0.716641 -0.0371887 -2.74001e-28)
(0.718297 -0.0365238 2.74002e-28)
(0.719934 -0.035874 0)
(0.753864 -0.0386764 -2.63191e-28)
(0.755058 -0.0379978 2.63191e-28)
(0.756242 -0.0373342 0)
(0.791745 -0.0397028 0)
(0.792487 -0.0390185 0)
(0.793229 -0.0383491 0)
(0.829649 -0.0402568 0)
(0.829961 -0.0395757 0)
(0.83028 -0.0389091 0)
(0.866982 -0.0403608 0)
(0.866894 -0.0396912 0)
(0.86682 -0.0390354 0)
(0.903205 -0.0400545 0)
(0.902756 -0.0394035 0)
(0.902326 -0.0387654 0)
(0.937849 -0.0393832 0)
(0.937082 -0.0387567 0)
(0.93634 -0.038142 0)
(0.970522 -0.0383968 0)
(0.969486 -0.0377994 0)
(0.968478 -0.0372127 0)
(1.00092 -0.0371488 1.6499e-28)
(0.99966 -0.0365838 0)
(0.998435 -0.0360283 -2.31974e-28)
(1.02881 -0.0356933 -1.6499e-28)
(1.02738 -0.0351627 0)
(1.02599 -0.0346404 2.31974e-28)
(1.05406 -0.0340834 0)
(1.05251 -0.0335879 0)
(1.051 -0.0330995 0)
(1.07661 -0.0323687 -3.79303e-28)
(1.07499 -0.0319081 3.79303e-28)
(1.07339 -0.0314535 0)
(1.09648 -0.0305945 9.63573e-29)
(1.09482 -0.0301676 -9.63573e-29)
(1.09319 -0.0297457 0)
(1.09158 -0.0293292 0)
(1.11375 -0.0288003 0)
(1.11208 -0.0284053 0)
(1.11044 -0.0280144 0)
(1.10883 -0.027628 0)
(1.12853 -0.0270189 1.8261e-28)
(1.12689 -0.0266537 0)
(1.12527 -0.0262917 -2.57901e-28)
(1.12368 -0.0259335 0)
(1.14101 -0.0252768 -1.8261e-28)
(1.13941 -0.0249389 0)
(1.13784 -0.0246035 2.57901e-28)
(1.13629 -0.0242713 0)
(1.15138 -0.0235937 -1.96654e-28)
(1.14984 -0.0232806 1.96654e-28)
(1.14832 -0.0229696 0)
(1.14683 -0.022661 0)
(1.15984 -0.0219833 3.21389e-28)
(1.15837 -0.0216927 -3.21389e-28)
(1.15693 -0.0214036 0)
(1.1555 -0.0211165 0)
(1.16523 -0.0201834 4.28695e-28)
(1.16386 -0.0199141 0)
(1.16251 -0.0196465 0)
(1.17063 -0.0187565 -4.28695e-28)
(1.16934 -0.0185053 0)
(1.16806 -0.0182553 0)
(1.17478 -0.0174122 0)
(1.17356 -0.0171774 0)
(1.17235 -0.0169435 0)
(1.17786 -0.0161476 0)
(1.17671 -0.0159279 0)
(1.17558 -0.0157089 0)
(1.18007 -0.0149578 0)
(1.17899 -0.0147522 1.23109e-28)
(1.17792 -0.0145471 -4.52639e-28)
(1.18155 -0.0138365 0)
(1.18053 -0.0136442 -1.23109e-28)
(1.17953 -0.0134522 4.52639e-28)
(1.18246 -0.0127768 -4.90712e-28)
(1.1815 -0.0125973 1.25346e-28)
(1.18054 -0.0124178 0)
(1.18292 -0.0117713 4.90712e-28)
(1.182 -0.0116041 -1.25346e-28)
(1.18109 -0.0114369 0)
(1.18302 -0.0108129 0)
(1.18215 -0.0106579 0)
(1.18128 -0.0105026 0)
(1.18287 -0.00989492 0)
(1.18203 -0.00975173 0)
(1.1812 -0.00960824 0)
(1.18254 -0.00901104 -3.56366e-28)
(1.18172 -0.00887963 0)
(1.18092 -0.00874783 0)
(1.18208 -0.00815572 2.22303e-28)
(1.18129 -0.008036 0)
(1.18051 -0.00791582 0)
(1.18155 -0.00732405 0)
(1.18078 -0.00721596 0)
(1.18002 -0.00710737 0)
(1.18099 -0.0065118 1.27426e-28)
(1.18024 -0.00641528 0)
(1.1795 -0.00631825 0)
(1.18043 -0.00571534 -6.48337e-28)
(1.17969 -0.00563034 0)
(1.17896 -0.00554484 0)
(1.17989 -0.00493158 0)
(1.17917 -0.00485806 0)
(1.17845 -0.00478406 0)
(1.1794 -0.00415795 0)
(1.17868 -0.00409585 0)
(1.17798 -0.00403331 0)
(1.17898 -0.00339223 0)
(1.17826 -0.00334151 0)
(1.17756 -0.00329041 0)
(1.17862 -0.00263258 -2.27424e-28)
(1.17791 -0.00259319 1.32496e-28)
(1.17722 -0.00255348 0)
(1.17835 -0.00187739 3.67025e-28)
(1.17764 -0.00184928 -1.32496e-28)
(1.17695 -0.00182094 0)
(1.17816 -0.00112526 0)
(1.17746 -0.00110841 0)
(1.17677 -0.00109142 0)
(1.17807 -0.000374898 0)
(1.17737 -0.000369284 0)
(1.17668 -0.000363621 0)
(0.716641 0.0371887 0)
(0.753864 0.0386764 0)
(0.791745 0.0397028 -5.98339e-12)
(0.829649 0.0402568 -1.21571e-11)
(0.866982 0.0403608 -6.18049e-12)
(0.903205 0.0400545 3.40515e-28)
(0.937849 0.0393832 -3.46613e-28)
(0.970522 0.0383968 8.81226e-29)
(1.00092 0.0371488 -2.77173e-28)
(1.02881 0.0356933 3.66001e-28)
(1.05406 0.0340833 -9.30473e-29)
(1.07661 0.0323687 0)
(1.09648 0.0305945 9.63573e-29)
(1.11375 0.0288002 -3.92416e-28)
(1.12853 0.0270189 -1.8261e-28)
(1.14101 0.0252768 1.8261e-28)
(1.15138 0.0235937 0)
(1.15984 0.0219833 3.21389e-28)
(1.16662 0.0204537 -1.50019e-11)
(1.17194 0.0190085 1.50019e-11)
(1.17601 0.0176475 0)
(1.17902 0.0163675 1.18826e-28)
(1.18116 0.0151634 -6.08399e-28)
(1.18258 0.0140286 -3.4371e-28)
(1.18344 0.0129559 1.59196e-11)
(1.18384 0.011938 -1.59196e-11)
(1.18391 0.0109674 0)
(1.18372 0.0100374 -6.32906e-28)
(1.18336 0.00914169 -3.10893e-28)
(1.18288 0.00827465 1.7683e-28)
(1.18233 0.00743134 8.24555e-12)
(1.18175 0.00660753 -1.69029e-11)
(1.18118 0.00579957 -8.68967e-12)
(1.18063 0.0050044 0)
(1.18013 0.00421941 -3.65056e-28)
(1.1797 0.00344241 8.7613e-12)
(1.17934 0.00267154 8.777e-12)
(1.17906 0.00190518 -8.77332e-28)
(1.17888 0.00114192 -8.39458e-12)
(1.17878 0.000380447 8.48474e-12)
(0.718297 0.0365238 0)
(0.755058 0.0379978 0)
(0.792487 0.0390185 5.98339e-12)
(0.829961 0.0395757 1.21571e-11)
(0.866894 0.0396912 6.18049e-12)
(0.902756 0.0394035 -3.40515e-28)
(0.937082 0.0387566 3.46613e-28)
(0.969486 0.0377994 -8.81226e-29)
(0.999659 0.0365838 2.77173e-28)
(1.02738 0.0351627 -3.66001e-28)
(1.05251 0.0335879 9.30473e-29)
(1.07499 0.0319081 0)
(1.09482 0.0301676 -9.63573e-29)
(1.11208 0.0284053 3.92416e-28)
(1.12689 0.0266536 0)
(1.13941 0.0249389 0)
(1.14984 0.0232806 0)
(1.15837 0.0216926 -3.21389e-28)
(1.16523 0.0201834 -7.26088e-12)
(1.17063 0.0187565 7.26088e-12)
(1.17478 0.0174122 0)
(1.17786 0.0161476 -1.18826e-28)
(1.18007 0.0149578 6.08399e-28)
(1.18155 0.0138365 3.4371e-28)
(1.18246 0.0127768 7.71989e-12)
(1.18292 0.0117713 -7.71989e-12)
(1.18302 0.0108129 0)
(1.18287 0.00989491 6.32906e-28)
(1.18254 0.00901103 -1.11824e-28)
(1.18208 0.00815571 2.45887e-28)
(1.18155 0.00732405 8.00786e-12)
(1.18099 0.0065118 6.49484e-13)
(1.18043 0.00571533 8.68967e-12)
(1.17989 0.00493158 0)
(1.1794 0.00415794 3.65056e-28)
(1.17898 0.00339223 -8.7613e-12)
(1.17862 0.00263258 -8.777e-12)
(1.17835 0.00187739 1.38051e-28)
(1.17816 0.00112526 -1.63177e-11)
(1.17807 0.000374898 1.6493e-11)
(0.719934 0.035874 0)
(0.756242 0.0373342 0)
(0.793228 0.0383491 0)
(0.83028 0.0389091 0)
(0.86682 0.0390354 0)
(0.902326 0.0387654 0)
(0.93634 0.038142 0)
(0.968478 0.0372127 0)
(0.998435 0.0360283 0)
(1.02599 0.0346404 0)
(1.051 0.0330995 0)
(1.07339 0.0314535 0)
(1.09319 0.0297457 0)
(1.11044 0.0280144 0)
(1.12527 0.0262917 2.57901e-28)
(1.13784 0.0246035 -2.57901e-28)
(1.14832 0.0229695 0)
(1.15693 0.0214035 0)
(1.16386 0.0199141 -1.57505e-28)
(1.16934 0.0185053 1.57505e-28)
(1.17356 0.0171774 0)
(1.17671 0.0159279 0)
(1.17899 0.0147522 -1.23109e-28)
(1.18053 0.0136442 1.23109e-28)
(1.1815 0.0125972 1.25346e-28)
(1.182 0.0116041 -1.25346e-28)
(1.18215 0.0106578 0)
(1.18203 0.00975172 0)
(1.18172 0.00887962 0)
(1.18129 0.00803599 0)
(1.18078 0.00721595 0)
(1.18024 0.00641527 0)
(1.17969 0.00563034 -1.31227e-28)
(1.17917 0.00485806 1.31227e-28)
(1.17868 0.00409585 0)
(1.17826 0.00334151 0)
(1.17791 0.00259319 -1.32496e-28)
(1.17764 0.00184928 1.32496e-28)
(1.17746 0.00110841 -7.92667e-12)
(1.17737 0.000369283 8.0118e-12)
(0.692722 0.0358183 4.65696e-21)
(0.694678 0.0351698 -6.00785e-21)
(0.69661 0.0345363 2.64308e-21)
(0.680352 0.034997 8.33148e-22)
(0.682477 0.0343607 1.35479e-21)
(0.684574 0.0337393 -3.02282e-21)
(0.668091 0.034108 -7.56162e-23)
(0.670387 0.0334851 1.50144e-21)
(0.67265 0.0328768 1.74547e-22)
(0.655982 0.0331514 3.20079e-21)
(0.658449 0.0325432 -6.97184e-22)
(0.660881 0.0319492 -8.33335e-22)
(0.644067 0.0321207 -3.69167e-22)
(0.646706 0.0315287 1.80126e-21)
(0.649306 0.0309506 -2.04488e-21)
(0.632391 0.0310152 1.39172e-21)
(0.635201 0.030441 -1.11154e-21)
(0.637968 0.0298804 1.73985e-21)
(0.620998 0.0298359 -9.76536e-22)
(0.623977 0.0292812 -5.92002e-22)
(0.626909 0.0287396 4.94829e-22)
(0.609932 0.0285842 8.81478e-23)
(0.613079 0.0280506 -2.1891e-21)
(0.616173 0.0275296 8.87214e-22)
(0.599239 0.0272614 -1.63772e-21)
(0.602548 0.0267504 9.98506e-22)
(0.605802 0.0262516 9.12834e-22)
(0.585433 0.0263678 1.28754e-22)
(0.58896 0.0258692 -1.45351e-21)
(0.592428 0.0253825 1.36512e-21)
(0.595838 0.0249074 -4.61962e-22)
(0.575456 0.0248821 2.78218e-22)
(0.579141 0.0244099 1.068e-21)
(0.582762 0.023949 -1.36123e-21)
(0.565988 0.0233303 6.88652e-22)
(0.569822 0.022886 9.92165e-22)
(0.573591 0.0224524 -3.76395e-22)
(0.557067 0.0217154 8.60308e-22)
(0.561045 0.0213006 5.90552e-22)
(0.564953 0.0208958 1.35544e-21)
(0.548736 0.020041 -2.16278e-22)
(0.552849 0.019657 -3.12085e-22)
(0.556888 0.0192823 1.15389e-21)
(0.541032 0.0183107 -2.26205e-21)
(0.54527 0.0179589 1.21849e-21)
(0.549432 0.0176157 -2.39401e-23)
(0.533989 0.0165287 8.33752e-22)
(0.538342 0.0162104 -7.15934e-22)
(0.542617 0.0158999 -9.4737e-23)
(0.527641 0.0146996 -7.89634e-23)
(0.5321 0.0144159 5.95785e-22)
(0.536477 0.0141391 8.20256e-23)
(0.522019 0.0128281 5.81204e-22)
(0.52657 0.01258 -9.86511e-22)
(0.531039 0.012338 7.44795e-22)
(0.517148 0.0109192 9.90213e-22)
(0.52178 0.0107077 9.87623e-23)
(0.526328 0.0105014 8.38098e-23)
(0.513052 0.00897834 2.47582e-22)
(0.517753 0.0088042 9.94516e-22)
(0.522368 0.00863431 -4.9022e-22)
(0.509751 0.00701097 -2.68096e-22)
(0.514507 0.00687484 4.98678e-23)
(0.519176 0.00674203 2.97672e-22)
(0.507261 0.00502282 -2.28507e-22)
(0.512059 0.0049252 -5.61289e-23)
(0.516769 0.00482998 1.35696e-22)
(0.505594 0.0030197 1.53431e-22)
(0.510421 0.00296099 -1.68805e-22)
(0.515158 0.0029037 2.34784e-23)
(0.504759 0.00100758 7.01515e-23)
(0.509599 0.000987979 7.5965e-26)
(0.51435 0.000968858 1.16252e-24)
)
;

boundaryField
{
    inlet
    {
        type            uniformFixedValue;
        uniformValue    constant (1 0 0);
        value           nonuniform 0();
    }
    outlet
    {
        type            pressureInletOutletVelocity;
        value           nonuniform 0();
    }
    cylinder
    {
        type            fixedValue;
        value           nonuniform 0();
    }
    top
    {
        type            symmetryPlane;
    }
    bottom
    {
        type            symmetryPlane;
    }
    defaultFaces
    {
        type            empty;
    }
    procBoundary47to46
    {
        type            processor;
        value           nonuniform List<vector> 
131
(
(0.499826 -0.00102764 2.99506e-24)
(0.500676 -0.00307986 1.25698e-24)
(0.502372 -0.00512284 4.16098e-22)
(0.504904 -0.00715048 -3.88949e-22)
(0.508262 -0.0091568 -1.69339e-22)
(0.512428 -0.0111359 -1.41326e-21)
(0.517382 -0.0130823 9.35117e-23)
(0.5231 -0.0149903 -1.02592e-21)
(0.529555 -0.0168549 4.81122e-22)
(0.536716 -0.0186711 2.15653e-21)
(0.544549 -0.0204344 1.26731e-22)
(0.553018 -0.0221404 -5.11462e-22)
(0.562084 -0.0237854 -1.8365e-21)
(0.571707 -0.0253658 -4.78213e-22)
(0.581844 -0.0268785 -1.32263e-21)
(0.595873 -0.0277848 -3.14085e-22)
(0.595873 -0.0277848 -3.14085e-22)
(0.606734 -0.0291308 2.0159e-21)
(0.61797 -0.0304041 1.73905e-21)
(0.629536 -0.0316031 -1.3919e-21)
(0.641387 -0.0327269 3.16736e-23)
(0.653478 -0.0337741 -5.51364e-21)
(0.665763 -0.0347455 1.74232e-21)
(0.678198 -0.0356482 1.51328e-21)
(0.690742 -0.0364821 2.25958e-21)
(0.714967 -0.037869 0)
(0.752661 -0.0393705 0)
(0.791002 -0.0404022 0)
(0.829344 -0.0409524 0)
(0.867084 -0.0410443 0)
(0.903675 -0.0407184 0)
(0.938642 -0.0400214 0)
(0.971588 -0.0390047 0)
(1.0022 -0.037723 -1.50411e-29)
(1.03026 -0.0362319 1.50411e-29)
(1.05564 -0.0345856 0)
(1.07827 -0.032835 0)
(1.09818 -0.031026 0)
(1.11544 -0.0291989 0)
(1.1302 -0.027387 0)
(1.14263 -0.0256169 0)
(1.15294 -0.0239084 0)
(1.16133 -0.022275 0)
(1.16662 -0.0204537 0)
(1.16662 -0.0204537 0)
(1.17194 -0.0190086 0)
(1.17601 -0.0176475 0)
(1.17902 -0.0163675 0)
(1.18116 -0.0151634 0)
(1.18258 -0.0140286 0)
(1.18344 -0.0129559 0)
(1.18384 -0.011938 0)
(1.18391 -0.0109674 0)
(1.18372 -0.0100374 0)
(1.18336 -0.0091417 -5.39464e-28)
(1.18288 -0.00827465 4.054e-28)
(1.18233 -0.00743135 0)
(1.18175 -0.00660753 1.27426e-28)
(1.18118 -0.00579958 -6.48337e-28)
(1.18063 -0.0050044 0)
(1.18013 -0.00421941 0)
(1.1797 -0.00344242 0)
(1.17934 -0.00267154 -3.67762e-28)
(1.17906 -0.00190518 5.07364e-28)
(1.17888 -0.00114192 0)
(1.17878 -0.000380447 0)
(0.714967 0.037869 0)
(0.752661 0.0393705 0)
(0.791002 0.0404022 0)
(0.829344 0.0409524 0)
(0.867084 0.0410443 0)
(0.903675 0.0407184 0)
(0.938642 0.0400214 0)
(0.971588 0.0390047 0)
(1.0022 0.037723 0)
(1.03026 0.0362319 0)
(1.05564 0.0345856 0)
(1.07827 0.032835 0)
(1.09818 0.031026 0)
(1.11544 0.0291989 0)
(1.1302 0.027387 0)
(1.14263 0.0256169 0)
(1.15294 0.0239084 0)
(1.16133 0.022275 0)
(1.16803 0.0207247 -1.54938e-11)
(1.17327 0.0192608 1.54938e-11)
(1.17726 0.0178828 0)
(1.1802 0.0165872 0)
(1.18227 0.0153685 0)
(1.18363 0.01422 0)
(1.18443 0.0131343 1.6409e-11)
(1.18479 0.0121037 -1.6409e-11)
(1.18481 0.0111208 0)
(1.18459 0.0101788 0)
(1.18419 0.00927122 0)
(1.18369 0.00839243 0)
(1.18312 0.0075375 0)
(1.18252 0.00670216 0)
(1.18194 0.00588278 0)
(1.18138 0.00507627 0)
(1.18087 0.00428004 -5.46063e-28)
(1.18043 0.00349189 5.46063e-28)
(1.18007 0.00270993 0)
(1.17979 0.00193255 0)
(1.1796 0.00115832 0)
(1.1795 0.000385912 0)
(0.690742 0.0364821 -2.12109e-21)
(0.678198 0.0356482 -1.55774e-21)
(0.665763 0.0347456 -1.73205e-21)
(0.653478 0.0337741 5.54904e-21)
(0.641387 0.0327269 -1.62698e-23)
(0.629536 0.0316032 -7.85675e-22)
(0.61797 0.0304041 -1.69966e-21)
(0.606734 0.0291308 -2.07322e-21)
(0.595873 0.0277848 4.51224e-22)
(0.595873 0.0277848 4.51224e-22)
(0.581844 0.0268786 -1.15874e-21)
(0.571707 0.0253658 -1.72606e-21)
(0.562084 0.0237854 2.63532e-21)
(0.553018 0.0221404 -1.28602e-22)
(0.544549 0.0204344 4.63369e-22)
(0.536716 0.0186711 -2.43045e-21)
(0.529555 0.0168549 -7.62287e-22)
(0.5231 0.0149903 1.3853e-21)
(0.517382 0.0130823 -2.0034e-22)
(0.512428 0.011136 1.36063e-21)
(0.508262 0.00915683 -6.28081e-23)
(0.504904 0.00715051 5.80595e-22)
(0.502372 0.00512287 -3.77129e-22)
(0.500676 0.00307989 7.2717e-24)
(0.499826 0.00102767 -2.12811e-23)
)
;
    }
    procBoundary47to48
    {
        type            processor;
        value           nonuniform List<vector> 
131
(
(0.519014 -0.000950204 -4.60427e-23)
(0.519808 -0.00284782 2.64793e-22)
(0.521392 -0.00473708 -2.89769e-22)
(0.523759 -0.00661247 -2.22672e-22)
(0.526898 -0.00846857 -5.2093e-22)
(0.530793 -0.0103001 -6.58948e-22)
(0.535426 -0.0121019 5.20581e-22)
(0.540775 -0.013869 1.87487e-22)
(0.546816 -0.0155968 -3.52782e-22)
(0.55352 -0.0172808 3.75576e-22)
(0.560856 -0.0189167 -1.87844e-22)
(0.568793 -0.0205007 -1.49681e-21)
(0.577294 -0.0220293 3.05994e-22)
(0.586322 -0.0234991 1.36756e-21)
(0.586322 -0.0234991 1.36756e-21)
(0.59919 -0.0244437 1.29679e-21)
(0.609003 -0.0257647 7.31639e-22)
(0.619218 -0.027021 -6.54281e-23)
(0.629795 -0.0282109 -9.08872e-22)
(0.640692 -0.029333 -1.1337e-21)
(0.651866 -0.0303861 -5.13918e-22)
(0.663277 -0.0313692 2.33082e-21)
(0.674883 -0.0322827 8.54852e-23)
(0.686643 -0.0331323 1.53734e-21)
(0.698517 -0.0339176 -1.41925e-21)
(0.721553 -0.0352392 0)
(0.757416 -0.0366856 0)
(0.793968 -0.0376945 0)
(0.830604 -0.0382567 0)
(0.866759 -0.0383931 0)
(0.901915 -0.03814 0)
(0.935622 -0.0375391 0)
(0.967497 -0.0366368 0)
(0.99724 -0.0354825 1.30032e-29)
(1.02463 -0.0341266 -1.30032e-29)
(1.04951 -0.0326186 0)
(1.07183 -0.0310052 0)
(1.07183 -0.0310052 0)
(1.09001 -0.0289183 0)
(1.10725 -0.0272465 0)
(1.12212 -0.0255794 2.40631e-28)
(1.13476 -0.0239425 -2.40631e-28)
(1.14535 -0.0223553 1.06982e-28)
(1.15409 -0.0208318 -1.06982e-28)
(1.16117 -0.0193809 0)
(1.16679 -0.018007 0)
(1.17116 -0.016711 0)
(1.17446 -0.015491 0)
(1.17686 -0.0143428 0)
(1.17853 -0.0132609 0)
(1.1796 -0.0122389 0)
(1.1802 -0.01127 0)
(1.18043 -0.0103475 0)
(1.18038 -0.0094648 0)
(1.18013 -0.00861596 0)
(1.17975 -0.0077955 0)
(1.17928 -0.00699857 1.22566e-28)
(1.17877 -0.00622097 -1.22566e-28)
(1.17825 -0.00545906 0)
(1.17774 -0.00470978 0)
(1.17728 -0.00397051 0)
(1.17687 -0.00323906 0)
(1.17653 -0.00251357 0)
(1.17627 -0.00179246 0)
(1.17609 -0.00107433 0)
(1.176 -0.000357927 0)
(0.721553 0.0352392 0)
(0.757416 0.0366856 0)
(0.793968 0.0376945 0)
(0.830604 0.0382567 0)
(0.866759 0.0383931 0)
(0.901915 0.03814 0)
(0.935622 0.0375391 0)
(0.967497 0.0366368 0)
(0.99724 0.0354824 5.74996e-12)
(1.02463 0.0341266 -5.74996e-12)
(1.04951 0.0326185 0)
(1.07183 0.0310052 0)
(1.09158 0.0293291 0)
(1.10883 0.027628 0)
(1.12368 0.0259335 0)
(1.13629 0.0242713 0)
(1.14683 0.022661 6.60967e-12)
(1.1555 0.0211165 -6.60967e-12)
(1.16251 0.0196465 0)
(1.16806 0.0182553 0)
(1.17235 0.0169435 0)
(1.17558 0.0157089 0)
(1.17792 0.014547 4.52639e-28)
(1.17953 0.0134522 -4.52639e-28)
(1.18054 0.0124178 0)
(1.18109 0.0114369 0)
(1.18128 0.0105026 4.68409e-28)
(1.1812 0.00960823 -4.68409e-28)
(1.18092 0.00874781 4.40777e-28)
(1.18051 0.00791581 -4.40777e-28)
(1.18002 0.00710736 7.54448e-12)
(1.1795 0.00631824 -7.54448e-12)
(1.17896 0.00554483 4.83512e-28)
(1.17845 0.00478405 -4.83512e-28)
(1.17798 0.00403331 0)
(1.17756 0.0032904 0)
(1.17722 0.00255348 0)
(1.17695 0.00182094 0)
(1.17677 0.00109141 0)
(1.17668 0.00036362 0)
(0.698517 0.0339175 1.42092e-21)
(0.686643 0.0331323 -1.44809e-21)
(0.674883 0.0322827 9.73399e-24)
(0.663277 0.0313691 -2.52604e-21)
(0.651866 0.0303861 6.44426e-22)
(0.640691 0.029333 1.12521e-21)
(0.629795 0.0282109 7.28471e-22)
(0.619218 0.027021 1.64413e-23)
(0.609003 0.0257647 8.7433e-22)
(0.59919 0.0244437 -7.96322e-22)
(0.586322 0.0234991 -1.34484e-21)
(0.586322 0.0234991 -1.34484e-21)
(0.577293 0.0220293 -2.51728e-22)
(0.568793 0.0205007 1.43706e-21)
(0.560856 0.0189167 -9.38756e-22)
(0.55352 0.0172808 -6.68102e-22)
(0.546816 0.0155968 3.15567e-22)
(0.540775 0.013869 -1.049e-22)
(0.535426 0.0121019 -1.36946e-21)
(0.530793 0.0103001 5.07544e-22)
(0.526898 0.00846857 5.70091e-22)
(0.523759 0.00661247 -1.23781e-22)
(0.521392 0.00473708 2.66716e-22)
(0.519808 0.00284782 -1.83823e-23)
(0.519014 0.000950204 -5.04157e-23)
)
;
    }
}


// ************************************************************************* //
