/*--------------------------------*- C++ -*----------------------------------*\
  =========                 |
  \\      /  F ield         | OpenFOAM: The Open Source CFD Toolbox
   \\    /   O peration     | Website:  https://openfoam.org
    \\  /    A nd           | Version:  7
     \\/     M anipulation  |
\*---------------------------------------------------------------------------*/
FoamFile
{
    version     2.0;
    format      ascii;
    class       volVectorField;
    location    "20";
    object      U;
}
// * * * * * * * * * * * * * * * * * * * * * * * * * * * * * * * * * * * * * //

dimensions      [0 1 -1 0 0 0 0];

internalField   nonuniform List<vector> 
36
(
(0.864728 0.167272 7.34917e-20)
(0.841859 0.134298 1.94876e-19)
(0.785461 0.114355 -7.23273e-20)
(0.824386 0.098208 3.22505e-21)
(0.771191 0.0697515 -1.23577e-19)
(0.81258 0.0598449 -1.02814e-19)
(0.763961 0.0234423 -1.40055e-20)
(0.806628 0.0201021 3.37218e-20)
(0.763961 -0.0234423 -5.59034e-20)
(0.806628 -0.0201021 7.34511e-21)
(0.771191 -0.0697515 -1.44038e-20)
(0.81258 -0.0598449 -1.76306e-20)
(0.785461 -0.114355 2.47096e-19)
(0.824386 -0.098208 1.7458e-19)
(0.841859 -0.134298 -2.81141e-19)
(0.864728 -0.167272 -5.73165e-20)
(0.992615 0.210682 0)
(1.0204 0.179839 0)
(1.04021 0.155909 0)
(1.05351 0.134622 0)
(1.06183 0.114442 0)
(1.06659 0.0956234 0)
(1.06897 0.0782833 0)
(1.06986 0.0622502 0)
(1.06992 0.0472936 -1.12916e-28)
(1.06962 0.0331783 1.12911e-28)
(1.06926 0.0196702 0)
(1.06902 0.006529 0)
(0.964308 0.202241 -9.02501e-20)
(0.939794 0.184724 5.3636e-20)
(0.917889 0.161796 -1.43423e-20)
(0.899507 0.136491 1.38193e-19)
(0.899507 -0.136491 -1.39776e-19)
(0.917889 -0.161796 1.04939e-20)
(0.939794 -0.184724 -6.81776e-20)
(0.964308 -0.202241 1.11178e-19)
)
;

boundaryField
{
    inlet
    {
        type            uniformFixedValue;
        uniformValue    constant (1 0 0);
        value           nonuniform 0();
    }
    outlet
    {
        type            pressureInletOutletVelocity;
        value           nonuniform 0();
    }
    cylinder
    {
        type            fixedValue;
        value           nonuniform 0();
    }
    top
    {
        type            symmetryPlane;
    }
    bottom
    {
        type            symmetryPlane;
    }
    defaultFaces
    {
        type            empty;
    }
    procBoundary8to6
    {
        type            processor;
        value           nonuniform List<vector> 4((0.939196 0.0929747 1.40012e-20) (0.929952 0.0780062 5.28004e-21) (0.929952 -0.0780062 4.49799e-20) (0.939196 -0.0929747 -3.71189e-20));
    }
    procBoundary8to7
    {
        type            processor;
        value           nonuniform List<vector> 
26
(
(0.884811 0.108697 2.12662e-20)
(0.873812 0.0789768 4.44525e-21)
(0.866497 0.0479148 -4.87395e-20)
(0.862846 0.0160586 7.81282e-21)
(0.862846 -0.0160586 -3.40276e-21)
(0.866497 -0.0479148 2.45034e-20)
(0.873812 -0.0789768 2.27997e-20)
(0.884811 -0.108697 -2.86306e-20)
(0.987763 0.122027 0)
(1.0075 0.114066 0)
(1.02175 0.104754 0)
(1.03225 0.094448 0)
(1.03959 0.0832922 0)
(1.04444 0.0717496 0)
(1.0475 0.0601846 0)
(1.04933 0.0487812 0)
(1.05035 0.0376061 0)
(1.05086 0.02666 0)
(1.05109 0.0159028 0)
(1.05117 0.00527999 0)
(0.965294 0.119426 -1.54485e-19)
(0.950775 0.10724 8.55022e-20)
(0.884811 0.108697 2.12662e-20)
(0.884811 -0.108697 -2.86306e-20)
(0.950775 -0.10724 -9.77602e-20)
(0.965294 -0.119426 1.67091e-19)
)
;
    }
    procBoundary8to9
    {
        type            processor;
        value           nonuniform List<vector> 
21
(
(0.961485 0.241231 2.80118e-19)
(0.925445 0.221486 -5.817e-21)
(0.892655 0.196373 -1.49419e-19)
(0.892655 0.196373 -1.49419e-19)
(0.833501 0.194306 1.45288e-19)
(0.806407 0.15619 4.76564e-19)
(0.806407 0.15619 4.76564e-19)
(0.73801 0.13376 -6.58526e-20)
(0.721333 0.0816123 -2.80849e-20)
(0.712871 0.0274329 2.91183e-20)
(0.712871 -0.0274329 -5.93682e-20)
(0.721333 -0.0816123 -5.98157e-20)
(0.73801 -0.13376 -1.03233e-20)
(0.806407 -0.15619 -9.95106e-20)
(0.806407 -0.15619 -9.95106e-20)
(0.833501 -0.194306 -5.49653e-19)
(0.892655 -0.196373 -4.44166e-20)
(0.892655 -0.196373 -4.44166e-20)
(0.925445 -0.221486 3.66625e-20)
(0.961485 -0.241231 -1.17308e-19)
(0.992615 -0.210682 0)
)
;
    }
    procBoundary8to10
    {
        type            processor;
        value           nonuniform List<vector> 
12
(
(1.02549 0.215859 2.39392e-21)
(1.04892 0.186329 -6.50021e-20)
(1.06549 0.160172 1.1406e-19)
(1.07596 0.136572 -6.82466e-20)
(1.0819 0.114991 2.4306e-20)
(1.08479 0.0954901 1.82667e-20)
(1.08571 0.0778492 -4.02211e-20)
(1.08551 0.0617312 3.19865e-20)
(1.08477 0.0468147 -9.48453e-21)
(1.08392 0.032804 7.5538e-21)
(1.08324 0.0194163 -1.05751e-22)
(1.08286 0.00639843 -6.39264e-21)
)
;
    }
}


// ************************************************************************* //
