/*--------------------------------*- C++ -*----------------------------------*\
  =========                 |
  \\      /  F ield         | OpenFOAM: The Open Source CFD Toolbox
   \\    /   O peration     | Website:  https://openfoam.org
    \\  /    A nd           | Version:  7
     \\/     M anipulation  |
\*---------------------------------------------------------------------------*/
FoamFile
{
    version     2.0;
    format      ascii;
    class       surfaceScalarField;
    location    "5";
    object      phi;
}
// * * * * * * * * * * * * * * * * * * * * * * * * * * * * * * * * * * * * * //

dimensions      [0 3 -1 0 0 0 0];

internalField   nonuniform List<scalar> 
281
(
-0.00109241
0.000118789
-4.13416e-09
-0.00121506
0.000122659
-4.275e-09
-0.00134094
0.000125885
-4.40933e-09
-0.00146931
0.000128371
-4.53452e-09
0.000130045
-4.65125e-09
-0.00105279
-0.00116894
0.000238811
-0.00128739
0.000244341
-0.00140727
0.000248251
0.000250385
-0.00107933
0.000342489
-0.00118362
0.000348632
-0.00128741
0.000352038
0.000352436
-0.000951115
0.000428659
-0.00103569
0.000433211
-0.0011173
0.000433644
0.00042953
-0.000790804
0.000493433
-0.000851548
0.000493955
-0.000906664
0.000488759
0.000477226
-0.000605898
0.000534108
-0.000640089
0.000528146
-0.00066609
0.00051476
0.000493122
-0.000404468
0.000549102
-0.000410639
0.000534318
-0.000406283
0.000510403
0.000476354
-0.000194915
-0.000172706
0.000512108
-0.000137839
0.000475537
-8.85335e-05
0.000427049
0.00036578
6.41181e-05
0.000462215
0.000128608
0.000411047
0.000209444
0.000346213
0.00026679
0.000290659
0.000386281
0.000382931
0.000318776
0.000493323
0.00023582
0.000136199
0.000499127
0.00061683
0.000201072
0.000754419
9.82316e-05
0.000914384
-2.37654e-05
-0.000164052
0.00082563
5.99754e-05
0.000988679
-6.48177e-05
0.00117675
-0.000211832
-0.000379599
0.00101002
0.00119862
-0.000253425
0.00141561
-0.000428821
0.00166358
-0.000627561
-0.000865383
0.00139363
-0.000470164
0.00164291
-0.000678101
0.00192684
-0.000911485
-0.00119524
0.00158787
0.00187398
-0.000964214
0.00219775
-0.00123525
-0.00156681
0.00212111
-0.00128996
0.00248535
-0.0015995
-0.00197462
0.00238715
0.00278576
-0.00199811
-0.00240539
0.00308152
-0.00283897
0.00283898
0.00308153
0.00199812
0.0024054
0.00238715
0.00128998
0.00278576
0.00159951
0.00197464
0.00212111
0.000964226
0.00248535
0.00123527
0.00156682
0.00158787
0.000470175
0.00187398
0.000678113
0.00219775
0.000911497
0.00119525
0.00139363
0.000253436
0.00164291
0.000428832
0.00192684
0.000627572
0.000865395
0.00101002
-5.99648e-05
0.00119863
6.48286e-05
0.00141562
0.000211843
0.00166358
0.00037961
0.000825631
-0.000201062
0.000988681
-9.82208e-05
0.00117675
2.37763e-05
0.000164063
0.000499129
-0.000386271
0.000616832
-0.000318765
0.000754421
-0.00023581
0.000914385
-0.000136189
0.000290661
-0.000462205
0.000382933
-0.000411037
0.000493325
-0.000346202
-0.000266779
6.41201e-05
-0.000512099
0.00012861
-0.000475527
0.000209447
-0.000427039
-0.000365769
-0.000194913
-0.000549093
-0.000172703
-0.000534308
-0.000137837
-0.000510393
-8.8531e-05
-0.000476344
-0.000404466
-0.000534099
-0.000410637
-0.000528137
-0.00040628
-0.00051475
-0.000493112
-0.000605896
-0.000493424
-0.000640087
-0.000493945
-0.000666088
-0.00048875
-0.000477217
-0.000790802
-0.00042865
-0.000851546
-0.000433201
-0.000906662
-0.000433634
-0.000429521
-0.000951114
-0.000342481
-0.00103569
-0.000348623
-0.0011173
-0.000352029
-0.000352426
-0.000975648
-0.000231867
-0.00107933
-0.000238803
-0.00118362
-0.000244332
-0.0012874
-0.000248242
-0.000250376
-0.00105278
-0.000118781
-0.00116894
-0.000122651
-0.00128739
-0.000125876
-0.00140727
-0.000128361
-0.000130036
-0.00109241
-0.00121506
-0.00134094
-0.00146931
-0.00162823
-0.00119835
-0.000847838
-0.000550245
-0.00033439
-0.00017693
-6.47862e-05
1.60439e-05
7.31937e-05
0.000111333
0.000134287
0.000145461
0.000147349
0.000141928
0.000130752
0.000115066
9.58919e-05
7.40927e-05
5.03936e-05
2.55004e-05
-0.00162828
-0.00119839
-0.000847876
-0.000550278
-0.000334419
-0.000176955
-6.48066e-05
1.60275e-05
7.31811e-05
0.000111324
0.000134281
0.000145457
)
;

boundaryField
{
    inlet
    {
        type            calculated;
        value           nonuniform 0();
    }
    outlet
    {
        type            calculated;
        value           nonuniform 0();
    }
    cylinder
    {
        type            calculated;
        value           nonuniform 0();
    }
    top
    {
        type            symmetryPlane;
        value           uniform 0;
    }
    bottom
    {
        type            symmetryPlane;
        value           nonuniform 0();
    }
    defaultFaces
    {
        type            empty;
        value           nonuniform 0();
    }
    procBoundary31to30
    {
        type            processor;
        value           nonuniform List<scalar> 
88
(
0.000973622
0.000939699
0.000231875
0.000975649
0.000864946
0.00072603
0.000565223
0.000389474
0.000206128
0.000537889
-1.42251e-05
-0.000214725
-0.000399386
0.00028654
-0.000684533
-0.000846188
-0.000103854
-0.00117689
-0.00133843
-0.000719594
-0.00179536
-0.00202398
-0.00165313
-0.00266261
-0.00241702
-0.00334689
-0.00325241
-0.00325243
-0.00334689
-0.00241703
-0.00266261
-0.00165314
-0.00202399
-0.00179536
-0.000719606
-0.00133844
-0.00117689
-0.000103864
-0.000846189
-0.000684534
0.00028653
-0.000399388
-0.000214726
-1.42269e-05
0.000537879
0.000206126
0.000389472
0.000565221
0.000726028
0.000864944
0.000333967
0.000873548
0.000939699
0.000973622
-0.0264269
-0.0259432
-0.0251994
-0.0244749
-0.0238718
-0.0234055
-0.0230229
-0.0227046
-0.0224351
-0.0222055
-0.0220105
-0.0218454
-0.0217061
-0.0215891
-0.0214918
-0.0214119
-0.0213477
-0.0212979
-0.0212613
-0.0212373
-0.0212253
-0.0264269
-0.0259432
-0.0251994
-0.0244749
-0.0238718
-0.0234055
-0.0230229
-0.0227047
-0.0224351
-0.0222055
-0.0220105
-0.0218454
-0.0217061
)
;
    }
    procBoundary31to32
    {
        type            processor;
        value           nonuniform List<scalar> 
81
(
-0.00159935
-0.00152761
-0.00138946
-0.00119439
-0.00095436
-0.000681986
-0.000389515
-0.00043156
-2.27536e-05
0.000308435
0.000623913
-2.04049e-05
0.00109884
0.00139229
0.00057697
0.00195199
0.00225669
0.00256932
0.00289317
0.00321653
0.0035151
0.00376033
0.00376034
0.0035151
0.00321653
0.00289317
0.00256932
0.0022567
0.000576981
0.00195199
0.00139229
0.00109884
-2.0394e-05
0.000623916
0.000308437
-2.2751e-05
-0.000431549
-0.000389512
-0.000681984
-0.000954357
-0.00119439
-0.00138945
-0.00152761
-0.00159935
0.0019699
0.0260853
0.0255133
0.0248489
0.0241773
0.023656
0.023248
0.0229107
0.0226238
0.0223779
0.0221674
0.0219875
0.0218342
0.0217042
0.0215945
0.021503
0.0214276
0.0213669
0.0213197
0.021285
0.0212622
0.0212508
0.0260853
0.00196995
0.0255133
0.0248489
0.0241773
0.023656
0.0232481
0.0229107
0.0226238
0.0223779
0.0221674
0.0219875
0.0218343
0.000147347
0.0217042
)
;
    }
}


// ************************************************************************* //
