/*--------------------------------*- C++ -*----------------------------------*\
  =========                 |
  \\      /  F ield         | OpenFOAM: The Open Source CFD Toolbox
   \\    /   O peration     | Website:  https://openfoam.org
    \\  /    A nd           | Version:  7
     \\/     M anipulation  |
\*---------------------------------------------------------------------------*/
FoamFile
{
    version     2.0;
    format      ascii;
    class       volScalarField;
    location    "45";
    object      p;
}
// * * * * * * * * * * * * * * * * * * * * * * * * * * * * * * * * * * * * * //

dimensions      [0 2 -2 0 0 0 0];

internalField   nonuniform List<scalar> 
36
(
-0.421226
-0.447181
-0.414138
-0.433616
-0.405246
-0.420486
-0.390928
-0.366646
-0.288118
-0.250008
-0.162095
-0.162095
-0.288118
-0.250008
-0.366646
-0.420486
-0.390928
-0.433616
-0.447181
-0.421226
-0.125458
-0.0933423
-0.0691417
-0.0507533
-0.0366425
-0.0258557
-0.0175553
-0.125458
-0.0933423
-0.0691417
-0.0507533
-0.0366424
-0.0258557
-0.0175553
-0.0112173
-0.00648814
)
;

boundaryField
{
    inlet
    {
        type            zeroGradient;
    }
    outlet
    {
        type            fixedValue;
        value           nonuniform 0();
    }
    cylinder
    {
        type            zeroGradient;
    }
    top
    {
        type            symmetryPlane;
    }
    bottom
    {
        type            symmetryPlane;
    }
    defaultFaces
    {
        type            empty;
    }
    procBoundary27to25
    {
        type            processor;
        value           nonuniform List<scalar> 
18
(
-0.138338
-0.138338
-0.104748
-0.0758249
-0.0539805
-0.0376173
-0.0250855
-0.0155061
-0.00814682
-0.104748
-0.0758249
-0.0539805
-0.0376173
-0.0250855
-0.0155061
-0.0081468
-0.00253583
0.00164615
)
;
    }
    procBoundary27to26
    {
        type            processor;
        value           nonuniform List<scalar> 
26
(
-0.473498
-0.473498
-0.452781
-0.452781
-0.434425
-0.400906
-0.400906
-0.368004
-0.327843
-0.27339
-0.232186
-0.195127
-0.27339
-0.232186
-0.195127
-0.368004
-0.327843
-0.434425
-0.400906
-0.400906
-0.452781
-0.452781
-0.473498
-0.473498
-0.0112173
-0.00310979
)
;
    }
    procBoundary27to28
    {
        type            processor;
        value           nonuniform List<scalar> 
30
(
-0.396399
-0.395107
-0.395107
-0.389806
-0.389806
-0.379293
-0.379293
-0.361233
-0.361233
-0.331892
-0.296978
-0.214704
-0.182504
-0.182504
-0.296978
-0.214704
-0.331892
-0.361233
-0.405246
-0.361233
-0.379293
-0.405246
-0.414138
-0.414138
-0.395107
-0.396399
-0.0356241
-0.0264375
-0.0194183
-0.0141807
)
;
    }
    procBoundary27to29
    {
        type            processor;
        value           nonuniform List<scalar> 
14
(
-0.262599
-0.262599
-0.143509
-0.109552
-0.0835184
-0.0631322
-0.0475289
-0.143509
-0.109552
-0.0835184
-0.0631322
-0.0475289
-0.0356241
-0.0264375
)
;
    }
}


// ************************************************************************* //
