/*--------------------------------*- C++ -*----------------------------------*\
  =========                 |
  \\      /  F ield         | OpenFOAM: The Open Source CFD Toolbox
   \\    /   O peration     | Website:  https://openfoam.org
    \\  /    A nd           | Version:  7
     \\/     M anipulation  |
\*---------------------------------------------------------------------------*/
FoamFile
{
    version     2.0;
    format      ascii;
    class       surfaceScalarField;
    location    "75";
    object      phi;
}
// * * * * * * * * * * * * * * * * * * * * * * * * * * * * * * * * * * * * * //

dimensions      [0 3 -1 0 0 0 0];

internalField   nonuniform List<scalar> 
278
(
0.00419099
-0.0129166
0.0128764
-0.000785563
0.0008091
0.00416879
-0.0129531
-0.000764743
0.00414413
-0.0129859
-0.000746909
0.00411709
-0.0130146
-0.000732289
0.00408775
-0.0130392
-0.000721068
0.00405623
-0.0130594
-0.000713382
0.00402265
-0.0130749
-0.000709318
0.00398717
-0.0130855
-0.000708916
0.00394995
-0.0130908
-0.000712161
0.00391118
-0.0130906
-0.000718992
0.00387103
-0.0130846
-0.000729299
0.00382973
-0.0130727
-0.000742927
0.00378748
-0.0130546
-0.00075968
0.00374451
-0.0130304
-0.000779322
0.00370107
-0.013
-0.000801568
0.00365738
-0.0129635
-0.000826106
0.00361371
-0.0129211
-0.000852586
0.00357032
-0.012873
-0.000880646
0.00352748
-0.0128197
-0.000909908
0.00348558
-0.0127616
0.0035156
-0.000939926
0.00279093
0.00344357
-0.0126878
0.00347512
-0.000971475
0.00273887
0.0170586
-0.0114096
0.0167899
-0.000702781
0.00271734
0.0164676
-0.0100314
0.0161367
-0.000371931
0.00272052
0.0159935
0.0156471
-2.55024e-05
0.00279788
0.0152828
0.000352841
0.00293885
0.0150934
0.000767505
0.00313945
0.015131
0.00123373
0.00337379
0.0155178
0.0017302
0.00357651
0.0163253
0.00214818
0.003638
0.017446
0.00238243
0.00347164
0.018623
0.00238941
0.00308846
0.0196073
0.00220512
0.00259007
0.0202841
0.00191397
0.00209166
0.0206754
0.00159589
0.00166156
0.0208699
0.0012978
0.00131527
0.0209546
0.00103597
0.00103931
0.0209868
0.000810148
0.000813334
0.0209965
0.000614277
0.000620573
0.0209972
0.000441483
0.000449528
0.0209951
0.000285371
0.000292543
0.0209929
0.00014002
0.000144159
0.0209916
0.00982801
0.0203307
-0.0110776
0.0083715
0.0201418
0.00677825
0.0199598
0.00510291
0.0198244
0.00341557
0.0198086
0.00185376
0.0199899
0.000599853
0.0203848
-0.00021091
0.0208907
-0.00057727
0.0213353
-0.000624045
0.0215934
-0.000512448
0.0216595
-0.000360322
0.0216032
-0.000225737
0.0214954
-0.000126633
0.0213797
-6.15563e-05
0.021275
-2.2573e-05
0.021187
-1.58268e-06
0.0211168
7.51915e-06
0.0210635
8.95369e-06
0.0210255
5.70929e-06
0.0210012
0.0209892
0.00088836
0.020589
-0.00114664
0.000493119
0.020537
-3.55751e-05
0.0204885
-0.000671727
0.0204605
-0.00136242
0.0204993
-0.00198285
0.0206103
-0.00239197
0.0207939
-0.00249413
0.0209928
-0.00230403
0.0211452
-0.00193065
-0.0015045
-0.00111516
-0.000799539
-0.000559016
-0.000381431
-0.000253105
-0.000162334
-9.93868e-05
-5.60246e-05
-2.51149e-05
-0.00160677
0.00158555
-0.00161041
-0.00165361
-0.00174014
-0.00186671
-0.00199872
-0.00208237
-0.00207747
0.00412872
-0.0112221
0.00415505
-0.00117297
0.00414745
-0.0113572
-0.00119379
0.00416696
-0.0114848
-0.00120712
0.00418533
-0.0116054
-0.00121346
0.0042024
-0.0117192
-0.00121334
0.00421803
-0.0118267
-0.00120735
0.00423209
-0.0119282
-0.00119607
0.00424446
-0.0120241
-0.00118011
0.00425504
-0.0121147
-0.00116009
0.00426374
-0.0122003
-0.00113661
0.00427043
-0.0122812
-0.00111027
0.00427505
-0.0123576
-0.00108165
0.00427749
-0.0124299
-0.00105133
0.00427767
-0.0124983
-0.00101985
0.00427552
-0.0125628
-0.000987756
0.00427097
-0.0126237
-0.000955558
0.00426397
-0.0126811
-0.000923738
0.00425446
-0.0127351
-0.000892759
0.00424242
-0.0127856
-0.00086306
0.00422783
-0.0128327
-0.000835047
0.00421068
)
;

boundaryField
{
    inlet
    {
        type            calculated;
        value           nonuniform 0();
    }
    outlet
    {
        type            calculated;
        value           nonuniform 0();
    }
    cylinder
    {
        type            calculated;
        value           nonuniform 0();
    }
    top
    {
        type            symmetryPlane;
        value           uniform 0;
    }
    bottom
    {
        type            symmetryPlane;
        value           uniform 0;
    }
    defaultFaces
    {
        type            empty;
        value           nonuniform 0();
    }
    procBoundary46to45
    {
        type            processor;
        value           nonuniform List<scalar> 
85
(
-0.00415082
-0.00413226
-0.00411138
-0.00408831
-0.00406315
-0.00403604
-0.00400715
-0.00397663
-0.00394465
-0.00391138
-0.003877
-0.00384166
-0.00380553
-0.00376876
-0.00373149
-0.00369388
-0.0036561
-0.00361835
-0.00358085
-0.00354367
-0.00351736
-0.0183368
-0.0178457
-0.0174815
-0.00854342
-0.0156611
-0.015508
-0.0155972
-0.0160143
-0.0167433
-0.0176802
-0.01863
-0.019423
-0.0199929
-0.0203573
-0.0205718
-0.0206928
-0.020761
-0.0208006
-0.0208244
-0.020839
-0.0208475
-0.0208516
-0.0190812
-0.0186853
-0.0183666
-0.0181491
-0.0181212
-0.0184281
-0.0191309
-0.0200799
-0.020969
-0.0215467
-0.0217711
-0.0217553
-0.02163
-0.0214788
-0.02134
-0.021226
-0.0211378
-0.0210726
-0.021027
-0.0209979
-0.0209835
-0.00398414
-0.00401236
-0.00403935
-0.00406481
-0.00408858
-0.00411054
-0.00413057
-0.00414858
-0.00416446
-0.00417814
-0.00418953
-0.00419857
-0.00420519
-0.00420934
-0.00421097
-0.00421005
-0.00420657
-0.00420051
-0.00419188
-0.0041807
-0.00416699
)
;
    }
    procBoundary46to47
    {
        type            processor;
        value           nonuniform List<scalar> 
87
(
0.00416745
0.00414797
0.00412629
0.00410247
0.00407653
0.00404854
0.00401859
0.00398677
0.0039532
0.00391801
0.00388134
0.00384336
0.00380424
0.00376416
0.00372331
0.00368192
0.00364019
0.00359838
0.00355674
-0.00283861
0.00356328
0.00352719
0.0168114
0.0161335
0.0155697
0.0151418
0.0148928
0.0148967
0.0153151
0.0162638
0.0176123
0.0190062
0.0201056
0.0207825
0.0211055
0.0212162
0.0212306
0.0212128
0.0211892
0.0211683
0.0211521
0.0211412
0.0211357
0.0212201
0.0212334
0.0212138
0.0211798
0.0211392
0.0210974
0.0210587
0.021026
0.0210006
0.0209822
0.0209703
0.0209641
0.0206102
0.0205407
0.0205317
0.0205471
0.0206258
0.0207424
0.0208775
0.0209879
-0.00196981
0.0210376
0.00412893
0.00161167
0.00416827
0.00418029
0.00419167
0.00420229
0.00421203
0.00422081
0.00422851
0.00423502
0.00424026
0.00424409
0.00424643
0.00424716
0.00424619
0.00424342
0.00423877
0.00423215
0.00422348
0.00421272
0.00419982
0.00418473
)
;
    }
}


// ************************************************************************* //
