/*--------------------------------*- C++ -*----------------------------------*\
  =========                 |
  \\      /  F ield         | OpenFOAM: The Open Source CFD Toolbox
   \\    /   O peration     | Website:  https://openfoam.org
    \\  /    A nd           | Version:  7
     \\/     M anipulation  |
\*---------------------------------------------------------------------------*/
FoamFile
{
    version     2.0;
    format      ascii;
    class       surfaceScalarField;
    location    "10";
    object      phi;
}
// * * * * * * * * * * * * * * * * * * * * * * * * * * * * * * * * * * * * * //

dimensions      [0 3 -1 0 0 0 0];

internalField   nonuniform List<scalar> 
1664
(
-0.00164182
-0.00129343
-0.00155581
-0.00132057
-0.00146884
-0.001346
-0.00128192
-0.00134116
-0.001381
-0.00136976
-0.00130325
-0.00125523
-0.00129236
-0.00139189
-0.00123638
-0.00113459
-0.00132305
-0.00116856
-0.00120299
-0.00141242
-0.00125399
-0.0010499
-0.00134135
-0.00108121
-0.00111294
-0.00143139
-0.00127019
-0.000964576
-0.00135816
-0.000993239
-0.00102229
-0.00144882
-0.00119909
-0.000852913
-0.00128499
-0.000878678
-0.00137352
-0.000904703
-0.000931087
-0.00146473
-0.00121198
-0.000769102
-0.00129839
-0.000792262
-0.00138744
-0.000815659
-0.000839383
-0.00147914
-0.00122355
-0.000684819
-0.00131043
-0.000705383
-0.00139992
-0.000726161
-0.000747233
-0.00149207
-0.00123381
-0.000600119
-0.0013211
-0.000618096
-0.001411
-0.000636262
-0.000654687
-0.00150354
-0.00124277
-0.000515057
-0.00133041
-0.000530453
-0.00142066
-0.000546013
-0.000561798
-0.00151355
-0.00116507
-0.000416938
-0.00125044
-0.000429684
-0.00133839
-0.000442506
-0.00142893
-0.000455466
-0.000468614
-0.00152212
-0.00117119
-0.000333864
-0.00125682
-0.000344055
-0.00134502
-0.000354307
-0.00143582
-0.00036467
-0.000375184
-0.00152925
-0.00117609
-0.00025058
-0.00126192
-0.00025822
-0.00135032
-0.000265906
-0.00144132
-0.000273676
-0.000281559
-0.00153494
-0.00117976
-0.000167141
-0.00126574
-0.000172232
-0.0013543
-0.000177355
-0.00144544
-0.000182533
-0.000187788
-0.00153921
-0.0011822
-8.35963e-05
-0.00126829
-8.61416e-05
-0.00135694
-8.87024e-05
-0.00144818
-9.12911e-05
-9.39183e-05
-0.00154205
-0.00118342
6.32259e-11
-0.00126956
6.1939e-11
-0.00135827
6.02695e-11
-0.00144956
5.8222e-11
5.57919e-11
-0.00154348
-0.00118342
8.35964e-05
-0.00126956
8.61417e-05
-0.00135827
8.87025e-05
-0.00144956
9.12913e-05
9.39184e-05
-0.00154348
-0.0011822
0.000167141
-0.00126829
0.000172232
-0.00135694
0.000177355
-0.00144818
0.000182533
0.000187788
-0.00154205
-0.00117976
0.000250581
-0.00126574
0.00025822
-0.0013543
0.000265906
-0.00144544
0.000273676
0.00028156
-0.00153921
-0.00117609
0.000333864
-0.00126192
0.000344055
-0.00135032
0.000354307
-0.00144132
0.00036467
0.000375185
-0.00153494
-0.00117119
0.000416938
-0.00125682
0.000429685
-0.00134502
0.000442507
-0.00143582
0.000455466
0.000468614
-0.00152925
-0.00116507
-0.00125044
0.000515057
-0.00133839
0.000530453
-0.00142893
0.000546013
0.000561798
-0.00152212
-0.00124277
0.000600119
-0.00133041
0.000618096
-0.00142066
0.000636262
0.000654688
-0.00151355
-0.00123381
0.000684819
-0.0013211
0.000705384
-0.001411
0.000726162
0.000747233
-0.00150354
-0.00122355
0.000769102
-0.00131043
0.000792262
-0.00139992
0.000815659
0.000839383
-0.00149207
-0.00121198
0.000852913
-0.00129839
0.000878678
-0.00138744
0.000904703
0.000931087
-0.00147914
-0.00119909
-0.00128499
0.000964576
-0.00137352
0.00099324
0.00102229
-0.00146473
-0.00127019
0.0010499
-0.00135816
0.00108121
0.00111294
-0.00144882
-0.00125399
0.00113459
-0.00134135
0.00116856
0.00120299
-0.00143139
-0.00123638
-0.00132305
0.00125523
0.00129236
-0.00141242
-0.00130325
0.00134116
0.001381
-0.00139189
-0.00128192
0.00146884
-0.00136976
0.00155581
-0.001346
-0.00132057
0.00686969
-0.00580095
0.00658968
-0.00582147
0.00631872
-0.0058397
0.00605689
-0.00585587
0.00580415
-0.00587018
0.00556038
-0.0058828
0.00532538
-0.00589389
0.00509889
-0.00590358
0.00488059
-0.00591201
0.00467017
-0.00591927
0.00446726
-0.00592549
0.00427152
-0.00593074
0.00408258
-0.00593513
0.00390008
-0.00593873
0.00372368
-0.00594163
0.00355304
-0.00594389
0.00338783
-0.0059456
0.00322774
-0.0059468
0.00307247
-0.00594756
0.00292174
-0.00594793
0.00277526
-0.00594796
0.00263279
-0.0059477
0.00249406
-0.0059472
0.00235885
-0.00594648
0.00222693
-0.0059456
0.00209808
-0.00594458
0.00197209
-0.00594344
0.00184877
-0.00594223
0.00172793
-0.00594096
0.00160939
-0.00593967
0.00149297
-0.00593836
0.0013785
-0.00593706
0.00126583
-0.00593578
0.00115479
-0.00593455
0.00104524
-0.00593338
0.000937017
-0.00593227
0.000829986
-0.00593125
0.000724004
-0.00593031
0.000618934
-0.00592948
0.00051464
-0.00592875
0.00041099
-0.00592813
0.000307852
-0.00592763
0.000205098
-0.00592725
0.000102604
-0.005927
-0.00592664
0.00667444
-0.00502894
-0.00664592
0.00668151
-0.00509024
0.00666676
-0.00514903
0.00662673
-0.00520387
0.00656189
-0.0052552
0.00647455
-0.00530318
0.00636777
-0.00534804
0.00624488
-0.00538999
0.00610917
-0.00542927
0.00596368
-0.00546606
0.00581115
-0.00550048
0.0056539
-0.00553267
0.00549387
-0.0055627
0.00533262
-0.00559066
0.00517136
-0.0056166
0.00501102
-0.0056406
0.00485227
-0.00566271
0.00469558
-0.00568302
0.0045413
-0.00570158
0.00438961
-0.00571849
0.00424064
-0.00573383
0.00409444
-0.00574769
0.00395102
-0.00576017
0.00381036
-0.00577135
0.00367242
-0.00578134
0.00353716
-0.00579022
0.0034045
-0.00579808
0.00327438
-0.00580501
0.00314674
-0.00581109
0.0030215
-0.00581639
0.00289859
-0.00582099
0.00277793
-0.00582494
0.00265946
-0.00582833
0.0025431
-0.00583119
0.00242877
-0.0058336
0.0023164
-0.00583558
0.0022059
-0.0058372
0.00209719
-0.0058385
0.00199021
-0.0058395
0.00188486
-0.00584025
0.00178108
-0.00584079
0.00167877
-0.00584113
0.00157785
-0.00584132
0.00147826
-0.00584137
0.0013799
-0.00584131
0.00128271
-0.00584116
0.00118659
-0.00584094
0.00109147
-0.00584066
0.000997265
-0.00584035
0.000903906
-0.00584002
0.00081131
-0.00583968
0.000719401
-0.00583934
0.0006281
-0.00583901
0.00053733
-0.00583871
0.000447014
-0.00583843
0.000357076
-0.00583819
0.000267439
-0.00583799
0.000178027
-0.00583784
8.87592e-05
-0.00583773
-0.00583788
0.00461268
-0.00512889
-0.00451273
0.00468431
-0.00516187
0.00472994
-0.00519466
0.00475379
-0.00522772
0.00475941
-0.00526082
0.00474986
-0.00529364
0.00472767
-0.00532584
0.00469482
-0.00535715
0.0046529
-0.00538734
0.00460308
-0.00541624
0.0045463
-0.0054437
0.00448328
-0.00546965
0.0044146
-0.00549403
0.00434076
-0.00551682
0.00426222
-0.00553806
0.00417938
-0.00555777
0.00409268
-0.00557601
0.00400251
-0.00559285
0.00390929
-0.00560836
0.00381342
-0.00562262
0.0037153
-0.00563571
0.00361531
-0.0056477
0.00351381
-0.00565867
0.00341114
-0.00566869
0.00330763
-0.00567782
0.00320355
-0.00568614
0.00309916
-0.00569369
0.00299469
-0.00570054
0.00289034
-0.00570674
0.00278628
-0.00571233
0.00268266
-0.00571736
0.0025796
-0.00572188
0.00247719
-0.00572592
0.00237552
-0.00572953
0.00227465
-0.00573273
0.00217463
-0.00573556
0.00207549
-0.00573806
0.00197725
-0.00574026
0.00187993
-0.00574217
0.00178351
-0.00574384
0.001688
-0.00574528
0.00159339
-0.00574652
0.00149964
-0.00574757
0.00140673
-0.00574846
0.00131464
-0.00574922
0.00122332
-0.00574984
0.00113274
-0.00575036
0.00104285
-0.00575078
0.000953618
-0.00575112
0.000864986
-0.00575139
0.000776907
-0.0057516
0.000689331
-0.00575176
0.000602206
-0.00575189
0.000515478
-0.00575198
0.000429092
-0.00575205
0.000342995
-0.00575209
0.000257128
-0.00575213
0.000171435
-0.00575215
8.58629e-05
-0.00575216
-0.00575202
0.00297006
-0.00523411
-0.00286484
0.00306186
-0.00525367
0.00314143
-0.00527423
0.00320878
-0.00529507
0.00326387
-0.00531591
0.00330677
-0.00533653
0.00333768
-0.00535675
0.00335697
-0.00537644
0.00336514
-0.00539552
0.00336284
-0.00541393
0.00335077
-0.00543164
0.00332973
-0.00544861
0.00330056
-0.00546485
0.00326409
-0.00548035
0.00322114
-0.00549511
0.0031725
-0.00550913
0.00311893
-0.00552243
0.0030611
-0.00553502
0.00299963
-0.0055469
0.0029351
-0.00555808
0.00286799
-0.00556859
0.00279873
-0.00557844
0.00272771
-0.00558765
0.00265526
-0.00559623
0.00258165
-0.00560421
0.00250712
-0.00561161
0.00243189
-0.00561846
0.00235612
-0.00562478
0.00227997
-0.00563059
0.00220357
-0.00563593
0.00212702
-0.00564081
0.00205041
-0.00564528
0.00197384
-0.00564934
0.00189735
-0.00565304
0.00182101
-0.00565639
0.00174486
-0.00565942
0.00166895
-0.00566215
0.00159329
-0.0056646
0.00151792
-0.00566681
0.00144286
-0.00566878
0.00136811
-0.00567053
0.00129369
-0.00567209
0.00121959
-0.00567348
0.00114583
-0.0056747
0.00107239
-0.00567577
0.000999264
-0.00567672
0.000926449
-0.00567754
0.000853929
-0.00567826
0.000781691
-0.00567888
0.000709716
-0.00567941
0.000637987
-0.00567987
0.000566483
-0.00568026
0.000495182
-0.00568059
0.000424062
-0.00568086
0.000353098
-0.00568108
0.000282266
-0.00568126
0.00021154
-0.0056814
0.000140894
-0.0056815
7.02992e-05
-0.00568156
-0.00568172
0.00202503
-0.00194189
0.00209968
0.00216521
0.00222183
0.0022699
0.00230986
0.00234217
0.00236734
0.00238586
0.00239818
0.00240473
0.00240592
0.00240208
0.00239356
0.00238064
0.00236358
0.00234263
0.00231802
0.00228997
0.0022587
0.00222439
0.00218726
0.0021475
0.0021053
0.00206085
0.00201433
0.00196592
0.00191579
0.0018641
0.00181102
0.00175668
0.00170122
0.00164477
0.00158745
0.00152937
0.00147064
0.00141133
0.00135154
0.00129134
0.0012308
0.00116997
0.00110891
0.00104766
0.000986265
0.000924761
0.000863176
0.000801535
0.000739857
0.000678161
0.000616459
0.000554762
0.000493076
0.000431407
0.000369757
0.000308128
0.000246517
0.000184924
0.000123343
6.1774e-05
-0.00127642
-0.0115365
-0.00155032
-0.00637202
-0.00173825
-0.0043248
-0.00188949
-0.00271361
-0.00182879
-0.00132168
-0.0111444
-0.00158615
-0.00610754
-0.0017712
-0.00413976
-0.00191769
-0.00256711
-0.00172026
-0.00136707
-0.0107462
-0.00162231
-0.00585231
-0.00180418
-0.00395788
-0.00194554
-0.00242576
-0.00161629
-0.00141037
-0.0103465
-0.00165758
-0.0056051
-0.0018364
-0.00377906
-0.00197267
-0.00228949
-0.00151679
-0.00145129
-0.00994737
-0.00169175
-0.00536464
-0.00186769
-0.00360312
-0.00199901
-0.00215817
-0.00142161
-0.00149009
-0.00954944
-0.00172491
-0.00512982
-0.00189807
-0.00342996
-0.00202454
-0.00203171
-0.0013306
-0.00152699
-0.00915289
-0.0017571
-0.00489971
-0.00192752
-0.00325953
-0.00204926
-0.00190997
-0.00124363
-0.0015621
-0.00875762
-0.00178829
-0.00467352
-0.00195599
-0.00309183
-0.00207313
-0.00179283
-0.00116057
-0.00159549
-0.0083634
-0.00181845
-0.00445057
-0.00198345
-0.00292683
-0.00209613
-0.00168015
-0.00108126
-0.00162725
-0.00796999
-0.00184756
-0.00423026
-0.00200985
-0.00276455
-0.00211824
-0.00157176
-0.00100556
-0.00165744
-0.00757708
-0.00187558
-0.00401212
-0.00203516
-0.00260497
-0.00213943
-0.00146749
-0.000933319
-0.0016861
-0.00718441
-0.00190249
-0.00379574
-0.00205936
-0.00244809
-0.00215969
-0.00136717
-0.000864376
-0.00171327
-0.00679172
-0.00192824
-0.00358077
-0.00208242
-0.0022939
-0.002179
-0.00127059
-0.000798577
-0.00173896
-0.00639876
-0.00195279
-0.00336693
-0.00210431
-0.00214238
-0.00219733
-0.00117757
-0.000735764
-0.00176319
-0.00600533
-0.00197612
-0.003154
-0.00212501
-0.0019935
-0.00221468
-0.0010879
-0.000675778
-0.00178597
-0.00561124
-0.00199818
-0.00294178
-0.00214449
-0.00184719
-0.00223103
-0.00100137
-0.0018073
-0.00521636
-0.00201895
-0.00273014
-0.00216275
-0.00170339
-0.000917764
-0.00182718
-0.00482056
-0.00203837
-0.00251895
-0.00217975
-0.001562
-0.000836873
-0.0018456
-0.00442377
-0.00205643
-0.00230813
-0.0021955
-0.00142294
-0.000758478
-0.00186255
-0.00402595
-0.00207309
-0.00209759
-0.00220997
-0.00128606
-0.000682363
-0.00187802
-0.00362707
-0.00208832
-0.00188729
-0.00222315
-0.00115123
-0.000608312
-0.00189199
-0.00322715
-0.0021021
-0.00167718
-0.00223504
-0.0010183
-0.000536112
-0.00190446
-0.00282623
-0.00211441
-0.00146722
-0.00224562
-0.00088709
-0.00046555
-0.0019154
-0.00242439
-0.00212523
-0.0012574
-0.0022549
-0.000757417
-0.000396414
-0.00192481
-0.0020217
-0.00213453
-0.00104767
-0.00226286
-0.000629084
-0.000328496
-0.00193266
-0.00161828
-0.0021423
-0.00083804
-0.0022695
-0.000501884
-0.000261589
-0.00193897
-0.00121426
-0.00214853
-0.000628472
-0.00227482
-0.000375602
-0.000195489
-0.0019437
-0.000809769
-0.00215322
-0.000418954
-0.00227881
-0.000250013
-0.000129992
-0.00194686
-0.000404964
-0.00215634
-0.000209469
-0.00228147
-0.00012489
-6.48957e-05
-0.00194844
3.05312e-10
-0.00215791
-1.92947e-10
-0.0022828
-2.15835e-10
-3.60807e-10
-0.00194844
0.000404965
-0.00215791
0.000209468
-0.0022828
0.000124889
6.4895e-05
-0.00194686
0.000809769
-0.00215634
0.000418953
-0.00228147
0.000250012
0.000129991
-0.0019437
0.00121426
-0.00215322
0.000628471
-0.00227881
0.000375601
0.000195488
-0.00193897
0.00161828
-0.00214853
0.000838039
-0.00227482
0.000501884
0.000261588
-0.00193266
0.0020217
-0.0021423
0.00104767
-0.0022695
0.000629084
0.000328495
-0.00192481
0.00242439
-0.00213453
0.0012574
-0.00226286
0.000757416
0.000396413
-0.0019154
0.00282623
-0.00212523
0.00146722
-0.0022549
0.00088709
0.000465549
-0.00190446
0.00322715
-0.00211441
0.00167718
-0.00224562
0.0010183
0.000536112
-0.00189199
0.00362707
-0.0021021
0.00188729
-0.00223504
0.00115123
0.000608312
-0.00187802
0.00402595
-0.00208832
0.00209759
-0.00222315
0.00128606
0.000682362
-0.00186255
0.00442377
-0.00207309
0.00230813
-0.00220997
0.00142294
0.000758477
-0.0018456
0.00482056
-0.00205643
0.00251895
-0.0021955
0.001562
0.000836872
-0.00182718
0.00521636
-0.00203837
0.00273014
-0.00217975
0.00170339
0.000917764
-0.0018073
0.00561124
-0.00201895
0.00294178
-0.00216275
0.00184719
0.00100137
-0.00178597
0.00600533
-0.00199818
0.003154
-0.00214449
0.0019935
-0.00223103
0.0010879
0.000675777
-0.00176319
0.00639876
-0.00197612
0.00336693
-0.00212501
0.00214238
-0.00221468
0.00117757
0.000735763
-0.00173896
0.00679172
-0.00195279
0.00358076
-0.00210431
0.0022939
-0.00219733
0.00127059
0.000798576
-0.00171327
0.00718441
-0.00192824
0.00379574
-0.00208242
0.00244809
-0.002179
0.00136717
0.000864375
-0.0016861
0.00757708
-0.00190249
0.00401212
-0.00205936
0.00260497
-0.00215969
0.00146749
0.000933319
-0.00165744
0.00796999
-0.00187558
0.00423026
-0.00203516
0.00276455
-0.00213943
0.00157176
0.00100556
-0.00162725
0.00836341
-0.00184756
0.00445056
-0.00200985
0.00292683
-0.00211824
0.00168015
0.00108126
-0.00159549
0.00875762
-0.00181845
0.00467352
-0.00198345
0.00309183
-0.00209613
0.00179283
0.00116057
-0.0015621
0.00915289
-0.00178829
0.00489971
-0.00195599
0.00325953
-0.00207313
0.00190997
0.00124363
-0.00152699
0.00954944
-0.0017571
0.00512982
-0.00192752
0.00342996
-0.00204926
0.00203171
0.0013306
-0.00149009
0.00994737
-0.00172491
0.00536464
-0.00189807
0.00360312
-0.00202454
0.00215817
0.0014216
-0.00145129
0.0103465
-0.00169175
0.0056051
-0.00186769
0.00377906
-0.00199901
0.00228949
0.00151679
-0.00141037
0.0107462
-0.00165758
0.00585231
-0.0018364
0.00395788
-0.00197267
0.00242576
0.00161629
-0.00136707
0.0111444
-0.00162231
0.00610754
-0.00180418
0.00413976
-0.00194554
0.00256711
0.00172026
-0.00132168
0.0115365
-0.00158615
0.00637202
-0.0017712
0.0043248
-0.00191769
0.00271361
0.00182879
-0.00127642
-0.00155032
0.00664592
-0.00173825
0.00451273
-0.00188949
0.00286484
0.00194189
-0.00502894
0.00667444
-0.00512889
0.00461268
-0.00523411
0.00297006
0.00202503
-0.00509024
0.00668151
-0.00516187
0.0046843
-0.00525367
0.00306186
0.00209968
-0.00514903
0.00666676
-0.00519466
0.00472994
-0.00527423
0.00314143
0.0021652
-0.00520387
0.00662673
-0.00522772
0.00475379
-0.00529507
0.00320878
0.00222183
-0.0052552
0.00656189
-0.00526082
0.00475941
-0.00531591
0.00326387
0.0022699
-0.00530318
0.00647455
-0.00529364
0.00474986
-0.00533653
0.00330676
0.00230986
-0.00534804
0.00636777
-0.00532584
0.00472766
-0.00535675
0.00333768
0.00234217
-0.00538999
0.00624488
-0.00535715
0.00469482
-0.00537644
0.00335697
0.00236734
-0.00542927
0.00610917
-0.00538734
0.00465289
-0.00539552
0.00336514
0.00238586
-0.00546606
0.00596368
-0.00541624
0.00460308
-0.00541393
0.00336284
0.00239818
-0.00550048
0.00581115
-0.0054437
0.0045463
-0.00543164
0.00335077
0.00240473
-0.00553267
0.0056539
-0.00546965
0.00448328
-0.00544861
0.00332973
0.00240591
-0.0055627
0.00549387
-0.00549403
0.0044146
-0.00546485
0.00330056
0.00240208
-0.00559066
0.00533262
-0.00551682
0.00434076
-0.00548035
0.00326409
0.00239356
-0.0056166
0.00517136
-0.00553806
0.00426222
-0.00549511
0.00322114
0.00238064
-0.0056406
0.00501102
-0.00555777
0.00417938
-0.00550913
0.0031725
0.00236358
-0.00566271
0.00485227
-0.00557601
0.00409268
-0.00552243
0.00311893
0.00234263
-0.00568302
0.00469558
-0.00559285
0.00400251
-0.00553502
0.0030611
0.00231802
-0.00570158
0.0045413
-0.00560836
0.00390929
-0.0055469
0.00299963
0.00228997
-0.00571849
0.00438961
-0.00562262
0.00381342
-0.00555808
0.0029351
0.0022587
-0.00573383
0.00424064
-0.00563571
0.0037153
-0.00556859
0.00286799
0.00222439
-0.00574769
0.00409444
-0.0056477
0.00361531
-0.00557844
0.00279873
0.00218726
-0.00576017
0.00395102
-0.00565867
0.00351381
-0.00558765
0.00272771
0.0021475
-0.00577135
0.00381036
-0.00566869
0.00341114
-0.00559623
0.00265526
0.0021053
-0.00578134
0.00367242
-0.00567782
0.00330763
-0.00560421
0.00258165
0.00206085
-0.00579022
0.00353716
-0.00568614
0.00320355
-0.00561161
0.00250712
0.00201433
-0.00579808
0.0034045
-0.00569369
0.00309916
-0.00561846
0.00243189
0.00196592
-0.00580501
0.00327438
-0.00570054
0.00299469
-0.00562478
0.00235612
0.00191579
-0.00581109
0.00314673
-0.00570674
0.00289034
-0.00563059
0.00227997
0.0018641
-0.00581639
0.00302149
-0.00571233
0.00278628
-0.00563593
0.00220357
0.00181102
-0.00582098
0.00289858
-0.00571736
0.00268266
-0.00564081
0.00212702
0.00175667
-0.00582494
0.00277793
-0.00572188
0.0025796
-0.00564528
0.00205041
0.00170122
-0.00582833
0.00265946
-0.00572592
0.00247719
-0.00564934
0.00197384
0.00164477
-0.00583119
0.0025431
-0.00572952
0.00237552
-0.00565304
0.00189735
0.00158745
-0.0058336
0.00242877
-0.00573273
0.00227465
-0.00565639
0.00182101
0.00152937
-0.00583558
0.00231639
-0.00573556
0.00217463
-0.00565942
0.00174486
0.00147064
-0.0058372
0.00220589
-0.00573806
0.00207549
-0.00566215
0.00166895
0.00141133
-0.0058385
0.00209719
-0.00574026
0.00197725
-0.0056646
0.00159329
0.00135154
-0.0058395
0.00199021
-0.00574217
0.00187993
-0.00566681
0.00151792
0.00129134
-0.00584025
0.00188486
-0.00574384
0.00178351
-0.00566878
0.00144286
0.0012308
-0.00584079
0.00178107
-0.00574528
0.001688
-0.00567053
0.00136811
0.00116997
-0.00584113
0.00167877
-0.00574652
0.00159339
-0.00567209
0.00129369
0.00110891
-0.00584132
0.00157785
-0.00574757
0.00149964
-0.00567348
0.00121959
0.00104766
-0.00584137
0.00147826
-0.00574846
0.00140673
-0.0056747
0.00114583
0.000986265
-0.00584131
0.0013799
-0.00574922
0.00131464
-0.00567577
0.00107239
0.000924761
-0.00584116
0.00128271
-0.00574984
0.00122332
-0.00567672
0.000999264
0.000863176
-0.00584094
0.00118659
-0.00575036
0.00113274
-0.00567754
0.000926449
0.000801534
-0.00584066
0.00109147
-0.00575078
0.00104285
-0.00567826
0.000853929
0.000739857
-0.00584035
0.000997264
-0.00575112
0.000953618
-0.00567888
0.00078169
0.000678161
-0.00584002
0.000903905
-0.00575139
0.000864985
-0.00567941
0.000709716
0.000616459
-0.00583968
0.00081131
-0.0057516
0.000776907
-0.00567987
0.000637987
0.000554762
-0.00583934
0.0007194
-0.00575176
0.000689331
-0.00568026
0.000566482
0.000493076
-0.00583901
0.000628099
-0.00575189
0.000602206
-0.00568059
0.000495182
0.000431407
-0.00583871
0.000537329
-0.00575198
0.000515478
-0.00568086
0.000424062
0.000369757
-0.00583843
0.000447014
-0.00575205
0.000429092
-0.00568108
0.000353098
0.000308128
-0.00583819
0.000357075
-0.00575209
0.000342994
-0.00568126
0.000282265
0.000246517
-0.00583799
0.000267438
-0.00575212
0.000257127
-0.0056814
0.000211539
0.000184924
-0.00583784
0.000178027
-0.00575215
0.000171434
-0.0056815
0.000140894
0.000123343
-0.00583773
8.87592e-05
-0.00575216
8.58629e-05
-0.00568156
7.02992e-05
6.1774e-05
-0.00583788
-0.00575202
-0.00568172
)
;

boundaryField
{
    inlet
    {
        type            calculated;
        value           nonuniform 0();
    }
    outlet
    {
        type            calculated;
        value           nonuniform 0();
    }
    cylinder
    {
        type            calculated;
        value           nonuniform 0();
    }
    top
    {
        type            symmetryPlane;
        value           uniform 0;
    }
    bottom
    {
        type            symmetryPlane;
        value           uniform 0;
    }
    defaultFaces
    {
        type            empty;
        value           nonuniform 0();
    }
    procBoundary1to0
    {
        type            processor;
        value           nonuniform List<scalar> 
182
(
-0.00531724
-0.00532833
-0.00533976
-0.00535169
-0.00536398
-0.00537649
-0.00538907
-0.00540161
-0.00541404
-0.00542625
-0.00543819
-0.0054498
-0.00546102
-0.00547183
-0.00548218
-0.00549207
-0.00550149
-0.00551041
-0.00551885
-0.00552681
-0.00553429
-0.00554131
-0.00554789
-0.00555403
-0.00555976
-0.00556509
-0.00557005
-0.00557465
-0.0055789
-0.00558284
-0.00558647
-0.00558982
-0.0055929
-0.00559572
-0.00559831
-0.00560068
-0.00560284
-0.00560481
-0.0056066
-0.00560823
-0.0056097
-0.00561103
-0.00561223
-0.00561331
-0.00561427
-0.00561513
-0.0056159
-0.00561658
-0.00561718
-0.00561771
-0.00561817
-0.00561857
-0.00561892
-0.00561921
-0.00561945
-0.00561965
-0.00561981
-0.00561992
-0.00562
-0.00561994
-0.00200259
-0.00202622
-0.0020495
-0.00207217
-0.00209419
-0.00211555
-0.00213622
-0.00215619
-0.00217544
-0.00219394
-0.00221168
-0.00222863
-0.0022448
-0.00226015
-0.00227467
-0.00228835
-0.000618455
-0.00224635
-0.00226064
-0.00227389
-0.00228608
-0.0022972
-0.00230724
-0.00231619
-0.00232403
-0.00233078
-0.00233641
-0.00234092
-0.0023443
-0.00234656
-0.00234769
-0.00234769
-0.00234656
-0.0023443
-0.00234092
-0.00233641
-0.00233078
-0.00232403
-0.00231619
-0.00230724
-0.0022972
-0.00228608
-0.00227389
-0.00226064
-0.00224635
-0.000618455
-0.00228835
-0.00227467
-0.00226015
-0.0022448
-0.00222863
-0.00221168
-0.00219394
-0.00217544
-0.00215619
-0.00213622
-0.00211555
-0.00209419
-0.00207217
-0.0020495
-0.00202622
-0.00200259
-0.00531724
-0.00532833
-0.00533976
-0.00535169
-0.00536398
-0.00537649
-0.00538907
-0.00540161
-0.00541404
-0.00542625
-0.00543819
-0.0054498
-0.00546102
-0.00547183
-0.00548218
-0.00549207
-0.00550149
-0.00551041
-0.00551885
-0.00552681
-0.00553429
-0.00554131
-0.00554789
-0.00555403
-0.00555976
-0.00556509
-0.00557005
-0.00557465
-0.0055789
-0.00558284
-0.00558647
-0.00558982
-0.0055929
-0.00559572
-0.00559831
-0.00560068
-0.00560284
-0.00560481
-0.0056066
-0.00560823
-0.0056097
-0.00561103
-0.00561223
-0.00561331
-0.00561427
-0.00561513
-0.0056159
-0.00561658
-0.00561718
-0.00561771
-0.00561817
-0.00561857
-0.00561892
-0.00561921
-0.00561945
-0.00561965
-0.00561981
-0.00561992
-0.00562
-0.00561994
)
;
    }
    procBoundary1to2
    {
        type            processor;
        value           nonuniform List<scalar> 
193
(
0.000899682
0.00092965
0.000968894
0.00101067
0.00105211
0.00109216
0.00113044
0.00116682
0.00120128
0.00123384
0.00172681
0.00126454
0.00120845
0.00123455
0.00125903
0.00142627
0.00119681
0.00121732
0.00121858
0.00115239
0.00116931
0.00118487
0.000936195
0.00111581
0.00112817
0.00113926
0.00114911
0.00115771
0.000499749
0.00108226
0.00108812
0.0010928
0.00109632
0.00109866
0.00109983
0.00109983
0.00109866
0.00109632
0.0010928
0.00108812
0.00108226
0.000499749
0.00115771
0.00114911
0.00113926
0.00112817
0.00111581
0.000936195
0.00118487
0.00116931
0.00115239
0.00121858
0.00121732
0.00119681
0.00142627
0.00125903
0.00123455
0.00164183
0.00129343
0.00126454
0.00123384
0.00120128
0.00116682
0.00113044
0.00109216
0.00105211
0.00101067
0.000968894
0.00092965
0.000899682
0.00608977
0.00610147
0.00611066
0.0061177
0.00612291
0.00612657
0.00612889
0.00613008
0.0061303
0.0061297
0.00612839
0.00612648
0.00612407
0.00612123
0.00611803
0.00611454
0.0061108
0.00610689
0.00610282
0.00609866
0.00609444
0.00609018
0.00608592
0.0060817
0.00607752
0.00607343
0.00606943
0.00606555
0.0060618
0.00605821
0.00605478
0.00605152
0.00604846
0.00604559
0.00604294
0.0060405
0.00603828
0.0060363
0.00603455
0.00603304
0.00603178
0.00603077
0.00603
0.00602949
0.00602924
0.00500042
0.0119132
0.00508318
0.00516378
0.0052439
0.00532004
0.00539053
0.00545481
0.00551288
0.00556499
0.00561154
0.00565302
0.00568992
0.00572273
0.00575191
-0.00715851
0.00577786
0.0119132
0.00500042
0.00508318
0.00516378
0.0052439
0.00532004
0.00539053
0.00545481
0.00551288
0.00556499
0.00561154
0.00565302
0.00568992
0.00572273
0.00575191
0.00577786
0.00580095
0.00582147
0.0058397
0.00585587
0.00587018
0.0058828
0.00589389
0.00590358
0.00591201
0.00591927
0.00592549
0.00593074
0.00593513
0.00593873
0.00594163
0.00594389
0.0059456
0.0059468
0.00594756
0.00594793
0.00594796
0.0059477
0.0059472
0.00594648
0.0059456
0.00594458
0.00594344
0.00594223
0.00594096
0.00593967
0.00593836
0.00593706
0.00593578
0.00593455
0.00593338
0.00593227
0.00593125
0.00593031
0.00592948
0.00592875
0.00592813
0.00592763
0.00592725
0.005927
0.00592664
)
;
    }
}


// ************************************************************************* //
