/*--------------------------------*- C++ -*----------------------------------*\
  =========                 |
  \\      /  F ield         | OpenFOAM: The Open Source CFD Toolbox
   \\    /   O peration     | Website:  https://openfoam.org
    \\  /    A nd           | Version:  7
     \\/     M anipulation  |
\*---------------------------------------------------------------------------*/
FoamFile
{
    version     2.0;
    format      ascii;
    class       volVectorField;
    location    "10";
    object      U;
}
// * * * * * * * * * * * * * * * * * * * * * * * * * * * * * * * * * * * * * //

dimensions      [0 1 -1 0 0 0 0];

internalField   nonuniform List<vector> 
928
(
(0.715378 0.319019 1.14722e-19)
(0.702218 0.305052 -1.89674e-19)
(0.689545 0.290577 6.02601e-20)
(0.660966 0.287541 -2.32871e-19)
(0.677406 0.275614 1.67104e-19)
(0.648915 0.271518 5.884e-20)
(0.66584 0.260182 -2.19165e-19)
(0.619232 0.265847 1.05348e-19)
(0.637498 0.255013 -7.67416e-20)
(0.654885 0.244303 1.2303e-19)
(0.60807 0.248214 -2.1518e-19)
(0.626752 0.23805 8.86947e-21)
(0.644576 0.228 4.61956e-20)
(0.597637 0.230121 3.30568e-20)
(0.616709 0.220658 1.81759e-19)
(0.634944 0.211298 2.87428e-20)
(0.567931 0.220309 5.04829e-20)
(0.587964 0.211598 -9.20155e-20)
(0.6074 0.202864 6.56253e-20)
(0.626018 0.194223 -9.78456e-21)
(0.558699 0.200644 -2.63557e-20)
(0.579082 0.192678 -2.29189e-20)
(0.598852 0.1847 1.09636e-19)
(0.617823 0.176803 -6.73641e-20)
(0.550314 0.18059 -3.92674e-20)
(0.571015 0.173395 6.71982e-20)
(0.59109 0.166195 -1.66465e-19)
(0.610384 0.159066 2.36739e-19)
(0.542799 0.160185 8.41818e-20)
(0.563786 0.153784 -8.77772e-20)
(0.584135 0.147382 -1.6641e-20)
(0.60372 0.141043 -7.4021e-20)
(0.536176 0.139468 -7.29169e-20)
(0.557416 0.13388 4.571e-20)
(0.578007 0.128296 -6.68842e-20)
(0.597851 0.122764 7.59246e-20)
(0.508362 0.123203 -4.62246e-20)
(0.530464 0.118478 5.26826e-20)
(0.551924 0.113721 6.52899e-20)
(0.572724 0.108969 -6.38222e-20)
(0.59279 0.104261 3.94743e-20)
(0.50339 0.101143 -3.50975e-20)
(0.52568 0.0972564 -1.04155e-20)
(0.547323 0.093344 2.49186e-20)
(0.568299 0.089438 4.23601e-20)
(0.588553 0.085567 6.66571e-20)
(0.499395 0.0788796 2.97243e-20)
(0.521837 0.0758432 -4.8841e-20)
(0.543627 0.0727879 1.05889e-21)
(0.564745 0.0697386 5.53623e-21)
(0.58515 0.0667163 -3.75992e-22)
(0.496389 0.0564568 2.93794e-20)
(0.518945 0.0542808 -1.91318e-20)
(0.540847 0.0520918 -4.90218e-20)
(0.562071 0.0499077 2.23228e-20)
(0.58259 0.0477426 -2.35462e-20)
(0.49438 0.0339198 -6.16624e-21)
(0.517012 0.0326113 2.10561e-20)
(0.538989 0.0312953 8.45912e-21)
(0.560284 0.0299824 5.98223e-21)
(0.58088 0.0286809 -2.20321e-21)
(0.493374 0.0113142 9.54181e-21)
(0.516045 0.0108776 -1.64187e-20)
(0.538059 0.0104385 1.03256e-20)
(0.55939 0.0100004 -1.33456e-20)
(0.580024 0.00956619 1.25769e-20)
(0.493374 -0.0113143 -2.82976e-22)
(0.516045 -0.0108776 -8.5934e-21)
(0.538059 -0.0104385 4.31675e-21)
(0.55939 -0.0100005 -1.08129e-21)
(0.580024 -0.00956623 -3.31696e-21)
(0.49438 -0.0339198 -5.28881e-21)
(0.517012 -0.0326114 1.70081e-20)
(0.538989 -0.0312953 2.70219e-21)
(0.560284 -0.0299825 -5.48727e-21)
(0.58088 -0.028681 1.86501e-20)
(0.496389 -0.0564568 -2.1064e-20)
(0.518945 -0.0542808 -4.10703e-20)
(0.540847 -0.0520918 2.24048e-20)
(0.562071 -0.0499077 -2.08337e-20)
(0.58259 -0.0477427 -4.18315e-20)
(0.499395 -0.0788797 9.78529e-21)
(0.521837 -0.0758433 3.93704e-20)
(0.543627 -0.0727879 -1.06285e-20)
(0.564745 -0.0697387 -6.09876e-20)
(0.58515 -0.0667163 7.09592e-21)
(0.50339 -0.101143 4.22126e-20)
(0.52568 -0.0972565 -4.62929e-20)
(0.547323 -0.093344 9.26398e-21)
(0.568299 -0.089438 2.78114e-20)
(0.588553 -0.0855671 -2.40784e-20)
(0.508362 -0.123203 -6.51885e-21)
(0.530464 -0.118479 8.71195e-20)
(0.551924 -0.113721 1.70301e-20)
(0.572724 -0.108969 2.65923e-20)
(0.59279 -0.104261 -7.98913e-20)
(0.536176 -0.139468 -3.66211e-20)
(0.557416 -0.13388 -4.91531e-20)
(0.578007 -0.128296 4.4065e-22)
(0.597851 -0.122764 7.03373e-20)
(0.542799 -0.160185 6.46682e-20)
(0.563786 -0.153784 -1.05291e-19)
(0.584135 -0.147382 4.99119e-20)
(0.60372 -0.141043 -1.39029e-19)
(0.550314 -0.18059 -1.24806e-19)
(0.571015 -0.173395 -4.54357e-20)
(0.59109 -0.166195 1.68755e-19)
(0.610384 -0.159066 -5.15954e-20)
(0.558699 -0.200644 -3.69248e-20)
(0.579082 -0.192678 7.06667e-20)
(0.598852 -0.1847 -6.47e-20)
(0.617823 -0.176803 -4.39506e-20)
(0.567931 -0.220309 1.11083e-19)
(0.587964 -0.211598 1.01358e-19)
(0.6074 -0.202865 -7.90836e-20)
(0.626018 -0.194223 -1.11363e-19)
(0.597637 -0.230121 8.47121e-20)
(0.616709 -0.220658 5.55968e-21)
(0.634944 -0.211298 1.36189e-19)
(0.60807 -0.248214 8.71766e-20)
(0.626752 -0.23805 -1.57998e-19)
(0.644576 -0.228 -7.30468e-20)
(0.619232 -0.265847 -8.35737e-20)
(0.637498 -0.255013 2.89632e-20)
(0.654885 -0.244303 1.2576e-19)
(0.648915 -0.271518 5.62231e-20)
(0.66584 -0.260182 -2.83377e-19)
(0.660966 -0.287541 1.61752e-19)
(0.677406 -0.275614 3.05566e-20)
(0.689545 -0.290577 4.57678e-20)
(0.702218 -0.305052 -1.20718e-19)
(1.07847 0.212946 0)
(1.08237 0.204306 0)
(1.08566 0.195938 0)
(1.08843 0.187848 0)
(1.09075 0.180035 0)
(1.09267 0.172496 0)
(1.09425 0.165228 0)
(1.09553 0.158223 0)
(1.09656 0.151471 0)
(1.09736 0.144964 0)
(1.09796 0.13869 0)
(1.09839 0.13264 0)
(1.09866 0.126801 0)
(1.09881 0.121164 0)
(1.09884 0.115717 0)
(1.09877 0.11045 0)
(1.09861 0.105352 0)
(1.09838 0.100415 0)
(1.09809 0.095629 0)
(1.09774 0.0909846 0)
(1.09735 0.0864737 0)
(1.09693 0.0820881 0)
(1.09648 0.0778201 0)
(1.09601 0.0736623 0)
(1.09552 0.0696077 0)
(1.09503 0.0656496 0)
(1.09454 0.0617816 0)
(1.09404 0.0579975 0)
(1.09356 0.0542916 0)
(1.09308 0.0506581 0)
(1.09262 0.0470917 0)
(1.09218 0.0435871 0)
(1.09176 0.0401394 0)
(1.09136 0.0367436 0)
(1.09099 0.0333952 0)
(1.09064 0.0300895 0)
(1.09033 0.0268222 0)
(1.09004 0.0235888 0)
(1.08979 0.0203851 0)
(1.08957 0.0172071 0)
(1.08939 0.0140506 0)
(1.08924 0.0109117 0)
(1.08913 0.00778676 0)
(1.08905 0.00467105 0)
(1.08902 0.00155748 0)
(0.917196 0.204904 0)
(0.933186 0.203854 0)
(0.947205 0.20277 0)
(0.959554 0.201914 0)
(0.97044 0.20042 0)
(0.980025 0.198117 0)
(0.988484 0.19514 0)
(0.996002 0.191625 0)
(1.00274 0.187674 0)
(1.00885 0.183384 0)
(1.01444 0.17884 0)
(1.01959 0.17412 0)
(1.02438 0.169289 0)
(1.02885 0.164401 0)
(1.03303 0.159495 0)
(1.03694 0.154606 0)
(1.0406 0.149756 0)
(1.044 0.144964 0)
(1.04716 0.14024 0)
(1.05008 0.135592 0)
(1.05277 0.131026 0)
(1.05523 0.126544 0)
(1.05747 0.122146 0)
(1.05949 0.117832 0)
(1.06131 0.113602 0)
(1.06294 0.109454 0)
(1.06439 0.105386 0)
(1.06567 0.101396 0)
(1.06679 0.0974829 0)
(1.06777 0.0936434 0)
(1.06862 0.0898759 0)
(1.06935 0.086178 0)
(1.06997 0.0825476 0)
(1.07049 0.0789823 0)
(1.07092 0.0754799 0)
(1.07128 0.0720381 0)
(1.07156 0.0686544 0)
(1.07178 0.0653265 0)
(1.07195 0.062052 0)
(1.07207 0.0588284 0)
(1.07215 0.0556535 0)
(1.07219 0.0525246 0)
(1.07221 0.0494394 0)
(1.0722 0.0463955 0)
(1.07216 0.0433903 0)
(1.07212 0.0404215 0)
(1.07206 0.0374867 0)
(1.07199 0.0345834 0)
(1.07191 0.0317093 0)
(1.07183 0.0288619 0)
(1.07176 0.0260389 0)
(1.07168 0.0232379 0)
(1.07161 0.0204566 0)
(1.07154 0.0176925 0)
(1.07148 0.0149434 0)
(1.07143 0.012207 0)
(1.07138 0.00948076 0)
(1.07135 0.00676188 0)
(1.07133 0.00404941 0)
(1.07131 0.00134743 0)
(0.919132 0.139788 0)
(0.926124 0.141669 0)
(0.93324 0.143076 0)
(0.940551 0.144111 0)
(0.94802 0.144572 0)
(0.95556 0.144499 0)
(0.963082 0.143998 0)
(0.970498 0.143148 0)
(0.977728 0.142003 0)
(0.984702 0.140602 0)
(0.99136 0.138978 0)
(0.997655 0.137154 0)
(1.00356 0.13515 0)
(1.00904 0.132983 0)
(1.01411 0.130665 0)
(1.01876 0.128212 0)
(1.023 0.125634 0)
(1.02686 0.122945 0)
(1.03034 0.120158 0)
(1.03347 0.117283 0)
(1.03629 0.114335 0)
(1.0388 0.111324 0)
(1.04105 0.108261 0)
(1.04306 0.105159 0)
(1.04483 0.102026 0)
(1.04641 0.0988714 0)
(1.04781 0.0957041 0)
(1.04904 0.0925311 0)
(1.05012 0.0893589 0)
(1.05107 0.0861932 0)
(1.0519 0.0830386 0)
(1.05262 0.0798994 0)
(1.05324 0.0767787 0)
(1.05377 0.0736794 0)
(1.05423 0.0706035 0)
(1.05461 0.0675528 0)
(1.05494 0.0645285 0)
(1.0552 0.0615313 0)
(1.05542 0.0585618 0)
(1.05559 0.05562 0)
(1.05573 0.0527058 0)
(1.05583 0.049819 0)
(1.0559 0.046959 0)
(1.05595 0.044125 0)
(1.05598 0.0413161 0)
(1.05599 0.0385314 0)
(1.05599 0.0357697 0)
(1.05597 0.0330298 0)
(1.05595 0.0303103 0)
(1.05592 0.0276099 0)
(1.05589 0.024927 0)
(1.05585 0.0222602 0)
(1.05581 0.0196079 0)
(1.05578 0.0169685 0)
(1.05575 0.0143402 0)
(1.05572 0.0117216 0)
(1.0557 0.00911096 0)
(1.05568 0.00650694 0)
(1.05567 0.00390669 0)
(1.05566 0.00130349 0)
(0.948897 0.0893305 0)
(0.953753 0.0918705 0)
(0.958609 0.0942522 0)
(0.963411 0.0964861 0)
(0.968097 0.0983694 0)
(0.972616 0.0998612 0)
(0.976935 0.100979 0)
(0.981038 0.101737 0)
(0.98492 0.10215 0)
(0.988585 0.102235 0)
(0.992041 0.102011 0)
(0.995302 0.101502 0)
(0.998381 0.100734 0)
(1.00129 0.0997309 0)
(1.00405 0.098519 0)
(1.00666 0.0971227 0)
(1.00913 0.0955654 0)
(1.01148 0.0938689 0)
(1.01371 0.0920532 0)
(1.01582 0.0901361 0)
(1.01782 0.0881337 0)
(1.01971 0.0860601 0)
(1.0215 0.0839275 0)
(1.02317 0.0817467 0)
(1.02474 0.0795268 0)
(1.02622 0.0772758 0)
(1.02759 0.0750004 0)
(1.02886 0.0727063 0)
(1.03005 0.0703985 0)
(1.03114 0.0680812 0)
(1.03215 0.0657579 0)
(1.03307 0.0634318 0)
(1.03392 0.0611053 0)
(1.03469 0.0587806 0)
(1.0354 0.0564596 0)
(1.03604 0.0541439 0)
(1.03662 0.0518346 0)
(1.03714 0.0495329 0)
(1.03761 0.0472396 0)
(1.03803 0.0449552 0)
(1.03841 0.0426803 0)
(1.03875 0.0404152 0)
(1.03905 0.0381601 0)
(1.03932 0.0359149 0)
(1.03955 0.0336797 0)
(1.03976 0.0314543 0)
(1.03994 0.0292384 0)
(1.0401 0.0270317 0)
(1.04024 0.0248337 0)
(1.04036 0.0226441 0)
(1.04046 0.0204622 0)
(1.04055 0.0182874 0)
(1.04062 0.0161192 0)
(1.04068 0.0139568 0)
(1.04073 0.0117996 0)
(1.04078 0.00964672 0)
(1.04081 0.00749736 0)
(1.04083 0.00535047 0)
(1.04085 0.00320599 0)
(1.04085 0.00106725 0)
(0.959485 0.0605852 0)
(0.961958 0.0627695 0)
(0.964586 0.064808 0)
(0.967353 0.0666666 0)
(0.970227 0.068264 0)
(0.973177 0.0695988 0)
(0.976171 0.0706919 0)
(0.979183 0.071561 0)
(0.982188 0.0722209 0)
(0.985162 0.072686 0)
(0.988086 0.0729696 0)
(0.990938 0.0730844 0)
(0.993704 0.0730418 0)
(0.99637 0.072852 0)
(0.998923 0.0725244 0)
(1.00136 0.0720673 0)
(1.00366 0.0714885 0)
(1.00584 0.0707951 0)
(1.00788 0.0699941 0)
(1.00979 0.0690917 0)
(1.01157 0.0680944 0)
(1.01322 0.0670083 0)
(1.01475 0.0658393 0)
(1.01616 0.0645934 0)
(1.01747 0.0632763 0)
(1.01866 0.0618936 0)
(1.01976 0.0604509 0)
(1.02076 0.0589534 0)
(1.02167 0.0574062 0)
(1.02251 0.0558141 0)
(1.02326 0.0541818 0)
(1.02395 0.0525136 0)
(1.02457 0.0508134 0)
(1.02514 0.0490851 0)
(1.02565 0.0473322 0)
(1.0261 0.0455577 0)
(1.02652 0.0437647 0)
(1.02689 0.0419557 0)
(1.02722 0.0401332 0)
(1.02751 0.0382993 0)
(1.02777 0.0364558 0)
(1.028 0.0346046 0)
(1.02821 0.0327471 0)
(1.02839 0.0308846 0)
(1.02855 0.0290183 0)
(1.02869 0.0271491 0)
(1.02881 0.0252778 0)
(1.02892 0.0234051 0)
(1.02901 0.0215317 0)
(1.02909 0.0196579 0)
(1.02915 0.0177841 0)
(1.02921 0.0159106 0)
(1.02926 0.0140375 0)
(1.0293 0.012165 0)
(1.02933 0.010293 0)
(1.02935 0.00842173 0)
(1.02937 0.00655105 0)
(1.02939 0.00468109 0)
(1.0294 0.00281104 0)
(1.0294 0.000937896 0)
(0.892505 0.357613 1.4485e-20)
(0.904973 0.19926 -6.81491e-21)
(0.914385 0.135757 -1.95041e-21)
(0.945589 0.0859404 -2.46437e-21)
(0.957899 0.0583334 6.4258e-21)
(0.886052 0.349418 1.20942e-20)
(0.897212 0.193433 -8.49777e-21)
(0.911545 0.132039 1.20401e-20)
(0.943667 0.0831534 -1.68475e-20)
(0.957007 0.056586 1.66243e-21)
(0.878243 0.339914 3.68089e-21)
(0.889803 0.18734 -1.39706e-20)
(0.908892 0.128097 -1.53192e-20)
(0.941863 0.0802633 1.31657e-20)
(0.956181 0.0547748 -1.40659e-20)
(0.869522 0.330273 7.83311e-21)
(0.882755 0.18153 5.56337e-21)
(0.906404 0.124191 2.13676e-20)
(0.940164 0.0774354 -5.34921e-21)
(0.955415 0.0529864 2.02855e-20)
(0.860188 0.320445 -1.52824e-20)
(0.876074 0.175791 -4.52801e-21)
(0.904066 0.120221 2.5925e-20)
(0.938562 0.0746121 1.42155e-20)
(0.954703 0.0511876 3.43498e-21)
(0.850455 0.310346 5.40146e-20)
(0.869759 0.170007 -2.8345e-20)
(0.901866 0.116143 -4.58334e-21)
(0.93705 0.0717677 -2.16557e-20)
(0.954042 0.0493635 -6.46415e-21)
(0.840492 0.299996 -2.26991e-20)
(0.86381 0.164163 -4.17324e-21)
(0.899795 0.111965 -8.5772e-21)
(0.935624 0.0689068 5.86486e-21)
(0.953429 0.0475163 9.51845e-21)
(0.830433 0.289414 3.90068e-20)
(0.858222 0.158252 -7.59641e-21)
(0.897843 0.107699 -2.10712e-20)
(0.934278 0.0660354 -1.747e-21)
(0.952861 0.0456486 -2.05238e-21)
(0.820389 0.278605 -2.33395e-20)
(0.852987 0.152262 1.82869e-20)
(0.895999 0.10335 2.00107e-20)
(0.933008 0.0631554 5.94406e-21)
(0.952335 0.0437615 2.71681e-21)
(0.81045 0.26757 1.16357e-20)
(0.848097 0.146178 -7.99884e-21)
(0.894257 0.0989232 -1.60124e-20)
(0.931812 0.0602679 6.36121e-21)
(0.951848 0.0418554 -7.11722e-21)
(0.800689 0.256309 4.02516e-20)
(0.843543 0.139991 -2.72832e-20)
(0.89261 0.0944248 -1.13284e-20)
(0.930687 0.0573739 -3.09348e-20)
(0.951398 0.039931 1.63439e-20)
(0.79117 0.244824 -4.58655e-20)
(0.839312 0.133695 1.25785e-21)
(0.891051 0.0898612 2.60091e-20)
(0.92963 0.0544741 2.38332e-20)
(0.950982 0.0379892 7.47272e-21)
(0.781946 0.233117 1.98689e-20)
(0.835395 0.127286 -1.04463e-20)
(0.889578 0.085239 1.84771e-20)
(0.92864 0.0515692 -6.48802e-21)
(0.950598 0.0360307 -1.49373e-20)
(0.773062 0.221191 2.25049e-20)
(0.831778 0.120762 -1.70617e-21)
(0.888185 0.0805645 -2.74055e-20)
(0.927714 0.0486595 2.7464e-20)
(0.950245 0.0340563 -4.66425e-21)
(0.764555 0.209048 -3.40803e-20)
(0.828448 0.114123 3.85276e-21)
(0.88687 0.0758439 1.87958e-20)
(0.926852 0.0457451 -3.16063e-20)
(0.949921 0.0320669 1.75184e-20)
(0.75646 0.196694 1.67352e-20)
(0.825395 0.107368 -2.82987e-20)
(0.885632 0.0710829 -5.18231e-21)
(0.926051 0.0428261 3.22604e-20)
(0.949623 0.0300633 -1.67491e-20)
(0.748805 0.184135 -3.48847e-20)
(0.822606 0.100502 2.53579e-20)
(0.884469 0.0662871 -6.01217e-21)
(0.925311 0.0399024 -2.07988e-20)
(0.741615 0.171377 4.61215e-20)
(0.820069 0.0935282 1.92844e-20)
(0.883382 0.0614615 -8.84165e-21)
(0.92463 0.036974 1.08414e-20)
(0.734911 0.15843 2.93614e-21)
(0.817772 0.0864509 -1.11925e-20)
(0.882371 0.0566108 2.2418e-20)
(0.924007 0.0340407 -9.07636e-21)
(0.728711 0.145304 5.45754e-21)
(0.815706 0.0792763 1.83696e-20)
(0.881436 0.0517391 -2.41337e-20)
(0.923441 0.0311025 4.81739e-22)
(0.723032 0.132009 -7.92735e-20)
(0.813861 0.072011 7.81333e-21)
(0.880579 0.0468501 8.26676e-21)
(0.922931 0.0281593 2.4251e-20)
(0.717887 0.118556 1.97235e-20)
(0.812226 0.0646621 5.72373e-21)
(0.879801 0.041947 -2.91026e-20)
(0.922476 0.0252112 -3.28061e-20)
(0.713287 0.104961 2.53313e-20)
(0.810794 0.0572373 -5.23515e-20)
(0.879104 0.0370326 4.40844e-20)
(0.922074 0.0222584 -4.62577e-21)
(0.709243 0.0912364 -3.59223e-20)
(0.809558 0.0497449 2.69553e-20)
(0.878489 0.0321093 -2.83755e-20)
(0.921725 0.019301 1.91886e-20)
(0.705762 0.077398 5.52809e-21)
(0.80851 0.0421932 -3.51427e-21)
(0.877958 0.0271791 5.31523e-21)
(0.921428 0.0163394 -2.11109e-21)
(0.702852 0.0634617 -1.00011e-20)
(0.807646 0.0345911 6.85093e-21)
(0.877513 0.0222435 7.7908e-21)
(0.921181 0.0133741 5.33601e-21)
(0.700518 0.0494443 -2.11156e-21)
(0.80696 0.0269475 -6.87491e-21)
(0.877156 0.0173041 1.20857e-21)
(0.920985 0.0104056 -1.37708e-21)
(0.698763 0.0353632 8.25969e-21)
(0.806449 0.0192715 3.32175e-21)
(0.876886 0.0123619 6.27547e-21)
(0.920839 0.0074345 4.71432e-21)
(0.697592 0.0212364 -2.60994e-21)
(0.80611 0.0115722 8.22343e-24)
(0.876706 0.00741785 -1.32127e-21)
(0.920741 0.00446148 -9.02046e-21)
(0.697006 0.00708186 2.14963e-22)
(0.805941 0.00385895 1.48787e-21)
(0.876615 0.00247274 -2.78245e-21)
(0.920693 0.0014873 3.25093e-21)
(0.697006 -0.00708188 9.84885e-22)
(0.805941 -0.00385894 1.78563e-21)
(0.876615 -0.00247272 -3.21467e-21)
(0.920693 -0.00148727 2.9612e-21)
(0.697592 -0.0212364 -1.04598e-21)
(0.80611 -0.0115722 -1.39678e-21)
(0.876706 -0.00741783 -4.71206e-22)
(0.920741 -0.00446146 -9.08838e-21)
(0.698763 -0.0353633 1.1508e-20)
(0.806449 -0.0192714 4.14052e-21)
(0.876886 -0.0123619 5.08792e-21)
(0.920839 -0.00743447 5.46068e-21)
(0.700518 -0.0494443 -1.6832e-22)
(0.80696 -0.0269475 -5.07407e-21)
(0.877156 -0.0173041 2.10102e-22)
(0.920985 -0.0104056 2.05886e-21)
(0.702852 -0.0634617 6.65421e-21)
(0.807646 -0.0345911 6.65633e-21)
(0.877513 -0.0222435 -1.65005e-21)
(0.921181 -0.0133741 4.80591e-21)
(0.705762 -0.077398 1.3203e-20)
(0.80851 -0.0421932 -7.69232e-21)
(0.877958 -0.027179 6.68447e-21)
(0.921428 -0.0163394 -6.3012e-21)
(0.709243 -0.0912365 -3.6385e-20)
(0.809558 -0.0497449 3.22767e-20)
(0.878489 -0.0321093 -4.11156e-20)
(0.921725 -0.019301 2.54086e-20)
(0.713287 -0.104961 3.53128e-20)
(0.810794 -0.0572373 -5.61922e-20)
(0.879104 -0.0370326 3.78062e-20)
(0.922074 -0.0222583 -2.35238e-21)
(0.717887 -0.118556 3.24786e-20)
(0.812226 -0.0646621 9.7768e-21)
(0.879801 -0.041947 -3.15887e-20)
(0.922476 -0.0252112 -3.0341e-20)
(0.723032 -0.132009 -4.86155e-20)
(0.813861 -0.072011 -7.8502e-21)
(0.880579 -0.0468501 1.65229e-20)
(0.922931 -0.0281593 2.04278e-20)
(0.728711 -0.145304 1.54128e-20)
(0.815706 -0.0792763 1.09209e-21)
(0.881436 -0.0517391 -1.02917e-20)
(0.923441 -0.0311024 1.65409e-21)
(0.734911 -0.15843 -3.578e-21)
(0.817772 -0.0864509 4.37913e-21)
(0.882371 -0.0566108 1.94938e-20)
(0.924007 -0.0340407 -1.67821e-20)
(0.741615 -0.171377 5.68374e-20)
(0.820069 -0.0935282 1.69208e-20)
(0.883382 -0.0614615 1.1255e-20)
(0.92463 -0.036974 3.53425e-21)
(0.748805 -0.184135 -3.86039e-20)
(0.822606 -0.100502 2.05691e-20)
(0.884469 -0.0662871 1.70608e-21)
(0.925311 -0.0399024 -3.50005e-20)
(0.75646 -0.196694 2.69615e-20)
(0.825395 -0.107368 -3.38786e-20)
(0.885632 -0.0710829 -5.33076e-21)
(0.926051 -0.0428261 2.35836e-20)
(0.949623 -0.0300633 1.57117e-20)
(0.764555 -0.209048 -2.55366e-20)
(0.828449 -0.114123 1.78954e-21)
(0.88687 -0.0758439 9.79694e-21)
(0.926852 -0.0457451 -1.63086e-20)
(0.949921 -0.0320669 6.39592e-21)
(0.773062 -0.221191 1.08263e-20)
(0.831778 -0.120762 -8.53001e-22)
(0.888185 -0.0805645 -3.62762e-20)
(0.927714 -0.0486595 3.25311e-20)
(0.950245 -0.0340563 -7.03219e-21)
(0.781946 -0.233117 2.59852e-20)
(0.835395 -0.127286 1.80375e-23)
(0.889578 -0.085239 1.66613e-20)
(0.92864 -0.0515692 -2.44251e-20)
(0.950598 -0.0360307 -2.24415e-21)
(0.791171 -0.244824 -4.98841e-20)
(0.839312 -0.133695 1.77381e-20)
(0.891051 -0.0898612 2.26432e-21)
(0.92963 -0.0544741 3.07956e-20)
(0.950982 -0.0379892 4.92413e-21)
(0.800689 -0.256309 5.85736e-20)
(0.843543 -0.139991 -2.35292e-20)
(0.89261 -0.0944248 -7.82124e-21)
(0.930687 -0.0573738 -3.28523e-20)
(0.951398 -0.039931 -2.04869e-21)
(0.81045 -0.26757 -4.87215e-20)
(0.848097 -0.146177 9.28136e-21)
(0.894257 -0.0989232 1.02316e-21)
(0.931812 -0.0602679 8.98888e-21)
(0.951848 -0.0418554 -1.55489e-20)
(0.820389 -0.278605 -4.31086e-20)
(0.852987 -0.152262 3.24143e-20)
(0.895999 -0.10335 3.13531e-20)
(0.933008 -0.0631554 2.67416e-21)
(0.952335 -0.0437614 -1.1018e-20)
(0.830433 -0.289414 4.14535e-20)
(0.858222 -0.158252 -3.38428e-20)
(0.897843 -0.107699 -1.4622e-20)
(0.934278 -0.0660354 -4.19199e-21)
(0.952861 -0.0456486 1.63063e-20)
(0.840492 -0.299996 -2.09325e-20)
(0.86381 -0.164163 1.79352e-20)
(0.899795 -0.111965 -9.58421e-21)
(0.935624 -0.0689068 -2.19037e-21)
(0.953429 -0.0475163 3.00511e-21)
(0.850455 -0.310346 1.25659e-20)
(0.869759 -0.170007 2.31242e-20)
(0.901866 -0.116143 -3.13351e-20)
(0.93705 -0.0717676 -4.24371e-21)
(0.954042 -0.0493635 -1.96345e-20)
(0.860188 -0.320445 -6.19519e-20)
(0.876074 -0.175791 2.20426e-20)
(0.904066 -0.120221 1.87156e-20)
(0.938562 -0.0746121 1.83162e-20)
(0.954703 -0.0511876 2.35635e-21)
(0.869522 -0.330273 -3.65966e-21)
(0.882755 -0.181529 2.03059e-20)
(0.906404 -0.124191 1.03715e-20)
(0.940164 -0.0774354 -7.27455e-22)
(0.955415 -0.0529864 5.9266e-21)
(0.878243 -0.339914 -1.71728e-20)
(0.889803 -0.18734 -2.78292e-20)
(0.908892 -0.128097 -1.20878e-21)
(0.941863 -0.0802633 1.13837e-20)
(0.956181 -0.0547748 -5.77827e-21)
(0.886052 -0.349418 1.68962e-20)
(0.897213 -0.193433 1.54602e-20)
(0.911545 -0.132039 -9.26528e-21)
(0.943667 -0.0831534 -5.30906e-21)
(0.957007 -0.056586 -9.0749e-21)
(0.892505 -0.357613 -1.61857e-20)
(0.904973 -0.19926 1.25604e-20)
(0.914385 -0.135757 -1.26951e-20)
(0.945589 -0.0859403 3.33299e-21)
(0.957899 -0.0583333 -9.27413e-22)
(0.917196 -0.204904 0)
(0.919132 -0.139788 0)
(0.948897 -0.0893305 0)
(0.959485 -0.0605852 0)
(0.933186 -0.203854 0)
(0.926124 -0.141669 0)
(0.953753 -0.0918705 0)
(0.961958 -0.0627695 0)
(0.947205 -0.20277 0)
(0.93324 -0.143076 0)
(0.958609 -0.0942522 0)
(0.964586 -0.064808 0)
(0.959554 -0.201914 0)
(0.940551 -0.144111 0)
(0.963411 -0.0964861 0)
(0.967353 -0.0666666 0)
(0.97044 -0.20042 0)
(0.94802 -0.144572 0)
(0.968097 -0.0983694 0)
(0.970227 -0.068264 0)
(0.980025 -0.198117 0)
(0.95556 -0.144499 0)
(0.972616 -0.0998611 0)
(0.973177 -0.0695988 0)
(0.988484 -0.19514 0)
(0.963082 -0.143998 0)
(0.976935 -0.100978 0)
(0.976171 -0.0706918 0)
(0.996002 -0.191625 0)
(0.970498 -0.143148 0)
(0.981038 -0.101737 0)
(0.979183 -0.0715609 0)
(1.00274 -0.187674 0)
(0.977728 -0.142003 0)
(0.98492 -0.10215 0)
(0.982188 -0.0722209 0)
(1.00885 -0.183384 0)
(0.984702 -0.140602 0)
(0.988585 -0.102235 0)
(0.985162 -0.072686 0)
(1.01444 -0.17884 0)
(0.99136 -0.138978 0)
(0.992041 -0.102011 0)
(0.988086 -0.0729696 0)
(1.01959 -0.17412 0)
(0.997655 -0.137154 0)
(0.995302 -0.101502 0)
(0.990938 -0.0730844 0)
(1.02438 -0.169289 0)
(1.00356 -0.13515 0)
(0.998381 -0.100734 0)
(0.993704 -0.0730418 0)
(1.02885 -0.164401 0)
(1.00904 -0.132983 0)
(1.00129 -0.0997309 0)
(0.99637 -0.072852 0)
(1.03303 -0.159495 0)
(1.01411 -0.130665 0)
(1.00405 -0.0985189 0)
(0.998923 -0.0725244 0)
(1.03694 -0.154606 0)
(1.01876 -0.128212 0)
(1.00666 -0.0971226 0)
(1.00136 -0.0720673 0)
(1.0406 -0.149756 0)
(1.023 -0.125634 0)
(1.00913 -0.0955654 0)
(1.00366 -0.0714884 0)
(1.044 -0.144964 0)
(1.02686 -0.122945 0)
(1.01148 -0.0938689 0)
(1.00584 -0.0707951 0)
(1.04716 -0.14024 0)
(1.03034 -0.120158 0)
(1.01371 -0.0920532 0)
(1.00788 -0.069994 0)
(1.05008 -0.135592 0)
(1.03347 -0.117283 0)
(1.01582 -0.0901361 0)
(1.00979 -0.0690917 0)
(1.05277 -0.131026 0)
(1.03629 -0.114335 0)
(1.01782 -0.0881337 0)
(1.01157 -0.0680944 0)
(1.05523 -0.126544 0)
(1.0388 -0.111324 0)
(1.01971 -0.08606 0)
(1.01322 -0.0670083 0)
(1.05747 -0.122146 0)
(1.04105 -0.108261 0)
(1.0215 -0.0839275 0)
(1.01475 -0.0658393 0)
(1.05949 -0.117832 0)
(1.04306 -0.105159 0)
(1.02317 -0.0817466 0)
(1.01616 -0.0645934 0)
(1.06131 -0.113602 0)
(1.04483 -0.102026 0)
(1.02474 -0.0795268 0)
(1.01747 -0.0632762 0)
(1.06294 -0.109454 0)
(1.04641 -0.0988714 0)
(1.02622 -0.0772758 0)
(1.01866 -0.0618936 0)
(1.06439 -0.105386 0)
(1.04781 -0.0957041 0)
(1.02759 -0.0750003 0)
(1.01976 -0.0604508 0)
(1.06567 -0.101396 0)
(1.04904 -0.0925311 0)
(1.02886 -0.0727063 0)
(1.02076 -0.0589533 0)
(1.06679 -0.0974828 0)
(1.05012 -0.0893589 0)
(1.03005 -0.0703985 0)
(1.02167 -0.0574061 0)
(1.06777 -0.0936434 0)
(1.05107 -0.0861931 0)
(1.03114 -0.0680812 0)
(1.02251 -0.0558141 0)
(1.06862 -0.0898758 0)
(1.0519 -0.0830386 0)
(1.03215 -0.0657579 0)
(1.02326 -0.0541818 0)
(1.06935 -0.086178 0)
(1.05262 -0.0798993 0)
(1.03307 -0.0634317 0)
(1.02395 -0.0525135 0)
(1.06997 -0.0825475 0)
(1.05324 -0.0767787 0)
(1.03392 -0.0611052 0)
(1.02457 -0.0508134 0)
(1.07049 -0.0789823 0)
(1.05377 -0.0736793 0)
(1.03469 -0.0587806 0)
(1.02514 -0.0490851 0)
(1.07092 -0.0754799 0)
(1.05423 -0.0706035 0)
(1.0354 -0.0564596 0)
(1.02565 -0.0473321 0)
(1.07128 -0.072038 0)
(1.05461 -0.0675528 0)
(1.03604 -0.0541439 0)
(1.0261 -0.0455577 0)
(1.07156 -0.0686543 0)
(1.05494 -0.0645285 0)
(1.03662 -0.0518346 0)
(1.02652 -0.0437646 0)
(1.07178 -0.0653264 0)
(1.0552 -0.0615313 0)
(1.03714 -0.0495329 0)
(1.02689 -0.0419557 0)
(1.07195 -0.0620519 0)
(1.05542 -0.0585617 0)
(1.03761 -0.0472396 0)
(1.02722 -0.0401332 0)
(1.07207 -0.0588284 0)
(1.05559 -0.0556199 0)
(1.03803 -0.0449552 0)
(1.02751 -0.0382992 0)
(1.07215 -0.0556534 0)
(1.05573 -0.0527058 0)
(1.03841 -0.0426803 0)
(1.02777 -0.0364558 0)
(1.07219 -0.0525246 0)
(1.05583 -0.049819 0)
(1.03875 -0.0404152 0)
(1.028 -0.0346046 0)
(1.07221 -0.0494394 0)
(1.0559 -0.046959 0)
(1.03905 -0.0381601 0)
(1.02821 -0.0327471 0)
(1.0722 -0.0463954 0)
(1.05595 -0.044125 0)
(1.03932 -0.0359149 0)
(1.02839 -0.0308846 0)
(1.07216 -0.0433903 0)
(1.05598 -0.0413161 0)
(1.03955 -0.0336797 0)
(1.02855 -0.0290183 0)
(1.07212 -0.0404215 0)
(1.05599 -0.0385314 0)
(1.03976 -0.0314543 0)
(1.02869 -0.0271491 0)
(1.07206 -0.0374867 0)
(1.05599 -0.0357697 0)
(1.03994 -0.0292384 0)
(1.02881 -0.0252778 0)
(1.07199 -0.0345834 0)
(1.05597 -0.0330298 0)
(1.0401 -0.0270317 0)
(1.02892 -0.0234051 0)
(1.07191 -0.0317093 0)
(1.05595 -0.0303103 0)
(1.04024 -0.0248337 0)
(1.02901 -0.0215317 0)
(1.07183 -0.0288619 0)
(1.05592 -0.0276099 0)
(1.04036 -0.0226441 0)
(1.02909 -0.0196579 0)
(1.07176 -0.0260389 0)
(1.05589 -0.024927 0)
(1.04046 -0.0204622 0)
(1.02915 -0.0177841 0)
(1.07168 -0.0232379 0)
(1.05585 -0.0222602 0)
(1.04055 -0.0182874 0)
(1.02921 -0.0159106 0)
(1.07161 -0.0204565 0)
(1.05581 -0.0196079 0)
(1.04062 -0.0161192 0)
(1.02926 -0.0140375 0)
(1.07154 -0.0176925 0)
(1.05578 -0.0169684 0)
(1.04068 -0.0139568 0)
(1.0293 -0.012165 0)
(1.07148 -0.0149434 0)
(1.05575 -0.0143402 0)
(1.04073 -0.0117996 0)
(1.02933 -0.010293 0)
(1.07143 -0.012207 0)
(1.05572 -0.0117216 0)
(1.04078 -0.00964671 0)
(1.02935 -0.00842172 0)
(1.07138 -0.00948075 0)
(1.0557 -0.00911096 0)
(1.04081 -0.00749736 0)
(1.02937 -0.00655105 0)
(1.07135 -0.00676188 0)
(1.05568 -0.00650694 0)
(1.04083 -0.00535046 0)
(1.02939 -0.00468109 0)
(1.07133 -0.00404941 0)
(1.05567 -0.00390669 0)
(1.04085 -0.00320599 0)
(1.0294 -0.00281104 0)
(1.07131 -0.00134743 0)
(1.05566 -0.00130348 0)
(1.04085 -0.00106725 0)
(1.0294 -0.000937895 0)
)
;

boundaryField
{
    inlet
    {
        type            uniformFixedValue;
        uniformValue    constant (1 0 0);
        value           nonuniform 0();
    }
    outlet
    {
        type            pressureInletOutletVelocity;
        value           nonuniform 0();
    }
    cylinder
    {
        type            fixedValue;
        value           nonuniform 0();
    }
    top
    {
        type            symmetryPlane;
    }
    bottom
    {
        type            symmetryPlane;
    }
    defaultFaces
    {
        type            empty;
    }
    procBoundary1to0
    {
        type            processor;
        value           nonuniform List<vector> 
182
(
(0.977673 0.0415826 0)
(0.979163 0.0433971 0)
(0.980728 0.0451359 0)
(0.982345 0.0467873 0)
(0.983987 0.0482885 0)
(0.985632 0.0496249 0)
(0.987261 0.0507978 0)
(0.988861 0.0518081 0)
(0.990422 0.0526564 0)
(0.991939 0.0533443 0)
(0.993406 0.0538753 0)
(0.994821 0.0542536 0)
(0.996184 0.0544847 0)
(0.997493 0.054575 0)
(0.99875 0.0545313 0)
(0.999957 0.054361 0)
(1.00111 0.0540719 0)
(1.00222 0.0536719 0)
(1.00328 0.0531689 0)
(1.0043 0.0525706 0)
(1.00527 0.0518847 0)
(1.0062 0.0511184 0)
(1.00709 0.0502787 0)
(1.00794 0.0493722 0)
(1.00874 0.0484049 0)
(1.00951 0.0473827 0)
(1.01023 0.0463109 0)
(1.01092 0.0451942 0)
(1.01157 0.0440372 0)
(1.01218 0.0428439 0)
(1.01275 0.0416182 0)
(1.01329 0.0403634 0)
(1.01379 0.0390827 0)
(1.01426 0.0377788 0)
(1.0147 0.0364544 0)
(1.01511 0.0351117 0)
(1.01549 0.0337529 0)
(1.01584 0.0323799 0)
(1.01616 0.0309944 0)
(1.01646 0.0295979 0)
(1.01673 0.0281919 0)
(1.01699 0.0267776 0)
(1.01722 0.0253561 0)
(1.01743 0.0239284 0)
(1.01762 0.0224954 0)
(1.01779 0.0210579 0)
(1.01794 0.0196166 0)
(1.01809 0.0181721 0)
(1.01821 0.016725 0)
(1.01832 0.0152756 0)
(1.01842 0.0138244 0)
(1.01851 0.0123718 0)
(1.01859 0.0109179 0)
(1.01865 0.00946315 0)
(1.01871 0.00800764 0)
(1.01875 0.00655156 0)
(1.01879 0.005095 0)
(1.01881 0.0036379 0)
(1.01883 0.00218078 0)
(1.01884 0.000726181 0)
(0.976708 0.0398429 -7.05817e-21)
(0.976176 0.0385766 9.62972e-21)
(0.975684 0.0372686 -1.07219e-20)
(0.975229 0.035974 -1.23233e-21)
(0.974806 0.0346759 1.06717e-20)
(0.974413 0.0333662 1.10491e-20)
(0.974047 0.0320464 3.86331e-21)
(0.973707 0.0307185 -2.42786e-20)
(0.973389 0.0293835 -1.93396e-22)
(0.973094 0.0280422 -2.25586e-22)
(0.972818 0.0266954 6.32262e-22)
(0.972561 0.0253438 2.20419e-20)
(0.972322 0.0239881 1.02272e-20)
(0.9721 0.0226289 -1.80946e-20)
(0.971893 0.0212667 2.33167e-21)
(0.971702 0.0199019 8.61501e-22)
(0.949351 0.0280464 -2.80377e-20)
(0.949351 0.0280464 -2.80377e-20)
(0.949103 0.0260173 2.04178e-20)
(0.948878 0.0239768 -5.2703e-21)
(0.948675 0.0219258 -2.17638e-20)
(0.948492 0.0198654 2.54409e-20)
(0.94833 0.0177966 7.91868e-21)
(0.948187 0.0157202 3.28054e-21)
(0.948064 0.0136372 -1.03239e-20)
(0.947958 0.0115486 -5.64588e-21)
(0.947871 0.00945525 1.5493e-21)
(0.947802 0.00735804 -1.96234e-21)
(0.94775 0.00525786 -1.37993e-21)
(0.947715 0.00315556 -2.82317e-21)
(0.947698 0.001052 2.53032e-21)
(0.947698 -0.00105198 2.53289e-21)
(0.947715 -0.00315554 -1.50336e-21)
(0.94775 -0.00525784 -1.45607e-22)
(0.947802 -0.00735803 8.73065e-22)
(0.947871 -0.00945524 -3.65479e-21)
(0.947958 -0.0115486 -8.50939e-21)
(0.948064 -0.0136372 -1.10888e-20)
(0.948187 -0.0157202 3.38463e-21)
(0.94833 -0.0177966 1.53465e-20)
(0.948492 -0.0198654 2.68869e-20)
(0.948675 -0.0219258 -2.43025e-20)
(0.948878 -0.0239767 -1.57741e-21)
(0.949103 -0.0260173 2.49922e-20)
(0.949351 -0.0280464 -7.1665e-21)
(0.949351 -0.0280464 -7.1665e-21)
(0.971702 -0.0199019 2.03702e-21)
(0.971893 -0.0212667 -4.56072e-21)
(0.9721 -0.0226289 -1.31121e-20)
(0.972322 -0.0239881 1.84002e-20)
(0.972561 -0.0253438 1.51128e-20)
(0.972818 -0.0266954 -9.41417e-21)
(0.973094 -0.0280422 1.31115e-21)
(0.973389 -0.0293835 -6.97643e-21)
(0.973707 -0.0307184 -6.68156e-21)
(0.974047 -0.0320464 5.05341e-21)
(0.974413 -0.0333662 1.97344e-21)
(0.974806 -0.0346759 5.33316e-21)
(0.975229 -0.035974 -1.05001e-21)
(0.975684 -0.0372686 -2.46746e-21)
(0.976176 -0.0385766 -1.86203e-21)
(0.976708 -0.0398429 -4.45626e-21)
(0.977673 -0.0415826 0)
(0.979163 -0.0433971 0)
(0.980728 -0.0451359 0)
(0.982345 -0.0467873 0)
(0.983987 -0.0482885 0)