/*--------------------------------*- C++ -*----------------------------------*\
  =========                 |
  \\      /  F ield         | OpenFOAM: The Open Source CFD Toolbox
   \\    /   O peration     | Website:  https://openfoam.org
    \\  /    A nd           | Version:  7
     \\/     M anipulation  |
\*---------------------------------------------------------------------------*/
FoamFile
{
    version     2.0;
    format      ascii;
    class       volVectorField;
    location    "60";
    object      U;
}
// * * * * * * * * * * * * * * * * * * * * * * * * * * * * * * * * * * * * * //

dimensions      [0 1 -1 0 0 0 0];

internalField   nonuniform List<vector> 
183
(
(1.12399 0.251856 5.10464e-20)
(1.11785 0.284156 7.46899e-20)
(1.11415 0.270076 3.83529e-20)
(1.11065 0.255803 -6.32672e-20)
(1.113 0.3414 6.52944e-20)
(1.10847 0.322588 -2.87493e-20)
(1.10501 0.304856 -6.37763e-20)
(1.10229 0.288403 3.18999e-20)
(1.09883 0.367209 7.94017e-20)
(1.09422 0.346506 -7.54146e-20)
(1.0906 0.327075 1.37677e-20)
(1.08812 0.419043 6.93739e-20)
(1.08284 0.394723 -4.4632e-20)
(1.07842 0.371958 -1.02487e-19)
(1.07487 0.479345 2.15469e-21)
(1.06932 0.450717 -3.26235e-20)
(1.0646 0.423963 -6.60497e-20)
(1.06066 0.398972 2.39619e-20)
(1.05202 0.515768 -6.63632e-20)
(1.04751 0.484352 9.51093e-20)
(1.04363 0.454954 -4.82633e-20)
(1.02491 0.554013 -4.60686e-20)
(1.02212 0.519899 -1.32462e-20)
(1.01947 0.487704 -4.22638e-20)
(0.987985 0.627742 2.62123e-21)
(0.992081 0.593174 -1.26346e-19)
(0.99232 0.557072 1.07626e-19)
(0.991555 0.522141 4.2523e-21)
(0.936248 0.660244 9.15196e-20)
(0.951003 0.630992 -5.26389e-20)
(0.956777 0.594998 1.10356e-20)
(0.864021 0.677188 6.52254e-20)
(0.897355 0.662616 -8.17884e-21)
(0.913173 0.631504 4.37594e-20)
(0.761207 0.663349 3.62307e-20)
(0.824358 0.678879 -2.5201e-20)
(0.85755 0.661872 -2.72302e-21)
(0.874743 0.629218 -3.08617e-21)
(0.616099 0.596978 4.36193e-20)
(0.722694 0.664603 -5.23804e-20)
(0.783695 0.677093 -4.53906e-20)
(0.817128 0.657963 3.83994e-20)
(0.581677 0.597968 2.31813e-20)
(0.683106 0.662133 5.43567e-21)
(0.742374 0.671793 3.37869e-20)
(0.392715 0.451579 8.03696e-21)
(0.546185 0.595286 -4.3257e-20)
(0.642815 0.655911 3.262e-20)
(0.154569 0.195787 -6.73782e-20)
(0.365822 0.44927 -9.59033e-21)
(0.50999 0.588902 3.43003e-20)
(0.142933 0.194703 1.22497e-19)
(0.338341 0.443887 1.48281e-19)
(0.473459 0.578818 1.4986e-19)
(0.130996 0.192148 1.70735e-20)
(0.310578 0.435428 -2.04972e-19)
(0.118908 0.188117 -1.60352e-19)
(0.282839 0.423919 1.68708e-19)
(0.10682 0.182619 1.5439e-20)
(0.094879 0.17568 2.40277e-19)
(0.0959284 -0.177861 2.74699e-20)
(0.107881 -0.184645 -2.6299e-19)
(0.119963 -0.189979 2.73915e-20)
(0.28596 -0.429722 -4.3907e-21)
(0.132025 -0.193839 -1.18497e-19)
(0.313738 -0.440898 -1.37947e-19)
(0.143916 -0.196215 2.24103e-19)
(0.341503 -0.449008 8.06473e-20)
(0.478353 -0.587065 -6.03735e-21)
(0.155485 -0.197114 -6.00831e-20)
(0.368945 -0.454026 -4.60348e-20)
(0.514931 -0.596743 4.00514e-20)
(0.395755 -0.455958 2.37737e-20)
(0.551125 -0.602705 -3.62967e-20)
(0.649044 -0.665481 -2.0278e-20)
(0.586564 -0.604951 2.59309e-20)
(0.689378 -0.671299 6.32357e-21)
(0.749389 -0.682208 -4.09095e-20)
(0.620877 -0.603513 -8.781e-20)
(0.728955 -0.673353 -7.9474e-20)
(0.790786 -0.687155 1.19699e-20)
(0.824527 -0.668613 -3.74511e-20)
(0.767402 -0.671677 2.99692e-20)
(0.831476 -0.688586 3.75532e-20)
(0.865045 -0.672232 5.32547e-20)
(0.882272 -0.639765 -1.56912e-20)
(0.871117 -0.686538 -1.22677e-19)
(0.904907 -0.672691 -4.84878e-20)
(0.920809 -0.641822 -1.04427e-21)
(0.928401 -0.604665 1.70138e-20)
(0.943812 -0.670039 -2.11152e-20)
(0.958713 -0.641092 1.09186e-19)
(0.964424 -0.605124 -2.1542e-20)
(0.966605 -0.567992 -5.22331e-21)
(0.995732 -0.637637 -8.77817e-20)
(0.999813 -0.603143 1.13726e-19)
(0.999944 -0.566964 2.47628e-21)
(0.999047 -0.531883 2.77009e-20)
(1.03263 -0.563803 -3.00816e-20)
(1.02974 -0.529564 3.77042e-20)
(1.02699 -0.497193 -3.54199e-20)
(1.05975 -0.525382 -5.46179e-21)
(1.05516 -0.493809 -9.96314e-21)
(1.05122 -0.464211 5.83927e-20)
(1.08264 -0.488799 -8.60375e-22)
(1.07707 -0.459985 5.78142e-21)
(1.07232 -0.433001 6.24154e-20)
(1.06836 -0.407738 1.2038e-20)
(1.09603 -0.428135 -6.88917e-20)
(1.09077 -0.403549 7.95739e-21)
(1.08636 -0.380476 1.34968e-20)
(1.10704 -0.375826 2.64642e-21)
(1.10249 -0.354783 5.82848e-20)
(1.09899 -0.33499 -4.29103e-20)
(1.11721 -0.330638 6.42688e-21)
(1.11395 -0.31254 4.88419e-20)
(1.11149 -0.295736 -4.84516e-20)
(1.12743 -0.291639 -3.40172e-20)
(1.12403 -0.277209 -2.90999e-20)
(1.12079 -0.262626 8.55887e-21)
(1.1345 -0.258797 -2.39636e-22)
(1.12206 0.199151 -3.26721e-21)
(1.11319 0.183915 -5.16221e-21)
(1.1095 0.143546 2.96171e-21)
(1.10455 0.127879 1.22493e-22)
(1.09823 0.106536 3.96435e-23)
(1.09617 0.0919145 -2.05174e-21)
(1.09099 0.0820628 -8.47753e-22)
(1.08437 0.0710161 6.95341e-22)
(1.08149 0.0601336 -1.45078e-23)
(1.07976 0.0527288 5.52017e-22)
(1.07647 0.0478728 7.83447e-23)
(1.11168 0.201382 -5.45487e-21)
(1.10613 0.186763 6.3491e-21)
(1.10398 0.146319 -2.60901e-21)
(1.10028 0.129992 7.09167e-21)
(1.09465 0.108384 3.1399e-21)
(1.09342 0.0931284 -4.11352e-21)
(1.0889 0.0834515 3.59314e-22)
(1.08229 0.0723083 1.03387e-21)
(1.07956 0.0608376 -7.13249e-22)
(1.07837 0.0531521 8.21533e-22)
(1.0755 0.0485306 -1.06847e-21)
(1.07034 0.043849 1.846e-22)
(1.0659 0.0366745 2.35767e-23)
(1.06381 0.0324151 4.51517e-23)
(1.06003 0.0256718 1.32565e-22)
(1.06094 0.0225258 -1.69437e-22)
(1.05607 0.0198022 -3.95715e-22)
(1.05397 0.0147527 2.26104e-22)
(1.05237 0.00878736 -3.66052e-22)
(1.05496 0.00555112 4.00148e-22)
(1.05078 0.00470579 2.38225e-23)
(1.0514 -0.00255339 -1.21851e-21)
(1.12213 -0.20778 7.53388e-21)
(1.11812 -0.191254 -2.89236e-21)
(1.11656 -0.150543 -6.88041e-22)
(1.11133 -0.131335 -1.2679e-21)
(1.10799 -0.110194 1.69646e-21)
(1.1013 -0.097406 2.36294e-21)
(1.09307 -0.0840855 -7.7315e-22)
(1.08792 -0.0696569 -3.23739e-22)
(1.08395 -0.0629139 -9.79527e-24)
(1.07569 -0.0529863 -9.90223e-23)
(1.07364 -0.044742 -1.7645e-22)
(1.06707 -0.0392311 4.29212e-22)
(1.06517 -0.0304548 -4.95948e-22)
(1.06287 -0.0260169 -3.71823e-23)
(1.0623 -0.0221919 1.9793e-22)
(1.05763 -0.0194871 -9.90479e-23)
(1.05606 -0.0140903 6.45128e-22)
(1.05474 -0.00993848 -3.81512e-23)
(1.05622 -0.006602 -3.07563e-24)
(1.05495 -0.00600137 -2.58087e-22)
(1.05226 -0.00232812 2.88945e-22)
(1.1329 -0.205565 -9.10117e-22)
(1.12558 -0.188372 2.20675e-21)
(1.12236 -0.14752 -4.8637e-21)
(1.11585 -0.129122 -1.49942e-21)
(1.11133 -0.108098 -2.40848e-21)
(1.1039 -0.0953387 2.25892e-21)
(1.09548 -0.0821187 9.10689e-22)
(1.09002 -0.0683228 -6.96301e-22)
)
;

boundaryField
{
    inlet
    {
        type            uniformFixedValue;
        uniformValue    constant (1 0 0);
        value           nonuniform 0();
    }
    outlet
    {
        type            pressureInletOutletVelocity;
        value           nonuniform 0();
    }
    cylinder
    {
        type            fixedValue;
        value           uniform (0 0 0);
    }
    top
    {
        type            symmetryPlane;
    }
    bottom
    {
        type            symmetryPlane;
    }
    defaultFaces
    {
        type            empty;
    }
    procBoundary11to10
    {
        type            processor;
        value           nonuniform List<vector> 
123
(
(1.0994 0.273923 -3.28339e-20)
(1.09685 0.259084 4.91081e-21)
(1.08802 0.308781 -4.39782e-20)
(1.0994 0.273923 -3.28339e-20)
(1.08617 0.291864 1.27761e-20)
(1.07485 0.350644 2.04519e-20)
(1.08802 0.308781 -4.39782e-20)
(1.07218 0.330653 1.00042e-20)
(1.07485 0.350644 2.04519e-20)
(1.05746 0.375613 -3.5194e-20)
(1.04045 0.427543 -2.9716e-20)
(1.05746 0.375613 -3.5194e-20)
(1.03794 0.401981 6.68743e-20)
(1.04045 0.427543 -2.9716e-20)
(1.01735 0.457667 -7.61026e-20)
(1.01735 0.457667 -7.61026e-20)
(0.990876 0.489325 -6.08559e-20)
(0.959097 0.557976 2.67947e-21)
(0.990876 0.489325 -6.08559e-20)
(0.96048 0.522423 1.69892e-22)
(0.959097 0.557976 2.67947e-21)
(0.920865 0.594365 3.12406e-21)
(0.920865 0.594365 3.12406e-21)
(0.884555 0.591221 -6.23174e-21)
(0.835963 0.624096 7.85097e-21)
(0.835963 0.624096 7.85097e-21)
(0.776383 0.650867 7.73834e-20)
(0.776383 0.650867 7.73834e-20)
(0.70073 0.662967 3.71647e-20)
(0.70073 0.662967 3.71647e-20)
(0.602186 0.645934 -4.60473e-20)
(0.602186 0.645934 -4.60473e-20)
(0.561579 0.632228 1.2062e-19)
(0.436951 0.565064 -1.57428e-19)
(0.436951 0.565064 -1.57428e-19)
(0.400817 0.547701 2.6447e-20)
(0.255421 0.409413 2.22484e-19)
(0.255421 0.409413 2.22484e-19)
(0.228615 0.391992 -5.96102e-20)
(0.0832288 0.16734 6.16925e-20)
(0.0842512 -0.169667 -3.86226e-19)
(0.231556 -0.398406 -1.83811e-19)
(0.258468 -0.415532 1.96643e-21)
(0.258468 -0.415532 1.96643e-21)
(0.405486 -0.556708 2.01983e-19)
(0.441753 -0.573701 -4.18566e-20)
(0.441753 -0.573701 -4.18566e-20)
(0.567584 -0.64257 8.05772e-20)
(0.608325 -0.655897 -6.27809e-20)
(0.608325 -0.655897 -6.27809e-20)
(0.707625 -0.673729 1.7019e-20)
(0.707625 -0.673729 1.7019e-20)
(0.783647 -0.661807 -2.28212e-20)
(0.783647 -0.661807 -2.28212e-20)
(0.843354 -0.634879 -4.6275e-20)
(0.843354 -0.634879 -4.6275e-20)
(0.891954 -0.601708 -1.41772e-20)
(0.891954 -0.601708 -1.41772e-20)
(0.93279 -0.566818 8.69664e-21)
(0.93279 -0.566818 8.69664e-21)
(0.967831 -0.532263 9.66797e-21)
(0.967831 -0.532263 9.66797e-21)
(0.998239 -0.498873 1.87943e-20)
(0.998239 -0.498873 1.87943e-20)
(1.02477 -0.466942 2.29322e-20)
(1.02477 -0.466942 2.29322e-20)
(1.04798 -0.43656 3.54718e-20)
(1.04798 -0.43656 3.54718e-20)
(1.0454 -0.41072 -3.47034e-20)
(1.06513 -0.384068 3.41259e-20)
(1.06513 -0.384068 3.41259e-20)
(1.08282 -0.35882 -2.44543e-20)
(1.08282 -0.35882 -2.44543e-20)
(1.08022 -0.338465 2.47356e-20)
(1.09659 -0.316331 2.94088e-22)
(1.09659 -0.316331 2.94088e-22)
(1.09499 -0.29907 -9.32411e-21)
(1.10891 -0.280925 -3.12803e-20)
(1.10891 -0.280925 -3.12803e-20)
(1.10663 -0.265804 1.71639e-20)
(1.10102 0.203195 6.41481e-21)
(1.09897 0.18919 -4.93729e-21)
(1.09839 0.148984 -2.94545e-21)
(1.09594 0.132037 4.49288e-21)
(1.09093 0.110201 -1.25831e-21)
(1.0906 0.0942617 -3.63594e-21)
(1.08683 0.0848021 2.26024e-21)
(1.08019 0.0736492 -9.45813e-22)
(1.07755 0.0615351 -6.9479e-22)
(1.07696 0.0534928 -8.47246e-22)
(1.07457 0.0491442 -4.19121e-22)
(1.06938 0.0446915 1.33854e-23)
(1.06477 0.0373237 1.43962e-22)
(1.06271 0.0329125 -6.72252e-23)
(1.05901 0.0258708 3.30189e-22)
(1.06027 0.0227851 8.44818e-23)
(1.05525 0.0203587 -4.34747e-22)
(1.0529 0.0151148 3.3616e-22)
(1.05139 0.00868494 -3.37554e-22)
(1.05432 0.00566355 -2.18673e-22)
(1.04975 0.0050458 9.57676e-22)
(1.05052 -0.00281839 -1.53588e-21)
(1.11109 -0.209579 -4.47023e-21)
(1.11058 -0.193703 3.59495e-21)
(1.1107 -0.153456 2.18138e-21)
(1.10671 -0.133436 -1.13441e-21)
(1.10458 -0.112174 -8.44038e-22)
(1.09872 -0.0994269 2.51347e-21)
(1.09064 -0.0860783 -1.15907e-21)
(1.08577 -0.0709728 5.03659e-22)
(1.08233 -0.0642227 2.18388e-22)
(1.07407 -0.0541682 -1.68587e-22)
(1.07225 -0.0456141 -4.97989e-22)
(1.06566 -0.0400628 3.03505e-22)
(1.06385 -0.0308276 -8.06999e-22)
(1.06188 -0.0261661 5.83634e-22)
(1.06163 -0.0225121 -6.07552e-22)
(1.05681 -0.0199698 6.81764e-23)
(1.0551 -0.0143181 5.78048e-22)
(1.0539 -0.00984692 2.44575e-22)
(1.05574 -0.00653409 -4.38526e-22)
(1.05445 -0.0062931 1.1311e-23)
(1.05445 -0.0062931 1.1311e-23)
)
;
    }
    procBoundary11to12
    {
        type            processor;
        value           nonuniform List<vector> 
116
(
(1.13685 0.247271 5.54831e-21)
(1.13283 0.279162 1.46761e-20)
(1.12837 0.265509 7.07405e-21)
(1.12837 0.265509 7.07405e-21)
(1.13114 0.335378 -4.72107e-20)
(1.12574 0.317235 7.78181e-21)
(1.12142 0.300109 -9.78897e-20)
(1.12142 0.300109 -9.78897e-20)
(1.1186 0.361426 -1.65121e-20)
(1.1186 0.361426 -1.65121e-20)
(1.11094 0.412855 1.37915e-20)
(1.1044 0.389297 -8.30246e-20)
(1.1044 0.389297 -8.30246e-20)
(1.10142 0.472765 8.42734e-20)
(1.09431 0.44503 -4.97265e-20)
(1.09431 0.44503 -4.97265e-20)
(1.08113 0.50983 -5.41726e-20)
(1.08113 0.50983 -5.41726e-20)
(1.0567 0.548878 -2.18873e-19)
(1.0567 0.548878 -2.18873e-19)
(1.02387 0.621826 -4.34141e-20)
(1.02657 0.588962 3.92738e-20)
(1.02657 0.588962 3.92738e-20)
(0.97393 0.654819 -2.58683e-20)
(0.97393 0.654819 -2.58683e-20)
(0.902341 0.672078 1.45286e-19)
(0.902341 0.672078 1.45286e-19)
(0.798273 0.658432 -7.16607e-20)
(0.798273 0.658432 -7.16607e-20)
(0.649082 0.592375 -2.05305e-20)
(0.649082 0.592375 -2.05305e-20)
(0.443506 0.447128 -9.06812e-21)
(0.418711 0.450844 -1.75214e-20)
(0.418711 0.450844 -1.75214e-20)
(0.165756 0.19542 -1.88967e-20)
(0.165756 0.19542 -1.88967e-20)
(0.166581 -0.196558 -3.99274e-20)
(0.166581 -0.196558 -3.99274e-20)
(0.421622 -0.454836 -8.67029e-21)
(0.421622 -0.454836 -8.67029e-21)
(0.446237 -0.450724 -7.39703e-20)
(0.653691 -0.598453 -5.71722e-20)
(0.653691 -0.598453 -5.71722e-20)
(0.80434 -0.666334 -3.1424e-20)
(0.80434 -0.666334 -3.1424e-20)
(0.909359 -0.681075 -3.71074e-20)
(0.909359 -0.681075 -3.71074e-20)
(0.981461 -0.664345 -2.08884e-19)
(0.981461 -0.664345 -2.08884e-19)
(1.03162 -0.631532 1.36935e-19)
(1.03436 -0.598793 -1.42429e-20)
(1.03436 -0.598793 -1.42429e-20)
(1.06449 -0.55859 2.44165e-20)
(1.06449 -0.55859 2.44165e-20)
(1.08894 -0.519421 -5.78429e-20)
(1.08894 -0.519421 -5.78429e-20)
(1.10931 -0.482249 5.25299e-20)
(1.10221 -0.454342 -5.75926e-20)
(1.10221 -0.454342 -5.75926e-20)
(1.11904 -0.422036 -2.61929e-20)
(1.11255 -0.398218 4.79161e-20)
(1.11255 -0.398218 4.79161e-20)
(1.12708 -0.370178 -1.0294e-20)
(1.12159 -0.349812 -4.93427e-20)
(1.12159 -0.349812 -4.93427e-20)
(1.13482 -0.325454 -3.14803e-20)
(1.13073 -0.307954 1.81053e-20)
(1.13073 -0.307954 1.81053e-20)
(1.14279 -0.286816 -1.08214e-19)
(1.13862 -0.272789 2.2094e-21)
(1.13862 -0.272789 2.2094e-21)
(1.14773 -0.254345 3.91912e-20)
(1.13213 0.196516 -3.43996e-21)
(1.1201 0.180688 -3.70212e-22)
(1.11494 0.140679 -5.96382e-21)
(1.10875 0.125689 2.64828e-21)
(1.10173 0.104647 3.53385e-23)
(1.09885 0.0906277 1.08997e-21)
(1.09309 0.0806461 4.95631e-22)
(1.08643 0.0697618 1.39232e-21)
(1.08335 0.059415 9.44204e-22)
(1.08112 0.0522346 -7.26538e-22)
(1.07749 0.047182 -1.18417e-23)
(1.07134 0.0430333 -3.07403e-22)
(1.07134 0.0430333 -3.07403e-22)
(1.06702 0.036056 -1.35748e-22)
(1.06489 0.0319224 -1.4278e-22)
(1.06105 0.0254418 1.21424e-23)
(1.06164 0.0222459 -3.89644e-22)
(1.0569 0.0192854 1.19704e-22)
(1.05502 0.0144154 2.60391e-22)
(1.05333 0.00885248 1.39852e-22)
(1.05561 0.00544312 7.37157e-22)
(1.05178 0.00440194 -5.04486e-23)
(1.08558 -0.061581 5.76765e-22)
(1.07731 -0.0518169 -6.54894e-23)
(1.07502 -0.0438743 8.31908e-24)
(1.06846 -0.0384163 1.29519e-21)
(1.06645 -0.0300651 -6.64706e-22)
(1.06385 -0.0258123 -5.89194e-23)
(1.06299 -0.0218547 -2.21061e-22)
(1.05845 -0.0190362 -2.80489e-22)
(1.05699 -0.0138734 -8.63443e-23)
(1.05555 -0.00998862 7.28343e-22)
(1.05673 -0.00663872 7.95398e-22)
(1.05548 -0.00574421 -2.32386e-22)
(1.05309 -0.00213788 1.729e-22)
(1.14339 -0.202949 -8.76148e-21)
(1.13292 -0.1851 3.72068e-22)
(1.1281 -0.144394 5.00327e-21)
(1.1203 -0.126787 6.9555e-22)
(1.11465 -0.105894 -2.88614e-21)
(1.10653 -0.0932313 -9.16049e-22)
(1.09787 -0.0801689 -3.56506e-22)
(1.08558 -0.061581 5.76765e-22)
(1.09207 -0.0669668 -8.425e-22)
)
;
    }
}


// ************************************************************************* //
