/*--------------------------------*- C++ -*----------------------------------*\
  =========                 |
  \\      /  F ield         | OpenFOAM: The Open Source CFD Toolbox
   \\    /   O peration     | Website:  https://openfoam.org
    \\  /    A nd           | Version:  7
     \\/     M anipulation  |
\*---------------------------------------------------------------------------*/
FoamFile
{
    version     2.0;
    format      ascii;
    class       volScalarField;
    location    "15";
    object      p;
}
// * * * * * * * * * * * * * * * * * * * * * * * * * * * * * * * * * * * * * //

dimensions      [0 2 -2 0 0 0 0];

internalField   nonuniform List<scalar> 
8820
(
-0.278449
-0.279963
-0.2809
-0.281598
-0.282194
-0.28271
-0.283171
-0.283594
-0.283986
-0.284349
-0.284677
-0.284966
-0.28521
-0.285407
-0.28556
-0.285677
-0.285781
-0.285911
-0.286053
-0.286129
-0.28674
-0.278672
-0.280165
-0.281091
-0.281779
-0.282366
-0.282874
-0.283327
-0.283743
-0.284129
-0.284484
-0.284804
-0.285083
-0.285316
-0.285499
-0.285632
-0.285725
-0.285798
-0.285892
-0.285994
-0.28602
-0.286584
-0.279109
-0.280562
-0.281462
-0.282131
-0.282701
-0.283193
-0.283632
-0.284033
-0.284405
-0.284745
-0.285049
-0.285311
-0.285521
-0.285675
-0.285773
-0.285819
-0.285834
-0.285857
-0.285879
-0.28581
-0.286282
-0.279751
-0.281145
-0.282009
-0.282649
-0.283193
-0.283661
-0.284077
-0.284457
-0.284808
-0.285126
-0.285408
-0.285642
-0.285821
-0.285935
-0.28598
-0.285959
-0.285887
-0.285805
-0.28571
-0.285499
-0.285828
-0.280586
-0.281905
-0.28272
-0.283323
-0.283832
-0.284268
-0.284654
-0.285006
-0.285329
-0.285619
-0.285871
-0.286072
-0.28621
-0.286273
-0.286252
-0.286143
-0.285959
-0.28574
-0.285489
-0.28509
-0.285213
-0.2816
-0.282827
-0.283585
-0.284141
-0.284607
-0.285003
-0.285352
-0.285668
-0.285956
-0.286213
-0.286428
-0.286589
-0.28668
-0.286683
-0.286585
-0.286373
-0.286054
-0.285665
-0.285219
-0.284591
-0.284426
-0.282774
-0.283898
-0.284589
-0.285089
-0.285504
-0.285853
-0.286156
-0.28643
-0.286677
-0.286893
-0.287067
-0.287183
-0.287221
-0.28716
-0.286977
-0.286652
-0.286179
-0.285589
-0.28491
-0.284015
-0.283426
-0.284091
-0.285101
-0.285716
-0.286154
-0.286509
-0.286802
-0.287052
-0.287275
-0.287474
-0.287644
-0.287772
-0.28784
-0.287823
-0.287695
-0.287425
-0.286982
-0.286345
-0.285529
-0.284584
-0.283399
-0.282125
-0.285529
-0.28642
-0.286953
-0.287321
-0.287607
-0.287834
-0.288023
-0.288187
-0.28833
-0.288448
-0.288525
-0.288542
-0.288471
-0.288277
-0.287922
-0.287365
-0.286564
-0.285514
-0.284285
-0.282838
-0.280633
-0.287072
-0.28784
-0.288285
-0.288574
-0.288784
-0.288936
-0.289052
-0.289147
-0.289227
-0.289285
-0.289307
-0.28927
-0.289144
-0.288888
-0.288457
-0.287793
-0.286839
-0.285565
-0.283996
-0.281991
-0.279631
-0.288702
-0.289347
-0.2897
-0.289903
-0.290025
-0.290091
-0.290123
-0.290139
-0.290144
-0.290134
-0.290094
-0.29
-0.289818
-0.289505
-0.289005
-0.288248
-0.287158
-0.285675
-0.283779
-0.281224
-0.278296
-0.290408
-0.290931
-0.291187
-0.291296
-0.29132
-0.291287
-0.291223
-0.291147
-0.291065
-0.290975
-0.290864
-0.290706
-0.290466
-0.290097
-0.289534
-0.288697
-0.287488
-0.285815
-0.28361
-0.280533
-0.276647
-0.292181
-0.292587
-0.292742
-0.292747
-0.292662
-0.292516
-0.29234
-0.292156
-0.291973
-0.29179
-0.291595
-0.291363
-0.291058
-0.290627
-0.290002
-0.289091
-0.287777
-0.285927
-0.283433
-0.279891
-0.274723
-0.294019
-0.294313
-0.294362
-0.294254
-0.294046
-0.293772
-0.293468
-0.293158
-0.292856
-0.292564
-0.29227
-0.29195
-0.291566
-0.291064
-0.290368
-0.289379
-0.287959
-0.28594
-0.283165
-0.27927
-0.272537
-0.295927
-0.296113
-0.296053
-0.29582
-0.295473
-0.295055
-0.294603
-0.29415
-0.293711
-0.29329
-0.292879
-0.292454
-0.291975
-0.291384
-0.2906
-0.289515
-0.287977
-0.285785
-0.282708
-0.27862
-0.27015
-0.297919
-0.298001
-0.297823
-0.297455
-0.296951
-0.29637
-0.295753
-0.295135
-0.294539
-0.293972
-0.293424
-0.292874
-0.292279
-0.291578
-0.290684
-0.289478
-0.287798
-0.285419
-0.282003
-0.277894
-0.267718
-0.300016
-0.299994
-0.299689
-0.299168
-0.298495
-0.297732
-0.296929
-0.296128
-0.295355
-0.294621
-0.293918
-0.293223
-0.292492
-0.291658
-0.290629
-0.289274
-0.287423
-0.284845
-0.28106
-0.277051
-0.265491
-0.302248
-0.302119
-0.301672
-0.300984
-0.300123
-0.299158
-0.298151
-0.297148
-0.296181
-0.295262
-0.294386
-0.293528
-0.29264
-0.291653
-0.290464
-0.288934
-0.286883
-0.28409
-0.279954
-0.276033
-0.263705
-0.304652
-0.304402
-0.303804
-0.30293
-0.30186
-0.300676
-0.299446
-0.298224
-0.297047
-0.295928
-0.294863
-0.293825
-0.292764
-0.291601
-0.290229
-0.288502
-0.286236
-0.283208
-0.278813
-0.274734
-0.262341
-0.307272
-0.306884
-0.306115
-0.305035
-0.303738
-0.302316
-0.300847
-0.299393
-0.297991
-0.29666
-0.295392
-0.294159
-0.292903
-0.291543
-0.289965
-0.288022
-0.285543
-0.282297
-0.277861
-0.273221
-0.261402
-0.31016
-0.309606
-0.308643
-0.307336
-0.305792
-0.304115
-0.302394
-0.300693
-0.299056
-0.2975
-0.296016
-0.29457
-0.293098
-0.291512
-0.289696
-0.287511
-0.284818
-0.281413
-0.277256
-0.272108
-0.262884
-0.313364
-0.312613
-0.311428
-0.309871
-0.30806
-0.306113
-0.304126
-0.302169
-0.300286
-0.298493
-0.296777
-0.295095
-0.293375
-0.291523
-0.289422
-0.286946
-0.283996
-0.280438
-0.276561
-0.271839
-0.270682
-0.31694
-0.315949
-0.314512
-0.312682
-0.310584
-0.308351
-0.306086
-0.303862
-0.301723
-0.299679
-0.297709
-0.295759
-0.293748
-0.291572
-0.289119
-0.286281
-0.282992
-0.279214
-0.275217
-0.270965
-0.2688
-0.32094
-0.319661
-0.317938
-0.315809
-0.313405
-0.310871
-0.308317
-0.305816
-0.303407
-0.301091
-0.298835
-0.296572
-0.294209
-0.291636
-0.288746
-0.285452
-0.281721
-0.277562
-0.273214
-0.268655
-0.265132
-0.325412
-0.323791
-0.321748
-0.319294
-0.316564
-0.313715
-0.31086
-0.308068
-0.305369
-0.302751
-0.300165
-0.297527
-0.294733
-0.291673
-0.28825
-0.284401
-0.280126
-0.275458
-0.270599
-0.265502
-0.260959
-0.330404
-0.328381
-0.32598
-0.323176
-0.320101
-0.316922
-0.313751
-0.31065
-0.307634
-0.304671
-0.301693
-0.2986
-0.29528
-0.291631
-0.287576
-0.283084
-0.278183
-0.272931
-0.267503
-0.261843
-0.256483
-0.335953
-0.333469
-0.330673
-0.327494
-0.324054
-0.32053
-0.317026
-0.313589
-0.310213
-0.306845
-0.303393
-0.299746
-0.295795
-0.291454
-0.286678
-0.281473
-0.275899
-0.270035
-0.264042
-0.257858
-0.251964
-0.342094
-0.339087
-0.335861
-0.332282
-0.32846
-0.324571
-0.320709
-0.316898
-0.313105
-0.309249
-0.305222
-0.300909
-0.296215
-0.291085
-0.285516
-0.279556
-0.273292
-0.266822
-0.260294
-0.253658
-0.247333
-0.348849
-0.34526
-0.341571
-0.337573
-0.333349
-0.329074
-0.324819
-0.320578
-0.316287
-0.311841
-0.307119
-0.302019
-0.296474
-0.290474
-0.284064
-0.27733
-0.270384
-0.263334
-0.256311
-0.249278
-0.242608
-0.356233
-0.352007
-0.347827
-0.34339
-0.338745
-0.334052
-0.329356
-0.32461
-0.319718
-0.314556
-0.309009
-0.302998
-0.296507
-0.289577
-0.282301
-0.274797
-0.267192
-0.259597
-0.252117
-0.244732
-0.237743
-0.364248
-0.359336
-0.354641
-0.349749
-0.344658
-0.339508
-0.334302
-0.328952
-0.323331
-0.317312
-0.310801
-0.303768
-0.296253
-0.288357
-0.280211
-0.271958
-0.263727
-0.25562
-0.247717
-0.240011
-0.232724
-0.372882
-0.367241
-0.362013
-0.356651
-0.351086
-0.345421
-0.339614
-0.333534
-0.327037
-0.320008
-0.3124
-0.304247
-0.295657
-0.28678
-0.277781
-0.26881
-0.259988
-0.251403
-0.243105
-0.2351
-0.227523
-0.382103
-0.375702
-0.369929
-0.364079
-0.358
-0.351746
-0.345221
-0.338262
-0.330723
-0.322532
-0.313708
-0.304362
-0.294668
-0.284818
-0.274994
-0.265341
-0.255964
-0.24693
-0.238264
-0.229976
-0.222119
-0.391859
-0.384677
-0.378352
-0.371996
-0.365347
-0.358405
-0.35102
-0.343012
-0.334261
-0.324763
-0.314625
-0.30404
-0.293238
-0.28244
-0.271828
-0.261533
-0.251636
-0.24218
-0.233169
-0.224614
-0.216487
-0.402073
-0.394103
-0.387223
-0.380334
-0.373045
-0.36529
-0.35688
-0.347639
-0.33751
-0.326581
-0.31506
-0.303216
-0.291324
-0.279614
-0.268257
-0.257359
-0.246976
-0.237125
-0.227792
-0.218986
-0.210605
-0.412639
-0.403888
-0.396454
-0.388995
-0.380973
-0.372258
-0.362639
-0.351981
-0.340321
-0.327864
-0.314921
-0.301827
-0.288879
-0.276304
-0.264246
-0.252786
-0.24195
-0.231733
-0.222102
-0.213063
-0.204448
-0.423425
-0.413914
-0.405926
-0.397848
-0.38898
-0.379135
-0.368115
-0.355864
-0.342546
-0.328499
-0.314126
-0.29981
-0.285856
-0.272467
-0.259758
-0.247777
-0.236523
-0.225967
-0.216068
-0.206814
-0.197992
-0.434266
-0.424031
-0.415488
-0.406726
-0.396878
-0.385722
-0.373109
-0.359108
-0.344041
-0.328374
-0.312593
-0.297107
-0.282204
-0.268059
-0.254749
-0.242289
-0.230653
-0.219793
-0.209656
-0.200212
-0.191212
-0.44497
-0.43406
-0.424956
-0.41543
-0.404451
-0.391794
-0.377411
-0.361538
-0.344666
-0.327389
-0.310248
-0.293655
-0.277872
-0.263032
-0.249174
-0.236281
-0.224302
-0.213173
-0.202833
-0.193226
-0.184086
-0.455313
-0.44379
-0.434115
-0.423731
-0.411459
-0.397117
-0.380813
-0.362982
-0.344293
-0.325445
-0.307014
-0.289394
-0.272805
-0.257334
-0.242984
-0.229706
-0.217429
-0.206071
-0.195566
-0.18583
-0.176593
-0.465049
-0.452985
-0.442722
-0.431372
-0.417644
-0.401451
-0.383109
-0.363279
-0.342801
-0.322455
-0.302823
-0.284264
-0.266948
-0.250917
-0.236133
-0.222523
-0.209994
-0.198452
-0.187826
-0.177996
-0.168713
-0.473912
-0.461386
-0.450511
-0.438082
-0.422739
-0.404558
-0.384105
-0.362283
-0.340081
-0.318333
-0.297605
-0.278204
-0.260248
-0.243728
-0.228575
-0.214689
-0.20196
-0.190283
-0.179579
-0.169698
-0.160426
-0.48162
-0.468718
-0.457201
-0.443577
-0.42648
-0.406208
-0.383622
-0.359858
-0.336034
-0.313004
-0.291297
-0.27116
-0.252652
-0.235722
-0.220266
-0.206164
-0.193291
-0.181532
-0.1708
-0.160914
-0.151712
-0.487883
-0.474693
-0.462502
-0.447573
-0.42861
-0.406192
-0.381498
-0.355888
-0.330571
-0.306398
-0.283839
-0.263077
-0.244113
-0.226854
-0.211168
-0.196913
-0.183954
-0.172168
-0.16146
-0.151622
-0.142555
-0.492411
-0.479021
-0.466124
-0.449795
-0.428887
-0.404318
-0.377592
-0.350269
-0.323617
-0.298453
-0.275179
-0.253909
-0.234589
-0.217086
-0.201244
-0.186904
-0.173918
-0.162159
-0.151526
-0.141796
-0.132925
-0.494919
-0.481419
-0.467785
-0.449982
-0.427094
-0.400421
-0.371787
-0.342918
-0.315108
-0.289118
-0.265273
-0.243616
-0.224044
-0.206388
-0.190469
-0.176112
-0.163157
-0.151474
-0.140959
-0.131382
-0.122744
-0.495139
-0.481615
-0.467221
-0.447898
-0.423042
-0.394362
-0.363986
-0.333767
-0.304992
-0.27835
-0.254083
-0.232168
-0.212452
-0.194738
-0.178824
-0.164523
-0.151661
-0.140101
-0.129738
-0.120313
-0.11185
-0.492823
-0.479357
-0.464194
-0.443338
-0.416573
-0.386032
-0.354115
-0.322766
-0.293233
-0.26612
-0.241586
-0.219543
-0.199797
-0.182122
-0.166301
-0.152131
-0.13943
-0.12806
-0.1179
-0.108604
-0.100094
-0.487751
-0.474424
-0.458495
-0.436131
-0.407565
-0.375352
-0.342128
-0.309884
-0.279808
-0.25241
-0.227766
-0.205729
-0.186069
-0.168536
-0.152897
-0.138939
-0.126475
-0.115373
-0.105497
-0.0963955
-0.0877687
-0.479739
-0.466627
-0.449954
-0.426144
-0.39593
-0.362272
-0.327997
-0.295109
-0.264711
-0.237216
-0.212621
-0.190727
-0.17127
-0.153982
-0.138622
-0.124959
-0.112809
-0.102045
-0.0924724
-0.0835279
-0.0755467
-0.468638
-0.455814
-0.438441
-0.413286
-0.381618
-0.346773
-0.311723
-0.278445
-0.247949
-0.220546
-0.19616
-0.174546
-0.155414
-0.138474
-0.123498
-0.110212
-0.0984514
-0.0880849
-0.0788626
-0.0702298
-0.062952
-0.454344
-0.44188
-0.423871
-0.397508
-0.364616
-0.328865
-0.293325
-0.259919
-0.229547
-0.202424
-0.178408
-0.157208
-0.138536
-0.122056
-0.107533
-0.0947155
-0.0834214
-0.0735167
-0.0647165
-0.0564899
-0.049874
-0.436797
-0.42476
-0.406201
-0.378801
-0.344944
-0.308587
-0.27285
-0.239574
-0.209545
-0.182888
-0.159408
-0.138768
-0.120653
-0.104743
-0.0907733
-0.0785038
-0.0677492
-0.0583717
-0.0500582
-0.0422882
-0.0363201
-0.415982
-0.404438
-0.385437
-0.357197
-0.322656
-0.286005
-0.250364
-0.217472
-0.188003
-0.162
-0.139201
-0.119257
-0.101822
-0.0865824
-0.0732609
-0.0616186
-0.0514734
-0.0426856
-0.0349121
-0.0276364
-0.022335
-0.391931
-0.380942
-0.361624
-0.332768
-0.297846
-0.261215
-0.225951
-0.193691
-0.164995
-0.139818
-0.117855
-0.0987357
-0.0821004
-0.0676308
-0.0550473
-0.0441099
-0.034641
-0.0264995
-0.019312
-0.0125668
-0.00796043
-0.364719
-0.354344
-0.334854
-0.305631
-0.270641
-0.234322
-0.199706
-0.168327
-0.140604
-0.116425
-0.095446
-0.0772777
-0.0615542
-0.0479534
-0.036194
-0.0260364
-0.0173082
-0.00986627
-0.00330741
0.00287435
0.00677749
-0.334466
-0.324761
-0.305266
-0.275952
-0.241172
-0.20541
-0.171766
-0.141494
-0.114937
-0.0919168
-0.0720606
-0.0549655
-0.040261
-0.0276234
-0.0167711
-0.00746592
0.000458507
0.00714746
0.0130349
0.0186295
0.0218552
-0.301319
-0.292358
-0.27305
-0.24388
-0.209472
-0.174731
-0.142277
-0.113322
-0.0881092
-0.0664006
-0.0477983
-0.0318911
-0.0183068
-0.00672187
0.00314476
0.0115275
0.0185859
0.0244691
0.0296452
0.034632
0.037178
-0.265455
-0.257347
-0.238386
-0.209415
-0.175963
-0.142427
-0.111397
-0.0839574
-0.060252
-0.0399945
-0.0227677
-0.00815548
0.00421422
0.0146634
0.0234708
0.0308657
0.037002
0.0420391
0.0464779
0.0508124
0.0525267
-0.227076
-0.219959
-0.201335
-0.173079
-0.140772
-0.108687
-0.0793
-0.0535542
-0.0315056
-0.0128269
0.00291317
0.0161325
0.0272009
0.0364375
0.0441173
0.0504644
0.0556345
0.0598098
0.0635017
0.0670914
0.067751
-0.18641
-0.180452
-0.162316
-0.135053
-0.104116
-0.0737189
-0.0461702
-0.0222783
-0.00202004
0.0149657
0.0291192
0.0408574
0.0505457
0.0584987
0.064986
0.0702284
0.0743953
0.0776988
0.0806118
0.0833433
0.0831301
-0.143838
-0.139051
-0.121665
-0.0955657
-0.0662363
-0.0377387
-0.0122021
0.00969531
0.0280464
0.0432393
0.055719
0.0658985
0.0741369
0.0807418
0.0859751
0.0900555
0.0931716
0.0955522
0.097576
0.0993647
0.0989642
-0.0998015
-0.0959876
-0.0796161
-0.0548921
-0.0273851
-0.000973704
0.022401
0.0421839
0.0585288
0.0718443
0.0825764
0.0911317
0.097861
0.103062
0.106988
0.109853
0.11186
0.113216
0.114159
0.114871
0.114285
-0.0544687
-0.051682
-0.0364692
-0.0133195
0.0121745
0.0363408
0.0574286
0.0749982
0.0892563
0.100626
0.109551
0.11643
0.121603
0.125358
0.127935
0.129548
0.130399
0.130641
0.130279
0.129373
0.129092
-0.00817436
-0.00648463
0.00745291
0.0288547
0.0521724
0.0739632
0.0926646
0.107944
0.120054
0.129427
0.136501
0.141665
0.145247
0.147523
0.148726
0.149063
0.148723
0.147806
0.146259
0.144353
0.143523
0.038718
0.0392628
0.0518186
0.0713257
0.0923342
0.111648
0.127889
0.140825
0.150744
0.158085
0.16328
0.166704
0.168675
0.169455
0.169268
0.168311
0.166752
0.164649
0.161974
0.159153
0.157487
0.0858439
0.0852122
0.096293
0.113786
0.132384
0.149148
0.162881
0.17344
0.181146
0.186439
0.189741
0.191417
0.191768
0.191048
0.189468
0.187216
0.184439
0.181176
0.177436
0.17371
0.171112
0.132838
0.131011
0.140541
0.155929
0.172044
0.186216
0.197419
0.205591
0.21108
0.214326
0.215739
0.215669
0.214407
0.212193
0.209228
0.205688
0.201702
0.197302
0.192525
0.187886
0.184345
0.179336
0.176306
0.184229
0.197449
0.211042
0.222606
0.231281
0.237079
0.240367
0.241583
0.241125
0.239329
0.236472
0.232784
0.228453
0.223643
0.218471
0.212964
0.207177
0.20163
0.197143
0.224977
0.220749
0.22703
0.238047
0.249108
0.258078
0.264251
0.267707
0.26883
0.268051
0.265755
0.262265
0.257845
0.252712
0.247045
0.240995
0.234667
0.228085
0.221317
0.214876
0.209447
0.269407
0.263997
0.268622
0.277432
0.28598
0.292395
0.296117
0.297286
0.296296
0.293572
0.289486
0.284348
0.278409
0.271873
0.264908
0.257656
0.250209
0.242591
0.234878
0.227561
0.221206
0.312283
0.305717
0.308694
0.315319
0.321403
0.325328
0.326673
0.325627
0.322595
0.317993
0.31218
0.305452
0.298049
0.290161
0.281948
0.27354
0.26502
0.256409
0.247792
0.239625
0.232365
0.353272
0.345589
0.346947
0.351437
0.355133
0.356659
0.355721
0.352552
0.347565
0.341167
0.333703
0.325457
0.316654
0.307478
0.298075
0.288565
0.279024
0.26947
0.259993
0.251011
0.242875
0.392059
0.383306
0.383096
0.385529
0.386938
0.386179
0.383071
0.377891
0.371052
0.362953
0.353927
0.344244
0.33412
0.323726
0.313199
0.302649
0.292146
0.281707
0.271421
0.261661
0.252688
0.428344
0.418582
0.416875
0.417351
0.416598
0.413689
0.408547
0.40148
0.392908
0.383217
0.37273
0.361705
0.350345
0.338813
0.327237
0.315718
0.304317
0.293054
0.282015
0.271523
0.261758
0.461849
0.451146
0.448032
0.446676
0.443911
0.439006
0.43198
0.423171
0.412997
0.401836
0.39
0.377735
0.365237
0.352655
0.340112
0.327699
0.315472
0.303453
0.291721
0.280548
0.270045
0.492317
0.480752
0.476338
0.473297
0.468688
0.461962
0.453219
0.442823
0.431191
0.418694
0.405632
0.392241
0.378707
0.365173
0.351751
0.338527
0.325551
0.312846
0.300486
0.288691
0.277511
0.519515
0.507174
0.501585
0.497024
0.490759
0.482402
0.472124
0.46031
0.447377
0.433687
0.41953
0.405134
0.390676
0.376293
0.362089
0.348142
0.334499
0.321184
0.308265
0.295911
0.284122
0.543233
0.530213
0.523587
0.51769
0.509974
0.50019
0.488572
0.475521
0.461453
0.446721
0.43161
0.416338
0.401076
0.385952
0.371066
0.356489
0.342266
0.328421
0.315015
0.302171
0.289847
0.563292
0.549694
0.542184
0.535149
0.5262
0.515207
0.502454
0.488356
0.473328
0.457717
0.441798
0.425786
0.409843
0.394094
0.378631
0.363523
0.348809
0.334518
0.320701
0.307441
0.294662
0.579539
0.56547
0.557239
0.549277
0.539326
0.527353
0.51368
0.498734
0.482927
0.466603
0.450031
0.433419
0.416926
0.40067
0.384742
0.369203
0.354093
0.339441
0.325291
0.311692
0.298544
0.591849
0.577423
0.568642
0.559975
0.549264
0.536546
0.522176
0.506586
0.490191
0.473327
0.456259
0.439193
0.422282
0.405644
0.389362
0.373497
0.358087
0.343162
0.328762
0.314906
0.301476
0.60013
0.585462
0.57631
0.567167
0.555944
0.542725
0.527885
0.511864
0.495071
0.477844
0.460444
0.443072
0.425881
0.408984
0.392465
0.376382
0.360771
0.345662
0.331093
0.317064
0.303445
0.604317
0.589528
0.580187
0.570804
0.559321
0.545848
0.530772
0.514531
0.497538
0.480127
0.462559
0.445033
0.4277
0.410673
0.394034
0.37784
0.362127
0.346927
0.332272
0.318156
0.304443
0.60438
0.589589
0.580245
0.570859
0.559372
0.545895
0.530815
0.514572
0.497576
0.480162
0.462591
0.445063
0.427728
0.4107
0.394059
0.377864
0.36215
0.346949
0.332294
0.318177
0.304464
0.600318
0.585644
0.576484
0.567331
0.556096
0.542866
0.528016
0.511985
0.495184
0.477948
0.460541
0.443163
0.425966
0.409064
0.39254
0.376453
0.360839
0.345728
0.331157
0.317127
0.30351
0.592161
0.577725
0.56893
0.560246
0.549516
0.53678
0.522393
0.506788
0.490377
0.4735
0.456421
0.439344
0.422423
0.405776
0.389487
0.373616
0.358201
0.343272
0.328868
0.31501
0.301583
0.579971
0.565889
0.557639
0.549653
0.539677
0.527678
0.513982
0.499013
0.483187
0.466844
0.450256
0.433628
0.417121
0.400854
0.384915
0.369367
0.35425
0.339593
0.325439
0.311838
0.298693
0.563841
0.550226
0.542692
0.535627
0.526646
0.515621
0.502838
0.488712
0.473658
0.458023
0.442084
0.426052
0.410092
0.394328
0.378852
0.363733
0.34901
0.334712
0.32089
0.307626
0.294852
0.543894
0.530854
0.5242
0.518267
0.510512
0.50069
0.489035
0.475951
0.461851
0.447092
0.431955
0.41666
0.401377
0.386235
0.371333
0.356743
0.342508
0.328656
0.315243
0.302396
0.290077
0.520282
0.507918
0.502297
0.497695
0.491385
0.482983
0.472664
0.460811
0.447842
0.434118
0.419931
0.405509
0.391027
0.376622
0.3624
0.348437
0.334782
0.321457
0.308531
0.296173
0.284391
0.493184
0.481593
0.477143
0.474056
0.469396
0.46262
0.45383
0.44339
0.431717
0.419183
0.406087
0.392665
0.379104
0.365546
0.352104
0.338862
0.325872
0.313156
0.300788
0.288989
0.277817
0.462808
0.452076
0.448923
0.447517
0.444696
0.439737
0.432658
0.4238
0.413581
0.402379
0.390505
0.378207
0.365677
0.353069
0.340503
0.328071
0.315828
0.303797
0.292056
0.280879
0.270387
0.429386
0.419593
0.417844
0.418267
0.417454
0.414485
0.409286
0.402167
0.393545
0.38381
0.373282
0.362219
0.350826
0.339265
0.327663
0.316123
0.304705
0.293429
0.282381
0.271884
0.262132
0.393175
0.38439
0.384136
0.386512
0.387857
0.387035
0.383867
0.378629
0.371738
0.36359
0.35452
0.344797
0.334637
0.32421
0.313656
0.303083
0.292561
0.282109
0.271813
0.262049
0.25309
0.354453
0.346735
0.348048
0.35248
0.356109
0.357569
0.356566
0.353337
0.348294
0.341844
0.334332
0.326043
0.317202
0.307991
0.298558
0.289024
0.279463
0.269895
0.260408
0.251421
0.243302
0.313517
0.306916
0.309847
0.316412
0.322428
0.326283
0.327561
0.326451
0.32336
0.318703
0.312841
0.306067
0.298622
0.290699
0.282454
0.274019
0.265478
0.256851
0.248223
0.240053
0.232812
0.270685
0.265239
0.269817
0.278566
0.287045
0.293387
0.29704
0.298142
0.297091
0.29431
0.290172
0.284986
0.279003
0.272428
0.265429
0.258148
0.250679
0.243044
0.235319
0.227998
0.221665
0.226286
0.222022
0.228258
0.239214
0.250205
0.2591
0.265202
0.26859
0.269649
0.26881
0.266459
0.262919
0.258453
0.253279
0.247575
0.241494
0.235142
0.228541
0.22176
0.215314
0.209911
0.180666
0.1776
0.185479
0.198639
0.212161
0.223651
0.232252
0.23798
0.241203
0.242357
0.241842
0.239993
0.237088
0.233355
0.228985
0.224142
0.218943
0.213415
0.207613
0.202059
0.1976
0.134178
0.132315
0.141802
0.157132
0.173177
0.187274
0.198403
0.206504
0.211925
0.215108
0.216461
0.216336
0.215023
0.212763
0.209755
0.206178
0.202161
0.197737
0.192941
0.188292
0.184783
0.0871817
0.0865154
0.0975556
0.114993
0.133522
0.150212
0.163871
0.174357
0.181994
0.187222
0.190463
0.19208
0.192378
0.191608
0.189982
0.187689
0.184877
0.181585
0.17782
0.174077
0.171512
0.0400434
0.0405551
0.0530728
0.072527
0.0934691
0.11271
0.128876
0.141738
0.151587
0.158862
0.163994
0.167358
0.169272
0.169999
0.169761
0.168759
0.167159
0.16502
0.162308
0.159459
0.157825
-0.00687154
-0.00521312
0.00868948
0.0300418
0.0532957
0.0750147
0.0936419
0.108848
0.120887
0.130191
0.1372
0.142302
0.145824
0.148043
0.149191
0.149476
0.149089
0.148126
0.14653
0.144575
0.143765
-0.0531982
-0.0504402
-0.0352592
-0.0121549
0.0132786
0.0373751
0.0583895
0.0758857
0.090072
0.101372
0.110231
0.117045
0.122155
0.125847
0.128365
0.129919
0.130713
0.130902
0.130474
0.129483
0.129183
-0.0985724
-0.0947836
-0.0784409
-0.0537577
-0.0263072
3.69252e-05
0.0233394
0.0430491
0.0593219
0.0725669
0.0832302
0.0917182
0.0983813
0.103517
0.107377
0.110176
0.112117
0.113407
0.114267
0.114858
0.114184
-0.142658
-0.137893
-0.120532
-0.0944682
-0.065191
-0.0367577
-0.0112916
0.0105333
0.028812
0.0439335
0.0563429
0.0664529
0.0746221
0.0811575
0.0863199
0.0903272
0.093368
0.0956702
0.0975998
0.0992539
0.0987212
-0.185278
-0.17935
-0.161231
-0.133998
-0.103109
-0.0727726
-0.0452923
-0.021472
-0.00128606
0.0156277
0.0297097
0.0413765
0.050993
0.058873
0.0652851
0.0704487
0.0745328
0.0777488
0.0805609
0.0831602
0.0828076
-0.226006
-0.218915
-0.2003
-0.172071
-0.139807
-0.10778
-0.0784586
-0.0527832
-0.0308064
-0.0121999
0.00346774
0.0166142
0.0276087
0.0367695
0.0443706
0.0506349
0.0557172
0.0597989
0.0633851
0.066846
0.0673777
-0.264451
-0.256362
-0.237416
-0.208456
-0.175044
-0.141562
-0.110595
-0.0832243
-0.05959
-0.0394046
-0.0222507
-0.0077123
0.00458193
0.0149534
0.0236797
0.030989
0.0370344
0.0419743
0.0463045
0.050511
0.0521034
-0.300382
-0.291435
-0.272136
-0.242986
-0.2086
-0.17391
-0.141517
-0.112629
-0.0874858
-0.0658487
-0.0473193
-0.0314865
-0.0179786
-0.00647269
0.00331137
0.0116069
0.0185727
0.024357
0.0294235
0.0342829
0.0367063
-0.333596
-0.323903
-0.304411
-0.275111
-0.24036
-0.204634
-0.171049
-0.140841
-0.114352
-0.0914033
-0.0716196
-0.0545988
-0.0399709
-0.0274129
-0.0166438
-0.00742659
0.000404539
0.00699424
0.0127728
0.0182421
0.0213452
-0.363918
-0.353551
-0.33406
-0.304844
-0.269878
-0.233598
-0.199033
-0.167715
-0.140059
-0.115949
-0.0950418
-0.0769473
-0.0613002
-0.0477788
-0.0361026
-0.0260328
-0.0173975
-0.0100541
-0.00360227
0.00245772
0.00624109
-0.391196
-0.380213
-0.360892
-0.332037
-0.297132
-0.260538
-0.225322
-0.19312
-0.164487
-0.139378
-0.117486
-0.0984395
-0.0818796
-0.0674888
-0.0549878
-0.0441372
-0.03476
-0.0267153
-0.019632
-0.0130045
-0.00851419
-0.415312
-0.40377
-0.384764
-0.356522
-0.321993
-0.285372
-0.249775
-0.216939
-0.187532
-0.161594
-0.138865
-0.118992
-0.101631
-0.086469
-0.0732289
-0.061672
-0.0516163
-0.0429227
-0.0352501
-0.0280874
-0.0228987
-0.436187
-0.424151
-0.405585
-0.378179
-0.34433
-0.307998
-0.272301
-0.239077
-0.209107
-0.182513
-0.159102
-0.138532
-0.120487
-0.104654
-0.0907648
-0.0785784
-0.0679104
-0.058624
-0.0504074
-0.0427456
-0.0368867
-0.453791
-0.441325
-0.423307
-0.396936
-0.364048
-0.328317
-0.292813
-0.259455
-0.22914
-0.202078
-0.178128
-0.156998
-0.138392
-0.121986
-0.107544
-0.0948063
-0.0835952
-0.0737779
-0.0650703
-0.0569469
-0.050437
-0.468137
-0.455309
-0.437925
-0.41276
-0.381092
-0.346263
-0.311245
-0.278012
-0.247569
-0.220226
-0.195903
-0.174355
-0.15529
-0.138416
-0.123528
-0.110313
-0.0986321
-0.0883494
-0.0792145
-0.0706793
-0.0635064
-0.479284
-0.466165
-0.449481
-0.425659
-0.395442
-0.361796
-0.32755
-0.294703
-0.264355
-0.236917
-0.212383
-0.190554
-0.171164
-0.153944
-0.138654
-0.125064
-0.112991
-0.102308
-0.0928164
-0.0839617
-0.0760882
-0.487337
-0.474001
-0.45806
-0.435683
-0.407112
-0.374907
-0.341708
-0.309502
-0.279473
-0.252129
-0.227543
-0.205569
-0.185973
-0.168506
-0.152932
-0.139045
-0.126655
-0.115629
-0.105829
-0.0968057
-0.0882902
-0.492442
-0.478967
-0.463791
-0.442922
-0.41615
-0.385615
-0.353719
-0.322404
-0.292915
-0.265853
-0.241375
-0.219391
-0.199707
-0.182095
-0.166338
-0.152235
-0.139604
-0.128305
-0.118219
-0.108997
-0.100568
-0.494787
-0.48125
-0.466845
-0.447508
-0.422644
-0.393967
-0.363608
-0.333421
-0.304687
-0.278093
-0.25388
-0.232021
-0.212364
-0.19471
-0.178858
-0.16462
-0.151823
-0.140331
-0.130036
-0.120679
-0.112285
-0.494589
-0.481075
-0.467429
-0.449613
-0.426716
-0.400045
-0.371426
-0.342584
-0.314812
-0.288868
-0.265074
-0.243471
-0.223955
-0.206357
-0.190496
-0.176199
-0.163306
-0.151684
-0.141232
-0.131719
-0.123146
-0.492097
-0.478693
-0.465783
-0.449442
-0.428525
-0.403957
-0.377243
-0.349945
-0.323328
-0.298206
-0.274981
-0.253762
-0.234495
-0.217048
-0.201261
-0.186978
-0.174049
-0.162348
-0.151773
-0.142101
-0.133292
-0.48758
-0.474375
-0.462172
-0.447232
-0.428259
-0.405841
-0.381157
-0.355569
-0.330285
-0.306151
-0.283638
-0.262925
-0.244012
-0.226805
-0.211172
-0.196971
-0.184066
-0.172334
-0.161679
-0.151896
-0.142884
-0.481324
-0.468406
-0.456878
-0.443243
-0.426138
-0.405864
-0.383286
-0.359542
-0.335747
-0.312755
-0.29109
-0.271
-0.252541
-0.235661
-0.220256
-0.206204
-0.193381
-0.181673
-0.17099
-0.161154
-0.152002
-0.473619
-0.461078
-0.450191
-0.437751
-0.422401
-0.404217
-0.383772
-0.361967
-0.339792
-0.318079
-0.297391
-0.278035
-0.260124
-0.243652
-0.228547
-0.214709
-0.202027
-0.190398
-0.17974
-0.169904
-0.160677
-0.464755
-0.452676
-0.442402
-0.431043
-0.417306
-0.401112
-0.382775
-0.362961
-0.342507
-0.322193
-0.302599
-0.284082
-0.26681
-0.250824
-0.236086
-0.222521
-0.210037
-0.19854
-0.187955
-0.178167
-0.168926
-0.455016
-0.443479
-0.433793
-0.4234
-0.411121
-0.396777
-0.380477
-0.362659
-0.343992
-0.325174
-0.306779
-0.289198
-0.272651
-0.257224
-0.242917
-0.229682
-0.217447
-0.206131
-0.195665
-0.185967
-0.176768
-0.444668
-0.433745
-0.424631
-0.415097
-0.40411
-0.391451
-0.377072
-0.361209
-0.344357
-0.327107
-0.309999
-0.293443
-0.2777
-0.262902
-0.249085
-0.236233
-0.224295
-0.213204
-0.202901
-0.19333
-0.184224
-0.433959
-0.423711
-0.415159
-0.406388
-0.396534
-0.385374
-0.372764
-0.358773
-0.343723
-0.32808
-0.31233
-0.296878
-0.282014
-0.267908
-0.254639
-0.242218
-0.230621
-0.219797
-0.209695
-0.200284
-0.191315
-0.423111
-0.413589
-0.405592
-0.397506
-0.388631
-0.378784
-0.367765
-0.355521
-0.342218
-0.328192
-0.313847
-0.299565
-0.285646
-0.272295
-0.259625
-0.247682
-0.236465
-0.225945
-0.216079
-0.206856
-0.198063
-0.412319
-0.403557
-0.396116
-0.388649
-0.380621
-0.371902
-0.362284
-0.351631
-0.339983
-0.327545
-0.314627
-0.301563
-0.28865
-0.27611
-0.26409
-0.252667
-0.241867
-0.231684
-0.222086
-0.213076
-0.20449
-0.401746
-0.393767
-0.38688
-0.379984
-0.372689
-0.364929
-0.356519
-0.347282
-0.337162
-0.326249
-0.31475
-0.302935
-0.291075
-0.279399
-0.268078
-0.257216
-0.246868
-0.237052
-0.22775
-0.218973
-0.21062
-0.391526
-0.384337
-0.378006
-0.371643
-0.364989
-0.358041
-0.350655
-0.342648
-0.333905
-0.32442
-0.314301
-0.303741
-0.292969
-0.282204
-0.271626
-0.261367
-0.251505
-0.242083
-0.233103
-0.224577
-0.216477
-0.381765
-0.375358
-0.36958
-0.363725
-0.357639
-0.35138
-0.344852
-0.337892
-0.330358
-0.322177
-0.313369
-0.304045
-0.294378
-0.28456
-0.274769
-0.265152
-0.25581
-0.24681
-0.238175
-0.229917
-0.222087
-0.372539
-0.366894
-0.361662
-0.356294
-0.350724
-0.345054
-0.339242
-0.33316
-0.326665
-0.319643
-0.312048
-0.303914
-0.295348
-0.286501
-0.277534
-0.268598
-0.259812
-0.251261
-0.242996
-0.235021
-0.227473
-0.363901
-0.358987
-0.354288
-0.349392
-0.344297
-0.339141
-0.333929
-0.328575
-0.322954
-0.316938
-0.310436
-0.303419
-0.295926
-0.288057
-0.279943
-0.271725
-0.263529
-0.255458
-0.247589
-0.239914
-0.232658
-0.355883
-0.351656
-0.347474
-0.343033
-0.338383
-0.333685
-0.328982
-0.324231
-0.319336
-0.314174
-0.308633
-0.302635
-0.296163
-0.289258
-0.282012
-0.274542
-0.266974
-0.259415
-0.251971
-0.24462
-0.237665
-0.348496
-0.344908
-0.341218
-0.337217
-0.332989
-0.328707
-0.324446
-0.320198
-0.315901
-0.311453
-0.306734
-0.301642
-0.296114
-0.290137
-0.283756
-0.277055
-0.270146
-0.263135
-0.25615
-0.249153
-0.242519
-0.34174
-0.338735
-0.335509
-0.331928
-0.328101
-0.324206
-0.320337
-0.316517
-0.312716
-0.308856
-0.304829
-0.300522
-0.29584
-0.290731
-0.28519
-0.279262
-0.273036
-0.266606
-0.26012
-0.253523
-0.247238
-0.3356
-0.333118
-0.330323
-0.327141
-0.323697
-0.320166
-0.316654
-0.313208
-0.309824
-0.306448
-0.302993
-0.29935
-0.295408
-0.291085
-0.286334
-0.281162
-0.275626
-0.269804
-0.263856
-0.257715
-0.251866
-0.330051
-0.328033
-0.325632
-0.322826
-0.319746
-0.316561
-0.313381
-0.31027
-0.307244
-0.304273
-0.301289
-0.298196
-0.294884
-0.291249
-0.287218
-0.282757
-0.277895
-0.272687
-0.267307
-0.261695
-0.256385
-0.325062
-0.323445
-0.321403
-0.318947
-0.316213
-0.313357
-0.310492
-0.307689
-0.30498
-0.302352
-0.299759
-0.297119
-0.294329
-0.291281
-0.28788
-0.284061
-0.279824
-0.275202
-0.270394
-0.265351
-0.260866
-0.320594
-0.31932
-0.317598