/*--------------------------------*- C++ -*----------------------------------*\
  =========                 |
  \\      /  F ield         | OpenFOAM: The Open Source CFD Toolbox
   \\    /   O peration     | Website:  https://openfoam.org
    \\  /    A nd           | Version:  7
     \\/     M anipulation  |
\*---------------------------------------------------------------------------*/
FoamFile
{
    version     2.0;
    format      ascii;
    class       surfaceScalarField;
    location    "15";
    object      phi;
}
// * * * * * * * * * * * * * * * * * * * * * * * * * * * * * * * * * * * * * //

dimensions      [0 3 -1 0 0 0 0];

internalField   nonuniform List<scalar> 
17388
(
-3.59982e-06
3.56182e-06
3.80047e-08
-1.303e-05
9.29267e-06
1.37489e-07
-2.73751e-05
1.40909e-05
2.54225e-07
-4.58304e-05
1.80766e-05
3.78763e-07
-6.76825e-05
2.13491e-05
5.0294e-07
-9.23007e-05
2.39973e-05
6.209e-07
-0.000119128
2.60975e-05
7.29486e-07
-0.00014767
2.77136e-05
8.2826e-07
-0.000177488
2.8899e-05
9.19106e-07
-0.000208192
2.96992e-05
1.0055e-06
-0.000239442
3.01577e-05
1.09167e-06
-0.000270948
3.03245e-05
1.18171e-06
-0.000302494
3.02673e-05
1.27905e-06
-0.000333967
3.00868e-05
1.38592e-06
-0.000365404
2.99336e-05
1.50325e-06
-0.00039706
3.00259e-05
1.63053e-06
-0.000429488
3.06623e-05
1.76588e-06
-0.000463618
3.22234e-05
1.90605e-06
-0.000500803
3.51385e-05
2.04654e-06
-0.00054282
3.98349e-05
2.18192e-06
4.67879e-05
2.30692e-06
-0.000591915
-3.54925e-06
7.11107e-06
-1.28538e-05
1.85972e-05
-2.70133e-05
2.82504e-05
-4.52338e-05
3.62971e-05
-6.68089e-05
4.29242e-05
-9.11123e-05
4.83007e-05
-0.000117589
5.25738e-05
-0.000145744
5.58686e-05
-0.000175135
5.82907e-05
-0.000205368
5.99313e-05
-0.000236086
6.08762e-05
-0.000266983
6.12217e-05
-0.000297812
6.10957e-05
-0.000328412
6.06875e-05
-0.000358761
6.02821e-05
-0.000389032
6.0297e-05
-0.000419684
6.1314e-05
-0.000451549
6.40888e-05
-0.000485906
6.94956e-05
-0.000524494
7.84224e-05
9.18661e-05
-0.000569572
-3.44827e-06
1.05593e-05
-1.25014e-05
2.76503e-05
-2.6289e-05
4.20381e-05
-4.40382e-05
5.40462e-05
-6.50566e-05
6.39427e-05
-8.87268e-05
7.19709e-05
-0.000114497
7.83443e-05
-0.000141873
8.32447e-05
-0.000170408
8.68252e-05
-0.000199692
8.92154e-05
-0.000229349
9.05339e-05
-0.000259037
9.09088e-05
-0.000288449
9.05079e-05
-0.000317343
8.95816e-05
-0.000345576
8.85148e-05
-0.000373166
8.78875e-05
-0.000400385
8.85328e-05
-0.000427869
9.15725e-05
-0.000456732
9.83593e-05
-0.000488627
0.000110318
0.000129077
-0.000525839
-3.30021e-06
1.38595e-05
-1.19834e-05
3.63335e-05
-2.52222e-05
5.52769e-05
-4.22732e-05
7.10972e-05
-6.24643e-05
8.41338e-05
-8.51904e-05
9.46969e-05
-0.000109906
0.00010306
-0.000136116
0.000109455
-0.000163367
0.000114076
-0.000191233
0.000117082
-0.000219312
0.000118613
-0.000247212
0.000118808
-0.000274553
0.000117849
-0.00030098
0.000116009
-0.000326187
0.000113722
-0.000349973
0.000111673
-0.000372334
0.000110894
-0.000393604
0.000112842
-0.00041463
0.000119386
-0.000436902
0.000132589
0.000154892
-0.000462716
-3.10998e-06
1.69695e-05
-1.13156e-05
4.45391e-05
-2.38421e-05
6.78033e-05
-3.99824e-05
8.72375e-05
-5.90887e-05
0.00010324
-8.05708e-05
0.000116179
-0.00010389
0.000126379
-0.000128553
0.000134117
-0.000154096
0.00013962
-0.000180081
0.000143067
-0.000206072
0.000144604
-0.000231627
0.000144364
-0.000256287
0.000142509
-0.000279568
0.000139289
-0.000300976
0.00013513
-0.000320046
0.000130744
-0.000336427
0.000127275
-0.000350044
0.000126459
-0.000361352
0.000130693
-0.000371562
0.000142799
0.000166249
-0.000382919
-2.88393e-06
1.98534e-05
-1.05181e-05
5.21733e-05
-2.21865e-05
7.94718e-05
-3.7222e-05
0.000102273
-5.50031e-05
0.000121021
-7.49551e-05
0.000136131
-9.6547e-05
0.000147971
-0.000119284
0.000156854
-0.000142698
0.000163033
-0.000166331
0.0001667
-0.000189721
0.000167994
-0.000212379
0.000167021
-0.000233766
0.000163896
-0.000253277
0.0001588
-0.000270228
0.000152081
-0.000283871
0.000144388
-0.000293463
0.000136866
-0.000298427
0.000131423
-0.000298697
0.000130962
-0.00029506
0.000139163
0.000160707
-0.000289518
-2.62966e-06
2.24831e-05
-9.61517e-06
5.91588e-05
-2.0301e-05
9.01576e-05
-3.40597e-05
0.000116032
-5.02953e-05
0.000137257
-6.84473e-05
0.000154283
-8.79897e-05
0.000167514
-0.000108426
0.000177291
-0.000129279
0.000183886
-0.000150076
0.000187497
-0.000170328
0.000188246
-0.000189506
0.000186199
-0.000207006
0.000181396
-0.000222117
0.000173911
-0.000233986
0.000163949
-0.000241601
0.000152002
-0.000243819
0.000139085
-0.000239511
0.000127116
-0.000227975
0.000119426
-0.000209503
0.00012069
0.000136643
-0.000185438
-2.35582e-06
2.48389e-05
-8.63434e-06
6.54374e-05
-1.82371e-05
9.97603e-05
-3.05724e-05
0.000128367
-4.50653e-05
0.00015175
-6.1165e-05
0.000170383
-7.83461e-05
0.000184695
-9.61054e-05
0.00019505
-0.000113953
0.000201734
-0.000131398
0.000204942
-0.000147926
0.000204774
-0.000162972
0.000201245
-0.000175881
0.000194306
-0.000185862
0.000183892
-0.00019193
0.000170017
-0.00019285
0.000152923
-0.000187122
0.000133356
-0.00017305
0.000113044
-0.000149167
9.5543e-05
-0.000115532
8.70553e-05
9.41678e-05
-7.30571e-05
-2.07182e-06
2.69108e-05
-7.60548e-06
7.0971e-05
-1.60508e-05
0.000108206
-2.68435e-05
0.00013916
-3.94217e-05
0.000164328
-5.32361e-05
0.000184197
-6.77539e-05
0.000199212
-8.24569e-05
0.000209753
-9.68338e-05
0.000216111
-0.000110366
0.000218474
-0.000122508
0.000216916
-0.000132659
0.000211395
-0.000140117
0.000201765
-0.000144033
0.000187808
-0.000143328
0.000169311
-0.000136604
0.0001462
-0.000122067
0.000118819
-9.74876e-05
8.84649e-05
-6.02043e-05
5.82597e-05
-7.9489e-06
3.47999e-05
3.44642e-05
5.17548e-05
-1.78741e-06
2.86982e-05
-6.55948e-06
7.57431e-05
-1.38001e-05
0.000115446
-2.29594e-05
0.000148319
-3.34766e-05
0.000174845
-4.47926e-05
0.000195513
-5.6355e-05
0.000210775
-6.76171e-05
0.000221015
-7.80315e-05
0.000226525
-8.70368e-05
0.000227479
-9.4039e-05
0.000223919
-9.83843e-05
0.00021574
-9.93201e-05
0.0002027
-9.59396e-05
0.000184428
-8.7099e-05
0.00016047
-7.13047e-05
0.000130405
-4.65618e-05
9.40764e-05
-1.02193e-05
5.21225e-05
4.09568e-05
7.08357e-06
0.000109832
-3.4075e-05
-5.34959e-05
0.000197792
-1.51224e-06
3.02104e-05
-5.5266e-06
7.97574e-05
-1.15414e-05
0.000121461
-1.9004e-05
0.000155782
-2.73392e-05
0.00018318
-3.59625e-05
0.000204136
-4.42856e-05
0.000219098
-5.17153e-05
0.000228445
-5.76463e-05
0.000232456
-6.14493e-05
0.000231282
-6.24536e-05
0.000224923
-5.99223e-05
0.000213209
-5.30181e-05
0.000195796
-4.07589e-05
0.000172169
-2.19321e-05
0.000141644
5.01103e-06
0.000103462
4.21456e-05
5.69419e-05
9.23392e-05
1.92886e-06
0.000159389
-5.99661e-05
0.000247932
-0.000122618
-0.000167203
0.000361639
-1.25522e-06
3.14656e-05
-4.53441e-06
8.30366e-05
-9.32559e-06
0.000126252
-1.50526e-05
0.000161509
-2.11061e-05
0.000189234
-2.68574e-05
0.000209888
-3.1662e-05
0.000223902
-3.48565e-05
0.000231639
-3.57503e-05
0.00023335
-3.36124e-05
0.000229144
-2.76548e-05
0.000218965
-1.70115e-05
0.000202566
-7.11327e-07
0.000179496
2.23717e-05
0.000149086
5.35462e-05
0.000110469
9.44225e-05
6.25857e-05
0.000147074
4.29076e-06
0.000214314
-6.53119e-05
0.000300152
-0.000145803
0.0004101
-0.000232566
-0.000308184
0.00055108
-1.02381e-06
3.24894e-05
-3.60527e-06
8.56181e-05
-7.19311e-06
0.00012984
-1.1163e-05
0.000165478
-1.48491e-05
0.00019292
-1.75563e-05
0.000212595
-1.85593e-05
0.000224905
-1.70963e-05
0.000230176
-1.23578e-05
0.000228611
-3.47023e-06
0.000220257
1.05213e-05
0.000204974
3.0673e-05
0.000182414
5.81644e-05
0.000152004
9.43178e-05
0.000112932
0.00014064
6.41472e-05
0.00019886
4.36559e-06
0.000271021
-6.78706e-05
0.000359754
-0.000154045
0.000468754
-0.000254803
0.000603378
-0.000367189
-0.000479308
0.000774502
-8.23151e-07
3.33126e-05
-2.75354e-06
8.75485e-05
-5.16795e-06
0.000132254
-7.36664e-06
0.000167677
-8.60163e-06
0.000194155
-8.0857e-06
0.000212079
-4.98451e-06
0.000221804
1.59444e-06
0.000223597
1.26188e-05
0.000217587
2.91507e-05
0.000203725
5.23669e-05
0.000181758
8.35776e-05
0.000151203
0.000124242
0.00011134
0.000175979
6.11958e-05
0.00024057
-4.44407e-07
0.000319952
-7.50155e-05
0.000416224
-0.000164143
0.000531745
-0.000269566
0.000669588
-0.000392646
0.000833807
-0.000531408
-0.000684482
0.00103898
-6.55245e-07
3.39678e-05
-1.98269e-06
8.88759e-05
-3.2518e-06
0.000133524
-3.65909e-06
0.000168084
-2.34256e-06
0.000192839
1.60253e-06
0.000208134
9.15296e-06
0.000214254
2.13696e-05
0.000211381
3.94209e-05
0.000199536
6.46077e-05
0.000178538
9.83852e-05
0.00014798
0.000142381
0.000107208
0.000198401
5.53191e-05
0.000268428
-8.83045e-06
0.000354584
-8.66012e-05
0.000459091
-0.000179522
0.000584161
-0.000289213
0.000731908
-0.000417312
0.000904628
-0.000565367
0.00110425
-0.000731027
-0.000927779
0.00134754
-5.18189e-07
3.4486e-05
-1.28299e-06
8.96407e-05
-1.41836e-06
0.000133659
2.06039e-08
0.000166645
4.0171e-06
0.000188842
1.16499e-05
0.000200501
2.40697e-05
0.000201834
4.25454e-05
0.000192905
6.84934e-05
0.000173588
0.000103505
0.000143527
0.000149368
0.000102117
0.000208079
4.84971e-05
0.000281837
-1.84394e-05
0.000373015
-0.000100008
0.00048409
-0.000197676
0.000617537
-0.000312969
0.000775654
-0.00044733
0.000960299
-0.000601957
0.00117284
-0.000777911
0.00141305
-0.000971237
-0.00121166
0.00169694
-4.05609e-07
3.48916e-05
-6.30188e-07
8.98653e-05
3.86735e-07
0.000132642
3.74923e-06
0.000163283
1.06393e-05
0.000181952
2.23077e-05
0.000188833
4.01279e-05
0.000184014
6.56254e-05
0.000167407
0.000100514
0.000138699
0.000146725
9.73156e-05
0.000206424
4.24182e-05
0.000282008
-2.70868e-05
0.000376075
-0.000112506
0.000491352
-0.000215286
0.00063058
-0.000336904
0.000796327
-0.000478717
0.000990758
-0.00064176
0.00121531
-0.000826506
0.00147005
-0.00103265
0.00175354
-0.00125473
-0.00153455
0.00207643
-3.05908e-07
3.51975e-05
2.58641e-08
8.95336e-05
2.25261e-06
0.000130415
7.70835e-06
0.000157827
1.77752e-05
0.000171885
3.39399e-05
0.000172668
5.78391e-05
0.000160115
9.1302e-05
0.000133945
0.000136388
9.3613e-05
0.000195409
3.82947e-05
0.000270932
-3.31045e-05
0.000365746
-0.000121901
0.000482791
-0.000229551
0.000625023
-0.000357518
0.000795223
-0.000507104
0.000995732
-0.000679226
0.00122813
-0.000874163
0.00149302
-0.00109139
0.00178859
-0.00132823
0.00211378
-0.00157992
-0.00188861
0.00246784
-2.05845e-07
3.54034e-05
7.16083e-07
8.86116e-05
4.29802e-06
0.000126833
1.20952e-05
0.00015003
2.57453e-05
0.000158235
4.70128e-05
0.0001514
7.78459e-05
0.000129282
0.000120424
9.13664e-05
0.00017719
3.68469e-05
0.000250857
-3.53722e-05
0.000344377
-0.000126624
0.00046086
-0.000238385
0.000603436
-0.000372127
0.000775039
-0.000529121
0.000978122
-0.000710187
0.00121432
-0.00091542
0.00148404
-0.00114389
0.00178632
-0.00139367
0.00211709
-0.001659
0.0024765
-0.00193932
-0.00225903
0.00284692
-8.54916e-08
3.54889e-05
1.53356e-06
8.69926e-05
6.6691e-06
0.000121698
1.71579e-05
0.000139541
3.49291e-05
0.000140464
6.20683e-05
0.000124261
0.000100879
9.04706e-05
0.000153928
3.83172e-05
0.000224059
-3.32838e-05
0.000314364
-0.000125677
0.000428099
-0.00024036
0.000568531
-0.000378817
0.000738703
-0.000542299
0.000941126
-0.000731543
0.00117741
-0.000946475
0.0014479
-0.0011859
0.00175128
-0.00144726
0.00208433
-0.00172673
0.0024411
-0.00201577
0.0028204
-0.00231862
-0.00262433
0.0031857
8.18797e-08
3.5407e-05
2.5453e-06
8.45292e-05
9.52461e-06
0.000114718
2.31686e-05
0.000125897
4.57384e-05
0.000117894
7.96814e-05
9.03183e-05
0.000127692
4.24602e-05
0.000192738
-2.67286e-05
0.00027804
-0.000118586
0.000386987
-0.000234624
0.000522966
-0.000376339
0.000689111
-0.000544962
0.000887961
-0.000741149
0.00112106
-0.000964645
0.00138857
-0.00121398
0.00168889
-0.00148623
0.0020186
-0.00177697
0.00237213
-0.00208026
0.00274356
-0.0023872
0.00312425
-0.00269931
-0.00295202
0.00345195
3.10875e-07
3.50961e-05
3.82909e-06
8.10109e-05
1.30281e-05
0.000105519
3.04027e-05
0.000108523
5.85822e-05
8.97146e-05
0.000100407
4.84932e-05
0.000158976
-1.61085e-05
0.000237636
-0.000105389
0.000339905
-0.000220855
0.000469294
-0.000364012
0.000629035
-0.00053608
0.000821711
-0.000737638
0.00104881
-0.00096825
0.0013103
-0.00122613
0.00160424
-0.00150792
0.00192666
-0.00180864
0.00227167
-0.00212199
0.00263168
-0.00244027
0.00300123
-0.00275675
0.00336715
-0.00306523
-0.0033449
0.00376002
6.27737e-07
3.44684e-05
5.46109e-06
7.61776e-05
1.73352e-05
9.36453e-05
3.91173e-05
8.67405e-05
7.38305e-05
5.50013e-05
0.000124721
-2.39765e-06
0.000195273
-8.66604e-05
0.000289138
-0.000199254
0.000409968
-0.000341684
0.000561123
-0.000515167
0.000745274
-0.000720232
0.000963921
-0.000956285
0.00121691
-0.00122123
0.00150202
-0.00151124
0.00181483
-0.00182073
0.00214884
-0.00214265
0.002496
-0.00246915
0.00284772
-0.00279198
0.00319624
-0.00310527
0.00353251
-0.0034015
-0.00368137
0.00386899
1.05105e-06
3.34173e-05
7.50827e-06
6.97204e-05
2.25819e-05
7.85717e-05
4.9529e-05
5.97934e-05
9.17772e-05
1.27532e-05
0.000152964
-6.3584e-05
0.000236891
-0.000170587
0.00034737
-0.000309734
0.000487933
-0.000482247
0.000661406
-0.00068864
0.000869393
-0.000928219
0.00111174
-0.00119863
0.00138608
-0.00149558
0.00168769
-0.00181285
0.00200959
-0.00214264
0.00234319
-0.00247625
0.00267918
-0.00280514
0.00300877
-0.00312156
0.00332441
-0.00342092
0.00362082
-0.00369791
-0.00395862
0.00389807
1.59674e-06
3.18206e-05
1.00249e-05
6.12922e-05
2.88742e-05
5.97223e-05
6.17965e-05
2.68711e-05
0.00011261
-3.80607e-05
0.000185289
-0.000136263
0.00028383
-0.000269128
0.000411976
-0.00043788
0.000572787
-0.000643058
0.000768083
-0.000883936
0.000997851
-0.00115799
0.00125976
-0.00146054
0.00154892
-0.00178474
0.00185807
-0.002122
0.0021782
-0.00246277
0.00249958
-0.00279764
0.00281296
-0.00311852
0.00311074
-0.00341935
0.00338761
-0.00369778
0.00364091
-0.00395122
-0.00418954
0.00387183
2.27681e-06
2.95438e-05
1.30499e-05
5.05191e-05
3.62823e-05
3.649e-05
7.60065e-05
-1.28531e-05
0.000136388
-9.84427e-05
0.000221634
-0.000221508
0.000335739
-0.000383233
0.000482067
-0.000584208
0.000662768
-0.000823759
0.000878137
-0.0010993
0.00112605
-0.0014059
0.00140165
-0.00173614
0.00169756
-0.00208065
0.00200447
-0.00242891
0.00231231
-0.00277061
0.00261153
-0.00309685
0.00289429
-0.00340129
0.00315545
-0.00368051
0.00339257
-0.0039349
0.00360631
-0.00416497
-0.00438184
0.00379862
3.09925e-06
2.64445e-05
1.66061e-05
3.70123e-05
4.48363e-05
8.25977e-06
9.21662e-05
-6.01829e-05
0.000163026
-0.000169302
0.000261692
-0.000320174
0.000391889
-0.000513431
0.000556208
-0.000748527
0.000755407
-0.00102296
0.000987766
-0.00133166
0.0012487
-0.00166683
0.00153085
-0.00201829
0.00182476
-0.00237456
0.00212004
-0.00272419
0.00240678
-0.00305735
0.00267692
-0.00336699
0.00292513
-0.00364949
0.00314919
-0.00390457
0.00334962
-0.00413532
0.00352944
-0.00434479
-0.00454431
0.00369191
4.06834e-06
2.23762e-05
2.06998e-05
2.03808e-05
5.45255e-05
-2.5566e-05
0.000110199
-0.000115856
0.000192284
-0.000251388
0.000304905
-0.000432795
0.000451173
-0.000659699
0.00063246
-0.000929814
0.000847658
-0.00123816
0.00109267
-0.00157668
0.00136039
-0.00193455
0.00164134
-0.00229924
0.00192483
-0.00265805
0.00220058
-0.00299994
0.0024601
-0.00331687
0.00269775
-0.00360464
0.00291113
-0.00386287
0.00310084
-0.00409428
0.00326963
-0.00430412
0.00342196
-0.00449711
-0.00468391
0.00356156
5.18501e-06
1.71912e-05
2.53215e-05
2.44332e-07
6.52973e-05
-6.55417e-05
0.000129941
-0.000180499
0.000223771
-0.000345218
0.000350469
-0.000559493
0.000512134
-0.000821365
0.000708468
-0.00112615
0.000936109
-0.0014658
0.00118845
-0.00182902
0.00145616
-0.00220226
0.00172837
-0.00257144
0.0019943
-0.00292399
0.00224492
-0.00325056
0.00247407
-0.00354602
0.00267896
-0.00380953
0.00285994
-0.00404385
0.00301979
-0.00425413
0.00316261
-0.00444694
0.0032933
-0.0046278
-0.00480611
0.0034155
6.44716e-06
1.0744e-05
3.04459e-05
-2.37544e-05
7.70566e-05
-0.000112152
0.000151141
-0.000254584
0.000256939
-0.000451016
0.000397344
-0.000699898
0.000573024
-0.000997045
0.000781604
-0.00133473
0.00101726
-0.00170146
0.00127106
-0.00208282
0.00153205
-0.00246325
0.00178899
-0.00282838
0.00203213
-0.00316713
0.00225459
-0.00347301
0.00245294
-0.00374437
0.00262712
-0.00398371
0.00277964
-0.00419637
0.00291462
-0.00438911
0.00303667
-0.00456899
0.00315044
-0.00474157
-0.00491474
0.00325906
7.84916e-06
2.89484e-06
3.60313e-05
-5.19365e-05
8.96648e-05
-0.000165786
0.000173461
-0.00033838
0.000291095
-0.00056865
0.000444296
-0.000853099
0.000631893
-0.00118464
0.00084916
-0.00155199
0.00108786
-0.00194016
0.00133719
-0.00233215
0.00158549
-0.00271155
0.0018222
-0.00306509
0.00203949
-0.00338442
0.00223308
-0.0036666
0.00240224
-0.00391353
0.0025491
-0.00413057
0.00267758
-0.00432485
0.00279235
-0.00450388
0.00289789
-0.00467453
0.00299824
-0.00484191
-0.00501232
0.00309582
9.38186e-06
-6.48703e-06
4.20179e-05
-8.45726e-05
0.000102938
-0.000226706
0.000196476
-0.000431918
0.000325417
-0.000697591
0.000489941
-0.00101762
0.00068671
-0.00138141
0.000908563
-0.00177385
0.00114516
-0.00217676
0.00138459
-0.00257158
0.00161546
-0.00294242
0.00182879
-0.00327842
0.00201918
-0.00357481
0.00218502
-0.00383243
0.00232782
-0.00405634
0.00245124
-0.00425399
0.00255987
-0.00443348
0.00265832
-0.00460234
0.00275058
-0.00476679
0.00283989
-0.00493123
-0.00510041
0.00292798
1.10317e-05
-1.75187e-05
4.83269e-05
-0.000121868
0.000116646
-0.000295025
0.000219681
-0.000534953
0.000358981
-0.000836891
0.000532823
-0.00119147
0.000735512
-0.0015841
0.000957596
-0.00199593
0.00118721
-0.00240637
0.00141221
-0.00279658
0.00162237
-0.00315257
0.0018109
-0.00346696
0.00197499
-0.0037389
0.00211534
-0.00397278
0.00223516
-0.00417615
0.0023389
-0.00435773
0.00243124
-0.00452583
0.00251639
-0.00468748
0.00259763
-0.00484802
0.00267745
-0.00501104
-0.0051799
0.00275694
1.278e-05
-3.02987e-05
5.48595e-05
-0.000163947
0.000130517
-0.000370683
0.000242507
-0.000646943
0.000390802
-0.000985186
0.000571507
-0.00137217
0.00077655
-0.00178914
0.000994573
-0.00221395
0.00121293
-0.00262473
0.00142013
-0.00300377
0.00160778
-0.00334022
0.00177155
-0.00363073
0.00191104
-0.00387839
0.00202876
-0.00409051
0.00212894
-0.00427633
0.0022163
-0.00444508
0.0022952
-0.00460474
0.00236922
-0.0047615
0.00244095
-0.00491975
0.00251219
-0.00508229
-0.00525126
0.00258356
1.46025e-05
-4.49013e-05
6.14971e-05
-0.000210842
0.00014424
-0.000453425
0.000264342
-0.000767046
0.000419892
-0.00114074
0.000604672
-0.00155695
0.00080842
-0.00199289
0.00101845
-0.00242398
0.00122214
-0.00282843
0.00140938
-0.00319101
0.00157402
-0.00350486
0.00171416
-0.00377087
0.00183136
-0.00399559
0.00192941
-0.00418856
0.00201298
-0.00435991
0.00208664
-0.00451874
0.00215422
-0.00467232
0.00221861
-0.00482589
0.00228177
-0.00498291
0.00234495
-0.00514547
-0.00531473
0.00240842
1.64695e-05
-6.13708e-05
6.81036e-05
-0.000262476
0.000157477
-0.000542799
0.000284558
-0.000894126
0.000445312
-0.00130149
0.000631205
-0.00174284
0.000830158
-0.00219184
0.00102884
-0.00262267
0.00121543
-0.00301501
0.00138169
-0.00335728
0.00152384
-0.00364701
0.00164211
-0.00388914
0.00173957
-0.00409305
0.00182071
-0.00426969
0.00189023
-0.00442943
0.00195226
-0.00458078
0.00201002
-0.00473007
0.00206575
-0.00488163
0.0021209
-0.00503805
0.00217628
-0.00520086
-0.00537036
0.00223191
1.83461e-05
-7.97168e-05
7.45295e-05
-0.000318659
0.000169878
-0.000638147
0.000302544
-0.00102679
0.000466239
-0.00146518
0.000650274
-0.00192688
0.000841278
-0.00238285
0.001026
-0.00280739
0.00119399
-0.00318301
0.0013392
-0.00350248
0.00146006
-0.00376787
0.00155856
-0.00398763
0.00163875
-0.00417324
0.00170538
-0.00433633
0.00176288
-0.00448692
0.00181481
-0.00463271
0.00186376
-0.00477903
0.00191145
-0.00492931
0.00195888
-0.00508549
0.00200657
-0.00524855
-0.00541817
0.00205438
2.01932e-05
-9.991e-05
8.06172e-05
-0.000379083
0.000181093
-0.000738623
0.000317746
-0.00116345
0.000482011
-0.00162945
0.000661368
-0.00210624
0.000841755
-0.00256324
0.00101065
-0.00297628
0.00115941
-0.00333177
0.00128419
-0.00362726
0.00138538
-0.00386907
0.00146627
-0.00406852
0.00153144
-0.00423841
0.00158555
-0.00439044
0.00163256
-0.00453394
0.00167546
-0.00467561
0.00171627
-0.00481984
0.00175625
-0.00496929
0.00179611
-0.00512535
0.00183613
-0.00528857
-0.00545814
0.0018761
2.19691e-05
-0.000121879
8.62078e-05
-0.000443322
0.000190797
-0.000843213
0.000329691
-0.00130234
0.000492165
-0.00179192
0.000664301
-0.00227837
0.000831971
-0.00273091
0.000983897
-0.0031282
0.00111347
-0.00346134
0.00121893
-0.00373272
0.00130225
-0.00395239
0.00136756
-0.00413383
0.00141961
-0.00429046
0.00146277
-0.00443359
0.00150044
-0.00457161
0.00153504
-0.0047102
0.00156811
-0.00485291
0.00160057
-0.00500175
0.00163291
-0.00515768
0.00166525
-0.00532091
-0.00549023
0.00169734
2.36307e-05
-0.00014551
9.11483e-05
-0.00051084
0.000198699
-0.000950764
0.000338017
-0.00144166
0.000496452
-0.00195036
0.000659196
-0.00244112
0.000812626
-0.00288434
0.000947087
-0.00326266
0.00105803
-0.00357229
0.00114553
-0.00382022
0.00121276
-0.00401961
0.00126431
-0.00418538
0.00130484
-0.00433099
0.00133824
-0.00446699
0.00136737
-0.00460074
0.00139413
-0.00473696
0.00141969
-0.00487847
0.00144472
-0.00502678
0.00146953
-0.00518249
0.00149416
-0.00534553
-0.00551441
0.00151834
2.51357e-05
-0.000170646
9.52989e-05
-0.000581003
0.000204563
-0.00106003
0.000342487
-0.00157958
0.000494832
-0.0021027
0.00064643
-0.00259271
0.000784645
-0.00302255
0.000901652
-0.00337967
0.00099487
-0.00366551
0.00106588
-0.00389123
0.00111868
-0.00407242
0.00115804
-0.00422473
0.00118829
-0.00436124
0.00121281
-0.00449152
0.00123395
-0.00462188
0.00125318
-0.00475619
0.00127135
-0.00489665
0.00128896
-0.00504439
0.00130622
-0.00519975
0.00132308
-0.0053624
-0.00553067
0.00133934
2.6444e-05
-0.00019709
9.85388e-05
-0.000653098
0.000208211
-0.0011697
0.000342992
-0.00171436
0.000487455
-0.00224716
0.000626584
-0.00273184
0.000749085
-0.00314505
0.000849035
-0.00347962
0.000925619
-0.00374209
0.000981604
-0.00394721
0.00102148
-0.00411229
0.00104992
-0.00425317
0.00107086
-0.00438218
0.00108715
-0.00450781
0.00110066
-0.00463539
0.00111251
-0.00476804
0.00112335
-0.00490749
0.00113352
-0.00505456
0.00114317
-0.0052094
0.00115224
-0.00537146
-0.00553899
0.00116056
2.75196e-05
-0.000224609
0.000100772
-0.00072635
0.000209536
-0.00127846
0.000339547
-0.00184437
0.000474631
-0.00238225
0.000600373
-0.00285759
0.000707055
-0.00325173
0.000790612
-0.00356318
0.000851741
-0.00380322
0.000894073
-0.00398954
0.00092231
-0.00414053
0.000940875
-0.00427174
0.000953226
-0.00439453
0.00096173
-0.00451631
0.000967848
-0.00464151
0.000972424
-0.00477262
0.000975931
-0.004911
0.000978627
-0.00505725
0.000980613
-0.00521138
0.000981826
-0.00537267
-0.00553934
0.000982171
2.83317e-05
-0.000252941
0.000101929
-0.000799947
0.000208499
-0.00138503
0.000332278
-0.00196815
0.000456793
-0.00250676
0.000568591
-0.00296938
0.000659657
-0.0033428
0.000727649
-0.00363117
0.000774503
-0.00385008
0.000804421
-0.00401946
0.000822103
-0.00415821
0.000831609
-0.00428124
0.000835916
-0.00439883
0.000836942
-0.00451734
0.00083581
-0.00464038
0.000833149
-0.00476996
0.000829307
-0.00490716
0.00082448
-0.00505243
0.000818742
-0.00520565
0.000812042
-0.00536597
-0.00553165
0.000804351
2.8856e-05
-0.000281797
0.000101969
-0.00087306
0.000205124
-0.00148819
0.000321404
-0.00208443
0.000434454
-0.00261981
0.000532062
-0.00306699
0.000607937
-0.00341867
0.000661276
-0.00368451
0.000694979
-0.00388378
0.000713573
-0.00403806
0.00072159
-0.00416623
0.000722673
-0.00428233
0.000719331
-0.00439549
0.000713091
-0.0045111
0.0007048
-0.00463209
0.000694916
-0.00476007
0.000683695
-0.00489593
0.000671288
-0.00504002
0.000657762
-0.00519212
0.000643081
-0.00535129
-0.0055158
0.000627231
2.90755e-05
-0.000310872
0.000100884
-0.000944868
0.000199494
-0.0015868
0.000307214
-0.00219215
0.000408178
-0.00272078
0.0004916
-0.00315041
0.000552859
-0.00347993
0.000592479
-0.00372413
0.000614068
-0.00390537
0.000622273
-0.00404626
0.000621348
-0.0041653
0.000614497
-0.00427548
0.000603796
-0.00438479
0.00059044
-0.00449774
0.000575051
-0.0046167
0.000557952
-0.00474297
0.000539322
-0.0048773
0.000519274
-0.00501997
0.000497877
-0.00517072
0.000475129
-0.00532855
-0.00549164
0.000450976
2.898e-05
-0.000339852
9.86873e-05
-0.00101458
0.00019174
-0.00167985
0.000290046
-0.00229046
0.000378545
-0.00280928
0.000447979
-0.00321985
0.000495289
-0.00352724
0.000522103
-0.00375094
0.000532511
-0.00391578
0.000531117
-0.00404487
0.000521832
-0.00415602
0.000507421
-0.00426106
0.000489578
-0.00436695
0.000469216
-0.00447738
0.000446781
-0.00459426
0.00042249
-0.00471868
0.000396454
-0.00485127
0.00036874
-0.00499226
0.000339374
-0.00514136
0.000308353
-0.00529752
-0.00545915
0.000275854
2.85671e-05
-0.00036842
9.54207e-05
-0.00108143
0.00018203
-0.00176646
0.000270269
-0.0023787
0.00034613
-0.00288514
0.000401917
-0.00327564
0.00043599
-0.00356132
0.000450861
-0.00376581
0.00045091
-0.00391583
0.000440581
-0.00403454
0.000423399
-0.00413884
0.00040172
-0.00423939
0.000376899
-0.00434213
0.000349622
-0.0044501
0.000320195
-0.00456484
0.000288752
-0.00468724
0.000255363
-0.00481788
0.000220076
-0.00495697
0.000182841
-0.00510412
0.000143199
-0.00525788
-0.00541742
0.000101473
2.78409e-05
-0.00039626
9.11446e-05
-0.00114473
0.000170559
-0.00184587
0.00024826
-0.0024564
0.00031148
-0.00294836
0.000354062
-0.00331822
0.000375619
-0.00358287
0.000379349
-0.00376954
0.000369756
-0.00390623
0.000351041
-0.00401582
0.000326335
-0.00411413
0.000297616
-0.00421067
0.000265952
-0.00431046
0.00023184
-0.00441599
0.000195476
-0.00452847
0.000156927
-0.00464869
0.00011624
-0.00477719
7.34918e-05
-0.00491422
2.88688e-05
-0.0050595
-1.75812e-05
-0.00521143
-0.00536535
-6.96487e-05
2.68115e-05
-0.000423072
8.59361e-05
-0.00120386
0.000157537
-0.00191748
0.000224397
-0.00252326
0.000275107
-0.00299907
0.00030499
-0.0033481
0.000314741
-0.00359262
0.000308057
-0.00376286
0.000289443
-0.00388762
0.000262799
-0.00398918
0.000230872
-0.0040822
0.000195297
-0.00417509
0.000156903
-0.00427207
0.000116048
-0.00437514
7.2793e-05
-0.00448522
2.71905e-05
-0.00460309
-2.07476e-05
-0.00472925
-7.09275e-05
-0.00486404
-0.000123326
-0.0050071
-0.000178381
-0.00515638
-0.00530916
-0.000234569
2.54943e-05
-0.000448566
7.98838e-05
-0.00125825
0.000143185
-0.00198078
0.000199039
-0.00257911
0.000237477
-0.0030375
0.000255204
-0.00336583
0.000253828
-0.00359125
0.000237387
-0.00374642
0.000210286
-0.00386052
0.000176095
-0.00395499
0.000137197
-0.00404331
9.49316e-05
-0.00413283
4.98865e-05
-0.00422702
2.29787e-06
-0.00432755
-4.76926e-05
-0.00443523
-0.000100236
-0.00455055
-0.000155328
-0.00467416
-0.000212912
-0.00480646
-0.000272957
-0.00494706
-0.000335313
-0.00509402
-0.00524523
-0.000399248
2.39092e-05
-0.000472475
7.30843e-05
-0.00130742
0.000127719
-0.00203541
0.000172529
-0.00262392
0.00019901
-0.00306398
0.000205139
-0.00337196
0.000193276
-0.00357938
0.000167666
-0.00372081
0.000132539
-0.00382539
9.11286e-05
-0.00391358
4.5453e-05
-0.00399763
-3.41431e-06
-0.00408396
-5.49211e-05
-0.00417552
-0.000109015
-0.00427345
-0.000165768
-0.00437847
-0.000225204
-0.00449111
-0.00028739
-0.00461197
-0.0003523
-0.00474155
-0.000419803
-0.00487955
-0.000489629
-0.0050242
-0.00517329
-0.000561573
2.20791e-05
-0.000494555
6.56382e-05
-0.00135098
0.000111353
-0.00208113
0.00014518
-0.00265775
0.000160075
-0.00307888
0.000155166
-0.00336705
0.000133412
-0.00355763
9.91563e-05
-0.00368655
5.64002e-05
-0.00378263
8.02543e-06
-0.0038652
-4.4196e-05
-0.00394541
-9.94323e-05
-0.00402872
-0.000157396
-0.00411755
-0.000217995
-0.00421285
-0.000281336
-0.00431513
-0.000347542
-0.0044249
-0.000416715
-0.0045428
-0.000488854
-0.00466941
-0.000563789
-0.00480462
-0.00064123
-0.00494676
-0.00509348
-0.000721034
2.003e-05
-0.000514585
5.76477e-05
-0.0013886
9.42869e-05
-0.00211777
0.000117277
-0.00268074
0.000120996
-0.0030826
0.000105595
-0.00335165
7.45039e-05
-0.00352654
3.20711e-05
-0.00364412
-1.79612e-05
-0.0037326
-7.30098e-05
-0.00381015
-0.000131651
-0.00388677
-0.000193202
-0.00396717
-0.000257458
-0.0040533
-0.000324429
-0.00414588
-0.000394241
-0.00424532
-0.000467079
-0.00435207
-0.000543103
-0.00446678
-0.000622352
-0.00459016
-0.000704659
-0.00472231
-0.000789687
-0.00486173
-0.00500594
-0.000877227
1.77905e-05
-0.000532375
4.92141e-05
-0.00142002
7.67134e-05
-0.00214527
8.90785e-05
-0.00269311
8.20512e-05
-0.00307557
5.66824e-05
-0.00332628
1.67756e-05
-0.00348663
-3.34155e-05
-0.00359393
-9.04073e-05
-0.00367561
-0.000151948
-0.00374861
-0.000216836
-0.00382188
-0.00028456
-0.00389945
-0.000354993
-0.00398286
-0.000428199
-0.00407268
-0.000504343
-0.00416918
-0.000583654
-0.00427276
-0.00066636
-0.00438407
-0.000752573
-0.00450395
-0.000842161
-0.00463272
-0.000934713
-0.00476918
-0.00491079
-0.00102986
1.53925e-05
-0.000547768
4.04372e-05
-0.00144507
5.88117e-05
-0.00216364
6.08142e-05
-0.00269511
4.34715e-05
-0.00305823
8.71291e-06
-0.00329152
-3.95923e-05
-0.00343833
-9.71743e-05
-0.00353635
-0.000160858
-0.00361193
-0.000228683
-0.00368079
-0.000299663
-0.0037509
-0.000373422
-0.00382569
-0.000449902
-0.00390638
-0.000529203
-0.00399338
-0.000611517
-0.00408686
-0.000697115
-0.00418716
-0.000786296
-0.00429489
-0.000879276
-0.00441097
-0.000975994
-0.004536
-0.00107597
-0.0046692
-0.00480819
-0.00117857
1.28755e-05
-0.000560643
3.14178e-05
-0.00146361
4.07478e-05
-0.00217297
3.26841e-05
-0.00268704
5.66722e-06
-0.00303121
-3.82574e-05
-0.0032476
-9.44897e-05
-0.0033821
-0.000159108
-0.00347173
-0.000229225
-0.00354181
-0.000303142
-0.00360687
-0.000380062
-0.00367398
-0.000459718
-0.00374603
-0.000542105
-0.003824
-0.000627347
-0.00390813
-0.000715657
-0.00399855
-0.000807332
-0.00409548
-0.000902741
-0.00419948
-0.00100223
-0.00431148
-0.00110585
-0.00443238
-0.00121308
-0.00456197
-0.00469827
-0.001323
1.02688e-05
-0.000570912
2.2248e-05
-0.00147559
2.2672e-05
-0.00217339
5.1305e-06
-0.0026695
-3.17162e-05
-0.00299437
-8.40597e-05
-0.00319525
-0.000147799
-0.00331836
-0.000219135
-0.00340039
-0.000295444
-0.0034655
-0.00037527
-0.00352704
-0.000457976
-0.00359127
-0.000543382
-0.00366063
-0.000631529
-0.00373585