/*--------------------------------*- C++ -*----------------------------------*\
  =========                 |
  \\      /  F ield         | OpenFOAM: The Open Source CFD Toolbox
   \\    /   O peration     | Website:  https://openfoam.org
    \\  /    A nd           | Version:  7
     \\/     M anipulation  |
\*---------------------------------------------------------------------------*/
FoamFile
{
    version     2.0;
    format      ascii;
    class       volScalarField;
    location    "83";
    object      p;
}
// * * * * * * * * * * * * * * * * * * * * * * * * * * * * * * * * * * * * * //

dimensions      [0 2 -2 0 0 0 0];

internalField   nonuniform List<scalar> 
40000
(
-0.31391
-0.314853
-0.315553
-0.316109
-0.316596
-0.317024
-0.31741
-0.317773
-0.318135
-0.31851
-0.318912
-0.319349
-0.31983
-0.320357
-0.320933
-0.321558
-0.322232
-0.322952
-0.323719
-0.32453
-0.325384
-0.326281
-0.32722
-0.328203
-0.329231
-0.330307
-0.331435
-0.332614
-0.333837
-0.335148
-0.311676
-0.312705
-0.313464
-0.314063
-0.314582
-0.315033
-0.315431
-0.315797
-0.316148
-0.3165
-0.316865
-0.31725
-0.31766
-0.318098
-0.318563
-0.319053
-0.319566
-0.320096
-0.32064
-0.321193
-0.321748
-0.322302
-0.32285
-0.323386
-0.323908
-0.324413
-0.3249
-0.32536
-0.325765
-0.326204
-0.309555
-0.310663
-0.311473
-0.31211
-0.312658
-0.313129
-0.313536
-0.313901
-0.31424
-0.314567
-0.314893
-0.315224
-0.315562
-0.315909
-0.316262
-0.316616
-0.316966
-0.317305
-0.317625
-0.317917
-0.318172
-0.31838
-0.318532
-0.318618
-0.31863
-0.318559
-0.318402
-0.318139
-0.317721
-0.317289
-0.307566
-0.308742
-0.309599
-0.310268
-0.310841
-0.311327
-0.311742
-0.312103
-0.312428
-0.312729
-0.313015
-0.31329
-0.313557
-0.313812
-0.314052
-0.314271
-0.314459
-0.314607
-0.314703
-0.314735
-0.314689
-0.314552
-0.31431
-0.313946
-0.313449
-0.312804
-0.312005
-0.311025
-0.309792
-0.308501
-0.305726
-0.306962
-0.307858
-0.308554
-0.309147
-0.309646
-0.310064
-0.310421
-0.31073
-0.311004
-0.311248
-0.311468
-0.311662
-0.311826
-0.311955
-0.312039
-0.312066
-0.312025
-0.3119
-0.311675
-0.311332
-0.310854
-0.310221
-0.309413
-0.308412
-0.3072
-0.30577
-0.304087
-0.302054
-0.299927
-0.304051
-0.305335
-0.306263
-0.306982
-0.30759
-0.308098
-0.308518
-0.308867
-0.30916
-0.309405
-0.309609
-0.309773
-0.309895
-0.30997
-0.309989
-0.30994
-0.30981
-0.309583
-0.309241
-0.308763
-0.30813
-0.307316
-0.3063
-0.305056
-0.303561
-0.301795
-0.299749
-0.297383
-0.294577
-0.291643
-0.302552
-0.303875
-0.304829
-0.305564
-0.306185
-0.306698
-0.307117
-0.307457
-0.307731
-0.307947
-0.30811
-0.30822
-0.308272
-0.308258
-0.30817
-0.307992
-0.307709
-0.307301
-0.306747
-0.306025
-0.305107
-0.303968
-0.302578
-0.30091
-0.298936
-0.296631
-0.293988
-0.290966
-0.287419
-0.28371
-0.301241
-0.302593
-0.303566
-0.304313
-0.304941
-0.305457
-0.305872
-0.306201
-0.306456
-0.306643
-0.306765
-0.30682
-0.306804
-0.306705
-0.306513
-0.30621
-0.305778
-0.305196
-0.304438
-0.303479
-0.302287
-0.300833
-0.299084
-0.297006
-0.294568
-0.291744
-0.288526
-0.284877
-0.280628
-0.27618
-0.300127
-0.301499
-0.302483
-0.303237
-0.303869
-0.304384
-0.304792
-0.305109
-0.305343
-0.3055
-0.305582
-0.305585
-0.305502
-0.305321
-0.305029
-0.304606
-0.304032
-0.303283
-0.30233
-0.301144
-0.29969
-0.297935
-0.29584
-0.29337
-0.290488
-0.287165
-0.283397
-0.279152
-0.27424
-0.269087
-0.299218
-0.300599
-0.301589
-0.302345
-0.302975
-0.303486
-0.303885
-0.304187
-0.3044
-0.304528
-0.304571
-0.304522
-0.304375
-0.304116
-0.303728
-0.303191
-0.302482
-0.301574
-0.300436
-0.299034
-0.297333
-0.295291
-0.292869
-0.290025
-0.28672
-0.282922
-0.278629
-0.27382
-0.268285
-0.262454
-0.298517
-0.2999
-0.300888
-0.30164
-0.302266
-0.302769
-0.303157
-0.303443
-0.303634
-0.303732
-0.303735
-0.303638
-0.30343
-0.303095
-0.302617
-0.301973
-0.301136
-0.300079
-0.298767
-0.297163
-0.295228
-0.292917
-0.290187
-0.286991
-0.283286
-0.279037
-0.274245
-0.268904
-0.262789
-0.256288
-0.29803
-0.299404
-0.300384
-0.301128
-0.301744
-0.302237
-0.302611
-0.302879
-0.303047
-0.303115
-0.303081
-0.302936
-0.302669
-0.302264
-0.301701
-0.300955
-0.3
-0.298804
-0.29733
-0.295539
-0.293387
-0.290826
-0.287809
-0.284284
-0.280205
-0.275532
-0.270265
-0.264422
-0.257769
-0.250577
-0.297756
-0.299113
-0.300079
-0.300811
-0.301413
-0.301891
-0.302249
-0.302497
-0.302641
-0.302679
-0.302607
-0.302417
-0.302095
-0.301624
-0.300981
-0.300143
-0.299078
-0.297753
-0.296131
-0.294167
-0.291816
-0.289027
-0.285745
-0.281918
-0.277493
-0.272423
-0.266706
-0.260389
-0.253245
-0.245265
-0.297696
-0.299028
-0.299973
-0.300687
-0.301272
-0.301732
-0.302071
-0.302298
-0.302415
-0.302423
-0.302316
-0.302082
-0.301708
-0.301174
-0.300459
-0.299534
-0.298369
-0.296928
-0.29517
-0.29305
-0.290519
-0.287523
-0.284003
-0.279901
-0.275159
-0.269725
-0.263584
-0.25682
-0.249233
-0.240157
-0.297849
-0.299146
-0.300065
-0.300756
-0.301319
-0.301758
-0.302074
-0.302277
-0.302369
-0.302346
-0.302203
-0.301927
-0.301504
-0.300913
-0.30013
-0.299127
-0.297871
-0.296324
-0.294445
-0.292186
-0.289495
-0.286313
-0.282581
-0.278234
-0.27321
-0.267445
-0.260914
-0.253732
-0.245767
-0.235057
-0.29821
-0.299465
-0.300351
-0.301015
-0.301552
-0.301965
-0.302256
-0.302433
-0.302496
-0.302442
-0.302264
-0.301948
-0.301478
-0.300833
-0.299989
-0.298914
-0.297577
-0.295936
-0.29395
-0.291567
-0.288735
-0.285392
-0.281474
-0.276912
-0.27164
-0.265585
-0.258709
-0.251124
-0.242823
-0.231671
-0.298775
-0.29998
-0.300828
-0.301458
-0.301965
-0.302348
-0.302611
-0.302759
-0.302792
-0.302706
-0.302492
-0.302137
-0.301622
-0.300928
-0.300027
-0.298888
-0.297477
-0.295753
-0.293672
-0.291181
-0.288226
-0.284743
-0.280665
-0.275919
-0.270433
-0.264128
-0.256955
-0.249018
-0.240151
-0.228735
-0.299539
-0.300686
-0.301489
-0.302082
-0.302553
-0.302903
-0.303133
-0.303249
-0.303249
-0.303129
-0.302879
-0.302485
-0.301928
-0.301186
-0.300233
-0.299035
-0.297558
-0.29576
-0.293595
-0.291011
-0.287949
-0.284345
-0.28013
-0.275228
-0.269562
-0.263044
-0.255616
-0.247368
-0.238055
-0.226024
-0.300495
-0.301576
-0.302328
-0.302878
-0.303308
-0.30362
-0.303814
-0.303893
-0.303858
-0.303702
-0.303414
-0.302981
-0.302382
-0.301595
-0.300592
-0.299341
-0.297804
-0.295939
-0.2937
-0.291032
-0.287877
-0.284169
-0.279836
-0.274802
-0.268984
-0.262292
-0.254649
-0.246132
-0.236507
-0.223615
-0.301634
-0.302642
-0.303338
-0.30384
-0.304224
-0.304492
-0.304644
-0.304684
-0.304609
-0.304414
-0.304087
-0.303613
-0.302972
-0.30214
-0.301089
-0.299787
-0.298194
-0.296268
-0.293961
-0.291218
-0.28798
-0.28418
-0.279744
-0.274595
-0.268649
-0.261812
-0.253994
-0.245247
-0.235442
-0.221551
-0.30295
-0.303878
-0.304511
-0.304958
-0.305291
-0.30551
-0.305615
-0.30561
-0.305492
-0.305253
-0.304883
-0.304366
-0.303681
-0.302804
-0.301706
-0.300352
-0.298706
-0.296722
-0.294351
-0.291539
-0.288223
-0.284338
-0.279809
-0.274557
-0.268499
-0.261541
-0.253582
-0.244639
-0.234792
-0.219852
-0.304433
-0.305274
-0.305839
-0.306226
-0.306501
-0.306665
-0.306717
-0.306661
-0.306493
-0.306207
-0.30579
-0.305225
-0.304493
-0.303568
-0.302421
-0.301017
-0.299316
-0.297274
-0.29484
-0.29196
-0.28857
-0.284602
-0.279984
-0.274636
-0.268475
-0.261413
-0.253343
-0.244227
-0.234474
-0.218532
-0.306076
-0.306824
-0.307314
-0.307635
-0.307845
-0.307947
-0.30794
-0.307826
-0.307603
-0.307262
-0.306792
-0.306175
-0.305392
-0.304415
-0.303215
-0.301756
-0.299999
-0.297897
-0.295399
-0.292449
-0.288983
-0.284933
-0.280226
-0.274784
-0.268524
-0.261366
-0.253211
-0.243939
-0.234389
-0.217602
-0.307869
-0.308518
-0.308928
-0.309176
-0.309316
-0.309348
-0.309274
-0.309095
-0.308809
-0.308406
-0.307876
-0.307201
-0.306359
-0.305325
-0.304067
-0.302549
-0.300731
-0.298564
-0.295998
-0.292973
-0.289427
-0.285291
-0.280493
-0.274955
-0.268599
-0.26135
-0.253129
-0.243722
-0.234439
-0.217068
-0.309807
-0.310351
-0.310675
-0.310844
-0.310906
-0.310861
-0.310711
-0.310459
-0.3101
-0.309628
-0.309029
-0.308288
-0.307381
-0.306282
-0.304959
-0.303375
-0.301488
-0.299251
-0.296609
-0.293504
-0.289872
-0.285644
-0.280748
-0.275111
-0.268658
-0.261323
-0.253051
-0.243545
-0.23453
-0.216934
-0.311882
-0.312317
-0.312549
-0.312633
-0.312608
-0.312477
-0.312244
-0.311908
-0.311468
-0.310916
-0.31024
-0.309423
-0.308442
-0.307269
-0.305873
-0.304215
-0.302252
-0.299935
-0.29721
-0.294016
-0.290289
-0.285961
-0.280962
-0.275221
-0.268671
-0.261253
-0.252935
-0.243384
-0.234576
-0.217178
-0.31409
-0.314412
-0.314546
-0.314537
-0.314418
-0.314193
-0.313865
-0.313437
-0.312905
-0.312263
-0.3115
-0.310596
-0.309531
-0.308275
-0.306796
-0.305054
-0.303006
-0.3006
-0.297781
-0.294488
-0.290657
-0.28622
-0.28111
-0.275261
-0.26861
-0.261113
-0.252743
-0.24321
-0.234459
-0.217672
-0.31643
-0.316633
-0.316664
-0.316556
-0.316334
-0.316005
-0.315573
-0.31504
-0.314406
-0.313664
-0.312801
-0.311801
-0.31064
-0.309291
-0.307718
-0.305882
-0.303738
-0.301232
-0.298308
-0.294906
-0.290959
-0.286403
-0.281173
-0.27521
-0.26846
-0.26089
-0.252459
-0.243006
-0.234012
-0.218064
-0.318899
-0.318981
-0.318903
-0.318688
-0.318355
-0.317912
-0.317365
-0.316718
-0.31597
-0.315115
-0.314142
-0.313033
-0.311766
-0.310312
-0.308635
-0.306694
-0.304441
-0.301824
-0.298784
-0.295259
-0.291185
-0.286497
-0.281138
-0.275054
-0.268205
-0.260578
-0.25211
-0.242836
-0.233229
-0.218333
-0.321502
-0.321458
-0.321266
-0.320936
-0.320483
-0.319916
-0.319244
-0.31847
-0.317597
-0.316618
-0.315522
-0.314294
-0.31291
-0.311339
-0.309547
-0.307489
-0.305116
-0.302375
-0.299204
-0.295542
-0.291325
-0.286492
-0.28099
-0.274778
-0.26783
-0.26016
-0.251718
-0.242772
-0.232663
-0.220425
-0.324243
-0.324069
-0.323756
-0.323304
-0.322722
-0.322022
-0.321213
-0.320303
-0.319292
-0.318177
-0.316949
-0.31559
-0.314076
-0.312378
-0.310458
-0.308271
-0.305765
-0.302885
-0.299569
-0.295753
-0.291376
-0.286379
-0.280718
-0.274364
-0.267308
-0.259593
-0.251209
-0.242596
-0.232878
-0.227177
-0.32713
-0.326822
-0.326382
-0.3258
-0.325081
-0.324237
-0.323281
-0.322223
-0.321064
-0.319803
-0.31843
-0.316929
-0.315276
-0.313439
-0.311379
-0.309049
-0.306396
-0.303361
-0.299881
-0.295891
-0.291332
-0.28615
-0.280309
-0.273793
-0.266613
-0.258832
-0.250489
-0.242026
-0.232841
-0.227043
-0.330175
-0.329726
-0.329153
-0.328434
-0.327567
-0.32657
-0.325458
-0.324241
-0.322924
-0.321506
-0.319979
-0.318325
-0.316521
-0.314534
-0.312321
-0.309835
-0.307018
-0.303809
-0.300143
-0.295956
-0.291189
-0.285797
-0.279751
-0.273049
-0.265718
-0.257839
-0.24948
-0.241022
-0.232015
-0.225338
-0.33339
-0.332794
-0.33208
-0.331216
-0.330194
-0.329034
-0.327756
-0.326372
-0.324887
-0.323303
-0.321611
-0.319795
-0.31783
-0.31568
-0.313301
-0.310642
-0.307642
-0.304236
-0.300358
-0.295946
-0.290943
-0.285311
-0.279032
-0.272118
-0.264611
-0.2566
-0.248168
-0.239626
-0.230622
-0.223194
-0.336791
-0.336041
-0.335179
-0.334161
-0.332974
-0.331644
-0.330191
-0.32863
-0.32697
-0.325211
-0.323346
-0.321358
-0.31922
-0.316894
-0.314333
-0.311482
-0.308275
-0.304646
-0.300528
-0.295858
-0.290587
-0.284685
-0.278146
-0.270994
-0.263286
-0.255117
-0.246573
-0.237909
-0.228849
-0.220843
-0.340395
-0.339481
-0.338463
-0.337283
-0.335924
-0.334415
-0.33278
-0.331035
-0.329191
-0.327249
-0.325203
-0.323033
-0.32071
-0.318193
-0.315432
-0.312365
-0.308925
-0.305043
-0.30065
-0.295688
-0.290115
-0.283912
-0.277085
-0.269675
-0.261747
-0.253403
-0.244729
-0.235938
-0.226809
-0.218446
-0.344221
-0.343132
-0.341948
-0.340598
-0.33906
-0.337364
-0.33554
-0.333605
-0.33157
-0.329439
-0.327201
-0.324839
-0.322317
-0.319593
-0.316609
-0.3133
-0.309595
-0.305423
-0.300719
-0.295428
-0.28952
-0.282986
-0.275851
-0.268165
-0.260007
-0.251479
-0.242671
-0.233763
-0.224579
-0.216002
-0.348285
-0.34701
-0.34565
-0.344123
-0.342397
-0.340509
-0.338489
-0.336357
-0.334126
-0.331797
-0.329361
-0.326793
-0.324057
-0.321103
-0.31787
-0.314288
-0.310282
-0.305782
-0.300726
-0.29507
-0.288793
-0.281905
-0.274443
-0.266472
-0.258079
-0.249369
-0.240429
-0.231421
-0.222198
-0.213508
-0.352606
-0.351131
-0.349586
-0.347873
-0.345952
-0.343865
-0.341645
-0.339311
-0.336878
-0.334344
-0.331697
-0.328909
-0.32594
-0.322732
-0.319219
-0.315326
-0.310979
-0.306109
-0.300662
-0.294604
-0.28793
-0.280666
-0.272866
-0.264605
-0.255979
-0.247092
-0.238029
-0.228936
-0.219686
-0.210942
-0.357198
-0.355508
-0.353768
-0.351861
-0.34974
-0.347449
-0.345023
-0.342483
-0.33984
-0.337092
-0.334222
-0.331198
-0.327971
-0.324479
-0.32065
-0.316406
-0.311675
-0.306391
-0.300512
-0.294019
-0.286925
-0.279271
-0.271125
-0.262576
-0.253722
-0.244665
-0.235489
-0.226322
-0.217055
-0.208287
-0.362075
-0.360155
-0.358209
-0.356101
-0.353774
-0.351274
-0.348638
-0.345885
-0.343026
-0.340054
-0.336946
-0.333663
-0.33015
-0.326339
-0.322153
-0.317513
-0.312351
-0.30661
-0.300262
-0.293305
-0.285771
-0.277718
-0.269228
-0.260396
-0.251321
-0.242104
-0.232822
-0.223587
-0.214308
-0.205528
-0.367247
-0.365081
-0.362918
-0.360604
-0.358064
-0.355351
-0.3525
-0.34953
-0.346445
-0.343235
-0.339869
-0.336302
-0.332471
-0.3283
-0.323711
-0.318628
-0.312987
-0.306747
-0.299897
-0.292453
-0.284466
-0.276011
-0.26718
-0.258072
-0.248786
-0.239416
-0.230034
-0.220737
-0.211445
-0.202655
-0.372718
-0.370291
-0.367903
-0.365374
-0.362619
-0.359688
-0.356617
-0.353422
-0.350101
-0.346636
-0.34299
-0.339107
-0.334917
-0.330342
-0.325301
-0.319724
-0.313559
-0.306782
-0.2994
-0.291452
-0.283006
-0.274151
-0.264985
-0.25561
-0.246123
-0.236607
-0.227129
-0.217771
-0.208463
-0.199659
-0.378491
-0.375788
-0.373166
-0.370418
-0.367442
-0.364288
-0.360993
-0.357563
-0.353992
-0.350252
-0.346296
-0.342061
-0.337469
-0.332439
-0.326894
-0.320774
-0.314042
-0.306693
-0.298757
-0.290294
-0.281387
-0.272137
-0.262646
-0.253015
-0.243334
-0.233678
-0.224107
-0.214688
-0.20536
-0.196535
-0.384561
-0.381568
-0.378704
-0.375732
-0.372532
-0.369152
-0.365625
-0.36195
-0.358111
-0.35407
-0.349771
-0.34514
-0.340097
-0.334559
-0.328458
-0.321746
-0.314406
-0.306458
-0.297952
-0.288968
-0.279605
-0.269968
-0.260164
-0.250286
-0.240419
-0.230628
-0.220965
-0.211482
-0.202131
-0.193276
-0.390919
-0.387624
-0.384511
-0.381312
-0.377884
-0.374274
-0.370506
-0.366572
-0.362443
-0.358071
-0.353389
-0.348315
-0.342766
-0.336666
-0.329955
-0.322606
-0.314625
-0.306055
-0.296969
-0.287465
-0.277653
-0.267642
-0.257535
-0.247421
-0.237374
-0.227452
-0.217697
-0.208149
-0.198771
-0.189879
-0.397548
-0.393941
-0.390575
-0.387147
-0.383488
-0.379641
-0.375622
-0.371411
-0.366966
-0.362227
-0.357116
-0.351547
-0.345436
-0.338716
-0.331346
-0.32332
-0.314669
-0.305462
-0.295794
-0.285776
-0.275525
-0.265152
-0.254754
-0.244414
-0.234194
-0.224143
-0.214296
-0.204682
-0.195273
-0.186339
-0.404427
-0.4005
-0.396877
-0.393219
-0.389327
-0.385237
-0.380954
-0.376444
-0.371652
-0.366503
-0.360913
-0.354791
-0.34806
-0.340667
-0.33259
-0.323852
-0.31451
-0.304659
-0.29441
-0.283888
-0.273212
-0.262491
-0.251815
-0.241256
-0.230869
-0.220693
-0.210754
-0.201074
-0.191631
-0.182651
-0.411526
-0.407274
-0.403395
-0.399505
-0.395377
-0.391035
-0.386472
-0.381637
-0.376461
-0.370856
-0.364731
-0.357998
-0.350588
-0.342469
-0.333645
-0.324167
-0.314121
-0.303624
-0.292803
-0.28179
-0.270705
-0.259649
-0.248706
-0.237939
-0.22739
-0.217091
-0.207063
-0.197315
-0.187837
-0.178808
-0.41881
-0.414231
-0.410095
-0.405975
-0.401608
-0.397004
-0.39214
-0.386951
-0.381348
-0.375236
-0.368517
-0.361111
-0.352966
-0.344073
-0.334468
-0.32423
-0.313474
-0.302336
-0.290956
-0.279468
-0.26799
-0.256615
-0.245418
-0.234449
-0.223745
-0.213328
-0.20321
-0.193397
-0.183885
-0.174807
-0.426236
-0.42133
-0.416942
-0.412593
-0.407981
-0.403103
-0.397916
-0.392336
-0.38626
-0.379583
-0.37221
-0.364072
-0.355139
-0.345431
-0.335017
-0.324007
-0.312543
-0.300775
-0.288852
-0.276908
-0.265054
-0.253375
-0.241935
-0.230775
-0.219921
-0.20939
-0.199187
-0.189312
-0.179766
-0.17064
-0.433752
-0.428525
-0.423888
-0.419312
-0.414452
-0.409283
-0.403746
-0.397736
-0.391135
-0.383835
-0.375747
-0.366819
-0.35705
-0.346493
-0.335251
-0.323466
-0.311301
-0.298919
-0.286473
-0.274093
-0.261881
-0.249914
-0.238243
-0.226901
-0.215906
-0.205266
-0.194982
-0.185049
-0.175472
-0.166302
-0.4413
-0.43576
-0.430882
-0.426081
-0.420965
-0.415489
-0.409571
-0.403085
-0.395906
-0.387922
-0.379059
-0.369287
-0.358641
-0.347209
-0.33513
-0.322575
-0.309723
-0.296747
-0.2838
-0.271006
-0.258456
-0.246217
-0.234328
-0.222814
-0.211685
-0.200943
-0.190584
-0.180599
-0.170996
-0.161787
-0.448816
-0.442973
-0.437863
-0.432839
-0.42746
-0.421656
-0.415321
-0.408313
-0.400498
-0.391771
-0.382074
-0.371413
-0.359856
-0.347533
-0.334617
-0.321301
-0.307783
-0.294238
-0.280815
-0.267628
-0.254761
-0.242265
-0.230173
-0.218498
-0.207245
-0.196409
-0.185983
-0.175954
-0.166328
-0.157087
-0.456227
-0.450097
-0.444764
-0.439519
-0.433867
-0.427711
-0.420922
-0.413341
-0.404832
-0.395303
-0.384723
-0.373131
-0.36064
-0.347419
-0.333672
-0.319616
-0.305456
-0.291369
-0.277496
-0.263942
-0.250777
-0.238043
-0.225761
-0.213939
-0.202572
-0.191652
-0.181167
-0.171103
-0.161463
-0.152198
-0.463454
-0.457054
-0.451511
-0.446046
-0.44011
-0.433575
-0.42629
-0.418086
-0.408827
-0.398442
-0.386931
-0.374379
-0.36094
-0.346823
-0.332262
-0.31749
-0.302717
-0.288118
-0.273824
-0.259927
-0.246486
-0.233532
-0.221077
-0.20912
-0.197652
-0.18666
-0.176127
-0.166037
-0.156391
-0.147113
-0.470411
-0.463763
-0.458022
-0.452338
-0.446105
-0.439162
-0.43134
-0.42246
-0.412397
-0.401106
-0.388629
-0.375095
-0.360705
-0.345704
-0.330352
-0.314894
-0.299542
-0.284463
-0.269777
-0.255564
-0.24187
-0.228716
-0.216104
-0.204027
-0.192472
-0.18142
-0.170851
-0.160749
-0.151105
-0.141827
-0.477009
-0.470137
-0.46421
-0.458308
-0.451762
-0.444382
-0.435979
-0.426373
-0.415456
-0.403218
-0.389747
-0.37522
-0.359885
-0.344021
-0.327909
-0.311801
-0.295907
-0.280382
-0.265336
-0.250834
-0.23691
-0.223576
-0.210826
-0.198647
-0.18702
-0.175923
-0.165332
-0.15523
-0.1456
-0.136336
-0.483153
-0.476083
-0.469985
-0.463864
-0.456989
-0.449139
-0.440113
-0.429733
-0.417919
-0.404701
-0.390217
-0.374699
-0.358436
-0.341739
-0.324903
-0.308185
-0.291787
-0.275853
-0.260479
-0.245717
-0.231589
-0.218096
-0.205228
-0.192965
-0.181283
-0.170156
-0.159559
-0.149472
-0.139869
-0.130636
-0.488743
-0.481504
-0.47525
-0.468908
-0.461687
-0.453336
-0.443645
-0.43245
-0.419701
-0.405479
-0.389978
-0.373479
-0.356315
-0.338821
-0.321304
-0.30402
-0.28716
-0.270856
-0.255187
-0.240194
-0.225888
-0.212261
-0.199296
-0.186968
-0.17525
-0.164111
-0.153523
-0.143468
-0.133906
-0.124723
-0.49368
-0.486302
-0.479906
-0.473341
-0.465756
-0.456874
-0.44648
-0.434432
-0.420722
-0.405483
-0.388968
-0.371512
-0.353481
-0.335235
-0.317085
-0.299282
-0.282004
-0.265368
-0.249441
-0.234248
-0.219791
-0.206056
-0.193017
-0.180645
-0.168909
-0.157777
-0.147218
-0.137211
-0.127705
-0.118593
-0.497862
-0.490377
-0.483854
-0.477063
-0.469096
-0.459654
-0.448524
-0.435593
-0.420902
-0.404646
-0.387135
-0.368753
-0.3499
-0.330952
-0.312221
-0.293948
-0.276298
-0.259372
-0.243222
-0.227862
-0.213284
-0.199466
-0.186377
-0.173984
-0.162253
-0.151147
-0.140634
-0.130694
-0.121261
-0.11224
-0.501185
-0.493627
-0.486992
-0.479973
-0.471607
-0.461577
-0.449683
-0.435849
-0.420171
-0.402906
-0.384427
-0.365161
-0.345539
-0.325944
-0.306687
-0.287997
-0.270023
-0.25285
-0.236515
-0.221022
-0.206353
-0.192479
-0.179366
-0.166976
-0.15527
-0.144212
-0.133766
-0.123912
-0.11457
-0.105661
-0.503551
-0.495952
-0.48922
-0.48197
-0.47319
-0.462551
-0.449872
-0.435121
-0.418459
-0.400209
-0.380799
-0.360701
-0.340367
-0.320187
-0.300463
-0.28141
-0.263161
-0.245784
-0.229304
-0.213713
-0.198985
-0.185085
-0.171974
-0.159611
-0.147955
-0.136965
-0.126607
-0.116858
-0.107628
-0.0988579
-0.50486
-0.497256
-0.49044
-0.482957
-0.47375
-0.462483
-0.449006
-0.433338
-0.415707
-0.396504
-0.376212
-0.355341
-0.33436
-0.313658
-0.293529
-0.27417
-0.255696
-0.238162
-0.221576
-0.205923
-0.191169
-0.177274
-0.164193
-0.151883
-0.140299
-0.1294
-0.11915
-0.109524
-0.100431
-0.0918278
-0.50502
-0.497444
-0.49056
-0.482841
-0.473196
-0.461291
-0.44701
-0.430433
-0.41186
-0.391747
-0.370632
-0.349055
-0.327496
-0.306341
-0.28587
-0.266262
-0.247616
-0.229969
-0.213321
-0.197643
-0.182898
-0.169038
-0.156017
-0.143786
-0.132299
-0.121512
-0.111385
-0.101898
-0.0929622
-0.084544
-0.50394
-0.496427
-0.489489
-0.481535
-0.471446
-0.458897
-0.443815
-0.426349
-0.406871
-0.385903
-0.36403
-0.341819
-0.319756
-0.298219
-0.277471
-0.257674
-0.238908
-0.221197
-0.204528
-0.188865
-0.174164
-0.160372
-0.14744
-0.135317
-0.123952
-0.113298
-0.103313
-0.0939756
-0.0851977
-0.0769245
-0.50154
-0.494122
-0.487144
-0.478957
-0.468421
-0.455229
-0.43936
-0.421035
-0.4007
-0.37894
-0.356384
-0.333616
-0.311126
-0.28928
-0.268323
-0.248397
-0.229565
-0.211838
-0.195192
-0.179584
-0.164962
-0.151274
-0.138462
-0.126474
-0.115259
-0.104763
-0.0949427
-0.0857829
-0.0771635
-0.068864
-0.497743
-0.490453
-0.483449
-0.475033
-0.464052
-0.450226
-0.433594
-0.41445
-0.393315
-0.370836
-0.347675
-0.324434
-0.301597
-0.279516
-0.258417
-0.238423
-0.21958
-0.201887
-0.185308
-0.169795
-0.155292
-0.14174
-0.129081
-0.117259
-0.10622
-0.0959071
-0.0862833
-0.0773468
-0.0689453
-0.0604603
-0.492483
-0.485352
-0.478338
-0.469697
-0.458279
-0.443837
-0.426472
-0.40656
-0.384693
-0.361572
-0.337893
-0.314263
-0.291162
-0.268922
-0.24775
-0.227749
-0.208951
-0.19134
-0.174875
-0.159499
-0.145152
-0.131772
-0.119299
-0.107673
-0.0968378
-0.0867355
-0.0773359
-0.0686198
-0.060304
-0.0522305
-0.485702
-0.478759
-0.471751
-0.462895
-0.451053
-0.436018
-0.417962
-0.397341
-0.374817
-0.35114
-0.327031
-0.303102
-0.279819
-0.257497
-0.236321
-0.216375
-0.197677
-0.1802
-0.163894
-0.148697
-0.134546
-0.121374
-0.109119
-0.09772
-0.0871184
-0.0772553
-0.0681027
-0.0596146
-0.0514756
-0.043819
-0.477352
-0.470627
-0.463639
-0.45458
-0.442331
-0.426736
-0.40804
-0.386777
-0.363677
-0.339536
-0.31509
-0.290953
-0.267572
-0.245244
-0.224133
-0.204305
-0.185762
-0.168469
-0.152368
-0.137394
-0.123476
-0.110549
-0.0985468
-0.0874064
-0.0770666
-0.0674701
-0.0585877
-0.0503551
-0.0424506
-0.0351724
-0.467396
-0.460915
-0.453963
-0.444716
-0.432086
-0.415969
-0.39669
-0.374861
-0.351275
-0.326762
-0.302076
-0.27782
-0.254427
-0.23217
-0.211192
-0.191543
-0.173212
-0.156154
-0.140305
-0.125595
-0.111952
-0.0993062
-0.0875897
-0.0767389
-0.0666904
-0.0573871
-0.0487999
-0.040852
-0.0332113
-0.0262916
-0.455806
-0.449596
-0.442697
-0.433279
-0.420297
-0.403706
-0.383909
-0.361596
-0.337615
-0.31283
-0.288
-0.263717
-0.240395
-0.218285
-0.197508
-0.178099
-0.160036
-0.143264
-0.127714
-0.113311
-0.099982
-0.0876534
-0.0762568
-0.0657268
-0.0559986
-0.0470151
-0.0387482
-0.0311103
-0.0237517
-0.0171924
-0.442568
-0.436651
-0.429823
-0.420256
-0.406956
-0.389944
-0.369701
-0.346991
-0.322713
-0.297755
-0.272877
-0.248659
-0.225492
-0.203603
-0.183095
-0.163987
-0.146248
-0.129811
-0.114606
-0.100554
-0.0875772
-0.0756026
-0.0645596
-0.0543814
-0.0450019
-0.0363645
-0.0284428
-0.0211367
-0.0140761
-0.0078878
-0.427676
-0.422075
-0.415336
-0.405644
-0.392066
-0.374692
-0.354081
-0.331065
-0.306589
-0.281559
-0.256732
-0.232669
-0.209737
-0.188144
-0.167971
-0.149225
-0.131861
-0.115811
-0.100996
-0.0873364
-0.074752
-0.0631674
-0.0525113
-0.0427155
-0.0337129
-0.0254474
-0.0178946
-0.0109408
-0.00419401
0.00160939
-0.411136
-0.405873
-0.399242
-0.389453
-0.375641
-0.357968
-0.337071
-0.313844
-0.289271
-0.26427
-0.23959
-0.21577
-0.193155
-0.17193
-0.152157
-0.133831
-0.116897
-0.101281
-0.0869024
-0.0736765
-0.0615227
-0.0503638
-0.0401272
-0.030744
-0.0221459
-0.0142778
-0.00711696
-0.000534805
0.00588221
0.0112862
-0.392968
-0.38806
-0.381556
-0.3717
-0.357704
-0.339802
-0.318703
-0.295362
-0.270795
-0.245924
-0.221484
-0.197994
-0.175775
-0.154986
-0.135678
-0.117828
-0.101376
-0.0862433
-0.0723443
-0.0595933
-0.0479078
-0.0372094
-0.0274247
-0.0184837
-0.0103172
-0.00287139
0.00387514
0.0100668
0.0161377
0.021128
-0.373198
-0.368663
-0.362308
-0.352418
-0.338289
-0.320228
-0.299018
-0.275662
-0.251202
-0.226559
-0.202451
-0.179376
-0.157627
-0.137345
-0.11856
-0.101243
-0.085324
-0.0707208
-0.0573446
-0.0451083
-0.0339279
-0.0237242
-0.0144229
-0.00595302
0.00175515
0.00875425
0.0150646
0.020847
0.0265553
0.0311187
-0.351868
-0.34772
-0.341534
-0.331645
-0.317438
-0.299295
-0.278063
-0.254794
-0.230539
-0.206216
-0.182533
-0.159955
-0.13875
-0.119038
-0.100837
-0.0841054
-0.0687688
-0.05474
-0.0419284
-0.0302453
-0.0196058
-0.00992985
-0.00114262
0.00682772
0.0140515
0.0205798
0.0264323
0.0317868
0.0371155
0.0412398
-0.329026
-0.325279
-0.319284
-0.309432
-0.295204
-0.277057
-0.255901
-0.232811
-0.208849
-0.184951
-0.161778
-0.139773
-0.119182
-0.100104
-0.0825431
-0.0664486
-0.0517411
-0.03833
-0.026123
-0.0150302
-0.00496592
0.00415022
0.0123937
0.0198369
0.0265505
0.0325842
0.0379575
0.0428651
0.0477959
0.051469
-0.304732
-0.301396
-0.295614
-0.285838
-0.271652
-0.253589
-0.23259
-0.209748
-0.186204
-0.162816
-0.140235
-0.118879
-0.0989678
-0.080583
-0.0637161
-0.0483079
-0.0342743
-0.0215223
-0.00995802
0.000509178
0.00996529
0.0184911
0.0261622
0.0330515
0.0392299
0.0447453
0.0496178
0.0540588
0.0585704
0.0617762
-0.279056
-0.276139
-0.270592
-0.260935
-0.246864
-0.228967
-0.208134
-0.185712
-0.162663
-0.139869
-0.11796
-0.0973229
-0.0781547
-0.0605196
-0.0443973
-0.0297216
-0.0164044
-0.00435046
0.00653498
0.0163431
0.0251599
0.0330664
0.0401379
0.0464477
0.0520663
0.05704
0.0613899
0.0653426
0.069408
0.0721255
-0.252076
-0.249581
-0.244294
-0.234805
-0.220909
-0.20315
-0.182734
-0.160762
-0.138291
-0.116175
-0.0950119
-0.0751596
-0.0567934
-0.0399606
-0.0246306
-0.0107307
0.00183036
0.0131495
0.0233223
0.0324401
0.0405886
0.0478486
0.0542951
0.0600011
0.0650364
0.069445
0.07325
0.0766901
0.0802761
0.0824858
-0.223863
-0.22181
-0.216805
-0.20752
-0.193795
-0.176393
-0.156397
-0.134968
-0.113162
-0.0918014
-0.0714526
-0.0524469
-0.0349373
-0.0189559
-0.00446244
0.00862119
0.0203892
0.0309398
0.0403687
0.0487671
0.0562206
0.0628091
0.0686071
0.0736869
0.0781166
0.0819374
0.0851751
0.0880781
0.0911493
0.0928323
-0.194496
-0.192925
-0.188211
-0.179147
-0.165722
-0.148705
-0.12921
-0.108413
-0.0873504
-0.0668174
-0.0473476
-0.0292454
-0.0126429
0.00244193
0.0160581
0.0282884
0.0392295
0.0489803
0.0576367
0.0652896
0.0720238
0.0779183
0.0830467
0.0874802
0.0912834
0.0944945
0.0971449
0.0994916
0.102008
0.103101
-0.164056
-0.163044
-0.158607
-0.149819
-0.136743
-0.12018
-0.101268
-0.0811813
-0.0609362
-0.0412969
-0.0227652
-0.00561858
0.0100307
0.0241779
0.0368796
0.0482231
0.0583065
0.0672295
0.0750878
0.0819716
0.087965
0.0931457
0.0975865
0.101356
0.104514
0.107095
0.109144
0.110919
0.112804
0.113136
-0.132708
-0.132237
-0.128103
-0.119632
-0.106959
-0.0909172
-0.0726622
-0.0533599
-0.0340007
-0.0153162
0.00222369
0.0183677
0.0330222
0.0461947
0.0579489
0.0683753
0.0775737
0.0856439
0.0926814
0.0987756
0.10401
0.10846
0.112198
0.11529
0.117787
0.119725
0.121167
0.122342
0.123423
0.122769
-0.100609
-0.100574
-0.0968047
-0.0886933
-0.0764747
-0.0610196
-0.0434906
-0.0250399
-0.00662864
0.0110459
0.0275458
0.0426451
0.0562682
0.0684333
0.0792106
0.0886935
0.0969829
0.104179
0.110376
0.115663
0.120122
0.123829
0.126853
0.129257
0.131087
0.132383
0.133234
0.133766
0.133802
0.132033
-0.0678022
-0.0682134
-0.064828
-0.0571117
-0.0453988
-0.0305913
-0.0138522
0.00368545
0.0210929
0.0377083
0.0531258
0.0671438
0.0797032
0.0908328
0.100608
0.109125
0.116484
0.122787
0.128127
0.132592
0.136264
0.139217
0.14152
0.143231
0.144395
0.14507
0.145366
0.145236
0.144138
0.141443
-0.0344059
-0.0352773
-0.0322889
-0.0250016
-0.0138431
0.000260516
0.0161515
0.0327209
0.0490749
0.0645884
0.0788868
0.0917919
0.103261
0.113331
0.122082
0.129614
0.136027
0.141422
0.145891
0.149523
0.152397
0.154588
0.156163
0.157179
0.157682
0.157757
0.157514
0.156698
0.154509
0.153073
-0.000548246
-0.00188504
0.000692881
0.00751935
0.0180785
0.0314266
0.0464172
0.0619696
0.0772272
0.091602
0.10475
0.116517
0.126872
0.135863
0.143575
0.150106
0.155559
0.160034
0.163623
0.166412
0.168481
0.169904
0.170746
0.171064
0.17091
0.170378
0.169549
0.168092
0.16552
0.164721
0.0336433
0.03184
0.0339948
0.040331
0.0502498
0.0627963
0.0768403
0.0913333
0.105458
0.118664
0.130637
0.141244
0.150469
0.158366
0.165025
0.170544
0.175028
0.178574
0.181275
0.183215
0.184474
0.185125
0.185232
0.184851
0.18404
0.182893
0.181457
0.179409
0.176523
0.175639
0.0680404
0.0657718
0.0674922
0.0733115
0.0825534
0.0942575
0.107315
0.120713
0.133675
0.145688
0.156467
0.165899
0.173981
0.180775
0.186371
0.190872
0.19438
0.196992
0.198801
0.199889
0.200336
0.200212
0.199582
0.198503
0.197034
0.195265
0.193227
0.190635
0.18741
0.186168
0.102514
0.0997829
0.101059
0.106338
0.114871
0.125698
0.137736
0.15001
0.161787
0.172588
0.182159
0.190406
0.197338
0.203022
0.207553
0.211031
0.213561
0.215238
0.216153
0.216389
0.216023
0.215126
0.213761
0.211984
0.209857
0.207463
0.204824
0.201692
0.198071
0.19637
0.136933
0.133745
0.134569
0.139288
0.147085
0.157005
0.167996
0.179125
0.189699
0.199278
0.207634
0.214692
0.220471
0.225044
0.228508
0.230965
0.232518
0.233261
0.233285
0.232671
0.231495
0.229827
0.227729
0.225258
0.222474
0.219455
0.21622
0.212546
0.208489
0.206286
0.171169
0.167529
0.167896
0.172037
0.179076
0.188067
0.197992
0.20796
0.217321
0.225672
0.232811
0.23868
0.243308
0.246774
0.249176
0.250616
0.251196
0.251011
0.250149
0.248691
0.24671
0.244277
0.241452
0.238291
0.234852
0.231212
0.227383
0.223166
0.218653
0.215924
0.205092
0.201008
0.200913
0.204464
0.210727
0.218771
0.227616
0.236415
0.24456
0.251684
0.25761
0.262296
0.265781
0.268148
0.269495
0.269927
0.269544
0.268439
0.266699
0.264404
0.261628
0.258437
0.254892
0.251048
0.246962
0.242706
0.238288
0.233527
0.228551
0.225282
0.238573
0.234053
0.233495
0.236447
0.241922
0.24901
0.256768
0.264395
0.271327
0.277231
0.281953
0.285467
0.287821
0.2891
0.289406
0.288842
0.287507
0.285494
0.282888
0.279769
0.276208
0.27227
0.268016
0.263497
0.258772
0.253907
0.248908
0.24361
0.238167
0.234352
0.271485
0.26654