/*--------------------------------*- C++ -*----------------------------------*\
  =========                 |
  \\      /  F ield         | OpenFOAM: The Open Source CFD Toolbox
   \\    /   O peration     | Website:  https://openfoam.org
    \\  /    A nd           | Version:  7
     \\/     M anipulation  |
\*---------------------------------------------------------------------------*/
FoamFile
{
    version     2.0;
    format      ascii;
    class       surfaceScalarField;
    location    "83";
    object      phi;
}
// * * * * * * * * * * * * * * * * * * * * * * * * * * * * * * * * * * * * * //

dimensions      [0 3 -1 0 0 0 0];

internalField   nonuniform List<scalar> 
79480
(
-7.97973e-07
-1.54707e-05
1.62687e-05
-3.10269e-06
-4.38894e-05
4.61941e-05
-6.8911e-06
-7.08163e-05
7.46047e-05
-1.2137e-05
-9.60416e-05
0.000101287
-1.88081e-05
-0.000119391
0.000126062
-2.68655e-05
-0.000140748
0.000148805
-3.62633e-05
-0.000160063
0.000169461
-4.69489e-05
-0.000177359
0.000188045
-5.88646e-05
-0.000192727
0.000204643
-7.19491e-05
-0.000206328
0.000219413
-8.61392e-05
-0.000218378
0.000232568
-0.000101372
-0.000229134
0.000244366
-0.000117587
-0.000238876
0.000255091
-0.000134727
-0.000247886
0.000265026
-0.000152741
-0.000256422
0.000274436
-0.000171582
-0.000264701
0.000283543
-0.000191212
-0.000272881
0.000292511
-0.000211599
-0.000281044
0.000301431
-0.000232719
-0.000289192
0.000310312
-0.000254557
-0.000297238
0.000319076
-0.000277111
-0.000305002
0.000327556
-0.000300391
-0.000312215
0.000335495
-0.000324432
-0.00031851
0.000342551
-0.000349293
-0.000323424
0.000348285
-0.00037507
-0.000326389
0.000352166
-0.000401903
-0.00032672
0.000353553
-0.00042998
-0.000323608
0.000351685
-0.000459535
-0.000316106
0.000345661
-0.000490844
-0.000303048
0.000334357
-0.000282833
0.000316278
-0.000524288
-8.77717e-07
-1.4593e-05
-3.39528e-06
-4.13718e-05
-7.50989e-06
-6.67017e-05
-1.31762e-05
-9.03753e-05
-2.03438e-05
-0.000112223
-2.8957e-05
-0.000132134
-3.89553e-05
-0.000150065
-5.02736e-05
-0.000166041
-6.28441e-05
-0.000180157
-7.65979e-05
-0.000192574
-9.14665e-05
-0.000203509
-0.000107384
-0.000213216
-0.00012429
-0.000221971
-0.000142126
-0.000230049
-0.000160844
-0.000237704
-0.000180399
-0.000245146
-0.000200756
-0.000252525
-0.000221883
-0.000259917
-0.000243758
-0.000267317
-0.000266368
-0.000274628
-0.00028971
-0.000281661
-0.000313796
-0.000288129
-0.000338659
-0.000293647
-0.000364362
-0.000297721
-0.000391004
-0.000299747
-0.000418727
-0.000298996
-0.000447724
-0.000294612
-0.000478223
-0.000285607
-0.00051048
-0.00027079
-0.000248501
-0.000544812
-9.49603e-07
-1.36434e-05
-3.6581e-06
-3.86633e-05
-8.06375e-06
-6.2296e-05
-1.41026e-05
-8.43364e-05
-2.17068e-05
-0.000104619
-3.08045e-05
-0.000123037
-4.13203e-05
-0.000139549
-5.31771e-05
-0.000154184
-6.62967e-05
-0.000167037
-8.06021e-05
-0.000178269
-9.60191e-05
-0.000188092
-0.000112478
-0.000196757
-0.000129915
-0.000204534
-0.000148271
-0.000211693
-0.000167497
-0.000218478
-0.000187548
-0.000225095
-0.000208385
-0.000231688
-0.000229976
-0.000238326
-0.000252294
-0.000244999
-0.000275319
-0.000251603
-0.00029904
-0.00025794
-0.000323458
-0.000263711
-0.000348595
-0.00026851
-0.0003745
-0.000271816
-0.00040126
-0.000272987
-0.000429003
-0.000271253
-0.000457907
-0.000265708
-0.000488184
-0.00025533
-0.000520061
-0.000238913
-0.000214779
-0.000553783
-1.01312e-06
-1.26303e-05
-3.88943e-06
-3.5787e-05
-8.54931e-06
-5.76362e-05
-1.49113e-05
-7.79744e-05
-2.28906e-05
-9.66396e-05
-3.23997e-05
-0.000113528
-4.33494e-05
-0.0001286
-5.56501e-05
-0.000141883
-6.92135e-05
-0.000153474
-8.39541e-05
-0.000163528
-9.97913e-05
-0.000172255
-0.00011665
-0.000179898
-0.000134463
-0.000186722
-0.000153168
-0.000192987
-0.000172713
-0.000198934
-0.000193047
-0.000204761
-0.000214129
-0.000210606
-0.000235919
-0.000216537
-0.000258379
-0.000222539
-0.000281476
-0.000228505
-0.000305184
-0.000234233
-0.000329483
-0.000239413
-0.00035437
-0.000243623
-0.000379867
-0.000246319
-0.000406029
-0.000246825
-0.000432957
-0.000244326
-0.000460798
-0.000237867
-0.000489738
-0.00022639
-0.000519966
-0.000208686
-0.000183085
-0.00055166
-1.06793e-06
-1.15623e-05
-4.08813e-06
-3.27668e-05
-8.96447e-06
-5.27598e-05
-1.5599e-05
-7.13399e-05
-2.38911e-05
-8.83475e-05
-3.37385e-05
-0.00010368
-4.50384e-05
-0.0001173
-5.76893e-05
-0.000129232
-7.15927e-05
-0.000139571
-8.66544e-05
-0.000148467
-0.000102787
-0.000156123
-0.000119908
-0.000162776
-0.000137947
-0.000168683
-0.000156836
-0.000174098
-0.000176516
-0.000179254
-0.000196932
-0.000184344
-0.000218033
-0.000189504
-0.000239768
-0.000194801
-0.000262087
-0.00020022
-0.000284936
-0.000205656
-0.000308264
-0.000210905
-0.000332022
-0.000215655
-0.00035617
-0.000219474
-0.000380689
-0.0002218
-0.000405588
-0.000221926
-0.000430922
-0.000218992
-0.000456794
-0.000211995
-0.000483353
-0.00019983
-0.000510751
-0.000181287
-0.000154729
-0.000539107
-1.11384e-06
-1.04485e-05
-4.25362e-06
-2.96271e-05
-9.30816e-06
-4.77053e-05
-1.61644e-05
-6.44837e-05
-2.4707e-05
-7.98048e-05
-3.48198e-05
-9.35676e-05
-4.63872e-05
-0.000105732
-5.92961e-05
-0.000116323
-7.34379e-05
-0.000125429
-8.87096e-05
-0.000133195
-0.000105015
-0.000139817
-0.000122268
-0.000145524
-0.000140387
-0.000150564
-0.000159301
-0.000155185
-0.000178942
-0.000159613
-0.000199248
-0.000164039
-0.000220155
-0.000168597
-0.000241599
-0.000173357
-0.000263511
-0.000178309
-0.000285813
-0.000183354
-0.000308424
-0.000188294
-0.000331255
-0.000192823
-0.000354222
-0.000196508
-0.000377247
-0.000198774
-0.000400281
-0.000198892
-0.000423314
-0.00019596
-0.000446392
-0.000188917
-0.000469619
-0.000176603
-0.000493114
-0.000157793
-0.00013089
-0.000516953
-1.15078e-06
-9.29772e-06
-4.38575e-06
-2.63921e-05
-9.58028e-06
-4.25107e-05
-1.66076e-05
-5.74563e-05
-2.5339e-05
-7.10735e-05
-3.56453e-05
-8.32613e-05
-4.7399e-05
-9.39786e-05
-6.04758e-05
-0.000103246
-7.4757e-05
-0.000111148
-9.01307e-05
-0.000117821
-0.000106493
-0.000123454
-0.000123748
-0.000128268
-0.000141809
-0.000132503
-0.000160596
-0.000136398
-0.000180032
-0.000140176
-0.000200045
-0.000144026
-0.000220558
-0.000148084
-0.000241489
-0.000152426
-0.000262748
-0.00015705
-0.00028423
-0.000161871
-0.000305817
-0.000166707
-0.000327377
-0.000171264
-0.000348767
-0.000175118
-0.000369845
-0.000177696
-0.000390484
-0.000178252
-0.000410595
-0.000175849
-0.00043015
-0.000169362
-0.000449201
-0.000157552
-0.000467837
-0.000139156
-0.000112604
-0.000486123
-1.1788e-06
-8.11892e-06
-4.48475e-06
-2.30861e-05
-9.78145e-06
-3.7214e-05
-1.693e-05
-5.03077e-05
-2.57894e-05
-6.2214e-05
-3.62188e-05
-7.28319e-05
-4.80792e-05
-8.21182e-05
-6.1236e-05
-9.00896e-05
-7.55605e-05
-9.68231e-05
-9.09316e-05
-0.00010245
-0.000107237
-0.000107149
-0.000124372
-0.000111133
-0.000142241
-0.000114634
-0.000160755
-0.000117884
-0.000179828
-0.000121103
-0.000199374
-0.00012448
-0.000219302
-0.000128156
-0.000239512
-0.000132215
-0.00025989
-0.000136672
-0.000280301
-0.00014146
-0.000300588
-0.00014642
-0.000320568
-0.000151283
-0.000340037
-0.000155649
-0.000358776
-0.000158957
-0.000376569
-0.00016046
-0.000393227
-0.000159191
-0.000408634
-0.000153956
-0.000422776
-0.000143409
-0.000435721
-0.000126211
-0.00010077
-0.000447555
-1.19804e-06
-6.92088e-06
-4.55114e-06
-1.9733e-05
-9.91283e-06
-3.18524e-05
-1.71336e-05
-4.3087e-05
-2.60616e-05
-5.3286e-05
-3.65451e-05
-6.23484e-05
-4.84349e-05
-7.02284e-05
-6.1586e-05
-7.69385e-05
-7.58602e-05
-8.25489e-05
-9.11269e-05
-8.71835e-05
-0.000107264
-9.1012e-05
-0.00012416
-9.42381e-05
-0.000141708
-9.70858e-05
-0.000159808
-9.97834e-05
-0.000178364
-0.000102548
-0.000197276
-0.000105568
-0.000216437
-0.000108995
-0.000235729
-0.000112924
-0.00025501
-0.000117391
-0.000274116
-0.000122355
-0.000292849
-0.000127688
-0.000310974
-0.000133158
-0.000328221
-0.000138402
-0.000344287
-0.000142891
-0.000358854
-0.000145893
-0.00037162
-0.000146425
-0.000382354
-0.000143222
-0.000390966
-0.000134798
-0.0003975
-0.000119677
-9.61714e-05
-0.000402099
-1.2087e-06
-5.71218e-06
-4.58564e-06
-1.63561e-05
-9.97597e-06
-2.6462e-05
-1.7221e-05
-3.5842e-05
-2.61595e-05
-4.43476e-05
-3.66299e-05
-5.1878e-05
-4.84733e-05
-5.8385e-05
-6.15351e-05
-6.38766e-05
-7.56675e-05
-6.84165e-05
-9.07304e-05
-7.21206e-05
-0.000106593
-7.51498e-05
-0.000123131
-7.76997e-05
-0.00014023
-7.99868e-05
-0.000157778
-8.2235e-05
-0.000175666
-8.46597e-05
-0.00019378
-8.74547e-05
-0.000211995
-9.07793e-05
-0.000230172
-9.4747e-05
-0.000248147
-9.94162e-05
-0.000265722
-0.000104779
-0.00028266
-0.00011075
-0.000298675
-0.000117143
-0.000313427
-0.000123649
-0.000326527
-0.000129791
-0.000337548
-0.000134873
-0.000346057
-0.000137916
-0.000351687
-0.000137591
-0.000354243
-0.000132242
-0.000353742
-0.000120178
-9.95216e-05
-0.000350392
-1.211e-06
-4.50118e-06
-4.58908e-06
-1.2978e-05
-9.97262e-06
-2.10785e-05
-1.71953e-05
-2.86193e-05
-2.60874e-05
-3.54554e-05
-3.64789e-05
-4.14865e-05
-4.82016e-05
-4.66623e-05
-6.1092e-05
-5.09863e-05
-7.49924e-05
-5.45161e-05
-8.97532e-05
-5.73598e-05
-0.000105233
-5.96702e-05
-0.000121298
-6.16349e-05
-0.00013782
-6.34641e-05
-0.000154677
-6.5378e-05
-0.000171744
-6.75924e-05
-0.000188892
-7.03067e-05
-0.00020598
-7.36921e-05
-0.000222845
-7.7882e-05
-0.000239298
-8.2963e-05
-0.000255112
-8.89656e-05
-0.00027001
-9.58519e-05
-0.000283656
-0.000103497
-0.000295647
-0.000111658
-0.000305506
-0.000119933
-0.000312691
-0.000127688
-0.000316628
-0.000133979
-0.000316787
-0.000137433
-0.000312836
-0.000136192
-0.000304739
-0.000128275
-0.000111522
-0.000292739
-1.20519e-06
-3.29599e-06
-4.56237e-06
-9.62085e-06
-9.90459e-06
-1.57363e-05
-1.70592e-05
-2.14647e-05
-2.58494e-05
-2.66652e-05
-3.60972e-05
-3.12386e-05
-4.76262e-05
-3.51333e-05
-6.02635e-05
-3.8349e-05
-7.38422e-05
-4.09374e-05
-8.82023e-05
-4.29997e-05
-0.000103191
-4.46811e-05
-0.000118664
-4.61622e-05
-0.00013448
-4.7648e-05
-0.000150502
-4.93561e-05
-0.00016659
-5.15043e-05
-0.000182598
-5.42993e-05
-0.000198363
-5.79265e-05
-0.000213703
-6.25417e-05
-0.000228403
-6.82632e-05
-0.000242204
-7.51644e-05
-0.000254794
-8.32624e-05
-0.00026579
-9.2501e-05
-0.000274727
-0.000102721
-0.000281047
-0.000113612
-0.000284097
-0.000124638
-0.000283153
-0.000134923
-0.000277498
-0.000143088
-0.000266623
-0.000147067
-0.000250401
-0.000144497
-0.000132918
-0.000229004
-1.19155e-06
-2.10444e-06
-4.50637e-06
-6.30602e-06
-9.7736e-06
-1.0469e-05
-1.68155e-05
-1.44228e-05
-2.54491e-05
-1.80317e-05
-3.54893e-05
-2.11984e-05
-4.67516e-05
-2.3871e-05
-5.90543e-05
-2.60463e-05
-7.22207e-05
-2.7771e-05
-8.60799e-05
-2.91404e-05
-0.000100468
-3.02933e-05
-0.000115225
-3.14044e-05
-0.000130199
-3.26748e-05
-0.000145234
-3.43213e-05
-0.000160173
-3.65651e-05
-0.00017485
-3.96224e-05
-0.000189081
-4.36948e-05
-0.00020266
-4.8963e-05
-0.000215343
-5.558e-05
-0.000226842
-6.36656e-05
-0.000236808
-7.32969e-05
-0.000244814
-8.44942e-05
-0.000250343
-9.71928e-05
-0.00025276
-0.000111195
-0.000251309
-0.000126088
-0.000245119
-0.000141113
-0.000233271
-0.000154936
-0.000215032
-0.000165306
-0.000190171
-0.000169359
-0.000164522
-0.000158567
-1.17032e-06
-9.34124e-07
-4.42194e-06
-3.05441e-06
-9.58129e-06
-5.30968e-06
-1.64665e-05
-7.5376e-06
-2.48894e-05
-9.60878e-06
-3.46583e-05
-1.14296e-05
-4.55808e-05
-1.29485e-05
-5.74663e-05
-1.41607e-05
-7.01277e-05
-1.51096e-05
-8.33825e-05
-1.58856e-05
-9.70532e-05
-1.66226e-05
-0.000110966
-1.74913e-05
-0.000124951
-1.86904e-05
-0.000138834
-2.0438e-05
-0.000152438
-2.29611e-05
-0.000165573
-2.64871e-05
-0.000178031
-3.12369e-05
-0.000189576
-3.7418e-05
-0.000199935
-4.52211e-05
-0.000208786
-5.48152e-05
-0.000215742
-6.63411e-05
-0.000220335
-7.99003e-05
-0.000221997
-9.55311e-05
-0.000220029
-0.000113163
-0.000213582
-0.000132535
-0.000201651
-0.000153044
-0.000183108
-0.000173478
-0.000156929
-0.000191485
-0.000122889
-0.0002034
-0.000206877
-8.05334e-05
-1.14175e-06
2.07625e-07
-4.30986e-06
1.13707e-07
-9.32911e-06
-2.90435e-07
-1.60144e-05
-8.52325e-07
-2.41727e-05
-1.45044e-06
-3.36062e-05
-1.99608e-06
-4.41148e-05
-2.43995e-06
-5.54984e-05
-2.77712e-06
-6.75588e-05
-3.04915e-06
-8.01007e-05
-3.34377e-06
-9.29315e-05
-3.79182e-06
-0.000105861
-4.56193e-06
-0.000118698
-5.85329e-06
-0.000131249
-7.88739e-06
-0.00014331
-1.08998e-05
-0.000154664
-1.51324e-05
-0.000165074
-2.08277e-05
-0.000174268
-2.82236e-05
-0.000181938
-3.7551e-05
-0.000187722
-4.90309e-05
-0.000191193
-6.28705e-05
-0.000191838
-7.92555e-05
-0.000189038
-9.8331e-05
-0.000182038
-0.000120164
-0.000169911
-0.000144662
-0.000151534
-0.000171421
-0.000125587
-0.000199424
-9.06006e-05
-0.000226472
-4.59146e-05
-0.000248086
-0.000256928
4.136e-06
-1.10607e-06
1.3137e-06
-4.17092e-06
3.17856e-06
-9.01836e-06
4.557e-06
-1.54607e-05
5.59002e-06
-2.33006e-05
6.38947e-06
-3.2334e-05
7.03734e-06
-4.23528e-05
7.57882e-06
-5.31468e-05
8.0169e-06
-6.45057e-05
8.30969e-06
-7.62194e-05
8.36997e-06
-8.80785e-05
8.06729e-06
-9.98727e-05
7.23221e-06
-0.000111388
5.66232e-06
-0.000122405
3.12916e-06
-0.00013269
-6.15151e-07
-0.000141992
-5.82986e-06
-0.000150036
-1.27838e-05
-0.000156511
-2.17488e-05
-0.000161062
-3.29998e-05
-0.00016328
-4.68128e-05
-0.000162686
-6.34641e-05
-0.000158717
-8.32244e-05
-0.000150701
-0.000106347
-0.000137828
-0.000133037
-0.000119107
-0.000163383
-9.33177e-05
-0.00019721
-5.89889e-05
-0.000233753
-1.44608e-05
-0.000271
4.23336e-05
-0.00030488
-0.00032396
0.000109365
-1.06355e-06
2.37725e-06
-4.00582e-06
6.12082e-06
-8.65027e-06
9.20146e-06
-1.4807e-05
1.17467e-05
-2.22742e-05
1.38568e-05
-3.08417e-05
1.56048e-05
-4.02924e-05
1.70296e-05
-5.04054e-05
1.81299e-05
-6.09564e-05
1.88607e-05
-7.1719e-05
1.91325e-05
-8.24638e-05
1.88121e-05
-9.29574e-05
1.77258e-05
-0.000102959
1.56639e-05
-0.000112217
1.23869e-05
-0.000120463
7.63068e-06
-0.000127405
1.11219e-06
-0.000132721
-7.46723e-06
-0.000136051
-1.84192e-05
-0.000136983
-3.20673e-05
-0.000135049
-4.87474e-05
-0.000129706
-6.88071e-05
-0.000120326
-9.26039e-05
-0.000106176
-0.000120497
-8.63885e-05
-0.000152825
-5.99195e-05
-0.000189852
-2.54847e-05
-0.000231645
1.85303e-05
-0.000277768
7.40998e-05
-0.00032657
0.000142834
-0.000373615
-0.000407259
0.000226134
-1.01443e-06
3.39168e-06
-3.81532e-06
8.92172e-06
-8.22608e-06
1.36122e-05
-1.40545e-05
1.75751e-05
-2.10944e-05
2.08967e-05
-2.91285e-05
2.36388e-05
-3.79303e-05
2.58314e-05
-4.72663e-05
2.74659e-05
-5.68968e-05
2.84911e-05
-6.65761e-05
2.88118e-05
-7.6052e-05
2.82881e-05
-8.50639e-05
2.67376e-05
-9.3339e-05
2.3939e-05
-0.000100588
1.96363e-05
-0.000106501
1.35432e-05
-0.000110736
5.34741e-06
-0.000112917
-5.28683e-06
-0.000112619
-1.87169e-05
-0.000109364
-3.53219e-05
-0.000102609
-5.55029e-05
-9.17323e-05
-7.96834e-05
-7.60276e-05
-0.000108309
-5.46844e-05
-0.00014184
-2.67691e-05
-0.00018074
8.81027e-06
-0.000225432
5.33679e-05
-0.000276203
0.000108565
-0.000332965
0.000176491
-0.000394496
0.00025935
-0.000456474
-0.000507431
0.000359522
-9.59006e-07
4.35069e-06
-3.6003e-06
1.1563e-05
-7.74715e-06
1.77591e-05
-1.32048e-05
2.30328e-05
-1.97621e-05
2.7454e-05
-2.71938e-05
3.10705e-05
-3.52627e-05
3.39003e-05
-4.37209e-05
3.59241e-05
-5.2311e-05
3.70812e-05
-6.07652e-05
3.72661e-05
-6.88048e-05
3.63277e-05
-7.61373e-05
3.40701e-05
-8.24526e-05
3.02543e-05
-8.74179e-05
2.46016e-05
-9.06716e-05
1.67969e-05
-9.18153e-05
6.49107e-06
-9.04057e-05
-6.69647e-06
-8.59454e-05
-2.31771e-05
-7.78742e-05
-4.33931e-05
-6.55593e-05
-6.78178e-05
-4.82868e-05
-9.69559e-05
-2.52539e-05
-0.000131342
4.44105e-06
-0.000171535
4.1809e-05
-0.000218108
8.79916e-05
-0.000271614
0.000144309
-0.00033252
0.000212383
-0.000401039
0.000294339
-0.000476452
0.000392687
-0.000554822
-0.000625732
0.000510988
-8.97613e-07
5.2483e-06
-3.36172e-06
1.40271e-05
-7.21507e-06
2.16124e-05
-1.22597e-05
2.80774e-05
-1.82786e-05
3.34728e-05
-2.50372e-05
3.78292e-05
-3.2286e-05
4.11491e-05
-3.97607e-05
4.33989e-05
-4.71832e-05
4.45037e-05
-5.42606e-05
4.43434e-05
-6.06833e-05
4.27504e-05
-6.61219e-05
3.95087e-05
-7.02231e-05
3.43555e-05
-7.26034e-05
2.6982e-05
-7.28424e-05
1.70359e-05
-7.04744e-05
4.12307e-06
-6.49801e-05
-1.21908e-05
-5.57769e-05
-3.23803e-05
-4.22105e-05
-5.69595e-05
-2.35468e-05
-8.64815e-05
1.03453e-06
-0.000121537
3.2445e-05
-0.000162752
7.16874e-05
-0.000210777
0.000119858
-0.000266278
0.000178148
-0.000329905
0.000247866
-0.000402237
0.000330526
-0.000483699
0.000428134
-0.000574061
0.000543208
-0.000669896
-0.00076312
0.000680596
-8.30651e-07
6.07895e-06
-3.10078e-06
1.62972e-05
-6.63181e-06
2.51435e-05
-1.12216e-05
3.26673e-05
-1.66458e-05
3.88969e-05
-2.26592e-05
4.38426e-05
-2.89977e-05
4.74875e-05
-3.53782e-05
4.97794e-05
-4.1499e-05
5.06245e-05
-4.70379e-05
4.98823e-05
-5.16501e-05
4.73626e-05
-5.49642e-05
4.28229e-05
-5.65773e-05
3.59685e-05
-5.60478e-05
2.64525e-05
-5.28888e-05
1.38768e-05
-4.65582e-05
-2.20752e-06
-3.64512e-05
-2.22977e-05
-2.18903e-05
-4.69412e-05
-2.11774e-06
-7.67321e-05
2.37111e-05
-0.00011231
5.65301e-05
-0.000154356
9.73621e-05
-0.000203584
0.000147313
-0.000260729
0.000207561
-0.000326526
0.000279338
-0.000401682
0.000363919
-0.000486819
0.000462655
-0.000582434
0.000577273
-0.000688679
0.000710001
-0.000802623
-0.000919932
0.000866813
-7.58587e-07
6.83754e-06
-2.81887e-06
1.83575e-05
-5.99975e-06
2.83243e-05
-1.00935e-05
3.6761e-05
-1.48666e-05
4.36701e-05
-2.00615e-05
4.90375e-05
-2.53968e-05
5.28229e-05
-3.0568e-05
5.49506e-05
-3.5246e-05
5.53025e-05
-3.90757e-05
5.37119e-05
-4.1672e-05
4.99589e-05
-4.26161e-05
4.3767e-05
-4.1449e-05
3.48014e-05
-3.76644e-05
2.26679e-05
-3.07008e-05
6.91317e-06
-1.99327e-05
-1.29756e-05
-4.66139e-06
-3.75691e-05
1.58925e-05
-6.74951e-05
4.25956e-05
-0.000103435
7.64047e-05
-0.000146119
0.000118366
-0.000196318
0.000169608
-0.000254826
0.000231324
-0.000322445
0.00030475
-0.000399952
0.000391132
-0.000488063
0.000491678
-0.000587366
0.000607529
-0.000698285
0.000739986
-0.000821136
0.000890741
-0.000953379
-0.00109563
0.00106644
-6.81962e-07
7.5195e-06
-2.51764e-06
2.01932e-05
-5.32176e-06
3.11285e-05
-8.8791e-06
4.03183e-05
-1.29452e-05
4.77362e-05
-1.72472e-05
5.33395e-05
-2.14843e-05
5.706e-05
-2.5327e-05
5.87932e-05
-2.84153e-05
5.83909e-05
-3.03566e-05
5.56532e-05
-3.07211e-05
5.03234e-05
-2.90367e-05
4.20826e-05
-2.47823e-05
3.0547e-05
-1.73805e-05
1.52662e-05
-6.18892e-06
-4.27844e-06
9.50816e-06
-2.86726e-05
3.05078e-05
-5.85687e-05
5.76942e-05
-9.46815e-05
9.20424e-05
-0.000137783
0.000134617
-0.000188694
0.000186563
-0.000248264
0.000249093
-0.000317356
0.000323457
-0.000396809
0.000410906
-0.000487401
0.000512638
-0.000589795
0.00062974
-0.000704467
0.000763092
-0.000831637
0.000913442
-0.000971486
0.00108182
-0.00112176
-0.00128857
0.00127477
-6.01381e-07
8.12088e-06
-2.19893e-06
2.17908e-05
-4.60109e-06
3.35306e-05
-7.5829e-06
4.33002e-05
-1.08864e-05
5.10397e-05
-1.4221e-05
5.66741e-05
-1.7263e-05
6.0102e-05
-1.96546e-05
6.11848e-05
-2.10013e-05
5.97375e-05
-2.08684e-05
5.55203e-05
-1.87762e-05
4.82312e-05
-1.41942e-05
3.75006e-05
-6.53384e-06
2.28867e-05
4.85915e-06
3.87316e-06
2.07129e-05
-2.01322e-05
4.18369e-05
-4.97966e-05
6.91278e-05
-8.58596e-05
0.000103573
-0.000129127
0.000146248
-0.000180459
0.000198311
-0.000240756
0.000260982
-0.000310935
0.00033552
-0.000391894
0.00042318
-0.000484469
0.00052516
-0.000589381
0.000642532
-0.000707167
0.000776164
-0.0008381
0.000926621
-0.000982094
0.00109398
-0.00113884
0.00127865
-0.00130643
-0.00149591
0.00148599
-5.17491e-07
8.63837e-06
-1.86473e-06
2.3138e-05
-3.84131e-06
3.55072e-05
-6.20984e-06
4.56687e-05
-8.69604e-06
5.35259e-05
-1.09884e-05
5.89665e-05
-1.27374e-05
6.1851e-05
-1.3553e-05
6.20005e-05
-1.3002e-05
5.91865e-05
-1.06032e-05
5.31215e-05
-5.82253e-06
4.34505e-05
1.93388e-06
2.97441e-05
1.33268e-05
1.14937e-05
2.90914e-05
-1.18914e-05
5.00443e-05
-4.10851e-05
7.70892e-05
-7.68415e-05
0.00011122
-0.00011999
0.000153517
-0.000171424
0.000205143
-0.000232085
0.000267322
-0.000302935
0.000341313
-0.000384926
0.000428368
-0.000478949
0.000529679
-0.00058578
0.000646303
-0.000706005
0.000779081
-0.000839945
0.000928549
-0.000987567
0.00109486
-0.00114841
0.00127735
-0.00132133
0.00147598
-0.00150506
-0.00171353
0.00169359
-4.30944e-07
9.06932e-06
-1.51706e-06
2.42241e-05
-3.04602e-06
3.70362e-05
-4.76498e-06
4.73877e-05
-6.38015e-06
5.5141e-05
-7.5559e-06
6.01423e-05
-7.91297e-06
6.2208e-05
-7.02558e-06
6.11131e-05
-4.41754e-06
5.65784e-05
4.42824e-07
4.82612e-05
8.1487e-06
3.57447e-05
1.93613e-05
1.85315e-05
3.48172e-05
-3.96214e-06
5.53345e-05
-3.24088e-05
8.18184e-05
-6.75689e-05
0.000115263
-0.000110286
0.00015675
-0.000161477
0.000207441
-0.000222114
0.000268555
-0.000293199
0.00034135
-0.000375729
0.000427068
-0.000470645
0.000526891
-0.000578772
0.000641858
-0.000700747
0.000772784
-0.000836931
0.000920163
-0.000987324
0.00108407
-0.00115148
0.00126415
-0.00132849
0.00145895
-0.00151613
0.00166826
-0.00171436
-0.00193604
0.00189077
-3.42357e-07
9.41167e-06
-1.15779e-06
2.50395e-05
-2.2186e-06
3.8097e-05
-3.25305e-06
4.84221e-05
-3.94437e-06
5.58324e-05
-3.92921e-06
6.01271e-05
-2.79494e-06
6.10738e-05
-7.60174e-08
5.83941e-05
4.75068e-06
5.17517e-05
1.22715e-05
4.07403e-05
2.31424e-05
2.48738e-05
3.80951e-05
3.57876e-06
5.79438e-05
-2.38108e-05
8.35895e-05
-5.80545e-05
0.000116022
-0.000100002
0.000156319
-0.000150583
0.000205633
-0.000210792
0.000265181
-0.000281662
0.000336209
-0.000364227
0.000419951
-0.000459472
0.000517575
-0.000568269
0.000630104
-0.000691301
0.00075833
-0.000828973
0.000902714
-0.000981316
0.00106329
-0.0011479
0.00123956
-0.00132775
0.00143052
-0.00151946
0.00163404
-0.00171965
0.0018499
-0.00193022
-0.00215723
0.00207108
-2.5225e-07
9.66392e-06
-7.88473e-07
2.55758e-05
-1.36177e-06
3.86703e-05
-1.67779e-06
4.87381e-05
-1.39306e-06
5.55476e-05
-1.12715e-07
5.88468e-05
2.61304e-06
5.8348e-05
7.29343e-06
5.37138e-05
1.45024e-05
4.45428e-05
2.48846e-05
3.03581e-05
3.91615e-05
1.05969e-05
5.81376e-05
-1.53973e-05
8.27042e-05
-4.83775e-05
0.000113842
-8.91922e-05
0.000152618
-0.000138778
0.000200177
-0.000198142
0.000257724
-0.000268339
0.000326495
-0.000350433
0.000407713
-0.000445445
0.000502533
-0.000554292
0.000611963
-0.000677699
0.000736778
-0.000816116
0.000877418
-0.000969612
0.00103389
-0.00113778
0.00120565
-0.00131967
0.00139159
-0.00151368
0.00158993
-0.0017178
0.00179807
-0.00192779
0.00201538
-0.00214753
-0.00237032
0.00222848
-1.6098e-07
9.8249e-06
-4.10157e-07
2.58249e-05
-4.77174e-07
3.87373e-05
-4.12113e-08
4.83022e-05
1.27168e-06
5.42347e-05
3.89195e-06
5.62265e-05
8.31047e-06
5.39295e-05
1.50839e-05
4.69403e-05
2.48405e-05
3.47862e-05
3.82862e-05
1.69124e-05
5.62102e-05
-7.32706e-06
7.94891e-05
-3.86762e-05
0.000109089
-7.79776e-05
0.000146064
-0.000126167
0.000191543
-0.000184257
0.000246721
-0.000253319
0.000312818
-0.000334437
0.00039105
-0.000428664
0.000482557
-0.000536953
0.000588339
-0.000660073
0.000709157
-0.000798517
0.000845437
-0.000952396
0.000997168
-0.00112134
0.0011638
-0.00130442
0.0013442
-0.00150007
0.00153661
-0.00170608
0.00173854
-0.00191973
0.00194722
-0.00213647
0.00216001
-0.00236033
-0.00256854
0.00235823
-6.86726e-08
9.89358e-06
-2.28595e-08
2.57791e-05
4.34895e-07
3.82795e-05
1.6566e-06
4.70805e-05
4.05086e-06
5.18405e-05
8.08727e-06
5.21901e-05
1.43017e-05
4.77151e-05
2.33018e-05
3.79402e-05
3.57732e-05
2.23147e-05
5.24852e-05
2.00439e-07
7.4295e-05
-2.91368e-05
0.00010215
-6.65309e-05
0.000137084
-0.000112912
0.000180212
-0.000169294
0.000232709
-0.000236755
0.000295786
-0.000316396
0.000370645
-0.000409295
0.000458418
-0.000516437
0.000560098
-0.000638633
0.000676442
-0.000776418
0.000807872
-0.000929947
0.00095437
-0.00109889
0.00111538
-0.00128235
0.00128976
-0.0014788
0.00147573
-0.00168604
0.00167099
-0.00190134
0.00187265
-0.00212138
0.00207832
-0.00234214
0.00228184
-0.00256385
-0.00274501
0.00245831
2.47278e-08
9.86885e-06
3.73338e-07
2.54305e-05
1.37596e-06
3.72769e-05
3.41896e-06
4.50375e-05
6.94959e-06
4.83099e-05
1.24808e-05
4.66589e-05
2.05969e-05
3.9599e-05
3.19599e-05
2.65772e-05
4.73152e-05
6.95946e-06
6.74961e-05
-1.99805e-05
9.34264e-05
-5.50672e-05
0.000126119
-9.9223e-05
0.000166666
-0.000153459
0.000216226
-0.000218854
0.000275993
-0.000296522
0.000347159
-0.000387561
0.00043085
-0.000492986
0.000528058
-0.000613645
0.000639544
-0.000750118
0.000765735
-0.000902609
0.000906621
-0.00107083
0.00106166
-0.00125393
0.00122969
-0.00145039
0.00140894
-0.00165805
0.00159708
-0.00187418
0.00179131
-0.00209558
0.00198858
-0.00231865
0.00218684
-0.0025404
0.00238093
-0.00275793
-0.00295708
0.00259299
1.19753e-07
9.74909e-06
7.8093e-07
2.47693e-05
2.34991e-06
3.57079e-05
5.25216e-06
4.21352e-05
9.97747e-06
4.35845e-05
1.70857e-05
3.95506e-05
2.72132e-05
2.94715e-05
4.10786e-05
1.27118e-05
5.94883e-05
-1.14502e-05
8.33391e-05
-4.38313e-05
0.000113617
-8.53455e-05
0.000151392
-0.000136998
0.000197801
-0.000199867
0.00025402
-0.000275074
0.00032123
-0.000363733
0.000400555
-0.000466886
0.000492989
-0.00058542
0.000599304
-0.00071996
0.000719947
-0.000870762
0.000854932
-0.00103759
0.00100374
-0.00121964
0.00116523
-0.00141542
0.00133765
-0.00162281
0.00151864
-0.00183904
0.00170538
-0.00206092
0.00189479
-0.00228499
0.00208384
-0.0025077
0.00227011
-0.00272667
0.00245058
-0.00293841
-0.00314059
0.0026341
2.17172e-07
9.53192e-06
1.20238e-06
2.37841e-05
3.36254e-06
3.35478e-05
7.16597e-06
3.83318e-05
1.31488e-05
3.76018e-05
2.19212e-05
3.07782e-05
3.4174e-05
1.72186e-05
5.06846e-05
-3.79879e-06
7.23202e-05
-3.30858e-05
0.000100038
-7.15492e-05
0.00013488
-0.000120188
0.000177959
-0.000180077
0.000230435
-0.000252343
0.000293475
-0.000338114
0.0003682
-0.000438458
0.000455612
-0.000554298
0.000556503
-0.000686311
0.000671349
-0.000834807
0.000800203
-0.000999616
0.000942586
-0.00117998
0.00109741
-0.00137446
0.00126296
-0.00158097
0.0014369
-0.00179674
0.00161639
-0.00201854
0.00179832
-0.00224285
0.00197952
-0.00246619
0.00215712
-0.00268529
0.00232875
-0.0028983
0.00249253
-0.00310219
-0.00329888
0.00265082
3.18083e-07
9.21384e-06
1.64161e-06
2.24606e-05
4.42176e-06
3.07676e-05
9.17332e-06
3.35802e-05
1.6482e-05
3.02931e-05
2.70111e-05
2.02491e-05
4.15084e-05
2.72143e-06
6.08098e-05
-2.31002e-05
8.58416e-05
-5.81176e-05
0.000117616
-0.000103324
0.00015722
-0.000159791
0.000205791
-0.000228648
0.000264485
-0.000311037
0.00033442
-0.000408049
0.000416608
-0.000520646
0.000511866
-0.000649557
0.000620711
-0.000795155
0.000743246
-0.000957342
0.000879058
-0.00113543
0.00102713
-0.00132805
0.0011858
-0.00153313
0.00135278
-0.00174795
0.00152529
-0.00196925
0.00170019
-0.00219344
0.00187427
-0.00241693
0.00204453
-0.00263646
0.0022085
-0.00284926
0.00236427
-0.00305408
0.00251068
-0.00324859
-0.00343732
0.00264912
4.23881e-07
8.78996e-06
2.1034e-06
2.07811e-05
5.53728e-06
2.73337e-05
1.12898e-05
2.78277e-05
1.99989e-05
2.1584e-05
3.23835e-05
7.86451e-06
4.92484e-05
-1.41435e-05
7.14877e-05
-4.53395e-05
0.000100082
-8.6712e-05
0.00013609
-0.000139331
0.000180626
-0.000204327
0.000234831
-0.000282853
0.000299821
-0.000376027
0.00037662
-0.000484848
0.000466074
-0.0006101
0.000568745
-0.000752228
0.000684805
-0.000911214
0.000813916
-0.00108645
0.000955151
-0.00127666
0.00110694
-0.00147983
0.00126707
-0.00169327
0.00143281
-0.00191369
0.00160105
-0.00213749
0.00176859
-0.00236098
0.00193238
-0.00258071
0.00208981
-0.00279389
0.002239
-0.00299845
0.00237874
-0.00319382
0.00250872
-0.00337858
-0.00355863
0.00263004
5.36179e-07
8.25378e-06
2.59326e-06
1.8724e-05
6.71999e-06
2.3207e-05
1.35325e-05
2.10152e-05
2.37233e-05
1.13932e-05
3.80673e-05
-6.47951e-06
5.74265e-05
-3.35027e-05
8.27492e-05
-7.06623e-05
0.000115063
-0.000119026
0.00015546
-0.000179727
0.000205062
-0.00025393
0.000264983
-0.000342774
0.000336258
-0.000447302
0.000419764
-0.000568354
0.000516118
-0.000706453
0.000625563
-0.000861673
0.000747857
-0.00103351
0.000882176
-0.00122077
0.00102706
-0.00142154
0.0011804
-0.00163318
0.00133955
-0.00185241
0.00150145
-0.0020756
0.0016629
-0.00229894
0.00182083
-0.0025189
0.00197257
-0.00273246
0.00211613
-0.00293744
0.0022503
-0.00313263
0.00237467
-0.00331818
0.0024897
-0.00349361
-0.00366553
0.00259659
6.56711e-07
7.59707e-06
3.11697e-06
1.62637e-05
7.98129e-06
1.83427e-05
1.59193e-05
1.30772e-05
2.76785e-05
-3.6605e-07
4.40903e-05
-2.28913e-05
6.60709e-05
-5.54833e-05
9.46171e-05
-9.92085e-05
0.000130793
-0.000155202
0.000175705
-0.000224639
0.000230459
-0.000308683
0.000296101
-0.000408417
0.000373541
-0.000524742
0.000463453
-0.000658265
0.000566159
-0.00080916
0.000681524
-0.000977038
0.000808845
-0.00116083
0.000946788
-0.00135872
0.00109338
-0.00156813
0.00124605
-0.00178585
0.00140184
-0.0020082
0.00155756
-0.00223132
0.00171012
-0.0024515
0.0018568
-0.00266558
0.00199549
-0.00287115
0.00212489
-0.00306685
0.00224456
-0.0032523
0.00235477
-0.00342839
0.00245662
-0.00359546
-0.00376034
0.00255144
7.87221e-07
6.80985e-06
3.68031e-06
1.33706e-05
9.33225e-06
1.26907e-05
1.84666e-05
3.94289e-06
3.1886e-05
-1.37855e-05
5.04758e-05
-4.1481e-05
7.52017e-05
-8.02092e-05
0.0001071
-0.000131107
0.000147257
-0.000195359
0.000196771
-0.000274152
0.000256697
-0.000368609
0.000327976
-0.000479696
0.000411339
-0.000608105
0.000507196
-0.000754122
0.000615523
-0.000917487
0.000735752
-0.00109727
0.000866694
-0.00129177
0.00100652
-0.00149854
0.00115279
-0.00171441
0.00130263
-0.00193569
0.00145289
-0.00215846
0.00160047
-0.00237889
0.00174257
-0.00259361
0.00187701
-0.00280001
0.00200234
-0.00299648
0.00211797
-0.00318248
0.00222415
-0.00335847
0.00232173
-0.00352597
0.00241223
-0.00368596
-0.00384514
0.00249704
9.2935e-07
5.8805e-06
4.28855e-06
1.00114e-05
1.07827e-05
6.19657e-06
2.11887e-05
-6.46306e-06
3.63623e-05
-2.89591e-05
5.72389e-05
-6.23576e-05
8.48265e-05
-0.000107797
0.000120189
-0.00016647
0.000164413
-0.000239584
0.000218563
-0.000328302
0.000283607
-0.000433654
0.000360334
-0.000556423
0.000449241
-0.000697012
0.000550423
-0.000855304
0.000663457
-0.00103052
0.000787315
-0.00122112
0.000920328
-0.00142478
0.00106021
-0.00163842
0.00120419
-0.00185838
0.00134917
-0.00208068
0.00149206
-0.00230135
0.00162999
-0.00251683
0.00176066
-0.00272428