/*--------------------------------*- C++ -*----------------------------------*\
  =========                 |
  \\      /  F ield         | OpenFOAM: The Open Source CFD Toolbox
   \\    /   O peration     | Website:  https://openfoam.org
    \\  /    A nd           | Version:  7
     \\/     M anipulation  |
\*---------------------------------------------------------------------------*/
FoamFile
{
    version     2.0;
    format      ascii;
    class       volScalarField;
    location    "20";
    object      p;
}
// * * * * * * * * * * * * * * * * * * * * * * * * * * * * * * * * * * * * * //

dimensions      [0 2 -2 0 0 0 0];

internalField   nonuniform List<scalar> 
8820
(
-0.271489
-0.272963
-0.273876
-0.274554
-0.275129
-0.275622
-0.276054
-0.276441
-0.276789
-0.277096
-0.277356
-0.277561
-0.277704
-0.27778
-0.277788
-0.277732
-0.277632
-0.277519
-0.277376
-0.277102
-0.277284
-0.271687
-0.273142
-0.274044
-0.274712
-0.275279
-0.275764
-0.276188
-0.276568
-0.276909
-0.277209
-0.277461
-0.277657
-0.27779
-0.277853
-0.277844
-0.277767
-0.277641
-0.277498
-0.277322
-0.277008
-0.277154
-0.27209
-0.273509
-0.274388
-0.275038
-0.275588
-0.276057
-0.276467
-0.276833
-0.27716
-0.277446
-0.277684
-0.277864
-0.277978
-0.278016
-0.277977
-0.277861
-0.277685
-0.277483
-0.277241
-0.276848
-0.276921
-0.272693
-0.274058
-0.274902
-0.275526
-0.276051
-0.276496
-0.276885
-0.27723
-0.277538
-0.277804
-0.278021
-0.278179
-0.278265
-0.27827
-0.278187
-0.278014
-0.277765
-0.277474
-0.277132
-0.276621
-0.276574
-0.273484
-0.274779
-0.275579
-0.276167
-0.276659
-0.277074
-0.277434
-0.277753
-0.278035
-0.278276
-0.278467
-0.278596
-0.278649
-0.278611
-0.278473
-0.278227
-0.277882
-0.277474
-0.276997
-0.276323
-0.2761
-0.27445
-0.275661
-0.276407
-0.276951
-0.277402
-0.277779
-0.278104
-0.27839
-0.278641
-0.278852
-0.279012
-0.279108
-0.279122
-0.279037
-0.278834
-0.278502
-0.278042
-0.277486
-0.276839
-0.275959
-0.275483
-0.275577
-0.276691
-0.277374
-0.277865
-0.278268
-0.2786
-0.278883
-0.27913
-0.279343
-0.279519
-0.279646
-0.279706
-0.279678
-0.279541
-0.279269
-0.278842
-0.27825
-0.277519
-0.276666
-0.275542
-0.274689
-0.276846
-0.277854
-0.278465
-0.278897
-0.279243
-0.279523
-0.279756
-0.279957
-0.280128
-0.280264
-0.280353
-0.280375
-0.280305
-0.280115
-0.279773
-0.279247
-0.278512
-0.277581
-0.276491
-0.275083
-0.273576
-0.27824
-0.279135
-0.279668
-0.280032
-0.280314
-0.280532
-0.280707
-0.280854
-0.280977
-0.281068
-0.281116
-0.281098
-0.280986
-0.280746
-0.280337
-0.279715
-0.278836
-0.277692
-0.276334
-0.274591
-0.271944
-0.279743
-0.280519
-0.280968
-0.281257
-0.281465
-0.281612
-0.281721
-0.281806
-0.281871
-0.281912
-0.281913
-0.281853
-0.2817
-0.281413
-0.280944
-0.280234
-0.279222
-0.277873
-0.276214
-0.274073
-0.271293
-0.281338
-0.281994
-0.282353
-0.28256
-0.282684
-0.28275
-0.28278
-0.282792
-0.282791
-0.282771
-0.282721
-0.282614
-0.282418
-0.282087
-0.281565
-0.280778
-0.279645
-0.278104
-0.276129
-0.273449
-0.270193
-0.283012
-0.283549
-0.283814
-0.283929
-0.28396
-0.283932
-0.283871
-0.283797
-0.283716
-0.283626
-0.283513
-0.283353
-0.283109
-0.282734
-0.282161
-0.281307
-0.280067
-0.278348
-0.276076
-0.272876
-0.268745
-0.284758
-0.285178
-0.285344
-0.285359
-0.285284
-0.285148
-0.284981
-0.284805
-0.284629
-0.284454
-0.284265
-0.28404
-0.28374
-0.283313
-0.282687
-0.281768
-0.280432
-0.278544
-0.275995
-0.272339
-0.267004
-0.286571
-0.286879
-0.286941
-0.286845
-0.286651
-0.286392
-0.286101
-0.285806
-0.285518
-0.285239
-0.284959
-0.284652
-0.284281
-0.283789
-0.283099
-0.282107
-0.280671
-0.278622
-0.275802
-0.2718
-0.264979
-0.288456
-0.288656
-0.288608
-0.288391
-0.288062
-0.287662
-0.28723
-0.286795
-0.286376
-0.285975
-0.285582
-0.285175
-0.284713
-0.284136
-0.283363
-0.282279
-0.280731
-0.278513
-0.275407
-0.271216
-0.262725
-0.290424
-0.290519
-0.290355
-0.290003
-0.289523
-0.288964
-0.288371
-0.287777
-0.287204
-0.28666
-0.286135
-0.285606
-0.285031
-0.284347
-0.283466
-0.282265
-0.28058
-0.278182
-0.274755
-0.27055
-0.260386
-0.292495
-0.292485
-0.292196
-0.291694
-0.291047
-0.29031
-0.289534
-0.288761
-0.288016
-0.287308
-0.28663
-0.285958
-0.285249
-0.284434
-0.28342
-0.282073
-0.280223
-0.277634
-0.273858
-0.269771
-0.258208
-0.294698
-0.29458
-0.294151
-0.293486
-0.292653
-0.291717
-0.290741
-0.289769
-0.288831
-0.287941
-0.287092
-0.286258
-0.285394
-0.284427
-0.283255
-0.281738
-0.279696
-0.276901
-0.27279
-0.268825
-0.256433
-0.297066
-0.296828
-0.29625
-0.295402
-0.294363
-0.293212
-0.292015
-0.290827
-0.289682
-0.288593
-0.287556
-0.286544
-0.285506
-0.284366
-0.283015
-0.281308
-0.279061
-0.276046
-0.271684
-0.267602
-0.255061
-0.299645
-0.29927
-0.298524
-0.297473
-0.29621
-0.294824
-0.293392
-0.291972
-0.290604
-0.289304
-0.288065
-0.286859
-0.28563
-0.284297
-0.282746
-0.280834
-0.278389
-0.275177
-0.270786
-0.266172
-0.254126
-0.302482
-0.301946
-0.301008
-0.299734
-0.298227
-0.296589
-0.294906
-0.293243
-0.291641
-0.290117
-0.288664
-0.287247
-0.285806
-0.284254
-0.282477
-0.280338
-0.277702
-0.274364
-0.27029
-0.265199
-0.255818
-0.305629
-0.304899
-0.303743
-0.302223
-0.300453
-0.298547
-0.296601
-0.294683
-0.292837
-0.291078
-0.289395
-0.287747
-0.286065
-0.284257
-0.282211
-0.279805
-0.27694
-0.273488
-0.26975
-0.265176
-0.26442
-0.309138
-0.308174
-0.306771
-0.304981
-0.302928
-0.300739
-0.298517
-0.296334
-0.294233
-0.292226
-0.290294
-0.288385
-0.286422
-0.284306
-0.281929
-0.279186
-0.276016
-0.272383
-0.268573
-0.264541
-0.26277
-0.313062
-0.311816
-0.310133
-0.308049
-0.305692
-0.303206
-0.300697
-0.298239
-0.295871
-0.293596
-0.291385
-0.289173
-0.286873
-0.284381
-0.281592
-0.278423
-0.274843
-0.270864
-0.266731
-0.262424
-0.259249
-0.31745
-0.315869
-0.313871
-0.311466
-0.308787
-0.305989
-0.303181
-0.300435
-0.297782
-0.295212
-0.29268
-0.290109
-0.287397
-0.284441
-0.281147
-0.277454
-0.273359
-0.268898
-0.264271
-0.259434
-0.255189
-0.322348
-0.320374
-0.318024
-0.315273
-0.312252
-0.309127
-0.306008
-0.302957
-0.299991
-0.297086
-0.294176
-0.291168
-0.287956
-0.284439
-0.280542
-0.276233
-0.271538
-0.266511
-0.261322
-0.255918
-0.250821
-0.327795
-0.325368
-0.322629
-0.319507
-0.316126
-0.312659
-0.30921
-0.305829
-0.302513
-0.299215
-0.29585
-0.292312
-0.288496
-0.284316
-0.279727
-0.27473
-0.269381
-0.263753
-0.258003
-0.252068
-0.246413
-0.333824
-0.330884
-0.32772
-0.324204
-0.320445
-0.316617
-0.312815
-0.309068
-0.305347
-0.301579
-0.297662
-0.293486
-0.288956
-0.284017
-0.278661
-0.272929
-0.266904
-0.260678
-0.254393
-0.247998
-0.241901
-0.34046
-0.336947
-0.333326
-0.329395
-0.325238
-0.321028
-0.316841
-0.312675
-0.308474
-0.304138
-0.299554
-0.29462
-0.28927
-0.283489
-0.277313
-0.270824
-0.264126
-0.257324
-0.250544
-0.243748
-0.2373
-0.347718
-0.343577
-0.33947
-0.335104
-0.33053
-0.32591
-0.321291
-0.316635
-0.311854
-0.30683
-0.301451
-0.295639
-0.289372
-0.282685
-0.275661
-0.268414
-0.261064
-0.253718
-0.246481
-0.239331
-0.232565
-0.355601
-0.350781
-0.346164
-0.341348
-0.336334
-0.331264
-0.326149
-0.320909
-0.315425
-0.309575
-0.303266
-0.296463
-0.289199
-0.281565
-0.273687
-0.2657
-0.257727
-0.249872
-0.242211
-0.234739
-0.227677
-0.364097
-0.358557
-0.353412
-0.348129
-0.342647
-0.337074
-0.331375
-0.32543
-0.319101
-0.312276
-0.304903
-0.29701
-0.288694
-0.280097
-0.271375
-0.262675
-0.254115
-0.245782
-0.237728
-0.229957
-0.222607
-0.373177
-0.366884
-0.361197
-0.355432
-0.349444
-0.343296
-0.336902
-0.330107
-0.322772
-0.31482
-0.306264
-0.297205
-0.287804
-0.278247
-0.268708
-0.25933
-0.250218
-0.241437
-0.233015
-0.224962
-0.217334
-0.382791
-0.375723
-0.369489
-0.363222
-0.356676
-0.349858
-0.342632
-0.334822
-0.326312
-0.317089
-0.307249
-0.296974
-0.286481
-0.275985
-0.265663
-0.255646
-0.246015
-0.236814
-0.228047
-0.219729
-0.211833
-0.392865
-0.385013
-0.378228
-0.371435
-0.364262
-0.356655
-0.348436
-0.339432
-0.329581
-0.318961
-0.307765
-0.29625
-0.284678
-0.273277
-0.262214
-0.251596
-0.241479
-0.231885
-0.222797
-0.214229
-0.206081
-0.403296
-0.394667
-0.387331
-0.379977
-0.372089
-0.36355
-0.354158
-0.343776
-0.332432
-0.320315
-0.30772
-0.294968
-0.28235
-0.270087
-0.258327
-0.247148
-0.236579
-0.226618
-0.217235
-0.208433
-0.200052
-0.413956
-0.404568
-0.396682
-0.388719
-0.380007
-0.370372
-0.359617
-0.347682
-0.334716
-0.321035
-0.307028
-0.293066
-0.279447
-0.266375
-0.253964
-0.242264
-0.231278
-0.220979
-0.211327
-0.202311
-0.193723
-0.424684
-0.414572
-0.406134
-0.397502
-0.387835
-0.376924
-0.364618
-0.350973
-0.336288
-0.321011
-0.30561
-0.290484
-0.275921
-0.262094
-0.249083
-0.236904
-0.225536
-0.214932
-0.205041
-0.195835
-0.187069
-0.43529
-0.424502
-0.415508
-0.406129
-0.395361
-0.382988
-0.368953
-0.353471
-0.33701
-0.320139
-0.303388
-0.287161
-0.271719
-0.257197
-0.243637
-0.231025
-0.219314
-0.20844
-0.198344
-0.188975
-0.180067
-0.445556
-0.434152
-0.424594
-0.414376
-0.402348
-0.38833
-0.372413
-0.355005
-0.336749
-0.318322
-0.300286
-0.283034
-0.266786
-0.251633
-0.23758
-0.224582
-0.212571
-0.201466
-0.191204
-0.181704
-0.172697
-0.45524
-0.443291
-0.433152
-0.421991
-0.408541
-0.392712
-0.374793
-0.355415
-0.335386
-0.315468
-0.296235
-0.278044
-0.261069
-0.245353
-0.230865
-0.217532
-0.205267
-0.193976
-0.18359
-0.173993
-0.164938
-0.464079
-0.451663
-0.440921
-0.428704
-0.413676
-0.395896
-0.375899
-0.35455
-0.33281
-0.311495
-0.291166
-0.272132
-0.254513
-0.238306
-0.223445
-0.209833
-0.197365
-0.185936
-0.175469
-0.165818
-0.156769
-0.471793
-0.458995
-0.447622
-0.434237
-0.41749
-0.397654
-0.37555
-0.352276
-0.32892
-0.306325
-0.285014
-0.265241
-0.247066
-0.230445
-0.215278
-0.201447
-0.188829
-0.177315
-0.166815
-0.157156
-0.148173
-0.478095
-0.465003
-0.452967
-0.438305
-0.419725
-0.397775
-0.373584
-0.348473
-0.323628
-0.299887
-0.277721
-0.257317
-0.238681
-0.221726
-0.206323
-0.192335
-0.179627
-0.168082
-0.157601
-0.147986
-0.139134
-0.482696
-0.469399
-0.456669
-0.440634
-0.42014
-0.396064
-0.369857
-0.343039
-0.316856
-0.292119
-0.269232
-0.248314
-0.229315
-0.212111
-0.196546
-0.182466
-0.169726
-0.158201
-0.147789
-0.13828
-0.129628
-0.485314
-0.471901
-0.458447
-0.440963
-0.418517
-0.392356
-0.36425
-0.335886
-0.30854
-0.28297
-0.259504
-0.238191
-0.218934
-0.201568
-0.185919
-0.171815
-0.159098
-0.147639
-0.137333
-0.12798
-0.119579
-0.48568
-0.472236
-0.458036
-0.439056
-0.414664
-0.38651
-0.356664
-0.326946
-0.298627
-0.272395
-0.248498
-0.226918
-0.207508
-0.190077
-0.174425
-0.160369
-0.147735
-0.136384
-0.126211
-0.117012
-0.108814
-0.483544
-0.470154
-0.455196
-0.434704
-0.40842
-0.378413
-0.347025
-0.316168
-0.28708
-0.260366
-0.23619
-0.214472
-0.195022
-0.177622
-0.162055
-0.148123
-0.135641
-0.124467
-0.114491
-0.105427
-0.0971126
-0.478687
-0.46543
-0.449718
-0.427734
-0.399662
-0.367984
-0.335282
-0.303519
-0.273875
-0.246862
-0.222564
-0.200841
-0.181467
-0.164198
-0.148806
-0.135077
-0.122823
-0.111915
-0.102251
-0.0934475
-0.0846547
-0.47092
-0.457874
-0.441429
-0.418012
-0.388297
-0.355171
-0.321407
-0.288985
-0.259003
-0.231879
-0.207617
-0.186025
-0.166843
-0.14981
-0.134684
-0.12124
-0.10929
-0.0987224
-0.0893563
-0.0806017
-0.0726114
-0.460094
-0.447333
-0.430195
-0.405442
-0.374274
-0.339951
-0.305397
-0.272569
-0.242472
-0.215424
-0.191358
-0.170033
-0.151165
-0.134473
-0.119709
-0.106636
-0.0950699
-0.0848903
-0.0758509
-0.067374
-0.0601838
-0.446101
-0.433695
-0.415927
-0.389971
-0.357575
-0.322334
-0.287272
-0.254295
-0.224304
-0.19752
-0.173808
-0.152886
-0.134462
-0.118215
-0.103901
-0.0912824
-0.0801744
-0.070445
-0.0618113
-0.0537363
-0.0472385
-0.428877
-0.416895
-0.398581
-0.371588
-0.338217
-0.302352
-0.267073
-0.234206
-0.204539
-0.178205
-0.15501
-0.134634
-0.116755
-0.101064
-0.0872953
-0.0752134
-0.0646343
-0.0554211
-0.0472638
-0.0396439
-0.0337947
-0.408404
-0.396912
-0.378156
-0.35032
-0.316252
-0.280073
-0.244865
-0.212361
-0.183234
-0.157535
-0.135007
-0.115309
-0.0980991
-0.083065
-0.0699338
-0.0584686
-0.0484885
-0.0398548
-0.03223
-0.0251001
-0.01991
-0.384709
-0.37377
-0.354696
-0.326236
-0.291769
-0.255585
-0.220732
-0.188838
-0.160462
-0.13557
-0.113863
-0.0949737
-0.0785491
-0.0642728
-0.0518682
-0.0410972
-0.0317835
-0.023787
-0.0167409
-0.0101355
-0.00563146
-0.357865
-0.347538
-0.328287
-0.299449
-0.264889
-0.228995
-0.19477
-0.16373
-0.136307
-0.112393
-0.0916518
-0.0736987
-0.0581716
-0.0447514
-0.0331594
-0.0231577
-0.0145749
-0.00726949
-0.000844971
0.0052033
0.00901215
-0.327985
-0.318327
-0.299065
-0.270114
-0.235742
-0.200399
-0.167109
-0.137151
-0.110871
-0.0880971
-0.0684612
-0.0515655
-0.0370432
-0.0245734
-0.0138768
-0.00471716
0.00307121
0.00963191
0.0153918
0.0208584
0.0239964
-0.295219
-0.286298
-0.267209
-0.238383
-0.204395
-0.170018
-0.137894
-0.109229
-0.0842709
-0.0627884
-0.0443889
-0.0286654
-0.015249
-0.00381889
0.00590357
0.0141511
0.0210826
0.0268454
0.0319002
0.0367637
0.0392278
-0.259736
-0.251659
-0.232904
-0.204294
-0.171201
-0.138007
-0.107281
-0.0801075
-0.0566353
-0.0365845
-0.0195429
-0.00509848
0.00711766
0.0174249
0.0260996
0.0333694
0.0393876
0.0443118
0.048635
0.0528498
0.0544871
-0.22174
-0.214639
-0.196234
-0.168292
-0.136322
-0.104553
-0.0754444
-0.0499407
-0.0281039
-0.00961253
0.00595969
0.019027
0.0299562
0.0390637
0.0466222
0.0528542
0.0579146
0.0619836
0.0655643
0.0690358
0.0696193
-0.181451
-0.1755
-0.157566
-0.130597
-0.0999718
-0.0698629
-0.0425668
-0.0188936
0.00117399
0.0179914
0.0319943
0.0435962
0.0531595
0.0609964
0.067374
0.0725114
0.0765767
0.0797797
0.082584
0.0851937
0.0848958
-0.139229
-0.134469
-0.117262
-0.0914336
-0.0623883
-0.0341515
-0.00884212
0.0128596
0.0310408
0.046084
0.0584301
0.0684888
0.0766165
0.0831183
0.0882538
0.09224
0.0952638
0.0975505
0.0994677
0.101128
0.100628
-0.0955489
-0.0917556
-0.07555
-0.0510729
-0.0238227
0.0023548
0.0255272
0.0451367
0.0613318
0.0745159
0.0851311
0.0935809
0.100214
0.105325
0.109165
0.111948
0.113874
0.115147
0.115992
0.116582
0.115895
-0.05056
-0.0477871
-0.0327269
-0.00980086
0.0154629
0.0394216
0.0603312
0.0777491
0.0918768
0.103133
0.111957
0.118746
0.123836
0.127513
0.130018
0.131561
0.132343
0.132516
0.132076
0.131083
0.130735
-0.0045948
-0.00291392
0.0108852
0.0320861
0.0551995
0.0768079
0.0953542
0.110503
0.122501
0.131777
0.138766
0.143854
0.147367
0.149579
0.150721
0.151
0.150603
0.149628
0.148021
0.146057
0.145189
0.0419834
0.0425238
0.0549556
0.074284
0.0951132
0.114269
0.130377
0.143201
0.153026
0.160287
0.165412
0.168774
0.170688
0.171416
0.17118
0.170177
0.168572
0.166424
0.163704
0.160843
0.159153
0.0888109
0.0881788
0.0991501
0.116486
0.134928
0.151557
0.165178
0.175645
0.183273
0.188502
0.191748
0.193374
0.193681
0.19292
0.191302
0.189014
0.186202
0.182905
0.179134
0.175381
0.172764
0.135523
0.133699
0.143134
0.158385
0.174368
0.188425
0.199536
0.207633
0.213062
0.216257
0.217627
0.21752
0.216226
0.213982
0.210989
0.207422
0.20341
0.198986
0.194187
0.189531
0.185975
0.181756
0.178733
0.186574
0.199677
0.213159
0.224629
0.23323
0.238969
0.242212
0.243391
0.242902
0.241081
0.238202
0.234494
0.230144
0.225317
0.220128
0.214605
0.208804
0.203245
0.198745
0.227148
0.222931
0.229143
0.240062
0.251032
0.259926
0.266043
0.269456
0.270548
0.269744
0.267429
0.263924
0.259492
0.254348
0.248671
0.242611
0.236273
0.229682
0.222907
0.216459
0.211021
0.271347
0.265951
0.27052
0.279249
0.287724
0.294081
0.297763
0.298903
0.297894
0.295158
0.291064
0.285921
0.279978
0.27344
0.266473
0.259217
0.251768
0.244146
0.236431
0.229111
0.222748
0.314008
0.30746
0.310392
0.316952
0.322981
0.326865
0.328184
0.327122
0.324083
0.319479
0.313668
0.306945
0.299546
0.291664
0.283455
0.27505
0.266533
0.257924
0.249308
0.241143
0.233877
0.3548
0.347137
0.348461
0.352902
0.356557
0.358058
0.357106
0.353935
0.348952
0.342562
0.335109
0.326874
0.318085
0.30892
0.299527
0.290027
0.280493
0.270946
0.261475
0.252497
0.244357
0.393406
0.384677
0.384443
0.38684
0.388222
0.38745
0.384343
0.37917
0.372345
0.364263
0.355256
0.345593
0.335488
0.325112
0.314601
0.304066
0.293575
0.283146
0.272869
0.263116
0.25414
0.429527
0.41979
0.418068
0.418521
0.417755
0.414845
0.409714
0.402665
0.394116
0.384451
0.37399
0.362991
0.351657
0.340148
0.328594
0.317093
0.305708
0.294459
0.283432
0.272949
0.263183
0.462883
0.452208
0.449086
0.447719
0.444952
0.440058
0.433053
0.42427
0.414127
0.402999
0.391196
0.378964
0.366496
0.353943
0.341426
0.329036
0.316828
0.304825
0.293108
0.281946
0.271443
0.493217
0.481682
0.477268
0.474226
0.469625
0.46292
0.454207
0.443845
0.432252
0.419794
0.406771
0.393417
0.379919
0.366418
0.353026
0.339828
0.326875
0.314189
0.301846
0.290064
0.278885
0.520296
0.507987
0.502405
0.497852
0.491605
0.483277
0.473036
0.461264
0.448376
0.43473
0.420617
0.406264
0.391846
0.3775
0.363329
0.349411
0.335793
0.3225
0.3096
0.29726
0.285473
0.543911
0.530923
0.524311
0.518429
0.510738
0.500991
0.489417
0.476414
0.462396
0.447715
0.432652
0.417427
0.402208
0.387124
0.372274
0.357729
0.343533
0.329713
0.316327
0.303499
0.291178
0.56388
0.550316
0.542824
0.53581
0.526894
0.515945
0.503241
0.489197
0.474223
0.458666
0.4428
0.426838
0.410941
0.395235
0.379811
0.364737
0.350053
0.335787
0.321993
0.308749
0.295974
0.580051
0.566018
0.557808
0.549874
0.539962
0.528036
0.514418
0.499529
0.483781
0.467515
0.450999
0.43444
0.417996
0.401785
0.385897
0.370394
0.355316
0.340691
0.326565
0.312984
0.299839
0.592299
0.57791
0.569153
0.560518
0.54985
0.537184
0.522872
0.507344
0.49101
0.474207
0.457198
0.440187
0.423328
0.406736
0.390497
0.37467
0.359292
0.344395
0.330019
0.316182
0.302757
0.600531
0.585902
0.576776
0.567669
0.556491
0.543328
0.52855
0.512591
0.495863
0.478699
0.461359
0.444044
0.426906
0.410058
0.393583
0.377538
0.361961
0.346881
0.332337
0.318327
0.304715
0.604684
0.589933
0.580621
0.571275
0.55984
0.546425
0.531411
0.515236
0.498309
0.480962
0.463456
0.445988
0.428709
0.411732
0.395138
0.378983
0.363305
0.348134
0.333506
0.31941
0.305703
0.604725
0.589973
0.580659
0.57131
0.559873
0.546455
0.531439
0.515262
0.498332
0.480984
0.463475
0.446006
0.428726
0.411748
0.395153
0.378998
0.363319
0.348148
0.333519
0.319423
0.305717
0.600655
0.586021
0.57689
0.567775
0.55659
0.543418
0.528632
0.512667
0.495933
0.478763
0.461418
0.444099
0.426957
0.410105
0.393627
0.37758
0.362001
0.346921
0.332376
0.318367
0.304757
0.592504
0.578107
0.569341
0.560694
0.550012
0.537334
0.52301
0.50747
0.491125
0.474313
0.457296
0.440277
0.423411
0.406814
0.39057
0.374739
0.35936
0.344461
0.330084
0.316247
0.302827
0.580335
0.566292
0.558068
0.550117
0.540187
0.528243
0.514608
0.499703
0.483941
0.467662
0.451134
0.434565
0.418111
0.401893
0.385999
0.370491
0.355409
0.340782
0.326655
0.313074
0.299937
0.564239
0.550663
0.543154
0.536119
0.52718
0.516207
0.503482
0.489418
0.474426
0.458852
0.442972
0.426996
0.411088
0.395372
0.37994
0.36486
0.350171
0.335903
0.322107
0.308864
0.296097
0.544342
0.531339
0.524706
0.518799
0.511081
0.501307
0.489707
0.47668
0.462639
0.447939
0.432858
0.417617
0.402384
0.387289
0.372429
0.357877
0.343675
0.329852
0.316465
0.303638
0.291327
0.520794
0.508467
0.502862
0.49828
0.492001
0.483642
0.473371
0.461572
0.448658
0.434989
0.420856
0.406484
0.39205
0.37769
0.363508
0.349581
0.335957
0.322661
0.309759
0.297421
0.285647
0.493776
0.482221
0.477782
0.474708
0.470072
0.463331
0.454584
0.444191
0.432569
0.420086
0.407039
0.393665
0.380148
0.366632
0.353227
0.34002
0.32706
0.31437
0.302026
0.290246
0.279082
0.463497
0.4528
0.449651
0.448249
0.445443
0.440511
0.433468
0.424651
0.414476
0.40332
0.391491
0.379236
0.366748
0.354178
0.341647
0.329246
0.317031
0.305024
0.293305
0.282147
0.271661
0.430189
0.420428
0.418677
0.419093
0.418286
0.415334
0.410163
0.403077
0.394493
0.384797
0.374308
0.363284
0.351928
0.340401
0.328831
0.317319
0.305926
0.294673
0.283644
0.273165
0.263419
0.394108
0.385354
0.38509
0.387448
0.388787
0.387971
0.38482
0.379608
0.372746
0.364631
0.355594
0.345904
0.335775
0.325379
0.314851
0.304304
0.293804
0.283371
0.273093
0.263344
0.254391
0.355534
0.347845
0.349139
0.35354
0.35715
0.358604
0.357608
0.354394
0.349372
0.342946
0.335461
0.327198
0.318383
0.309197
0.299786
0.290272
0.28073
0.271179
0.261706
0.252733
0.244619
0.314766
0.308191
0.311092
0.317612
0.323594
0.32743
0.328702
0.327597
0.324517
0.319876
0.314032
0.307277
0.299851
0.291946
0.283718
0.275299
0.266772
0.258158
0.249542
0.241382
0.234145
0.272119
0.266696
0.271234
0.279923
0.288351
0.294659
0.298293
0.299388
0.298337
0.295561
0.291432
0.286257
0.280286
0.273722
0.266735
0.259464
0.252004
0.244376
0.23666
0.229346
0.223016
0.227925
0.223681
0.229864
0.240744
0.251666
0.260511
0.266579
0.269946
0.270993
0.270149
0.267797
0.264258
0.259796
0.254626
0.248926
0.242849
0.236499
0.229901
0.223124
0.216682
0.21128
0.182528
0.179479
0.187292
0.200357
0.213792
0.225213
0.233764
0.239456
0.242655
0.243792
0.243264
0.241407
0.238497
0.23476
0.230386
0.225539
0.220336
0.214805
0.209
0.203446
0.198986
0.136283
0.134433
0.143841
0.159056
0.174994
0.189002
0.200063
0.208112
0.213495
0.216647
0.217977
0.217833
0.216504
0.21423
0.21121
0.207621
0.203592
0.199158
0.194351
0.189696
0.186183
0.0895482
0.088891
0.099838
0.11714
0.135539
0.15212
0.165691
0.176109
0.183691
0.188876
0.19208
0.193667
0.193938
0.193144
0.191496
0.189182
0.186349
0.183037
0.179252
0.175495
0.172923
0.0426898
0.0432063
0.0556164
0.0749142
0.0957024
0.114811
0.13087
0.143645
0.153423
0.160639
0.165721
0.169042
0.170917
0.171609
0.171339
0.170305
0.168675
0.166505
0.163762
0.160884
0.159237
-0.0039275
-0.00226877
0.0115113
0.0326849
0.0557601
0.0773232
0.0958211
0.110921
0.122871
0.132101
0.139046
0.14409
0.147562
0.149734
0.150838
0.151081
0.150652
0.149647
0.148004
0.146002
0.145166
-0.0499394
-0.0471864
-0.0321424
-0.00924002
0.0159888
0.0399042
0.0607665
0.078136
0.0922156
0.103425
0.112203
0.118946
0.123992
0.127626
0.130088
0.131588
0.132329
0.132463
0.131972
0.130906
0.130549
-0.0949824
-0.0912057
-0.0750136
-0.0505561
-0.0233372
0.00279957
0.0259261
0.0454877
0.0616344
0.0747706
0.0853383
0.093741
0.100327
0.105391
0.109183
0.111916
0.113791
0.115013
0.11579
0.116272
0.115506
-0.138723
-0.133976
-0.11678
-0.0909661
-0.0619481
-0.0337492
-0.00848402
0.0131705
0.0313034
0.046298
0.0585954
0.068605
0.0766829
0.0831337
0.0882161
0.0921459
0.0951103
0.097334
0.0991718
0.100711
0.100089
-0.181003
-0.175072
-0.157142
-0.130183
-0.099581
-0.0695069
-0.042253
-0.018626
0.00139351
0.0181619
0.0321151
0.0436661
0.0531773
0.0609599
0.0672802
0.0723559
0.0763548
0.079486
0.0822045
0.0846966
0.0842724
-0.22136
-0.214276
-0.19587
-0.167934
-0.135984
-0.104247
-0.0751777
-0.0497189
-0.0279297
-0.00948747
0.00603422
0.0190495
0.0299245
0.0389751
0.0464732
0.0526398
0.0576291
0.0616205
0.0651112
0.068469
0.0689385
-0.259428
-0.251363
-0.232608
-0.203994
-0.170918
-0.137752
-0.107064
-0.0799332
-0.0565078
-0.0365059
-0.0195153
-0.00512385
0.00703679
0.0172854
0.0258974
0.0330994
0.0390437
0.0438871
0.0481178
0.0522202
0.05375
-0.294982
-0.28607
-0.266978
-0.238151
-0.204167
-0.169816
-0.137726
-0.109103
-0.0841906
-0.0627566
-0.044408
-0.0287379
-0.0153778
-0.00400739
0.00565108
0.0138294
0.0206856
0.0263663
0.0313279
0.0360803
0.0384369
-0.327821
-0.318168
-0.298898
-0.269942
-0.235577
-0.20025
-0.166992
-0.137073
-0.110838
-0.0881114
-0.068526
-0.0516836
-0.0372178
-0.0248081
-0.014176
-0.0050861
0.00262665
0.00910527
0.014773
0.0201311
0.0231626
-0.357771
-0.347447
-0.328187
-0.299338
-0.26478
-0.228902
-0.194703
-0.1637
-0.13632
-0.112452
-0.0917605
-0.0738602
-0.0583893
-0.045029
-0.0335012
-0.0235689
-0.0150611
-0.00783664
-0.00150206
0.00444164
0.00814739
-0.384684
-0.373746
-0.35466
-0.326186
-0.291716
-0.255544
-0.220715
-0.188854
-0.160519
-0.135672
-0.114013
-0.0951759
-0.0788066
-0.0645894
-0.052248
-0.0415452
-0.032305
-0.0243876
-0.0174283
-0.0109229
-0.00651771
-0.408444
-0.396951
-0.378182
-0.350329
-0.316254
-0.280082
-0.244895
-0.212421
-0.183332
-0.157677
-0.135196
-0.115548
-0.0983927
-0.0834163
-0.0703469
-0.0589479
-0.0490392
-0.0404818
-0.0329402
-0.0259054
-0.0208101
-0.428979
-0.416994
-0.398665
-0.371653
-0.338271
-0.30241
-0.267147
-0.234308
-0.204677
-0.178383
-0.155234
-0.134906
-0.117081
-0.101446
-0.0877365
-0.0757186
-0.0652082
-0.0560679
-0.0479897
-0.0404598
-0.0347012
-0.44626
-0.433849
-0.416065
-0.390089
-0.357678
-0.322436
-0.287387
-0.254436
-0.224478
-0.197733
-0.174064
-0.153188
-0.134816
-0.118622
-0.104365
-0.0918081
-0.0807656
-0.0711053
-0.0625459
-0.0545557
-0.0481449
-0.460305
-0.447537
-0.430382
-0.405608
-0.374423
-0.340096
-0.305551
-0.272744
-0.242678
-0.215667
-0.191642
-0.170361
-0.151542
-0.1349
-0.120192
-0.107176
-0.0956729
-0.0855581
-0.0765875
-0.0681897
-0.0610848
-0.471177
-0.458123
-0.44166
-0.418221
-0.388488
-0.355354
-0.321596
-0.289192
-0.259237
-0.232147
-0.207925
-0.186375
-0.167238
-0.150254
-0.13518
-0.121791
-0.1099
-0.0993925
-0.0900892
-0.0814058
-0.073502
-0.478984
-0.465717
-0.449988
-0.427982
-0.399889
-0.368201
-0.335502
-0.303754
-0.274134
-0.247153
-0.222891
-0.201208
-0.181877
-0.164654
-0.14931
-0.135633
-0.123433
-0.112582
-0.102977
-0.0942344
-0.0855237
-0.483875
-0.470474
-0.455499
-0.434985
-0.40868
-0.37866
-0.347272
-0.316427
-0.287361
-0.260675
-0.236533
-0.214852
-0.195443
-0.178085
-0.162564
-0.148679
-0.136248
-0.125127
-0.115206
-0.106196
-0.0979429
-0.486038
-0.472582
-0.458366
-0.439364
-0.414951
-0.386783
-0.356935
-0.327226
-0.298925
-0.272719
-0.248853
-0.227307
-0.207936
-0.190544
-0.174934
-0.160922
-0.148334
-0.137031
-0.126908
-0.117757
-0.109607
-0.485694
-0.472267
-0.458798
-0.441294
-0.418827
-0.392652
-0.36454
-0.336182
-0.308852
-0.283304
-0.259867
-0.238587
-0.219364
-0.202035
-0.186425
-0.172361
-0.159686
-0.148269
-0.138007
-0.128696
-0.120338
-0.483092
-0.469781
-0.457036
-0.440982
-0.420468
-0.396377
-0.370163
-0.343348
-0.317178
-0.292462
-0.269601
-0.248712
-0.229745
-0.212575
-0.197045
-0.183002
-0.170299
-0.158812
-0.148438
-0.138968
-0.130353
-0.478501
-0.465395
-0.453345
-0.438665
-0.420066
-0.398101
-0.373902
-0.348793
-0.323958
-0.300234
-0.278091
-0.257714
-0.239108
-0.222184
-0.206814
-0.192858
-0.180184
-0.168672
-0.158224
-0.148643
-0.139825
-0.472205
-0.459392
-0.448006
-0.434605
-0.41784
-0.39799
-0.375877
-0.352603
-0.329255
-0.306674
-0.285385
-0.265635
-0.247488
-0.230895
-0.215757
-0.201956
-0.189368
-0.177884
-0.167413
-0.157782
-0.148827
-0.464493
-0.452062
-0.441307
-0.429076
-0.414032
-0.396238
-0.376232
-0.354881
-0.333147
-0.311845
-0.291534
-0.272522
-0.254927
-0.238746
-0.223912
-0.210327
-0.197884
-0.186482
-0.176039
-0.166413
-0.157387
-0.455652
-0.443688
-0.433537
-0.422363
-0.408898
-0.393057
-0.375129
-0.355748
-0.335723
-0.315816
-0.296599
-0.278428
-0.261474
-0.245782
-0.231317
-0.218009
-0.205766
-0.194498
-0.184133
-0.174556
-0.165519
-0.445963
-0.434544
-0.424974
-0.414745
-0.402704
-0.388675
-0.372749
-0.355338
-0.337085
-0.318666
-0.300644
-0.28341
-0.267181
-0.25205
-0.238018
-0.225041
-0.21305
-0.201965
-0.191721
-0.182235
-0.173244
-0.435689
-0.424887
-0.415882
-0.406493
-0.395714
-0.38333
-0.369287
-0.353801
-0.337342
-0.320478
-0.303739
-0.287527
-0.272103
-0.2576
-0.24406
-0.231467
-0.219773
-0.208915
-0.198834
-0.189477
-0.18058
-0.425073
-0.414948
-0.4065
-0.397858
-0.388182
-0.377261
-0.364948
-0.351299
-0.336616
-0.321344
-0.305954
-0.290841
-0.276294
-0.262484
-0.24949
-0.237329
-0.225976
-0.215385
-0.205506
-0.196309
-0.187551
-0.414335
-0.404934
-0.397038
-0.389067
-0.380347
-0.370703
-0.359943
-0.348004
-0.335038
-0.321362
-0.307364
-0.293414
-0.279809
-0.266752
-0.254357
-0.242672
-0.231699
-0.221412
-0.211769
-0.20276
-0.194177
-0.403664
-0.395023
-0.387677
-0.380315
-0.37242
-0.363874
-0.354477
-0.344091
-0.332747
-0.320635
-0.308047
-0.295306
-0.2827
-0.270452
-0.258705
-0.24754
-0.236983
-0.227032
-0.217656
-0.208858
-0.200481
-0.393221
-0.385358
-0.378565
-0.371764
-0.364584
-0.356971
-0.348748
-0.33974
-0.32989
-0.319273
-0.308084
-0.296578
-0.285018
-0.27363
-0.262579
-0.251973
-0.241867
-0.232281
-0.223199
-0.214633
-0.206487
-0.383135
-0.376057
-0.369815
-0.363542
-0.356989
-0.350166
-0.342936
-0.335124
-0.326614
-0.317394
-0.307561
-0.297294
-0.286811
-0.276327
-0.266017
-0.25601
-0.246389
-0.237195
-0.228433
-0.220115
-0.21222
-0.37351
-0.367208
-0.361514
-0.355743
-0.349748
-0.343595
-0.337198
-0.330401
-0.323067
-0.315118
-0.306567
-0.297516
-0.288126
-0.278579
-0.269051
-0.259684
-0.25058
-0.241806
-0.233387
-0.225334
-0.217705
-0.364419
-0.358871
-0.353719
-0.34843
-0.342942
-0.337365
-0.331663
-0.325716
-0.319388
-0.312566
-0.305199
-0.297315
-0.289008
-0.280421
-0.271711
-0.26302
-0.254469
-0.246141
-0.23809
-0.230317
-0.222966
-0.355912
-0.351086
-0.346463
-0.341641
-0.336622
-0.331547
-0.326429
-0.321187
-0.315706
-0.309859
-0.303556
-0.296761
-0.289507
-0.281884
-0.274016
-0.266038
-0.258074
-0.250224
-0.242566
-0.235092
-0.228027
-0.34802
-0.343873
-0.339761
-0.33539
-0.33081
-0.326185
-0.321563
-0.316907
-0.312127
-0.307107
-0.301735
-0.295932
-0.289675
-0.282999
-0.275986
-0.268749
-0.261407
-0.254067
-0.246832
-0.239679
-0.232911
-0.340753
-0.337236
-0.33361
-0.329674
-0.325511
-0.321297
-0.317107
-0.312941
-0.308741
-0.304409
-0.299833
-0.294908
-0.289569
-0.2838
-0.277636
-0.271157
-0.264468
-0.257672
-0.250894
-0.244096
-0.237646
-0.33411
-0.331166
-0.327998
-0.324477
-0.320712
-0.31688
-0.313076
-0.309327
-0.305608
-0.301846
-0.297936
-0.29377
-0.289253
-0.284327
-0.278984
-0.273264
-0.267249
-0.261029
-0.254747
-0.24835
-0.242251
-0.328075
-0.325645
-0.322901
-0.319775
-0.316389
-0.312917
-0.309465
-0.306084
-0.30277
-0.299478
-0.296121
-0.292594
-0.288791
-0.284626
-0.280052
-0.275069
-0.269732
-0.264112
-0.258366
-0.252428
-0.246771
-0.322623
-0.320647
-0.318292
-0.315536
-0.312511
-0.309381
-0.306259
-0.303207
-0.300245
-0.297345
-0.294444
-0.291449
-0.288251
-0.28475
-0.280871
-0.276578
-0.271897
-0.26688
-0.261698
-0.256291
-0.251192
-0.317722
-0.316139
-0.314136
-0.311726
-0.309042
-0.30624
-0.30343
-0.300683
-0.298033
-0.295469
-0.292947
-0.290389
-0.287694
-0.284756
-0.281482
-0.277807
-0.273729
-0.269281
-0.264663
-0.259825
-0.255579