/*--------------------------------*- C++ -*----------------------------------*\
  =========                 |
  \\      /  F ield         | OpenFOAM: The Open Source CFD Toolbox
   \\    /   O peration     | Website:  https://openfoam.org
    \\  /    A nd           | Version:  7
     \\/     M anipulation  |
\*---------------------------------------------------------------------------*/
FoamFile
{
    version     2.0;
    format      ascii;
    class       volScalarField;
    location    "35";
    object      p;
}
// * * * * * * * * * * * * * * * * * * * * * * * * * * * * * * * * * * * * * //

dimensions      [0 2 -2 0 0 0 0];

internalField   nonuniform List<scalar> 
8820
(
-0.259597
-0.261042
-0.261938
-0.262603
-0.263165
-0.263644
-0.26406
-0.264429
-0.264755
-0.265036
-0.265265
-0.265436
-0.265539
-0.265569
-0.265525
-0.265412
-0.265246
-0.265056
-0.264831
-0.264489
-0.264527
-0.259802
-0.261229
-0.262115
-0.26277
-0.263325
-0.263796
-0.264205
-0.264567
-0.264887
-0.265162
-0.265385
-0.265549
-0.265643
-0.265663
-0.265606
-0.265475
-0.265286
-0.265071
-0.264816
-0.264441
-0.264449
-0.260207
-0.261601
-0.262464
-0.263102
-0.26364
-0.264096
-0.264492
-0.264841
-0.265148
-0.265411
-0.265622
-0.265771
-0.26585
-0.265849
-0.265764
-0.265599
-0.265366
-0.265097
-0.264783
-0.264338
-0.264285
-0.260807
-0.262149
-0.26298
-0.263592
-0.264106
-0.26454
-0.264915
-0.265245
-0.265534
-0.265779
-0.265972
-0.266101
-0.266156
-0.266125
-0.266001
-0.265784
-0.265485
-0.265136
-0.264731
-0.264176
-0.264024
-0.261592
-0.262867
-0.263655
-0.264232
-0.264715
-0.26512
-0.265468
-0.265773
-0.266038
-0.26626
-0.26643
-0.266534
-0.266559
-0.26649
-0.266317
-0.266033
-0.265646
-0.265188
-0.264658
-0.263954
-0.26365
-0.262548
-0.263743
-0.264478
-0.265013
-0.265456
-0.265825
-0.26614
-0.266414
-0.266651
-0.266845
-0.266988
-0.267063
-0.267053
-0.266942
-0.266711
-0.266348
-0.265854
-0.265259
-0.264569
-0.26367
-0.263147
-0.263662
-0.264764
-0.265438
-0.265923
-0.266319
-0.266645
-0.266919
-0.267157
-0.267359
-0.267523
-0.267634
-0.267678
-0.267632
-0.267474
-0.267181
-0.26673
-0.266114
-0.265355
-0.26447
-0.263334
-0.262481
-0.264917
-0.265916
-0.266522
-0.266949
-0.267291
-0.267565
-0.267793
-0.267987
-0.268151
-0.268278
-0.268356
-0.268366
-0.268284
-0.26808
-0.267723
-0.267182
-0.266432
-0.265485
-0.264369
-0.262952
-0.261535
-0.266297
-0.267185
-0.267715
-0.268077
-0.268356
-0.268572
-0.268745
-0.268889
-0.269007
-0.269094
-0.269136
-0.269111
-0.268993
-0.268745
-0.268329
-0.267698
-0.266812
-0.265662
-0.264286
-0.26253
-0.260138
-0.267785
-0.268558
-0.269005
-0.269294
-0.269502
-0.26965
-0.269759
-0.269844
-0.26991
-0.26995
-0.269951
-0.269891
-0.269737
-0.269449
-0.268979
-0.268268
-0.267255
-0.265906
-0.26424
-0.262113
-0.259429
-0.269365
-0.27002
-0.27038
-0.270588
-0.270716
-0.270785
-0.27082
-0.270836
-0.270839
-0.270824
-0.270779
-0.270678
-0.270488
-0.270163
-0.269646
-0.268865
-0.267736
-0.266198
-0.26422
-0.261553
-0.258365
-0.271025
-0.271562
-0.271829
-0.271949
-0.271985
-0.271964
-0.271911
-0.271845
-0.271774
-0.271694
-0.271592
-0.271444
-0.271213
-0.270849
-0.270289
-0.269446
-0.268215
-0.266502
-0.264228
-0.261035
-0.256998
-0.272756
-0.273178
-0.273347
-0.273369
-0.273302
-0.273177
-0.273022
-0.272858
-0.272697
-0.272537
-0.272365
-0.272158
-0.271877
-0.271468
-0.270861
-0.269958
-0.268635
-0.266757
-0.264206
-0.260543
-0.25534
-0.274555
-0.274864
-0.274932
-0.274845
-0.274662
-0.274416
-0.274142
-0.273863
-0.273595
-0.273337
-0.273079
-0.272796
-0.272449
-0.271982
-0.271316
-0.270346
-0.268928
-0.266889
-0.264071
-0.260036
-0.253391
-0.276424
-0.276625
-0.276585
-0.276378
-0.276063
-0.275681
-0.275268
-0.274855
-0.274459
-0.274084
-0.273719
-0.27334
-0.272908
-0.272362
-0.271618
-0.270561
-0.269034
-0.266829
-0.26373
-0.259472
-0.251196
-0.278374
-0.27847
-0.278314
-0.277976
-0.277513
-0.276975
-0.276404
-0.275836
-0.275292
-0.274777
-0.274284
-0.273788
-0.273248
-0.272599
-0.271752
-0.270582
-0.268921
-0.266536
-0.263125
-0.258814
-0.248884
-0.280423
-0.280415
-0.280135
-0.279649
-0.279022
-0.278309
-0.27756
-0.276816
-0.276103
-0.275428
-0.274786
-0.274151
-0.273479
-0.272703
-0.271726
-0.270414
-0.268592
-0.266014
-0.262264
-0.258037
-0.246691
-0.282599
-0.282484
-0.282065
-0.281419
-0.280609
-0.279701
-0.278754
-0.277815
-0.276912
-0.276058
-0.275247
-0.274454
-0.27363
-0.272704
-0.271573
-0.270093
-0.268082
-0.265298
-0.261218
-0.257093
-0.244864
-0.284935
-0.284701
-0.284136
-0.283309
-0.282296
-0.281175
-0.280012
-0.278859
-0.277751
-0.276701
-0.275705
-0.274734
-0.27374
-0.272644
-0.271337
-0.269672
-0.26746
-0.264459
-0.260124
-0.255886
-0.243419
-0.287475
-0.287106
-0.286376
-0.285349
-0.284115
-0.282762
-0.281365
-0.279984
-0.278655
-0.277396
-0.276199
-0.275037
-0.273855
-0.272569
-0.271068
-0.269205
-0.266804
-0.263619
-0.259255
-0.254513
-0.242433
-0.290266
-0.289739
-0.28882
-0.287573
-0.286098
-0.284496
-0.282852
-0.281228
-0.279667
-0.278186
-0.276777
-0.275407
-0.274016
-0.272517
-0.270798
-0.26872
-0.266145
-0.262862
-0.25884
-0.253706
-0.244257
-0.293358
-0.292641
-0.291509
-0.290019
-0.288284
-0.286417
-0.284511
-0.282635
-0.280832
-0.279118
-0.277482
-0.275884
-0.274258
-0.272513
-0.270536
-0.268207
-0.265428
-0.262065
-0.258431
-0.253952
-0.253497
-0.296804
-0.295859
-0.294483
-0.292728
-0.290713
-0.288566
-0.286387
-0.284247
-0.282192
-0.280232
-0.278349
-0.276497
-0.274598
-0.272557
-0.270266
-0.267622
-0.264565
-0.261058
-0.257401
-0.253539
-0.252112
-0.300655
-0.299435
-0.297784
-0.295738
-0.293425
-0.290983
-0.288519
-0.286107
-0.283787
-0.281563
-0.279407
-0.27726
-0.275036
-0.272634
-0.269952
-0.266906
-0.263467
-0.259647
-0.255698
-0.251604
-0.248736
-0.304963
-0.303415
-0.301454
-0.299092
-0.29646
-0.293709
-0.29095
-0.288253
-0.28565
-0.283137
-0.280669
-0.278174
-0.275554
-0.272708
-0.269543
-0.265998
-0.262069
-0.257792
-0.25337
-0.24876
-0.244789
-0.309771
-0.307839
-0.305532
-0.302829
-0.299859
-0.296784
-0.293716
-0.290718
-0.287809
-0.284968
-0.282133
-0.279217
-0.276115
-0.27273
-0.268986
-0.26485
-0.260343
-0.255518
-0.250545
-0.24537
-0.240516
-0.31512
-0.312743
-0.310054
-0.306985
-0.303659
-0.300246
-0.296852
-0.293529
-0.290277
-0.287054
-0.283779
-0.280352
-0.276669
-0.272645
-0.268232
-0.263429
-0.258286
-0.252873
-0.247342
-0.241633
-0.236204
-0.321043
-0.318161
-0.315054
-0.311596
-0.307895
-0.304126
-0.300385
-0.296702
-0.293056
-0.289377
-0.28557
-0.281527
-0.277155
-0.272396
-0.267238
-0.261717
-0.255911
-0.249907
-0.243844
-0.237672
-0.231789
-0.327564
-0.324119
-0.32056
-0.316692
-0.312599
-0.308453
-0.304333
-0.300242
-0.296128
-0.291901
-0.287449
-0.282674
-0.277507
-0.271929
-0.265971
-0.259707
-0.253237
-0.246661
-0.240103
-0.233526
-0.227288
-0.334699
-0.330635
-0.326596
-0.322299
-0.317793
-0.313243
-0.3087
-0.304133
-0.299458
-0.294565
-0.289345
-0.283719
-0.27766
-0.271197
-0.264406
-0.257395
-0.250278
-0.243161
-0.236146
-0.229213
-0.222655
-0.342452
-0.337718
-0.333176
-0.328432
-0.323493
-0.318501
-0.313474
-0.308339
-0.302985
-0.297293
-0.291171
-0.284581
-0.277549
-0.270157
-0.262524
-0.254779
-0.247044
-0.239419
-0.231981
-0.224724
-0.21787
-0.350812
-0.345366
-0.340301
-0.335096
-0.329695
-0.324211
-0.318616
-0.312798
-0.306625
-0.299988
-0.292833
-0.285179
-0.277115
-0.268774
-0.260307
-0.251855
-0.243535
-0.235432
-0.227601
-0.220044
-0.212903
-0.359751
-0.35356
-0.347959
-0.342277
-0.336378
-0.330332
-0.324062
-0.317421
-0.310273
-0.302541
-0.294231
-0.285435
-0.276304
-0.267015
-0.257737
-0.248611
-0.239739
-0.231189
-0.222989
-0.215151
-0.207733
-0.369221
-0.362262
-0.356117
-0.34994
-0.343494
-0.336796
-0.329718
-0.322093
-0.313804
-0.304834
-0.295268
-0.285277
-0.275068
-0.264848
-0.254792
-0.245028
-0.235638
-0.226668
-0.218123
-0.210019
-0.202333
-0.379149
-0.371413
-0.364722
-0.358026
-0.350967
-0.343501
-0.33546
-0.326674
-0.31708
-0.306745
-0.295848
-0.284634
-0.273358
-0.262239
-0.251444
-0.241081
-0.231206
-0.221842
-0.212976
-0.20462
-0.196682
-0.389438
-0.380929
-0.373692
-0.366443
-0.358686
-0.350314
-0.341133
-0.331007
-0.319955
-0.308153
-0.295878
-0.283442
-0.271128
-0.259152
-0.247662
-0.236738
-0.226411
-0.21668
-0.207516
-0.198926
-0.190753
-0.39996
-0.390697
-0.382914
-0.375068
-0.366507
-0.357069
-0.346563
-0.334922
-0.322282
-0.308942
-0.295274
-0.281639
-0.268329
-0.255546
-0.243407
-0.231962
-0.221217
-0.211147
-0.201712
-0.192906
-0.184523
-0.410559
-0.400574
-0.392245
-0.383743
-0.374252
-0.363573
-0.351555
-0.338242
-0.323915
-0.309001
-0.293954
-0.279163
-0.264913
-0.251377
-0.238638
-0.226714
-0.215585
-0.205208
-0.195532
-0.186533
-0.177968
-0.42105
-0.41039
-0.401511
-0.392278
-0.381715
-0.36961
-0.355904
-0.34079
-0.324715
-0.308226
-0.29184
-0.275953
-0.260827
-0.246597
-0.233309
-0.22095
-0.209476
-0.198826
-0.188943
-0.179777
-0.171066
-0.431218
-0.419942
-0.410506
-0.400453
-0.388661
-0.374952
-0.359403
-0.342397
-0.324551
-0.30652
-0.288857
-0.271949
-0.256018
-0.241157
-0.227374
-0.214627
-0.202851
-0.191967
-0.181914
-0.172611
-0.163796
-0.440824
-0.429002
-0.418993
-0.40802
-0.394841
-0.379361
-0.361848
-0.342901
-0.323301
-0.303791
-0.284936
-0.267091
-0.250432
-0.235006
-0.220786
-0.207702
-0.195669
-0.184595
-0.174412
-0.165009
-0.156137
-0.449611
-0.437319
-0.426718
-0.414714
-0.399993
-0.382601
-0.363044
-0.342151
-0.320855
-0.299956
-0.280007
-0.261319
-0.244015
-0.228097
-0.213501
-0.200135
-0.187894
-0.176678
-0.166409
-0.156945
-0.148071
-0.457301
-0.444625
-0.433403
-0.420258
-0.403855
-0.384446
-0.362812
-0.340013
-0.317112
-0.294936
-0.274006
-0.254577
-0.236716
-0.22038
-0.205475
-0.191885
-0.179491
-0.168184
-0.157876
-0.148396
-0.139579
-0.463611
-0.450637
-0.438767
-0.424372
-0.406172
-0.384682
-0.360987
-0.336367
-0.311983
-0.288662
-0.266875
-0.246813
-0.228487
-0.211814
-0.196669
-0.182918
-0.170428
-0.159083
-0.148787
-0.139344
-0.130647
-0.468255
-0.455073
-0.442521
-0.426782
-0.406703
-0.383118
-0.357426
-0.331108
-0.305389
-0.281071
-0.25856
-0.23798
-0.219287
-0.20236
-0.187048
-0.1732
-0.160673
-0.149343
-0.13911
-0.129763
-0.121253
-0.470952
-0.457649
-0.444389
-0.42723
-0.40523
-0.379584
-0.352008
-0.32415
-0.297267
-0.272112
-0.249017
-0.228037
-0.20908
-0.191987
-0.176585
-0.162708
-0.150199
-0.138932
-0.128806
-0.119606
-0.111329
-0.471434
-0.458097
-0.444106
-0.425478
-0.401559
-0.37394
-0.344633
-0.315423
-0.287562
-0.26174
-0.238207
-0.216954
-0.197838
-0.180672
-0.165262
-0.151426
-0.138995
-0.127835
-0.117847
-0.108802
-0.100716
-0.469454
-0.456166
-0.441432
-0.421317
-0.39553
-0.366071
-0.335226
-0.304873
-0.276237
-0.249925
-0.226106
-0.204707
-0.185543
-0.168401
-0.153068
-0.139349
-0.127062
-0.116071
-0.10627
-0.0973463
-0.0892083
-0.464789
-0.451632
-0.436157
-0.414573
-0.387015
-0.355893
-0.323734
-0.292469
-0.263268
-0.236647
-0.212697
-0.191284
-0.172188
-0.15517
-0.140003
-0.126478
-0.114408
-0.103668
-0.0941355
-0.0853824
-0.0769536
-0.457253
-0.444303
-0.428107
-0.405109
-0.375921
-0.343354
-0.310128
-0.278193
-0.248644
-0.221901
-0.197977
-0.176686
-0.157773
-0.140982
-0.126072
-0.112823
-0.101045
-0.0906336
-0.0813866
-0.0727503
-0.0649511
-0.446693
-0.434024
-0.417147
-0.392827
-0.362194
-0.328429
-0.294403
-0.26205
-0.232372
-0.205694
-0.181954
-0.16092
-0.142311
-0.125852
-0.111293
-0.0984061
-0.0870048
-0.0769682
-0.0680517
-0.059703
-0.0526181
-0.432999
-0.420683
-0.403185
-0.377672
-0.345813
-0.311122
-0.276576
-0.24406
-0.214474
-0.188046
-0.164649
-0.144009
-0.125828
-0.109806
-0.0956902
-0.0832485
-0.0722963
-0.0627017
-0.0541888
-0.0462327
-0.0398078
-0.416105
-0.40421
-0.386173
-0.359629
-0.326792
-0.291467
-0.256687
-0.224265
-0.194988
-0.168996
-0.146101
-0.125995
-0.108353
-0.0928743
-0.079295
-0.0673813
-0.0569499
-0.0478643
-0.0398221
-0.0323112
-0.0265215
-0.395989
-0.384582
-0.366108
-0.338723
-0.305181
-0.269526
-0.234801
-0.202722
-0.173967
-0.148598
-0.126357
-0.106915
-0.0899316
-0.0751
-0.0621492
-0.0508439
-0.0410039
-0.0324911
-0.024975
-0.0179471
-0.0128075
-0.372676
-0.361819
-0.343029
-0.315018
-0.281065
-0.245387
-0.210997
-0.179509
-0.151488
-0.126908
-0.105475
-0.0868288
-0.0706203
-0.0565365
-0.0443034
-0.0336845
-0.0245038
-0.0166219
-0.00967922
-0.00317137
0.00128963
-0.346235
-0.335987
-0.317021
-0.288623
-0.254561
-0.219154
-0.185371
-0.154717
-0.12763
-0.104011
-0.0835294
-0.0658063
-0.0504842
-0.0372466
-0.0258173
-0.0159604
-0.00750428
-0.000308028
0.00601694
0.01197
0.0157415
-0.316775
-0.307195
-0.288212
-0.259688
-0.225797
-0.19093
-0.158052
-0.128457
-0.102494
-0.0799971
-0.0606059
-0.0439273
-0.0295984
-0.0173013
-0.00675912
0.00226274
0.0099301
0.016386
0.0220487
0.0274203
0.0305243
-0.284443
-0.275596
-0.256777
-0.228363
-0.194856
-0.160914
-0.129179
-0.100856
-0.076194
-0.0549713
-0.0368011
-0.0212813
-0.00804681
0.00322044
0.0127966
0.0209129
0.0277284
0.0333899
0.0383484
0.043115
0.045546
-0.249408
-0.241393
-0.222899
-0.194712
-0.162052
-0.12927
-0.0989097
-0.0720538
-0.0488579
-0.0290491
-0.0122214
0.0020329
0.0140789
0.024233
0.0327694
0.0399141
0.0458205
0.0506457
0.054872
0.0589857
0.0605891
-0.211867
-0.204816
-0.186681
-0.159121
-0.127565
-0.0961823
-0.0674137
-0.0422047
-0.0206237
-0.00235639
0.0130178
0.0259087
0.0366795
0.0456437
0.0530717
0.0591842
0.0641365
0.0681071
0.0715875
0.0749506
0.0754977
-0.172038
-0.166127
-0.148448
-0.121844
-0.0916051
-0.061855
-0.0348734
-0.0114717
0.00836075
0.0249723
0.0387933
0.0502326
0.0596495
0.0673531
0.0736081
0.0786316
0.0825916
0.0856947
0.0883914
0.0908818
0.0905412
-0.13026
-0.125552
-0.10858
-0.083094
-0.0544081
-0.0265021
-0.00148108
0.0199726
0.0379393
0.052795
0.0649753
0.0748857
0.0828792
0.0892581
0.0942794
0.098158
0.101079
0.103264
0.105065
0.106595
0.10604
-0.087033
-0.0832851
-0.0673002
-0.0431419
-0.0162229
0.00965217
0.0325624
0.0519473
0.0679487
0.0809636
0.0914292
0.0997451
0.106256
0.111256
0.114991
0.117674
0.119501
0.120672
0.121402
0.121865
0.121107
-0.0424916
-0.0397561
-0.0249023
-0.00227055
0.0226905
0.046375
0.0670484
0.0842649
0.0982195
0.109325
0.118016
0.124685
0.129666
0.133243
0.135653
0.137104
0.137794
0.137871
0.13733
0.136244
0.135791
0.00303532
0.00468547
0.018294
0.0392254
0.0620645
0.0834267
0.101763
0.116733
0.128578
0.137721
0.144594
0.149576
0.152994
0.155117
0.156174
0.15637
0.15589
0.154827
0.153134
0.151092
0.150121
0.049186
0.049702
0.0619597
0.0810437
0.101627
0.120564
0.136487
0.149155
0.158847
0.165994
0.171017
0.174289
0.17612
0.176771
0.176461
0.175385
0.173706
0.171481
0.168686
0.165757
0.163969
0.0955985
0.0949483
0.105762
0.122879
0.141102
0.15754
0.171
0.181332
0.188848
0.193979
0.197141
0.19869
0.198928
0.198101
0.19642
0.194069
0.191192
0.187828
0.183992
0.180179
0.177473
0.14191
0.140074
0.149369
0.164425
0.180216
0.194108
0.205082
0.213066
0.218401
0.221516
0.222817
0.222648
0.221296
0.218998
0.215953
0.212333
0.208266
0.203784
0.19893
0.19422
0.190581
0.187757
0.184729
0.192448
0.20538
0.218696
0.230026
0.238512
0.244159
0.247327
0.248442
0.247899
0.246029
0.243106
0.239355
0.234963
0.230092
0.224857
0.219285
0.213437
0.207833
0.203256
0.232782
0.228566
0.234671
0.245443
0.256272
0.26505
0.271075
0.274416
0.275449
0.274598
0.272243
0.268702
0.264238
0.259062
0.253353
0.247259
0.240884
0.234252
0.227439
0.22095
0.21544
0.276631
0.271241
0.27572
0.284324
0.292684
0.298947
0.302557
0.303643
0.302594
0.299825
0.295705
0.290539
0.284576
0.278016
0.271026
0.263746
0.256268
0.248613
0.240867
0.233513
0.227084
0.318961
0.312425
0.315283
0.32174
0.327676
0.331488
0.332755
0.331657
0.328593
0.323972
0.318148
0.311413
0.304004
0.296111
0.287889
0.279467
0.270929
0.262295
0.253655
0.245461
0.238133
0.359441
0.351796
0.353061
0.35742
0.361004
0.362453
0.361468
0.358277
0.353284
0.34689
0.339437
0.331203
0.322413
0.313247
0.303849
0.29434
0.284793
0.275228
0.265739
0.256737
0.248539
0.397756
0.38905
0.388771
0.391106
0.392437
0.391633
0.388509
0.383333
0.376512
0.368439
0.359443
0.349792
0.339696
0.329327
0.31882
0.308283
0.297784
0.287345
0.277056
0.267284
0.258254
0.433607
0.423899
0.422145
0.422553
0.421755
0.418831
0.4137
0.406662
0.39813
0.388486
0.378047
0.367069
0.355754
0.34426
0.332716
0.321221
0.309835
0.298581
0.287548
0.27705
0.267234
0.466714
0.456073
0.452932
0.451537
0.448755
0.443863
0.436873
0.428115
0.418001
0.406905
0.395134
0.382932
0.370491
0.357961
0.345461
0.333082
0.32088
0.308877
0.297158
0.285986
0.275436
0.496821
0.485324
0.480903
0.477848
0.473249
0.46656
0.457876
0.447551
0.435998
0.423582
0.4106
0.397285
0.383821
0.370349
0.356981
0.343801
0.330858
0.318177
0.305837
0.294047
0.282825
0.523695
0.511429
0.50585
0.501298
0.495066
0.486768
0.476569
0.464845
0.452007
0.438412
0.424349
0.410041
0.395665
0.381354
0.367212
0.353316
0.339714
0.32643
0.313536
0.301193
0.289365
0.547127
0.534186
0.527586
0.521718
0.514056
0.504351
0.492829
0.479883
0.465924
0.451303
0.436296
0.421124
0.405952
0.390909
0.376094
0.361576
0.347399
0.333591
0.320216
0.307386
0.295026
0.566936
0.553423
0.545951
0.538962
0.530086
0.519189
0.506547
0.492568
0.477662
0.462171
0.446369
0.430465
0.414621
0.39896
0.383575
0.368532
0.35387
0.339621
0.325839
0.312596
0.299784
0.58297
0.568991
0.560809
0.552908
0.543045
0.531181
0.517633
0.502818
0.487144
0.47095
0.454503
0.438007
0.42162
0.405459
0.389614
0.374145
0.359091
0.344485
0.330374
0.316796
0.303616
0.595105
0.580772
0.57205
0.563455
0.552844
0.540248
0.526012
0.510564
0.494309
0.477584
0.460648
0.443704
0.426906
0.410367
0.394173
0.378383
0.363033
0.348157
0.333798
0.319965
0.306506
0.603247
0.588677
0.57959
0.570529
0.559415
0.546326
0.53163
0.515756
0.499112
0.482029
0.464766
0.447523
0.430448
0.413656
0.397228
0.381222
0.365674
0.350617
0.336091
0.322086
0.308439
0.607335
0.592645
0.583374
0.574079
0.562712
0.549376
0.534448
0.518361
0.501522
0.484259
0.466832
0.449438
0.432225
0.415305
0.39876
0.382646
0.366998
0.351851
0.337241
0.32315
0.309408
0.607335
0.592645
0.583375
0.574079
0.562712
0.549376
0.534448
0.518362
0.501522
0.48426
0.466833
0.449438
0.432225
0.415305
0.39876
0.382646
0.366998
0.351851
0.337241
0.32315
0.309408
0.603249
0.588678
0.579591
0.57053
0.559416
0.546327
0.531631
0.515757
0.499113
0.48203
0.464767
0.447523
0.430449
0.413656
0.397229
0.381223
0.365675
0.350618
0.336092
0.322087
0.30844
0.595107
0.580775
0.572052
0.563457
0.552846
0.540249
0.526014
0.510565
0.494311
0.477585
0.460649
0.443706
0.426907
0.410368
0.394174
0.378384
0.363034
0.348158
0.333799
0.319966
0.306506
0.582973
0.568994
0.560812
0.552911
0.543048
0.531184
0.517635
0.50282
0.487146
0.470952
0.454504
0.438008
0.421621
0.405461
0.389615
0.374146
0.359093
0.344486
0.330376
0.316797
0.303617
0.56694
0.553427
0.545955
0.538966
0.530089
0.519192
0.50655
0.492571
0.477664
0.462174
0.446371
0.430467
0.414623
0.398962
0.383577
0.368533
0.353872
0.339622
0.32584
0.312597
0.299785
0.547131
0.534191
0.527591
0.521722
0.51406
0.504354
0.492832
0.479886
0.465927
0.451305
0.436299
0.421126
0.405954
0.390912
0.376096
0.361578
0.347401
0.333593
0.320218
0.307388
0.295028
0.5237
0.511434
0.505855
0.501303
0.495071
0.486773
0.476573
0.464848
0.45201
0.438416
0.424352
0.410044
0.395667
0.381356
0.367214
0.353319
0.339716
0.326432
0.313538
0.301195
0.289367
0.496827
0.48533
0.480909
0.477854
0.473254
0.466565
0.45788
0.447555
0.436002
0.423586
0.410603
0.397288
0.383824
0.370352
0.356984
0.343803
0.33086
0.31818
0.305839
0.294049
0.282827
0.466721
0.45608
0.452939
0.451543
0.448761
0.443869
0.436878
0.42812
0.418006
0.406909
0.395138
0.382936
0.370494
0.357964
0.345464
0.333085
0.320883
0.30888
0.297161
0.285989
0.275439
0.433615
0.423907
0.422153
0.42256
0.421762
0.418837
0.413706
0.406668
0.398135
0.388491
0.378052
0.367073
0.355758
0.344264
0.33272
0.321224
0.309839
0.298584
0.287551
0.277053
0.267237
0.397765
0.389059
0.38878
0.391113
0.392444
0.39164
0.388516
0.383339
0.376518
0.368445
0.359448
0.349796
0.339701
0.329331
0.318824
0.308287
0.297788
0.287348
0.277059
0.267287
0.258257
0.359451
0.351806
0.35307
0.357429
0.361012
0.36246
0.361475
0.358284
0.353291
0.346896
0.339442
0.331208
0.322418
0.313251
0.303854
0.294344
0.284797
0.275232
0.265743
0.25674
0.248543
0.318971
0.312435
0.315292
0.32175
0.327684
0.331496
0.332762
0.331664
0.3286
0.323978
0.318154
0.311419
0.304009
0.296116
0.287894
0.279472
0.270934
0.262299
0.253659
0.245465
0.238137
0.276642
0.271252
0.27573
0.284334
0.292693
0.298956
0.302566
0.303651
0.302601
0.299832
0.295711
0.290545
0.284581
0.278021
0.271031
0.263751
0.256272
0.248618
0.240871
0.233517
0.227088
0.232794
0.228577
0.234682
0.245454
0.256282
0.26506
0.271083
0.274424
0.275456
0.274605
0.272249
0.268709
0.264244
0.259068
0.253358
0.247264
0.240889
0.234257
0.227443
0.220955
0.215445
0.18777
0.184742
0.19246
0.205391
0.218706
0.230035
0.238521
0.244168
0.247335
0.24845
0.247906
0.246036
0.243112
0.239361
0.234969
0.230098
0.224863
0.21929
0.213442
0.207837
0.20326
0.141923
0.140087
0.149382
0.164437
0.180228
0.194119
0.205091
0.213075
0.218409
0.221524
0.222824
0.222655
0.221303
0.219005
0.215959
0.212339
0.208272
0.20379
0.198935
0.194225
0.190586
0.0956125
0.0949621
0.105776
0.122892
0.141114
0.15755
0.17101
0.181342
0.188857
0.193988
0.197149
0.198698
0.198935
0.198108
0.196427
0.194075
0.191198
0.187834
0.183997
0.180184
0.177478
0.0492006
0.0497164
0.0619736
0.0810569
0.101639
0.120575
0.136497
0.149165
0.158857
0.166002
0.171026
0.174297
0.176128
0.176778
0.176468
0.175391
0.173712
0.171487
0.168691
0.165762
0.163974
0.00305061
0.00470055
0.0183085
0.0392391
0.0620774
0.0834387
0.101774
0.116743
0.128588
0.137731
0.144602
0.149585
0.153002
0.155124
0.156181
0.156377
0.155897
0.154834
0.153139
0.151098
0.150127
-0.0424757
-0.0397404
-0.0248872
-0.00225623
0.0227039
0.0463875
0.0670601
0.0842759
0.0982298
0.109335
0.118025
0.124694
0.129675
0.133251
0.13566
0.137111
0.137801
0.137878
0.137337
0.13625
0.135797
-0.0870165
-0.0832688
-0.0672845
-0.043127
-0.0162089
0.00966522
0.0325746
0.0519588
0.0679594
0.0809737
0.0914388
0.0997542
0.106265
0.111264
0.114998
0.117681
0.119508
0.120679
0.121408
0.121871
0.121113
-0.130242
-0.125536
-0.108564
-0.0830786
-0.0543937
-0.0264886
-0.00146842
0.0199845
0.0379505
0.0528055
0.0649852
0.0748951
0.0828881
0.0892666
0.0942875
0.0981657
0.101087
0.103271
0.105072
0.106601
0.106046
-0.17202
-0.166109
-0.148431
-0.121828
-0.0915901
-0.061841
-0.0348603
-0.0114594
0.0083723
0.0249832
0.0388036
0.0502424
0.0596588
0.0673619
0.0736165
0.0786397
0.0825993
0.085702
0.0883984
0.0908884
0.0905475
-0.211849
-0.204798
-0.186664
-0.159105
-0.127549
-0.0961679
-0.0674002
-0.0421921
-0.0206118
-0.00234512
0.0130285
0.0259188
0.0366891
0.0456529
0.0530804
0.0591926
0.0641445
0.0681148
0.0715947
0.0749575
0.0755043
-0.24939
-0.241375
-0.222881
-0.194695
-0.162036
-0.129255
-0.0988958
-0.0720408
-0.0488456
-0.0290375
-0.0122104
0.00204335
0.0140888
0.0242425
0.0327784
0.0399227
0.0458288
0.0506537
0.0548795
0.0589929
0.0605961
-0.284425
-0.275577
-0.256758
-0.228346
-0.19484
-0.160899
-0.129165
-0.100842
-0.0761813
-0.0549593
-0.0367897
-0.0212706
-0.00803654
0.00323023
0.012806
0.0209219
0.027737
0.0333981
0.0383563
0.0431225
0.0455533
-0.316756
-0.307176
-0.288193
-0.25967
-0.22578
-0.190914
-0.158037
-0.128443
-0.102481
-0.0799848
-0.0605942
-0.0439162
-0.0295878
-0.0172912
-0.00674945
0.00227201
0.00993899
0.0163945
0.0220569
0.0274282
0.0305319
-0.346215
-0.335968
-0.317002
-0.288605
-0.254544
-0.219138
-0.185356
-0.154703
-0.127617
-0.103998
-0.0835174
-0.0657949
-0.0504733
-0.0372362
-0.0258073
-0.0159508
-0.00749508
-0.000299178
0.00602546
0.0119782
0.0157494
-0.372657
-0.3618
-0.34301
-0.315
-0.281048
-0.245371
-0.210981
-0.179494
-0.151475
-0.126896
-0.105463
-0.086817
-0.0706091
-0.0565258
-0.0442931
-0.0336746
-0.0244943
-0.0166128
-0.00967039
-0.00316287
0.00129786
-0.39597
-0.384562
-0.366089
-0.338704
-0.305164
-0.26951
-0.234785
-0.202707
-0.173953
-0.148585
-0.126344
-0.106903
-0.0899201
-0.075089
-0.0621386
-0.0508337
-0.0409941
-0.0324816
-0.0249658
-0.0179383
-0.0127989
-0.416085
-0.40419
-0.386154
-0.35961
-0.326774
-0.291451
-0.256672
-0.22425
-0.194974
-0.168982
-0.146088
-0.125982
-0.108341
-0.092863
-0.0792841
-0.0673708
-0.0569398
-0.0478546
-0.0398127
-0.0323021
-0.0265126
-0.432979
-0.420663
-0.403166
-0.377653
-0.345795
-0.311105
-0.27656
-0.244045
-0.21446
-0.188033
-0.164636
-0.143997
-0.125816
-0.109795
-0.095679
-0.0832377
-0.0722859
-0.0626916
-0.0541791
-0.0462232
-0.0397986
-0.446673
-0.434004
-0.417128
-0.392808
-0.362176
-0.328412
-0.294386
-0.262034
-0.232357
-0.20568
-0.18194
-0.160907
-0.142299
-0.12584
-0.111282
-0.098395
-0.0869941
-0.0769578
-0.0680416
-0.0596932
-0.0526086
-0.457233
-0.444283
-0.428088
-0.40509
-0.375903
-0.343337
-0.310111
-0.278177
-0.248629
-0.221887
-0.197963
-0.176673
-0.157761
-0.14097
-0.12606
-0.112811
-0.101034
-0.0906229
-0.0813762
-0.0727402
-0.0649413
-0.464769
-0.451612
-0.436138
-0.414554
-0.386996
-0.355876
-0.323717
-0.292453
-0.263253
-0.236633
-0.212683
-0.191271
-0.172175
-0.155157
-0.139991
-0.126466
-0.114397
-0.103657
-0.0941247
-0.0853719
-0.0769435
-0.469434
-0.456147
-0.441413
-0.421298
-0.395512
-0.366053
-0.335209
-0.304857
-0.276222
-0.24991
-0.226092
-0.204693
-0.18553
-0.168388
-0.153056
-0.139337
-0.12705
-0.11606
-0.106258
-0.0973355
-0.0891978
-0.471415
-0.458078
-0.444086
-0.425459
-0.401541
-0.373922
-0.344617
-0.315407
-0.287547
-0.261725
-0.238193
-0.21694
-0.197824
-0.180659
-0.165249
-0.151414
-0.138983
-0.127824
-0.117836
-0.108791
-0.100705
-0.470933
-0.45763
-0.44437
-0.427211
-0.405212
-0.379567
-0.351991
-0.324134
-0.297251
-0.272097
-0.249002
-0.228023
-0.209066
-0.191973
-0.176572
-0.162695
-0.150187
-0.13892
-0.128794
-0.119594
-0.111318
-0.468236
-0.455054
-0.442503
-0.426764
-0.406685
-0.383101
-0.357409
-0.331092
-0.305374
-0.281056
-0.258546
-0.237966
-0.219273
-0.202346
-0.187035
-0.173188
-0.16066
-0.14933
-0.139098
-0.129751
-0.121241
-0.463592
-0.450619
-0.438748
-0.424354
-0.406154
-0.384665
-0.36097
-0.336351
-0.311967
-0.288647
-0.266861
-0.246799
-0.228473
-0.2118
-0.196656
-0.182905
-0.170415
-0.15907
-0.148774
-0.139331
-0.130635
-0.457282
-0.444607
-0.433385
-0.42024
-0.403838
-0.384429
-0.362795
-0.339997
-0.317096
-0.294921
-0.273991
-0.254563
-0.236702
-0.220366
-0.205461
-0.191872
-0.179478
-0.16817
-0.157863
-0.148384
-0.139566
-0.449593
-0.437302
-0.4267
-0.414697
-0.399976
-0.382585
-0.363028
-0.342135
-0.32084
-0.29994
-0.279992
-0.261304
-0.244
-0.228082
-0.213487
-0.200121
-0.18788
-0.176664
-0.166395
-0.156932
-0.148058
-0.440807
-0.428985
-0.418976
-0.408003
-0.394824
-0.379345
-0.361832
-0.342885
-0.323286
-0.303776
-0.284921
-0.267076
-0.250417
-0.234992
-0.220772
-0.207688
-0.195654
-0.184581
-0.174398
-0.164995
-0.156124
-0.431201
-0.419925
-0.410489
-0.400436
-0.388645
-0.374936
-0.359387
-0.342382
-0.324535
-0.306505
-0.288842
-0.271935
-0.256003
-0.241142
-0.227359
-0.214612
-0.202836
-0.191953
-0.181899
-0.172597
-0.163781
-0.421033
-0.410374
-0.401495
-0.392262
-0.381699
-0.369595
-0.355888
-0.340775
-0.3247
-0.308211
-0.291825
-0.275939
-0.260812
-0.246582
-0.233294
-0.220935
-0.209461
-0.198811
-0.188928
-0.179762
-0.171051
-0.410543
-0.400559
-0.39223
-0.383727
-0.374237
-0.363557
-0.351539
-0.338226
-0.3239
-0.308986
-0.293939
-0.279148
-0.264898
-0.251362
-0.238622
-0.226698
-0.21557
-0.205192
-0.195517
-0.186517
-0.177952
-0.399944
-0.390681
-0.382898
-0.375053
-0.366492
-0.357054
-0.346548
-0.334907
-0.322267
-0.308927
-0.295259
-0.281624
-0.268314
-0.255531
-0.243392
-0.231947
-0.221201
-0.211131
-0.201696
-0.19289
-0.184507
-0.389423
-0.380914
-0.373677
-0.366428
-0.358671
-0.350299
-0.341119
-0.330993
-0.319941
-0.308138
-0.295863
-0.283427
-0.271112
-0.259137
-0.247646
-0.236722
-0.226395
-0.216663
-0.207499
-0.198908
-0.190736
-0.379135
-0.371399
-0.364708
-0.358012
-0.350953
-0.343487
-0.335446
-0.32666
-0.317066
-0.30673
-0.295833
-0.284619
-0.273342
-0.262224
-0.251428
-0.241064
-0.231189
-0.221825
-0.212958
-0.204602
-0.196664
-0.369206
-0.362248
-0.356103
-0.349926
-0.343481
-0.336782
-0.329705
-0.322079
-0.31379
-0.30482
-0.295254
-0.285262
-0.275052
-0.264832
-0.254775
-0.245011
-0.235621
-0.22665
-0.218105
-0.21
-0.202314
-0.359737
-0.353546
-0.347945
-0.342263
-0.336365
-0.330319
-0.324049
-0.317408
-0.31026
-0.302527
-0.294217
-0.285421
-0.276289
-0.266999
-0.25772
-0.248593
-0.239721
-0.23117
-0.22297
-0.215131
-0.207712
-0.350799
-0.345353
-0.340288
-0.335083
-0.329682
-0.324198
-0.318603
-0.312785
-0.306612
-0.299975
-0.292819
-0.285164
-0.277099
-0.268758
-0.26029
-0.251837
-0.243516
-0.235412
-0.22758
-0.220023
-0.212881
-0.342439
-0.337705
-0.333163
-0.328419
-0.32348
-0.318489
-0.313461
-0.308326
-0.302972
-0.29728
-0.291157
-0.284566
-0.277533
-0.270141
-0.262507
-0.254761
-0.247025
-0.239398
-0.231959
-0.224701
-0.217847
-0.334687
-0.330622
-0.326584
-0.322286
-0.317781
-0.313231
-0.308688
-0.304121
-0.299446
-0.294553
-0.289332
-0.283705
-0.277645
-0.271181
-0.264389
-0.257376
-0.250258
-0.24314
-0.236124
-0.229189
-0.222631
-0.327552
-0.324106
-0.320548
-0.31668
-0.312587
-0.308441
-0.304321
-0.30023
-0.296117
-0.291889
-0.287437
-0.282661
-0.277493
-0.271913
-0.265954
-0.259688
-0.253216
-0.246639
-0.240079
-0.233501
-0.227262
-0.321031
-0.318149
-0.315042
-0.311584
-0.307883
-0.304115
-0.300374
-0.296691
-0.293044
-0.289366
-0.285558
-0.281513
-0.27714
-0.27238
-0.26722
-0.261698
-0.25589
-0.249883
-0.243819
-0.237645
-0.23176
-0.315108
-0.312731
-0.310042
-0.306973
-0.303647
-0.300235
-0.296841
-0.293518
-0.290266
-0.287043
-0.283768
-0.280339
-0.276655
-0.272629
-0.268214
-0.263409
-0.258264
-0.252848
-0.247316
-0.241605
-0.236173
-0.30976
-0.307827
-0.30552
-0.302817
-0.299848
-0.296774
-0.293706
-0.290707
-0.287799
-0.284957
-0.282122
-0.279204
-0.276101
-0.272714
-0.268969
-0.264829
-0.26032
-0.255493
-0.250517
-0.245339
-0.240483
-0.304951
-0.303404
-0.301443
-0.299081
-0.296449
-0.293699
-0.29094
-0.288243
-0.28564
-0.283127
-0.280658
-0.278162
-0.275541
-0.272692
-0.269525
-0.265977
-0.262045
-0.257766
-0.25334
-0.248728
-0.244754
-0.300644