/*--------------------------------*- C++ -*----------------------------------*\
  =========                 |
  \\      /  F ield         | OpenFOAM: The Open Source CFD Toolbox
   \\    /   O peration     | Website:  https://openfoam.org
    \\  /    A nd           | Version:  7
     \\/     M anipulation  |
\*---------------------------------------------------------------------------*/
FoamFile
{
    version     2.0;
    format      ascii;
    class       volScalarField;
    location    "35";
    object      p;
}
// * * * * * * * * * * * * * * * * * * * * * * * * * * * * * * * * * * * * * //

dimensions      [0 2 -2 0 0 0 0];

internalField   nonuniform List<scalar> 
8820
(
-0.261896
-0.263343
-0.264241
-0.264906
-0.265468
-0.265947
-0.266362
-0.26673
-0.267055
-0.267335
-0.267563
-0.267731
-0.267831
-0.267858
-0.26781
-0.267693
-0.267522
-0.267328
-0.267099
-0.266753
-0.266788
-0.262017
-0.263447
-0.264334
-0.264989
-0.265543
-0.266012
-0.266418
-0.266776
-0.26709
-0.267358
-0.267573
-0.267727
-0.267811
-0.267818
-0.267747
-0.267602
-0.267398
-0.267167
-0.266898
-0.266506
-0.2665
-0.26234
-0.263736
-0.2646
-0.265238
-0.265774
-0.266226
-0.266616
-0.266958
-0.267255
-0.267506
-0.267702
-0.267834
-0.267893
-0.267871
-0.267764
-0.267573
-0.267314
-0.267019
-0.266679
-0.266206
-0.266128
-0.262857
-0.264203
-0.265035
-0.265646
-0.266157
-0.266586
-0.266952
-0.267271
-0.267546
-0.267774
-0.267945
-0.268051
-0.268078
-0.268017
-0.267861
-0.267608
-0.267272
-0.266886
-0.266444
-0.265851
-0.265662
-0.263561
-0.264841
-0.265631
-0.266207
-0.266685
-0.267083
-0.26742
-0.267711
-0.267958
-0.268157
-0.268299
-0.268372
-0.268361
-0.268254
-0.268039
-0.26771
-0.267276
-0.26677
-0.266193
-0.26544
-0.265089
-0.264438
-0.26564
-0.266378
-0.266911
-0.26735
-0.267709
-0.268011
-0.268267
-0.26848
-0.268647
-0.268756
-0.268793
-0.26874
-0.268581
-0.268299
-0.267881
-0.26733
-0.266678
-0.26593
-0.264975
-0.264393
-0.265477
-0.266587
-0.267265
-0.267748
-0.268139
-0.268453
-0.268712
-0.268928
-0.269104
-0.269234
-0.269306
-0.269305
-0.269208
-0.268994
-0.26864
-0.268126
-0.267442
-0.266616
-0.265665
-0.264466
-0.263545
-0.26666
-0.26767
-0.268279
-0.268705
-0.26904
-0.269303
-0.269512
-0.269682
-0.269815
-0.269904
-0.269938
-0.269896
-0.269755
-0.269487
-0.269061
-0.268446
-0.26762
-0.266596
-0.265407
-0.263922
-0.262426
-0.267972
-0.268873
-0.269407
-0.269768
-0.27004
-0.270243
-0.270396
-0.270513
-0.270597
-0.270641
-0.270633
-0.270551
-0.270367
-0.270048
-0.269554
-0.268841
-0.26787
-0.266634
-0.265177
-0.263351
-0.260879
-0.269396
-0.270185
-0.270638
-0.270926
-0.271127
-0.271261
-0.271348
-0.271404
-0.271432
-0.271426
-0.271373
-0.271249
-0.271024
-0.270658
-0.270102
-0.269301
-0.268194
-0.266751
-0.264993
-0.262779
-0.259998
-0.270919
-0.271592
-0.271958
-0.272166
-0.272287
-0.272342
-0.272353
-0.272338
-0.272301
-0.272238
-0.272133
-0.271965
-0.271698
-0.271289
-0.27068
-0.269801
-0.268571
-0.266931
-0.264854
-0.262095
-0.258829
-0.272528
-0.273085
-0.27336
-0.27348
-0.273509
-0.273473
-0.273397
-0.273299
-0.273185
-0.273053
-0.27289
-0.27267
-0.272359
-0.271906
-0.271248
-0.270301
-0.268963
-0.267141
-0.264761
-0.26147
-0.257353
-0.274214
-0.274658
-0.274836
-0.274859
-0.274786
-0.274645
-0.274467
-0.27427
-0.274066
-0.273853
-0.273618
-0.273337
-0.272972
-0.27247
-0.271762
-0.270751
-0.269316
-0.267323
-0.264661
-0.260891
-0.2556
-0.275975
-0.276308
-0.276385
-0.2763
-0.276111
-0.275852
-0.275554
-0.275243
-0.274931
-0.274619
-0.274296
-0.273938
-0.273506
-0.272944
-0.272175
-0.271094
-0.269561
-0.267405
-0.26447
-0.260321
-0.253577
-0.277813
-0.278039
-0.27801
-0.277806
-0.277486
-0.27709
-0.276655
-0.27621
-0.275771
-0.275342
-0.274913
-0.274459
-0.273941
-0.273299
-0.272451
-0.271283
-0.269639
-0.267314
-0.264096
-0.25972
-0.251329
-0.27974
-0.279861
-0.279717
-0.279381
-0.278915
-0.278365
-0.277773
-0.277174
-0.276588
-0.276021
-0.275464
-0.274894
-0.274268
-0.273524
-0.272573
-0.271292
-0.269515
-0.26701
-0.263479
-0.259048
-0.248987
-0.281772
-0.281789
-0.281522
-0.281039
-0.28041
-0.279685
-0.278917
-0.278144
-0.27739
-0.276665
-0.27596
-0.275252
-0.274497
-0.273627
-0.272548
-0.271126
-0.269189
-0.266493
-0.262623
-0.258277
-0.246788
-0.283938
-0.283845
-0.283442
-0.282799
-0.281987
-0.28107
-0.280105
-0.279138
-0.278198
-0.277295
-0.276424
-0.275559
-0.274653
-0.273636
-0.272404
-0.270817
-0.268694
-0.265794
-0.261595
-0.257359
-0.244979
-0.286271
-0.286058
-0.285506
-0.284683
-0.28367
-0.28254
-0.281361
-0.280183
-0.279039
-0.277942
-0.276888
-0.275849
-0.274775
-0.27359
-0.272186
-0.270416
-0.268096
-0.264984
-0.260535
-0.256192
-0.243577
-0.288811
-0.288463
-0.287743
-0.286721
-0.285487
-0.284127
-0.282716
-0.281311
-0.279949
-0.278645
-0.277393
-0.276165
-0.274905
-0.273533
-0.271938
-0.269975
-0.267472
-0.264184
-0.259716
-0.254878
-0.24266
-0.291608
-0.291098
-0.290189
-0.288946
-0.287472
-0.285864
-0.284207
-0.282561
-0.280969
-0.279445
-0.277983
-0.276549
-0.275084
-0.273502
-0.271693
-0.269522
-0.266853
-0.263478
-0.259369
-0.254159
-0.244607
-0.294708
-0.294006
-0.292882
-0.291396
-0.289662
-0.28779
-0.285871
-0.283974
-0.282141
-0.280386
-0.278699
-0.27704
-0.275343
-0.273519
-0.271459
-0.269044
-0.26618
-0.262739
-0.259039
-0.254514
-0.254056
-0.298164
-0.297231
-0.295862
-0.29411
-0.292095
-0.289943
-0.287752
-0.285593
-0.283508
-0.281509
-0.279578
-0.277666
-0.275701
-0.273586
-0.271218
-0.268496
-0.265365
-0.261794
-0.258087
-0.254202
-0.25278
-0.302029
-0.300818
-0.299171
-0.297127
-0.294812
-0.292365
-0.289889
-0.287458
-0.285109
-0.282848
-0.280646
-0.278443
-0.276156
-0.273685
-0.270932
-0.267817
-0.264315
-0.260443
-0.256457
-0.252351
-0.24949
-0.30635
-0.304808
-0.30285
-0.300488
-0.297853
-0.295096
-0.292324
-0.289608
-0.286978
-0.284428
-0.281916
-0.279368
-0.276689
-0.27378
-0.270552
-0.266947
-0.262965
-0.258646
-0.254196
-0.24958
-0.245615
-0.311173
-0.309243
-0.306936
-0.304232
-0.301258
-0.298175
-0.295094
-0.292076
-0.28914
-0.286264
-0.283387
-0.280421
-0.277265
-0.273823
-0.270023
-0.265835
-0.261283
-0.256425
-0.25143
-0.246252
-0.241402
-0.316537
-0.314161
-0.311469
-0.308396
-0.305064
-0.301641
-0.298234
-0.29489
-0.291612
-0.288355
-0.28504
-0.281567
-0.277833
-0.273758
-0.269296
-0.264448
-0.259268
-0.253827
-0.24828
-0.242569
-0.237143
-0.322477
-0.319592
-0.316481
-0.313016
-0.309307
-0.305527
-0.301771
-0.298067
-0.294394
-0.290683
-0.286838
-0.282751
-0.278333
-0.273528
-0.268327
-0.262767
-0.25693
-0.250903
-0.244827
-0.238653
-0.232773
-0.329016
-0.325566
-0.322
-0.318123
-0.314019
-0.30986
-0.305724
-0.301611
-0.297471
-0.293212
-0.288724
-0.283908
-0.278699
-0.273079
-0.267083
-0.260785
-0.254288
-0.247694
-0.241125
-0.234547
-0.22831
-0.336171
-0.332099
-0.328052
-0.323743
-0.319224
-0.314659
-0.310098
-0.305508
-0.300807
-0.295882
-0.290626
-0.284962
-0.278864
-0.272363
-0.265538
-0.258498
-0.251358
-0.244225
-0.237201
-0.230267
-0.22371
-0.343947
-0.339202
-0.334648
-0.329891
-0.324936
-0.319928
-0.31488
-0.309722
-0.304341
-0.298617
-0.29246
-0.285833
-0.278764
-0.271338
-0.263674
-0.255904
-0.248149
-0.24051
-0.233064
-0.225806
-0.218952
-0.352332
-0.346873
-0.341793
-0.336572
-0.331154
-0.325651
-0.320033
-0.31419
-0.307989
-0.301319
-0.294129
-0.286439
-0.278341
-0.269968
-0.261473
-0.252998
-0.24466
-0.236545
-0.228707
-0.221149
-0.214008
-0.361299
-0.355091
-0.349474
-0.343773
-0.337855
-0.331788
-0.325493
-0.318825
-0.311646
-0.30388
-0.295535
-0.286703
-0.277539
-0.26822
-0.258916
-0.249769
-0.240881
-0.23232
-0.224114
-0.216275
-0.208857
-0.370801
-0.363822
-0.357658
-0.351461
-0.344992
-0.33827
-0.331165
-0.323509
-0.315187
-0.30618
-0.296578
-0.286551
-0.276309
-0.266061
-0.255981
-0.246197
-0.236793
-0.227813
-0.219263
-0.211158
-0.203473
-0.380764
-0.373005
-0.366292
-0.359573
-0.352489
-0.344995
-0.336923
-0.328103
-0.318472
-0.308098
-0.297163
-0.285913
-0.274605
-0.263458
-0.25264
-0.242259
-0.232371
-0.222998
-0.214127
-0.205771
-0.197832
-0.39109
-0.382555
-0.375293
-0.368019
-0.360234
-0.35183
-0.342614
-0.332449
-0.321356
-0.309512
-0.297197
-0.284724
-0.272377
-0.260374
-0.248862
-0.237921
-0.227581
-0.217842
-0.208674
-0.200084
-0.191912
-0.401652
-0.392359
-0.384549
-0.376675
-0.368082
-0.358608
-0.348061
-0.336376
-0.32369
-0.310304
-0.296594
-0.282921
-0.269579
-0.256768
-0.244608
-0.233146
-0.222389
-0.212311
-0.202874
-0.194068
-0.185687
-0.412293
-0.402275
-0.393917
-0.385383
-0.375856
-0.365134
-0.353069
-0.339705
-0.325327
-0.310364
-0.295272
-0.280442
-0.266159
-0.252596
-0.239835
-0.227895
-0.216755
-0.20637
-0.196693
-0.187695
-0.179133
-0.422826
-0.41213
-0.40322
-0.393952
-0.383346
-0.371193
-0.357432
-0.342261
-0.326129
-0.309587
-0.293153
-0.277226
-0.262066
-0.247808
-0.234498
-0.222123
-0.210639
-0.199983
-0.190099
-0.180936
-0.172229
-0.433037
-0.421722
-0.412251
-0.402159
-0.390319
-0.376553
-0.360941
-0.343871
-0.325962
-0.307874
-0.290162
-0.273211
-0.257245
-0.242356
-0.228551
-0.215789
-0.204002
-0.193114
-0.18306
-0.173762
-0.164953
-0.442684
-0.430821
-0.420774
-0.409757
-0.396522
-0.380977
-0.363392
-0.344373
-0.324705
-0.305134
-0.286227
-0.268338
-0.251643
-0.236189
-0.221947
-0.208848
-0.196805
-0.185727
-0.175545
-0.166148
-0.157285
-0.451509
-0.439174
-0.428531
-0.416478
-0.401693
-0.384226
-0.364589
-0.343617
-0.322247
-0.301283
-0.281279
-0.262546
-0.245205
-0.229258
-0.21464
-0.201258
-0.189009
-0.17779
-0.167523
-0.158068
-0.149204
-0.459233
-0.446511
-0.435246
-0.422044
-0.405568
-0.386074
-0.36435
-0.341466
-0.318486
-0.296242
-0.275255
-0.255779
-0.237879
-0.221514
-0.206587
-0.192982
-0.18058
-0.16927
-0.158967
-0.149498
-0.140694
-0.465571
-0.45255
-0.440631
-0.426173
-0.40789
-0.386305
-0.362512
-0.337799
-0.313332
-0.28994
-0.268094
-0.247983
-0.229618
-0.212914
-0.197747
-0.183981
-0.171484
-0.160138
-0.149849
-0.140419
-0.13174
-0.470235
-0.457005
-0.444401
-0.428591
-0.408418
-0.384728
-0.35893
-0.332513
-0.306707
-0.282315
-0.259743
-0.239112
-0.220379
-0.203421
-0.188087
-0.174225
-0.16169
-0.150361
-0.140137
-0.130805
-0.122317
-0.472944
-0.459592
-0.446275
-0.429036
-0.406932
-0.381172
-0.353482
-0.32552
-0.298546
-0.273314
-0.250156
-0.229124
-0.210126
-0.193001
-0.177577
-0.163686
-0.151172
-0.139906
-0.12979
-0.120608
-0.112358
-0.473427
-0.460042
-0.445988
-0.427271
-0.403239
-0.375496
-0.346069
-0.316749
-0.288795
-0.262894
-0.239296
-0.217989
-0.198832
-0.181633
-0.166201
-0.152351
-0.139915
-0.128758
-0.11878
-0.109754
-0.101698
-0.471436
-0.458101
-0.4433
-0.423086
-0.397176
-0.367585
-0.336614
-0.306148
-0.277416
-0.251022
-0.227137
-0.205684
-0.186478
-0.169303
-0.153948
-0.140215
-0.127924
-0.116936
-0.107147
-0.0982441
-0.090129
-0.466749
-0.453544
-0.437998
-0.416306
-0.388616
-0.357355
-0.325065
-0.293684
-0.264384
-0.237681
-0.213663
-0.192196
-0.173056
-0.156005
-0.140816
-0.127278
-0.115204
-0.10447
-0.0949535
-0.0862285
-0.0778093
-0.459176
-0.44618
-0.429907
-0.406794
-0.377466
-0.344754
-0.311392
-0.279339
-0.24969
-0.222864
-0.198871
-0.177525
-0.158568
-0.141744
-0.126811
-0.113548
-0.101766
-0.0913664
-0.0821357
-0.0735219
-0.0657485
-0.448567
-0.435852
-0.418894
-0.394451
-0.363671
-0.329756
-0.295592
-0.263119
-0.233341
-0.206578
-0.182769
-0.161679
-0.143026
-0.126533
-0.111952
-0.0990517
-0.0876476
-0.0776209
-0.0687223
-0.0603954
-0.0533464
-0.43481
-0.422448
-0.404865
-0.379222
-0.34721
-0.312367
-0.277681
-0.245045
-0.215358
-0.188846
-0.165379
-0.144682
-0.126457
-0.110401
-0.0962622
-0.0838074
-0.0728529
-0.0632674
-0.0547728
-0.0468394
-0.040456
-0.417839
-0.405899
-0.387773
-0.361094
-0.3281
-0.292621
-0.257701
-0.225158
-0.19578
-0.169703
-0.146739
-0.126576
-0.108889
-0.0933767
-0.079774
-0.067847
-0.0574131
-0.0483363
-0.0403121
-0.0328242
-0.027079
-0.397633
-0.386182
-0.367615
-0.340091
-0.30639
-0.270579
-0.235714
-0.203516
-0.174661
-0.149207
-0.126897
-0.107398
-0.0903701
-0.0755042
-0.0625295
-0.0512104
-0.0413671
-0.0328624
-0.0253634
-0.0183575
-0.0132641
-0.374216
-0.363318
-0.344432
-0.316278
-0.282165
-0.246332
-0.211804
-0.180198
-0.152078
-0.127415
-0.105912
-0.0872099
-0.0709562
-0.0568377
-0.0445799
-0.0339463
-0.0247612
-0.0168861
-0.00995875
-0.00347069
0.000943807
-0.34766
-0.337372
-0.318308
-0.289767
-0.255545
-0.219984
-0.186065
-0.155295
-0.128111
-0.10441
-0.0838601
-0.066081
-0.0507136
-0.0374408
-0.025986
-0.0161128
-0.00765063
-0.000459114
0.00585323
0.0117901
0.0155161
-0.318074
-0.308455
-0.289374
-0.260707
-0.226657
-0.191637
-0.158627
-0.12892
-0.102861
-0.0802848
-0.0608266
-0.0440924
-0.0297183
-0.0173854
-0.00681652
0.00222324
0.00989898
0.0163529
0.0220069
0.0273675
0.0304285
-0.285607
-0.276723
-0.257806
-0.22925
-0.195584
-0.161496
-0.129633
-0.1012
-0.0764456
-0.0551451
-0.0369093
-0.0213348
-0.00805512
0.00324843
0.0128526
0.0209889
0.0278156
0.0334786
0.0384333
0.0431956
0.0455881
-0.250427
-0.242379
-0.223788
-0.195456
-0.162645
-0.129721
-0.0992377
-0.0722765
-0.0489915
-0.0291074
-0.0122158
0.0020922
0.014183
0.0243741
0.0329399
0.0401069
0.0460277
0.0508588
0.0550875
0.0592052
0.0607763
-0.212734
-0.205654
-0.187421
-0.159723
-0.12802
-0.0965013
-0.0676142
-0.0423046
-0.0206382
-0.00229843
0.0131375
0.0260808
0.036896
0.0458975
0.0533565
0.0594939
0.0644643
0.0684462
0.0719371
0.0753146
0.0758347
-0.172748
-0.166811
-0.149036
-0.122299
-0.0919192
-0.0620394
-0.0349454
-0.011448
0.00846548
0.0251462
0.0390263
0.0505165
0.059977
0.0677182
0.0740055
0.0790566
0.0830389
0.0861604
0.0888783
0.0913943
0.091031
-0.130811
-0.126077
-0.109014
-0.0833999
-0.05458
-0.0265514
-0.00142437
0.0201193
0.0381625
0.0530835
0.0653201
0.0752792
0.0833153
0.0897317
0.0947863
0.0986947
0.101643
0.103854
0.105688
0.107253
0.106683
-0.087421
-0.0836496
-0.0675778
-0.0432975
-0.0162523
0.00973772
0.0327469
0.0522158
0.0682886
0.0813647
0.0918833
0.100245
0.106798
0.111834
0.115602
0.118317
0.120175
0.12138
0.122149
0.12265
0.121897
-0.0427151
-0.039959
-0.0250228
-0.00227616
0.0228029
0.0465941
0.0673591
0.0846532
0.0986737
0.109836
0.118576
0.125288
0.130309
0.133921
0.136364
0.137847
0.138571
0.138685
0.138182
0.137123
0.136721
0.00297608
0.00464408
0.0183299
0.0393685
0.0623169
0.0837773
0.102197
0.117238
0.129143
0.138339
0.145256
0.150279
0.153732
0.155889
0.156979
0.157207
0.156761
0.155736
0.154078
0.152066
0.151161
0.0492897
0.0498208
0.0621502
0.0813334
0.102017
0.121043
0.137042
0.149774
0.15952
0.166713
0.171777
0.175085
0.17695
0.177633
0.177353
0.176308
0.174662
0.172474
0.169714
0.166816
0.165096
0.0958628
0.0952249
0.106105
0.123312
0.141626
0.158144
0.171672
0.182061
0.189624
0.194797
0.197994
0.199576
0.199843
0.199046
0.197393
0.195071
0.192226
0.188897
0.185095
0.181314
0.178673
0.142331
0.140505
0.14986
0.164998
0.18087
0.194833
0.205866
0.2139
0.219276
0.222427
0.223758
0.223618
0.222292
0.22002
0.217
0.213407
0.20937
0.204921
0.200099
0.195421
0.191844
0.188332
0.18531
0.193082
0.206087
0.219475
0.230867
0.239405
0.245094
0.248296
0.249441
0.248924
0.247078
0.244177
0.240448
0.236079
0.231233
0.226026
0.220484
0.214665
0.209091
0.204573
0.233504
0.229292
0.235444
0.246281
0.257172
0.266003
0.27207
0.275446
0.276507
0.27568
0.273346
0.269825
0.265379
0.260222
0.254532
0.24846
0.24211
0.235506
0.228719
0.222259
0.216806
0.277495
0.272107
0.276626
0.285286
0.293698
0.300006
0.303651
0.304764
0.303737
0.300986
0.296882
0.291731
0.285782
0.279237
0.272264
0.265002
0.257546
0.249916
0.242194
0.234866
0.228491
0.319961
0.313424
0.316315
0.32282
0.328799
0.332647
0.333941
0.332863
0.329815
0.325206
0.319393
0.312669
0.30527
0.297388
0.289179
0.280773
0.272254
0.263642
0.255023
0.246854
0.239578
0.36057
0.352921
0.354214
0.358612
0.36223
0.363706
0.362741
0.359563
0.35458
0.348193
0.340745
0.332517
0.323734
0.314575
0.305188
0.295691
0.28616
0.276615
0.267144
0.258164
0.250017
0.399007
0.390294
0.390037
0.392402
0.39376
0.392975
0.389863
0.384693
0.377876
0.369805
0.36081
0.35116
0.341067
0.330702
0.320201
0.309675
0.29919
0.288767
0.278494
0.268743
0.259762
0.434971
0.425254
0.423517
0.423948
0.423168
0.420255
0.415129
0.408092
0.399557
0.38991
0.379467
0.368486
0.35717
0.345678
0.334137
0.322649
0.311275
0.300035
0.289015
0.278536
0.268768
0.468185
0.457532
0.454402
0.453023
0.450251
0.445363
0.438371
0.429607
0.419486
0.408382
0.396603
0.384394
0.371948
0.359416
0.346917
0.334543
0.32235
0.310359
0.298651
0.287497
0.276993
0.49839
0.486879
0.482464
0.479417
0.474821
0.46813
0.459437
0.449101
0.437536
0.425107
0.412112
0.398787
0.385315
0.371839
0.358469
0.345291
0.332354
0.319683
0.307353
0.295579
0.284402
0.525353
0.513071
0.507492
0.502943
0.496708
0.488401
0.478188
0.466447
0.453592
0.43998
0.425901
0.411579
0.397192
0.382873
0.368727
0.354832
0.341234
0.327958
0.315072
0.302744
0.29096
0.548865
0.535906
0.529303
0.523431
0.51576
0.50604
0.494498
0.481532
0.467551
0.452908
0.437883
0.422693
0.407508
0.392455
0.377633
0.363113
0.348939
0.335138
0.321769
0.308953
0.296638
0.568746
0.555212
0.547733
0.540736
0.531844
0.520927
0.508261
0.494257
0.479325
0.46381
0.447985
0.432061
0.416201
0.400528
0.385135
0.370087
0.355427
0.341183
0.327406
0.314177
0.301409
0.584842
0.57084
0.562647
0.554733
0.544851
0.532962
0.519385
0.504541
0.488838
0.472617
0.456144
0.439626
0.42322
0.407045
0.39119
0.375716
0.360663
0.34606
0.331954
0.318388
0.305253
0.597029
0.582672
0.573935
0.565324
0.554689
0.542064
0.527796
0.512315
0.496029
0.479272
0.462309
0.445341
0.428522
0.411968
0.395762
0.379966
0.364616
0.349742
0.335387
0.321566
0.308151
0.605213
0.590617
0.581513
0.572432
0.561291
0.54817
0.533439
0.51753
0.500851
0.483736
0.466443
0.449173
0.432076
0.415267
0.398827
0.382813
0.367264
0.352209
0.337687
0.323695
0.310092
0.609331
0.594614
0.585325
0.576007
0.56461
0.55124
0.536275
0.520151
0.503274
0.485977
0.468519
0.451097
0.43386
0.416922
0.400364
0.384242
0.368592
0.353447
0.338841
0.324763
0.311067
0.609352
0.594633
0.585343
0.576023
0.564625
0.551253
0.536286
0.52016
0.503282
0.485984
0.468524
0.451101
0.433864
0.416925
0.400366
0.384244
0.368594
0.353448
0.338842
0.324765
0.31107
0.605274
0.590674
0.581566
0.57248
0.561334
0.548208
0.533471
0.517557
0.500874
0.483754
0.466458
0.449185
0.432086
0.415274
0.398832
0.382818
0.367268
0.352214
0.337692
0.323701
0.310103
0.597129
0.582766
0.574022
0.565403
0.554759
0.542125
0.527849
0.51236
0.496066
0.479303
0.462334
0.445361
0.428538
0.41198
0.395772
0.379973
0.364622
0.349749
0.335395
0.321576
0.308168
0.584979
0.570968
0.562766
0.554841
0.544946
0.533045
0.519457
0.504601
0.488888
0.472658
0.456177
0.439652
0.42324
0.40706
0.391201
0.375725
0.360671
0.346069
0.331964
0.318402
0.305275
0.568916
0.555371
0.547881
0.540869
0.531963
0.52103
0.50835
0.494332
0.479387
0.46386
0.448025
0.432092
0.416225
0.400546
0.385148
0.370098
0.355437
0.341193
0.327418
0.314193
0.301437
0.549064
0.536092
0.529475
0.523587
0.515898
0.50616
0.494601
0.481618
0.467622
0.452966
0.437928
0.422728
0.407533
0.392473
0.377646
0.363123
0.348948
0.335147
0.321781
0.30897
0.29667
0.525575
0.513277
0.507684
0.503117
0.496862
0.488534
0.478301
0.466541
0.453669
0.440042
0.425948
0.411615
0.397217
0.38289
0.368739
0.35484
0.341241
0.327966
0.315083
0.302761
0.290996
0.498629
0.487101
0.48267
0.479604
0.474986
0.468272
0.459557
0.449201
0.437616
0.42517
0.41216
0.398821
0.385338
0.371852
0.358476
0.345294
0.332357
0.319688
0.30736
0.295595
0.284439
0.468434
0.457762
0.454616
0.453216
0.450422
0.44551
0.438494
0.429708
0.419566
0.408443
0.396647
0.384424
0.371965
0.359424
0.346918
0.33454
0.322346
0.310357
0.298654
0.287508
0.27703
0.435222
0.425486
0.423732
0.424142
0.423339
0.4204
0.415249
0.408188
0.399632
0.389964
0.379504
0.368508
0.357178
0.345675
0.334128
0.322636
0.311261
0.300024
0.289009
0.278541
0.2688
0.399252
0.390518
0.390245
0.39259
0.393924
0.393113
0.389975
0.384781
0.377941
0.369849
0.360835
0.351169
0.341062
0.330686
0.320178
0.309648
0.299163
0.288743
0.278477
0.268737
0.259788
0.3608
0.353129
0.354407
0.358785
0.36238
0.36383
0.362839
0.359637
0.35463
0.348221
0.340754
0.332509
0.323712
0.314542
0.305147
0.295646
0.286115
0.276575
0.267111
0.258144
0.250033
0.320165
0.313606
0.316484
0.322971
0.328928
0.332751
0.334018
0.332916
0.329844
0.325213
0.319381
0.312639
0.305226
0.297332
0.289115
0.280705
0.272187
0.26358
0.254969
0.246814
0.239578
0.277665
0.272255
0.276761
0.285407
0.293798
0.300082
0.303702
0.304791
0.303739
0.300967
0.296843
0.291674
0.28571
0.279153
0.272171
0.264906
0.25745
0.249826
0.242112
0.2348
0.228469
0.233629
0.229395
0.235538
0.246362
0.257235
0.266044
0.272087
0.275439
0.276477
0.275628
0.273274
0.269736
0.265274
0.260105
0.254406
0.248329
0.241979
0.23538
0.228602
0.222158
0.216753
0.188401
0.185359
0.193123
0.206121
0.219494
0.230865
0.239381
0.245047
0.248227
0.249351
0.248814
0.246949
0.244033
0.240291
0.235912
0.23106
0.225851
0.220314
0.214504
0.208945
0.204479
0.142335
0.140489
0.14984
0.164974
0.180836
0.194782
0.205794
0.213807
0.219161
0.222291
0.223603
0.223444
0.222102
0.219816
0.216785
0.213184
0.209145
0.204699
0.199882
0.195217
0.191696
0.0957911
0.0951347
0.106015
0.123223
0.14153
0.158034
0.171544
0.181914
0.189457
0.194609
0.197787
0.19935
0.199601
0.198788
0.197122
0.19479
0.19194
0.188611
0.184809
0.181036
0.178454
0.0491329
0.0496471
0.0619807
0.0811699
0.101851
0.120868
0.136852
0.149566
0.159294
0.166468
0.171513
0.174802
0.176649
0.177314
0.177019
0.175961
0.174306
0.172112
0.169345
0.166444
0.164781
0.00272515
0.00437824
0.0180724
0.0391229
0.0620751
0.0835305
0.101939
0.116965
0.128853
0.138029
0.144928
0.149931
0.153366
0.155504
0.156575
0.156786
0.156325
0.155288
0.153612
0.151576
0.150718
-0.0430687
-0.0403249
-0.025376
-0.00261151
0.0224774
0.0462686
0.067026
0.0843075
0.0983125
0.109457
0.118179
0.124872
0.129872
0.133463
0.135884
0.137345
0.138047
0.138141
0.137606
0.13649
0.136095
-0.0878853
-0.0841223
-0.068034
-0.0437294
-0.0166678
0.00932758
0.0323333
0.0517927
0.0678521
0.0809122
0.0914127
0.099755
0.106286
0.111298
0.115042
0.117728
0.119557
0.12073
0.121452
0.121865
0.121044
-0.131393
-0.126663
-0.10958
-0.0839343
-0.0550913
-0.0270515
-0.00192335
0.0196142
0.0376464
0.0525529
0.0647721
0.0747113
0.0827248
0.0891157
0.0941413
0.0980163
0.100927
0.103096
0.104872
0.106338
0.10566
-0.173445
-0.16752
-0.149716
-0.122941
-0.092531
-0.0626338
-0.0355338
-0.0120389
0.00786624
0.0245342
0.038398
0.0498684
0.0593057
0.0670198
0.0732755
0.0782893
0.0822283
0.0853002
0.0879545
0.0903751
0.0899011
-0.213558
-0.206486
-0.188217
-0.160476
-0.128736
-0.0971935
-0.0682953
-0.0429842
-0.0213232
-0.00299397
0.0124269
0.0253511
0.0361428
0.0451164
0.0525422
0.0586401
0.0635638
0.0674916
0.0709157
0.0742027
0.0746258
-0.25138
-0.243335
-0.224711
-0.196321
-0.163468
-0.130514
-0.100014
-0.0730469
-0.0497639
-0.0298878
-0.0130096
0.0012804
0.0133483
0.0235113
0.0320433
0.0391698
0.0450428
0.0498179
0.0539785
0.0580083
0.0594903
-0.28669
-0.277804
-0.25885
-0.230239
-0.196514
-0.162391
-0.130505
-0.102062
-0.0773062
-0.0560109
-0.0377863
-0.0222282
-0.00897032
0.00230584
0.0118766
0.0199726
0.0267514
0.0323587
0.0372461
0.041923
0.0442284
-0.319286
-0.309662
-0.290539
-0.261811
-0.227703
-0.192635
-0.159598
-0.129874
-0.10381
-0.0812355
-0.0617858
-0.045066
-0.0307119
-0.0184051
-0.00786843
0.00113221
0.00876141
0.0151611
0.0207503
0.0260296
0.0290062
-0.348997
-0.338704
-0.319594
-0.290986
-0.2567
-0.221088
-0.187133
-0.156341
-0.129147
-0.105444
-0.0849
-0.0671326
-0.051783
-0.0385341
-0.0271096
-0.0172735
-0.00885554
-0.00171564
0.00453568
0.0103968
0.0140436
-0.375678
-0.364771
-0.345838
-0.317613
-0.283428
-0.247538
-0.212967
-0.181334
-0.1532
-0.128531
-0.107031
-0.0883368
-0.0720981
-0.0580009
-0.0457706
-0.0351711
-0.0260271
-0.0182
-0.0113291
-0.00491069
-0.00056911
-0.399213
-0.387752
-0.369136
-0.341537
-0.30776
-0.271884
-0.236971
-0.204741
-0.175866
-0.150402
-0.128091
-0.108597
-0.0915808
-0.0767329
-0.0637824
-0.0524939
-0.0426879
-0.0342268
-0.0267789
-0.0198361
-0.0148094
-0.419532
-0.407581
-0.389405
-0.362649
-0.329573
-0.294023
-0.259049
-0.226467
-0.197065
-0.170974
-0.148005
-0.127843
-0.110164
-0.0946665
-0.081084
-0.0691835
-0.0587825
-0.0497446
-0.0417657
-0.0343337
-0.028649
-0.43661
-0.424235
-0.406601
-0.38088
-0.348783
-0.313863
-0.279117
-0.246437
-0.21672
-0.190189
-0.166713
-0.146013
-0.127793
-0.111747
-0.0976244
-0.0851913
-0.0742648
-0.0647135
-0.056258
-0.0483729
-0.0420436
-0.450466
-0.437735
-0.420727
-0.396206
-0.365338
-0.331341
-0.297111
-0.264589
-0.234776
-0.207991
-0.184168
-0.163071
-0.144418
-0.127931
-0.113362
-0.100478
-0.0890955
-0.0790996
-0.070233
-0.0619464
-0.0549449
-0.461165
-0.448151
-0.43183
-0.408639
-0.379221
-0.346424
-0.312991
-0.280884
-0.251194
-0.224341
-0.20033
-0.178972
-0.160012
-0.143189
-0.128263
-0.115012
-0.103243
-0.0928734
-0.0836657
-0.0750853
-0.0673498
-0.468818
-0.455595
-0.440001
-0.418234
-0.390453
-0.359105
-0.326739
-0.295298
-0.265953
-0.239218
-0.215178
-0.193695
-0.174547
-0.157493
-0.142306
-0.128776
-0.116713
-0.105993
-0.0964954
-0.0878027
-0.0794009
-0.473576
-0.46022
-0.445374
-0.425088
-0.399089
-0.369408
-0.338358
-0.307828
-0.279046
-0.252615
-0.228703
-0.207231
-0.188012
-0.17083
-0.155473
-0.141742
-0.129455
-0.118474
-0.108694
-0.0998076
-0.091711
-0.475628
-0.462221
-0.448125
-0.429338
-0.405219
-0.377386
-0.347877
-0.318489
-0.290481
-0.264539
-0.24091
-0.21958
-0.200405
-0.183195
-0.167756
-0.153903
-0.141466
-0.130309
-0.120334
-0.111316
-0.103275
-0.475195
-0.461821
-0.448464
-0.43116
-0.408973
-0.383123
-0.35535
-0.327316
-0.300284
-0.275007
-0.251814
-0.230755
-0.211736
-0.194595
-0.179159
-0.165259
-0.152738
-0.141469
-0.13135
-0.122169
-0.113927
-0.472527
-0.459272
-0.446632
-0.430761
-0.41051
-0.386733
-0.360851
-0.334361
-0.308493
-0.284052
-0.261441
-0.240779
-0.222021
-0.205043
-0.189692
-0.175817
-0.163271
-0.151933
-0.141701
-0.132363
-0.123873
-0.467893
-0.454847
-0.442894
-0.428381
-0.410025
-0.388357
-0.364481
-0.339693
-0.315162
-0.291718
-0.26983
-0.249685
-0.231291
-0.214563
-0.199375
-0.185591
-0.173077
-0.161717
-0.151413
-0.141969
-0.133279
-0.461576
-0.448828
-0.437531
-0.42428
-0.407737
-0.388165
-0.366361
-0.343401
-0.320356
-0.298057
-0.277025
-0.257511
-0.23958
-0.223187
-0.208235
-0.194608
-0.182184
-0.170854
-0.16053
-0.15104
-0.142217
-0.453865
-0.441503
-0.430831
-0.418734
-0.403888
-0.386349
-0.366635
-0.345589
-0.324154
-0.303133
-0.283082
-0.264308
-0.246932
-0.230954
-0.216308
-0.2029
-0.190624
-0.179378
-0.169086
-0.159603
-0.150712
-0.445045
-0.433154
-0.42308
-0.412024
-0.398735
-0.383125
-0.365468
-0.346378
-0.326645
-0.307016
-0.288059
-0.270128
-0.253395
-0.237908
-0.223634
-0.210504
-0.19843
-0.187322
-0.177108
-0.167677
-0.158779
-0.435396
-0.424053
-0.414556
-0.40443
-0.392543
-0.378719
-0.363041
-0.345903
-0.327931
-0.309785
-0.292022
-0.275028
-0.259022
-0.244097
-0.230257
-0.217461
-0.20564
-0.194716
-0.184625
-0.175287
-0.166437
-0.425177
-0.414453
-0.405519
-0.396221
-0.385574
-0.37337
-0.359549
-0.344316
-0.328123
-0.311525
-0.29504
-0.279068
-0.263867
-0.249571
-0.236225
-0.223813
-0.212291
-0.201595
-0.191669
-0.18246
-0.173706
-0.414631
-0.404585
-0.396204
-0.387644
-0.378081
-0.367316
-0.355198
-0.341778
-0.327343
-0.312326
-0.297185
-0.28231
-0.267985
-0.254383
-0.241583
-0.229604
-0.218423
-0.207995
-0.198271
-0.189222
-0.180608
-0.403972
-0.394652
-0.38682
-0.378923
-0.3703
-0.360788
-0.350197
-0.338462
-0.325724
-0.312289
-0.298531
-0.284814
-0.27143
-0.258581
-0.24638
-0.234878
-0.224077
-0.213953
-0.204464
-0.195604
-0.187164
-0.393389
-0.384827
-0.377545
-0.37025
-0.362439
-0.354004
-0.344751
-0.334544
-0.323405
-0.311516
-0.299158
-0.286643
-0.274256
-0.262214
-0.250662
-0.239678
-0.229294
-0.219505
-0.210283
-0.201633
-0.193398
-0.38304
-0.375255
-0.368523
-0.361784
-0.354678
-0.347158
-0.339056
-0.330201
-0.320533
-0.31012
-0.299146
-0.287859
-0.276513
-0.265328
-0.254471
-0.244047
-0.234113
-0.224688
-0.21576
-0.20734
-0.199334
-0.373052
-0.366049
-0.359866
-0.353651
-0.347163
-0.340418
-0.33329
-0.325606
-0.317254
-0.308217
-0.298583
-0.288523
-0.278249
-0.267965
-0.257847
-0.248022
-0.238571
-0.229538
-0.220928
-0.212755
-0.204997
-0.363525
-0.357294
-0.351658
-0.345941
-0.340005
-0.333919
-0.327606
-0.320918
-0.313718
-0.305929
-0.29756
-0.288703
-0.279511
-0.270162
-0.260823
-0.251636
-0.242702
-0.234087
-0.225819
-0.217908
-0.210413
-0.354531
-0.349051
-0.343954
-0.338717
-0.333282
-0.327764
-0.322132
-0.316275
-0.310061
-0.303378
-0.296173
-0.288467
-0.280348
-0.271952
-0.263427
-0.254916
-0.246533
-0.238364
-0.230462
-0.222828
-0.215607
-0.346121
-0.341357
-0.336786
-0.332013
-0.327043
-0.322021
-0.316962
-0.311796
-0.306409
-0.300682
-0.294521
-0.287888
-0.28081
-0.273368
-0.265682
-0.25788
-0.250083
-0.24239
-0.23488
-0.227542
-0.220604
-0.338322
-0.334232
-0.330168
-0.325842
-0.321309
-0.316732
-0.312163
-0.30757
-0.30287
-0.297951
-0.292702
-0.287044
-0.280949
-0.274444
-0.267606
-0.260541
-0.253365
-0.24618
-0.239091
-0.232073
-0.225427
-0.331146
-0.327678
-0.324097
-0.320203
-0.316084
-0.311913
-0.307771
-0.30366
-0.299528
-0.295283
-0.290814
-0.286017
-0.280824
-0.275214
-0.269217
-0.262905
-0.256378
-0.249736
-0.243102
-0.236437
-0.230107
-0.324588
-0.321687
-0.318559
-0.315077
-0.311353
-0.307562
-0.303801
-0.300103
-0.296444
-0.292757
-0.28894
-0.284887
-0.2805
-0.27572
-0.270533
-0.264973
-0.259115
-0.253047
-0.246908
-0.240644
-0.234664
-0.318634
-0.31624
-0.313531
-0.310441
-0.307093
-0.303659
-0.300249
-0.296914
-0.293656
-0.29043
-0.287155
-0.283728
-0.280042
-0.27601
-0.27158
-0.266747
-0.261561
-0.256089
-0.250484
-0.24468
-0.239146
-0.313259
-0.311311
-0.308986
-0.306263
-0.303273
-0.30018
-0.297098
-0.294091
-0.29118
-0.288342
-0.285516
-0.28261
-0.279517
-0.276136
-0.272388
-0.268235
-0.263696
-0.258821
-0.253777
-0.248504
-0.243537
-0.308429
-0.306867
-0.304889
-0.302508
-0.299857
-0.29709
-0.294319
-0.291617
-0.289017
-0.286512
-0.28406
-0.281584
-0.278985
-0.276155
-0.273001
-0.269453
-0.265507
-0.261191
-0.256705
-0.251999
-0.247906
-0.304104
-0.30287
-0.301203
-0.299139