/*--------------------------------*- C++ -*----------------------------------*\
  =========                 |
  \\      /  F ield         | OpenFOAM: The Open Source CFD Toolbox
   \\    /   O peration     | Website:  https://openfoam.org
    \\  /    A nd           | Version:  7
     \\/     M anipulation  |
\*---------------------------------------------------------------------------*/
FoamFile
{
    version     2.0;
    format      ascii;
    class       volVectorField;
    location    "35";
    object      U;
}
// * * * * * * * * * * * * * * * * * * * * * * * * * * * * * * * * * * * * * //

dimensions      [0 1 -1 0 0 0 0];

internalField   nonuniform List<vector> 
8820
(
(-0.000598579 0.000741733 0)
(-0.00340754 0.00184503 0)
(-0.0088573 0.00263912 0)
(-0.0157905 0.00318636 0)
(-0.0236225 0.00353157 -7.07499e-21)
(-0.0319589 0.00371148 -6.67956e-21)
(-0.0404595 0.00375727 -1.25759e-20)
(-0.0488522 0.00369469 0)
(-0.0569252 0.00354486 2.22822e-20)
(-0.0645128 0.00332521 -1.04711e-20)
(-0.071487 0.00305068 7.44503e-24)
(-0.0777525 0.00273511 1.84695e-20)
(-0.0832444 0.00239283 -8.65458e-21)
(-0.0879309 0.00204041 0)
(-0.0918185 0.00169823 7.59418e-21)
(-0.0949598 0.00139166 7.10792e-21)
(-0.0974717 0.00115114 0)
(-0.0995615 0.00101028 2.48559e-20)
(-0.10144 0.00100277 0)
(-0.1031 0.00116048 0)
(-0.105364 0.0014951 0)
(-0.000701231 0.00219684 0)
(-0.00364252 0.0054656 -3.34395e-20)
(-0.00915252 0.00781898 -3.16865e-20)
(-0.0160963 0.00944121 0)
(-0.0239019 0.0104647 0)
(-0.0321839 0.0109979 1.33428e-20)
(-0.0406095 0.011133 1.25759e-20)
(-0.0489124 0.0109459 -2.3704e-20)
(-0.0568848 0.0104991 2.22908e-20)
(-0.0643642 0.00984373 6.13935e-24)
(-0.071224 0.0090238 0)
(-0.0773689 0.00807983 -1.84647e-20)
(-0.082732 0.00705379 0)
(-0.0872776 0.0059942 0)
(-0.0910057 0.00496113 0)
(-0.0939605 0.00403002 1.42272e-20)
(-0.0962494 0.00329234 0)
(-0.0980723 0.0028506 -2.48558e-20)
(-0.0996378 0.00280956 2.32062e-20)
(-0.100932 0.00327074 -4.33742e-20)
(-0.10279 0.00427573 2.06654e-20)
(-0.000903413 0.00361605 3.33472e-20)
(-0.00410558 0.00900212 3.34395e-20)
(-0.00973436 0.012886 9.51639e-20)
(-0.0166986 0.0155681 0)
(-0.0244512 0.0172649 5.67017e-20)
(-0.0326242 0.0181538 0)
(-0.0408993 0.0183858 2.52022e-20)
(-0.0490213 0.0180859 -2.36985e-20)
(-0.056791 0.0173558 4.46518e-20)
(-0.0640518 0.0162795 0)
(-0.0706804 0.0149279 0)
(-0.0765814 0.0133659 3.69733e-20)
(-0.0816848 0.0116604 5.15481e-24)
(-0.0859473 0.00988827 -1.29951e-19)
(-0.0893569 0.00814596 1.41939e-23)
(-0.0919412 0.00655627 5.69373e-20)
(-0.0937885 0.00527153 0)
(-0.0950829 0.0044673 -4.96888e-20)
(-0.0960267 0.00432977 9.29002e-20)
(-0.0965932 0.00504769 0)
(-0.0976369 0.00671307 -4.14391e-20)
(-0.00119953 0.00497653 -6.67327e-20)
(-0.00478433 0.0124009 0)
(-0.0105872 0.0177677 -9.52927e-20)
(-0.0175803 0.0214841 -3.00087e-20)
(-0.0252524 0.0238448 1.15452e-22)
(-0.0332607 0.0250924 -1.0717e-19)
(-0.0413079 0.0254336 1.51404e-19)
(-0.0491554 0.0250392 5.55558e-23)
(-0.0566165 0.0240487 -8.93106e-20)
(-0.0635433 0.0225759 -8.40744e-20)
(-0.0698177 0.0207163 7.89551e-20)
(-0.0753456 0.0185556 -7.40873e-20)
(-0.0800528 0.0161805 1.38869e-19)
(-0.0838862 0.0136913 1.30048e-19)
(-0.0868171 0.0112143 -6.08883e-20)
(-0.0888496 0.00891459 -1.14196e-23)
(-0.0900435 0.0070035 -5.32555e-20)
(-0.0905575 0.00573467 0)
(-0.0905815 0.00539149 -5.20661e-23)
(-0.0900658 0.00627911 -8.66613e-20)
(-0.0898792 0.00857826 4.16161e-20)
(-0.00158149 0.00625704 -3.3486e-20)
(-0.0056608 0.0156114 0)
(-0.0116883 0.0223948 6.35897e-20)
(-0.0187165 0.0271091 -6.01672e-20)
(-0.0262791 0.0301195 1.07852e-22)
(-0.0340654 0.0317281 -5.37051e-20)
(-0.0418048 0.0321933 1.51847e-19)
(-0.0492798 0.0317288 4.77381e-20)
(-0.05632 0.0305086 0)
(-0.0627895 0.0286738 8.40073e-20)
(-0.0685774 0.0263407 -1.57951e-19)
(-0.0735919 0.0236114 -7.42837e-20)
(-0.0777557 0.0205869 4.92441e-23)
(-0.0810048 0.0173827 -6.50719e-20)
(-0.0832913 0.0141464 -1.21981e-19)
(-0.0845906 0.0110766 0)
(-0.0849253 0.00843808 5.32115e-20)
(-0.0844182 0.00656557 -1.49256e-19)
(-0.0832391 0.00585787 0)
(-0.0813011 0.00677553 -8.65034e-20)
(-0.0794588 0.00964753 1.64743e-19)
(-0.00203902 0.00743856 0)
(-0.00671218 0.0185877 1.3521e-19)
(-0.013009 0.0267033 1.27767e-19)
(-0.0200755 0.0323672 6.06824e-20)
(-0.0274978 0.0360063 1.14268e-19)
(-0.0350024 0.037976 5.38276e-20)
(-0.0423502 0.0385812 -5.04752e-20)
(-0.0493488 0.0380749 -1.90673e-19)
(-0.0558474 0.0366624 0)
(-0.0617244 0.0345091 1.68681e-19)
(-0.0668789 0.0317486 7.92825e-20)
(-0.0712234 0.0284945 2.97267e-19)
(-0.0746786 0.0248554 -6.96434e-20)
(-0.0771707 0.0209529 0)
(-0.0786324 0.0169445 -1.97658e-22)
(-0.079008 0.0130492 -1.14201e-19)
(-0.0782766 0.00957422 1.06646e-19)
(-0.0765143 0.00693206 -3.1316e-23)
(-0.0738639 0.00565197 -9.27784e-20)
(-0.0701886 0.00639139 8.64013e-20)
(-0.0662529 0.00970745 0)
(-0.00256014 0.00850485 6.76394e-20)
(-0.0079118 0.0212895 -2.02801e-19)
(-0.0145154 0.0306356 0)
(-0.0216198 0.0371884 -1.81696e-19)
(-0.0288683 0.0414268 -5.70846e-20)
(-0.0360285 0.0437527 0)
(-0.0428959 0.0445124 0)
(-0.0493065 0.0439939 0)
(-0.0551313 0.0424313 -9.01125e-20)
(-0.0602655 0.0400109 8.4892e-20)
(-0.0646199 0.0368803 -7.92812e-20)
(-0.0681135 0.0331604 -1.48754e-19)
(-0.0706673 0.0289606 0)
(-0.0722002 0.0243995 0)
(-0.0726274 0.019631 2.44354e-19)
(-0.0718636 0.0148779 -4.06356e-22)
(-0.0698417 0.0104711 -2.13465e-19)
(-0.0665827 0.0068882 9.95057e-20)
(-0.0622018 0.00479151 9.27756e-20)
(-0.056516 0.00506417 -4.39634e-23)
(-0.0500292 0.00858522 1.64224e-19)
(-0.00313177 0.00944309 0)
(-0.00923023 0.0236835 1.36385e-19)
(-0.0161699 0.0341416 0)
(-0.0233074 0.0415093 0)
(-0.0303453 0.0463073 1.14927e-19)
(-0.0370941 0.048977 -2.16579e-19)
(-0.0433862 0.049901 1.02098e-19)
(-0.0490872 0.0493988 -1.97083e-22)
(-0.0540919 0.0477296 -1.54027e-22)
(-0.0583134 0.0450986 4.63881e-22)
(-0.0616757 0.0416649 7.95778e-20)
(-0.0641056 0.0375532 0)
(-0.0655266 0.0328687 0)
(-0.0658531 0.0277184 0)
(-0.0649874 0.0222397 2.59471e-22)
(-0.0628186 0.01664 3.43277e-19)
(-0.0592362 0.0112502 -1.06973e-19)
(-0.0542024 0.00658846 0)
(-0.0478177 0.00343426 0)
(-0.03991 0.00291733 -1.72554e-19)
(-0.0304107 0.0063992 0)
(-0.00374031 0.0102443 -1.36734e-19)
(-0.0106366 0.0257444 -1.36385e-19)
(-0.0179329 0.0371806 0)
(-0.0250931 0.0452748 0)
(-0.031879 0.0505802 -1.15573e-19)
(-0.038144 0.0535713 0)
(-0.0437576 0.0546616 -1.02177e-19)
(-0.048616 0.0541985 -9.68057e-20)
(-0.0526373 0.0524641 -1.81366e-19)
(-0.0557532 0.0496804 -1.70079e-19)
(-0.0579002 0.0460168 -3.19257e-19)
(-0.0590137 0.0415998 1.49723e-19)
(-0.0590204 0.0365276 0)
(-0.0578326 0.03089 1.31495e-19)
(-0.0553436 0.0247973 -2.45319e-19)
(-0.051423 0.0184235 2.29636e-19)
(-0.0459231 0.0120727 0)
(-0.0387471 0.00626867 0)
(-0.0299853 0.00187504 0)
(-0.0195897 0.00034672 0)
(-0.00677437 0.00410185 1.62969e-19)
(-0.00437245 0.0109039 -5.73874e-22)
(-0.0121 0.0274554 1.37209e-19)
(-0.0197634 0.0397215 -2.60379e-19)
(-0.0269293 0.0484392 1.22707e-19)
(-0.0334157 0.0541858 3.47501e-19)
(-0.0391171 0.0574626 -2.18266e-19)
(-0.0439393 0.0587102 4.11373e-19)
(-0.0478077 0.0583 1.9297e-19)
(-0.050663 0.0565351 2.72519e-19)
(-0.0524534 0.0536534 1.70622e-19)
(-0.0531266 0.0498339 1.60118e-19)
(-0.0526243 0.0452053 0)
(-0.0508756 0.0398586 -2.81462e-19)
(-0.047791 0.0338648 1.31794e-19)
(-0.0432565 0.027301 -1.23202e-19)
(-0.0371271 0.0202935 5.89351e-22)
(-0.029224 0.0130901 2.14946e-19)
(-0.0193912 0.0061695 9.99771e-20)
(-0.00762717 0.000417998 0)
(0.00624625 -0.00236291 0)
(0.0229217 0.00143119 0)
(-0.00501582 0.0114214 -4.25034e-22)
(-0.0135906 0.028809 1.38554e-19)
(-0.0216208 0.0417444 1.30622e-19)
(-0.0287666 0.0509678 1.23315e-19)
(-0.0348974 0.0570737 7.91792e-22)
(-0.0399456 0.0605857 -4.84762e-22)
(-0.0438506 0.0619671 -3.09028e-19)
(-0.0465648 0.0616111 1.93993e-19)
(-0.0480488 0.0598398 -3.64261e-19)
(-0.0482638 0.0569062 -1.70889e-19)
(-0.0471649 0.0529996 1.60575e-19)
(-0.0446964 0.048253 -1.50607e-19)
(-0.0407855 0.0427528 1.4086e-19)
(-0.0353381 0.0365539 1.31882e-19)
(-0.0282335 0.0297011 -1.23513e-19)
(-0.0193157 0.0222658 -2.30099e-19)
(-0.00838669 0.0144155 -2.14462e-19)
(0.00474473 0.00652478 -1.98919e-19)
(0.0201454 -0.000607164 5.55714e-19)
(0.0382766 -0.00499334 -1.91549e-21)
(0.05998 -0.00208673 -1.61421e-19)
(-0.00565969 0.0118009 4.16474e-19)
(-0.0150806 0.0298066 -2.77362e-19)
(-0.0234648 0.0432405 -1.31003e-19)
(-0.0305536 0.0528374 2.48615e-19)
(-0.0362607 0.0592047 -2.33222e-19)
(-0.0405523 0.0628849 -9.67936e-22)
(-0.0433979 0.064361 -4.47381e-22)
(-0.0447728 0.0640455 -1.94348e-19)
(-0.0446533 0.0622778 1.82937e-19)
(-0.0430088 0.0593259 0)
(-0.0397963 0.0553907 0)
(-0.0349557 0.0506122 0)
(-0.0284064 0.0450773 1.41601e-19)
(-0.0200436 0.0388321 0)
(-0.00973651 0.0318968 1.23491e-19)
(0.00267877 0.0242951 1.14719e-19)
(0.0174093 0.0161088 -2.1553e-19)
(0.0346601 0.00757376 -1.99952e-19)
(0.0545036 -0.000687191 -1.85293e-19)
(0.0775522 -0.00671325 0)
(0.105546 -0.00514274 -3.19412e-19)
(-0.00629546 0.0120504 -2.79338e-19)
(-0.0165452 0.0304581 1.40207e-19)
(-0.0252559 0.0442118 -1.32092e-19)
(-0.0322353 0.0540372 1.25946e-19)
(-0.037434 0.0605528 1.17422e-19)
(-0.0408469 0.0643181 1.10044e-19)
(-0.0424681 0.0658335 2.07541e-19)
(-0.0422917 0.0655292 -3.90448e-19)
(-0.0403039 0.0637603 1.83231e-19)
(-0.0364759 0.0608096 -1.04746e-22)
(-0.0307588 0.0568908 -4.84807e-19)
(-0.0230807 0.052154 3.03015e-19)
(-0.0133442 0.0466934 6.92495e-23)
(-0.00142643 0.0405555 -1.32732e-19)
(0.0128198 0.0337504 0)
(0.0295667 0.0262721 -2.30708e-19)
(0.0490184 0.0181334 2.15888e-19)
(0.0713784 0.00943623 8.37645e-22)
(0.0966718 0.000557895 9.63149e-22)
(0.125386 -0.00684733 -1.70622e-19)
(0.161211 -0.00662301 3.17918e-19)
(-0.00691687 0.012181 2.80779e-19)
(-0.0179618 0.0307807 1.41356e-21)
(-0.0269537 0.0446706 0)
(-0.0337512 0.054569 -2.49933e-19)
(-0.0383338 0.0611068 -3.54647e-19)
(-0.0407192 0.0648598 1.11112e-19)
(-0.040921 0.066345 0)
(-0.0389456 0.0660087 0)
(-0.0347826 0.0642207 3.67872e-19)
(-0.0283973 0.0612784 -1.72821e-19)
(-0.0197269 0.0574091 1.6174e-19)
(-0.00867797 0.0527764 8.3211e-23)
(0.00487191 0.0474874 -2.11459e-22)
(0.0210716 0.0415996 1.32438e-19)
(0.0400899 0.0351295 -4.96979e-19)
(0.0621077 0.0280644 0)
(0.0873151 0.0203842 0)
(0.115894 0.0120993 0)
(0.147805 0.00334642 1.85195e-19)
(0.182956 -0.00482877 2.29161e-21)
(0.228481 -0.00546455 3.14216e-19)
(-0.00751992 0.012206 0)
(-0.0193101 0.0307968 -2.82177e-19)
(-0.0285157 0.0446377 -2.68136e-19)
(-0.0350316 0.0544469 1.25931e-19)
(-0.0388588 0.0608712 -5.91548e-22)
(-0.040032 0.0645043 1.11651e-19)
(-0.0385781 0.0658803 -2.09515e-19)
(-0.0345083 0.0654598 1.97007e-19)
(-0.0278081 0.0636274 0)
(-0.0184286 0.0606945 -1.73091e-19)
(-0.00628366 0.0569032 1.62158e-19)
(0.00874938 0.0524337 -1.5214e-19)
(0.0268255 0.0474106 0)
(0.0481238 0.0419113 2.65742e-19)
(0.0728346 0.0359724 -4.86615e-22)
(0.101141 0.0295987 -2.31746e-19)
(0.133201 0.0227742 0)
(0.169137 0.0154805 0)
(0.208896 0.00772749 -1.24472e-21)
(0.251116 -0.000373166 -1.7147e-19)
(0.308311 -0.000788914 -3.09234e-19)
(-0.00810228 0.0121395 0)
(-0.0205697 0.0305317 2.8596e-19)
(-0.0298935 0.0441405 2.68136e-19)
(-0.035993 0.0536958 2.54221e-19)
(-0.0388842 0.0598671 0)
(-0.0386122 0.063269 2.24729e-19)
(-0.0352112 0.0644534 2.10319e-19)
(-0.028689 0.0638958 -1.98303e-19)
(-0.0190179 0.0619953 -1.85448e-19)
(-0.00612561 0.0590778 -1.73483e-19)
(0.010105 0.0554018 4.87793e-19)
(0.0298322 0.0511659 -3.05035e-19)
(0.0532456 0.0465171 -1.42601e-19)
(0.0805512 0.0415588 2.65904e-19)
(0.111949 0.0363578 -2.49017e-19)
(0.147604 0.030952 4.62757e-19)
(0.187604 0.0253554 -2.16187e-19)
(0.231943 0.0195692 1.99598e-19)
(0.280652 0.0136892 3.67603e-19)
(0.330286 0.00650722 -1.71029e-19)
(0.400685 0.00791082 -1.35071e-21)
(-0.00866226 0.0119949 1.43586e-19)
(-0.0217179 0.0300109 -5.73974e-19)
(-0.0310293 0.0432099 1.35251e-19)
(-0.0365329 0.0523511 -5.09176e-19)
(-0.0382538 0.0581326 1.20041e-19)
(-0.0362427 0.0611956 2.26074e-19)
(-0.0305321 0.062112 -6.3469e-19)
(-0.0211186 0.0613741 3.96423e-19)
(-0.00795173 0.0593961 0)
(0.00907241 0.0565198 0)
(0.030108 0.0530215 0)
(0.0553496 0.0491214 3.04728e-19)
(0.0850153 0.0449923 2.85211e-19)
(0.11932 0.0407675 2.6592e-19)
(0.158442 0.0365487 -4.97013e-19)
(0.202481 0.0324124 2.32134e-19)
(0.251394 0.0284113 2.14204e-19)
(0.304935 0.0245678 -5.97931e-19)
(0.363281 0.0213172 1.85144e-19)
(0.420331 0.0156796 1.65416e-19)
(0.504198 0.020688 -1.31082e-21)
(-0.00919735 0.0117831 0)
(-0.0227258 0.0292564 7.22652e-19)
(-0.0318521 0.0418804 -2.55984e-22)
(-0.036524 0.0504554 -2.56566e-19)
(-0.0367749 0.0557204 1.20762e-19)
(-0.0326538 0.0583503 -2.25826e-19)
(-0.0241842 0.0589402 2.11029e-19)
(-0.0113421 0.0580013 -1.99305e-19)
(0.00595431 0.0559652 0)
(0.0278462 0.0531917 -1.74633e-19)
(0.054525 0.0499779 -1.62975e-19)
(0.0862129 0.0465682 3.05247e-19)
(0.123134 0.043163 -9.98158e-19)
(0.165473 0.0399265 2.66823e-19)
(0.213328 0.0369935 0)
(0.266649 0.0344751 -2.30413e-19)
(0.325165 0.0324536 1.07418e-21)
(0.388268 0.0309341 -1.98489e-19)
(0.456111 0.0308477 0)
(0.520311 0.0271384 -1.67998e-19)
(0.61561 0.0372274 0)
(-0.00970354 0.0115117 -2.93034e-19)
(-0.0235554 0.0282886 -1.44475e-19)
(-0.0322705 0.0401837 1.38575e-19)
(-0.0358105 0.048055 1.29352e-19)
(-0.0342124 0.0526975 2.43397e-19)
(-0.02752 0.0548245 4.55342e-19)
(-0.0157396 0.055059 -9.3268e-22)
(0.00118151 0.0539346 0)
(0.0233619 0.0519038 -1.8655e-19)
(0.0509797 0.0493475 3.4979e-19)
(0.0842524 0.0465864 0)
(0.123404 0.04389 0)
(0.168619 0.0414854 5.0006e-22)
(0.219982 0.0395627 5.33053e-19)
(0.277415 0.0382791 0)
(0.340602 0.0377635 0)
(0.408904 0.0381033 2.14488e-19)
(0.481269 0.039266 1.89946e-21)
(0.557248 0.0425119 1.84931e-19)
(0.628129 0.0411736 2.71492e-21)
(0.729391 0.0570884 2.95386e-19)
(-0.0101716 0.0111846 1.45896e-19)
(-0.024158 0.0271192 1.46719e-19)
(-0.0321725 0.0381461 -1.36297e-19)
(-0.0342024 0.0452013 0)
(-0.0302871 0.0491438 -2.43395e-19)
(-0.0204599 0.0507329 -2.28218e-19)
(-0.00470388 0.0506248 0)
(0.017067 0.0493802 -4.00983e-19)
(0.0450066 0.0474763 1.87953e-19)
(0.079317 0.0453184 -3.51009e-19)
(0.120213 0.0432514 0)
(0.167867 0.0415677 -1.526e-19)
(0.222345 0.0405127 1.43036e-19)
(0.283527 0.0402868 -2.66201e-19)
(0.351024 0.0410452 0)
(0.42411 0.0429009 0)
(0.501634 0.0458995 0)
(0.582093 0.0500253 0)
(0.66365 0.056224 1.79518e-19)
(0.740464 0.0583045 4.98694e-19)
(0.837902 0.0794815 5.08472e-22)
(-0.010586 0.0107995 1.48626e-19)
(-0.0244668 0.0257515 0)
(-0.0314209 0.0357927 -2.7794e-19)
(-0.0314764 0.0419483 0)
(-0.0246766 0.0451502 2.45206e-19)
(-0.0110419 0.0462112 -1.31336e-21)
(0.00947068 0.0458268 -2.16058e-19)
(0.0369777 0.0445892 4.01776e-19)
(0.071654 0.0430038 -3.76383e-19)
(0.113693 0.0415011 5.27207e-19)
(0.163249 0.0404469 0)
(0.220357 0.0401464 0)
(0.284845 0.0408442 0)
(0.356238 0.0427199 0)
(0.433683 0.0458832 0)
(0.515896 0.0503777 0)
(0.601112 0.0561361 0)
(0.687411 0.063222 0)
(0.771435 0.0714873 -3.60919e-19)
(0.852831 0.0787722 -1.64887e-19)
(0.93363 0.100926 -5.94087e-19)
(-0.0109234 0.0103504 -1.50209e-19)
(-0.0243962 0.0241837 0)
(-0.0298513 0.0331441 -1.42647e-19)
(-0.0273752 0.0383512 -1.32563e-19)
(-0.0170211 0.040817 -2.4697e-19)
(0.00120359 0.0414147 1.5264e-21)
(0.0273625 0.0408836 2.17416e-19)
(0.0615874 0.0398515 2.02959e-19)
(0.10404 0.0388525 1.88375e-19)
(0.154844 0.0383391 1.76466e-19)
(0.213999 0.0386864 0)
(0.281274 0.0401909 0)
(0.356101 0.0430616 0)
(0.43748 0.0474096 0)
(0.523928 0.0532381 0)
(0.613495 0.0604522 0)
(0.703792 0.0688063 0)
(0.792452 0.0783278 0)
(0.875767 0.0878454 -1.16997e-21)
(0.957771 0.100683 -4.99876e-19)
(1.01181 0.112297 1.57061e-21)
(-0.011153 0.00982781 4.57892e-19)
(-0.0238412 0.0224087 -1.51036e-19)
(-0.0272721 0.0302189 1.39604e-19)
(-0.0216119 0.0344692 0)
(-0.00693145 0.0362558 -4.99936e-19)
(0.0167665 0.036517 -8.79093e-23)
(0.0495501 0.0360397 0)
(0.0915309 0.0354877 -1.4085e-22)
(0.142795 0.0354202 -1.90547e-19)
(0.2033 0.0362991 -3.53306e-19)
(0.272756 0.0384861 0)
(0.350499 0.0422314 1.53165e-19)
(0.435382 0.0476573 -1.43558e-19)
(0.525713 0.0547433 -2.66073e-19)
(0.619271 0.0633195 0)
(0.713416 0.0730887 0)
(0.805263 0.083602 0)
(0.892074 0.0946135 0)
(0.971164 0.104964 -1.77926e-19)
(1.04242 0.116925 8.29927e-19)
(1.09707 0.122324 3.06822e-19)
(-0.0112345 0.00921997 -3.06223e-19)
(-0.0226777 0.0204183 -4.61982e-19)
(-0.0234679 0.0270376 4.29592e-19)
(-0.0138756 0.0303684 -1.35297e-19)
(0.00599712 0.0315907 2.50995e-19)
(0.0361347 0.0317107 -5.53769e-24)
(0.0765748 0.0315626 4.41299e-19)
(0.127348 0.0318416 0)
(0.188366 0.0331195 1.90167e-19)
(0.259283 0.0358433 -2.22221e-22)
(0.339349 0.0403219 0)
(0.427276 0.0467048 0)
(0.521165 0.0549616 5.72087e-19)
(0.618521 0.0648719 -1.23806e-21)
(0.716382 0.0760359 0)
(0.811555 0.0879228 0)
(0.900926 0.0998832 2.10306e-19)
(0.98187 0.111447 3.86615e-19)
(1.05232 0.121565 1.76775e-19)
(1.11198 0.131329 -3.32863e-19)
(1.15803 0.13552 3.03169e-19)
(-0.0111191 0.00851531 1.55764e-19)
(-0.0207635 0.0182068 3.10799e-19)
(-0.0182033 0.0236276 1.04201e-21)
(-0.00384087 0.0261263 1.36898e-19)
(0.0221699 0.0269627 0)
(0.0597673 0.0272088 -2.38931e-19)
(0.1089 0.0277404 -2.18565e-19)
(0.169422 0.0292709 2.07355e-19)
(0.240936 0.0323598 0)
(0.322618 0.0373983 -1.78307e-19)
(0.413058 0.0445851 0)
(0.510164 0.0538988 -1.5386e-19)
(0.611173 0.0650843 -1.44279e-19)
(0.712791 0.0776643 -5.32121e-19)
(0.811471 0.0909842 2.47767e-19)
(0.903789 0.1043 0)
(0.986816 0.116833 -2.10283e-19)
(1.0585 0.128041 -1.93665e-19)
(1.11772 0.137022 0)
(1.1648 0.144688 -1.63712e-19)
(1.1993 0.147052 0)
(-0.01075 0.00770468 -1.58613e-19)
(-0.017941 0.0157766 -6.30274e-19)
(-0.0112289 0.0200291 -1.46994e-19)
(0.00882215 0.0218389 -1.92364e-21)
(0.0419739 0.0225346 -1.29492e-19)
(0.0880656 0.0232472 -2.41599e-19)
(0.146868 0.0248794 2.24775e-19)
(0.217927 0.0281374 -9.33551e-23)
(0.300361 0.0335263 0)
(0.392663 0.041322 0)
(0.492578 0.0515383 0)
(0.597086 0.0639059 3.10889e-19)
(0.702556 0.0778835 2.8727e-19)
(0.805065 0.0927114 -2.64307e-19)
(0.900818 0.107507 4.91405e-19)
(0.986609 0.121397 -2.28306e-19)
(1.06017 0.133596 -2.06443e-19)
(1.12044 0.143645 1.92281e-19)
(1.16742 0.150927 -1.77153e-19)
(1.20227 0.156343 -1.59013e-19)
(1.22658 0.157031 1.47055e-19)
(-0.0100646 0.00678352 0)
(-0.0140418 0.0131426 3.17522e-19)
(-0.00228845 0.0163017 3.02045e-19)
(0.0244346 0.017626 2.77983e-19)
(0.0657578 0.0184965 0)
(0.121342 0.0200865 -6.09687e-23)
(0.190658 0.0232999 2.55778e-21)
(0.272771 0.0287931 -2.0675e-19)
(0.366112 0.0369556 1.96328e-19)
(0.468295 0.0478694 1.80228e-19)
(0.576072 0.0612796 -1.67583e-19)
(0.685481 0.0766002 -3.08877e-19)
(0.79219 0.0929738 1.45034e-19)
(0.891986 0.109386 -2.63877e-19)
(0.981298 0.124813 2.47102e-19)
(1.05763 0.138379 1.41441e-21)
(1.11977 0.149442 2.08779e-19)
(1.16785 0.157755 1.90266e-19)
(1.20299 0.163033 7.25902e-22)
(1.22723 0.166323 1.60035e-19)
(1.24257 0.165387 2.8276e-19)
(-0.00899511 0.00575385 0)
(-0.00889068 0.0103373 -3.28623e-19)
(0.00887202 0.0125304 -3.02041e-19)
(0.0432946 0.0136382 -1.41215e-19)
(0.0938094 0.0150689 5.31173e-19)
(0.159789 0.0180113 1.20783e-19)
(0.240244 0.0233278 -2.82655e-21)
(0.33356 0.0315629 -2.13713e-19)
(0.437267 0.0429086 0)
(0.547934 0.057162 1.81511e-19)
(0.661285 0.0737211 -5.06911e-19)
(0.772558 0.0916441 1.57526e-19)
(0.877054 0.10978 0)
(0.970746 0.126947 -2.63257e-19)
(1.05079 0.142118 4.90063e-19)
(1.1158 0.154561 -2.24524e-19)
(1.16584 0.163897 0)
(1.20219 0.170159 0)
(1.2269 0.173407 -3.40491e-19)
(1.24246 0.174763 1.57605e-19)
(1.25119 0.172457 -2.80754e-19)
(-0.00747086 0.00462587 2.68693e-21)
(-0.0023119 0.0074144 3.27857e-19)
(0.0224943 0.00882963 0)
(0.0656611 0.0100598 -2.9127e-19)
(0.126331 0.012504 -1.33145e-19)
(0.203448 0.0173249 -1.25644e-19)
(0.295366 0.0252811 0)
(0.399575 0.0367214 0)
(0.512518 0.0515426 2.50612e-21)
(0.629644 0.0691665 1.85624e-19)
(0.745755 0.088591 1.70808e-19)
(0.855601 0.108531 -3.12886e-19)
(0.954592 0.127626 2.79426e-21)
(1.03941 0.144668 -1.28392e-19)
(1.10835 0.158777 2.20801e-21)
(1.16135 0.169494 0)
(1.19971 0.17677 0)
(1.22566 0.180919 0)
(1.24178 0.182289 1.66693e-19)
(1.25076 0.181997 3.02264e-19)
(1.25472 0.17863 -5.71597e-22)
(-0.00542004 0.00341909 -3.4291e-19)
(0.00586501 0.00445126 1.67501e-19)
(0.0387965 0.00534688 1.56789e-19)
(0.0917354 0.00711017 -1.53264e-19)
(0.163417 0.0110822 -1.3557e-19)
(0.252178 0.0183388 3.83216e-19)
(0.355504 0.029451 2.36799e-19)
(0.469779 0.0444684 -3.13685e-21)
(0.590243 0.0628897 -6.02856e-19)
(0.711281 0.0836906 3.18918e-21)
(0.827048 0.105464 1.71874e-19)
(0.93227 0.126657 -1.89017e-21)
(1.02299 0.145841 -2.87399e-19)
(1.09705 0.16194 1.33874e-19)
(1.15411 0.17436 0)
(1.19543 0.182989 0)
(1.22332 0.188109 0)
(1.24061 0.190266 3.60089e-19)
(1.2501 0.190015 -3.34538e-19)
(1.2543 0.188369 -1.51434e-19)
(1.25511 0.18424 7.09525e-22)
(-0.00277179 0.00216309 5.2501e-19)
(0.0157981 0.00155055 -3.48779e-19)
(0.0579604 0.00226224 -3.22559e-19)
(0.121643 0.0050405 4.47413e-19)
(0.205028 0.0111029 -2.80597e-19)
(0.30564 0.0213566 4.43647e-21)
(0.419877 0.0360789 -4.73475e-19)
(0.542858 0.0549057 6.60416e-19)
(0.668614 0.076846 -2.05521e-19)
(0.790686 0.100401 0)
(0.903013 0.123818 0)
(1.00083 0.14541 0)
(1.0813 0.16385 1.44502e-19)
(1.14367 0.178343 0)
(1.18903 0.188667 -1.18177e-19)
(1.21973 0.195069 1.10632e-19)
(1.23877 0.198116 0)
(1.24922 0.198512 -1.80638e-19)
(1.25381 0.19692 -1.60882e-19)
(1.25472 0.194192 -1.44907e-19)
(1.25351 0.189549 1.30734e-19)
(0.000541571 0.000897859 -3.57111e-19)
(0.0276255 -0.00116013 1.74746e-19)
(0.0801177 -0.000213743 3.28964e-19)
(0.155416 0.00412711 0)
(0.250971 0.0128716 2.78e-19)
(0.363281 0.0266536 -5.2227e-19)
(0.48746 0.0453336 -1.2223e-19)
(0.617292 0.0680215 -2.21656e-19)
(0.745741 0.0931789 8.99041e-22)
(0.865885 0.118865 -1.90123e-19)
(0.971973 0.143103 -1.71189e-19)
(1.06027 0.164246 3.16724e-19)
(1.12937 0.181231 -1.44489e-19)
(1.18002 0.193654 4.09795e-21)
(1.21455 0.201687 1.20876e-19)
(1.23611 0.205903 -2.13998e-19)
(1.24801 0.207069 -1.93385e-19)
(1.2533 0.205968 1.73406e-19)
(1.25441 0.203295 -1.58054e-19)
(1.25313 0.199708 4.81392e-21)
(1.25069 0.19473 1.31604e-19)
(0.00458188 -0.000326283 3.69284e-19)
(0.0414569 -0.00352976 -1.82516e-19)
(0.105337 -0.00184523 5.11169e-22)
(0.192972 0.00466082 -1.57328e-19)
(0.300888 0.0166828 1.45848e-19)
(0.424344 0.0344556 2.67226e-19)
(0.557034 0.0572932 -2.06191e-21)
(0.691461 0.0836889 2.31239e-19)
(0.81983 0.111553 3.16551e-19)
(0.935253 0.138602 7.6354e-19)
(1.03284 0.162806 -1.76745e-19)
(1.11025 0.182741 0)
(1.1677 0.197736 -2.57037e-21)
(1.20729 0.207822 -2.62251e-19)
(1.23229 0.213545 0)
(1.2463 0.215725 1.08467e-19)
(1.25269 0.215249 2.87672e-19)
(1.25421 0.212907 -8.81916e-20)
(1.25294 0.209365 0)
(1.25025 0.205088 0)
(1.24707 0.199892 0)
(0.00940214 -0.00144903 -2.80283e-19)
(0.0573654 -0.0053869 -9.41009e-20)
(0.133612 -0.00237848 0)
(0.234109 0.00693367 1.58057e-19)
(0.354256 0.0228014 -2.94969e-19)
(0.487891 0.04492 0)
(0.627253 0.0719356 -1.2655e-19)
(0.763768 0.101678 -1.12726e-19)
(0.889325 0.131569 -2.09727e-19)
(0.997626 0.159141 -5.74023e-19)
(1.0851 0.182505 3.49692e-19)
(1.15105 0.200614 -1.61266e-19)
(1.19722 0.213266 0)
(1.22685 0.220922 1.29709e-19)
(1.24381 0.224435 -1.412e-21)
(1.25183 0.224789 -1.37191e-21)
(1.25407 0.222909 0)
(1.25293 0.219545 0)
(1.25008 0.21529 0)
(1.2465 0.210444 0)
(1.24289 0.205092 0)
(0.0150433 -0.00240103 0)
(0.0753792 -0.00654406 1.87684e-19)
(0.164849 -0.00155133 0)
(0.278494 0.011224 0)
(0.410393 0.0314446 -1.49179e-19)
(0.552846 0.0581215 2.77796e-19)
(0.696731 0.0891405 -2.65948e-21)
(0.832748 0.121681 -1.16032e-19)
(0.953006 0.152806 1.07039e-19)
(1.05232 0.180063 9.40593e-20)
(1.12876 0.201887 -8.92448e-20)
(1.18333 0.217717 0)
(1.21909 0.227841 1.39485e-19)
(1.24009 0.233101 -1.30695e-19)
(1.25049 0.234575 2.282e-19)
(1.25389 0.233326 -1.04248e-19)
(1.25311 0.230254 9.4567e-20)
(1.25014 0.226035 0)
(1.24626 0.221176 0)
(1.24214 0.215839 -1.32121e-19)
(1.23826 0.210356 0)
(0.0215311 -0.00310517 -9.86388e-20)
(0.0954746 -0.00680334 -9.88293e-20)
(0.198863 0.000895945 0)
(0.325665 0.0177811 -8.6328e-20)
(0.468484 0.0427668 -2.33612e-19)
(0.618058 0.0740473 0)
(0.764135 0.108703 0)
(0.897167 0.143345 0)
(1.01004 0.174866 -1.07038e-19)
(1.09911 0.201032 9.66609e-20)
(1.16424 0.220752 -8.75154e-20)
(1.208 0.23401 -7.98783e-20)
(1.23449 0.241558 -7.22211e-20)
(1.24826 0.24454 0)
(1.25345 0.244172 1.4636e-21)
(1.25339 0.241525 1.01706e-19)
(1.25047 0.237433 -8.95933e-20)
(1.24627 0.232484 8.01078e-20)
(1.24173 0.227085 7.16606e-20)
(1.23729 0.221306 1.31813e-19)
(1.23323 0.215686 -1.16532e-19)
(0.0288727 -0.00347844 0)
(0.11757 -0.00596312 1.97389e-19)
(0.235371 0.005209 2.05133e-21)
(0.375046 0.026811 1.7083e-19)
(0.527616 0.0568495 2.35373e-19)
(0.68236 0.0925991 -7.11613e-20)
(0.828262 0.130353 -1.95546e-19)
(0.956075 0.166307 1.53904e-21)
(1.05997 0.197396 0)
(1.13813 0.221798 1.94849e-19)
(1.19219 0.238999 8.752e-20)
(1.22605 0.249533 1.58391e-19)
(1.24456 0.254552 7.16312e-20)
(1.25243 0.255418 0)
(1.2536 0.253404 -2.06182e-21)
(1.25099 0.249535 -1.00252e-19)
(1.24657 0.244551 8.96022e-20)
(1.24157 0.23895 -2.14831e-21)
(1.23662 0.233046 -7.16676e-20)
(1.232 0.22685 6.41551e-20)
(1.22781 0.221069 0)
(0.0370543 -0.00343433 5.2554e-20)
(0.141522 -0.00382579 0)
(0.274002 0.0116076 -9.15002e-20)
(0.425959 0.0384646 8.84312e-20)
(0.586822 0.0736966 -1.60412e-19)
(0.744637 0.113604 2.21064e-19)
(0.8881 0.153783 -6.81747e-20)
(1.00883 0.190215 1.82104e-19)
(1.10268 0.220106 0)
(1.16978 0.242196 -9.53015e-20)
(1.2134 0.256601 2.59497e-21)
(1.23848 0.264367 7.48131e-20)
(1.25029 0.266968 -1.39315e-19)
(1.25346 0.265895 -6.07434e-20)
(1.25158 0.262409 -1.10144e-19)
(1.24714 0.257455 0)
(1.24171 0.251671 -4.21444e-20)
(1.23619 0.245464 -3.85487e-20)
(1.23101 0.239065 0)
(1.22629 0.232465 5.97194e-20)
(1.222 0.226485 -2.39672e-21)
(0.0460388 -0.00288571 -6.50779e-22)
(0.167127 -0.000205886 0)
(0.314295 0.0202747 -2.41885e-19)
(0.477656 0.0528286 4.52298e-20)
(0.64513 0.0932354 -1.54699e-21)
(0.80388 0.136829 -7.41393e-22)
(0.942863 0.178666 -6.80501e-20)
(1.05506 0.214754 2.78701e-21)
(1.13831 0.242771 1.39733e-21)
(1.19463 0.262131 -9.73887e-20)
(1.2287 0.273582 8.67388e-20)
(1.2462 0.278618 -7.70948e-20)
(1.25251 0.278943 6.84483e-20)
(1.25201 0.276099 6.16679e-20)
(1.24787 0.271288 1.06806e-19)
(1.24214 0.26535 -1.41288e-19)
(1.23605 0.258821 4.31157e-20)
(1.23022 0.252029 0)
(1.22491 0.245133 -6.47923e-20)
(1.22016 0.238129 5.89537e-20)
(1.21578 0.231906 -1.31574e-19)
(0.055765 -0.00174803 5.45474e-20)
(0.19412 0.00506154 5.42908e-20)
(0.355724 0.0313463 1.48161e-19)
(0.529346 0.0699213 0)
(0.701602 0.115323 8.27105e-20)
(0.859225 0.161998 0)
(0.991991 0.204681 -3.33959e-20)
(1.09467 0.239648 3.13986e-20)
(1.16719 0.265226 5.45536e-20)
(1.21333 0.281559 0)
(1.2389 0.289993 0)
(1.24998 0.292388 -3.66923e-20)
(1.25186 0.29059 2.00643e-21)
(1.24857 0.286126 -5.55873e-22)
(1.24279 0.280104 -1.51724e-21)
(1.23618 0.27325 3.48614e-22)
(1.22967 0.266006 0)
(1.22367 0.258632 3.50399e-20)
(1.21833 0.251226 -2.85937e-22)
(1.21359 0.243815 0)
(1.20915 0.237302 2.45543e-20)
(0.0661472 5.72452e-05 0)
(0.222182 0.012113 -5.42905e-20)
(0.397703 0.0449046 -5.00902e-20)
(0.580227 0.0896909 0)
(0.755376 0.139756 0)
(0.909976 0.18881 1.92576e-20)
(1.03515 0.23152 1.72376e-20)
(1.12774 0.264665 2.9811e-20)
(1.18976 0.287351 -8.14408e-20)
(1.22655 0.300468 4.85776e-20)
(1.2447 0.305895 0)
(1.25047 0.305768 -1.83499e-20)
(1.24888 0.301995 0)
(1.24348 0.296037 0)
(1.23655 0.288887 0)
(1.22937 0.28116 1.1684e-20)
(1.22262 0.273213 0)
(1.21657 0.265248 -1.692e-20)
(1.21126 0.257315 -1.48762e-20)
(1.20656 0.249487 2.70672e-20)
(1.2021 0.242636 -1.23322e-20)
(0.0770766 0.00259917 0)
(0.25095 0.0210495 0)
(0.439617 0.0609721 0)
(0.62952 0.112019 0)
(0.805694 0.166282 1.05085e-20)
(0.95561 0.216952 -2.9153e-20)
(1.07218 0.258898 -1.72382e-20)
(1.15449 0.289614 7.41789e-21)
(1.20654 0.309066 2.00959e-20)
(1.23492 0.318866 -3.52718e-20)
(1.24675 0.321347 1.07463e-20)
(1.2482 0.318828 9.56935e-21)
(1.24393 0.313214 8.23325e-21)
(1.23701 0.305863 0)
(1.22929 0.297644 -5.91407e-21)
(1.22176 0.289066 1.64466e-20)
(1.21491 0.280414 0)
(1.20889 0.27184 1.69216e-20)
(1.20366 0.263362 0)
(1.19904 0.255103 0)
(1.1946 0.247867 0)
(0.0884231 0.00593407 0)
(0.280023 0.0319309 0)
(0.480835 0.0795102 0)
(0.67649 0.136725 0)
(0.851918 0.194613 -1.05859e-20)
(0.995768 0.246107 -9.47148e-21)
(1.10309 0.286556 -1.7213e-20)
(1.17526 0.314335 0)
(1.21805 0.33031 2.6435e-20)
(1.23903 0.336766 -1.17932e-20)
(1.24556 0.336393 -7.47956e-22)
(1.24358 0.331616 1.67669e-20)
(1.23729 0.324277 -8.00574e-21)
(1.22929 0.315609 0)
(1.22108 0.306357 5.68222e-21)
(1.21338 0.296936 4.70748e-21)
(1.20654 0.287569 0)
(1.20061 0.278368 1.53303e-20)
(1.19553 0.269326 0)
(1.19104 0.260618 0)
(1.18666 0.252955 0)
(0.100038 0.0101027 0)
(0.308978 0.0447717 -5.79202e-20)
(0.520735 0.100419 -5.32169e-20)
(0.720474 0.163575 0)
(0.893539 0.224433 0)
(1.03024 0.275966 1.94402e-20)
(1.128 0.314258 1.72139e-20)
(1.19041 0.338693 -2.90233e-20)
(1.22478 0.351038 2.60995e-20)
(1.23937 0.354174 -6.95071e-22)
(1.24156 0.351062 0)
(1.23692 0.344151 -1.7417e-20)
(1.22915 0.335184 0)
(1.22045 0.325258 0)
(1.21196 0.314995 0)
(1.20424 0.304729 9.02835e-21)
(1.19749 0.294632 0)
(1.19173 0.284784 -1.53319e-20)
(1.18684 0.275159 1.26335e-20)
(1.18252 0.265981 -2.28786e-20)
(1.17828 0.257852 1.04078e-20)
(0.11176 0.0151276 6.01115e-20)
(0.337379 0.0595388 5.79201e-20)
(0.558723 0.12354 1.6033e-19)
(0.760894 0.192291 0)
(0.930175 0.255411 8.71769e-20)
(1.05895 0.306229 0)
(1.14711 0.34179 3.27829e-20)
(1.20036 0.36257 -3.0825e-20)
(1.22722 0.371207 5.06566e-20)
(1.23639 0.371089 0)
(1.23509 0.365359 0)
(1.22844 0.356431 3.18031e-20)
(1.21966 0.345918 -2.32303e-21)
(1.21054 0.334774 -9.76875e-20)
(1.20196 0.323513 1.66892e-21)
(1.19432 0.312394 3.61927e-20)
(1.18774 0.301552 0)
(1.1822 0.291038 -2.70527e-20)
(1.17756 0.28081 4.87776e-20)
(1.17348 0.271133 0)