/*--------------------------------*- C++ -*----------------------------------*\
  =========                 |
  \\      /  F ield         | OpenFOAM: The Open Source CFD Toolbox
   \\    /   O peration     | Website:  https://openfoam.org
    \\  /    A nd           | Version:  7
     \\/     M anipulation  |
\*---------------------------------------------------------------------------*/
FoamFile
{
    version     2.0;
    format      ascii;
    class       volScalarField;
    location    "15";
    object      p;
}
// * * * * * * * * * * * * * * * * * * * * * * * * * * * * * * * * * * * * * //

dimensions      [0 2 -2 0 0 0 0];

internalField   nonuniform List<scalar> 
392
(
-0.0616623
-0.0595413
-0.0575122
-0.0616882
-0.0595662
-0.0575361
-0.0617399
-0.0596159
-0.0575838
-0.0618176
-0.0596903
-0.0576553
-0.0619209
-0.0597895
-0.0577505
-0.06205
-0.0599133
-0.0578693
-0.0622045
-0.0600615
-0.0580116
-0.0623844
-0.0602341
-0.0581772
-0.0625894
-0.0604308
-0.058366
-0.0628194
-0.0606514
-0.0585777
-0.063074
-0.0608957
-0.0588121
-0.063353
-0.0611633
-0.0590689
-0.0636561
-0.061454
-0.0593479
-0.0573323
-0.0639829
-0.0617675
-0.0596486
-0.057621
-0.0643331
-0.0621033
-0.0599708
-0.0579302
-0.062461
-0.0603139
-0.0582596
-0.0628403
-0.0606777
-0.0586087
-0.0632409
-0.061062
-0.0589774
-0.0636624
-0.0614662
-0.0593652
-0.0641016
-0.0618874
-0.0597693
-0.0645546
-0.062322
-0.0601862
-0.0581419
-0.0627888
-0.0606338
-0.0585712
-0.0633395
-0.0611612
-0.0590765
-0.0638522
-0.061654
-0.0595502
-0.0640753
-0.0618752
-0.0597696
-0.0645542
-0.0623584
-0.0602555
-0.0649737
-0.0627875
-0.0606921
-0.0653849
-0.0632109
-0.0611254
-0.0657918
-0.0636329
-0.06156
-0.0661834
-0.0640431
-0.0619859
-0.0665527
-0.0644345
-0.0623961
-0.0668936
-0.064801
-0.0627848
-0.0672008
-0.0651373
-0.0631463
-0.06747
-0.065439
-0.0634763
-0.0676983
-0.0657027
-0.0637713
-0.0678838
-0.0659264
-0.0640288
-0.0680263
-0.0661094
-0.0642479
-0.0681263
-0.0662518
-0.0644282
-0.0681854
-0.0663548
-0.0645707
-0.068206
-0.0664203
-0.0646768
-0.0681911
-0.066451
-0.0647487
-0.0681439
-0.0664496
-0.0647889
-0.0680682
-0.0664194
-0.0648003
-0.0679675
-0.0663638
-0.0647859
-0.0678456
-0.0662863
-0.064749
-0.0677063
-0.0661902
-0.0646927
-0.0675531
-0.066079
-0.06462
-0.0673896
-0.0659558
-0.0645342
-0.0672188
-0.0658238
-0.064438
-0.0670441
-0.065686
-0.0643344
-0.0668683
-0.0655451
-0.0642258
-0.0666941
-0.0654037
-0.0641148
-0.0665239
-0.0652641
-0.0640037
-0.0663601
-0.0651286
-0.0638946
-0.0662048
-0.0649992
-0.0637893
-0.0660598
-0.0648777
-0.0636897
-0.0659268
-0.0647657
-0.0635973
-0.0658072
-0.0646646
-0.0635135
-0.0657024
-0.0645757
-0.0634394
-0.0656134
-0.0645
-0.0633761
-0.0655411
-0.0644384
-0.0633245
-0.0654863
-0.0643916
-0.0632852
-0.0654495
-0.06436
-0.0632587
-0.065431
-0.0643442
-0.0632454
-0.0640754
-0.0645542
-0.0649737
-0.0653849
-0.0657917
-0.0661834
-0.0665526
-0.0668935
-0.0672006
-0.0674699
-0.0676981
-0.0678837
-0.0680261
-0.0681261
-0.0681852
-0.0682058
-0.0681909
-0.0681437
-0.068068
-0.0679673
-0.0678455
-0.0677062
-0.067553
-0.0673894
-0.0672187
-0.067044
-0.0668681
-0.0666939
-0.0665238
-0.06636
-0.0662047
-0.0660597
-0.0659266
-0.0658071
-0.0657023
-0.0656133
-0.065541
-0.0654862
-0.0654493
-0.0654308
-0.0618752
-0.0623584
-0.0627874
-0.0632108
-0.0636328
-0.064043
-0.0644344
-0.0648009
-0.0651371
-0.0654388
-0.0657025
-0.0659262
-0.0661092
-0.0662516
-0.0663546
-0.0664201
-0.0664507
-0.0664494
-0.0664192
-0.0663636
-0.0662861
-0.06619
-0.0660788
-0.0659556
-0.0658237
-0.0656858
-0.0655449
-0.0654035
-0.0652639
-0.0651285
-0.0649991
-0.0648776
-0.0647655
-0.0646645
-0.0645755
-0.0644998
-0.0644382
-0.0643914
-0.0643599
-0.0643441
-0.0597695
-0.0602554
-0.060692
-0.0611252
-0.0615598
-0.0619858
-0.062396
-0.0627845
-0.0631461
-0.0634761
-0.063771
-0.0640286
-0.0642476
-0.064428
-0.0645705
-0.0646766
-0.0647485
-0.0647887
-0.0648001
-0.0647857
-0.0647488
-0.0646925
-0.0646198
-0.064534
-0.0644378
-0.0643342
-0.0642256
-0.0641146
-0.0640035
-0.0638944
-0.0637892
-0.0636896
-0.0635971
-0.0635133
-0.0634392
-0.063376
-0.0633243
-0.063285
-0.0632585
-0.0632452
-0.0638523
-0.061654
-0.0595502
-0.0633395
-0.0611612
-0.0590765
-0.0627889
-0.0606339
-0.0585712
-0.0645547
-0.062322
-0.0601862
-0.0581419
-0.0641017
-0.0618875
-0.0597693
-0.0636625
-0.0614663
-0.0593652
-0.063241
-0.061062
-0.0589774
-0.0628403
-0.0606778
-0.0586087
-0.0624611
-0.060314
-0.0582596
-0.0643332
-0.0621033
-0.0599708
-0.0579302
-0.063983
-0.0617675
-0.0596486
-0.057621
-0.0636562
-0.0614541
-0.0593479
-0.0573323
-0.0633531
-0.0611634
-0.0590689
-0.0630741
-0.0608957
-0.0588121
-0.0628195
-0.0606515
-0.0585777
-0.0625895
-0.0604309
-0.058366
-0.0623844
-0.0602342
-0.0581772
-0.0622045
-0.0600616
-0.0580116
-0.06205
-0.0599133
-0.0578693
-0.061921
-0.0597895
-0.0577505
-0.0618176
-0.0596903
-0.0576553
-0.06174
-0.0596159
-0.0575838
-0.0616882
-0.0595662
-0.0575361
-0.0616623
-0.0595413
-0.0575122
)
;

boundaryField
{
    inlet
    {
        type            zeroGradient;
    }
    outlet
    {
        type            fixedValue;
        value           nonuniform 0();
    }
    cylinder
    {
        type            zeroGradient;
    }
    top
    {
        type            symmetryPlane;
    }
    bottom
    {
        type            symmetryPlane;
    }
    defaultFaces
    {
        type            empty;
    }
    procBoundary39to38
    {
        type            processor;
        value           nonuniform List<scalar> 
132
(
-0.0638802
-0.0639072
-0.0639612
-0.0640421
-0.0641499
-0.0642844
-0.0644456
-0.0646331
-0.0648469
-0.0650867
-0.0653523
-0.0656432
-0.0659593
-0.0663001
-0.0666652
-0.0647061
-0.0647061
-0.0651015
-0.0655193
-0.0659588
-0.0664168
-0.0668892
-0.0650417
-0.0650417
-0.0656166
-0.06615
-0.0663749
-0.0668477
-0.0672554
-0.067652
-0.0680408
-0.0684106
-0.0687542
-0.0690656
-0.0693395
-0.0695719
-0.0697601
-0.0699028
-0.07
-0.0700527
-0.0700632
-0.0700342
-0.0699691
-0.0698718
-0.0697461
-0.0695962
-0.0694262
-0.0692399
-0.0690413
-0.068834
-0.0686215
-0.068407
-0.0681936
-0.0679841
-0.0677811
-0.067587
-0.0674039
-0.0672338
-0.0670783
-0.066939
-0.0668172
-0.0667141
-0.0666304
-0.066567
-0.0665245
-0.0665032
-0.0663751
-0.0668478
-0.0672555
-0.0676521
-0.0680408
-0.0684106
-0.0687542
-0.0690655
-0.0693394
-0.0695718
-0.06976
-0.0699027
-0.0699999
-0.0700526
-0.070063
-0.070034
-0.069969
-0.0698716
-0.069746
-0.0695961
-0.069426
-0.0692398
-0.0690411
-0.0688338
-0.0686213
-0.0684069
-0.0681935
-0.067984
-0.067781
-0.0675869
-0.0674038
-0.0672336
-0.0670782
-0.0669389
-0.0668171
-0.0667139
-0.0666303
-0.0665669
-0.0665244
-0.066503
-0.0661501
-0.0656167
-0.0650418
-0.0650418
-0.0668894
-0.066417
-0.065959
-0.0655194
-0.0651017
-0.0647062
-0.0647062
-0.0666654
-0.0663003
-0.0659595
-0.0656434
-0.0653524
-0.0650869
-0.064847
-0.0646332
-0.0644457
-0.0642845
-0.06415
-0.0640422
-0.0639612
-0.0639072
-0.0638802
)
;
    }
    procBoundary39to40
    {
        type            processor;
        value           nonuniform List<scalar> 
132
(
-0.0555701
-0.055593
-0.0556388
-0.0557074
-0.0557988
-0.0559129
-0.0560495
-0.0562085
-0.0563898
-0.056593
-0.056818
-0.0570646
-0.0570646
-0.0554027
-0.0556798
-0.0559767
-0.0562928
-0.0566279
-0.0569818
-0.057354
-0.0577418
-0.0577418
-0.0561843
-0.0565962
-0.0570804
-0.0575358
-0.0577534
-0.0582406
-0.058683
-0.0591241
-0.0595691
-0.0600081
-0.0604342
-0.0608417
-0.061225
-0.0615797
-0.061902
-0.0621893
-0.0624404
-0.0626546
-0.0628324
-0.062975
-0.0630841
-0.0631619
-0.0632111
-0.0632344
-0.0632345
-0.0632146
-0.0631774
-0.0631259
-0.0630628
-0.0629906
-0.062912
-0.0628293
-0.0627445
-0.0626599
-0.0625771
-0.0624979
-0.0624237
-0.0623559
-0.0622957
-0.062244
-0.0622017
-0.0621694
-0.0621476
-0.0621366
-0.0577533
-0.0582404
-0.0586828
-0.059124
-0.0595689
-0.0600078
-0.0604339
-0.0608414
-0.0612248
-0.0615794
-0.0619017
-0.0621891
-0.0624401
-0.0626543
-0.0628321
-0.0629747
-0.0630838
-0.0631617
-0.0632109
-0.0632341
-0.0632343
-0.0632144
-0.0631772
-0.0631257
-0.0630626
-0.0629904
-0.0629118
-0.0628291
-0.0627444
-0.0626597
-0.0625769
-0.0624977
-0.0624235
-0.0623558
-0.0622955
-0.0622439
-0.0622015
-0.0621692
-0.0621474
-0.0621364
-0.0575357
-0.0570803
-0.0565961
-0.0561842
-0.0577418
-0.0577418
-0.0573539
-0.0569817
-0.0566279
-0.0562928
-0.0559766
-0.0556798
-0.0554026
-0.0570646
-0.0570646
-0.056818
-0.056593
-0.0563897
-0.0562085
-0.0560495
-0.0559129
-0.0557988
-0.0557074
-0.0556388
-0.055593
-0.0555701
)
;
    }
}


// ************************************************************************* //
