/*--------------------------------*- C++ -*----------------------------------*\
  =========                 |
  \\      /  F ield         | OpenFOAM: The Open Source CFD Toolbox
   \\    /   O peration     | Website:  https://openfoam.org
    \\  /    A nd           | Version:  7
     \\/     M anipulation  |
\*---------------------------------------------------------------------------*/
FoamFile
{
    version     2.0;
    format      ascii;
    class       surfaceScalarField;
    location    "69";
    object      phi;
}
// * * * * * * * * * * * * * * * * * * * * * * * * * * * * * * * * * * * * * //

dimensions      [0 3 -1 0 0 0 0];

internalField   nonuniform List<scalar> 
79480
(
-7.37259e-07
2.83638e-06
-2.09912e-06
-2.83986e-06
8.31902e-06
-6.21641e-06
-6.2578e-06
1.38177e-05
-1.03998e-05
-1.09392e-05
1.93015e-05
-1.46201e-05
-1.68297e-05
2.47375e-05
-1.8847e-05
-2.38728e-05
3.00961e-05
-2.30529e-05
-3.20106e-05
3.53531e-05
-2.72153e-05
-4.11836e-05
4.04917e-05
-3.13187e-05
-5.13314e-05
4.55041e-05
-3.53563e-05
-6.2393e-05
5.03934e-05
-3.93318e-05
-7.43072e-05
5.51744e-05
-4.32602e-05
-8.7013e-05
5.98741e-05
-4.71683e-05
-0.00010045
6.45308e-05
-5.1094e-05
-0.000114558
6.91927e-05
-5.50848e-05
-0.000129278
7.39158e-05
-5.91957e-05
-0.000144552
7.87614e-05
-6.3487e-05
-0.000160325
8.37933e-05
-6.80204e-05
-0.000176543
8.90746e-05
-7.2857e-05
-0.000193155
9.46657e-05
-7.80533e-05
-0.000210118
0.000100623
-8.36596e-05
-0.000227395
0.000106995
-8.97179e-05
-0.000244963
0.000113828
-9.62602e-05
-0.000262815
0.00012116
-0.000103308
-0.000280969
0.000129027
-0.000110874
-0.000299471
0.00013746
-0.000118958
-0.000318406
0.000146487
-0.000127552
-0.000337899
0.000156132
-0.000136639
-0.000358118
0.000166405
-0.000146187
-0.000379264
0.000177296
-0.00015615
0.00018879
-0.000166451
-0.000401603
-7.14352e-07
3.55073e-06
-2.75408e-06
1.03587e-05
-6.07283e-06
1.71364e-05
-1.0622e-05
2.38507e-05
-1.63504e-05
3.04659e-05
-2.32042e-05
3.69499e-05
-3.11277e-05
4.32766e-05
-4.00632e-05
4.94272e-05
-4.99515e-05
5.53924e-05
-6.07325e-05
6.11744e-05
-7.23452e-05
6.67871e-05
-8.47282e-05
7.22571e-05
-9.78199e-05
7.76226e-05
-0.000111559
8.29317e-05
-0.000125884
8.8241e-05
-0.000140735
9.36124e-05
-0.000156053
9.91106e-05
-0.000171779
0.000104801
-0.000187859
0.000110746
-0.000204244
0.000117007
-0.00022089
0.000123642
-0.000237767
0.000130705
-0.00025486
0.000138253
-0.000272176
0.000146343
-0.000289752
0.000155036
-0.000307662
0.000164397
-0.000326023
0.000174493
-0.000344994
0.000185377
-0.000364779
0.00019708
0.00020966
-0.000385649
-6.86508e-07
4.23724e-06
-2.64964e-06
1.23219e-05
-5.84726e-06
2.03341e-05
-1.02346e-05
2.82381e-05
-1.57638e-05
3.5995e-05
-2.2384e-05
4.35701e-05
-3.00418e-05
5.09345e-05
-3.86815e-05
5.80669e-05
-4.82452e-05
6.49561e-05
-5.86734e-05
7.16025e-05
-6.9905e-05
7.80187e-05
-8.18779e-05
8.42301e-05
-9.45292e-05
9.02738e-05
-0.000107795
9.61977e-05
-0.000121612
0.000102058
-0.000135915
0.000107915
-0.00015064
0.000113836
-0.000165724
0.000119885
-0.000181106
0.000126128
-0.000196727
0.000132628
-0.000212534
0.000139449
-0.000228485
0.000146656
-0.00024455
0.000154319
-0.000260722
0.000162515
-0.00027702
0.000171334
-0.0002935
0.000180878
-0.000310266
0.000191259
-0.000327467
0.000202578
-0.000345304
0.000214918
0.000228415
-0.000364059
-6.54183e-07
4.89142e-06
-2.5282e-06
1.41959e-05
-5.58453e-06
2.33904e-05
-9.78255e-06
3.24361e-05
-1.5078e-05
4.12905e-05
-2.14231e-05
4.99153e-05
-2.87671e-05
5.82784e-05
-3.70559e-05
6.63557e-05
-4.62328e-05
7.41331e-05
-5.62388e-05
8.16085e-05
-6.70126e-05
8.87925e-05
-7.8491e-05
9.57084e-05
-9.06091e-05
0.000102392
-0.0001033
0.000108889
-0.000116497
0.000115254
-0.00013013
0.000121548
-0.000144129
0.000127835
-0.000158424
0.00013418
-0.000172943
0.000140647
-0.000187618
0.000147303
-0.000202382
0.000154213
-0.000217176
0.00016145
-0.000231951
0.000169094
-0.000246678
0.000177241
-0.000261352
0.000186007
-0.000276005
0.000195531
-0.000290718
0.000205972
-0.000305629
0.000217489
-0.000320933
0.000230222
0.000244406
-0.000336924
-6.17913e-07
5.50934e-06
-2.39169e-06
1.59697e-05
-5.2887e-06
2.62874e-05
-9.27262e-06
3.642e-05
-1.43029e-05
4.63207e-05
-2.03349e-05
5.59473e-05
-2.73202e-05
6.52637e-05
-3.52065e-05
7.4242e-05
-4.39382e-05
8.28648e-05
-5.34563e-05
9.11267e-05
-6.3699e-05
9.90352e-05
-7.46016e-05
0.000106611
-8.60967e-05
0.000113887
-9.81146e-05
0.000120907
-0.000110583
0.000127723
-0.000123426
0.000134392
-0.000136568
0.000140977
-0.000149928
0.00014754
-0.000163425
0.000154144
-0.000176975
0.000160853
-0.000190496
0.000167734
-0.000203908
0.000174862
-0.000217138
0.000182324
-0.000230127
0.000190231
-0.00024284
0.00019872
-0.000255276
0.000207967
-0.000267488
0.000218184
-0.000279593
0.000229594
-0.00029178
0.000242409
0.000256982
-0.000304357
-5.78307e-07
6.08764e-06
-2.24231e-06
1.76337e-05
-4.96437e-06
2.90095e-05
-8.71244e-06
4.01681e-05
-1.34496e-05
5.10579e-05
-1.91343e-05
6.1632e-05
-2.57203e-05
7.18496e-05
-3.31567e-05
8.16784e-05
-4.13887e-05
9.10968e-05
-5.03572e-05
0.000100095
-5.99993e-05
0.000108677
-7.02485e-05
0.00011686
-8.10344e-05
0.000124673
-9.22832e-05
0.000132156
-0.000103917
0.000139357
-0.000115855
0.00014633
-0.000128011
0.000153133
-0.000140294
0.000159823
-0.000152611
0.000166461
-0.000164863
0.000173104
-0.000176946
0.000179817
-0.000188757
0.000186673
-0.000200194
0.000193761
-0.000211162
0.000201199
-0.000221588
0.000209145
-0.000231429
0.000217808
-0.000240699
0.000227454
-0.000249489
0.000238385
-0.000257977
0.000250897
0.00026549
-0.000266485
-5.36037e-07
6.62368e-06
-2.0825e-06
1.91801e-05
-4.61663e-06
3.15436e-05
-8.1105e-06
4.3662e-05
-1.25306e-05
5.54781e-05
-1.78381e-05
6.69394e-05
-2.39885e-05
7.8e-05
-3.09322e-05
8.86222e-05
-3.86147e-05
9.87792e-05
-4.69763e-05
0.000108457
-5.59527e-05
0.000117654
-6.54748e-05
0.000126382
-7.54689e-05
0.000134667
-8.58564e-05
0.000142543
-9.65537e-05
0.000150054
-0.000107472
0.000157248
-0.000118515
0.000164176
-0.000129583
0.000170891
-0.000140566
0.000177444
-0.000151347
0.000183886
-0.000161803
0.000190273
-0.0001718
0.00019667
-0.000181204
0.000203165
-0.000189879
0.000209875
-0.000197704
0.00021697
-0.000204584
0.000224689
-0.000210484
0.000233353
-0.000215458
0.000243359
-0.000219667
0.000255106
0.000269263
-0.000223439
-4.91829e-07
7.11551e-06
-1.91489e-06
2.06032e-05
-4.25101e-06
3.38797e-05
-7.47597e-06
4.68869e-05
-1.15593e-05
5.95614e-05
-1.64642e-05
7.18444e-05
-2.21479e-05
8.36836e-05
-2.85612e-05
9.50355e-05
-3.56494e-05
0.000105867
-4.33517e-05
0.000116159
-5.16019e-05
0.000125904
-6.03278e-05
0.000135108
-6.94515e-05
0.000143791
-7.88891e-05
0.000151981
-8.85503e-05
0.000159715
-9.83375e-05
0.000167035
-0.000108146
0.000173984
-0.00011786
0.000180606
-0.000127357
0.00018694
-0.000136499
0.000193028
-0.00014514
0.000198913
-0.000153115
0.000204646
-0.000160253
0.000210302
-0.000166372
0.000215994
-0.000171294
0.000221892
-0.000174862
0.000228257
-0.000176977
0.000235468
-0.000177644
0.000244026
-0.000176999
0.00025446
0.000267611
-0.000175346
-4.46448e-07
7.56196e-06
-1.74227e-06
2.1899e-05
-3.87333e-06
3.60108e-05
-6.81858e-06
4.98322e-05
-1.05499e-05
6.32927e-05
-1.50321e-05
7.63266e-05
-2.0223e-05
8.88745e-05
-2.60736e-05
0.000100886
-3.25281e-05
0.000112322
-3.95242e-05
0.000123155
-4.69927e-05
0.000133372
-5.48578e-05
0.000142973
-6.30367e-05
0.00015197
-7.14395e-05
0.000160383
-7.99681e-05
0.000168244
-8.85159e-05
0.000175583
-9.69663e-05
0.000182435
-0.000105192
0.000188831
-0.000113051
0.000194799
-0.000120387
0.000200365
-0.000127027
0.000205552
-0.000132775
0.000210394
-0.000137418
0.000214945
-0.000140724
0.000219299
-0.000142451
0.000223619
-0.000142369
0.000228175
-0.000140297
0.000233396
-0.000136178
0.000239908
-0.000130118
0.000248399
0.000259803
-0.000122311
-4.00689e-07
7.96265e-06
-1.56751e-06
2.30658e-05
-3.48966e-06
3.79329e-05
-6.14842e-06
5.24909e-05
-9.51722e-06
6.66615e-05
-1.35616e-05
8.03709e-05
-1.82393e-05
9.35523e-05
-2.35006e-05
0.000106147
-2.92878e-05
0.000118109
-3.55361e-05
0.000129403
-4.21727e-05
0.000140009
-4.91174e-05
0.000149918
-5.62816e-05
0.000159134
-6.35681e-05
0.00016767
-7.08707e-05
0.000175546
-7.80723e-05
0.000182784
-8.50444e-05
0.000189407
-9.16444e-05
0.000195431
-9.77136e-05
0.000200869
-0.000103074
0.000205725
-0.000107525
0.000210003
-0.000110838
0.000213708
-0.000112757
0.000216864
-0.000112994
0.000219537
-0.00011124
0.000221865
-0.000107178
0.000224113
-0.00010053
0.000226748
-9.11472e-05
0.000230525
-7.91641e-05
0.000236416
0.000245102
-6.44631e-05
-3.55358e-07
8.318e-06
-1.39355e-06
2.4104e-05
-3.10613e-06
3.96455e-05
-5.47575e-06
5.48606e-05
-8.47636e-06
6.96621e-05
-1.20732e-05
8.39678e-05
-1.62231e-05
9.77021e-05
-2.08741e-05
0.000110798
-2.59663e-05
0.000123201
-3.1431e-05
0.000134868
-3.71911e-05
0.000145769
-4.31606e-05
0.000155887
-4.92442e-05
0.000165217
-5.53368e-05
0.000173763
-6.13222e-05
0.000181532
-6.70723e-05
0.000188535
-7.24449e-05
0.00019478
-7.72817e-05
0.000200268
-8.14053e-05
0.000204992
-8.4615e-05
0.000208935
-8.66822e-05
0.00021207
-8.73448e-05
0.00021437
-8.63018e-05
0.000215821
-8.32091e-05
0.000216444
-7.76819e-05
0.000216337
-6.93104e-05
0.000215742
-5.76999e-05
0.000215137
-4.25373e-05
0.000215363
-2.38571e-05
0.000217736
0.000224653
-3.40746e-06
-3.11255e-07
8.62926e-06
-1.22328e-06
2.5016e-05
-2.72884e-06
4.11511e-05
-4.81076e-06
5.69425e-05
-7.44228e-06
7.22936e-05
-1.05872e-05
8.71127e-05
-1.42001e-05
0.000101315
-1.82261e-05
0.000114824
-2.26012e-05
0.000127577
-2.72523e-05
0.000139519
-3.20964e-05
0.000150613
-3.70409e-05
0.000160832
-4.19824e-05
0.000170159
-4.68063e-05
0.000178587
-5.13855e-05
0.000186111
-5.55789e-05
0.000192728
-5.92295e-05
0.00019843
-6.21617e-05
0.0002032
-6.41776e-05
0.000207008
-6.50525e-05
0.00020981
-6.45292e-05
0.000211547
-6.23104e-05
0.000212152
-5.80504e-05
0.000211561
-5.13472e-05
0.000209741
-4.17387e-05
0.000206729
-2.87114e-05
0.000202714
-1.17411e-05
0.000198167
9.61501e-06
0.000194007
3.55443e-05
0.000191807
0.000194956
6.52405e-05
-2.69156e-07
8.89842e-06
-1.05953e-06
2.58064e-05
-2.3637e-06
4.24552e-05
-4.16327e-06
5.8742e-05
-6.42946e-06
7.45598e-05
-9.12324e-06
8.98065e-05
-1.21955e-05
0.000104387
-1.55871e-05
0.000118216
-1.9229e-05
0.000131218
-2.30419e-05
0.000143332
-2.69358e-05
0.000154507
-3.08099e-05
0.000164706
-3.45513e-05
0.0001739
-3.80344e-05
0.00018207
-4.11193e-05
0.000189196
-4.36502e-05
0.000195259
-4.54531e-05
0.000200233
-4.63328e-05
0.00020408
-4.60691e-05
0.000206744
-4.44112e-05
0.000208152
-4.10715e-05
0.000208207
-3.57163e-05
0.000206796
-2.79549e-05
0.0002038
-1.73273e-05
0.000199113
-3.29345e-06
0.000192695
1.4768e-05
0.000184653
3.75305e-05
0.000175404
6.56053e-05
0.000165932
9.92579e-05
0.000158154
0.000156128
0.000138087
-2.29793e-07
9.12821e-06
-9.04921e-07
2.64815e-05
-2.01622e-06
4.35665e-05
-3.5425e-06
6.02683e-05
-5.45139e-06
7.64687e-05
-7.69951e-06
9.20546e-05
-1.02326e-05
0.00010692
-1.29859e-05
0.000120969
-1.58835e-05
0.000134116
-1.88386e-05
0.000146287
-2.17527e-05
0.000157421
-2.4515e-05
0.000167468
-2.70013e-05
0.000176387
-2.90731e-05
0.000184141
-3.05755e-05
0.000190698
-3.13356e-05
0.000196019
-3.11596e-05
0.000200057
-2.98301e-05
0.00020275
-2.71011e-05
0.000204015
-2.26931e-05
0.000203744
-1.62849e-05
0.000201799
-7.50428e-06
0.000198016
4.08566e-06
0.00019221
1.90024e-05
0.000184196
3.78624e-05
0.000173835
6.13957e-05
0.00016112
9.04335e-05
0.000146367
0.000125798
0.000130568
0.000168026
0.000115926
0.000107402
0.000216752
-1.93826e-07
9.32204e-06
-7.61827e-07
2.70495e-05
-1.69133e-06
4.4496e-05
-2.95665e-06
6.15337e-05
-4.5201e-06
7.80322e-05
-6.33228e-06
9.38668e-05
-8.33227e-06
0.00010892
-1.04477e-05
0.000123085
-1.25944e-05
0.000136263
-1.46764e-05
0.000148369
-1.65846e-05
0.00015933
-1.81966e-05
0.00016908
-1.93747e-05
0.000177565
-1.99649e-05
0.000184732
-1.97948e-05
0.000190528
-1.86712e-05
0.000194895
-1.63773e-05
0.000197763
-1.26693e-05
0.000199042
-7.2717e-06
0.000198618
1.28889e-07
0.000196343
9.89137e-06
0.000192036
2.24307e-05
0.000185476
3.82327e-05
0.000176408
5.7873e-05
0.000164556
8.20424e-05
0.000149666
0.000111574
0.000131588
0.000147458
0.000110483
0.000190758
8.72678e-05
0.000242323
6.43608e-05
4.77272e-05
0.000301998
-1.61824e-07
9.48386e-06
-6.32258e-07
2.752e-05
-1.3932e-06
4.5257e-05
-2.41258e-06
6.2553e-05
-3.64558e-06
7.92652e-05
-5.03498e-06
9.52562e-05
-6.51133e-06
0.000110397
-7.99295e-06
0.000124566
-9.38566e-06
0.000137655
-1.05821e-05
0.000149566
-1.1461e-05
0.000160208
-1.18855e-05
0.000169505
-1.17022e-05
0.000177382
-1.07388e-05
0.000183768
-8.80197e-06
0.000188591
-5.6746e-06
0.000191768
-1.11256e-06
0.000193201
5.15929e-06
0.00019277
1.3452e-05
0.000190325
2.41186e-05
0.000185677
3.75625e-05
0.000178592
5.42479e-05
0.000168791
7.47149e-05
0.000155941
9.96004e-05
0.000139671
0.000129667
0.000119599
0.000165844
9.54108e-05
0.000209268
6.70589e-05
0.00026125
3.52856e-05
0.000323001
2.61039e-06
-2.40697e-05
0.000394797
-1.3423e-07
9.61809e-06
-5.17762e-07
2.79035e-05
-1.12497e-06
4.58642e-05
-1.91542e-06
6.33435e-05
-2.8352e-06
8.0185e-05
-3.81733e-06
9.62383e-05
-4.78193e-06
0.000111361
-5.6361e-06
0.00012542
-6.27349e-06
0.000138293
-6.57342e-06
0.000149865
-6.39968e-06
0.000160035
-5.59894e-06
0.000168704
-3.99877e-06
0.000175781
-1.40529e-06
0.000181175
2.39962e-06
0.000184786
7.66157e-06
0.000186506
1.46574e-05
0.000186205
2.36997e-05
0.000183728
3.51421e-05
0.000178883
4.93857e-05
0.000171433
6.68869e-05
0.000161091
8.81687e-05
0.000147509
0.000113834
0.000130275
0.000144588
0.000108917
0.000181265
8.29216e-05
0.00022488
5.17958e-05
0.000276695
1.52442e-05
0.00033825
-2.62694e-05
0.000411139
-7.02786e-05
-0.00010927
0.000496339
-1.11341e-07
9.72943e-06
-4.19317e-07
2.82115e-05
-8.88579e-07
4.63335e-05
-1.46819e-06
6.39231e-05
-2.09309e-06
8.08099e-05
-2.68452e-06
9.68298e-05
-3.15011e-06
0.000111827
-3.38366e-06
0.000125654
-3.2644e-06
0.000138174
-2.6559e-06
0.000149257
-1.40448e-06
0.000158783
6.62832e-07
0.000166637
3.74078e-06
0.000172704
8.04882e-06
0.000176867
1.38345e-05
0.000179
2.13773e-05
0.000178963
3.09931e-05
0.00017659
4.30394e-05
0.000171682
5.79209e-05
0.000164001
7.60964e-05
0.000153258
9.8087e-05
0.000139101
0.000124486
0.00012111
0.000155972
9.87897e-05
0.000193325
7.15632e-05
0.000237461
3.87862e-05
0.000289469
-2.12028e-07
0.000350705
-4.59924e-05
0.000422896
-9.84603e-05
0.000507984
-0.000155367
-0.00020922
0.000607934
-9.3274e-08
9.8227e-06
-3.37231e-07
2.84554e-05
-6.84472e-07
4.66807e-05
-1.07135e-06
6.431e-05
-1.41953e-06
8.1158e-05
-1.63632e-06
9.70466e-05
-1.6147e-06
0.000111805
-1.23283e-06
0.000125272
-3.53143e-07
0.000137294
1.17919e-06
0.000147725
3.5384e-06
0.000156424
6.92052e-06
0.000163255
1.15466e-05
0.000168077
1.76662e-05
0.000170747
2.55616e-05
0.000171105
3.55526e-05
0.000168972
4.80015e-05
0.000164141
6.3319e-05
0.000156364
8.19711e-05
0.000145349
0.000104485
0.000130743
0.00013146
0.000112126
0.000163573
8.89974e-05
0.000201591
6.07715e-05
0.000246387
2.67672e-05
0.000298959
-1.3786e-05
0.000360471
-6.17232e-05
0.000432336
-0.000117858
0.000516397
-0.000182521
0.000614842
-0.000253812
-0.000325253
0.000730875
-7.99415e-08
9.90265e-06
-2.71042e-07
2.86465e-05
-5.11446e-07
4.69211e-05
-7.22537e-07
6.45211e-05
-8.1044e-07
8.12459e-05
-6.66304e-07
9.69024e-05
-1.66113e-07
0.000111305
8.29928e-07
0.000124276
2.479e-06
0.000135645
4.95743e-06
0.000145246
8.46327e-06
0.000152918
1.32196e-05
0.000158498
1.94783e-05
0.000161819
2.75243e-05
0.000162701
3.76811e-05
0.000160948
5.03156e-05
0.000156338
6.58449e-05
0.000148611
8.47428e-05
0.000137466
0.000107547
0.000122545
0.000134866
0.000103424
0.000167389
7.96028e-05
0.000205891
5.04954e-05
0.000251243
1.54191e-05
0.000304422
-2.64112e-05
0.000366519
-7.58833e-05
0.000438767
-0.000133971
0.000522604
-0.000201695
0.000619896
-0.000279813
0.000732907
-0.000366822
-0.000458572
0.000866226
-7.10288e-08
9.97367e-06
-2.1944e-07
2.8795e-05
-3.66462e-07
4.70681e-05
-4.16171e-07
6.45708e-05
-2.56857e-07
8.10866e-05
2.3882e-07
9.64068e-05
1.21428e-06
0.00011033
2.83021e-06
0.00012266
5.2662e-06
0.000133209
8.72338e-06
0.000141789
1.34276e-05
0.000148214
1.96335e-05
0.000152292
2.76289e-05
0.000153823
3.77405e-05
0.000152589
5.03394e-05
0.000148349
6.58483e-05
0.000140829
8.47479e-05
0.000129712
0.000107585
0.000114629
0.000134981
9.51496e-05
0.000167637
7.07679e-05
0.000206344
4.08954e-05
0.000251989
4.8505e-06
0.000305557
-3.81489e-05
0.000368136
-8.89898e-05
0.000440915
-0.000148663
0.000525191
-0.000218247
0.00062239
-0.000298894
0.0007343
-0.000391723
0.00086304
-0.000495562
-0.000610082
0.00101455
-6.5976e-08
1.00397e-05
-1.80203e-07
2.89092e-05
-2.44511e-07
4.71324e-05
-1.43298e-07
6.44696e-05
2.55332e-07
8.0688e-05
1.0997e-06
9.55624e-05
2.55536e-06
0.000108874
4.80662e-06
0.000120409
8.05893e-06
0.000129957
1.2542e-05
0.000137306
1.8514e-05
0.000142242
2.6266e-05
0.00014454
3.6128e-05
0.000143961
4.84748e-05
0.000140243
6.37334e-05
0.000133091
8.23906e-05
0.000122172
0.000105001
0.000107102
0.000132194
8.74358e-05
0.000164685
6.26585e-05
0.00020328
3.21733e-05
0.000248881
-4.7059e-06
0.000302493
-4.87613e-05
0.000365219
-0.000100875
0.000438256
-0.000162028
0.000522885
-0.000233292
0.000620445
-0.000315807
0.000732312
-0.000410761
0.000860081
-0.000519492
0.00100552
-0.000640998
-0.000780159
0.00117559
-6.39693e-08
1.01036e-05
-1.50172e-07
2.89954e-05
-1.38575e-07
4.71208e-05
1.08511e-07
6.42225e-05
7.45593e-07
8.00509e-05
1.9446e-06
9.43634e-05
3.89602e-06
0.000106923
6.81107e-06
0.000117494
1.09247e-05
0.000125843
1.64996e-05
0.000131731
2.38309e-05
0.000134911
3.32522e-05
0.000135119
4.51419e-05
0.000132072
5.99309e-05
0.000125454
7.81102e-05
0.000114911
0.00010024
0.000100042
0.000126957
8.03843e-05
0.000158986
5.5407e-05
0.000197144
2.45009e-05
0.000242347
-1.30301e-05
0.000295616
-5.79748e-05
0.000358071
-0.000111216
0.000430926
-0.00017373
0.000515472
-0.000246573
0.000613045
-0.000330865
0.00072499
-0.000427751
0.000852581
-0.000538352
0.000997085
-0.000663996
0.00115978
-0.000803691
-0.000968389
0.00134801
-6.39452e-08
1.01676e-05
-1.2526e-07
2.90567e-05
-3.95871e-08
4.70352e-05
3.551e-07
6.38278e-05
1.23862e-06
7.91674e-05
2.80917e-06
9.27928e-05
5.28529e-06
0.000104446
8.9086e-06
0.000113871
1.39477e-05
0.000120804
2.07029e-05
0.000124976
2.9512e-05
0.000126102
4.07573e-05
0.000123874
5.48731e-05
0.000117956
7.23539e-05
0.000107973
9.37636e-05
9.35018e-05
0.000119744
7.40613e-05
0.000151026
4.91027e-05
0.000188433
1.8e-05
0.000232892
-1.99577e-05
0.000285432
-6.55705e-05
0.000347186
-0.000119729
0.000419381
-0.000183411
0.000503316
-0.000257665
0.000600333
-0.000343591
0.000711773
-0.000442305
0.000838906
-0.000554884
0.000982839
-0.000682285
0.00114435
-0.000825504
0.00132423
-0.000983572
-0.00117328
0.00152912
-6.461e-08
1.02322e-05
-1.00561e-07
2.90927e-05
6.31506e-08
4.68714e-05
6.15473e-07
6.32755e-05
1.76393e-06
7.80189e-05
3.73597e-06
9.08208e-05
6.78149e-06
0.000101401
1.11764e-05
0.000109476
1.72275e-05
0.000114753
2.52778e-05
0.000116926
3.57141e-05
0.000115665
4.89741e-05
0.000110614
6.55552e-05
0.000101375
8.60241e-05
8.7504e-05
0.000111026
6.85002e-05
0.000141293
4.37944e-05
0.000177653
1.27421e-05
0.000221038
-2.53848e-05
0.000272482
-7.14016e-05
0.000333123
-0.000126211
0.00040419
-0.000190797
0.000486987
-0.000266208
0.000582855
-0.000353533
0.000693128
-0.000453864
0.000819059
-0.000568237
0.000961738
-0.000697563
0.001122
-0.000842548
0.00129996
-0.00100346
0.00149612
-0.00117973
-0.00139198
0.00171481
-6.44566e-08
1.02966e-05
-7.03751e-08
2.90986e-05
1.8217e-07
4.66189e-05
9.11399e-07
6.25462e-05
2.35526e-06
7.65751e-05
4.77351e-06
8.84025e-05
8.451e-06
9.77234e-05
1.37022e-05
0.000104224
2.08767e-05
0.000107578
3.03663e-05
0.000107436
4.26128e-05
0.000103419
5.81163e-05
9.51102e-05
7.74454e-05
8.20456e-05
0.000101246
6.37032e-05
0.000130252
3.94943e-05
0.000165292
8.75472e-06
0.000207296
-2.9262e-05
0.000257299
-7.53881e-05
0.000316438
-0.000130541
0.00038594
-0.000195713
0.000467103
-0.000271959
0.000561259
-0.000360364
0.000669727
-0.000462001
0.00079374
-0.000577876
0.000934353
-0.00070885
0.00109234
-0.000855547
0.00126812
-0.00101833
0.00146102
-0.00119637
0.00167154
-0.00139024
-0.00162007
0.00189963
-6.18151e-08
1.03584e-05
-2.83665e-08
2.90651e-05
3.3117e-07
4.62594e-05
1.26677e-06
6.16106e-05
3.04957e-06
7.47923e-05
5.97486e-06
8.54772e-05
1.03663e-05
9.3332e-05
1.65812e-05
9.80096e-05
2.50174e-05
9.9142e-05
3.61213e-05
9.6332e-05
5.0396e-05
8.91441e-05
6.84114e-05
7.70948e-05
9.08138e-05
5.96432e-05
0.000118335
3.61816e-05
0.000151803
6.02687e-06
0.000192143
-3.15859e-05
0.000240388
-7.75061e-05
0.000297666
-0.000132666
0.000365196
-0.000198071
0.000444266
-0.000274783
0.000536192
-0.000363885
0.00064227
-0.000466442
0.000763705
-0.000583436
0.000901517
-0.000715689
0.00105643
-0.000863767
0.00122876
-0.00102787
0.00141834
-0.00120791
0.00162368
-0.00140171
0.00184549
-0.00161205
-0.0018516
0.00207702
-5.49381e-08
1.04134e-05
3.19563e-08
2.89782e-05
5.24553e-07
4.57668e-05
1.7068e-06
6.04284e-05
3.88586e-06
7.26132e-05
7.39592e-06
8.19672e-05
1.26034e-05
8.81245e-05
1.99133e-05
9.06997e-05
2.9777e-05
8.92783e-05
4.27011e-05
8.34079e-05
5.92567e-05
7.25885e-05
8.00895e-05
5.6262e-05
0.000105929
3.38035e-05
0.000137599
4.51238e-06
0.000176019
-3.23932e-05
0.000222212
-7.77794e-05
0.0002773
-0.000132594
0.000342487
-0.000197854
0.000419045
-0.000274629
0.000508268
-0.000364007
0.000611428
-0.000467045
0.000729695
-0.000584709
0.000864051
-0.000717792
0.00101518
-0.000866817
0.00118335
-0.00103193
0.00136826
-0.00121279
0.001569
-0.00140865
0.00178343
-0.00161613
0.00201206
-0.00184068
-0.00207931
0.00223978
-4.20282e-08
1.04554e-05
1.17369e-07
2.88188e-05
7.77048e-07
4.51071e-05
2.25715e-06
5.89483e-05
4.90373e-06
6.99666e-05
9.09336e-06
7.77775e-05
1.52393e-05
8.19786e-05
2.37989e-05
8.214e-05
3.52825e-05
7.77947e-05
5.02625e-05
6.8428e-05
6.93834e-05
5.34675e-05
9.33718e-05
3.22737e-05
0.000123044
4.13093e-06
0.000159314
-3.17578e-05
0.000203195
-7.62734e-05
0.000255792
-0.000130377
0.000318299
-0.0001951
0.000391964
-0.000271519
0.000478061
-0.000360726
0.000577831
-0.000463776
0.00069241
-0.000581624
0.000822739
-0.000715038
0.000969457
-0.00086451
0.00113278
-0.00103014
0.0013124
-0.00121155
0.00150737
-0.00140775
0.00171593
-0.00161722
0.00193566
-0.00183586
0.00216513
-0.00207015
-0.00229476
0.00238058
-2.13124e-08
1.04767e-05
2.34595e-07
2.85629e-05
1.10311e-06
4.42386e-05
2.94297e-06
5.71084e-05
6.14194e-06
6.67677e-05
1.11224e-05
7.2797e-05
1.83487e-05
7.47524e-05
2.8335e-05
7.21537e-05
4.16554e-05
6.44743e-05
5.8953e-05
5.11303e-05
8.09503e-05
3.14703e-05
0.000108457
4.7668e-06
0.000142378
-2.97895e-05
0.000183712
-7.30921e-05
0.000233553
-0.000126115
0.000293075
-0.000189899
0.000363507
-0.000265532
0.000446099
-0.000354111
0.000542063
-0.00045669
0.000652502
-0.000574216
0.00077832
-0.000707442
0.000920111
-0.000856829
0.00107805
-0.00102245
0.00125177
-0.00120387
0.0014403
-0.00140009
0.00164203
-0.00160947
0.00185452
-0.00182971
0.00207565
-0.00205699
0.00229993
-0.00229443
-0.00249026
0.00249543
8.88743e-09
1.04678e-05
3.8981e-07
2.8182e-05
1.51633e-06
4.3112e-05
3.78793e-06
5.48368e-05
7.63689e-06
6.29187e-05
1.35349e-05
6.68991e-05
2.20009e-05
6.62864e-05
3.36105e-05
6.05441e-05
4.90056e-05
4.90793e-05
6.89038e-05
3.12321e-05
9.41074e-05
6.26661e-06
0.00012551
-2.66357e-05
0.000164098
-6.83779e-05
0.00021095
-0.000119944
0.000267219
-0.000182384
0.000334117
-0.000256796
0.000412868
-0.000344283
0.000504662
-0.000445904
0.000610572
-0.0005626
0.00073147
-0.000695115
0.000867916
-0.000843888
0.00102005
-0.00100896
0.00118746
-0.00118986
0.00136913
-0.00138554
0.00156338
-0.00159434
0.00176791
-0.00181401
0.00197979
-0.00204159
0.00219709
-0.00227429
0.00241361
-0.00251096
-0.00272682
0.00265016
5.00038e-08
1.04178e-05
5.88631e-07
2.76434e-05
2.02898e-06
4.16717e-05
4.81337e-06
5.20524e-05
9.42127e-06
5.83108e-05
1.63768e-05
5.99436e-05
2.62572e-05
5.64059e-05
3.97028e-05
4.70984e-05
5.74265e-05
3.13557e-05
8.02221e-05
8.43648e-06
0.000108972
-2.2483e-05
0.000144648
-6.23121e-05
0.000188312
-0.000112041
0.000241099
-0.000172731
0.0003042
-0.000245485
0.000378819
-0.000331416
0.000466124
-0.000431588
0.000567169
-0.000546948
0.000682802
-0.000678234
0.000813563
-0.000825875
0.000959563
-0.000989888
0.00112038
-0.00116977
0.00129496
-0.00136444
0.0014816
-0.00157218
0.00167794
-0.00179067
0.00188108
-0.00201715
0.00208781
-0.00224832
0.00229531
-0.00248179
0.00249874
-0.00271438
-0.0029359
0.00270783
1.03349e-07
1.03145e-05
8.35898e-07
2.69108e-05
2.65162e-06
3.9856e-05
6.0376e-06
4.86665e-05
1.15229e-05
5.28255e-05
1.9687e-05
5.17796e-05
3.11682e-05
4.49247e-05
4.66742e-05
3.15924e-05
6.69902e-05
1.10397e-05
9.29859e-05
-1.75592e-05
0.000125619
-5.51163e-05
0.000165933
-0.000102626
0.000215046
-0.000161154
0.000274128
-0.000231813
0.000344367
-0.000315724
0.000426911
-0.000413961
0.000522802
-0.000527479
0.000632878
-0.000657024
0.00075767
-0.000803025
0.000897286
-0.000965492
0.0010513
-0.0011439
0.00121867
-0.00133714
0.00139769
-0.00154345
0.00158598
-0.00176047
0.00178062
-0.00198532
0.00197834
-0.00221486
0.00217574
-0.00244572
0.00236961
-0.00267566
0.00255639
-0.00290117
-0.00311862
0.00273911
1.69938e-07
1.01445e-05
1.13554e-06
2.59452e-05
3.39284e-06
3.75987e-05
7.47541e-06
4.45839e-05
1.39641e-05
4.63367e-05
2.34958e-05
4.22479e-05
3.67723e-05
3.16482e-05
5.45694e-05
1.37953e-05
7.77442e-05
-1.21351e-05
0.000107239
-4.70539e-05
0.000144079
-9.19563e-05
0.000189364
-0.000147911
0.000244246
-0.000216036
0.000309896
-0.000297463
0.000387451
-0.000393279
0.000477945
-0.000504455
0.000582216
-0.00063175
0.000700802
-0.00077561
0.000833827
-0.000936051
0.000980889
-0.00111255
0.00114097
-0.00130399
0.00131239
-0.00150856
0.0014928
-0.00172387
0.00167932
-0.00194699
0.00186867
-0.00217466
0.0020574
-0.0024036
0.00224226
-0.00263059
0.0024203
-0.00285369
0.00258883
-0.00306969
-0.00327923
0.00274944
2.50548e-07
9.894e-06
1.49055e-06
2.47052e-05
4.25912e-06
3.48301e-05
9.13784e-06
3.97052e-05
1.6761e-05
3.87136e-05
2.78244e-05
3.11845e-05
4.3094e-05
1.63786e-05
6.34135e-05
-6.52418e-06
8.97087e-05
-3.84303e-05
0.000122987
-8.0332e-05
0.000164329
-0.000133298
0.000214869
-0.000198451
0.000275765
-0.000276932
0.000348145
-0.000369843
0.00043304
-0.000478175
0.0005313
-0.000602714
0.000643482
-0.000743932
0.000769743
-0.000901871
0.000909723
-0.00107603
0.00106246
-0.00126529
0.00122632
-0.00146785
0.00139903
-0.00168127
0.00157774
-0.00190259
0.00175923
-0.00212848
0.00194009
-0.00235552
0.00211704
-0.00258055
0.00228725
-0.0028008
0.00244838
-0.00301482
0.00259881
-0.00322013
-0.00342
0.00273958
3.45721e-07
9.54828e-06
1.903e-06
2.31479e-05
5.2549e-06
3.14782e-05
1.10321e-05
3.3928e-05
1.99234e-05
2.98222e-05
3.26842e-05
1.84237e-05
5.01441e-05
-1.08125e-06
7.32117e-05
-2.95918e-05
0.000102875
-6.80941e-05
0.000140197
-0.000117654
0.000186294
-0.000179395
0.00024231
-0.000254467
0.000309368
-0.00034399
0.000388504
-0.000448979
0.000480584
-0.000570255
0.000586198
-0.000708328
0.000705549
-0.000863284
0.000838341
-0.00103466
0.000983679
-0.00122137
0.00114002
-0.00142163
0.00130516
-0.00163299
0.00147635
-0.00185245
0.00165039
-0.00207663
0.00182395
-0.00230203
0.00199378
-0.00252535
0.00215704
-0.00274381
0.00231153
-0.00295528
0.00245573
-0.00315902
0.00258908
-0.00335348
-0.00354353
0.0027126
4.5579e-07
9.09249e-06
2.37413e-06
2.12296e-05
6.38263e-06
2.74697e-05
1.31617e-05
2.71489e-05
2.34551e-05
1.95289e-05
3.80772e-05
3.80159e-06
5.79187e-05
-2.09228e-05
8.39483e-05
-5.56214e-05
0.000117208
-0.000101353
0.000158797
-0.000159243
0.000209846
-0.000230445
0.000271476
-0.000316097
0.00034473
-0.000417244
0.000430496
-0.000534746
0.000529408
-0.000669166
0.000641727
-0.000820648
0.000767237
-0.000988793
0.000905135
-0.00117256
0.00105398
-0.00137021
0.00121167
-0.00157932
0.00137554
-0.00179686
0.00154249
-0.0020194
0.00170922
-0.00224336
0.00187253
-0.00246533
0.00202956
-0.00268238
0.00217809
-0.00289235
0.00231673
-0.00309392
0.0024448
-0.0032871
0.00256263
-0.00347132
-0.0036523
0.0026714
5.80922e-07
8.51157e-06
2.90444e-06
1.89061e-05
7.64302e-06
2.27311e-05
1.55269e-05
1.9265e-05
2.73541e-05
7.70168e-06
4.3996e-05
-1.28404e-05
6.64003e-05
-4.33271e-05
9.55875e-05
-8.48085e-05
0.000132639
-0.000138405
0.000178673
-0.000205277
0.000234805
-0.000286577
0.000302089
-0.000383382
0.000381443
-0.000496597
0.000473545
-0.000626848
0.000578732
-0.000774352
0.000696875
-0.000938791
0.000827286
-0.0011192
0.000968642
-0.00131392
0.00111897
-0.00152054
0.0012757
-0.00173606
0.00143583
-0.00195699
0.00159612
-0.00217969
0.00175338
-0.00240062
0.00190476
-0.00261671
0.00204799
-0.00282562
0.00218162
-0.00302597
0.002305
-0.0032173
0.00241829
-0.00340038
0.00252247
-0.00357549
-0.00374869
0.00261886
7.21154e-07
7.79041e-06
3.49384e-06
1.61334e-05
9.03519e-06
1.71898e-05
1.81247e-05
1.01755e-05
3.16128e-05
-5.78645e-06
5.04245e-05
-3.16521e-05
7.55575e-05
-6.84601e-05
0.000108073
-0.000117324
0.000149075
-0.000179407
0.000199675
-0.000255876
0.000260938
-0.00034784
0.000333809
-0.000456253
0.000419023
-0.000581811
0.000516993
-0.000724818
0.000627696
-0.000885055
0.000750567
-0.00106166
0.000884421
-0.00125306
0.00102743
-0.00145692
0.00117715
-0.00167026
0.00133067
-0.00188958
0.00148483
-0.00211115
0.00163645
-0.00233131
0.00178266
-0.00254683
0.00192114
-0.00275519
0.00205033
-0.00295481
0.00216951
-0.00314515
0.00227879
-0.00332658
0.00237893
-0.00350052
0.00247137
-0.00366794
-0.00383482
0.0025575
8.76429e-07
6.91398e-06
4.14173e-06
1.28681e-05
1.05569e-05
1.07746e-05
2.09491e-05
-2.16724e-07
3.62184e-05
-2.10558e-05
5.73377e-05
-5.27713e-05
8.53456e-05
-9.6468e-05
0.000121329
-0.000153308
0.000166394
-0.000224472
0.000221615
-0.000311096
0.000287966
-0.000414191
0.000366236
-0.000534524
0.000456924
-0.000672498
0.000560117
-0.000828012
0.00067539
-0.00100033
0.000801712
-0.00118798
0.000937407
-0.00138875
0.00108019
-0.0015997
0.00122726
-0.00181733
0.00137552
-0.00203785
0.00152183
-0.00225746
0.00166327
-0.00247276