/*--------------------------------*- C++ -*----------------------------------*\
  =========                 |
  \\      /  F ield         | OpenFOAM: The Open Source CFD Toolbox
   \\    /   O peration     | Website:  https://openfoam.org
    \\  /    A nd           | Version:  7
     \\/     M anipulation  |
\*---------------------------------------------------------------------------*/
FoamFile
{
    version     2.0;
    format      ascii;
    class       surfaceScalarField;
    location    "60";
    object      phi;
}
// * * * * * * * * * * * * * * * * * * * * * * * * * * * * * * * * * * * * * //

dimensions      [0 3 -1 0 0 0 0];

internalField   nonuniform List<scalar> 
277
(
0.00349984
-0.0169278
0.0165646
-0.000980632
0.000571516
0.00348157
-0.0172939
-0.00139519
0.00345364
-0.0176602
-0.00181761
0.00341491
-0.0180221
-0.00225073
0.00336475
-0.0183742
-0.00269743
0.00330308
-0.0187102
-0.0031602
0.00323021
-0.0190231
-0.00364112
0.00314688
-0.0193059
-0.00414159
0.00305412
-0.0195521
-0.00466228
0.00295319
-0.0197559
-0.00520302
0.00284559
-0.0199127
-0.00576269
0.00273303
-0.0200195
-0.00633906
0.00261747
-0.0200743
-0.00692846
0.00250094
-0.0200765
-0.0075258
0.00238532
-0.0200263
-0.00812458
0.00227192
-0.0199248
-0.00871753
0.00216112
-0.0197731
0.00274108
-0.00929749
0.00718257
0.00205293
-0.019574
0.00261323
-0.00985779
0.00659751
0.00194889
-0.0193324
0.0024823
-0.0103912
0.00596966
0.00185285
-0.019054
0.00235142
-0.0108898
0.00530432
0.0017837
0.00223679
-0.0113429
0.00462113
0.0129976
-0.00909363
0.00552177
0.0115467
-0.00595218
0.00678237
0.0118744
-0.00236651
0.00834544
0.0134673
0.000475642
0.00911297
0.0157342
0.00178581
0.0085707
0.0175999
0.00198093
0.00705449
0.0188398
0.00167169
0.00533856
0.0195978
0.00126625
0.00389822
0.0200652
0.000913589
0.00281848
0.0203681
0.000637675
0.00203228
0.0205681
0.000429234
0.00145966
0.0206981
0.000275539
0.00104092
0.020781
0.000165399
0.000734915
0.0208344
8.96276e-05
0.000512598
0.0208673
3.96789e-05
0.000352064
0.0208862
9.0788e-06
0.000237117
0.0208939
-7.52926e-06
0.000155309
0.0208965
-1.3912e-05
9.75187e-05
0.0208972
-1.30714e-05
5.63465e-05
0.0208974
-7.47736e-06
2.57434e-05
0.020896
-0.000391976
0.0211749
-0.00031033
0.0211152
-0.000230738
0.0210719
-0.00015257
0.0210424
-7.57247e-05
0.0210215
0.021009
-0.00623888
0.0223503
0.00437412
-0.00668699
0.023734
-0.00601154
0.0239819
-0.00510111
0.0238277
-0.00427262
0.0233485
-0.00353859
0.0228506
-0.00293047
0.0224444
-0.0024109
0.0221137
-0.00198053
0.0218594
-0.00162667
0.0216579
-0.00133601
0.0214964
-0.00109661
0.0213659
-0.00089774
0.0212617
-0.000730725
0.0211775
-0.000588376
0.0211089
-0.000465348
0.0210519
-0.000357026
0.0210069
-0.000259342
0.0209743
-0.000168818
0.0209519
-8.30395e-05
0.0209358
0.0209259
-0.0115937
0.0117296
-0.0103622
-0.00882148
-0.00719404
-0.00590245
-0.00486481
-0.00406319
-0.00340248
-0.00284631
-0.0023699
-0.00196282
-0.00161577
-0.00132032
-0.00106859
-0.000853315
-0.000668247
-0.000507389
-0.000365016
-0.000235867
-0.000115512
0.00342618
-0.00950597
0.00335832
0.00444198
0.0118915
0.00343543
-0.00983065
0.0034042
0.00447321
0.0120365
0.00344605
-0.0101634
0.00345462
0.00446465
0.012157
0.00345839
-0.0105054
0.00350375
0.00441928
0.00347007
-0.0108561
0.00433873
0.0034796
-0.0112143
0.00422349
0.00348663
-0.0115783
0.00407387
0.00349129
-0.0119462
0.00389039
0.00349389
-0.0123157
0.00367398
0.0034949
-0.0126846
0.00342603
0.00349492
-0.0130509
0.00314847
0.00349461
-0.0134131
0.0028438
0.00349463
-0.0137704
0.00251504
0.00349553
-0.0141226
0.00216569
0.00349766
-0.0144705
0.00179948
0.00350105
-0.0148155
0.0014202
0.00350536
-0.0151595
0.00103141
0.00350978
-0.0155048
0.000636104
0.00351311
-0.0158532
0.000236519
0.00351377
-0.0162063
-0.000166097
0.00350998
)
;

boundaryField
{
    inlet
    {
        type            calculated;
        value           nonuniform 0();
    }
    outlet
    {
        type            calculated;
        value           nonuniform 0();
    }
    cylinder
    {
        type            calculated;
        value           nonuniform 0();
    }
    top
    {
        type            symmetryPlane;
        value           uniform 0;
    }
    bottom
    {
        type            symmetryPlane;
        value           uniform 0;
    }
    defaultFaces
    {
        type            empty;
        value           nonuniform 0();
    }
    procBoundary36to35
    {
        type            processor;
        value           nonuniform List<scalar> 
87
(
-0.00313671
-0.00311538
-0.00308742
-0.00305299
-0.00301262
-0.00296709
-0.0029173
-0.00286405
-0.00280796
-0.00274942
-0.00268874
-0.00262629
-0.00256268
-0.00249875
-0.00243545
-0.00237347
-0.00231275
-0.00225207
-0.00219051
-0.00213122
-0.00209609
-0.0187416
-0.0152468
-0.0146881
-0.0154601
-0.0163095
-0.0170444
-0.017795
-0.0185305
-0.0191924
-0.0197126
-0.0200922
-0.0203597
-0.0205444
-0.0206708
-0.0207586
-0.0208174
-0.0208556
-0.0208773
-0.0208901
-0.0208981
-0.020903
-0.0209035
-0.0212589
-0.0211968
-0.0211515
-0.0211206
-0.0210984
-0.0210847
-0.0204855
0.00919396
-0.0232859
-0.0246574
-0.0247381
-0.024177
-0.0235847
-0.0230526
-0.0226333
-0.0222898
-0.0220118
-0.021787
-0.0216053
-0.0214605
-0.0213445
0.000476002
-0.0212512
-0.00311417
-0.00311076
-0.00311327
-0.00311645
-0.00311938
-0.00312137
-0.00312259
-0.00312344
-0.00312441
-0.003126
-0.00312858
-0.00313236
-0.00313735
-0.00314332
-0.00314979
-0.00315607
-0.00316132
-0.00316453
-0.00316467
-0.00316069
-0.00315163
)
;
    }
    procBoundary36to37
    {
        type            processor;
        value           nonuniform List<scalar> 
86
(
0.00390895
0.00389612
0.00387606
0.00384803
0.00381145
0.00376585
0.00371113
0.00364735
0.00357481
0.00349393
0.00340527
0.0033094
0.00320687
0.00309828
0.0029841
0.00286486
-0.00772287
0.00328138
0.00319829
0.00311015
0.00301676
0.00291998
0.012097
0.0102861
0.0103113
0.0126998
0.0162765
0.0191161
0.0205557
0.0210382
0.021145
0.0211543
0.0211407
0.0211168
0.021087
0.0210567
0.0210279
0.0210011
0.0209757
0.0209543
0.0209384
0.020928
0.0209218
0.0222143
0.0225026
0.0224412
0.0222002
0.022057
0.021813
0.0216428
0.021453
0.0213033
0.0211815
0.0210893
0.0210188
0.0209662
0.0209258
0.0208936
0.0208668
0.020846
0.0208319
0.0208227
0.0208154
0.0208104
0.00319643
0.00325921
0.00333411
0.00340654
0.0122542
0.00355063
0.00359483
0.00363625
0.00367476
0.0037103
0.00374285
0.00377248
0.00379928
0.00382338
0.00384488
0.00386387
0.00388033
0.00389416
0.00390509
0.00391269
0.00391638
0.0039154
)
;
    }
}


// ************************************************************************* //
