/*--------------------------------*- C++ -*----------------------------------*\
  =========                 |
  \\      /  F ield         | OpenFOAM: The Open Source CFD Toolbox
   \\    /   O peration     | Website:  https://openfoam.org
    \\  /    A nd           | Version:  7
     \\/     M anipulation  |
\*---------------------------------------------------------------------------*/
FoamFile
{
    version     2.0;
    format      ascii;
    class       volScalarField;
    location    "25";
    object      p;
}
// * * * * * * * * * * * * * * * * * * * * * * * * * * * * * * * * * * * * * //

dimensions      [0 2 -2 0 0 0 0];

internalField   nonuniform List<scalar> 
183
(
0.010692
0.0225425
0.0256427
0.0285961
0.0336004
0.0411456
0.0460234
0.0546159
0.059632
0.0628007
0.0691354
0.0742311
0.0784116
0.084874
0.0899716
0.0953605
0.101957
0.107035
0.113715
0.120471
0.125531
0.140466
0.145527
0.161956
0.167057
0.184905
0.190113
0.209223
0.214633
0.217814
0.240497
0.243727
0.267522
0.270926
0.299183
0.300319
0.328234
0.32955
0.359372
0.358423
0.388716
0.385615
0.41897
0.416067
0.446124
0.441241
0.470761
0.46407
0.498944
0.492709
0.484398
0.519493
0.511818
0.536853
0.527955
0.550901
0.541008
0.561537
0.550888
0.568684
0.557527
0.572294
0.560879
0.572338
0.560921
0.568818
0.557652
0.561759
0.551094
0.551209
0.541294
0.537245
0.528318
0.519965
0.512256
0.499492
0.493218
0.484869
0.471336
0.464602
0.446761
0.44183
0.419663
0.416708
0.389404
0.38625
0.360101
0.359096
0.328997
0.330254
0.299913
0.300991
0.268271
0.271616
0.241197
0.244371
0.215279
0.218405
0.185547
0.190699
0.162531
0.167577
0.140967
0.145974
0.120891
0.125897
0.09575
0.102289
0.107309
0.0787052
0.0851061
0.0901409
0.0629893
0.0692567
0.0742815
0.0546153
0.0595514
0.0410144
0.0458031
0.0283292
0.0332322
0.0379247
0.022019
0.0250064
0.0100328
0.00544852
-0.0163237
-0.0179025
-0.0245024
-0.0257116
-0.0295908
-0.0326915
-0.0314945
-0.0307211
-0.0343291
-0.006475
-0.0105501
-0.018415
-0.0207264
-0.0253949
-0.0294252
-0.0285816
-0.0277528
-0.0317694
-0.0353078
-0.0340087
-0.0313553
-0.0291792
-0.0306584
-0.0330355
-0.0313894
-0.0278039
-0.0288209
-0.0317398
-0.0278634
0.0178074
-0.00818909
-0.011837
-0.0194258
-0.0239152
-0.0284962
-0.0271686
-0.0271662
-0.0285713
-0.0273555
-0.0270502
-0.026238
-0.0263588
-0.0303812
-0.0329747
-0.0322226
-0.0293346
-0.0304329
-0.0344336
-0.034083
-0.0303819
0.00465858
-0.0179724
-0.019153
-0.0255598
-0.0287094
-0.0322301
-0.0303977
)
;

boundaryField
{
    inlet
    {
        type            zeroGradient;
    }
    outlet
    {
        type            fixedValue;
        value           nonuniform 0();
    }
    cylinder
    {
        type            zeroGradient;
    }
    top
    {
        type            symmetryPlane;
    }
    bottom
    {
        type            symmetryPlane;
    }
    defaultFaces
    {
        type            empty;
    }
    procBoundary8to7
    {
        type            processor;
        value           nonuniform List<scalar> 
130
(
0.0384123
0.0408409
0.0185762
0.0384123
0.0502988
0.0502988
0.0636576
0.0636576
0.0782558
0.0782558
0.0939206
0.0939206
0.110842
0.110842
0.129179
0.129179
0.149015
0.149015
0.170397
0.170397
0.193341
0.193341
0.219171
0.244897
0.244897
0.27201
0.27201
0.299308
0.328489
0.328489
0.355257
0.380451
0.410946
0.410946
0.43425
0.455373
0.474178
0.50209
0.50209
0.517026
0.529105
0.538246
0.544388
0.547488
0.547526
0.544502
0.538436
0.529369
0.517362
0.502495
0.502495
0.474611
0.455864
0.434794
0.411538
0.411538
0.381037
0.355877
0.329138
0.329138
0.299928
0.272645
0.272645
0.245488
0.245488
0.219712
0.193875
0.193875
0.170867
0.170867
0.149411
0.149411
0.129492
0.129492
0.111058
0.111058
0.0940245
0.0940245
0.078231
0.078231
0.0634911
0.0634911
0.0499777
0.0499777
0.0540221
0.0402397
0.0402397
0.0185762
0.0185762
0.00312568
-0.00389028
-0.0130285
-0.0162119
-0.0214776
-0.0265528
-0.0260998
-0.0247447
-0.0291346
-0.0337669
-0.032885
-0.0296841
-0.0269189
-0.0286383
-0.0319295
-0.0300694
-0.025762
-0.0269855
-0.0306783
-0.0259488
0.0310715
0.00136738
-0.00523736
-0.0138944
-0.0195677
-0.0252373
-0.0244207
-0.0243063
-0.0261151
-0.0250778
-0.0247756
-0.02378
-0.0236947
-0.0284403
-0.0319003
-0.0310862
-0.0273716
-0.0284853
-0.0335358
-0.0332304
-0.0284551
)
;
    }
    procBoundary8to9
    {
        type            processor;
        value           nonuniform List<scalar> 
138
(
-0.00391799
0.0069236
0.0069236
0.0114231
0.0171297
0.0171297
0.022883
0.022883
0.0351754
0.0351754
0.0409192
0.0484299
0.0484299
0.0550088
0.0550088
0.0703258
0.0703258
0.0869495
0.0869495
0.104926
0.133506
0.133506
0.154722
0.154722
0.1773
0.1773
0.201147
0.234773
0.234773
0.26142
0.29551
0.29551
0.324358
0.357874
0.389485
0.389485
0.419733
0.448885
0.475352
0.475352
0.503489
0.525364
0.543854
0.558822
0.570157
0.577777
0.581625
0.581673
0.57792
0.570394
0.559151
0.544272
0.525867
0.504073
0.475971
0.475971
0.449571
0.420479
0.390228
0.390228
0.358662
0.325182
0.296301
0.296301
0.262232
0.235534
0.235534
0.209927
0.209927
0.178003
0.155354
0.155354
0.134064
0.134064
0.114192
0.114192
0.087398
0.0706805
0.0706805
0.0552624
0.0552624
0.0410641
0.0485041
0.0485041
0.0351271
0.0351271
0.0227066
0.0227066
0.0111165
0.0167228
0.0167228
0.00637371
0.00637371
-0.00459086
-0.00715258
-0.0255601
-0.0249885
-0.0304884
-0.0306909
-0.033738
-0.0359457
-0.0345276
-0.0337168
-0.0367931
-0.0371043
-0.0371043
-0.0355453
-0.0331182
-0.031231
-0.0324926
-0.0343324
-0.0327429
-0.0296514
-0.0304839
-0.0329704
-0.029585
-0.0301465
-0.0311628
-0.0297042
-0.0293418
-0.0285507
-0.0287302
-0.0322768
-0.0343081
-0.0335747
-0.0311399
-0.0321825
-0.0355477
-0.0351712
-0.0320992
-0.00794743
-0.0271182
-0.0261973
-0.0315627
-0.0334073
-0.0359312
-0.0301465
-0.0337187
)
;
    }
}


// ************************************************************************* //
