/*--------------------------------*- C++ -*----------------------------------*\
  =========                 |
  \\      /  F ield         | OpenFOAM: The Open Source CFD Toolbox
   \\    /   O peration     | Website:  https://openfoam.org
    \\  /    A nd           | Version:  7
     \\/     M anipulation  |
\*---------------------------------------------------------------------------*/
FoamFile
{
    version     2.0;
    format      ascii;
    class       surfaceScalarField;
    location    "25";
    object      phi;
}
// * * * * * * * * * * * * * * * * * * * * * * * * * * * * * * * * * * * * * //

dimensions      [0 3 -1 0 0 0 0];

internalField   nonuniform List<scalar> 
231
(
-0.0047999
-0.00115841
-0.00119481
-0.00110566
-0.00419736
-0.00111073
-0.0039829
-0.00110515
-0.00377818
-0.000979383
-0.00350258
-0.00108917
-0.00358112
-0.000950931
-0.00332059
-0.00106279
-0.00339073
-0.000912233
-0.00314469
-0.00102618
-0.00320664
-0.000863594
-0.00297463
-0.00097963
-0.00302865
-0.000923442
-0.00285653
-0.000857953
-0.00268988
-0.000783516
-0.00252794
-0.00256541
-0.000700545
-0.00236892
-0.000826824
-0.00240166
-0.000737473
-0.00224105
-0.000640484
-0.00207978
-0.00210936
-0.000669365
-0.00194714
-0.00056011
-0.00177757
-0.00181102
-0.000581735
-0.00164173
-0.00167168
-0.00060159
-0.00150272
-0.000477787
-0.00131833
-0.00136084
-0.000491495
-0.00117918
-0.00121637
-0.000503699
-0.00103752
-0.00106961
-0.00037053
-0.000838339
-0.000514393
-0.000893657
-0.000377826
-0.00070209
-0.000747911
-0.000383917
-0.000564111
-0.000600597
-0.000388799
-0.000424747
-0.000452027
-0.000392468
-0.000284343
-0.000302515
-0.000394921
-0.000143245
-0.000152373
-0.000396158
-1.79771e-06
-1.91465e-06
-0.000396176
0.000139655
0.000148549
-0.000394977
0.000280769
0.000298705
-0.000392561
0.000421199
0.000448241
-0.000388929
0.000560601
0.000596845
-0.000384085
0.000698628
0.000744204
-0.000378031
0.000834935
0.000890003
-0.000370772
-0.000514699
0.00103393
0.00106588
-0.000504051
0.00117567
0.00121271
-0.000491894
0.0013149
0.00135726
-0.000478232
0.00149923
-0.000602178
0.00163833
0.00166819
-0.000582376
0.00177429
0.00180763
-0.000560803
0.00194387
-0.000670229
0.00207663
0.00210613
-0.000641404
0.00223796
-0.000738585
0.00239866
-0.000828146
0.00252509
0.00256251
-0.000784896
0.00268715
-0.000859562
0.00285395
-0.0009253
0.00302626
-0.000981755
0.00314252
0.00320447
-0.00091438
-0.00102859
0.00331868
0.00338884
-0.000953339
-0.00106549
0.00350099
0.00357959
-0.000982046
-0.00109215
0.00377708
-0.00110839
0.00398231
-0.00111417
0.00419736
-0.00110924
-0.00121891
0.00455491
-0.00119875
0.00480178
-0.00130802
-0.00116216
-0.00124875
-0.00127654
-0.0200432
-0.00127988
-0.0202218
-0.00126059
-0.0203654
-0.00122972
-0.0203994
-0.00118198
-0.0205055
-0.00111753
-0.0205475
-0.00105397
-0.0204852
-0.000994032
-0.0204541
-0.020538
-0.00141506
-0.00141253
-0.00138694
-0.00134999
-0.00129576
-0.00122272
-0.00115068
-0.00108458
-0.00100377
-0.00090705
-0.000810737
-0.000723232
-0.000641484
-0.000553608
-0.000453312
-0.000358485
-0.000273982
-0.00018575
-8.59025e-05
-0.0013952
0.0198197
-0.00141627
0.020071
-0.00141191
0.0202546
-0.00138866
0.0203665
-0.0013427
0.0204789
-0.00127714
0.0205334
-0.00120931
0.0204788
-0.00114164
-0.00106134
-0.000983016
-0.000902111
-0.000824895
-0.000747642
-0.00065804
-0.0005582
-0.000461758
-0.000376937
-0.000289551
-0.000187403
-8.63193e-05
-0.00125155
-0.00127725
-0.00127889
-0.00126099
-0.00122143
-0.0011643
)
;

boundaryField
{
    inlet
    {
        type            calculated;
        value           nonuniform 0();
    }
    outlet
    {
        type            calculated;
        value           nonuniform 0();
    }
    cylinder
    {
        type            calculated;
        value           nonuniform 0();
    }
    top
    {
        type            symmetryPlane;
        value           uniform 0;
    }
    bottom
    {
        type            symmetryPlane;
        value           uniform 0;
    }
    defaultFaces
    {
        type            empty;
        value           nonuniform 0();
    }
    procBoundary8to7
    {
        type            processor;
        value           nonuniform List<scalar> 
130
(
-0.00455384
-0.00469097
-0.00130374
-0.00121496
-0.0043143
-0.00122138
-0.00408671
-0.00121681
-0.00387124
-0.00120227
-0.00366508
-0.00117771
-0.0034662
-0.00114304
-0.00327387
-0.00109842
-0.00308785
-0.00104414
-0.00290795
-0.00098055
-0.00273393
-0.000907988
-0.000955418
-0.00243681
-0.000867706
-0.00227143
-0.000772175
-0.000804639
-0.00197408
-0.000696233
-0.000721079
-0.000743893
-0.00152937
-0.000619668
-0.000635961
-0.000650463
-0.000663169
-0.000920832
-0.000523572
-0.000531232
-0.000537369
-0.00054198
-0.000545063
-0.000546616
-0.00054664
-0.000545133
-0.000542097
-0.000537533
-0.000531443
-0.000523831
-0.000917046
-0.000663534
-0.000650884
-0.000636438
-0.0006202
-0.00152579
-0.000744575
-0.000721823
-0.000697039
-0.00197074
-0.000805626
-0.000773227
-0.00226828
-0.000868964
-0.00243375
-0.000956904
-0.000909541
-0.00273116
-0.000982355
-0.00290533
-0.00104622
-0.00308542
-0.0011008
-0.00327169
-0.00114574
-0.00346434
-0.00118074
-0.00366361
-0.00120562
-0.00387026
-0.00122044
-0.00408632
-0.00122522
-0.00431458
-0.00444113
-0.00133269
-0.00469251
-0.0198006
0.00139177
-0.0200199
-0.0202243
-0.020391
-0.0204364
-0.0205597
-0.0206206
-0.0205573
-0.0205202
-0.0206189
-0.0206462
-0.0205694
-0.0204744
-0.0204149
-0.0204266
-0.0204792
-0.0203809
-0.020313
-0.020305
-0.0204038
-0.0202725
-0.0197325
-0.02005
-0.020259
-0.0203897
-0.0205248
-0.020599
-0.0205467
-0.0205195
-0.0205798
-0.0204608
-0.0204907
-0.0204002
-0.0204123
-0.020467
-0.0204939
-0.0204372
-0.0203409
-0.0203585
-0.0204507
-0.0204237
-0.0203219
)
;
    }
    procBoundary8to9
    {
        type            processor;
        value           nonuniform List<scalar> 
138
(
0.00490145
0.00105687
0.00466009
0.00430212
0.00108856
0.00442359
0.00100091
0.00408911
0.00100452
0.00388603
0.00360928
0.000997307
0.0036909
0.000872688
0.00342954
0.000841981
0.00325589
0.000801032
0.00308807
0.000750156
0.000805335
0.00281003
0.000737801
0.00265005
0.000661405
0.00249274
0.000576726
0.000609601
0.00220868
0.000511585
0.000536724
0.00190997
0.000427712
0.000445887
0.000462582
0.00145465
0.000341471
0.000352345
0.000362034
0.000972509
0.00023636
0.000241578
0.000245938
0.000249435
0.000252064
0.000253823
0.00025471
0.000254724
0.000253863
0.000252131
0.000249528
0.000246057
0.000241724
0.000236532
0.000969176
0.000362313
0.00035266
0.000341821
0.00145131
0.000463072
0.000446421
0.000428287
0.0019068
0.000537466
0.000512373
0.00220566
0.000610573
0.00236597
0.000701713
0.000662621
0.00264737
0.000739229
0.00280749
0.000806989
0.00297226
0.000865488
0.000802944
0.00325396
0.000844128
0.00342789
0.000875066
0.00360797
0.00368969
0.00100021
0.00388526
0.00100761
0.00408886
0.00100413
0.00430247
0.00442426
0.00109216
0.0046615
0.00106035
0.00490359
0.0198909
0.020071
0.0202251
0.0203461
0.0203686
0.0204577
0.0204831
0.0204217
0.0203942
0.0204638
-0.000919762
0.0205495
0.020473
0.0203869
0.0203332
0.0203387
0.0203789
0.0202861
0.0202285
0.0202168
0.0203039
0.0201866
0.0204518
0.0204995
0.0203824
0.0204098
0.020323
0.020335
0.0203774
0.020394
0.0203408
0.020256
0.0202711
0.0203485
0.0203226
0.0202356
0.0199091
0.0200967
0.0202563
0.0203486
0.0204393
0.0204763
-0.00110497
0.0204195
)
;
    }
}


// ************************************************************************* //
