/*--------------------------------*- C++ -*----------------------------------*\
  =========                 |
  \\      /  F ield         | OpenFOAM: The Open Source CFD Toolbox
   \\    /   O peration     | Website:  https://openfoam.org
    \\  /    A nd           | Version:  7
     \\/     M anipulation  |
\*---------------------------------------------------------------------------*/
FoamFile
{
    version     2.0;
    format      ascii;
    class       volScalarField;
    location    "60";
    object      p;
}
// * * * * * * * * * * * * * * * * * * * * * * * * * * * * * * * * * * * * * //

dimensions      [0 2 -2 0 0 0 0];

internalField   nonuniform List<scalar> 
40000
(
-0.226043
-0.226918
-0.227577
-0.228117
-0.228604
-0.229041
-0.229432
-0.229788
-0.230117
-0.230424
-0.230715
-0.230995
-0.231265
-0.231527
-0.231781
-0.232026
-0.23226
-0.23248
-0.232684
-0.232868
-0.233029
-0.233166
-0.233276
-0.233357
-0.233412
-0.23344
-0.233445
-0.233431
-0.233402
-0.233372
-0.226244
-0.227113
-0.227767
-0.228304
-0.228788
-0.229222
-0.229612
-0.229967
-0.230294
-0.230601
-0.230893
-0.231174
-0.231445
-0.231709
-0.231966
-0.232214
-0.232451
-0.232675
-0.232884
-0.233073
-0.23324
-0.233383
-0.233498
-0.233586
-0.233646
-0.23368
-0.233691
-0.233683
-0.233657
-0.233633
-0.226547
-0.227403
-0.228049
-0.228579
-0.229057
-0.229486
-0.229872
-0.230222
-0.230547
-0.230851
-0.231141
-0.23142
-0.231691
-0.231955
-0.232213
-0.232462
-0.232701
-0.232928
-0.233139
-0.233331
-0.233501
-0.233647
-0.233765
-0.233855
-0.233917
-0.233952
-0.233965
-0.233958
-0.23393
-0.233907
-0.22695
-0.227788
-0.22842
-0.22894
-0.229409
-0.22983
-0.230208
-0.230553
-0.230871
-0.231171
-0.231457
-0.231733
-0.232001
-0.232264
-0.23252
-0.232768
-0.233007
-0.233234
-0.233446
-0.233639
-0.23381
-0.233956
-0.234074
-0.234163
-0.234222
-0.234254
-0.234263
-0.234252
-0.234216
-0.234191
-0.227449
-0.228263
-0.228878
-0.229384
-0.229841
-0.230251
-0.230619
-0.230955
-0.231266
-0.231559
-0.231838
-0.232109
-0.232373
-0.232631
-0.232884
-0.23313
-0.233367
-0.233593
-0.233803
-0.233995
-0.234164
-0.234307
-0.234422
-0.234506
-0.234559
-0.234582
-0.234582
-0.234563
-0.23451
-0.234478
-0.22804
-0.228826
-0.22942
-0.229909
-0.23035
-0.230746
-0.231102
-0.231426
-0.231727
-0.23201
-0.232282
-0.232545
-0.232802
-0.233054
-0.233302
-0.233543
-0.233777
-0.233999
-0.234206
-0.234394
-0.234559
-0.234697
-0.234804
-0.23488
-0.234921
-0.234931
-0.234917
-0.234883
-0.234806
-0.23476
-0.228719
-0.229471
-0.23004
-0.230509
-0.230932
-0.231311
-0.231652
-0.231963
-0.232251
-0.232522
-0.232783
-0.233036
-0.233284
-0.233529
-0.233769
-0.234004
-0.234231
-0.234448
-0.234649
-0.234831
-0.23499
-0.23512
-0.235217
-0.23528
-0.235306
-0.235297
-0.235262
-0.235207
-0.235098
-0.235029
-0.229479
-0.230193
-0.230734
-0.23118
-0.231582
-0.231942
-0.232266
-0.23256
-0.232833
-0.23309
-0.233338
-0.233578
-0.233815
-0.234049
-0.23428
-0.234507
-0.234726
-0.234935
-0.235128
-0.235303
-0.235452
-0.235571
-0.235655
-0.235701
-0.235706
-0.235672
-0.23561
-0.235528
-0.235376
-0.235272
-0.230315
-0.230987
-0.231497
-0.231917
-0.232296
-0.232634
-0.232937
-0.233213
-0.233468
-0.233709
-0.23394
-0.234167
-0.23439
-0.234611
-0.23483
-0.235046
-0.235254
-0.235453
-0.235637
-0.235801
-0.235939
-0.236044
-0.236112
-0.236137
-0.236116
-0.236051
-0.235954
-0.235837
-0.235634
-0.235472
-0.23122
-0.231847
-0.232323
-0.232715
-0.233068
-0.233382
-0.233662
-0.233917
-0.234151
-0.234373
-0.234586
-0.234795
-0.235002
-0.235208
-0.235412
-0.235614
-0.235811
-0.235997
-0.236169
-0.23632
-0.236444
-0.236533
-0.236581
-0.236582
-0.236531
-0.236428
-0.236287
-0.236127
-0.235864
-0.235611
-0.232186
-0.232766
-0.233206
-0.233568
-0.233893
-0.23418
-0.234436
-0.234666
-0.234878
-0.235077
-0.235269
-0.235457
-0.235645
-0.235833
-0.23602
-0.236206
-0.236387
-0.236559
-0.236717
-0.236853
-0.236961
-0.237031
-0.237057
-0.237029
-0.236943
-0.236796
-0.236602
-0.236391
-0.236065
-0.235652
-0.233207
-0.233738
-0.234141
-0.234471
-0.234765
-0.235024
-0.235252
-0.235455
-0.235641
-0.235815
-0.235983
-0.236148
-0.236313
-0.23648
-0.236647
-0.236814
-0.236977
-0.237132
-0.237273
-0.237392
-0.237481
-0.237531
-0.237531
-0.237473
-0.237347
-0.237148
-0.23689
-0.236622
-0.236241
-0.235497
-0.234277
-0.234758
-0.235122
-0.235419
-0.235681
-0.235909
-0.236106
-0.23628
-0.236437
-0.236583
-0.236723
-0.236861
-0.237
-0.237142
-0.237286
-0.237431
-0.237573
-0.237708
-0.237829
-0.237929
-0.237997
-0.238024
-0.237997
-0.237905
-0.237736
-0.23748
-0.237148
-0.236812
-0.236391
-0.235058
-0.235388
-0.235819
-0.236144
-0.236406
-0.236634
-0.236829
-0.236994
-0.237135
-0.23726
-0.237373
-0.237482
-0.23759
-0.237699
-0.237813
-0.23793
-0.238049
-0.238167
-0.238278
-0.238377
-0.238455
-0.238501
-0.238503
-0.238447
-0.238318
-0.238103
-0.237786
-0.237374
-0.236937
-0.236386
-0.235058
-0.236535
-0.236917
-0.237203
-0.237429
-0.237622
-0.237781
-0.23791
-0.238016
-0.238105
-0.238183
-0.238256
-0.238329
-0.238405
-0.238486
-0.238572
-0.238661
-0.238751
-0.238836
-0.238909
-0.238962
-0.238983
-0.238958
-0.238871
-0.238705
-0.238442
-0.238061
-0.237565
-0.237017
-0.236268
-0.234883
-0.237714
-0.238048
-0.238294
-0.238484
-0.23864
-0.238761
-0.238852
-0.238919
-0.238968
-0.239007
-0.239041
-0.239074
-0.239112
-0.239155
-0.239205
-0.23926
-0.239318
-0.239373
-0.239417
-0.239442
-0.239435
-0.239381
-0.239263
-0.239058
-0.238745
-0.238297
-0.237711
-0.237048
-0.23611
-0.234479
-0.238921
-0.239208
-0.239415
-0.239569
-0.239686
-0.239767
-0.239817
-0.239841
-0.239847
-0.239842
-0.239831
-0.239821
-0.239815
-0.239816
-0.239825
-0.239841
-0.239862
-0.239882
-0.239893
-0.239887
-0.239849
-0.239764
-0.239611
-0.239367
-0.239004
-0.238489
-0.237809
-0.237023
-0.235905
-0.233884
-0.240153
-0.240396
-0.240565
-0.240681
-0.240758
-0.240797
-0.240802
-0.240781
-0.240739
-0.240685
-0.240624
-0.240565
-0.24051
-0.240463
-0.240426
-0.240398
-0.240376
-0.240356
-0.24033
-0.240288
-0.240216
-0.240096
-0.239907
-0.239622
-0.239209
-0.238628
-0.237852
-0.236938
-0.235648
-0.233106
-0.241409
-0.241612
-0.241743
-0.24182
-0.241855
-0.24185
-0.241808
-0.241736
-0.241642
-0.241534
-0.241419
-0.241304
-0.241195
-0.241094
-0.241005
-0.240927
-0.240858
-0.240792
-0.240723
-0.240641
-0.240529
-0.240372
-0.240143
-0.239815
-0.239351
-0.238704
-0.237832
-0.236785
-0.235344
-0.232143
-0.24269
-0.242855
-0.24295
-0.242988
-0.24298
-0.242927
-0.242834
-0.242707
-0.242556
-0.242389
-0.242214
-0.242038
-0.241868
-0.241708
-0.24156
-0.241426
-0.241303
-0.241186
-0.241069
-0.24094
-0.240785
-0.240584
-0.240312
-0.239938
-0.23942
-0.238707
-0.23774
-0.236556
-0.234999
-0.231004
-0.244
-0.244129
-0.244188
-0.244186
-0.244133
-0.24403
-0.243881
-0.243696
-0.243483
-0.243251
-0.243009
-0.242767
-0.242529
-0.242303
-0.242091
-0.241894
-0.24171
-0.241536
-0.241365
-0.241184
-0.240979
-0.240729
-0.240409
-0.239983
-0.239408
-0.238628
-0.237567
-0.236237
-0.234618
-0.229706
-0.245342
-0.245438
-0.245462
-0.245419
-0.245318
-0.245161
-0.244954
-0.244705
-0.244424
-0.244122
-0.243808
-0.243492
-0.243181
-0.242882
-0.242599
-0.242333
-0.242083
-0.241845
-0.241613
-0.241373
-0.241112
-0.240808
-0.240432
-0.239949
-0.239311
-0.238459
-0.237304
-0.235817
-0.234198
-0.228279
-0.246723
-0.246789
-0.246777
-0.246692
-0.246541
-0.246327
-0.246056
-0.245738
-0.245385
-0.245006
-0.244614
-0.244218
-0.243828
-0.24345
-0.243089
-0.242747
-0.242424
-0.242117
-0.241817
-0.241513
-0.241189
-0.240823
-0.240385
-0.239837
-0.239128
-0.238196
-0.236948
-0.235285
-0.233729
-0.22677
-0.248152
-0.248189
-0.248141
-0.248011
-0.247807
-0.247532
-0.247193
-0.246802
-0.246369
-0.245909
-0.245432
-0.24495
-0.244474
-0.24401
-0.243566
-0.243143
-0.242741
-0.242357
-0.241984
-0.24161
-0.241217
-0.240782
-0.240274
-0.239652
-0.238864
-0.237843
-0.236497
-0.234642
-0.233188
-0.225242
-0.249639
-0.249647
-0.249562
-0.249386
-0.249125
-0.248784
-0.248372
-0.247902
-0.247385
-0.246836
-0.246269
-0.245696
-0.245127
-0.244573
-0.244039
-0.243529
-0.243042
-0.242577
-0.242125
-0.241673
-0.241205
-0.240694
-0.240109
-0.239405
-0.238526
-0.237407
-0.235955
-0.233902
-0.232549
-0.223776
-0.251197
-0.251176
-0.251052
-0.250825
-0.250503
-0.250092
-0.249603
-0.249047
-0.24844
-0.247798
-0.247134
-0.246464
-0.245798
-0.245147
-0.244518
-0.243915
-0.24334
-0.242787
-0.24225
-0.241716
-0.241166
-0.240572
-0.2399
-0.239105
-0.238127
-0.236897
-0.235329
-0.233089
-0.231778
-0.22247
-0.252841
-0.252788
-0.252621
-0.252341
-0.251953
-0.251467
-0.250893
-0.250247
-0.249545
-0.248803
-0.248038
-0.247264
-0.246496
-0.245744
-0.245016
-0.244316
-0.243646
-0.243002
-0.242375
-0.241752
-0.241113
-0.240428
-0.239662
-0.238765
-0.237676
-0.236326
-0.23462
-0.232228
-0.230806
-0.221366
-0.254586
-0.254498
-0.254284
-0.253944
-0.253486
-0.252918
-0.252255
-0.251513
-0.250709
-0.249863
-0.248991
-0.24811
-0.247235
-0.246377
-0.245545
-0.244744
-0.243975
-0.243235
-0.242513
-0.241796
-0.24106
-0.240276
-0.239404
-0.238395
-0.237186
-0.235709
-0.233846
-0.231363
-0.229513
-0.220349
-0.256449
-0.25632
-0.256054
-0.25565
-0.255114
-0.254459
-0.253701
-0.252856
-0.251946
-0.250989
-0.250006
-0.249013
-0.248027
-0.247059
-0.24612
-0.245215
-0.244343
-0.243502
-0.242679
-0.24186
-0.241018
-0.240124
-0.239135
-0.238002
-0.236664
-0.235063
-0.233051
-0.230598
-0.227924
-0.219622
-0.258449
-0.258272
-0.257947
-0.257471
-0.256851
-0.256102
-0.255242
-0.25429
-0.253267
-0.252196
-0.251097
-0.249988
-0.248887
-0.247807
-0.246757
-0.245743
-0.244764
-0.243816
-0.242886
-0.241955
-0.240998
-0.239979
-0.238857
-0.237584
-0.236103
-0.234378
-0.232262
-0.230006
-0.226585
-0.221387
-0.260603
-0.260369
-0.259977
-0.259422
-0.258711
-0.257862
-0.256893
-0.255827
-0.254687
-0.253496
-0.252277
-0.251049
-0.24983
-0.248634
-0.24747
-0.246343
-0.245253
-0.244191
-0.243145
-0.242092
-0.241003
-0.239841
-0.238566
-0.237129
-0.235484
-0.233613
-0.231401
-0.229323
-0.226039
-0.228346
-0.26293
-0.262628
-0.26216
-0.261518
-0.260708
-0.25975
-0.258667
-0.257481
-0.256218
-0.254904
-0.25356
-0.25221
-0.25087
-0.249555
-0.248273
-0.24703
-0.245821
-0.244638
-0.243464
-0.242273
-0.241034
-0.239708
-0.238251
-0.236621
-0.234778
-0.232717
-0.23037
-0.2282
-0.22514
-0.226654
-0.26545
-0.265067
-0.264513
-0.263775
-0.262857
-0.261783
-0.260578
-0.259266
-0.257876
-0.256433
-0.254963
-0.253486
-0.252022
-0.250584
-0.249181
-0.247815
-0.24648
-0.245164
-0.243847
-0.242501
-0.241088
-0.239569
-0.237899
-0.236039
-0.233956
-0.231652
-0.229087
-0.226626
-0.22344
-0.223327
-0.26818
-0.267703
-0.267051
-0.266207
-0.265173
-0.263974
-0.26264
-0.261197
-0.259674
-0.258099
-0.256497
-0.254891
-0.2533
-0.251736
-0.250205
-0.248708
-0.247237
-0.245774
-0.244296
-0.24277
-0.241156
-0.239411
-0.237492
-0.235363
-0.232995
-0.230396
-0.227539
-0.224688
-0.22121
-0.219727
-0.271137
-0.27055
-0.269789
-0.268828
-0.267668
-0.266338
-0.264867
-0.263286
-0.261626
-0.259914
-0.258178
-0.25644
-0.254717
-0.25302
-0.251355
-0.249718
-0.248096
-0.246469
-0.244806
-0.243072
-0.241224
-0.239218
-0.237012
-0.234575
-0.231883
-0.228946
-0.225748
-0.222474
-0.218653
-0.216051
-0.274339
-0.273626
-0.272742
-0.271654
-0.270358
-0.268887
-0.267273
-0.265549
-0.263746
-0.261893
-0.260019
-0.258144
-0.256284
-0.254449
-0.25264
-0.250849
-0.249059
-0.247244
-0.24537
-0.243395
-0.241277
-0.238972
-0.236442
-0.23366
-0.230613
-0.227311
-0.223749
-0.22006
-0.215895
-0.212485
-0.277799
-0.276943
-0.275924
-0.274698
-0.273256
-0.271636
-0.269872
-0.267998
-0.266047
-0.26405
-0.262033
-0.260015
-0.258012
-0.256029
-0.254063
-0.252102
-0.250121
-0.248092
-0.245973
-0.243723
-0.241297
-0.238655
-0.235765
-0.23261
-0.229183
-0.225504
-0.221573
-0.217498
-0.213017
-0.209029
-0.281533
-0.280515
-0.279347
-0.277971
-0.276375
-0.274597
-0.272676
-0.270647
-0.268544
-0.266397
-0.264231
-0.262065
-0.25991
-0.257767
-0.255628
-0.253474
-0.251277
-0.249
-0.246601
-0.244036
-0.241263
-0.238248
-0.234969
-0.231417
-0.227599
-0.22354
-0.219251
-0.214825
-0.210064
-0.205667
-0.285551
-0.284354
-0.283023
-0.281488
-0.279726
-0.277782
-0.275698
-0.273508
-0.271247
-0.268945
-0.266625
-0.264302
-0.261984
-0.259665
-0.257332
-0.254959
-0.252512
-0.249951
-0.247232
-0.244312
-0.241155
-0.237735
-0.234042
-0.230079
-0.225865
-0.221434
-0.216804
-0.212064
-0.207057
-0.202363
-0.289864
-0.28847
-0.286963
-0.285257
-0.283322
-0.281204
-0.278949
-0.276593
-0.274169
-0.271706
-0.269223
-0.266733
-0.264235
-0.26172
-0.259167
-0.256544
-0.253811
-0.250926
-0.247845
-0.24453
-0.240953
-0.237102
-0.232977
-0.228597
-0.22399
-0.219198
-0.214249
-0.209225
-0.204
-0.199081
-0.29448
-0.292872
-0.291176
-0.289288
-0.287171
-0.284873
-0.282441
-0.279913
-0.27732
-0.274687
-0.272032
-0.269359
-0.266664
-0.263928
-0.261123
-0.258212
-0.255152
-0.251899
-0.248413
-0.244666
-0.24064
-0.236335
-0.231769
-0.22697
-0.221979
-0.216843
-0.211595
-0.206313
-0.200891
-0.195789
-0.299406
-0.297565
-0.295668
-0.29359
-0.291282
-0.288797
-0.286183
-0.283476
-0.280707
-0.277896
-0.275054
-0.272181
-0.269264
-0.266277
-0.263184
-0.259943
-0.25651
-0.252844
-0.248913
-0.244697
-0.240196
-0.235425
-0.230412
-0.225201
-0.219838
-0.214374
-0.208847
-0.203327
-0.197724
-0.192462
-0.304645
-0.302555
-0.300444
-0.298167
-0.295662
-0.292984
-0.290182
-0.28729
-0.284336
-0.281334
-0.27829
-0.275194
-0.272025
-0.268749
-0.265325
-0.261708
-0.257856
-0.253732
-0.249316
-0.244604
-0.239609
-0.234362
-0.228905
-0.22329
-0.217569
-0.211795
-0.206005
-0.200263
-0.194491
-0.189077
-0.310196
-0.307841
-0.305507
-0.303024
-0.300315
-0.297438
-0.294443
-0.291359
-0.288208
-0.285001
-0.281732
-0.278385
-0.274929
-0.271323
-0.267521
-0.263478
-0.259157
-0.254533
-0.249599
-0.244366
-0.238864
-0.233139
-0.227244
-0.221238
-0.215174
-0.209105
-0.203067
-0.197115
-0.19118
-0.185621
-0.316056
-0.313423
-0.310856
-0.30816
-0.305242
-0.302162
-0.298966
-0.295681
-0.292322
-0.288889
-0.285371
-0.281739
-0.277953
-0.273969
-0.269738
-0.265218
-0.260382
-0.255218
-0.249736
-0.243964
-0.23795
-0.23175
-0.225427
-0.219043
-0.212652
-0.206302
-0.200028
-0.193874
-0.187783
-0.182078
-0.322221
-0.319294
-0.316486
-0.313573
-0.310442
-0.307153
-0.30375
-0.300253
-0.296668
-0.292988
-0.289187
-0.28523
-0.281068
-0.276653
-0.271939
-0.266892
-0.261496
-0.255757
-0.249704
-0.243383
-0.236855
-0.230188
-0.223449
-0.216702
-0.209998
-0.203381
-0.196881
-0.190534
-0.184291
-0.178439
-0.328673
-0.325443
-0.322389
-0.319254
-0.315907
-0.312404
-0.308786
-0.305064
-0.301234
-0.297276
-0.293156
-0.288827
-0.284238
-0.279337
-0.274085
-0.26846
-0.262464
-0.256122
-0.249481
-0.242606
-0.235569
-0.228446
-0.221306
-0.21421
-0.207207
-0.200334
-0.193618
-0.187083
-0.180693
-0.174694
-0.335399
-0.331856
-0.328551
-0.325193
-0.321626
-0.317905
-0.314061
-0.310097
-0.305997
-0.301728
-0.297245
-0.292494
-0.287419
-0.281975
-0.276131
-0.269884
-0.263253
-0.256286
-0.249048
-0.24162
-0.234083
-0.226516
-0.218989
-0.21156
-0.20427
-0.197153
-0.190228
-0.183514
-0.176979
-0.170833
-0.342375
-0.338512
-0.334953
-0.331371
-0.327582
-0.323636
-0.319555
-0.315329
-0.310929
-0.306309
-0.301414
-0.296184
-0.290565
-0.28452
-0.278034
-0.271123
-0.263829
-0.256222
-0.248385
-0.240409
-0.232384
-0.224389
-0.216492
-0.208743
-0.20118
-0.193828
-0.186703
-0.179814
-0.17314
-0.16685
-0.349571
-0.345384
-0.341571
-0.337765
-0.333752
-0.329573
-0.325241
-0.320729
-0.315993
-0.310977
-0.305615
-0.299847
-0.293624
-0.286922
-0.279747
-0.272138
-0.264161
-0.255906
-0.247472
-0.23896
-0.230462
-0.222055
-0.213802
-0.205748
-0.197924
-0.190348
-0.18303
-0.175974
-0.169165
-0.162734
-0.356952
-0.352439
-0.348374
-0.344344
-0.340105
-0.335685
-0.331083
-0.326255
-0.321144
-0.315681
-0.309795
-0.303427
-0.296541
-0.28913
-0.281226
-0.272891
-0.264218
-0.255315
-0.246293
-0.237259
-0.228304
-0.219503
-0.210911
-0.202566
-0.194492
-0.186701
-0.179199
-0.171984
-0.165046
-0.158478
-0.364474
-0.359638
-0.355324
-0.351073
-0.346604
-0.341931
-0.337037
-0.331861
-0.326329
-0.320364
-0.313893
-0.306864
-0.299258
-0.291092
-0.282424
-0.273346
-0.263972
-0.254426
-0.244829
-0.235289
-0.225896
-0.216718
-0.207803
-0.199181
-0.19087
-0.182875
-0.175198
-0.167832
-0.160773
-0.154074
-0.372088
-0.366932
-0.362375
-0.357905
-0.353203
-0.348264
-0.343053
-0.33749
-0.331488
-0.324962
-0.317844
-0.310095
-0.301716
-0.292755
-0.283299
-0.273467
-0.263393
-0.253216
-0.243061
-0.233036
-0.223225
-0.213688
-0.204466
-0.195582
-0.187045
-0.178858
-0.171016
-0.163508
-0.156335
-0.149514
-0.379735
-0.374269
-0.369475
-0.36479
-0.359849
-0.354627
-0.349069
-0.343077
-0.336552
-0.329406
-0.321579
-0.313053
-0.303857
-0.294069
-0.283809
-0.27322
-0.262456
-0.251664
-0.240972
-0.230483
-0.220274
-0.210398
-0.200886
-0.191754
-0.183006
-0.174637
-0.166641
-0.159002
-0.151723
-0.144788
-0.387351
-0.381585
-0.376565
-0.371667
-0.36648
-0.360957
-0.355019
-0.348552
-0.341447
-0.33362
-0.325026
-0.315673
-0.305621
-0.294985
-0.283913
-0.272573
-0.261135
-0.249748
-0.238542
-0.227612
-0.217028
-0.206832
-0.197048
-0.187683
-0.178737
-0.1702
-0.162061
-0.154304
-0.146929
-0.139891
-0.394864
-0.388814
-0.383577
-0.37847
-0.373029
-0.367181
-0.360827
-0.353836
-0.346095
-0.337528
-0.328113
-0.317888
-0.306952
-0.295454
-0.283572
-0.271495
-0.259403
-0.247448
-0.235753
-0.224407
-0.21347
-0.202974
-0.192935
-0.183355
-0.174226
-0.165535
-0.157267
-0.149403
-0.141943
-0.134815
-0.402194
-0.395878
-0.390437
-0.385122
-0.379417
-0.373221
-0.366412
-0.358847
-0.350413
-0.34105
-0.330766
-0.319635
-0.307795
-0.295431
-0.28275
-0.269957
-0.257236
-0.24474
-0.232585
-0.22085
-0.209583
-0.198808
-0.188534
-0.178755
-0.16946
-0.16063
-0.152247
-0.144292
-0.136758
-0.129553
-0.409258
-0.402698
-0.397065
-0.391545
-0.385564
-0.378991
-0.371686
-0.363495
-0.354314
-0.344106
-0.332913
-0.32085
-0.308098
-0.294875
-0.281413
-0.267928
-0.25461
-0.241605
-0.229019
-0.216921
-0.205349
-0.194319
-0.18383
-0.173871
-0.164425
-0.155473
-0.146991
-0.13896
-0.131365
-0.1241
-0.415966
-0.409185
-0.403375
-0.39765
-0.391379
-0.384401
-0.376558
-0.367692
-0.357714
-0.346617
-0.334482
-0.321473
-0.30781
-0.293744
-0.279527
-0.265384
-0.251502
-0.238021
-0.225036
-0.212604
-0.200753
-0.18949
-0.178807
-0.168688
-0.159112
-0.150054
-0.14149
-0.133399
-0.125759
-0.11845
-0.422223
-0.415249
-0.409275
-0.403346
-0.39677
-0.389357
-0.380933
-0.371346
-0.360525
-0.348503
-0.335407
-0.321447
-0.306885
-0.292001
-0.277062
-0.262297
-0.24789
-0.233969
-0.220617
-0.207881
-0.195778
-0.184306
-0.173452
-0.163193
-0.153506
-0.144363
-0.135735
-0.127602
-0.119931
-0.1126
-0.427932
-0.420792
-0.414671
-0.408537
-0.401639
-0.39376
-0.384716
-0.374364
-0.362664
-0.34969
-0.335623
-0.32072
-0.30528
-0.28961
-0.273988
-0.258644
-0.243751
-0.229428
-0.215744
-0.202735
-0.190408
-0.178753
-0.167751
-0.157376
-0.147599
-0.138389
-0.129717
-0.121562
-0.113877
-0.106545
-0.432992
-0.425719
-0.419465
-0.413124
-0.405888
-0.397513
-0.387811
-0.376657
-0.364047
-0.350108
-0.335071
-0.319242
-0.302956
-0.286541
-0.27028
-0.254401
-0.239065
-0.224379
-0.2104
-0.19715
-0.184628
-0.172818
-0.161693
-0.151224
-0.141379
-0.132124
-0.123428
-0.115269
-0.107589
-0.100277
-0.437303
-0.429927
-0.423556
-0.417007
-0.409416
-0.400517
-0.390124
-0.378137
-0.364599
-0.349688
-0.333694
-0.316967
-0.299876
-0.282762
-0.265912
-0.249546
-0.233813
-0.218806
-0.204568
-0.191111
-0.178425
-0.166487
-0.155265
-0.144727
-0.134838
-0.12556
-0.116861
-0.10872
-0.101062
-0.0937938
-0.440763
-0.433319
-0.426845
-0.420086
-0.412124
-0.402675
-0.391563
-0.378722
-0.364244
-0.348371
-0.331443
-0.313857
-0.296008
-0.278247
-0.260862
-0.244059
-0.227977
-0.212691
-0.198233
-0.184604
-0.171786
-0.159749
-0.148459
-0.137878
-0.127967
-0.118689
-0.11001
-0.101906
-0.0942924
-0.087091
-0.443273
-0.435795
-0.429234
-0.422262
-0.413914
-0.403894
-0.392041
-0.378332
-0.362918
-0.346098
-0.328272
-0.309875
-0.291322
-0.272974
-0.255109
-0.237924
-0.221541
-0.20602
-0.191382
-0.177618
-0.164701
-0.152596
-0.141265
-0.130667
-0.12076
-0.111505
-0.102868
-0.0948231
-0.0872763
-0.0801692
-0.444736
-0.437258
-0.430625
-0.423438
-0.414692
-0.404083
-0.391476
-0.376896
-0.360557
-0.342822
-0.324143
-0.304989
-0.285794
-0.26692
-0.248636
-0.231125
-0.21449
-0.198781
-0.184004
-0.170141
-0.157159
-0.145019
-0.133677
-0.123088
-0.113211
-0.104002
-0.0954275
-0.0874625
-0.0800085
-0.0730242
-0.44506
-0.437616
-0.430926
-0.423524
-0.414369
-0.403159
-0.389792
-0.374349
-0.357109
-0.338499
-0.319021
-0.299173
-0.279404
-0.26007
-0.241429
-0.223647
-0.206813
-0.190962
-0.176088
-0.162166
-0.149155
-0.137012
-0.125688
-0.115138
-0.105315
-0.0961757
-0.0876818
-0.0798127
-0.0724716
-0.0656238
-0.444157
-0.436781
-0.430048
-0.422432
-0.412863
-0.401046
-0.386922
-0.370632
-0.352526
-0.333093
-0.312878
-0.292407
-0.272133
-0.252408
-0.233474
-0.215481
-0.198501
-0.182555
-0.167629
-0.153686
-0.140683
-0.12857
-0.117297
-0.106813
-0.0970724
-0.0880247
-0.0796301
-0.0718705
-0.0646429
-0.057884
-0.441946
-0.434672
-0.427911
-0.420082
-0.410096
-0.397674
-0.382805
-0.365697
-0.34677
-0.326573
-0.305692
-0.284672
-0.263969
-0.243924
-0.224763
-0.206618
-0.189547
-0.173555
-0.158619
-0.144698
-0.13174
-0.119692
-0.108501
-0.098115
-0.0884831
-0.0795524
-0.0712819
-0.063658
-0.0565398
-0.0497215
-0.438355
-0.431215
-0.424441
-0.416402
-0.406002
-0.392983
-0.37739
-0.359502
-0.33981
-0.318917
-0.297447
-0.275958
-0.254904
-0.234611
-0.215291
-0.197055
-0.179945
-0.163958
-0.149058
-0.135199
-0.122324
-0.110377
-0.099302
-0.0890438
-0.079549
-0.0707618
-0.0626475
-0.0551968
-0.0482268
-0.0412802
-0.433317
-0.426343
-0.41957
-0.411329
-0.400521
-0.386922
-0.370636
-0.352016
-0.331622
-0.31011
-0.288132
-0.266258
-0.244932
-0.224467
-0.205053
-0.186787
-0.169696
-0.153762
-0.138945
-0.12519
-0.112438
-0.100628
-0.0897022
-0.079603
-0.0702736
-0.0616567
-0.0537322
-0.0464597
-0.0395625
-0.0329343
-0.426778
-0.419999
-0.413243
-0.404808
-0.393605
-0.379449
-0.362509
-0.343215
-0.322191
-0.300142
-0.277744
-0.255569
-0.234053
-0.213491
-0.194053
-0.175818
-0.1588
-0.142971
-0.128283
-0.114675
-0.102085
-0.090449
-0.0797061
-0.069798
-0.0606652
-0.0522517
-0.0445325
-0.0374546
-0.0307033
-0.0244231
-0.418691
-0.412136
-0.405413
-0.396795
-0.385216
-0.370534
-0.352988
-0.333084
-0.311509
-0.289011
-0.266282
-0.243895
-0.222272
-0.201687
-0.182293
-0.164151
-0.147262
-0.131589
-0.117076
-0.103659
-0.09127
-0.0798462
-0.0693211
-0.0596357
-0.0507292
-0.0425462
-0.035059
-0.028202
-0.0216473
-0.0156944
-0.409021
-0.402717
-0.396043
-0.387257
-0.375324
-0.360154
-0.342059
-0.321618
-0.299578
-0.276722
-0.253755
-0.231245
-0.209596
-0.189064
-0.169782
-0.151795
-0.135091
-0.119624
-0.105332
-0.0921501
-0.0800035
-0.0688271
-0.0585547
-0.0491244
-0.0404743
-0.0325489
-0.0253205
-0.0187125
-0.012383
-0.00674662
-0.397744
-0.391715
-0.385107
-0.376171
-0.363914
-0.348301
-0.329719
-0.30882
-0.286405
-0.263285
-0.240175
-0.21763
-0.196039
-0.175635
-0.156532
-0.13876
-0.122296
-0.107087
-0.0930647
-0.0801583
-0.0682942
-0.0574029
-0.0474175
-0.0382743
-0.0299102
-0.0222697
-0.0153264
-0.00899263
-0.00290765
0.00240735
-0.384845
-0.379116
-0.37259
-0.363526
-0.350978
-0.334974
-0.315975
-0.294702
-0.272005
-0.248719
-0.225559
-0.20307
-0.181617
-0.161415
-0.142558
-0.125061
-0.108893
-0.0939908
-0.0802842
-0.0676973
-0.0561553
-0.0455862
-0.0359219
-0.0270975
-0.0190487
-0.0117201
-0.0050875
0.000949468
0.00677281
0.0117548
-0.370323
-0.364916
-0.358491
-0.349321
-0.336521
-0.320183
-0.300842
-0.279283
-0.256401
-0.233046
-0.209932
-0.187586
-0.166353
-0.146424
-0.127878
-0.110717
-0.0948973
-0.0803528
-0.0670073
-0.0547826
-0.0436018
-0.0333915
-0.0240823
-0.015608
-0.00790321
-0.000913361
0.00538405
0.0111031
0.0166478
0.0212824
-0.354186
-0.349121
-0.342815
-0.333567
-0.320558
-0.303948
-0.284344
-0.262592
-0.239622
-0.216298
-0.193323
-0.171206
-0.150271
-0.130687
-0.112517
-0.095748
-0.0803305
-0.0661919
-0.0532526
-0.0414319
-0.0306511
-0.0208355
-0.0119147
-0.00382142
0.00351085
0.0101357
0.016074
0.0214547
0.0267037
0.0309761
-0.336454
-0.33175
-0.325583
-0.316286
-0.303115
-0.2863
-0.266515
-0.244664
-0.221706
-0.19851
-0.175765
-0.153962
-0.133401
-0.114231
-0.0964981
-0.0801791
-0.0652155
-0.0515305
-0.0390414
-0.0276654
-0.0173226
-0.00793703
0.000562626
0.00824465
0.0151764
0.0214104
0.0269663
0.0319885
0.0369241
0.0408198
-0.317159
-0.312831
-0.306823
-0.297509
-0.284228
-0.267276
-0.247396
-0.225541
-0.202696
-0.179722
-0.157296
-0.13589
-0.115777
-0.0970885
-0.0798528
-0.064038
-0.0495784
-0.0363932
-0.0243971
-0.0135056
-0.0036377
0.00528347
0.01333
0.0205711
0.0270748
0.0328923
0.0380426
0.0426863
0.04729
0.0507956
-0.296341
-0.292406
-0.286576
-0.27728
-0.263941
-0.246925
-0.227038
-0.205281
-0.182638
-0.159973
-0.13796
-0.11703
-0.0974374
-0.0792935
-0.0626134
-0.0473555
-0.0334484
-0.0208076
-0.00934574
0.00102288
0.0103802
0.0188038
0.0263661
0.0331372
0.0391857
0.0445614
0.049283
0.0535278
0.05778
0.0608814
-0.274054
-0.270522
-0.264893
-0.25565
-0.242309
-0.225306
-0.205508
-0.183949
-0.161557
-0.139324
-0.117806
-0.0974273
-0.0784229
-0.0608851
-0.044816
-0.0301656
-0.0168571
-0.00480344
0.00608458
0.0158936
0.0247061
0.0326
0.0396482
0.0459211
0.0514877
0.0563964
0.0606662
0.0644907
0.0683684
0.0710472
-0.250358
-0.247241
-0.241833
-0.23268
-0.219397
-0.202485
-0.182855
-0.161535
-0.139582
-0.117832
-0.0968842
-0.0771304
-0.058779
-0.0419054
-0.0264999
-0.0125048
0.000160947
0.011587
0.0218636
0.0310781
0.0393133
0.046647
0.0531524
0.0589001
0.0639588
0.0683753
0.0721696
0.0755505
0.0790249
0.0812572
-0.225325
-0.222628
-0.217464
-0.208443
-0.195277
-0.178525
-0.159124
-0.138194
-0.116728
-0.0955528
-0.0752529
-0.0561916
-0.0385542
-0.0223995
-0.00770705
0.00558751
0.017569
0.0283291
0.0379589
0.0465461
0.0541734
0.0609185
0.066854
0.0720507
0.0765764
0.0804759
0.0837706
0.0866819
0.0897179
0.0914806
-0.199034
-0.196762
-0.191864
-0.183015
-0.170019
-0.153485
-0.13444
-0.113967
-0.0930698
-0.0725516
-0.0529714
-0.0346663
-0.0177999
-0.0024154
0.0115176
0.0240694
0.035328
0.0453865
0.0543366
0.0622659
0.0692569
0.0753867
0.0807275
0.0853493
0.0893182
0.0926763
0.0954474
0.0978629
0.100423
0.101694
-0.171557
-0.16973
-0.165117
-0.156475
-0.143699
-0.127487
-0.108863
-0.08893
-0.068682
-0.0488959
-0.0301026
-0.0126132
0.00342927
0.017996
0.0311267
0.0428966
0.0533964
0.0627204
0.0709604
0.0782039
0.0845328
0.0900233
0.0947468
0.0987719
0.102162
0.104955
0.107181
0.10908
0.111123
0.111834
-0.142966
-0.141637
-0.137317
-0.128911
-0.116432
-0.100603
-0.0824782
-0.0631651
-0.0436418
-0.0246571
-0.00671268
0.0099061
0.025076
0.0387814
0.0510704
0.0620226
0.071731
0.0802904
0.0877928
0.0943252
0.0999688
0.104799
0.108885
0.112295
0.115085
0.117291
0.118956
0.120322
0.121768
0.121742
-0.113343
-0.112618
-0.108556
-0.100432
-0.0883043
-0.0729267
-0.0553755
-0.0367575
-0.018029
9.04018e-05
0.0171293
0.0328275
0.0470805
0.0598851
0.0712967
0.0813989
0.0902863
0.0980542
0.104794
0.110593
0.115531
0.119682
0.123116
0.125894
0.128069
0.129673
0.13077
0.131572
0.132245
0.131245
-0.0829347
-0.0826691
-0.0789423
-0.0711422
-0.0594163
-0.0445553
-0.0276488
-0.00979522
0.00807359
0.0252697
0.0413518
0.0560844
0.0693808
0.0812493
0.0917517
0.100975
0.109015
0.115968
0.121924
0.12697
0.131186
0.134643
0.13741
0.139547
0.141098
0.142102
0.142645
0.14284
0.142497
0.140391
-0.0517793
-0.0519457
-0.0485875
-0.0411476
-0.0298737
-0.0155909
0.00060539
0.0176305
0.0345809
0.0508014
0.065881
0.0796081
0.0919129
0.102814
0.11238
0.120699
0.127869
0.133986
0.13914
0.143417
0.146894
0.149646
0.151738
0.153226
0.154154
0.154578
0.154604
0.154181
0.152746
0.149733
-0.0199648
-0.0205812
-0.0176045
-0.0105583
0.000214954
0.013862
0.0292876
0.0454264
0.0614057
0.0766042
0.0906412
0.103328
0.114611
0.124519
0.133123
0.140517
0.146798
0.152062
0.156398
0.159891
0.16262
0.164655
0.166064
0.1669
0.167209
0.167072
0.166601
0.165538
0.163081
0.161354
0.0123834
0.0113077
0.0138907
0.0205112
0.030738
0.0436962
0.0582966
0.0734973
0.088459
0.102595
0.115556
0.127173
0.137409
0.1463
0.153924
0.160375
0.165751
0.170147
0.173653
0.176352
0.178322
0.179634
0.180352
0.180532
0.180223
0.179519
0.1785
0.176839
0.174048
0.173005
0.0451391
0.0436013
0.0457782
0.0519434
0.0615818
0.073803
0.0875294
0.101746
0.115651
0.128691
0.140546
0.15107
0.160238
0.168095
0.174723
0.180217
0.184676
0.188193
0.190859
0.192756
0.19396
0.194542
0.194566
0.194087
0.19316
0.191877
0.190288
0.188076
0.18501
0.183915
0.0781759
0.0761765
0.0779358
0.0836187
0.0926308
0.104072
0.116882
0.130076
0.142889
0.154806
0.165532
0.174944
0.183029
0.189839
0.19546
0.199987
0.20352
0.206151
0.20797
0.209059
0.209493
0.209342
0.208668
0.207528
0.205979
0.20411
0.201954
0.199232
0.195858
0.194435
0.111367
0.108908
0.11024
0.115416
0.123768
0.134392
0.146249
0.158388
0.170084
0.180855
0.190436
0.198722
0.205713
0.211468
0.216073
0.219628
0.222229
0.223971
0.22494
0.225218
0.22488
0.223993
0.222622
0.220819
0.218647
0.216186
0.213462
0.210232
0.206488
0.204633
0.144583
0.141669
0.142566
0.147214
0.154878
0.164653
0.175526
0.186585
0.197142
0.206752
0.215177
0.222329
0.228221
0.232915
0.236503
0.239082
0.240751
0.241602
0.241722
0.241189
0.240079
0.238458
0.236389
0.233926
0.231128
0.228074
0.224784
0.22104
0.216885
0.214551
0.177696
0.174334
0.174788
0.178891
0.185841
0.194742
0.204609
0.214568
0.223972
0.232412
0.239675
0.245691
0.250482
0.254117
0.256688
0.258294
0.259033
0.258996
0.258268
0.256928
0.255049
0.252698
0.249934
0.246813
0.243391
0.239745
0.23589
0.231627
0.22704
0.224202
0.210579
0.206774
0.206783
0.210326
0.216543
0.224549
0.233392
0.242239
0.250484
0.257751
0.263852
0.268734
0.272428
0.275008
0.276568
0.277207
0.277021
0.276102
0.274533
0.272392
0.269751
0.266674
0.263222
0.259447
0.255406
0.251171
0.246753
0.241971
0.236941
0.233586
0.243103
0.238865
0.238425
0.241397
0.246868
0.253966
0.261775
0.269504
0.276588
0.282684
0.287629
0.291385
0.293991
0.295525
0.296083
0.295764
0.294664
0.292872
0.290472
0.287539
0.284143
0.28035
0.276217
0.271796
0.267143
0.262325
0.257349
0.252051
0.246575