/*--------------------------------*- C++ -*----------------------------------*\
  =========                 |
  \\      /  F ield         | OpenFOAM: The Open Source CFD Toolbox
   \\    /   O peration     | Website:  https://openfoam.org
    \\  /    A nd           | Version:  7
     \\/     M anipulation  |
\*---------------------------------------------------------------------------*/
FoamFile
{
    version     2.0;
    format      ascii;
    class       surfaceScalarField;
    location    "60";
    object      phi;
}
// * * * * * * * * * * * * * * * * * * * * * * * * * * * * * * * * * * * * * //

dimensions      [0 3 -1 0 0 0 0];

internalField   nonuniform List<scalar> 
79480
(
-7.43243e-07
1.12258e-06
-3.79332e-07
-2.86275e-06
3.12826e-06
-1.00876e-06
-6.30784e-06
4.98147e-06
-1.53638e-06
-1.10259e-05
6.67885e-06
-1.96077e-06
-1.6962e-05
8.21834e-06
-2.28226e-06
-2.40592e-05
9.6001e-06
-2.50288e-06
-3.22593e-05
1.08262e-05
-2.62615e-06
-4.15029e-05
1.19004e-05
-2.65678e-06
-5.17303e-05
1.28277e-05
-2.60027e-06
-6.28817e-05
1.36138e-05
-2.46237e-06
-7.4898e-05
1.42648e-05
-2.24855e-06
-8.77206e-05
1.4786e-05
-1.96332e-06
-0.000101293
1.51817e-05
-1.6097e-06
-0.000115559
1.54545e-05
-1.18861e-06
-0.000130465
1.56048e-05
-6.98478e-07
-0.00014596
1.56304e-05
-1.34937e-07
-0.000161997
1.55268e-05
5.09358e-07
-0.000178528
1.52871e-05
1.24474e-06
-0.000195516
1.49029e-05
2.08442e-06
-0.000212925
1.4365e-05
3.04433e-06
-0.000230732
1.36641e-05
4.14297e-06
-0.000248926
1.27923e-05
5.40126e-06
-0.000267512
1.17442e-05
6.84256e-06
-0.000286522
1.05171e-05
8.49284e-06
-0.000306015
9.11128e-06
1.03811e-05
-0.000326083
7.52899e-06
1.25398e-05
-0.000346861
5.77136e-06
1.5006e-05
-0.000368514
3.83207e-06
1.78215e-05
-0.000391243
1.69324e-06
2.1035e-05
-6.57193e-07
2.47103e-05
-0.000415296
-7.37763e-07
1.86034e-06
-2.84236e-06
5.23286e-06
-6.26411e-06
8.40322e-06
-1.09513e-05
1.1366e-05
-1.68497e-05
1.41168e-05
-2.39032e-05
1.66536e-05
-3.2054e-05
1.8977e-05
-4.12432e-05
2.10896e-05
-5.14113e-05
2.29958e-05
-6.24989e-05
2.47014e-05
-7.44466e-05
2.62125e-05
-8.71962e-05
2.75355e-05
-0.00010069
2.86759e-05
-0.000114873
2.96376e-05
-0.000129691
3.04228e-05
-0.000145093
3.10316e-05
-0.000161028
3.14618e-05
-0.00017745
3.17099e-05
-0.000194319
3.17719e-05
-0.000211599
3.16446e-05
-0.000229263
3.13277e-05
-0.000247296
3.08258e-05
-0.000265703
3.01507e-05
-0.000284508
2.93227e-05
-0.000303769
2.83719e-05
-0.000323576
2.73359e-05
-0.00034406
2.62557e-05
-0.000365391
2.51628e-05
-0.000387771
2.40731e-05
2.30291e-05
-0.000411457
-7.26928e-07
2.58727e-06
-2.80183e-06
7.30776e-06
-6.17674e-06
1.17781e-05
-1.08014e-05
1.59907e-05
-1.6623e-05
1.99383e-05
-2.35863e-05
2.36169e-05
-3.16343e-05
2.7025e-05
-4.07088e-05
3.01641e-05
-5.07507e-05
3.30377e-05
-6.17005e-05
3.56511e-05
-7.34988e-05
3.80108e-05
-8.60869e-05
4.01236e-05
-9.9407e-05
4.1996e-05
-0.000113402
4.36331e-05
-0.000128018
4.50385e-05
-0.0001432
4.6214e-05
-0.000158898
4.71594e-05
-0.000175062
4.7874e-05
-0.000191647
4.8357e-05
-0.000208613
4.86105e-05
-0.000225927
4.86418e-05
-0.000243568
4.84667e-05
-0.00026153
4.81129e-05
-0.000279831
4.76234e-05
-0.000298516
4.70573e-05
-0.00031767
4.64894e-05
-0.000337417
4.60033e-05
-0.000357928
4.5673e-05
-0.000379407
4.55528e-05
4.57462e-05
-0.000402124
-7.1089e-07
3.29816e-06
-2.74171e-06
9.33858e-06
-6.04686e-06
1.50833e-05
-1.05782e-05
2.0522e-05
-1.62844e-05
2.56446e-05
-2.31118e-05
3.04443e-05
-3.10045e-05
3.49177e-05
-3.99049e-05
3.90645e-05
-4.97541e-05
4.28869e-05
-6.04927e-05
4.63897e-05
-7.2061e-05
4.95791e-05
-8.43995e-05
5.24622e-05
-9.74493e-05
5.50458e-05
-0.000111152
5.7336e-05
-0.000125451
5.93374e-05
-0.00014029
6.10526e-05
-0.000155613
6.24829e-05
-0.000171368
6.36288e-05
-0.000187503
6.44919e-05
-0.00020397
6.5078e-05
-0.000220728
6.53997e-05
-0.000237744
6.54822e-05
-0.000254998
6.53673e-05
-0.000272493
6.51183e-05
-0.00029026
6.48237e-05
-0.000308367
6.45963e-05
-0.00032693
6.45668e-05
-0.000346116
6.48586e-05
-0.000366135
6.55723e-05
6.68821e-05
-0.000387271
-6.89898e-07
3.98805e-06
-2.66288e-06
1.13116e-05
-5.87629e-06
1.82967e-05
-1.02845e-05
2.49302e-05
-1.58383e-05
3.11984e-05
-2.24856e-05
3.70916e-05
-3.01716e-05
4.26038e-05
-3.88396e-05
4.77324e-05
-4.84309e-05
5.24783e-05
-5.8886e-05
5.68448e-05
-7.01445e-05
6.08376e-05
-8.21459e-05
6.44635e-05
-9.48296e-05
6.77295e-05
-0.000108135
7.06417e-05
-0.000122003
7.32049e-05
-0.000136372
7.54221e-05
-0.000151184
7.72946e-05
-0.000166378
7.88232e-05
-0.000181897
8.00101e-05
-0.000197681
8.0862e-05
-0.000213676
8.13951e-05
-0.000229834
8.16404e-05
-0.000246118
8.16508e-05
-0.000262507
8.15079e-05
-0.000279011
8.13276e-05
-0.000295677
8.12625e-05
-0.000312606
8.14955e-05
-0.000329957
8.22091e-05
-0.000347946
8.35615e-05
8.5814e-05
-0.000366878
-6.64284e-07
4.65234e-06
-2.56654e-06
1.32138e-05
-5.66751e-06
2.13977e-05
-9.92439e-06
2.91871e-05
-1.52904e-05
3.65644e-05
-2.17152e-05
4.35164e-05
-2.91453e-05
5.00339e-05
-3.75245e-05
5.61116e-05
-4.67944e-05
6.17482e-05
-5.68951e-05
6.69455e-05
-6.77653e-05
7.17078e-05
-7.93428e-05
7.60411e-05
-9.1565e-05
7.99517e-05
-0.000104369
8.34453e-05
-0.00011769
8.65263e-05
-0.000131465
8.91966e-05
-0.000145627
9.14566e-05
-0.000160109
9.33055e-05
-0.000174843
9.47439e-05
-0.000189758
9.57772e-05
-0.000204784
9.64214e-05
-0.000219854
9.67098e-05
-0.000234905
9.67021e-05
-0.000249891
9.64941e-05
-0.00026479
9.6227e-05
-0.000279621
9.60936e-05
-0.000294461
9.63347e-05
-0.000309457
9.72051e-05
-0.000324832
9.89366e-05
0.000101901
-0.000340919
-6.34469e-07
5.28681e-06
-2.45419e-06
1.50335e-05
-5.42364e-06
2.43671e-05
-9.50307e-06
3.32665e-05
-1.46482e-05
4.17095e-05
-2.08105e-05
4.96787e-05
-2.79376e-05
5.7161e-05
-3.59741e-05
6.41481e-05
-4.48614e-05
7.06355e-05
-5.45388e-05
7.66229e-05
-6.49437e-05
8.21127e-05
-7.6012e-05
8.71093e-05
-8.76782e-05
9.16179e-05
-9.98756e-05
9.56428e-05
-0.000112536
9.91867e-05
-0.000125589
0.00010225
-0.000138962
0.00010483
-0.000152579
0.000106922
-0.00016636
0.000108524
-0.00018022
0.000109637
-0.00019407
0.000110272
-0.000207819
0.000110459
-0.000221377
0.00011026
-0.000234663
0.00010978
-0.000247618
0.000109181
-0.000260219
0.000108695
-0.00027251
0.000108626
-0.000284622
0.000109317
-0.000296782
0.000111096
0.000114477
-0.000309357
-6.0095e-07
5.88776e-06
-2.32762e-06
1.67602e-05
-5.14837e-06
2.71879e-05
-9.02661e-06
3.71447e-05
-1.39205e-05
4.66034e-05
-1.97832e-05
5.55414e-05
-2.65634e-05
6.39413e-05
-3.42059e-05
7.17906e-05
-4.26519e-05
7.90815e-05
-5.18395e-05
8.58105e-05
-6.17042e-05
9.19774e-05
-7.21794e-05
9.75845e-05
-8.31961e-05
0.000102635
-9.46835e-05
0.00010713
-0.000106568
0.000111071
-0.000118772
0.000114454
-0.000131216
0.000117273
-0.000143812
0.000119519
-0.000156468
0.000121181
-0.000169083
0.000122252
-0.000181548
0.000122736
-0.000193744
0.000122655
-0.000205548
0.000122065
-0.000216839
0.000121071
-0.000227508
0.000119851
-0.000237485
0.000118671
-0.000246765
0.000117905
-0.000255452
0.000118005
-0.00026377
0.000119414
0.000122832
-0.000272126
-5.64296e-07
6.45205e-06
-2.18886e-06
1.83848e-05
-4.84594e-06
2.98449e-05
-8.50195e-06
4.08007e-05
-1.31173e-05
5.12187e-05
-1.86466e-05
6.10707e-05
-2.50394e-05
7.0334e-05
-3.22401e-05
7.89914e-05
-4.01893e-05
8.70306e-05
-4.88233e-05
9.44445e-05
-5.80753e-05
0.000101229
-6.78752e-05
0.000107384
-7.81502e-05
0.00011291
-8.88239e-05
0.000117804
-9.98164e-05
0.000122063
-0.000111043
0.000125681
-0.000122414
0.000128644
-0.000133832
0.000130936
-0.000145188
0.000132537
-0.000156365
0.000133429
-0.00016723
0.000133601
-0.000177635
0.00013306
-0.000187421
0.00013185
-0.000196418
0.000130069
-0.000204463
0.000127896
-0.000211419
0.000125627
-0.000217219
0.000123705
-0.000221926
0.000122712
-0.000225752
0.00012324
0.0001262
-0.00022912
-5.25134e-07
6.97719e-06
-2.04018e-06
1.98998e-05
-4.52104e-06
3.23258e-05
-7.93683e-06
4.42165e-05
-1.22498e-05
5.55317e-05
-1.74157e-05
6.62366e-05
-2.33842e-05
7.63025e-05
-3.00991e-05
8.57063e-05
-3.74994e-05
9.4431e-05
-4.55193e-05
0.000102464
-5.40887e-05
0.000109799
-6.31334e-05
0.000116429
-7.25754e-05
0.000122352
-8.23322e-05
0.000127561
-9.23166e-05
0.000132048
-0.000102435
0.0001358
-0.000112587
0.000138796
-0.000122663
0.000141011
-0.000132538
0.000142413
-0.000142076
0.000142966
-0.000151118
0.000142643
-0.000159488
0.00014143
-0.000166983
0.000139346
-0.000173383
0.000136469
-0.000178458
0.000132971
-0.000181993
0.000129162
-0.000183838
0.000125551
-0.000183996
0.000122869
-0.00018265
0.000121895
0.00012374
-0.00018019
-4.84145e-07
7.46133e-06
-1.88402e-06
2.12997e-05
-4.17872e-06
3.46205e-05
-7.33959e-06
4.73774e-05
-1.13302e-05
5.95223e-05
-1.61066e-05
7.1013e-05
-2.16181e-05
8.18139e-05
-2.78072e-05
9.18955e-05
-3.46106e-05
0.000101234
-4.19592e-05
0.000109813
-4.97789e-05
0.000117618
-5.79905e-05
0.000124641
-6.65096e-05
0.000130871
-7.52465e-05
0.000136298
-8.41052e-05
0.000140907
-9.29822e-05
0.000144677
-0.000101765
0.000147579
-0.000110328
0.000149575
-0.000118532
0.000150617
-0.000126219
0.000150653
-0.000133205
0.000149629
-0.000139279
0.000147504
-0.000144196
0.000144263
-0.00014768
0.000139952
-0.000149428
0.000134719
-0.000149134
0.000128868
-0.000146542
0.000122959
-0.000141565
0.000117893
-0.000134362
0.000114691
0.000114514
-0.000125136
-4.42043e-07
7.90338e-06
-1.72293e-06
2.25806e-05
-3.82432e-06
3.67219e-05
-6.71902e-06
5.02721e-05
-1.03711e-05
6.31744e-05
-1.47364e-05
7.53783e-05
-1.97625e-05
8.68401e-05
-2.53901e-05
9.7523e-05
-3.15524e-05
0.000107397
-3.81763e-05
0.000116437
-4.51824e-05
0.000124625
-5.24853e-05
0.000131944
-5.99929e-05
0.000138378
-6.76068e-05
0.000143911
-7.52205e-05
0.00014852
-8.27187e-05
0.000152175
-8.99747e-05
0.000154835
-9.68479e-05
0.000156448
-0.00010318
0.000156949
-0.000108788
0.000156262
-0.000113464
0.000154305
-0.000116961
0.000151001
-0.00011899
0.000146292
-0.000119216
0.000140178
-0.000117257
0.00013276
-0.000112706
0.000124317
-0.000105177
0.000115431
-9.4446e-05
0.000107162
-8.0739e-05
0.000100984
9.75941e-05
-6.38191e-05
-3.99564e-07
8.30294e-06
-1.55956e-06
2.37406e-05
-3.4633e-06
3.86256e-05
-6.08413e-06
5.28929e-05
-9.38569e-06
6.64759e-05
-1.33223e-05
7.93149e-05
-1.78394e-05
9.13573e-05
-2.28742e-05
0.000102558
-2.83555e-05
0.000112878
-3.42051e-05
0.000122286
-4.03368e-05
0.000130756
-4.66575e-05
0.000138264
-5.30661e-05
0.000144787
-5.94534e-05
0.000150299
-6.57006e-05
0.000154768
-7.16784e-05
0.000158153
-7.72439e-05
0.0001604
-8.22379e-05
0.000161442
-8.64805e-05
0.000161191
-8.97657e-05
0.000159547
-9.18537e-05
0.000156393
-9.24629e-05
0.00015161
-9.12592e-05
0.000145089
-8.78466e-05
0.000136766
-8.17624e-05
0.000126675
-7.24889e-05
0.000115043
-5.94968e-05
0.000102439
-4.23101e-05
8.99749e-05
-2.08665e-05
7.95402e-05
7.50097e-05
1.71786e-06
-3.57448e-07
8.66039e-06
-1.39654e-06
2.47797e-05
-3.10114e-06
4.03302e-05
-5.44394e-06
5.52357e-05
-8.38696e-06
6.9419e-05
-1.18819e-05
8.28099e-05
-1.58707e-05
9.53461e-05
-2.02858e-05
0.000106973
-2.50505e-05
0.000117643
-3.00797e-05
0.000127316
-3.52793e-05
0.000135956
-4.05465e-05
0.000143531
-4.57692e-05
0.00015001
-5.08255e-05
0.000155355
-5.55819e-05
0.000159524
-5.98921e-05
0.000162463
-6.35942e-05
0.000164102
-6.65071e-05
0.000164355
-6.84264e-05
0.000163111
-6.91179e-05
0.000160239
-6.83096e-05
0.000155585
-6.56817e-05
0.000148982
-6.08536e-05
0.00014026
-5.3369e-05
0.000129281
-4.26837e-05
0.00011599
-2.81622e-05
0.000100521
-9.118e-06
8.33944e-05
1.50761e-05
6.57808e-05
4.47423e-05
4.9874e-05
4.07812e-05
7.89708e-05
-3.16415e-07
8.9768e-06
-1.23644e-06
2.56997e-05
-2.74312e-06
4.18369e-05
-4.80716e-06
5.72998e-05
-7.38755e-06
7.19993e-05
-1.0432e-05
8.58543e-05
-1.38774e-05
9.87915e-05
-1.76502e-05
0.000110746
-2.16666e-05
0.000121659
-2.58329e-05
0.000131482
-3.00452e-05
0.000140168
-3.41892e-05
0.000147675
-3.81396e-05
0.00015396
-4.1759e-05
0.000158974
-4.48963e-05
0.000162661
-4.73851e-05
0.000164952
-4.90404e-05
0.000165758
-4.96553e-05
0.00016497
-4.89962e-05
0.000162452
-4.67959e-05
0.000158038
-4.27459e-05
0.000151535
-3.64845e-05
0.00014272
-2.75822e-05
0.000131358
-1.55224e-05
0.000117221
3.20001e-07
0.000100148
2.06916e-05
8.01499e-05
4.64597e-05
5.76263e-05
7.84797e-05
3.37608e-05
0.000117214
1.11396e-05
-4.37561e-06
0.000162371
-2.77145e-07
9.25395e-06
-1.08166e-06
2.65042e-05
-2.3942e-06
4.31495e-05
-4.1819e-06
5.90875e-05
-6.39917e-06
7.42166e-05
-8.98814e-06
8.84433e-05
-1.18791e-05
0.000101682
-1.49907e-05
0.000113857
-1.82305e-05
0.000124899
-2.14942e-05
0.000134746
-2.46662e-05
0.00014334
-2.76183e-05
0.000150628
-3.02093e-05
0.000156551
-3.22835e-05
0.000161048
-3.36686e-05
0.000164046
-3.4174e-05
0.000165457
-3.3587e-05
0.000165171
-3.16697e-05
0.000163052
-2.81531e-05
0.000158935
-2.27314e-05
0.000152616
-1.50525e-05
0.000143856
-4.70715e-06
0.000132375
8.78739e-06
0.000117864
2.60087e-05
0.0001
4.76571e-05
7.84993e-05
7.45905e-05
5.32165e-05
0.00010784
2.43769e-05
0.000148517
-6.91663e-06
0.000197487
-3.78304e-05
-6.15573e-05
0.000254669
-2.40253e-07
9.4942e-06
-9.3436e-07
2.71983e-05
-2.0588e-06
4.42739e-05
-3.57535e-06
6.0604e-05
-5.43209e-06
7.60734e-05
-7.56383e-06
9.05751e-05
-9.89248e-06
0.000104011
-1.23272e-05
0.000116292
-1.47646e-05
0.000127336
-1.70882e-05
0.000137069
-1.91679e-05
0.00014542
-2.08593e-05
0.000152319
-2.20022e-05
0.000157694
-2.24189e-05
0.000161465
-2.19122e-05
0.00016354
-2.02622e-05
0.000163807
-1.72232e-05
0.000162132
-1.25198e-05
0.000158349
-5.84062e-06
0.000152256
3.16747e-06
0.000143608
1.49081e-05
0.000132115
2.98468e-05
0.000117436
4.85265e-05
9.91838e-05
7.15898e-05
7.69367e-05
9.98108e-05
5.02784e-05
0.00013414
1.88868e-05
0.000175758
-1.7241e-05
0.00022604
-5.71986e-05
0.000286258
-9.80483e-05
-0.000132109
0.00035681
-2.0626e-07
9.70046e-06
-7.96338e-07
2.77884e-05
-1.74053e-06
4.52181e-05
-2.99334e-06
6.18568e-05
-4.49459e-06
7.75746e-05
-6.16985e-06
9.22503e-05
-7.93071e-06
0.000105772
-9.67484e-06
0.000118036
-1.12858e-05
0.000128947
-1.26323e-05
0.000138416
-1.35675e-05
0.000146355
-1.39276e-05
0.000152679
-1.35301e-05
0.000157297
-1.21714e-05
0.000160106
-9.62438e-06
0.000160993
-5.63483e-06
0.000159817
8.21708e-08
0.000156415
7.84838e-06
0.000150583
1.80249e-05
0.000142079
3.10217e-05
0.000130612
4.7305e-05
0.000115832
6.74074e-05
9.7334e-05
9.19424e-05
7.46488e-05
0.000121625
4.72545e-05
0.000157301
1.46019e-05
0.000200002
-2.38139e-05
0.000251021
-6.82599e-05
0.000311962
-0.00011814
0.000384498
-0.000170584
-0.000217418
0.000469807
-1.75567e-07
9.87603e-06
-6.68936e-07
2.82818e-05
-1.44205e-06
4.59912e-05
-2.44002e-06
6.28548e-05
-3.59236e-06
7.87269e-05
-4.81332e-06
9.34713e-05
-6.00208e-06
0.000106961
-7.04254e-06
0.000119077
-7.80288e-06
0.000129708
-8.13452e-06
0.000138747
-7.87085e-06
0.000146091
-6.82533e-06
0.000151634
-4.78916e-06
0.00015526
-1.52849e-06
0.000156846
3.21902e-06
0.000156245
9.74817e-06
0.000153288
1.83909e-05
0.000147772
2.95211e-05
0.000139453
4.35615e-05
0.000128039
6.09897e-05
0.000113183
8.2346e-05
9.44758e-05
0.000108243
7.14369e-05
0.000139377
4.35145e-05
0.000176546
1.0086e-05
0.000220672
-2.95241e-05
0.000272851
-7.59933e-05
0.000334449
-0.000129857
0.000407229
-0.00019092
0.0004932
-0.000256555
-0.000318829
0.000594612
-1.48424e-07
1.00245e-05
-5.52933e-07
2.86863e-05
-1.16477e-06
4.6603e-05
-1.91744e-06
6.36075e-05
-2.72792e-06
7.95374e-05
-3.49692e-06
9.42403e-05
-4.10892e-06
0.000107573
-4.43168e-06
0.000119399
-4.31539e-06
0.000129591
-3.59123e-06
0.000138023
-2.06954e-06
0.00014457
4.62688e-07
0.000149101
4.24478e-06
0.000151478
9.546e-06
0.000151545
1.66696e-05
0.000149122
2.59579e-05
0.000144
3.77973e-05
0.000135933
5.26241e-05
0.000124626
7.09318e-05
0.000109731
9.32768e-05
9.08384e-05
0.000120287
6.74661e-05
0.000152667
3.90566e-05
0.00019121
4.9709e-06
0.000236808
-3.55113e-05
0.000290464
-8.31804e-05
0.000353332
-0.000138861
0.000426801
-0.000203327
0.000512701
-0.00027682
0.000613238
-0.000357092
-0.000437536
0.000731945
-1.24904e-07
1.01494e-05
-4.48445e-07
2.90098e-05
-9.08704e-07
4.70633e-05
-1.4252e-06
6.4124e-05
-1.90003e-06
8.00122e-05
-2.21804e-06
9.45583e-05
-2.24654e-06
0.000107601
-1.8345e-06
0.000118987
-8.11265e-07
0.000128568
1.01542e-06
0.000136196
3.86194e-06
0.000141723
7.97194e-06
0.000144991
1.36201e-05
0.00014583
2.11167e-05
0.000144048
3.08125e-05
0.000139426
4.31043e-05
0.000131708
5.84415e-05
0.000120595
7.73323e-05
0.000105735
0.000100351
8.67126e-05
0.000128144
6.30452e-05
0.000161438
3.41725e-05
0.000201042
-5.48006e-07
0.000247858
-4.18446e-05
0.000302877
-9.05305e-05
0.000367191
-0.000147494
0.000442001
-0.000213672
0.000528679
-0.000290004
0.000629006
-0.000377148
0.00074519
-0.000473276
-0.000574445
0.000882098
-1.04881e-07
1.02542e-05
-3.5484e-07
2.92598e-05
-6.72225e-07
4.73807e-05
-9.60098e-07
6.44118e-05
-1.10325e-06
8.01554e-05
-9.68117e-07
9.44232e-05
-4.02204e-07
0.000107035
7.67112e-07
0.000117818
2.73453e-06
0.000126601
5.71935e-06
0.000133212
9.96871e-06
0.000137474
1.57616e-05
0.000139199
2.34134e-05
0.000138178
3.32814e-05
0.00013418
4.57708e-05
0.000126936
6.1341e-05
0.000116138
8.05127e-05
0.000101424
0.000103875
8.23723e-05
0.000132094
5.84944e-05
0.000165914
2.92248e-05
0.00020617
-6.08346e-06
0.000253784
-4.81624e-05
0.000309769
-9.78293e-05
0.00037522
-0.000155982
0.000451311
-0.000223585
0.000539277
-0.000301638
0.000640432
-0.000391158
0.000756387
-0.000493104
0.000889138
-0.000606026
-0.00073
0.00104469
-8.80025e-08
1.03422e-05
-2.70667e-07
2.94424e-05
-4.51958e-07
4.7562e-05
-5.15937e-07
6.44758e-05
-3.27502e-07
7.9967e-05
2.67931e-07
9.38277e-05
1.44547e-06
0.000105858
3.40256e-06
0.000115861
6.3614e-06
0.000123642
1.05722e-05
0.000129001
1.63175e-05
0.000131729
2.39166e-05
0.000131599
3.37317e-05
0.000128363
4.61736e-05
0.000121738
6.17093e-05
0.000111401
8.08688e-05
9.69786e-05
0.000104253
7.80397e-05
0.00013254
5.4085e-05
0.000166494
2.45404e-05
0.000206968
-1.12492e-05
0.000254907
-5.40227e-05
0.000311348
-0.000104603
0.000377408
-0.00016389
0.000454277
-0.00023285
0.000543186
-0.000312494
0.000645379
-0.000403831
0.000762067
-0.000507847
0.000894562
-0.000625598
0.00104448
-0.000755946
-0.000903962
0.00121844
-7.36878e-08
1.04159e-05
-1.93613e-07
2.95624e-05
-2.42684e-07
4.7611e-05
-8.33106e-08
6.43164e-05
4.42059e-07
7.94416e-05
1.51193e-06
9.27579e-05
3.32713e-06
0.000104043
6.11323e-06
0.000113075
1.01237e-05
0.000119631
1.56443e-05
0.00012348
2.29976e-05
0.000124375
3.25491e-05
0.000122048
4.4714e-05
0.000116198
5.99639e-05
0.000106488
7.88349e-05
9.25297e-05
0.000101935
7.38781e-05
0.000129954
5.00213e-05
0.000163665
2.03734e-05
0.000203938
-1.57321e-05
0.000251733
-5.90446e-05
0.000308106
-0.000110396
0.000374197
-0.000170693
0.000451213
-0.000240906
0.000540403
-0.00032204
0.000643016
-0.000415107
0.000760246
-0.000521061
0.00089315
-0.000640751
0.00104259
-0.000775039
0.00120977
-0.000923124
-0.00109514
0.00140095
-6.11172e-08
1.0477e-05
-1.20494e-07
2.96217e-05
-3.72473e-08
4.75278e-05
3.50283e-07
6.39289e-05
1.22517e-06
7.85667e-05
2.79268e-06
9.11904e-05
5.28261e-06
0.000101553
8.95236e-06
0.000109405
1.4091e-05
0.000114493
2.10243e-05
0.000116547
3.01205e-05
0.000115279
4.17976e-05
0.000110371
5.65301e-05
0.000101466
7.48575e-05
8.81607e-05
9.73926e-05
6.99946e-05
0.000124829
4.64414e-05
0.00015795
1.69009e-05
0.00019763
-1.9307e-05
0.000244843
-6.29446e-05
0.000300654
-0.000114856
0.000366217
-0.000175959
0.000442753
-0.000247229
0.000531523
-0.000329676
0.000633785
-0.000424302
0.000750733
-0.000532055
0.000883424
-0.000653753
0.00103269
-0.000790014
0.00119878
-0.000941129
0.0013826
-0.00110695
-0.00130112
0.00158858
-4.92488e-08
1.05263e-05
-4.73274e-08
2.96198e-05
1.72986e-07
4.73075e-05
8.00476e-07
6.33014e-05
2.04621e-06
7.7321e-05
4.14546e-06
8.90911e-05
7.3605e-06
9.83375e-05
1.19846e-05
0.000104781
1.83468e-05
0.00010813
2.68182e-05
0.000108076
3.78187e-05
0.000104279
5.18245e-05
9.6365e-05
6.93767e-05
8.39137e-05
9.10894e-05
6.64479e-05
0.000117659
4.34254e-05
0.000149869
1.42309e-05
0.0001886
-2.18303e-05
0.000234829
-6.55353e-05
0.000289626
-0.000117742
0.000354149
-0.00017938
0.000429625
-0.000251435
0.000517318
-0.000334922
0.000618487
-0.000430845
0.000734324
-0.000540138
0.000865874
-0.000663604
0.00101394
-0.000801816
0.001179
-0.000955081
0.0013606
-0.00112272
0.00155958
-0.00130593
-0.00151796
0.00177642
-3.68242e-08
1.05631e-05
3.06842e-08
2.95523e-05
3.987e-07
4.69395e-05
1.28566e-06
6.24145e-05
2.93372e-06
7.56729e-05
5.6114e-06
8.64134e-05
9.61719e-06
9.43318e-05
1.52844e-05
9.91137e-05
2.29871e-05
0.000100428
3.31471e-05
9.79155e-05
4.62416e-05
9.11842e-05
6.28116e-05
7.97949e-05
8.34711e-05
6.32542e-05
0.000108915
4.1004e-05
0.000139927
1.24133e-05
0.000177386
-2.32278e-05
0.000222267
-6.67111e-05
0.00027564
-0.000118908
0.000338661
-0.000180763
0.000412554
-0.000253272
0.000498578
-0.000337459
0.000597984
-0.000434329
0.000711954
-0.000544814
0.000841516
-0.0006697
0.000987448
-0.000809537
0.00115016
-0.00096453
0.00132965
-0.00113457
0.00152469
-0.00131776
0.00173628
-0.00151752
-0.00174015
0.00195847
-2.24184e-08
1.05855e-05
1.18883e-07
2.9411e-05
6.5162e-07
4.64067e-05
1.82646e-06
6.12396e-05
3.91969e-06
7.35797e-05
7.23647e-06
8.30966e-05
1.21154e-05
8.94528e-05
1.89345e-05
9.22947e-05
2.81176e-05
9.12445e-05
4.01428e-05
8.58903e-05
5.55506e-05
7.57763e-05
7.4953e-05
6.03926e-05
9.90419e-05
3.91653e-05
0.000128597
1.14485e-05
0.000164493
-2.34826e-05
0.0002077
-6.64342e-05
0.000259281
-0.000118292
0.000320385
-0.000180013
0.000392227
-0.000252605
0.000476055
-0.0003371
0.000573105
-0.000434509
0.00068454
-0.000545763
0.000811366
-0.00067164
0.000954338
-0.000812672
0.00111384
-0.000969043
0.00128978
-0.00114047
0.00148147
-0.00132626
0.00168705
-0.00152333
0.00190731
-0.00173778
-0.00196077
0.00212792
-4.46703e-09
1.059e-05
2.23216e-07
2.91833e-05
9.44563e-07
4.56854e-05
2.44521e-06
5.9739e-05
5.03857e-06
7.09863e-05
9.07e-06
7.90652e-05
1.49223e-05
8.36005e-05
2.30225e-05
8.41945e-05
3.38497e-05
8.04173e-05
4.79434e-05
7.17966e-05
6.59128e-05
5.78069e-05
8.84457e-05
3.78597e-05
0.000116316
1.12949e-05
0.000150391
-2.2626e-05
0.000191631
-6.47228e-05
0.000241091
-0.000115895
0.000299909
-0.00017711
0.000369284
-0.000249389
0.00045045
-0.000333771
0.000544624
-0.000431274
0.000652943
-0.000542828
0.000776387
-0.000669207
0.000915678
-0.000810932
0.00107118
-0.000968173
0.00124278
-0.00114064
0.00142978
-0.00132747
0.00163077
-0.00152725
0.00184355
-0.00173611
0.00206687
-0.0019611
-0.00217151
0.00227761
1.8677e-08
1.05713e-05
3.49788e-07
2.88522e-05
1.29088e-06
4.47443e-05
3.16515e-06
5.78647e-05
6.32617e-06
6.78253e-05
1.1163e-05
7.42283e-05
1.81068e-05
7.66567e-05
2.76383e-05
7.46631e-05
4.02962e-05
6.77594e-05
5.66868e-05
5.5406e-05
7.74924e-05
3.70013e-05
0.00010348
1.18724e-05
0.000135506
-2.07315e-05
0.000174522
-6.16421e-05
0.00022157
-0.00011177
0.000277772
-0.000172097
0.000344314
-0.000243651
0.000422408
-0.000327483
0.000513251
-0.000424614
0.000617956
-0.000535979
0.000737472
-0.000662344
0.000872487
-0.000804222
0.00102332
-0.000961769
0.00118983
-0.00113468
0.00137131
-0.00132212
0.00156645
-0.00152262
0.00177323
-0.00173403
0.00198977
-0.00195266
0.0022106
-0.00218193
-0.00236403
0.00240312
4.86509e-08
1.05227e-05
5.04792e-07
2.83961e-05
1.70404e-06
4.3545e-05
4.00962e-06
5.55591e-05
7.81831e-06
6.40166e-05
1.35664e-05
6.84802e-05
2.17373e-05
6.84858e-05
3.28696e-05
6.35308e-05
4.75664e-05
5.30626e-05
6.65043e-05
3.64681e-05
9.04418e-05
1.30638e-05
0.000120225
-1.79113e-05
0.000156793
-5.72994e-05
0.000201173
-0.000106022
0.000254471
-0.000165068
0.000317854
-0.00023548
0.000392518
-0.000318315
0.000479637
-0.000414602
0.000580301
-0.000525278
0.000695432
-0.000651109
0.000825688
-0.000792599
0.000971354
-0.000949888
0.00113224
-0.00112266
0.0013076
-0.00131004
0.00149606
-0.00151058
0.00169568
-0.00172223
0.0019039
-0.00194225
0.00211911
-0.00216787
0.00233559
-0.00239841
-0.00260568
0.00257725
8.70785e-08
1.04356e-05
6.94267e-07
2.77889e-05
2.19711e-06
4.20422e-05
5.00125e-06
5.2755e-05
9.54954e-06
5.94683e-05
1.63289e-05
6.17008e-05
2.58786e-05
5.89361e-05
3.87989e-05
5.06104e-05
5.57607e-05
3.61008e-05
7.75136e-05
1.47153e-05
0.000104893
-1.43152e-05
0.000138822
-5.18407e-05
0.000180313
-9.87906e-05
0.000230456
-0.000156165
0.0002904
-0.000225012
0.000361321
-0.000306401
0.000444374
-0.000401369
0.00054063
-0.000510859
0.000650992
-0.00063564
0.000776095
-0.000776212
0.000916202
-0.000932706
0.0010711
-0.00110478
0.00123999
-0.00129155
0.00142147
-0.00149152
0.00161351
-0.00170262
0.00181355
-0.00192228
0.00201867
-0.00214736
0.00222634
-0.00237554
0.00243187
-0.00260394
-0.00282003
0.00264621
1.35468e-07
1.03001e-05
9.23862e-07
2.70005e-05
2.78232e-06
4.01837e-05
6.1611e-06
4.93762e-05
1.15518e-05
5.40776e-05
1.9495e-05
5.37576e-05
3.05891e-05
4.78421e-05
4.5499e-05
3.57005e-05
6.49654e-05
1.66344e-05
8.98114e-05
-1.01307e-05
0.000120947
-4.54503e-05
0.000159366
-9.02598e-05
0.000206141
-0.000145566
0.000262403
-0.000212427
0.000329311
-0.00029192
0.000408005
-0.000385094
0.000499539
-0.000492903
0.000604805
-0.000616125
0.000724429
-0.000755264
0.000858665
-0.000910448
0.00100729
-0.00108133
0.0011695
-0.001267
0.00134388
-0.00146593
0.00152836
-0.001676
0.00172032
-0.00189458
0.00191673
-0.00211869
0.0021144
-0.00234503
0.00231025
-0.00257138
0.00250064
-0.00279433
-0.00300849
0.00268911
1.95184e-07
1.01049e-05
1.19867e-06
2.5997e-05
3.47063e-06
3.79118e-05
7.50795e-06
4.53389e-05
1.38533e-05
4.77322e-05
2.31036e-05
4.45073e-05
3.59186e-05
3.50272e-05
5.30298e-05
1.85892e-05
7.52482e-05
-5.58396e-06
0.000103468
-3.83505e-05
0.000138667
-8.06494e-05
0.0001819
-0.000133492
0.000234279
-0.000197945
0.000296946
-0.000275095
0.000371029
-0.000366003
0.000457573
-0.000471639
0.000557467
-0.000592797
0.000671337
-0.000729995
0.000799446
-0.000883373
0.000941582
-0.00105258
0.00109696
-0.00123671
0.00126417
-0.00143421
0.00144117
-0.00164292
0.00162533
-0.00186016
0.00181359
-0.00208285
0.00200269
-0.00230778
0.00218942
-0.00253176
0.00237077
-0.00275274
0.00254388
-0.00296744
-0.00317506
0.00271045
2.67404e-07
9.83754e-06
1.52308e-06
2.47413e-05
4.27145e-06
3.51634e-05
9.05768e-06
4.05527e-05
1.64775e-05
4.03124e-05
2.7186e-05
3.37989e-05
4.19059e-05
2.03073e-05
6.14354e-05
-9.40349e-07
8.66537e-05
-3.08022e-05
0.000118521
-7.02179e-05
0.000158073
-0.000120202
0.000206406
-0.000181825
0.000264646
-0.000256185
0.000333909
-0.000344358
0.000415238
-0.000447332
0.000509524
-0.000565925
0.000617409
-0.000700681
0.000739177
-0.000851763
0.000874647
-0.00101884
0.00102308
-0.00120101
0.00118309
-0.00139673
0.00135269
-0.00160381
0.00152929
-0.00181952
0.00170985
-0.00204072
0.00189112
-0.00226412
0.00206985
-0.00248652
0.00224315
-0.00270505
0.00240848
-0.00291808
0.00256397
-0.00312293
-0.00332169
0.0027106
3.53101e-07
9.48444e-06
1.90068e-06
2.31937e-05
5.19237e-06
3.18717e-05
1.08229e-05
3.49222e-05
1.94425e-05
3.16928e-05
3.17652e-05
2.14761e-05
4.85771e-05
3.49545e-06
7.07414e-05
-2.31046e-05
9.92006e-05
-5.92615e-05
0.000134972
-0.000105989
0.000179133
-0.000164363
0.000232798
-0.000235489
0.000297073
-0.00032046
0.000373002
-0.000420287
0.000461486
-0.000535816
0.00056319
-0.000667629
0.000678435
-0.000815926
0.00080709
-0.000980418
0.000948469
-0.00116022
0.00110127
-0.00135381
0.00126355
-0.00155901
0.00143279
-0.00177304
0.001606
-0.00199273
0.00177997
-0.00221469
0.00195149
-0.00243563
0.00211762
-0.00265265
0.00227601
-0.00286344
0.0024249
-0.00306696
0.00256338
-0.00326142
-0.00345071
0.0026924
4.53037e-07
9.0314e-06
2.33424e-06
2.13125e-05
6.23905e-06
2.79669e-05
1.28126e-05
2.83486e-05
2.27601e-05
2.17452e-05
3.6855e-05
7.38121e-06
5.59446e-05
-1.55941e-05
8.09532e-05
-4.81132e-05
0.000112879
-9.11872e-05
0.000152782
-0.000145893
0.000201763
-0.000213343
0.00026092
-0.000294647
0.000331301
-0.000390841
0.000413824
-0.000502809
0.000509184
-0.000631177
0.000617753
-0.000776197
0.000739462
-0.000937635
0.000873704
-0.00111466
0.00101926
-0.00130578
0.00117429
-0.00150884
0.00133633
-0.00172105
0.0015025
-0.0019392
0.0016696
-0.00215983
0.00183446
-0.00237955
0.00199416
-0.00259534
0.00214633
-0.00280482
0.0022893
-0.00300642
0.00242216
-0.00319982
0.00254493
-0.00338418
-0.00356447
0.00265869
5.67764e-07
8.46364e-06
2.82567e-06
1.90546e-05
7.41519e-06
2.33774e-05
1.5032e-05
2.07318e-05
2.64364e-05
1.03409e-05
4.24592e-05
-8.64159e-06
6.40059e-05
-3.71409e-05
9.20551e-05
-7.61624e-05
0.000127649
-0.000126781
0.000171873
-0.000190116
0.000225821
-0.000267291
0.000290544
-0.000359371
0.000366981
-0.000467278
0.000455866
-0.000591694
0.000557628
-0.000732938
0.000672276
-0.000890846
0.0007993
-0.00106466
0.000937587
-0.00125295
0.00108539
-0.00145359
0.00124038
-0.00166382
0.00139972
-0.0018804
0.00156031
-0.00209979
0.00171897
-0.0023185
0.00187281
-0.00253339
0.00201941
-0.00274194
0.00215708
-0.00294249
0.00228493
-0.00313427
0.00240285
-0.00331773
0.00251158
-0.00349292
-0.00366528
0.00261239
6.97644e-07
7.76599e-06
3.37607e-06
1.63762e-05
8.72253e-06
1.80309e-05
1.74828e-05
1.19715e-05
3.04706e-05
-2.64686e-06
4.85716e-05
-2.67425e-05
7.27435e-05
-6.13128e-05
0.000104009
-0.000107428
0.00014344
-0.000166211
0.000192122
-0.000238798
0.000251113
-0.000326282
0.000321373
-0.00042963
0.000403679
-0.000549585
0.000498526
-0.000686541
0.000606013
-0.000840425
0.000725737
-0.00101057
0.000856709
-0.00119563
0.000997315
-0.00139355
0.00114533
-0.00160161
0.00129804
-0.00181653
0.00145238
-0.00203474
0.00160523
-0.00225264
0.00175368
-0.00246695
0.00189526
-0.00267498
0.00202822
-0.00287489
0.00215157
-0.00306584
0.0022652
-0.0032479
0.00236964
-0.00342217
0.00246617
-0.00358945
-0.00375529
0.00255618
8.42866e-07
6.92313e-06
3.98579e-06
1.32333e-05
1.01609e-05
1.18558e-05
2.01628e-05
1.96958e-06
3.48559e-05
-1.73399e-05
5.51758e-05
-4.70624e-05
8.21244e-05
-8.82614e-05
0.000116756
-0.00014206
0.000160149
-0.000209605
0.000213366
-0.000292016
0.00027739
-0.000390306
0.000353043
-0.000505283
0.000440889
-0.000637431
0.000541125
-0.000786777
0.000653469
-0.000952769
0.000777071
-0.00113417
0.000910462
-0.00132902
0.00105156
-0.00153465
0.00119775
-0.0017478