/*--------------------------------*- C++ -*----------------------------------*\
  =========                 |
  \\      /  F ield         | OpenFOAM: The Open Source CFD Toolbox
   \\    /   O peration     | Website:  https://openfoam.org
    \\  /    A nd           | Version:  7
     \\/     M anipulation  |
\*---------------------------------------------------------------------------*/
FoamFile
{
    version     2.0;
    format      ascii;
    class       volVectorField;
    location    "65";
    object      U;
}
// * * * * * * * * * * * * * * * * * * * * * * * * * * * * * * * * * * * * * //

dimensions      [0 1 -1 0 0 0 0];

internalField   nonuniform List<vector> 
928
(
(1.08301 0.462986 -8.96659e-21)
(1.0891 0.451701 -1.39307e-20)
(1.05833 0.475354 3.68062e-21)
(1.06693 0.463953 3.74e-20)
(1.07383 0.452429 2.78296e-21)
(1.01864 0.498677 -4.44812e-22)
(1.03011 0.487536 -2.0098e-20)
(1.04078 0.475796 1.36902e-20)
(1.05029 0.463995 3.1429e-20)
(1.05818 0.452287 -2.39128e-21)
(0.986571 0.51042 1.18695e-20)
(0.999087 0.499459 -3.33941e-20)
(1.01104 0.487619 -2.61706e-20)
(1.02248 0.475287 -5.82559e-21)
(1.03304 0.463076 -5.29636e-20)
(0.952742 0.521567 -1.2851e-20)
(0.966025 0.511093 -5.16924e-20)
(0.978703 0.499379 -7.57412e-21)
(0.991079 0.486815 1.87881e-20)
(1.00331 0.473839 6.80944e-20)
(0.902297 0.539336 4.5943e-22)
(0.917556 0.531706 3.14959e-22)
(0.931596 0.522143 3.23775e-20)
(0.944779 0.51096 2.02529e-20)
(0.957504 0.498514 9.82518e-20)
(0.970179 0.485204 -2.70213e-20)
(0.864623 0.546356 3.19187e-20)
(0.881143 0.540322 -3.29614e-20)
(0.896152 0.532085 6.58864e-21)
(0.909964 0.521913 -1.60089e-20)
(0.922952 0.510101 -7.26874e-20)
(0.935557 0.496979 7.44361e-20)
(0.825373 0.551047 -2.46293e-20)
(0.843404 0.5469 -1.32924e-20)
(0.859689 0.540329 -2.4449e-20)
(0.87447 0.531581 -2.64633e-20)
(0.888033 0.520914 3.85491e-20)
(0.900734 0.508597 -8.69616e-20)
(0.762611 0.552209 -5.83207e-20)
(0.784402 0.553024 1.77193e-20)
(0.804139 0.550998 2.12502e-20)
(0.821977 0.546353 6.45724e-21)
(0.838096 0.539331 3.9025e-20)
(0.852703 0.530182 1.88952e-20)
(0.717965 0.548664 3.08461e-20)
(0.741612 0.551973 4.92831e-20)
(0.763163 0.552264 1.00338e-20)
(0.782737 0.549751 -3.98879e-20)
(0.800471 0.544672 2.36822e-20)
(0.816519 0.537279 1.33819e-20)
(0.671516 0.541669 -1.79435e-20)
(0.696993 0.547639 5.10703e-20)
(0.72038 0.550422 -4.30983e-20)
(0.741767 0.550221 -1.31601e-20)
(0.761263 0.547264 4.4391e-20)
(0.77899 0.541801 2.12118e-21)
(0.623419 0.531028 -4.61235e-20)
(0.650634 0.53981 5.24759e-20)
(0.675803 0.545249 2.1173e-20)
(0.698994 0.547529 -1.58941e-20)
(0.720291 0.546864 -9.49949e-20)
(0.739792 0.543494 -1.3233e-20)
(0.573908 0.516589 4.55224e-20)
(0.602715 0.528316 -2.75932e-20)
(0.629554 0.536557 -6.13802e-20)
(0.65447 0.541478 -8.42824e-20)
(0.677525 0.543273 -9.69788e-21)
(0.698797 0.542168 1.79142e-19)
(0.523295 0.498242 -3.27304e-20)
(0.5535 0.513021 4.55007e-20)
(0.581844 0.524193 -1.11348e-20)
(0.608352 0.531899 -4.61661e-20)
(0.633065 0.536315 4.54094e-20)
(0.656038 0.537645 -3.09657e-20)
(0.677343 0.536124 -2.62324e-20)
(0.471958 0.475925 -5.97459e-20)
(0.503323 0.493837 -7.30843e-21)
(0.532963 0.508041 -4.86831e-21)
(0.560884 0.518655 -4.2269e-20)
(0.587103 0.525833 1.08648e-19)
(0.611657 0.529759 -1.2508e-20)
(0.634595 0.530645 6.64441e-20)
(0.420333 0.449639 4.72771e-21)
(0.452581 0.470727 -1.00313e-21)
(0.483268 0.488032 -6.2354e-20)
(0.512378 0.501649 1.54805e-20)
(0.539911 0.511706 2.09285e-20)
(0.565881 0.518364 1.32464e-19)
(0.590315 0.521817 3.82104e-20)
(0.368909 0.419449 1.47063e-21)
(0.401727 0.443718 9.2619e-20)
(0.433172 0.464155 -7.98426e-20)
(0.463211 0.480831 4.96412e-20)
(0.491824 0.493851 5.71305e-20)
(0.519005 0.503353 -3.92471e-21)
(0.544759 0.509504 2.54546e-20)
(0.35126 0.412905 1.37125e-20)
(0.383141 0.436462 -7.09403e-20)
(0.413812 0.456215 8.62427e-20)
(0.443234 0.472244 -1.0004e-19)
(0.471382 0.484661 -3.50071e-20)
(0.498241 0.493612 2.56329e-20)
(0.301722 0.378464 7.33759e-20)
(0.333686 0.405083 -7.46444e-20)
(0.364657 0.427884 5.40811e-20)
(0.394583 0.446922 -5.94834e-20)
(0.423418 0.462287 7.98414e-20)
(0.451131 0.474098 -9.79663e-22)
(0.253685 0.340654 -2.90829e-20)
(0.285351 0.370227 -3.13838e-20)
(0.316263 0.395997 -3.24663e-20)
(0.346355 0.417999 9.22212e-20)
(0.375565 0.436296 5.82504e-20)
(0.403844 0.450983 -7.86719e-20)
(0.431151 0.462186 -3.22572e-20)
(0.20774 0.299828 3.90279e-20)
(0.238708 0.332193 1.74454e-20)
(0.269178 0.360802 1.79654e-20)
(0.299072 0.385667 2.5562e-20)
(0.328314 0.40683 -1.41178e-19)
(0.356841 0.42436 4.40212e-20)
(0.384592 0.438358 2.89408e-20)
(0.16449 0.256431 4.74859e-20)
(0.194344 0.291373 -9.888e-20)
(0.223971 0.322635 6.38634e-20)
(0.25328 0.350211 7.74224e-20)
(0.282187 0.374119 -8.90371e-20)
(0.310614 0.394405 1.25127e-19)
(0.338487 0.411145 6.00022e-20)
(0.152852 0.248254 2.28248e-20)
(0.181219 0.281928 7.79697e-20)
(0.209542 0.312005 5.80882e-20)
(0.237728 0.338481 1.28167e-20)
(0.265687 0.361381 -5.47378e-20)
(0.293332 0.380756 2.12133e-20)
(0.320584 0.396686 -1.12415e-19)
(0.114809 0.203422 -8.04836e-20)
(0.1415 0.239211 1.89775e-20)
(0.168427 0.271521 -2.33404e-20)
(0.195492 0.300331 -2.2791e-20)
(0.222596 0.325644 -1.35114e-19)
(0.249644 0.347489 -4.75288e-20)
(0.276543 0.36592 5.686e-20)
(0.105371 0.195109 -1.41244e-19)
(0.130491 0.22933 4.75516e-20)
(0.15603 0.260182 -8.18895e-21)
(0.181885 0.287649 -8.91043e-21)
(0.207952 0.311738 -2.13189e-20)
(0.234131 0.332483 -6.48052e-20)
(0.260322 0.349941 -4.9769e-20)
(0.0733493 0.150343 6.10573e-20)
(0.0962688 0.186094 -5.50034e-20)
(0.11988 0.218639 9.60328e-20)
(0.144088 0.247944 2.94498e-20)
(0.168786 0.273995 -2.29476e-21)
(0.193865 0.296804 6.34987e-20)
(0.219218 0.316407 4.8217e-20)
(0.0459007 0.105724 -7.52715e-20)
(0.066243 0.142572 1.28874e-19)
(0.0875475 0.176406 1.00766e-20)
(0.109719 0.207175 -9.0143e-20)
(0.132659 0.234846 7.78575e-20)
(0.156257 0.259413 -1.46759e-19)
(0.1804 0.280888 -8.60318e-21)
(0.204973 0.299309 2.6183e-20)
(0.0408408 0.0996039 2.27588e-20)
(0.05948 0.134272 -3.72684e-20)
(0.0792514 0.166077 -7.17617e-20)
(0.100058 0.194973 4.32517e-20)
(0.121799 0.220931 -1.62736e-20)
(0.144358 0.243948 3.65319e-20)
(0.167618 0.264038 -2.59982e-21)
(0.0205193 0.0580703 -3.05261e-20)
(0.0360617 0.0931059 -1.87758e-20)
(0.0530948 0.125472 1.20803e-20)
(0.0714223 0.155142 5.30161e-20)
(0.0909452 0.182075 -3.25593e-20)
(0.111559 0.206245 5.98128e-20)
(0.133145 0.22765 -1.39069e-19)
(0.15558 0.24631 1.74847e-19)
(0.0177042 0.0538116 5.92996e-21)
(0.0315884 0.0862536 -5.46552e-21)
(0.0471204 0.116204 -4.51742e-21)
(0.0640995 0.143641 -7.8573e-21)
(0.0824251 0.168525 -2.52417e-20)
(0.10199 0.190836 -5.6622e-20)
(0.122671 0.210574 8.87395e-20)
(0.14434 0.227758 -1.08325e-19)
(0.0150954 0.0493437 -4.98465e-20)
(0.0274441 0.0790722 8.85906e-20)
(0.0415872 0.106502 -7.09381e-20)
(0.0573201 0.131612 7.51244e-20)
(0.0745401 0.154369 -2.72293e-20)
(0.0931375 0.174757 1.00054e-19)
(0.112985 0.192775 -4.41127e-20)
(0.00396897 0.0156943 6.45313e-20)
(0.0127067 0.0446835 -3.35899e-20)
(0.0236505 0.0715882 2.50399e-20)
(0.0365237 0.096399 -3.1117e-20)
(0.0511179 0.119099 -5.32472e-20)
(0.0673289 0.139658 1.98917e-20)
(0.0850443 0.158062 -8.22466e-20)
(0.104134 0.174314 8.18682e-20)
(0.00320702 0.0139989 -3.12718e-20)
(0.0105506 0.0398487 1.92487e-20)
(0.0202273 0.0638295 4.09306e-20)
(0.0319557 0.0859338 4.45132e-21)
(0.0455242 0.106147 -1.37597e-20)
(0.060827 0.124443 -2.60502e-20)
(0.0777494 0.14081 1.48828e-20)
(0.0961576 0.155252 7.27926e-20)
(0.00253115 0.0122477 2.85073e-20)
(0.00863862 0.0348578 -7.51442e-20)
(0.0171921 0.0558255 -3.61567e-21)
(0.0279064 0.0751446 -1.954e-20)
(0.0405669 0.0928026 3.72528e-20)
(0.0550664 0.108778 -4.51303e-20)
(0.0712879 0.123061 4.05803e-20)
(0.00194497 0.0104475 3.16842e-20)
(0.00698073 0.0297303 -2.01451e-20)
(0.0145608 0.0476066 1.85651e-20)
(0.0243967 0.0640716 -3.29694e-21)
(0.036271 0.0791153 1.84237e-20)
(0.0500753 0.0927194 1.48696e-20)
(0.0656909 0.104876 1.05473e-20)
(0.00145163 0.00860566 1.66122e-20)
(0.00558565 0.0244859 -8.37632e-21)
(0.012347 0.0392041 -1.08636e-20)
(0.0214442 0.0527565 3.14605e-21)
(0.0326578 0.0651348 -2.36577e-21)
(0.0458782 0.0763247 -2.0613e-20)
(0.0609851 0.0863197 -2.97173e-21)
(0.00105377 0.00672932 -1.49449e-20)
(0.00446071 0.0191453 1.25499e-20)
(0.0105621 0.0306504 -1.32872e-20)
(0.019064 0.0412416 4.1165e-20)
(0.0297454 0.0509129 1.33038e-20)
(0.0424956 0.0596531 -2.67835e-21)
(0.0571932 0.0674573 -3.11745e-20)
(0.000753494 0.00482603 -4.67028e-21)
(0.00361182 0.0137294 3.74438e-21)
(0.00921526 0.0219781 -2.70354e-20)
(0.0172682 0.0295705 -1.00094e-20)
(0.0275483 0.036502 -4.81703e-22)
(0.0399442 0.0427648 -1.78626e-21)
(0.0543333 0.0483556 1.05782e-20)
(0.000552419 0.00290338 -4.24271e-21)
(0.00304341 0.00825931 1.31833e-20)
(0.00831351 0.013221 4.00938e-21)
(0.016066 0.0177873 -7.66771e-21)
(0.0260774 0.0219556 2.14289e-21)
(0.0382362 0.0257212 8.8015e-21)
(0.0524191 0.0290822 -1.1439e-20)
(0.000451613 0.00096909 2.69908e-21)
(0.00275845 0.00275672 -3.61487e-21)
(0.00786147 0.00441268 -8.95608e-23)
(0.0154633 0.00593659 2.11215e-21)
(0.0253402 0.00732761 4.16983e-21)
(0.0373802 0.00858414 -7.12268e-21)
(0.0514597 0.00970557 3.04989e-21)
(0.000451613 -0.00096909 8.50468e-22)
(0.00275845 -0.00275672 1.11759e-21)
(0.00786147 -0.00441268 -1.42855e-21)
(0.0154633 -0.00593659 4.95939e-21)
(0.0253402 -0.00732761 1.84131e-21)
(0.0373802 -0.00858414 2.59688e-21)
(0.0514597 -0.00970557 -6.81948e-21)
(0.000552419 -0.00290338 4.69212e-21)
(0.00304341 -0.00825931 -8.84363e-21)
(0.00831351 -0.013221 1.01665e-20)
(0.016066 -0.0177873 -3.13727e-22)
(0.0260774 -0.0219556 -7.85416e-21)
(0.0382362 -0.0257212 -6.14291e-21)
(0.0524191 -0.0290822 1.65393e-20)
(0.000753494 -0.00482603 3.64599e-21)
(0.00361182 -0.0137294 -4.14435e-21)
(0.00921526 -0.0219781 6.36621e-21)
(0.0172682 -0.0295705 -1.4186e-21)
(0.0275483 -0.036502 -2.36628e-20)
(0.0399442 -0.0427648 1.21038e-20)
(0.0543333 -0.0483556 -1.04999e-20)
(0.00105377 -0.00672932 6.34502e-21)
(0.00446071 -0.0191453 -2.83376e-20)
(0.0105621 -0.0306504 4.4706e-20)
(0.019064 -0.0412416 -1.2654e-20)
(0.0297454 -0.0509129 -1.09407e-21)
(0.0424956 -0.0596531 1.37322e-20)
(0.0571932 -0.0674573 1.8654e-20)
(0.00145163 -0.00860566 7.77925e-21)
(0.00558565 -0.0244859 4.60704e-20)
(0.012347 -0.0392041 -1.55894e-20)
(0.0214442 -0.0527565 -1.74635e-20)
(0.0326578 -0.0651348 2.11472e-20)
(0.0458782 -0.0763247 -8.42382e-22)
(0.0609851 -0.0863197 -1.43342e-20)
(0.00194497 -0.0104475 -3.84518e-20)
(0.00698073 -0.0297303 -3.92651e-21)
(0.0145608 -0.0476066 1.05136e-20)
(0.0243967 -0.0640716 5.30983e-20)
(0.036271 -0.0791153 -1.15698e-20)
(0.0500753 -0.0927194 5.96852e-21)
(0.0656909 -0.104876 6.97853e-21)
(0.00253115 -0.0122477 -2.97215e-20)
(0.00863862 -0.0348578 6.81471e-20)
(0.0171921 -0.0558255 -2.26347e-20)
(0.0279064 -0.0751446 -4.55374e-20)
(0.0405669 -0.0928026 -1.22849e-20)
(0.0550664 -0.108778 1.05466e-20)
(0.0712879 -0.123061 -1.28656e-20)
(0.0890948 -0.135655 -7.04706e-21)
(0.00320702 -0.0139989 -1.03803e-20)
(0.0105506 -0.0398487 -2.4885e-20)
(0.0202273 -0.0638295 1.32136e-20)
(0.0319557 -0.0859338 8.85783e-21)
(0.0455242 -0.106147 1.23494e-20)
(0.060827 -0.124443 4.9584e-20)
(0.0777494 -0.14081 -1.1365e-20)
(0.0961576 -0.155252 -6.89356e-20)
(0.00396897 -0.0156943 -3.36636e-20)
(0.0127067 -0.0446835 5.96741e-20)
(0.0236505 -0.0715882 -7.42037e-20)
(0.0365237 -0.096399 2.00158e-20)
(0.0511179 -0.119099 2.13923e-20)
(0.0673289 -0.139658 -3.13072e-20)
(0.0850443 -0.158062 3.25996e-20)
(0.104134 -0.174314 -3.98657e-20)
(0.0150954 -0.0493437 1.11814e-20)
(0.0274441 -0.0790722 -4.47522e-20)
(0.0415872 -0.106502 7.85297e-20)
(0.0573201 -0.131612 -4.6454e-20)
(0.0745401 -0.154369 7.41704e-20)
(0.0931375 -0.174757 -1.20512e-20)
(0.112985 -0.192775 -1.67153e-20)
(0.0177042 -0.0538116 2.28441e-20)
(0.0315884 -0.0862536 -2.33589e-20)
(0.0471204 -0.116204 -1.7533e-20)
(0.0640995 -0.143641 2.01765e-20)
(0.0824251 -0.168525 -2.74077e-20)
(0.10199 -0.190836 -7.28557e-21)
(0.122671 -0.210574 -7.61952e-20)
(0.14434 -0.227758 2.69805e-20)
(0.0360617 -0.0931059 4.82256e-20)
(0.0530948 -0.125472 -5.01265e-20)
(0.0714223 -0.155142 -7.84173e-21)
(0.0909452 -0.182075 4.00802e-20)
(0.111559 -0.206245 3.05859e-21)
(0.133145 -0.22765 5.97702e-20)
(0.15558 -0.24631 -9.74395e-20)
(0.0408408 -0.0996039 -2.84023e-20)
(0.05948 -0.134272 6.2053e-20)
(0.0792514 -0.166077 -9.84415e-20)
(0.100058 -0.194973 -4.675e-20)
(0.121799 -0.220931 5.12153e-23)
(0.144358 -0.243948 7.45241e-20)
(0.167618 -0.264038 5.99128e-20)
(0.0459007 -0.105724 5.86501e-20)
(0.066243 -0.142572 -9.14698e-20)
(0.0875475 -0.176406 8.79266e-20)
(0.109719 -0.207175 6.26448e-20)
(0.132659 -0.234846 -1.46611e-19)
(0.156257 -0.259413 1.13202e-19)
(0.1804 -0.280888 -1.03001e-19)
(0.204973 -0.299309 7.03106e-21)
(0.0733493 -0.150343 -5.95287e-20)
(0.0962688 -0.186094 8.53134e-20)
(0.11988 -0.218639 -3.46129e-20)
(0.144088 -0.247944 5.87143e-20)
(0.168786 -0.273995 3.74679e-20)
(0.193865 -0.296804 5.00134e-20)
(0.219218 -0.316407 -2.94298e-20)
(0.105371 -0.195109 6.7152e-20)
(0.130491 -0.22933 -1.2164e-19)
(0.15603 -0.260182 -6.7788e-21)
(0.181885 -0.287649 -5.15683e-20)
(0.207952 -0.311738 3.2816e-20)
(0.234131 -0.332483 6.57655e-20)
(0.260322 -0.349941 -6.6384e-20)
(0.114809 -0.203422 6.6302e-20)
(0.1415 -0.239211 -8.0245e-21)
(0.168427 -0.271521 -9.28614e-20)
(0.195492 -0.300331 -2.17936e-22)
(0.222596 -0.325644 2.82913e-20)
(0.249644 -0.347489 -2.39817e-20)
(0.276543 -0.36592 4.21642e-20)
(0.152852 -0.248254 1.89123e-20)
(0.181219 -0.281928 -3.45414e-21)
(0.209542 -0.312005 1.01404e-20)
(0.237728 -0.338481 -3.67363e-20)
(0.265687 -0.361381 1.63892e-19)
(0.293332 -0.380756 -1.27823e-19)
(0.320584 -0.396686 3.02301e-21)
(0.194344 -0.291373 3.1124e-20)
(0.223971 -0.322635 -2.16055e-20)
(0.25328 -0.350211 2.10662e-20)
(0.282187 -0.374119 -6.73007e-20)
(0.310614 -0.394405 1.13746e-19)
(0.338487 -0.411145 1.27424e-19)
(0.365741 -0.424443 -1.18678e-19)
(0.20774 -0.299828 1.80676e-20)
(0.238708 -0.332193 -4.76144e-20)
(0.269178 -0.360802 1.17221e-20)
(0.299072 -0.385667 3.47299e-20)
(0.328314 -0.40683 -5.99697e-20)
(0.356841 -0.42436 -1.21977e-19)
(0.384592 -0.438358 1.31754e-20)
(0.253685 -0.340654 -2.60994e-21)
(0.285351 -0.370227 -5.65856e-20)
(0.316263 -0.395997 1.14183e-20)
(0.346355 -0.417999 4.0247e-20)
(0.375565 -0.436296 4.04028e-20)
(0.403844 -0.450983 3.1865e-20)
(0.431151 -0.462186 -1.24826e-21)
(0.301722 -0.378464 -4.96215e-20)
(0.333686 -0.405083 7.70444e-20)
(0.364657 -0.427884 -1.02902e-19)
(0.394583 -0.446922 5.57145e-21)
(0.423418 -0.462287 1.00883e-20)
(0.451131 -0.474098 2.59988e-20)
(0.477699 -0.482505 -6.00893e-22)
(0.35126 -0.412905 -4.38245e-20)
(0.383141 -0.436462 5.50597e-20)
(0.413812 -0.456215 -4.77285e-20)
(0.443234 -0.472244 -3.38274e-20)
(0.471382 -0.484661 -3.80338e-20)
(0.498241 -0.493612 -5.51865e-20)
(0.368909 -0.419449 8.10779e-21)
(0.401727 -0.443718 -1.34749e-20)
(0.433172 -0.464155 5.96405e-20)
(0.463211 -0.480831 -1.56186e-20)
(0.491824 -0.493851 4.8381e-20)
(0.519005 -0.503353 -2.81761e-20)
(0.544759 -0.509504 -8.71708e-20)
(0.420333 -0.449639 1.87368e-20)
(0.452581 -0.470727 1.63301e-21)
(0.483268 -0.488032 4.26963e-20)
(0.512378 -0.501649 -3.51915e-20)
(0.539911 -0.511706 4.50768e-20)
(0.565881 -0.518364 -9.27442e-20)
(0.590315 -0.521817 4.52165e-20)
(0.471958 -0.475925 -4.01282e-21)
(0.503323 -0.493837 3.76295e-20)
(0.532963 -0.508041 -1.7211e-21)
(0.560884 -0.518655 -3.6347e-20)
(0.587103 -0.525833 3.04983e-20)
(0.611657 -0.529759 -1.86603e-20)
(0.634595 -0.530645 -3.06211e-20)
(0.523295 -0.498242 3.84525e-20)
(0.5535 -0.513021 -5.4443e-20)
(0.581844 -0.524193 5.35878e-20)
(0.608352 -0.531899 -2.26831e-20)
(0.633065 -0.536315 -3.22874e-20)
(0.656038 -0.537645 -4.99791e-20)
(0.677343 -0.536124 -9.12474e-20)
(0.573908 -0.516589 -3.42648e-20)
(0.602715 -0.528316 5.87244e-20)
(0.629554 -0.536557 -7.86008e-20)
(0.65447 -0.541478 -6.63784e-20)
(0.677525 -0.543273 2.04439e-20)
(0.698797 -0.542168 3.17102e-20)
(0.623419 -0.531028 -3.03058e-21)
(0.650634 -0.53981 3.25927e-20)
(0.675803 -0.545249 -2.19054e-20)
(0.698994 -0.547529 -3.08195e-20)
(0.720291 -0.546864 2.78964e-20)
(0.739792 -0.543494 -9.41211e-21)
(0.671516 -0.541669 6.62866e-20)
(0.696993 -0.547639 -5.88712e-20)
(0.72038 -0.550422 7.71135e-20)
(0.741767 -0.550221 -1.20884e-20)
(0.761263 -0.547264 4.43844e-20)
(0.77899 -0.541801 -8.13793e-20)
(0.717965 -0.548664 2.1771e-20)
(0.741612 -0.551973 5.92748e-21)
(0.763163 -0.552264 7.86585e-21)
(0.782737 -0.549751 -4.29246e-20)
(0.800471 -0.544672 7.99996e-20)
(0.816519 -0.537279 -1.92285e-20)
(0.784402 -0.553024 -3.16516e-21)
(0.804139 -0.550998 3.73259e-20)
(0.821977 -0.546353 -6.80476e-21)
(0.838096 -0.539331 2.44185e-20)
(0.852703 -0.530182 2.76872e-20)
(0.866043 -0.519159 4.82094e-20)
(0.825373 -0.551047 -1.72633e-20)
(0.843404 -0.5469 -9.93536e-21)
(0.859689 -0.540329 -2.95e-20)
(0.87447 -0.531581 -3.55877e-20)
(0.888033 -0.520914 -2.38245e-20)
(0.900734 -0.508597 7.5866e-20)
(0.864623 -0.546356 -3.27676e-20)
(0.881143 -0.540322 2.9731e-20)
(0.896152 -0.532085 -1.42581e-20)
(0.909964 -0.521913 -5.06968e-20)
(0.922952 -0.510101 3.2499e-20)
(0.935557 -0.496979 -9.09913e-20)
(0.902297 -0.539336 1.75252e-20)
(0.917556 -0.531706 4.76833e-21)
(0.931596 -0.522143 -5.65598e-21)
(0.944779 -0.51096 9.02896e-20)
(0.957504 -0.498514 -4.66915e-20)
(0.970179 -0.485204 1.1734e-20)
(0.952742 -0.521567 8.98659e-21)
(0.966025 -0.511093 -1.05525e-20)
(0.978703 -0.499379 -3.02448e-20)
(0.991079 -0.486815 6.74858e-20)
(1.00331 -0.473839 -4.07997e-20)
(0.986571 -0.51042 -8.88339e-21)
(0.999087 -0.499459 2.62569e-20)
(1.01104 -0.487619 -1.18562e-20)
(1.02248 -0.475287 -4.96953e-20)
(1.03304 -0.463076 8.07593e-21)
(1.04211 -0.451228 -2.95873e-20)
(1.03011 -0.487536 -1.14314e-20)
(1.04078 -0.475796 -1.99441e-20)
(1.05029 -0.463995 1.10878e-21)
(1.05818 -0.452287 6.29329e-20)
(1.05833 -0.475354 1.88584e-21)
(1.06693 -0.463953 4.25274e-21)
(1.07383 -0.452429 3.07603e-20)
(1.0891 -0.451701 -1.44702e-20)
(1.09767 0.430792 -6.46256e-21)
(1.10603 0.403574 2.12553e-21)
(1.11186 0.379545 7.09335e-21)
(1.117 0.357127 -2.23702e-21)
(1.12162 0.336827 -1.61833e-21)
(1.12592 0.318484 7.50424e-21)
(1.12989 0.301889 -8.03179e-22)
(1.13346 0.286788 -3.77669e-21)
(1.13657 0.272943 1.0383e-21)
(1.1392 0.260148 -2.40189e-21)
(1.14134 0.248241 -2.42464e-22)
(1.14299 0.237091 -1.1334e-21)
(1.14421 0.2266 -2.12667e-21)
(1.14503 0.216691 8.87286e-22)
(1.1455 0.207303 1.63173e-21)
(1.14566 0.198387 -1.91056e-21)
(1.14557 0.189903 9.4663e-22)
(1.14525 0.181817 -1.46353e-21)
(1.14475 0.174099 6.62214e-22)
(1.14409 0.166723 -9.67136e-22)
(1.14331 0.159665 1.07405e-21)
(1.14243 0.152905 -3.23291e-21)
(1.14146 0.146423 1.95716e-21)
(1.14043 0.140201 -2.20228e-21)
(1.13934 0.134221 -1.43439e-21)
(1.13822 0.128468 3.25156e-22)
(1.13706 0.122928 1.3203e-21)
(1.13588 0.117587 4.10855e-21)
(1.13469 0.112432 -2.76564e-21)
(1.13349 0.107451 4.95707e-22)
(1.1323 0.102634 3.82799e-21)
(1.13111 0.0979687 -2.52266e-21)
(1.12993 0.0934471 -2.64006e-21)
(1.12876 0.0890595 -6.44685e-22)
(1.12761 0.0847974 6.83131e-21)
(1.12649 0.0806528 -5.82554e-21)
(1.12539 0.0766181 9.73358e-22)
(1.12432 0.0726863 3.7106e-22)
(1.12329 0.0688506 -2.46806e-21)
(1.12229 0.0651046 1.81751e-21)
(1.12132 0.0614424 1.44242e-21)
(1.12039 0.0578583 -1.25449e-21)
(1.11951 0.0543468 1.10315e-21)
(1.11866 0.0509027 -4.18154e-22)
(1.11786 0.0475211 -1.58238e-21)
(1.11711 0.0441972 -9.13801e-23)
(1.1164 0.0409266 2.23232e-21)
(1.11574 0.0377049 3.51391e-22)
(1.11513 0.0345277 -2.5082e-21)
(1.11457 0.0313912 4.32036e-22)
(1.11406 0.0282913 -3.48041e-22)
(1.08363 0.43128 1.43897e-21)
(1.09321 0.404246 2.7011e-21)
(1.10024 0.380302 1.07285e-21)
(1.10648 0.357982 -1.13322e-20)
(1.1121 0.337783 -3.06726e-21)
(1.11731 0.319535 9.8815e-21)
(1.12209 0.303024 -4.04852e-21)
(1.12638 0.287989 -5.4184e-21)
(1.13012 0.274187 1.30217e-20)
(1.13329 0.261415 -2.44809e-21)
(1.1359 0.249511 -9.36598e-21)
(1.13797 0.23835 5.43181e-21)
(1.13956 0.227837 -6.79533e-21)
(1.14069 0.217897 8.505e-21)
(1.14145 0.208472 -8.30781e-23)
(1.14186 0.199516 2.59008e-21)
(1.14199 0.190988 -6.6573e-21)
(1.14188 0.182858 5.58482e-22)
(1.14156 0.175095 5.93431e-21)
(1.14107 0.167675 -2.39477e-21)
(1.14044 0.160574 -4.62959e-21)
(1.13969 0.153771 2.42301e-21)
(1.13885 0.147247 2.68811e-21)
(1.13793 0.140985 -4.35536e-21)
(1.13695 0.134966 3.78653e-21)
(1.13591 0.129176 -2.88458e-21)
(1.13484 0.1236 8.94427e-22)
(1.13375 0.118225 2.43986e-22)
(1.13263 0.113037 3.56368e-21)
(1.1315 0.108025 -3.5842e-22)
(1.13037 0.103177 -1.59316e-22)
(1.12923 0.098483 -4.92894e-21)
(1.12811 0.0939337 2.37353e-21)
(1.12699 0.0895196 -1.77644e-21)
(1.12589 0.085232 9.52818e-22)
(1.1248 0.081063 -3.80108e-21)
(1.12375 0.077005 4.84069e-21)
(1.12271 0.0730506 -6.02216e-22)
(1.12171 0.0691933 -8.21116e-22)
(1.12073 0.0654266 1.43425e-22)
(1.1198 0.0617444 -4.80289e-22)
(1.11889 0.0581409 -2.57247e-22)
(1.11803 0.0546107 5.54882e-22)
(1.11721 0.0511486 -2.15134e-21)
(1.11643 0.0477495 2.61474e-21)
(1.11569 0.0444088 1.0803e-21)
(1.115 0.0411217 1.46412e-22)
(1.11435 0.0378839 -1.81539e-21)
(1.11375 0.0346911 -2.39064e-22)
(1.1132 0.0315393 7.66362e-22)
(1.1127 0.0284245 -2.59421e-22)
(1.11225 0.0253428 -1.67944e-21)
(1.11185 0.0222906 7.10753e-22)
(1.1115 0.0192642 -5.78742e-22)
(1.11121 0.0162601 4.06222e-22)
(1.11096 0.0132749 -3.01959e-22)
(1.11077 0.0103056 -3.67594e-22)
(1.11063 0.00734909 7.6432e-23)
(1.11054 0.00440288 -4.78831e-22)
(1.1105 0.00146197 -3.7496e-22)
(1.0694 0.431037 -6.94801e-21)
(1.08026 0.404416 2.54752e-20)
(1.08851 0.380656 -2.0308e-20)
(1.09586 0.358511 3.211e-21)
(1.10249 0.338474 -4.64039e-21)
(1.10863 0.320373 2.43604e-21)
(1.11424 0.303989 5.62956e-21)
(1.11925 0.289053 2.52287e-21)
(1.12363 0.27532 -1.72861e-21)
(1.12735 0.26259 5.16033e-21)
(1.13044 0.250706 -2.38202e-21)
(1.13293 0.239548 1.27892e-21)
(1.13488 0.229023 -1.87852e-21)
(1.13634 0.219061 2.06948e-21)
(1.13738 0.209607 -4.80208e-21)
(1.13806 0.200615 2.32279e-21)
(1.13841 0.19205 -3.05562e-21)
(1.1385 0.183879 5.07845e-21)
(1.13837 0.176074 -4.58343e-21)
(1.13805 0.168612 6.1625e-21)
(1.13757 0.161469 -3.2586e-21)
(1.13696 0.154626 5.1967e-21)
(1.13624 0.148062 -4.14907e-21)
(1.13543 0.141761 2.12392e-22)
(1.13456 0.135704 3.83773e-21)
(1.13362 0.129878 -4.76761e-21)
(1.13264 0.124267 4.96378e-21)
(1.13162 0.118858 2.04282e-21)
(1.13058 0.113637 -2.69752e-21)
(1.12952 0.108594 1.66151e-21)
(1.12845 0.103716 7.42991e-22)
(1.12737 0.098994 1.71243e-21)
(1.12629 0.0944173 -1.49601e-21)
(1.12523 0.0899769 2.59098e-22)
(1.12417 0.0856641 2.21704e-21)
(1.12313 0.0814709 7.52743e-22)
(1.12211 0.0773896 -1.19989e-21)
(1.12111 0.073413 -1.83948e-22)
(1.12013 0.0695342 -9.11222e-22)
(1.11919 0.0657468 2.43111e-21)
(1.11828 0.0620447 -1.43105e-21)
(1.1174 0.0584221 1.26535e-21)
(1.11656 0.0548734 2.32192e-21)
(1.11576 0.0513933 5.86572e-22)
(1.11499 0.0479769 6.24709e-22)
(1.11427 0.0446193 -1.70663e-21)
(1.1136 0.0413158 3.31393e-21)
(1.11296 0.0380621 1.46613e-21)
(1.11238 0.0348539 -1.0835e-21)
(1.11184 0.0316869 -5.10048e-22)
(1.11135 0.0285572 8.60151e-22)
(1.1109 0.0254609 -6.61409e-22)
(1.11051 0.0223943 1.88328e-21)
(1.11017 0.0193538 -1.47919e-21)
(1.10988 0.0163357 2.24591e-21)
(1.10964 0.0133366 7.85759e-22)
(1.10945 0.0103535 7.05595e-22)
(1.10931 0.00738315 -3.09716e-22)
(1.10922 0.00442314 6.66318e-22)
(1.10918 0.00146877 1.00832e-21)
(1.13134 0.130573 2.1108e-22)
(1.13044 0.124928 -1.04304e-21)
(1.12951 0.119485 -2.23986e-21)
(1.12854 0.114233 8.19465e-21)
(1.12754 0.109159 -7.3704e-21)
(1.12654 0.104252 5.70535e-21)
(1.12552 0.0995014 -2.7009e-21)
(1.12449 0.0948976 -3.5797e-21)
(1.12347 0.0904312 2.33922e-21)
(1.12246 0.0860935 -2.39828e-21)
(1.12146 0.0818763 7.01704e-22)
(1.12048 0.077772 -5.83149e-23)
(1.11951 0.0737732 2.41617e-21)
(1.11857 0.0698732 1.37777e-21)
(1.11765 0.0660653 -7.78975e-22)
(1.11677 0.0623434 1.1946e-21)
(1.11592 0.0587017 -2.2636e-21)
(1.1151 0.0551346 1.16487e-21)
(1.11431 0.0516367 -1.41154e-21)
(1.11357 0.0482031 1.38131e-21)
(1.11286 0.0448287 -2.38439e-22)
(1.1122 0.041509 -9.10848e-22)
(1.11158 0.0382395 4.15949e-22)
(1.11101 0.0350158 -2.60852e-22)
(1.11048 0.0318337 -5.45572e-22)
(1.11 0.0286893 -1.84847e-21)
(1.10956 0.0255785 -7.06936e-23)
(1.10918 0.0224977 1.71933e-21)
(1.10884 0.019443 -9.86839e-22)
(1.10855 0.016411 -2.95553e-22)
(1.10832 0.0133982 -5.23376e-22)
(1.10813 0.0104013 -5.17105e-22)
(1.10799 0.00741725 -4.76876e-22)
(1.10791 0.00444348 1.50536e-22)
(1.10787 0.00147565 -5.83635e-22)
(1.13483 -0.193087 6.55036e-21)
(1.13513 -0.184879 -5.10648e-21)
(1.13518 -0.177036 5.87637e-22)
(1.13503 -0.169535 -9.5565e-22)
(1.1347 -0.162353 1.08327e-21)
(1.13423 -0.15547 2.3788e-21)
(1.13364 -0.148867 -7.87188e-22)
(1.13295 -0.142528 -3.13747e-21)
(1.13218 -0.136435 -5.19563e-21)
(1.13134 -0.130573 4.27258e-21)
(1.13044 -0.124928 -1.85402e-22)
(1.12951 -0.119485 2.09676e-21)
(1.12854 -0.114233 -7.8828e-21)
(1.12754 -0.109159 6.11714e-21)
(1.12654 -0.104252 -6.84022e-21)
(1.12552 -0.0995014 2.42715e-21)
(1.12449 -0.0948976 2.43129e-21)
(1.12347 -0.0904312 -2.14631e-21)
(1.12246 -0.0860935 1.23736e-21)
(1.12146 -0.0818763 -1.86849e-21)
(1.12048 -0.077772 -2.22776e-22)
(1.11951 -0.0737732 -3.59384e-21)
(1.11857 -0.0698732 -1.1802e-21)
(1.11765 -0.0660653 -4.0844e-22)
(1.11677 -0.0623434 -1.48036e-21)
(1.11592 -0.0587017 1.06756e-21)
(1.1151 -0.0551346 -8.30907e-22)
(1.11431 -0.0516367 7.40894e-23)
(1.11357 -0.0482031 -1.71182e-21)
(1.11286 -0.0448287 -1.1061e-21)
(1.1122 -0.041509 -3.01836e-22)
(1.11158 -0.0382395 -2.12952e-22)
(1.11101 -0.0350158 -9.56571e-22)
(1.11048 -0.0318337 3.88805e-22)
(1.11 -0.0286893 4.91515e-22)
(1.10956 -0.0255785 -1.15182e-21)
(1.10918 -0.0224977 -1.51492e-21)
(1.10884 -0.019443 8.29407e-22)
(1.10855 -0.016411 -1.06597e-21)
(1.10832 -0.0133982 -7.02171e-22)
(1.10813 -0.0104013 -7.08531e-22)
(1.10799 -0.00741725 4.11735e-22)
(1.10791 -0.00444348 -1.37555e-21)
(1.10787 -0.00147565 -7.96417e-22)
(1.0694 -0.431037 7.68991e-21)
(1.08026 -0.404416 -2.57642e-20)
(1.08851 -0.380656 1.90797e-20)
(1.09586 -0.358511 -2.66694e-21)
(1.10249 -0.338474 5.05863e-21)
(1.10863 -0.320373 -3.33334e-21)
(1.11424 -0.303989 -5.27e-21)
(1.11925 -0.289053 -2.93793e-21)
(1.12363 -0.27532 9.82612e-22)
(1.12735 -0.26259 -4.27614e-21)
(1.13044 -0.250706 2.69305e-21)
(1.13293 -0.239548 -1.99529e-21)
(1.13488 -0.229023 1.50613e-21)
(1.13634 -0.219061 -1.76401e-21)
(1.13738 -0.209607 4.08757e-21)
(1.13806 -0.200615 -2.01431e-21)
(1.13841 -0.19205 3.72141e-21)
(1.1385 -0.183879 -4.64768e-21)
(1.13837 -0.176074 4.85576e-21)
(1.13805 -0.168612 -4.6682e-21)
(1.13757 -0.161469 5.2264e-21)
(1.13696 -0.154626 -3.44038e-21)
(1.13624 -0.148062 4.54565e-21)
(1.13543 -0.141761 6.19278e-23)
(1.13456 -0.135704 -2.28469e-21)
(1.13362 -0.129878 5.43807e-21)
(1.13264 -0.124267 -3.38578e-21)
(1.13162 -0.118858 -1.54731e-21)
(1.13058 -0.113637 2.74114e-21)
(1.12952 -0.108594 -2.99261e-23)
(1.12845 -0.103716 -4.82335e-23)
(1.12737 -0.098994 -4.19616e-22)
(1.12629 -0.0944173 3.0067e-21)
(1.12523 -0.0899769 -8.09151e-23)
(1.12417 -0.0856641 -1.5098e-21)
(1.12313 -0.0814709 7.93149e-22)
(1.12211 -0.0773896 1.86077e-21)
(1.12111 -0.073413 1.74579e-21)
(1.12013 -0.0695342 1.08834e-21)
(1.11919 -0.0657468 -1.71074e-21)
(1.11828 -0.0620447 2.12422e-21)
(1.1174 -0.0584221 3.23373e-22)
(1.11656 -0.0548734 -2.2657e-21)
(1.11576 -0.0513933 1.84889e-21)
(1.11499 -0.0479769 -7.82219e-22)
(1.11427 -0.0446193 3.45072e-21)
(1.1136 -0.0413158 -1.70081e-21)
(1.11296 -0.0380621 -1.27207e-21)
(1.11238 -0.0348539 1.81914e-21)
(1.11184 -0.0316869 1.06688e-21)
(1.11135 -0.0285572 9.12485e-22)
(1.1109 -0.0254609 2.28911e-21)
(1.11051 -0.0223943 -1.68696e-21)
(1.11017 -0.0193538 1.1475e-21)
(1.10988 -0.0163357 2.41207e-22)
(1.10964 -0.0133366 8.46704e-22)
(1.10945 -0.0103535 9.27105e-22)
(1.10931 -0.00738315 -1.24275e-22)
(1.10922 -0.00442314 9.65726e-22)
(1.10918 -0.00146877 7.85162e-22)
(1.08363 -0.43128 -2.19439e-21)
(1.09321 -0.404246 -3.23903e-21)
(1.10024 -0.380302 -2.32991e-22)
(1.10648 -0.357982 1.0737e-20)
(1.1121 -0.337783 2.7283e-21)
(1.11731 -0.319535 -8.91471e-21)
(1.12209 -0.303024 4.05391e-21)
(1.12638 -0.287989 5.84967e-21)
(1.13012 -0.274187 -1.22132e-20)
(1.13329 -0.261415 2.10283e-21)
(1.1359 -0.249511 9.11917e-21)
(1.13797 -0.23835 -4.75677e-21)
(1.13956 -0.227837 7.71137e-21)
(1.14069 -0.217897 -8.89109e-21)
(1.14145 -0.208472 8.63273e-22)
(1.14186 -0.199516 -2.43531e-21)
(1.14199 -0.190988 7.1054e-21)
(1.14188 -0.182858 2.44249e-22)
(1.14156 -0.175095 -6.19503e-21)
(1.14107 -0.167675 2.57604e-21)
(1.14044 -0.160574 3.86567e-21)
(1.13969 -0.153771 -3.03434e-21)
(1.13885 -0.147247 -2.60632e-21)
(1.13793 -0.140985 4.09774e-21)
(1.13695 -0.134966 -4.04676e-21)
(1.13591 -0.129176 3.73914e-21)
(1.13484 -0.1236 -1.08561e-21)
(1.13375 -0.118225 -5.11809e-22)
(1.13263 -0.113037 -3.19548e-21)
(1.1315 -0.108025 6.82199e-23)
(1.13037 -0.103177 4.14293e-22)
(1.12923 -0.098483 3.99796e-21)
(1.12811 -0.0939337 -3.37674e-21)
(1.12699 -0.0895196 1.49538e-21)
(1.12589 -0.085232 -4.04231e-22)
(1.1248 -0.081063 4.20496e-21)
(1.12375 -0.077005 -5.12719e-21)
(1.12271 -0.0730506 3.1409e-22)
(1.12171 -0.0691933 -2.19662e-22)
(1.12073 -0.0654266 4.2323e-22)
(1.1198 -0.0617444 -1.43548e-22)
(1.11889 -0.0581409 -3.65092e-23)
(1.11803 -0.0546107 -1.27422e-22)
(1.11721 -0.0511486 1.15189e-21)
(1.11643 -0.0477495 -1.93904e-21)
(1.11569 -0.0444088 -6.45859e-22)
(1.115 -0.0411217 -7.54543e-22)
(1.11435 -0.0378839 1.51574e-21)
(1.11375 -0.0346911 1.24249e-21)
(1.1132 -0.0315393 -1.06731e-21)
(1.1127 -0.0284245 3.602e-23)
(1.11225 -0.0253428 1.27717e-21)
(1.11185 -0.0222906 -1.11358e-21)
(1.1115 -0.0192642 1.07012e-21)
(1.11121 -0.0162601 -1.53078e-21)
(1.11096 -0.0132749 -1.01862e-22)
(1.11077 -0.0103056 -3.63382e-23)
(1.11063 -0.00734909 4.24764e-22)
(1.11054 -0.00440288 7.49987e-23)
(1.1105 -0.00146197 -3.45425e-23)
(1.09767 -0.430792 6.47908e-21)
(1.10603 -0.403574 -1.30307e-21)