/*--------------------------------*- C++ -*----------------------------------*\
  =========                 |
  \\      /  F ield         | OpenFOAM: The Open Source CFD Toolbox
   \\    /   O peration     | Website:  https://openfoam.org
    \\  /    A nd           | Version:  7
     \\/     M anipulation  |
\*---------------------------------------------------------------------------*/
FoamFile
{
    version     2.0;
    format      ascii;
    class       volVectorField;
    location    "59";
    object      U;
}
// * * * * * * * * * * * * * * * * * * * * * * * * * * * * * * * * * * * * * //

dimensions      [0 1 -1 0 0 0 0];

internalField   nonuniform List<vector> 
40000
(
(-0.000175121 0.000165463 -1.84266e-21)
(-0.0011051 0.000404839 5.70857e-21)
(-0.00309846 0.000561519 -3.64351e-21)
(-0.00591255 0.000646276 -3.92842e-24)
(-0.00941367 0.000668289 -1.03627e-24)
(-0.0135117 0.000635832 2.87513e-24)
(-0.0181131 0.000556689 -6.05748e-21)
(-0.023127 0.000437908 1.44032e-21)
(-0.0284687 0.000285586 -4.11243e-21)
(-0.0340596 0.000104771 -1.3012e-21)
(-0.0398273 -0.000100604 0)
(-0.0457054 -0.000327717 -4.68738e-21)
(-0.0516333 -0.000574782 0)
(-0.0575568 -0.000840921 0)
(-0.0634274 -0.00112597 -3.97419e-21)
(-0.0692021 -0.00143024 3.75519e-21)
(-0.0748438 -0.00175425 -1.77316e-21)
(-0.0803204 -0.00209847 -1.50588e-24)
(-0.0856055 -0.00246307 1.5755e-21)
(-0.0906783 -0.00284766 0)
(-0.0955244 -0.00325115 -1.39788e-21)
(-0.100136 -0.00367162 -3.94463e-21)
(-0.104512 -0.00410629 4.94253e-21)
(-0.108662 -0.00455159 -2.32094e-21)
(-0.112605 -0.00500339 6.535e-21)
(-0.116367 -0.00545727 4.08676e-21)
(-0.119989 -0.00590906 -7.66183e-21)
(-0.123518 -0.00635561 7.178e-21)
(-0.127 -0.00679481 -1.68008e-21)
(-0.130506 -0.00722282 -3.14979e-21)
(-0.000201572 0.000743231 0)
(-0.00117388 0.00197494 3.80962e-21)
(-0.00319871 0.00298294 7.30013e-21)
(-0.0060351 0.00379134 -6.96682e-21)
(-0.00955044 0.00441924 -3.3389e-21)
(-0.0136554 0.00488375 1.27133e-20)
(-0.0182573 0.00520156 -3.0351e-21)
(-0.0232658 0.00538851 -5.77923e-21)
(-0.028597 0.00545923 -9.38816e-24)
(-0.0341728 0.00542704 -1.56389e-20)
(-0.0399211 0.00530384 4.94173e-21)
(-0.045776 0.00510004 1.87586e-20)
(-0.0516773 0.00482462 -8.88219e-21)
(-0.0575709 0.00448521 -4.64329e-24)
(-0.0634085 0.00408831 -3.98282e-21)
(-0.0691474 0.00363951 -1.22819e-24)
(-0.0747502 0.00314384 0)
(-0.0801849 0.00260614 0)
(-0.0854248 0.00203149 1.26185e-20)
(-0.0904489 0.00142557 0)
(-0.095242 0.000795106 5.59357e-21)
(-0.0997959 0.000148135 -5.26017e-21)
(-0.10411 -0.000505806 -2.60117e-25)
(-0.108191 -0.00115573 0)
(-0.112058 -0.00178958 8.71783e-21)
(-0.115739 -0.00239488 -8.17388e-21)
(-0.119273 -0.00296019 7.66182e-21)
(-0.122709 -0.00347745 -7.17799e-21)
(-0.126091 -0.00394202 6.72037e-21)
(-0.129493 -0.00434386 -1.88997e-20)
(-0.000256798 0.00131502 -7.38675e-21)
(-0.00131694 0.00352947 -7.61385e-21)
(-0.00340502 0.00538138 0)
(-0.00628416 0.00690778 0)
(-0.00982431 0.00813741 0)
(-0.0139379 0.00909598 6.37369e-21)
(-0.0185341 0.00980891 0)
(-0.0235241 0.0103006 5.77068e-21)
(-0.0288252 0.0105941 1.09747e-20)
(-0.0343606 0.0107109 1.04251e-20)
(-0.0400593 0.0106707 0)
(-0.0458561 0.0104914 8.16378e-24)
(-0.0516916 0.0101891 -1.77863e-20)
(-0.0575123 0.00977818 1.68336e-20)
(-0.0632702 0.00927127 7.95276e-21)
(-0.0689227 0.0086798 7.52061e-21)
(-0.0744326 0.00801426 -7.09345e-21)
(-0.0797676 0.00728467 1.33964e-20)
(-0.0849005 0.00650118 -2.52465e-20)
(-0.0898095 0.00567466 -1.27126e-24)
(-0.0944787 0.0048173 -2.23823e-20)
(-0.0988982 0.00394316 2.10584e-20)
(-0.103066 0.00306851 0)
(-0.106989 0.00221187 0)
(-0.110682 0.00139354 8.72613e-21)
(-0.114175 0.000634527 0)
(-0.117507 -4.56951e-05 0)
(-0.120727 -0.000633342 0)
(-0.123877 -0.00112019 -1.34454e-20)
(-0.127037 -0.00148963 1.25994e-20)
(-0.000340035 0.00187559 7.38675e-21)
(-0.00153238 0.00505479 7.58024e-24)
(-0.00371474 0.00773659 3.72886e-23)
(-0.00665667 0.00997025 -1.39607e-20)
(-0.010232 0.0117936 -1.33409e-20)
(-0.0143559 0.0132406 1.77306e-23)
(-0.0189402 0.0143449 -2.42845e-20)
(-0.0238985 0.0151393 1.1567e-20)
(-0.02915 0.0156548 -2.19968e-20)
(-0.03462 0.0159209 2.08944e-20)
(-0.0402388 0.0159649 -9.91301e-21)
(-0.0459426 0.015812 1.87975e-20)
(-0.0516731 0.0154853 1.77862e-20)
(-0.0573776 0.0150056 1.86366e-23)
(-0.0630086 0.0143917 -1.59358e-20)
(-0.0685241 0.0136606 0)
(-0.0738865 0.0128281 1.99817e-24)
(-0.0790635 0.0119091 1.34075e-20)
(-0.0840271 0.0109187 -2.11403e-25)
(-0.0887544 0.00987255 -8.54805e-24)
(-0.0932279 0.00878822 2.23915e-20)
(-0.0974359 0.00768554 -2.10584e-20)
(-0.101374 0.00658744 0)
(-0.105047 0.00552011 1.86004e-20)
(-0.108468 0.00451256 4.4747e-24)
(-0.111664 0.00359521 -4.90947e-20)
(-0.114678 0.00279677 1.53379e-20)
(-0.117559 0.00213829 2.87359e-20)
(-0.120343 0.00163348 1.34453e-20)
(-0.123118 0.00130643 1.26025e-20)
(-0.000450086 0.00241993 2.96654e-20)
(-0.00181725 0.00653772 -1.52871e-20)
(-0.00412379 0.010029 1.46192e-20)
(-0.00714785 0.0129542 1.39911e-20)
(-0.0107684 0.0153595 0)
(-0.0149042 0.0172864 -2.55465e-20)
(-0.0194705 0.0187765 -1.21915e-20)
(-0.024384 0.0198702 -2.31547e-20)
(-0.0295668 0.0206064 1.09983e-20)
(-0.0349464 0.021022 3.14207e-23)
(-0.0404551 0.0211517 1.98569e-20)
(-0.046031 0.0210277 1.88475e-20)
(-0.0516171 0.0206798 -3.56344e-20)
(-0.057162 0.0201352 1.68764e-20)
(-0.0626188 0.0194183 -2.12319e-23)
(-0.0679459 0.0185518 0)
(-0.0731059 0.0175563 -1.42151e-20)
(-0.0780659 0.0164514 -2.68528e-20)
(-0.0827971 0.0152567 3.79624e-20)
(-0.0872752 0.0139926 1.19312e-20)
(-0.0914805 0.0126812 0)
(-0.0953989 0.0113481 -2.10988e-20)
(-0.099023 0.0100227 0)
(-0.102354 0.0087389 -5.58254e-20)
(-0.105403 0.00753504 3.49214e-20)
(-0.108194 0.00645211 -6.8662e-24)
(-0.11077 0.00552987 3.06988e-20)
(-0.113185 0.00479897 -4.31022e-20)
(-0.115466 0.00428155 2.69128e-20)
(-0.117711 0.00401112 1.26057e-20)
(-0.000585359 0.0029433 -1.48534e-20)
(-0.00216757 0.00796583 1.52869e-20)
(-0.00462672 0.01224 -2.08134e-24)
(-0.00775138 0.0158361 -4.2107e-20)
(-0.0114267 0.0188078 0)
(-0.0155759 0.0212034 2.55465e-20)
(-0.0201183 0.0230716 -2.4429e-20)
(-0.0249743 0.02446 4.63445e-20)
(-0.0300694 0.0254147 0)
(-0.0353338 0.0259797 -2.09257e-20)
(-0.0407025 0.0261966 -1.98568e-20)
(-0.0461156 0.0261045 -1.88251e-20)
(-0.051518 0.0257394 -5.35747e-20)
(-0.0568594 0.0251344 3.69087e-24)
(-0.0620941 0.0243199 -1.89816e-23)
(-0.067181 0.0233232 -1.39162e-23)
(-0.0720826 0.0221698 4.27449e-20)
(-0.0767657 0.0208837 -3.87871e-23)
(-0.0812004 0.0194885 3.54345e-23)
(-0.0853605 0.0180085 -2.38278e-20)
(-0.0892241 0.0164705 -2.14487e-23)
(-0.0927737 0.0149049 4.22116e-20)
(-0.0959979 0.0133473 -5.95334e-20)
(-0.0988937 0.0118397 1.86171e-20)
(-0.101468 0.01043 0)
(-0.103742 0.00917138 0)
(-0.105759 0.00811697 -3.06986e-20)
(-0.107578 0.00731029 2.8764e-20)
(-0.109214 0.00678641 -2.69046e-20)
(-0.110774 0.00659193 0)
(-0.0007439 0.00344135 -1.49064e-20)
(-0.00257852 0.00932759 0)
(-0.00521684 0.0143522 1.46871e-20)
(-0.0084595 0.018594 8.44047e-20)
(-0.0121987 0.0221128 -2.68368e-20)
(-0.0163627 0.0249629 0)
(-0.0208754 0.0271994 -5.44753e-23)
(-0.0256614 0.0288764 2.32517e-20)
(-0.0306501 0.0300465 -2.20788e-20)
(-0.0357749 0.0307603 0)
(-0.0409739 0.0310659 0)
(-0.0461893 0.0310087 -3.77866e-20)
(-0.0513683 0.0306308 5.36057e-20)
(-0.0564621 0.0299711 -1.69082e-20)
(-0.0614262 0.0290648 0)
(-0.06622 0.0279445 3.0236e-20)
(-0.0708063 0.0266396 -2.8485e-20)
(-0.0751512 0.0251781 2.69112e-20)
(-0.0792236 0.0235871 -5.07021e-20)
(-0.0829955 0.0218946 -7.1686e-20)
(-0.0864418 0.020131 2.24644e-20)
(-0.0895414 0.0183311 2.11396e-20)
(-0.0922781 0.0165363 1.98383e-20)
(-0.0946434 0.014796 0)
(-0.0966389 0.0131688 -3.50077e-20)
(-0.0982812 0.0117211 0)
(-0.0996133 0.0105227 0)
(-0.100699 0.00963425 -5.7544e-20)
(-0.101541 0.00911007 -1.62473e-23)
(-0.102254 0.00901633 -7.56448e-20)
(-0.000923456 0.00391019 1.49064e-20)
(-0.00304446 0.0106126 3.08418e-20)
(-0.0058864 0.01635 2.95343e-20)
(-0.00926322 0.0212076 -2.81618e-20)
(-0.0130749 0.0252506 0)
(-0.0172548 0.0285383 0)
(-0.021732 0.031131 2.44449e-20)
(-0.0264359 0.0330886 -2.33044e-20)
(-0.0312998 0.0344698 -4.06259e-23)
(-0.036261 0.035331 4.21074e-20)
(-0.0412605 0.0357264 0)
(-0.0462435 0.0357073 3.77865e-20)
(-0.0511591 0.0353213 0)
(-0.0559606 0.0346127 0)
(-0.0606046 0.0336217 1.97417e-23)
(-0.0650513 0.032385 3.02654e-20)
(-0.0692636 0.0309362 -2.85918e-20)
(-0.0732071 0.0293066 5.3932e-20)
(-0.0768494 0.0275262 -2.54137e-20)
(-0.0801602 0.0256259 7.17347e-20)
(-0.0831112 0.0236389 0)
(-0.0856767 0.0216038 0)
(-0.0878352 0.0195667 3.98056e-20)
(-0.0895717 0.0175844 0)
(-0.0908807 0.0157258 3.49762e-20)
(-0.0917725 0.0140725 -3.2842e-20)
(-0.0922883 0.0127139 3.07397e-20)
(-0.092499 0.0117339 -2.87924e-20)
(-0.09239 0.0112143 5.3866e-20)
(-0.0920743 0.0112511 7.56668e-20)
(-0.00112153 0.00434646 0)
(-0.00355918 0.0118118 -3.08418e-20)
(-0.00662679 0.0182193 9.38217e-23)
(-0.0101525 0.0236589 0)
(-0.0140442 0.0281996 -5.40742e-20)
(-0.018241 0.0319048 -3.61955e-23)
(-0.0226772 0.0348392 2.45218e-20)
(-0.027287 0.0370677 0)
(-0.0320082 0.0386541 2.21694e-20)
(-0.0367818 0.0396602 -4.21072e-20)
(-0.0415523 0.0401458 0)
(-0.0462677 0.0401675 0)
(-0.0508796 0.0397782 -3.59169e-20)
(-0.0553431 0.039027 3.39556e-20)
(-0.0596164 0.0379587 -3.20835e-20)
(-0.0636602 0.0366141 0)
(-0.0674378 0.0350301 -2.86872e-20)
(-0.0709141 0.0332409 -8.09996e-20)
(-0.0740554 0.0312791 -1.31505e-23)
(-0.0768288 0.0291774 -9.20349e-24)
(-0.0792025 0.0269713 2.25482e-20)
(-0.081146 0.0247017 4.24028e-20)
(-0.0826316 0.0224186 -7.96411e-20)
(-0.0836363 0.0201849 3.74169e-20)
(-0.0841464 0.0180798 -7.44046e-24)
(-0.0841632 0.016201 2.88775e-23)
(-0.0837243 0.0146613 3.23632e-23)
(-0.0829083 0.0135746 2.88217e-20)
(-0.0816823 0.013061 0)
(-0.0801319 0.0132613 0)
(-0.00133544 0.0047474 3.0109e-20)
(-0.00411598 0.0129176 1.02382e-22)
(-0.0074287 0.0199481 1.02084e-22)
(-0.0111163 0.0259319 -5.68134e-20)
(-0.0150951 0.0309405 5.41162e-20)
(-0.0193094 0.0350401 0)
(-0.0236989 0.0382992 0)
(-0.0282029 0.0407866 4.68539e-20)
(-0.0327635 0.0425705 -4.44903e-20)
(-0.0373257 0.0437178 4.08837e-23)
(-0.0418374 0.0442929 8.02297e-20)
(-0.0462497 0.0443575 3.80179e-20)
(-0.0505168 0.0439692 -7.1972e-20)
(-0.0545956 0.0431818 3.40345e-20)
(-0.0584457 0.0420441 3.2199e-20)
(-0.0620288 0.0406005 -3.03929e-20)
(-0.0653081 0.0388912 5.73331e-20)
(-0.068248 0.0369526 8.12529e-20)
(-0.0708131 0.0348192 5.1068e-20)
(-0.0729681 0.032525 2.40225e-20)
(-0.0746774 0.0301064 -4.51782e-20)
(-0.0759053 0.0276056 0)
(-0.0766167 0.0250749 4.10274e-23)
(-0.0767805 0.022582 3.75057e-20)
(-0.0763723 0.0202152 3.50945e-20)
(-0.0753825 0.0180887 -6.58677e-20)
(-0.0738414 0.0163418 -3.08213e-20)
(-0.071837 0.0151267 5.76565e-20)
(-0.06932 0.0146133 0)
(-0.0662914 0.0150066 -5.0394e-20)
(-0.00156243 0.00511087 3.0186e-20)
(-0.00470788 0.0139238 -6.21986e-20)
(-0.00828241 0.0215266 2.3028e-23)
(-0.0121434 0.0280133 -1.00982e-22)
(-0.016215 0.0334567 0)
(-0.0204469 0.0379248 0)
(-0.0247839 0.0414886 0)
(-0.0291702 0.0442205 -4.69915e-20)
(-0.0335523 0.0461924 4.4621e-20)
(-0.0378792 0.0474751 -4.23263e-20)
(-0.0421021 0.0481377 -8.03701e-20)
(-0.0461753 0.0482462 -2.80882e-23)
(-0.0500552 0.0478626 7.21881e-20)
(-0.053701 0.0470449 3.41743e-20)
(-0.0570733 0.0458458 0)
(-0.0601348 0.0443129 -6.10177e-20)
(-0.0628486 0.0424889 8.63498e-20)
(-0.0651783 0.0404126 -8.12955e-20)
(-0.0670869 0.0381194 -5.11025e-20)
(-0.0685364 0.035644 -1.444e-19)
(-0.0694871 0.0330228 -1.47528e-24)
(-0.0698975 0.0302977 8.05537e-24)
(-0.0697254 0.0275217 3.88921e-23)
(-0.0689298 0.0247651 -7.49515e-20)
(-0.0674747 0.0221234 1.05531e-19)
(-0.0653366 0.0197263 -6.92054e-23)
(-0.0625338 0.017742 0)
(-0.0591669 0.0163688 -5.76555e-20)
(-0.0551828 0.0158381 5.38921e-20)
(-0.0503765 0.0164429 5.06047e-20)
(-0.0017997 0.0054354 0)
(-0.00532778 0.0148259 -3.12642e-20)
(-0.00917793 0.0229472 2.98689e-20)
(-0.0132217 0.0298924 5.71129e-20)
(-0.0173908 0.0357343 2.73242e-20)
(-0.0216397 0.0405418 -5.19808e-20)
(-0.025918 0.0443879 -6.44703e-23)
(-0.0301746 0.0473472 -4.70986e-20)
(-0.0343601 0.0494949 0)
(-0.0384272 0.0509054 4.25757e-20)
(-0.0423307 0.0516516 0)
(-0.0460275 0.0518036 0)
(-0.0494765 0.0514274 -7.23458e-20)
(-0.0526386 0.0505847 -6.84012e-20)
(-0.0554759 0.0493318 9.70976e-20)
(-0.0579512 0.0477193 6.10172e-20)
(-0.0600277 0.0457923 7.76353e-23)
(-0.0616679 0.0435912 -5.4346e-20)
(-0.0628328 0.0411522 1.02381e-19)
(-0.0634815 0.0385099 4.97337e-24)
(-0.0635699 0.0356996 9.07487e-20)
(-0.0630508 0.0327619 0)
(-0.0618739 0.0297482 0)
(-0.059988 0.0267288 7.51636e-20)
(-0.0573441 0.0238035 -1.05533e-19)
(-0.0539022 0.0211152 9.88902e-20)
(-0.0496631 0.0188615 -6.17164e-20)
(-0.044742 0.0172914 5.77034e-20)
(-0.0391246 0.0167152 -1.07786e-19)
(-0.0321856 0.0175789 5.06583e-20)
(-0.00204449 0.00572019 -3.05151e-20)
(-0.00596866 0.0156213 0)
(-0.0101053 0.0242047 0)
(-0.0143393 0.0315612 -5.74833e-20)
(-0.0186092 0.0377624 1.09642e-19)
(-0.0228735 0.0428774 -5.21708e-20)
(-0.0270862 0.04698 -1.03879e-22)
(-0.0312004 0.0501469 4.72585e-20)
(-0.0351705 0.0524557 0)
(-0.0389527 0.0539839 7.7197e-23)
(-0.0425049 0.0548078 2.1989e-23)
(-0.0457865 0.055001 -7.66283e-20)
(-0.0487588 0.0546334 -1.60795e-22)
(-0.051384 0.05377 -3.43151e-20)
(-0.0536251 0.0524704 -9.72792e-20)
(-0.0554452 0.0507878 6.12486e-20)
(-0.0568068 0.0487699 -5.77695e-20)
(-0.057671 0.046458 1.09024e-19)
(-0.0579967 0.0438891 -1.02695e-19)
(-0.0577392 0.0410972 -9.6624e-20)
(-0.0568501 0.0381158 3.70794e-23)
(-0.0552757 0.0349826 -4.27083e-20)
(-0.0529576 0.0317457 4.00751e-20)
(-0.0498336 0.0284725 7.00186e-23)
(-0.0458409 0.0252631 -1.05807e-19)
(-0.0409212 0.0222693 -6.60308e-20)
(-0.0350516 0.0197153 1.23469e-19)
(-0.0283531 0.0178989 -1.15418e-19)
(-0.0209128 0.017237 5.38942e-20)
(-0.0115717 0.0186003 7.85367e-23)
(-0.00229421 0.00596512 9.17139e-20)
(-0.00662373 0.0163087 -3.14722e-20)
(-0.0110548 0.0252962 -6.03186e-20)
(-0.0154843 0.0330145 1.72767e-19)
(-0.0198565 0.0395332 2.17592e-22)
(-0.0241334 0.0449207 0)
(-0.0282726 0.0492513 0)
(-0.0322307 0.0526029 4.74528e-20)
(-0.0359655 0.0550552 -4.49916e-20)
(-0.0394362 0.0566883 4.27672e-20)
(-0.0426035 0.0575815 -4.05699e-20)
(-0.0454291 0.0578116 -7.69835e-20)
(-0.0478759 0.0574519 1.45387e-19)
(-0.0499073 0.0565706 -3.43923e-20)
(-0.0514867 0.0552302 6.48559e-20)
(-0.0525768 0.0534868 -1.2277e-19)
(-0.0531391 0.0513899 -1.54615e-23)
(-0.0531326 0.0489822 5.43056e-23)
(-0.052513 0.0463012 1.0281e-19)
(-0.0512319 0.0433798 -4.88401e-23)
(-0.0492353 0.0402495 0)
(-0.046463 0.0369443 0)
(-0.0428479 0.0335071 -4.0244e-20)
(-0.0383164 0.0299995 -1.50594e-19)
(-0.0327914 0.0265172 1.05853e-19)
(-0.0261952 0.0232149 -6.14288e-23)
(-0.0184805 0.0203369 -1.23539e-19)
(-0.00974938 0.0182271 1.15341e-19)
(-9.89496e-05 0.0174272 -5.39688e-20)
(0.0117017 0.0193881 5.0176e-20)
(-0.00254644 0.00617071 0)
(-0.0072866 0.0168886 0)
(-0.0120169 0.0262211 6.06817e-20)
(-0.0166449 0.0342498 -1.15585e-19)
(-0.0211192 0.0410416 8.65221e-23)
(-0.0254042 0.0466639 -5.26118e-20)
(-0.0294602 0.0511909 1.50301e-19)
(-0.0332469 0.0547013 -1.42918e-19)
(-0.0367248 0.0572764 -3.97813e-24)
(-0.0398555 0.0589988 -4.29109e-20)
(-0.042602 0.0599502 -1.22203e-19)
(-0.0449276 0.0602105 1.15504e-19)
(-0.0467966 0.0598558 0)
(-0.0481728 0.0589577 0)
(-0.0490194 0.0575813 6.50953e-20)
(-0.049298 0.0557853 1.23151e-19)
(-0.0489682 0.0536211 -5.8045e-20)
(-0.0479858 0.0511331 0)
(-0.0463029 0.0483589 -5.15363e-20)
(-0.0438659 0.0453309 9.83065e-24)
(-0.0406146 0.0420784 -4.56841e-20)
(-0.0364815 0.0386311 0)
(-0.03139 0.0350258 -4.03209e-20)
(-0.0252552 0.0313156 3.77414e-20)
(-0.0179849 0.0275873 -7.05816e-20)
(-0.009481 0.0239907 1.98313e-19)
(0.000327012 0.0207793 -1.07858e-22)
(0.0113443 0.0183322 5.77151e-20)
(0.0235848 0.0173507 0)
(0.038291 0.0197773 -5.05643e-20)
(-0.00279903 0.00633807 -6.18047e-20)
(-0.00795138 0.017363 6.35372e-20)
(-0.0129829 0.0269807 1.61695e-22)
(-0.0178097 0.035267 -5.80651e-20)
(-0.0223835 0.0422857 0)
(-0.0266698 0.0481024 -1.05736e-19)
(-0.0306311 0.0527912 8.57835e-23)
(-0.0342288 0.0564314 4.76131e-20)
(-0.0374256 0.0591057 3.50503e-24)
(-0.040185 0.0608986 -5.65735e-24)
(-0.0424714 0.0618942 1.22325e-19)
(-0.0442493 0.0621753 3.86596e-20)
(-0.0454834 0.0618207 3.66867e-20)
(-0.0461374 0.0609047 -6.9173e-20)
(-0.0461732 0.0594953 6.5343e-20)
(-0.0455506 0.0576538 -6.16093e-20)
(-0.0442258 0.0554337 5.81816e-20)
(-0.0421507 0.0528808 -5.48368e-20)
(-0.0392721 0.0500336 0)
(-0.0355299 0.0469241 -4.86925e-20)
(-0.0308567 0.0435799 9.12745e-20)
(-0.025176 0.0400268 4.29707e-20)
(-0.0184014 0.0362949 -4.03678e-20)
(-0.010436 0.0324276 1.51099e-19)
(-0.00117274 0.0284986 -3.54048e-20)
(0.00950674 0.0246446 6.61918e-20)
(0.0216981 0.0211138 -6.17111e-20)
(0.0353156 0.0183104 1.06903e-22)
(0.0504536 0.0171074 0)
(0.0686376 0.0199049 -9.98194e-20)
(-0.00305011 0.00646888 -1.17503e-22)
(-0.00861279 0.0177351 -6.38477e-20)
(-0.0139446 0.0275787 0)
(-0.0189677 0.0360688 -5.84832e-20)
(-0.0236356 0.043266 5.56678e-20)
(-0.027914 0.0492345 -9.83512e-23)
(-0.0317659 0.0540478 0)
(-0.035154 0.0577858 -9.10324e-23)
(-0.0380422 0.0605325 -4.54667e-20)
(-0.0403951 0.0623742 4.32094e-20)
(-0.0421777 0.0633973 0)
(-0.0433551 0.063687 -7.75478e-20)
(-0.0438914 0.0633249 7.35831e-20)
(-0.043749 0.0623881 0)
(-0.0428877 0.0609472 0)
(-0.0412641 0.059066 0)
(-0.0388298 0.0568003 0)
(-0.0355312 0.0541978 5.49422e-20)
(-0.031308 0.0512985 -5.17474e-20)
(-0.026092 0.0481345 1.45945e-19)
(-0.0198067 0.0447325 -9.15245e-20)
(-0.0123652 0.0411155 -8.58621e-20)
(-0.00366988 0.0373078 1.20975e-19)
(0.00638874 0.0333426 8.30459e-23)
(0.0179318 0.0292785 -7.08322e-20)
(0.0310964 0.0252317 -6.619e-20)
(0.0460054 0.0214307 -6.18395e-20)
(0.0625826 0.01828 1.15355e-19)
(0.0809509 0.0167801 -1.07365e-19)
(0.103212 0.0199558 1.99306e-19)
(-0.0032982 0.00656525 1.24768e-19)
(-0.00926623 0.0180095 -1.35813e-22)
(-0.0148941 0.0280201 -1.22898e-19)
(-0.0201082 0.0366597 1.17237e-19)
(-0.0248617 0.0439857 -5.60283e-20)
(-0.0291192 0.0500612 -5.32514e-20)
(-0.0328434 0.0549592 5.06629e-20)
(-0.0359973 0.0587603 4.81475e-20)
(-0.0385449 0.0615498 -9.15177e-20)
(-0.0404511 0.0634157 -1.30219e-19)
(-0.0416808 0.0644468 -4.10663e-20)
(-0.0421982 0.0647305 1.55576e-19)
(-0.0419662 0.0643512 -2.20631e-19)
(-0.0409446 0.0633885 6.95502e-20)
(-0.03909 0.0619159 0)
(-0.0363538 0.0599996 0)
(-0.0326817 0.0576981 0)
(-0.0280125 0.0550614 1.10149e-19)
(-0.0222769 0.0521313 -5.18433e-20)
(-0.0153967 0.0489415 -4.88486e-20)
(-0.00728386 0.0455187 -9.16594e-20)
(0.00216064 0.0418847 8.60767e-20)
(0.0130474 0.0380597 -4.04095e-20)
(0.0254992 0.0340687 -7.57751e-20)
(0.0396505 0.0299548 -1.16158e-22)
(0.055654 0.0258096 -1.32362e-19)
(0.073659 0.0218288 1.85503e-19)
(0.0935987 0.0183834 -1.73155e-19)
(0.115557 0.0165296 5.40278e-20)
(0.142557 0.0201031 -4.95223e-20)
(-0.00354211 0.00662965 -6.2544e-20)
(-0.00990774 0.0181916 6.43649e-20)
(-0.0158247 0.0283115 6.1536e-20)
(-0.0212207 0.0370463 -1.76683e-19)
(-0.0260474 0.0444505 5.60214e-20)
(-0.0302669 0.0505863 5.34791e-20)
(-0.0338405 0.0555271 0)
(-0.0367302 0.0593542 0)
(-0.0388995 0.0621543 4.57992e-20)
(-0.0403124 0.0640174 8.68666e-20)
(-0.0409327 0.0650345 -1.64985e-19)
(-0.0407227 0.0652956 -9.76572e-23)
(-0.0396426 0.0648873 0)
(-0.0376485 0.0638922 0)
(-0.0346917 0.0623864 -6.58119e-20)
(-0.0307173 0.0604389 3.00376e-23)
(-0.0256628 0.0581111 5.85623e-20)
(-0.0194574 0.0554558 -5.51037e-20)
(-0.0120205 0.0525174 -1.03908e-19)
(-0.0032614 0.0493321 9.75904e-20)
(0.00692175 0.0459284 4.58658e-20)
(0.0186423 0.0423289 -1.29334e-19)
(0.0320253 0.0385522 -8.07628e-20)
(0.0472075 0.0346181 7.58964e-20)
(0.0643358 0.0305571 7.09929e-20)
(0.0835738 0.0264361 6.62505e-20)
(0.105093 0.0224098 0)
(0.128838 0.0187835 0)
(0.15475 0.0165626 1.07061e-19)
(0.187217 0.0205604 0)
(-0.00378101 0.00666482 6.32071e-20)
(-0.010534 0.0182874 -6.48709e-20)
(-0.0167296 0.0284607 1.24124e-19)
(-0.0222947 0.0372365 -2.86614e-22)
(-0.0271776 0.0446677 0)
(-0.0313368 0.0508161 0)
(-0.0347309 0.055756 0)
(-0.0373202 0.0595699 -4.85184e-20)
(-0.0390663 0.0623465 4.60705e-20)
(-0.0399313 0.0641779 0)
(-0.0398767 0.0651573 8.257e-20)
(-0.0388618 0.0653772 7.82888e-20)
(-0.0368424 0.0649271 -7.40363e-20)
(-0.0337693 0.0638921 6.99239e-20)
(-0.0295871 0.0623512 -9.61178e-23)
(-0.0242321 0.0603765 -6.22554e-20)
(-0.0176316 0.0580325 -5.87067e-20)
(-0.00970289 0.0553755 1.65793e-19)
(-0.000351771 0.0524532 5.18948e-20)
(0.0105275 0.0493056 -9.78359e-20)
(0.0230528 0.0459646 -4.59107e-20)
(0.0373536 0.0424557 4.30888e-20)
(0.053571 0.0387994 0)
(0.0718554 0.0350139 -7.57995e-20)
(0.0923645 0.0311222 -7.09169e-20)
(0.115266 0.0271708 0)
(0.140745 0.023273 6.16237e-20)
(0.168766 0.0196482 -1.15441e-19)
(0.198975 0.0171061 -1.60758e-19)
(0.237672 0.0215902 0)
(-0.00401438 0.00667356 -1.26584e-19)
(-0.011142 0.0183034 6.53702e-20)
(-0.0176024 0.028476 -1.24616e-19)
(-0.0233193 0.0372395 -2.95411e-22)
(-0.0282361 0.0446462 0)
(-0.0323062 0.0507589 0)
(-0.0354851 0.0556531 5.14198e-20)
(-0.0377296 0.0594135 9.76609e-20)
(-0.0389988 0.0621311 0)
(-0.0392515 0.0639004 0)
(-0.0384456 0.0648174 -1.66048e-19)
(-0.0365358 0.0649771 7.86153e-20)
(-0.0334721 0.0644718 -1.40739e-22)
(-0.0291983 0.0633895 0)
(-0.0236496 0.0618123 -4.23072e-23)
(-0.016752 0.0598157 6.23852e-20)
(-0.00842011 0.0574678 -1.71643e-22)
(0.00144325 0.0548286 -2.21347e-19)
(0.0129481 0.0519506 -5.20828e-20)
(0.0262175 0.0488783 9.78336e-20)
(0.0413868 0.0456489 9.18893e-20)
(0.0586033 0.042293 -9.49381e-23)
(0.0780234 0.0388357 8.09402e-20)
(0.0998103 0.0352985 1.51601e-19)
(0.124128 0.0317027 7.09142e-20)
(0.15114 0.0280819 6.62186e-20)
(0.181029 0.0245153 6.15608e-20)
(0.213796 0.0211396 1.14619e-19)
(0.248587 0.0183871 -8.00577e-22)
(0.294256 0.0234869 4.80375e-20)
(-0.00424189 0.00665869 1.27648e-19)
(-0.0117293 0.0182458 -1.96625e-19)
(-0.0184368 0.0283659 1.25267e-19)
(-0.0242829 0.037065 1.19533e-19)
(-0.0292047 0.0443962 5.69385e-20)
(-0.0331499 0.0504245 -3.74713e-23)
(-0.0360689 0.0552281 -5.13247e-20)
(-0.037915 0.0588942 -9.76606e-20)
(-0.0386428 0.0615169 2.38423e-22)
(-0.0382069 0.0631936 1.75895e-19)
(-0.0365601 0.0640233 -8.35799e-20)
(-0.0336508 0.064104 1.57529e-19)
(-0.0294214 0.0635311 -9.76218e-23)
(-0.0238064 0.0623956 -1.40481e-19)
(-0.01673 0.0607832 -2.54318e-23)
(-0.00810501 0.0587731 0)
(0.00216875 0.0564372 2.94204e-19)
(0.0142052 0.0538407 5.52901e-20)
(0.0281322 0.051041 0)
(0.0440914 0.0480886 4.89484e-20)
(0.0622369 0.0450275 -4.60407e-20)
(0.0827327 0.0418954 1.72605e-19)
(0.105749 0.0387248 -2.4281e-19)
(0.131457 0.0355438 7.58859e-20)
(0.160019 0.0323784 0)
(0.191584 0.0292573 6.61096e-20)
(0.226304 0.0262375 -1.23303e-19)
(0.264248 0.0234082 1.14644e-19)
(0.303803 0.0206139 -1.06512e-19)
(0.357071 0.026548 -9.7509e-20)
(-0.00446338 0.00662283 -1.2818e-19)
(-0.0122933 0.018121 -3.6867e-22)
(-0.0192258 0.0281389 -6.27986e-20)
(-0.0251725 0.0367229 -5.99193e-20)
(-0.0300631 0.0439286 -1.14603e-19)
(-0.0338384 0.0498246 5.44896e-20)
(-0.0364434 0.0544928 8.44594e-23)
(-0.0378258 0.0580243 -9.82739e-20)
(-0.0379352 0.0605168 -1.39493e-19)
(-0.0367205 0.0620712 1.37885e-22)
(-0.0341275 0.0627901 8.33149e-20)
(-0.0300967 0.0627748 -1.57753e-19)
(-0.024561 0.0621242 7.4656e-20)
(-0.0174432 0.060933 7.0488e-20)
(-0.0086541 0.0592905 -1.87662e-23)
(0.00190873 0.0572801 6.26284e-20)
(0.0143626 0.0549789 -1.17783e-19)
(0.0288398 0.052457 0)
(0.0454875 0.0497785 -1.04359e-19)
(0.0644664 0.0470009 9.80539e-20)
(0.0859479 0.0441759 -9.20568e-20)
(0.11011 0.0413502 -8.63472e-20)
(0.137131 0.0385655 0)
(0.16718 0.0358594 -2.27161e-19)
(0.20041 0.033266 1.67794e-22)
(0.23693 0.0308166 -3.30411e-19)
(0.276833 0.0285556 1.85097e-19)
(0.320282 0.026594 -2.29006e-19)
(0.364645 0.0239634 1.06506e-19)
(0.425883 0.0310407 -9.62491e-20)
(-0.00467868 0.0065683 6.42733e-20)
(-0.0128311 0.0179344 6.60947e-20)
(-0.0199615 0.0278029 6.34983e-20)
(-0.0259732 0.0362228 -1.90767e-22)
(-0.0307878 0.0432545 -1.70063e-22)
(-0.0343384 0.0489717 0)
(-0.0365631 0.0534613 0)
(-0.0374037 0.0568193 0)
(-0.0368031 0.0591479 0)
(-0.0347029 0.0605526 0)
(-0.0310405 0.0611398 8.36663e-20)
(-0.0257463 0.061015 -7.91298e-20)
(-0.0187414 0.0602809 7.48694e-20)
(-0.00993492 0.0590363 1.71058e-23)
(0.000777999 0.0573751 -6.64725e-20)
(0.0135173 0.0553855 7.87788e-24)
(0.0284191 0.0531502 -1.18108e-19)
(0.0456353 0.0507458 1.11099e-19)
(0.0653321 0.0482433 1.04356e-19)
(0.0876877 0.0457083 -9.79372e-20)
(0.112887 0.0432018 1.84212e-19)
(0.141116 0.04078 0)
(0.17255 0.0384949 -1.61656e-19)
(0.207343 0.0363946 3.30337e-22)
(0.245615 0.034523 3.996e-22)
(0.287419 0.032917 5.84013e-22)
(0.332738 0.0316101 -6.11548e-20)
(0.381841 0.0308283 1.14361e-19)
(0.430895 0.0285767 1.06038e-19)
(0.500037 0.0371699 5.0294e-20)
(-0.00488747 0.006497 0)
(-0.0133391 0.0176905 6.66653e-20)
(-0.0206345 0.0273647 -6.33163e-20)
(-0.0266679 0.0355738 -1.3866e-22)
(-0.0313517 0.0423849 1.15674e-19)
(-0.0346108 0.0478789 -5.50491e-20)
(-0.036376 0.052149 0)
(-0.0365816 0.0552973 0)
(-0.0351627 0.0574317 -9.38488e-20)
(-0.0320519 0.0586628 8.90304e-20)
(-0.0271763 0.0591019 8.42449e-20)
(-0.0204544 0.0588592 0)
(-0.0117929 0.0580419 7.51008e-20)
(-0.00108525 0.0567538 0)
(0.0117912 0.0550938 -1.33195e-19)
(0.0269754 0.0531563 1.88314e-19)
(0.0446233 0.0510299 1.77208e-19)
(0.0649058 0.0487988 -5.55778e-20)
(0.0880065 0.0465419 -1.12191e-22)
(0.114117 0.0443339 -1.47198e-19)
(0.143427 0.0422451 0)
(0.17612 0.0403418 0)
(0.212353 0.0386861 8.08757e-20)
(0.252244 0.0373352 1.51161e-19)
(0.295851 0.0363418 -1.13033e-22)
(0.343138 0.0357472 1.31949e-19)
(0.393938 0.0355658 1.22849e-19)
(0.448579 0.0362261 0)
(0.502052 0.034558 -1.0603e-19)
(0.578382 0.0450462 1.4509e-19)
(-0.00508917 0.00641028 6.54727e-20)
(-0.013813 0.0173929 0)
(-0.0212336 0.02683 1.64525e-22)
(-0.0272359 0.0347839 -6.11121e-20)
(-0.0317229 0.0413307 5.83318e-20)
(-0.0346109 0.0465599 5.52511e-20)
(-0.0358223 0.0505729 -1.07389e-22)
(-0.035283 0.0534794 4.99884e-20)
(-0.0329188 0.0553937 0)
(-0.0286517 0.0564326 -1.78625e-19)
(-0.0223966 0.0567133 2.64568e-22)
(-0.0140577 0.0563512 0)
(-0.00352579 0.0554594 7.53185e-20)
(0.00932383 0.0541472 -2.12809e-19)
(0.0246328 0.0525197 6.68912e-20)
(0.0425601 0.0506778 -6.28126e-20)
(0.0632805 0.0487178 -1.18331e-19)
(0.086982 0.0467318 -1.67004e-19)
(0.113861 0.0448074 0)
(0.144112 0.0430286 0)
(0.177923 0.0414749 9.2051e-20)
(0.215452 0.0402218 8.6143e-20)
(0.256817 0.0393394 -8.09252e-20)
(0.302069 0.0388915 0)
(0.351171 0.0389347 0)
(0.40396 0.0395089 0)
(0.460086 0.040599 1.22232e-19)
(0.519796 0.0428653 -5.65566e-20)
(0.577311 0.0419735 1.06609e-19)
(0.659232 0.054659 9.37622e-20)
(-0.0052827 0.00630887 -1.31156e-19)
(-0.0142465 0.0170436 6.75242e-20)
(-0.0217446 0.026203 -6.46793e-20)
(-0.0276528 0.0338599 6.16529e-20)
(-0.0318647 0.0401015 -5.83317e-20)
(-0.0342873 0.0450283 5.55474e-20)
(-0.0348341 0.0487513 -5.28469e-20)
(-0.0334215 0.0513888 -9.98464e-20)
(-0.0299646 0.0530632 9.49971e-20)
(-0.0243732 0.0538983 1.79298e-19)
(-0.0165478 0.0540181 8.45759e-20)
(-0.00637655 0.0535446 -8.00901e-20)
(0.00626762 0.0525973 2.23298e-22)
(0.0215287 0.0512922 1.69183e-23)
(0.039568 0.0497417 6.70436e-20)
(0.0605636 0.0480542 0)
(0.0847067 0.0463344 1.1841e-19)
(0.112197 0.0446827 2.78321e-19)
(0.143234 0.0431961 -5.23675e-20)
(0.178006 0.0419669 0)
(0.216674 0.0410829 -1.84083e-19)
(0.259354 0.0406259 -8.62126e-20)
(0.30609 0.0406703 -8.0543e-20)
(0.356834 0.0412805 7.56202e-20)
(0.411411 0.0425106 -7.02115e-20)
(0.469482 0.0443881 6.58484e-20)
(0.530511 0.0468731 -3.62184e-22)
(0.5944 0.050759 1.12885e-19)
(0.655527 0.0508773 -1.05348e-19)
(0.740288 0.0659013 -1.88717e-19)
(-0.00546635 0.00619283 6.63887e-20)
(-0.0146318 0.0166434 6.79522e-20)
(-0.0221506 0.0254862 -2.39937e-22)
(-0.0278899 0.032807 4.05084e-22)
(-0.0317344 0.0387065 0)
(-0.0335814 0.0432978 -2.41514e-22)
(-0.0333349 0.0467034 -1.59599e-19)
(-0.0309008 0.0490514 0)
(-0.0261819 0.0504734 -9.5388e-20)
(-0.0190742 0.0511017 -3.60126e-19)
(-0.00946227 0.051068 8.51836e-20)
(0.00278356 0.0505019 -8.03854e-20)
(0.0178094 0.0495305 -1.51053e-19)
(0.0357789 0.0482777 1.42759e-19)
(0.0568721 0.0468641 0)
(0.0812832 0.0454065 6.30074e-20)
(0.109214 0.0440184 -1.78172e-19)
(0.140867 0.042809 -5.57639e-20)
(0.176432 0.0418833 -1.57097e-19)
(0.21607 0.0413409 0)
(0.259894 0.0412742 1.84053e-19)
(0.307941 0.041767 8.62081e-20)
(0.360152 0.0428913 0)
(0.416332 0.0447039 7.52834e-20)
(0.476131 0.0472465 0)
(0.538986 0.0505202 -6.51882e-20)
(0.604189 0.0544958 -1.82219e-19)
(0.670954 0.0598255 -2.25385e-19)
(0.735205 0.0614001 -1.04228e-19)
(0.818502 0.0786545 -3.36097e-21)
(-0.00563759 0.00606157 -6.63887e-20)
(-0.0149588 0.0161916 2.95523e-22)
(-0.0224307 0.0246803 6.53804e-20)
(-0.0279137 0.0316291 -6.20579e-20)
(-0.0312833 0.0371538 -5.91654e-20)
(-0.0324273 0.0413822 1.12184e-19)
(-0.0312398 0.0444493 5.34905e-20)
(-0.0276147 0.0464951 1.01307e-19)
(-0.0214418 0.0476613 9.54546e-20)
(-0.0126014 0.0480899 9.06218e-20)
(-0.000960856 0.0479214 1.71119e-19)
(0.0136282 0.0472944 -3.06162e-22)
(0.0313313 0.0463447 0)
(0.0523302 0.0452052 -7.1364e-20)
(0.076821 0.0440052 -2.1199e-22)
(0.105008 0.0428708 1.29939e-22)
(0.137094 0.0419242 1.78272e-19)
(0.173271 0.0412825 0)
(0.213698 0.0410569 1.04683e-19)
(0.258484 0.0413504 0)
(0.307661 0.0422555 -4.65602e-24)
(0.361156 0.04385 -8.59409e-20)
(0.418758 0.0461939 1.61071e-19)
(0.480088 0.0493246 -7.55446e-20)
(0.544584 0.0532594 -1.40132e-19)
(0.61143 0.0579554 6.54137e-20)
(0.679771 0.0634501 2.42689e-19)
(0.747888 0.0698638 5.60054e-20)
(0.814641 0.07381 2.58795e-19)
(0.890244 0.0924459 4.92092e-20)
(-0.00579294 0.00591384 6.71339e-20)
(-0.0152148 0.0156859 -1.37746e-19)
(-0.0225604 0.0237848 0)
(-0.0276851 0.0303287 0)
(-0.0304562 0.0354508 5.95597e-20)
(-0.0307519 0.0392948 -2.6596e-22)
(-0.0284553 0.0420104 -1.07085e-19)
(-0.0234484 0.0437502 -1.01514e-19)
(-0.015606 0.0446674 3.93582e-22)