/*--------------------------------*- C++ -*----------------------------------*\
  =========                 |
  \\      /  F ield         | OpenFOAM: The Open Source CFD Toolbox
   \\    /   O peration     | Website:  https://openfoam.org
    \\  /    A nd           | Version:  7
     \\/     M anipulation  |
\*---------------------------------------------------------------------------*/
FoamFile
{
    version     2.0;
    format      ascii;
    class       surfaceScalarField;
    location    "15";
    object      phi;
}
// * * * * * * * * * * * * * * * * * * * * * * * * * * * * * * * * * * * * * //

dimensions      [0 3 -1 0 0 0 0];

internalField   nonuniform List<scalar> 
1654
(
-9.17816e-05
-4.70848e-06
1.44047e-09
-8.60876e-05
-5.69555e-06
1.55622e-09
-7.94487e-05
-6.64063e-06
1.67063e-09
-7.1915e-05
-7.53548e-06
1.78285e-09
-8.37478e-06
1.89211e-09
-8.8287e-05
-9.4564e-06
-8.25579e-05
-1.14246e-05
-7.58898e-05
-1.33087e-05
-6.83329e-05
-1.50924e-05
-1.6765e-05
-8.13146e-05
-1.42855e-05
-7.55159e-05
-1.72234e-05
-6.879e-05
-2.00346e-05
-6.11873e-05
-2.26951e-05
-2.51892e-05
-7.08981e-05
-1.92351e-05
-6.49963e-05
-2.31251e-05
-5.81851e-05
-2.68458e-05
-5.05149e-05
-3.03653e-05
-4.20408e-05
-3.36633e-05
-3.67289e-05
-5.70874e-05
-5.10508e-05
-2.91617e-05
-4.41284e-05
-3.37681e-05
-3.63708e-05
-3.81228e-05
-2.78327e-05
-4.22015e-05
-4.59907e-05
-3.37472e-05
-3.53626e-05
-2.669e-05
-4.08252e-05
-1.88272e-05
-4.59856e-05
-1.0213e-05
-5.08158e-05
-5.53005e-05
-1.31688e-05
-4.17544e-05
-5.95608e-06
-4.8038e-05
2.02698e-06
-5.39687e-05
1.07265e-05
-5.95153e-05
-6.4662e-05
1.05863e-05
-4.83597e-05
1.79718e-05
-5.54234e-05
2.60865e-05
-6.20834e-05
3.48775e-05
-6.83064e-05
-7.4076e-05
3.74065e-05
-5.51976e-05
4.49778e-05
-6.29947e-05
5.32317e-05
-7.03373e-05
6.21161e-05
-7.71908e-05
-8.35395e-05
6.71678e-05
-6.22816e-05
7.49329e-05
-7.07599e-05
8.33284e-05
-7.87327e-05
9.23035e-05
-8.61659e-05
-9.30448e-05
9.97345e-05
-6.96195e-05
0.000107696
-7.8721e-05
0.00011623
-8.72666e-05
0.000125287
-9.52234e-05
-0.000102579
0.000134961
0.000143113
-8.68737e-05
0.000151776
-9.59292e-05
0.000160901
-0.000104349
0.000170446
-0.000112124
-0.000119261
0.000181023
-9.52056e-05
0.000189797
-0.000104703
0.000198969
-0.000113521
0.000208499
-0.000121654
-0.000129114
0.00022125
-0.000103696
0.00023011
-0.000113563
0.000239299
-0.00012271
0.000248782
-0.000131137
-0.00013886
0.000263615
-0.000112313
0.000272525
-0.000122474
0.000281693
-0.000131877
0.000291088
-0.000140532
-0.000148458
0.000307924
0.00031684
-0.00013139
0.000325938
-0.000140976
0.000335196
-0.00014979
-0.000157859
0.000362842
-0.000140254
0.000371813
-0.000149947
0.000380877
-0.000158853
0.000390022
-0.000167005
-0.00017444
0.000410311
-0.000148996
0.000419085
-0.000158721
0.000427886
-0.000167653
0.000436712
-0.000175831
-0.000183294
0.000459011
0.000467509
-0.000167219
0.00047597
-0.000176114
0.000484403
-0.000184263
-0.000191709
0.000516828
-0.000175349
0.000524864
-0.000184149
0.000532823
-0.000192222
0.000540725
-0.000199612
-0.000206359
0.000566773
-0.000183007
0.000574287
-0.000191664
0.000581687
-0.000199621
0.000588998
-0.000206923
-0.000213609
0.000617058
0.000623951
-0.000198556
0.000630698
-0.000206369
0.000637336
-0.000213561
-0.00022017
0.000673548
-0.000204718
0.000679549
-0.00021237
0.00068543
-0.000219442
0.000691228
-0.000225967
-0.000231973
0.000722763
-0.00021004
0.000727922
-0.000217528
0.000732962
-0.000224483
0.000737925
-0.000230931
-0.000236892
0.000771265
0.000775487
-0.00022175
0.000779607
-0.000228604
0.000783667
-0.00023499
-0.000240926
0.000821909
-0.000224947
0.000825035
-0.000231729
0.00082813
-0.000238085
0.000831226
-0.000244023
-0.000249552
0.000866845
-0.000227039
0.000868911
-0.000233795
0.000870986
-0.00024016
0.000873101
-0.000246138
-0.000251731
0.000909937
0.000910888
-0.000234747
0.000911901
-0.000241173
0.000913
-0.000247237
0.000914205
-0.000252936
-0.000258274
0.000950655
-0.000234541
0.000950572
-0.000241091
0.00095063
-0.000247294
0.000950843
-0.000253149
-0.000258653
0.000987956
0.000986764
-0.000239899
0.000985773
-0.000246304
0.000984991
-0.000252367
-0.000258086
0.00341667
-0.000235468
0.00341257
-0.00024221
0.00340881
-0.0002486
0.00340536
-0.000254638
-0.000260325
0.00380922
-0.00022428
0.00379875
-0.000231742
0.00378895
-0.000238797
0.00377976
-0.000245454
-0.000251723
0.00420025
-0.000206801
0.00418378
-0.000215278
0.00416825
-0.000223269
0.00415359
-0.000230794
-0.000237873
0.00458077
-0.000184003
0.00455915
-0.00019366
0.00453863
-0.00020275
0.00451914
-0.000211302
-0.000219342
0.00494298
-0.000157159
0.00491734
-0.000168026
0.00489286
-0.00017826
0.00486945
-0.000187895
-0.000196959
0.00528056
-0.000127639
0.00525218
-0.000139638
0.00522488
-0.000150961
0.00519862
-0.000161641
-0.00017171
0.00558896
-9.67478e-05
0.00555905
-0.000109728
0.00553011
-0.000122014
0.0055021
-0.000133635
-0.000144619
0.00586533
-6.56317e-05
0.005835
-7.94075e-05
0.00580548
-9.24894e-05
0.00577675
-0.000104902
-0.000116671
0.00610834
-3.52367e-05
0.00607855
-4.96109e-05
0.00604936
-6.33058e-05
0.0060208
-7.63421e-05
-8.8741e-05
0.00631802
-6.30363e-06
0.00628949
-2.10842e-05
0.0062614
-3.52095e-05
0.00623375
-4.86968e-05
-6.15636e-05
0.00649541
2.06205e-05
0.00646871
5.61181e-06
0.00644227
-8.77207e-06
0.00641612
-2.25451e-05
-3.5722e-05
0.00664236
4.51625e-05
0.00661789
3.00855e-05
0.00659351
1.5599e-05
0.00656928
1.69186e-06
-1.16483e-05
0.0067613
6.71008e-05
0.00673929
5.20949e-05
0.00671725
3.76432e-05
0.00669521
2.37362e-05
1.03641e-05
0.00685504
8.63431e-05
0.00683561
7.15266e-05
0.00681602
5.72265e-05
0.00679632
4.34353e-05
3.01454e-05
0.00692654
0.000102903
0.00690969
8.83728e-05
0.0068926
7.43211e-05
0.00687529
6.07421e-05
4.763e-05
0.00697882
0.000116877
0.00696449
0.00010271
0.00694982
8.89835e-05
0.00693487
7.56943e-05
6.28376e-05
0.00701481
0.000128424
0.00700284
0.000114676
0.00699049
0.000101334
0.00697779
8.83941e-05
7.58536e-05
0.00703723
0.00013774
0.00702745
0.000124453
0.00701725
0.000111537
0.00700665
9.899e-05
8.68108e-05
0.00704858
0.000145047
0.00704078
0.000132246
0.00703254
0.000119783
0.00702387
0.000107659
9.58725e-05
0.00705105
0.000150572
0.00704503
0.00013827
0.00703853
0.000126277
0.0070316
0.000114593
0.000103219
0.00704655
0.000154537
0.00704209
0.000142738
0.00703714
0.000131221
0.00703175
0.000119986
0.000109035
0.0070367
0.000157153
0.00703358
0.000145854
0.00702999
0.000134811
0.00702595
0.000124026
0.000113501
0.00702282
0.00015861
0.00702087
0.000147802
0.00701845
0.000137228
0.00701559
0.000126889
0.000116788
0.007006
0.00015908
0.00700505
0.000148752
0.00700364
0.000138635
0.0070018
0.000128735
0.000119052
0.00698711
0.00015871
0.00698702
0.000148848
0.00698647
0.000139178
0.0069855
0.000129705
0.000120431
0.00696685
0.00015763
0.00696748
0.000148218
0.00696767
0.000138981
0.00696745
0.000129924
0.000121049
0.00694574
0.000155947
0.00694698
0.00014697
0.00694781
0.000138152
0.00694824
0.000129499
0.000121012
0.00692419
0.000153751
0.00692597
0.000145195
0.00692734
0.000136782
0.00692831
0.000128519
0.000120409
0.00690252
0.00015112
0.00690475
0.000142968
0.00690658
0.000134948
0.00690804
0.000127063
0.000119319
0.00688097
0.000148116
0.00688359
0.000140355
0.00688582
0.000132713
0.00688769
0.000125195
0.000117805
0.00685971
0.000144792
0.00686266
0.000137408
0.00686524
0.000130132
0.00686747
0.000122969
0.000115922
0.00683887
0.000141192
0.00684211
0.000134172
0.00684499
0.000127251
0.00684753
0.000120431
0.000113718
0.00681855
0.000137353
0.00682204
0.000130685
0.00682519
0.000124106
0.006828
0.00011762
0.00011123
0.00679882
0.000133306
0.00680253
0.000126979
0.0068059
0.000120731
0.00680896
0.000114568
0.000108492
0.00677973
0.000129078
0.00678363
0.00012308
0.00678721
0.000117154
0.00679047
0.000111303
0.000105533
0.00676132
0.000124691
0.00676539
0.000119012
0.00676914
0.000113397
0.0067726
0.000107851
0.000102377
0.00674361
0.000120165
0.00674783
0.000114795
0.00675174
0.000109482
0.00675536
0.000104231
9.90458e-05
0.00672662
0.000115517
0.00673097
0.000110446
0.00673502
0.000105426
0.00673879
0.000100462
9.55577e-05
0.00671037
0.000110762
0.00671483
0.00010598
0.00671901
0.000101245
0.00672291
9.65603e-05
9.19293e-05
0.00669486
0.000105912
0.00669943
0.000101412
0.00670372
9.69534e-05
0.00670774
9.254e-05
8.81751e-05
0.0066801
0.000100979
0.00668476
9.67525e-05
0.00668915
9.25627e-05
0.00669327
8.84136e-05
8.43082e-05
0.00666609
9.59736e-05
0.00667083
9.20123e-05
0.0066753
8.80842e-05
0.00667953
8.41925e-05
8.03402e-05
0.00665283
9.09035e-05
0.00665764
8.72007e-05
0.0066622
8.35274e-05
0.0066665
7.98867e-05
7.62815e-05
0.00664032
8.57771e-05
0.0066452
8.2326e-05
0.00664983
7.89012e-05
0.00665421
7.55055e-05
7.21416e-05
0.00662857
8.06013e-05
0.0066335
7.73956e-05
0.00663819
7.42133e-05
0.00664264
7.10568e-05
6.79289e-05
0.00661757
7.53822e-05
0.00662255
7.24161e-05
0.00662729
6.94706e-05
0.0066318
6.65481e-05
6.36511e-05
0.00660731
7.01254e-05
0.00661234
6.73933e-05
0.00661713
6.46795e-05
0.00662169
6.19861e-05
5.93154e-05
0.00659781
6.48355e-05
0.00660287
6.23326e-05
0.0066077
5.98456e-05
0.00661231
5.73767e-05
5.49279e-05
0.00658904
5.9517e-05
0.00659413
5.72386e-05
0.00659901
5.49741e-05
0.00660366
5.27255e-05
5.04947e-05
0.00658102
5.41737e-05
0.00658614
5.21155e-05
0.00659104
5.00695e-05
0.00659573
4.80374e-05
4.60209e-05
0.00657373
4.8809e-05
0.00657888
4.69673e-05
0.00658381
4.51362e-05
0.00658853
4.33171e-05
4.15116e-05
0.00656718
4.3426e-05
0.00657235
4.17974e-05
0.00657731
4.01779e-05
0.00658206
3.85687e-05
3.69713e-05
0.00656137
3.80275e-05
0.00656656
3.66091e-05
0.00657154
3.51983e-05
0.00657631
3.37963e-05
3.24044e-05
0.00655629
3.26161e-05
0.0065615
3.14052e-05
0.00656649
3.02007e-05
0.00657129
2.90035e-05
2.78148e-05
0.00655194
2.71943e-05
0.00655716
2.61887e-05
0.00656217
2.51883e-05
0.00656698
2.41939e-05
2.32063e-05
0.00654833
2.17643e-05
0.00655355
2.09621e-05
0.00655858
2.0164e-05
0.0065634
1.93706e-05
1.85826e-05
0.00654544
1.63281e-05
0.00655067
1.57279e-05
0.0065557
1.51306e-05
0.00656054
1.45368e-05
1.3947e-05
0.00654327
1.08876e-05
0.00654851
1.04881e-05
0.00655355
1.00906e-05
0.00655839
9.69534e-06
9.30269e-06
0.00654183
5.44445e-06
0.00654707
5.24491e-06
0.00655211
5.04634e-06
0.00655696
4.84889e-06
4.65274e-06
0.00654111
0.00654635
0.0065514
0.00655625
0.000120636
0.00672197
0.000115586
0.00670561
0.00011045
0.00669001
0.00010524
0.00667516
9.99645e-05
0.00666108
9.46325e-05
0.00664776
8.92513e-05
0.0066352
8.38273e-05
0.0066234
7.83662e-05
0.00661235
7.2873e-05
0.00660206
6.73521e-05
0.00659252
6.18073e-05
0.00658372
5.62421e-05
0.00657567
5.06595e-05
0.00656837
4.5062e-05
0.0065618
3.94522e-05
0.00655597
3.38322e-05
0.00655088
2.8204e-05
0.00654652
2.25696e-05
0.0065429
1.69307e-05
0.00654
1.12887e-05
0.00653783
5.64475e-06
0.00653638
0.00653566
-0.000235465
0.00341667
0.000239896
-0.000224278
0.00380922
-0.000206799
0.00420025
-0.000184001
0.00458077
-0.000157157
0.00494298
-0.000127637
0.00528057
-9.67464e-05
0.00558896
-6.56304e-05
0.00586533
-3.52355e-05
0.00610834
-6.30256e-06
0.00631802
2.06215e-05
0.00649541
4.51633e-05
0.00664236
6.71016e-05
0.00676131
8.63438e-05
0.00685504
0.000102904
0.00692654
0.000116878
0.00697882
0.000128424
0.00701481
0.000137741
0.00703723
0.000145047
0.00704858
0.000150572
0.00705105
0.000154537
0.00704656
0.000157153
0.0070367
0.00015861
0.00702282
0.00015908
0.007006
0.000158711
0.00698711
0.00015763
0.00696685
0.000155947
0.00694574
0.000153751
0.00692419
0.00015112
0.00690253
0.000148116
0.00688097
0.000144792
0.00685971
0.000141192
0.00683888
0.000137353
0.00681856
0.000133306
0.00679882
0.000129078
0.00677973
0.000124691
0.00676132
0.000120165
0.00674361
0.000115517
0.00672662
0.000110762
0.00671037
0.000105912
0.00669486
0.000100979
0.0066801
9.59734e-05
0.00666609
9.09034e-05
0.00665283
8.5777e-05
0.00664033
8.06012e-05
0.00662857
7.53821e-05
0.00661757
7.01252e-05
0.00660732
6.48354e-05
0.00659781
5.95169e-05
0.00658904
5.41736e-05
0.00658102
4.88089e-05
0.00657373
4.34259e-05
0.00656718
3.80274e-05
0.00656137
3.2616e-05
0.00655629
2.71942e-05
0.00655194
2.17642e-05
0.00654833
1.63281e-05
0.00654544
1.08876e-05
0.00654327
5.44444e-06
0.00654183
0.00654111
-0.000242208
0.00341257
0.000246301
-0.00023174
0.00379875
-0.000215276
0.00418378
-0.000193658
0.00455915
-0.000168024
0.00491735
-0.000139636
0.00525218
-0.000109727
0.00555906
-7.94061e-05
0.00583501
-4.96097e-05
0.00607855
-2.10831e-05
0.00628949
5.61277e-06
0.00646871
3.00863e-05
0.00661789
5.20957e-05
0.0067393
7.15273e-05
0.00683561
8.83734e-05
0.0069097
0.00010271
0.00696449
0.000114677
0.00700284
0.000124453
0.00702745
0.000132246
0.00704079
0.00013827
0.00704503
0.000142738
0.00704209
0.000145854
0.00703359
0.000147802
0.00702087
0.000148752
0.00700505
0.000148848
0.00698702
0.000148218
0.00696748
0.00014697
0.00694698
0.000145194
0.00692597
0.000142968
0.00690475
0.000140355
0.00688359
0.000137408
0.00686266
0.000134172
0.00684211
0.000130685
0.00682204
0.000126979
0.00680253
0.00012308
0.00678363
0.000119012
0.00676539
0.000114794
0.00674783
0.000110446
0.00673097
0.00010598
0.00671483
0.000101412
0.00669943
9.67524e-05
0.00668476
9.20122e-05
0.00667083
8.72006e-05
0.00665764
8.23259e-05
0.0066452
7.73955e-05
0.0066335
7.2416e-05
0.00662255
6.73932e-05
0.00661234
6.23325e-05
0.00660287
5.72385e-05
0.00659414
5.21154e-05
0.00658614
4.69672e-05
0.00657888
4.17973e-05
0.00657235
3.6609e-05
0.00656656
3.14052e-05
0.0065615
2.61887e-05
0.00655716
2.09621e-05
0.00655355
1.57278e-05
0.00655067
1.04881e-05
0.00654851
5.2449e-06
0.00654707
0.00654635
-0.000248598
0.00340881
0.000252365
-0.000238794
0.00378895
-0.000223267
0.00416825
-0.000202748
0.00453863
-0.000178259
0.00489286
-0.000150959
0.00522488
-0.000122013
0.00553011
-9.2488e-05
0.00580548
-6.33046e-05
0.00604936
-3.52084e-05
0.0062614
-8.77111e-06
0.00644227
1.55999e-05
0.00659352
3.76439e-05
0.00671725
5.72271e-05
0.00681602
7.43216e-05
0.0068926
8.8984e-05
0.00694983
0.000101334
0.00699049
0.000111537
0.00701725
0.000119784
0.00703254
0.000126277
0.00703853
0.000131221
0.00703714
0.000134811
0.00703
0.000137228
0.00701845
0.000138635
0.00700364
0.000139178
0.00698648
0.000138981
0.00696767
0.000138152
0.00694781
0.000136782
0.00692734
0.000134948
0.00690659
0.000132713
0.00688582
0.000130132
0.00686524
0.000127251
0.00684499
0.000124106
0.00682519
0.000120731
0.00680591
0.000117154
0.00678721
0.000113397
0.00676914
0.000109482
0.00675174
0.000105426
0.00673503
0.000101245
0.00671901
9.69532e-05
0.00670372
9.25626e-05
0.00668915
8.8084e-05
0.00667531
8.35273e-05
0.0066622
7.8901e-05
0.00664983
7.42131e-05
0.00663819
6.94705e-05
0.00662729
6.46794e-05
0.00661713
5.98455e-05
0.0066077
5.4974e-05
0.00659901
5.00694e-05
0.00659104
4.51361e-05
0.00658381
4.01778e-05
0.00657731
3.51982e-05
0.00657154
3.02006e-05
0.00656649
2.51882e-05
0.00656217
2.0164e-05
0.00655858
1.51306e-05
0.0065557
1.00906e-05
0.00655355
5.04632e-06
0.00655211
0.0065514
-0.000254636
0.00340536
0.000258083
-0.000245452
0.00377977
-0.000230792
0.0041536
-0.0002113
0.00451914
-0.000187893
0.00486945
-0.00016164
0.00519862
-0.000133634
0.0055021
-0.000104901
0.00577675
-7.63409e-05
0.0060208
-4.86957e-05
0.00623375
-2.25442e-05
0.00641612
1.69268e-06
0.00656928
2.37369e-05
0.00669521
4.3436e-05
0.00679633
6.07427e-05
0.00687529
7.56947e-05
0.00693487
8.83945e-05
0.00697779
9.89903e-05
0.00700666
0.000107659
0.00702387
0.000114593
0.0070316
0.000119986
0.00703175
0.000124026
0.00702596
0.000126889
0.00701559
0.000128735
0.0070018
0.000129705
0.0069855
0.000129924
0.00696746
0.000129498
0.00694824
0.000128519
0.00692832
0.000127063
0.00690804
0.000125195
0.00688769
0.000122969
0.00686747
0.000120431
0.00684753
0.000117619
0.006828
0.000114568
0.00680896
0.000111303
0.00679047
0.000107851
0.0067726
0.000104231
0.00675536
0.000100462
0.00673879
9.65601e-05
0.00672292
9.25398e-05
0.00670774
8.84134e-05
0.00669327
8.41923e-05
0.00667953
7.98866e-05
0.0066665
7.55053e-05
0.00665421
7.10567e-05
0.00664264
6.6548e-05
0.0066318
6.1986e-05
0.00662169
5.73766e-05
0.00661231
5.27254e-05
0.00660366
4.80373e-05
0.00659573
4.3317e-05
0.00658853
3.85686e-05
0.00658206
3.37962e-05
0.00657631
2.90035e-05
0.00657129
2.41938e-05
1.93706e-05
1.45368e-05
9.69531e-06
4.84888e-06
-0.000260322
-0.000251721
-0.000237871
-0.00021934
-0.000196958
-0.000171708
-0.000144618
-0.00011667
-8.87398e-05
-6.15626e-05
-3.5721e-05
-1.16475e-05
1.03648e-05
3.0146e-05
4.76305e-05
6.2838e-05
7.5854e-05
8.6811e-05
9.58727e-05
0.000103219
0.000109035
0.000113501
0.000116788
0.000119052
0.000120431
0.000121049
0.000121012
0.000120409
0.000119319
0.000117805
0.000115922
0.000113717
0.00011123
0.000108492
0.000105533
0.000102377
9.90456e-05
9.55575e-05
9.19291e-05
8.81749e-05
8.4308e-05
8.034e-05
7.62813e-05
7.21414e-05
6.79287e-05
6.3651e-05
5.93152e-05
5.49278e-05
5.04945e-05
4.60208e-05
4.15115e-05
3.69712e-05
3.24043e-05
0.000987957
0.000234538
0.000986765
0.000241088
0.000985774
0.000247292
0.000984992
0.000253146
0.00025865
0.000950655
0.000234744
0.000950573
0.00024117
0.000950631
0.000247234
0.000950844
0.000252934
0.000258271
0.000909938
0.000227036
0.000910889
0.000233792
0.000911902
0.000240157
0.000913001
0.000246135
0.000914206
0.000251728
0.000866846
0.000224944
0.000868911
0.000231727
0.000870987
0.000238082
0.000873102
0.00024402
0.000249549
0.00082191
0.000221747
0.000825036
0.000228601
0.000828131
0.000234987
0.000831227
0.000240923
0.000771266
0.000210037
0.000775488
0.000217525
0.000779608
0.00022448
0.000783668
0.000230927
0.000236889
0.000722764
0.000204716
0.000727922
0.000212367
0.000732963
0.000219439
0.000737926
0.000225964
0.00023197
0.000667387
0.000190079
0.000673549
0.000198553
0.00067955
0.000206366
0.000685431
0.000213558
0.000691229
0.000220166
0.000617059
0.000183004
0.000623951
0.000191661
0.000630699
0.000199618
0.000637337
0.00020692
0.000213606
0.000566773
0.000175346
0.000574288
0.000184146
0.000581687
0.000192219
0.000588999
0.000199608
0.000206356
0.000508699
0.000157532
0.000516829
0.000167217
0.000524864
0.000176111
0.000532823
0.00018426
0.000540726
0.000191706
0.000459012
0.000148993
0.00046751
0.000158718
0.000475971
0.00016765
0.000484403
0.000175827
0.00018329
0.000410311
0.000140251
0.000419086
0.000149944
0.000427886
0.00015885
0.000436712
0.000167001
0.000174437
0.000362843
0.000131387
0.000371814
0.000140972
0.000380877
0.000149786
0.000390023
0.000157856
0.000307924
0.00011231
0.00031684
0.000122471
0.000325939
0.000131874
0.000335197
0.000140528
0.000148455
0.000263615
0.000103693
0.000272526
0.00011356
0.000281693
0.000122706
0.000291088
0.000131133
0.000138856
0.000221251
9.52026e-05
0.000230111
0.0001047
0.0002393
0.000113517
0.000248782
0.00012165
0.00012911
0.000181023
8.68707e-05
0.000189797
9.5926e-05
0.000198969
0.000104345
0.000208499
0.00011212
0.000119257
0.000134961
6.96166e-05
0.000143114
7.8718e-05
0.000151776
8.72633e-05
0.000160902
9.52199e-05
0.000170447
0.000102575
9.97348e-05
6.22787e-05
0.000107696
7.07568e-05
0.00011623
7.87294e-05
0.000125288
8.61623e-05
9.30411e-05
6.71681e-05
5.51947e-05
7.49333e-05
6.29916e-05
8.33288e-05
7.03339e-05
9.23039e-05
7.71872e-05
8.35357e-05
3.74068e-05
4.83567e-05
4.49781e-05
5.54202e-05
5.3232e-05
6.208e-05
6.21165e-05
6.83028e-05
7.40722e-05
1.05866e-05
4.17514e-05
1.7972e-05
4.80347e-05
2.60868e-05
5.39653e-05
3.48779e-05
5.95117e-05
6.46582e-05
-1.31686e-05
3.53596e-05
-5.95583e-06
4.0822e-05
2.02726e-06
4.59822e-05
1.07268e-05
5.08121e-05
5.52966e-05
-3.99479e-05
2.43396e-05
-3.3747e-05
2.91587e-05
-2.66898e-05
3.37648e-05
-1.8827e-05
3.81193e-05
-1.02127e-05
4.21978e-05
4.59868e-05
-5.70872e-05
1.92322e-05
-5.10506e-05
2.31221e-05
-4.41283e-05
2.68425e-05
-3.63706e-05
3.03617e-05
-2.78325e-05
3.36596e-05
3.67249e-05
-7.08979e-05
1.42827e-05
-6.49961e-05
1.72203e-05
-5.8185e-05
2.00313e-05
-5.05148e-05
2.26915e-05
-4.20406e-05
2.51855e-05
-8.13145e-05
9.45353e-06
-7.55158e-05
1.14215e-05
-6.87899e-05
1.33054e-05
-6.11871e-05
1.50888e-05
1.67612e-05
-8.82869e-05
4.7056e-06
-8.25578e-05
5.69244e-06
-7.58897e-05
6.63729e-06
-6.83328e-05
7.53192e-06
8.37099e-06
-9.17816e-05
-8.60876e-05
-7.94487e-05
-7.1915e-05
)
;

boundaryField
{
    inlet
    {
        type            calculated;
        value           nonuniform 0();
    }
    outlet
    {
        type            calculated;
        value           nonuniform 0();
    }
    cylinder
    {
        type            calculated;
        value           nonuniform 0();
    }
    top
    {
        type            symmetryPlane;
        value           uniform 0;
    }
    bottom
    {
        type            symmetryPlane;
        value           uniform 0;
    }
    defaultFaces
    {
        type            empty;
        value           nonuniform 0();
    }
    procBoundary20to19
    {
        type            processor;
        value           nonuniform List<scalar> 
197
(
9.64887e-05
9.30349e-05
8.61437e-05
7.58476e-05
6.21948e-05
-2.43425e-05
3.99481e-05
1.95606e-05
-3.98099e-06
-3.05686e-05
-6.00838e-05
-9.23967e-05
-0.000127368
-7.72121e-05
-0.000172691
-0.00021276
-0.000254997
-0.000299222
-0.000121015
-0.000353978
-0.000401568
-0.000450472
-0.000157535
-0.000508699
-0.000559115
-0.000609984
-0.000190082
-0.000667386
-0.000717441
-0.000766894
-0.000214412
-0.000818713
-0.000864753
-0.000909017
-0.000227958
-0.00095086
-0.00098934
-0.000233157
-0.0034211
-0.00382041
-0.00421773
-0.00460357
-0.00496982
-0.00531008
-0.00561986
-0.00589644
-0.00613874
-0.00634695
-0.00652233
-0.0066669
-0.00678324
-0.00687428
-0.0069431
-0.0069928
-0.00702635
-0.00704655
-0.00705588
-0.00705658
-0.00705052
-0.00703931
-0.00702428
-0.00700647
-0.00698674
-0.00696577
-0.00694405
-0.00692199
-0.00689989
-0.00687797
-0.00685639
-0.00683527
-0.00681472
-0.00679478
-0.0067755
-0.00675693
-0.00673908
-0.00672197
-0.00670561
-0.00669001
-0.00667516
-0.00666108
-0.00664776
-0.0066352
-0.0066234
-0.00661235
-0.00660206
-0.00659252
-0.00658372
-0.00657567
-0.00656837
-0.0065618
-0.00655597
-0.00655088
-0.00654652
-0.0065429
-0.00654
-0.00653783
-0.00653638
-0.00653566
-0.00671702
-0.00670056
-0.00668487
-0.00666995
-0.00665581
-0.00664243
-0.00662982
-0.00661797
-0.00660689
-0.00659657
-0.006587
-0.00657818
-0.00657011
-0.00656278
-0.0065562
-0.00655036
-0.00654526
-0.00654089
-0.00653726
-0.00653436
-0.00653219
-0.00653074
-0.00653002
-0.0034211
-0.000233154
-0.00382041
-0.00421773
-0.00460357
-0.00496982
-0.00531008
-0.00561986
-0.00589644
-0.00613874
-0.00634695
-0.00652233
-0.0066669
-0.00678324
-0.00687428
-0.0069431
-0.0069928
-0.00702635
-0.00704655
-0.00705589
-0.00705658
-0.00705052
-0.00703932
-0.00702428
-0.00700647
-0.00698675
-0.00696577
-0.00694405
-0.006922
-0.00689989
-0.00687797
-0.00685639
-0.00683528
-0.00681472
-0.00679478
-0.0067755
-0.00675693
-0.000125589
-0.00673908
-0.000989341
-0.000950861
-0.000227956
-0.000909018
-0.000864753
-0.000818713
-0.000214409
-0.000766894
-0.000717442
-0.000196448
-0.000661017
-0.000609985
-0.000559115
-0.000165771
-0.000500461
-0.000450473
-0.000401568
-0.000353979
-0.000121013
-0.000299222
-0.000254998
-0.000212761
-0.000172691
-7.72093e-05
-0.000127368
-9.23969e-05
-6.0084e-05
-3.05688e-05
-3.9812e-06
1.95604e-05
-2.96401e-05
4.52484e-05
6.21946e-05
7.58475e-05
8.61436e-05
9.30349e-05
9.64887e-05
)
;
    }
    procBoundary20to21
    {
        type            processor;
        value           nonuniform List<scalar> 
197
(
-6.35421e-05
-5.99427e-05
-5.2763e-05
2.75084e-05
-3.28203e-05
-1.85708e-05
-9.03148e-07
2.0088e-05
4.42916e-05
7.15795e-05
0.000101809
0.000134821
0.000109337
0.00018037
0.000218351
0.000258528
0.000300686
0.000344597
0.000165217
0.000399245
0.000445565
0.000492818
0.000198494
0.000548591
0.000596248
0.000643897
0.000226227
0.000696975
0.000742845
0.000787701
0.000246426
0.000834352
0.00087528
0.000256946
0.000915533
0.000951222
0.000984424
0.000263458
0.00340223
0.00377116
0.00413974
0.00450061
0.00484707
0.00517337
0.00547501
0.0057488
0.00599287
0.00620657
0.00639028
0.0065452
0.00667319
0.00677654
0.00685781
0.00691966
0.00696477
0.0069957
0.00701481
0.00702425
0.00702593
0.00702149
0.0070123
0.00699953
0.00698412
0.00696684
0.00694828
0.00692892
0.00690913
0.0068892
0.00686935
0.00684973
0.00683049
0.00681169
0.00679343
0.00677575
0.00675869
0.00674228
0.00672654
0.00671149
0.00669714
0.00668349
0.00667056
0.00665835
0.00664685
0.00663608
0.00662603
0.0066167
0.00660809
0.00660021
0.00659304
0.0065866
0.00658088
0.00657588
0.00657159
0.00656802
0.00656517
0.00656304
0.00656161
0.0065609
0.00656698
0.0065634
0.00656054
0.00655839
0.00655696
0.00655625
0.00340223
0.000263455
0.00377116
0.00413975
0.00450061
0.00484707
0.00517337
0.00547501
0.0057488
0.00599287
0.00620658
0.00639028
0.00654521
0.0066732
0.00677654
0.00685781
0.00691967
0.00696478
0.0069957
0.00701481
0.00702425
0.00702594
0.00702149
0.0070123
0.00699953
0.00698413
0.00696684
0.00694828
0.00692892
0.00690913
0.0068892
0.00686935
0.00684974
0.00683049
0.0068117
0.00679343
0.00677575
0.00675869
0.00674228
0.00672654
0.00671149
0.00669714
0.00668349
0.00667056
0.00665835
0.00664685
0.00663608
0.00662603
0.0066167
0.00660809
0.00660021
0.00659304
0.0065866
0.00658088
2.78147e-05
0.00657588
0.000984425
0.000951223
0.000915535
0.000256942
0.000875281
0.000834353
0.000246423
0.000787702
0.000742846
0.000696976
0.000226223
0.000643898
0.000596249
0.000548592
0.000198491
0.000492819
0.000445566
0.000399246
0.000165214
0.000344598
0.000300687
0.000258529
0.000218352
0.000180371
0.000109333
0.000134822
0.000101809
7.158e-05
4.42919e-05
2.00884e-05
-9.02845e-07
-1.85706e-05
-3.28201e-05
2.75044e-05
-5.27629e-05
-5.99426e-05
-6.35421e-05
)
;
    }
}


// ************************************************************************* //
