/*--------------------------------*- C++ -*----------------------------------*\
  =========                 |
  \\      /  F ield         | OpenFOAM: The Open Source CFD Toolbox
   \\    /   O peration     | Website:  https://openfoam.org
    \\  /    A nd           | Version:  7
     \\/     M anipulation  |
\*---------------------------------------------------------------------------*/
FoamFile
{
    version     2.0;
    format      ascii;
    class       volVectorField;
    location    "20";
    object      U;
}
// * * * * * * * * * * * * * * * * * * * * * * * * * * * * * * * * * * * * * //

dimensions      [0 1 -1 0 0 0 0];

internalField   nonuniform List<vector> 
183
(
(0.779662 -0.00108546 1.13426e-23)
(0.798232 -0.00092305 4.96882e-24)
(0.782439 -0.00297294 -3.22318e-23)
(0.800718 -0.00255403 2.90878e-23)
(0.787805 -0.00481694 1.79587e-23)
(0.805531 -0.00414773 1.15136e-23)
(0.795579 -0.00659181 1.07598e-22)
(0.812513 -0.00568199 -1.85e-23)
(0.805503 -0.00827513 2.36165e-23)
(0.821443 -0.00713735 -2.18361e-23)
(0.817258 -0.00984863 -1.20609e-22)
(0.832045 -0.00849782 7.32452e-23)
(0.830485 -0.0112987 -4.12818e-23)
(0.844006 -0.00975141 -1.36837e-23)
(0.85274 -0.00906416 -1.05922e-22)
(0.844801 -0.0126168 2.31969e-22)
(0.856991 -0.0108903 -1.6436e-22)
(0.864769 -0.0101277 -6.37283e-23)
(0.859819 -0.0137988 -1.38532e-22)
(0.870659 -0.0119107 -1.70375e-23)
(0.877471 -0.0110813 1.50136e-22)
(0.875168 -0.0148454 8.00269e-23)
(0.884676 -0.0128128 1.21914e-22)
(0.890544 -0.0119244 -1.57415e-22)
(0.890504 -0.0157606 -1.08588e-22)
(0.898735 -0.0136 2.08784e-23)
(0.903704 -0.0126594 -5.63839e-23)
(0.905526 -0.0165516 1.17892e-22)
(0.912556 -0.0142783 -6.24239e-23)
(0.916694 -0.0132915 -1.01822e-23)
(0.919979 -0.0172278 2.07281e-23)
(0.925905 -0.0148558 2.65357e-23)
(0.929291 -0.0138275 2.38315e-22)
(0.938588 -0.0153418 -1.29997e-22)
(0.94131 -0.0142758 3.23067e-23)
(0.950457 -0.0157465 7.68996e-23)
(0.952605 -0.0146457 -9.72795e-23)
(0.961409 -0.0160799 -4.50884e-23)
(0.963072 -0.0149467 -9.24313e-23)
(0.971381 -0.0163525 2.70481e-22)
(0.972642 -0.0151884 -4.99207e-23)
(0.980346 -0.0165737 -1.26739e-22)
(0.981282 -0.0153799 7.60571e-23)
(0.98831 -0.0167499 7.09172e-23)
(0.988987 -0.0155283 9.20444e-23)
(0.995301 -0.0168834 -3.90898e-23)
(0.995778 -0.0156372 -4.35757e-23)
(1.00137 -0.0169941 1.30835e-22)
(1.00169 -0.0157205 8.15211e-23)
(1.01714 -0.017377 0)
(1.01712 -0.0159713 0)
(1.02727 -0.0169599 0)
(1.0271 -0.0154487 0)
(1.02989 -0.0167704 0)
(1.02967 -0.0151567 0)
(1.0301 -0.0164197 0)
(1.02972 -0.0147512 0)
(1.02955 -0.0159007 0)
(1.02899 -0.0142342 0)
(1.02875 -0.015337 0)
(1.02802 -0.013688 0)
(1.02788 -0.0146465 0)
(1.02698 -0.0130538 0)
(1.02698 -0.0138887 0)
(1.02592 -0.0123698 0)
(1.02606 -0.0130634 0)
(1.02487 -0.0116291 0)
(1.02508 -0.01218 0)
(1.02377 -0.0108369 0)
(1.02402 -0.0112534 0)
(1.02262 -0.0100056 0)
(1.02292 -0.0102906 0)
(1.02143 -0.00914344 0)
(1.02185 -0.00929473 0)
(1.02028 -0.00825497 0)
(1.02087 -0.00826741 0)
(1.01923 -0.00734108 0)
(1.02 -0.0072117 0)
(1.0183 -0.00640268 0)
(1.01923 -0.00613329 0)
(1.01747 -0.00544373 0)
(1.01854 -0.00503946 0)
(1.01676 -0.00447082 0)
(1.01798 -0.00393465 0)
(1.01616 -0.00348874 0)
(1.01755 -0.00282004 0)
(1.01571 -0.00249906 0)
(1.01726 -0.0016965 0)
(1.0154 -0.0015025 0)
(1.01712 -0.000566261 0)
(1.01525 -0.000501265 0)
(1.01688 0.0173444 0)
(1.02721 0.0169381 0)
(1.02994 0.0167558 0)
(1.0302 0.0164123 0)
(1.02967 0.015894 0)
(1.02886 0.0153253 0)
(1.02792 0.0146274 0)
(1.0269 0.0138634 0)
(1.02583 0.0130339 0)
(1.02474 0.0121471 0)
(1.02368 0.0112149 0)
(1.02268 0.0102433 0)
(1.02174 0.00923932 0)
(1.02086 0.0082101 0)
(1.02002 0.00716247 0)
(1.01924 0.00609995 0)
(1.01856 0.00502289 0)
(1.01802 0.00392882 0)
(1.01761 0.00281782 0)
(1.01733 0.00169458 0)
(1.01718 0.000565417 0)
(1.01689 0.0159443 0)
(1.02707 0.0154332 0)
(1.02973 0.0151522 0)
(1.02982 0.0147561 0)
(1.0291 0.014241 0)
(1.02811 0.0136892 0)
(1.027 0.0130463 0)
(1.02584 0.0123565 0)
(1.02464 0.0116175 0)
(1.02344 0.0108343 0)
(1.02228 0.0100131 0)
(1.02118 0.00915572 0)
(1.02017 0.00826515 0)
(1.01923 0.00734674 0)
(1.01833 0.00640767 0)
(1.01751 0.00545383 0)
(1.01679 0.00448782 0)
(1.0162 0.00350834 0)
(1.01577 0.00251511 0)
(1.01547 0.00151179 0)
(1.01531 0.00050419 0)
(1.00093 0.0169531 -1.63843e-22)
(1.0013 0.0156828 -5.29793e-23)
(0.994802 0.0168387 7.83031e-23)
(0.995326 0.0155952 -6.08391e-23)
(0.987745 0.0167007 -1.25459e-22)
(0.988476 0.0154814 -3.07143e-23)
(0.979715 0.0165193 -1.21088e-23)
(0.98071 0.0153277 2.4436e-23)
(0.970683 0.0162921 1.27978e-22)
(0.972011 0.0151301 -4.67725e-23)
(0.960647 0.0160126 -3.78005e-22)
(0.962383 0.0148817 1.49055e-22)
(0.949636 0.0156713 2.09794e-23)
(0.951865 0.0145733 1.17355e-22)
(0.932687 0.0176812 -2.10069e-22)
(0.937716 0.0152579 1.59008e-22)
(0.940524 0.0141954 -1.51856e-22)
(0.918955 0.0170981 1.7139e-22)
(0.924991 0.0147622 6.83988e-23)
(0.928469 0.0137383 8.01055e-23)
(0.904464 0.0164095 -3.07095e-22)
(0.911613 0.0141742 3.10036e-24)
(0.915848 0.0131931 -2.01405e-22)
(0.889421 0.0156049 -5.17552e-23)
(0.897776 0.0134849 -1.29239e-22)
(0.902846 0.0125515 1.47121e-23)
(0.874083 0.0146754 1.98063e-22)
(0.88372 0.0126862 1.21437e-22)
(0.88969 0.0118066 -3.52081e-23)
(0.858755 0.013614 -1.11982e-22)
(0.869724 0.0117723 -7.47163e-25)
(0.876638 0.0109535 9.73081e-23)
(0.843781 0.0124171 9.9783e-24)
(0.856099 0.0107403 1.13995e-22)
(0.863975 0.00999014 -1.02479e-22)
(0.829535 0.0110845 1.32886e-23)
(0.843177 0.00959019 -1.21849e-22)
(0.852004 0.00891724 2.07151e-22)
(0.816402 0.00962075 -1.76746e-22)
(0.8313 0.00832614 8.65857e-23)
(0.804765 0.00803492 7.17952e-23)
(0.820802 0.00695629 -6.44898e-23)
(0.79498 0.00634108 -5.15377e-23)
(0.811994 0.00549298 7.70014e-24)
(0.787364 0.00455791 4.98502e-23)
(0.805149 0.00395248 4.57429e-23)
(0.782168 0.00270817 -2.36163e-23)
(0.800484 0.00235447 -1.01129e-23)
(0.779571 0.00081775 1.54237e-23)
(0.798153 0.000721295 7.06716e-24)
)
;

boundaryField
{
    inlet
    {
        type            uniformFixedValue;
        uniformValue    constant (1 0 0);
        value           nonuniform 0();
    }
    outlet
    {
        type            pressureInletOutletVelocity;
        value           nonuniform 0();
    }
    cylinder
    {
        type            fixedValue;
        value           nonuniform 0();
    }
    top
    {
        type            symmetryPlane;
    }
    bottom
    {
        type            symmetryPlane;
    }
    defaultFaces
    {
        type            empty;
    }
    procBoundary43to42
    {
        type            processor;
        value           nonuniform List<vector> 
86
(
(0.762461 -0.00123886 -1.87111e-23)
(0.765529 -0.00330888 2.94352e-23)
(0.771448 -0.00532955 9.23104e-23)
(0.780007 -0.00727211 -9.83647e-23)
(0.790911 -0.00911164 1.97434e-22)
(0.803797 -0.0108282 -1.65499e-22)
(0.818256 -0.0124071 -1.73299e-23)
(0.833858 -0.0138398 3.51802e-23)
(0.850169 -0.0151227 1.59498e-22)
(0.86678 -0.0162575 3.42924e-23)
(0.883314 -0.0172498 -4.43455e-23)
(0.899447 -0.0181084 1.88323e-22)
(0.914907 -0.0188443 2.41872e-22)
(0.93366 -0.0177997 -6.16577e-25)
(0.93366 -0.0177997 -6.16577e-25)
(0.946417 -0.0182788 -5.74543e-22)
(0.958148 -0.0186764 5.36787e-22)
(0.968797 -0.0190041 -5.76211e-24)
(0.978345 -0.0192724 1.92791e-23)
(0.986805 -0.0194881 2.82348e-22)
(0.994217 -0.0196529 -3.834e-23)
(1.00064 -0.019791 1.05665e-22)
(1.01731 -0.0202684 0)
(1.0281 -0.019638 0)
(1.03101 -0.019342 0)
(1.03149 -0.0188944 0)
(1.03117 -0.0182558 0)
(1.03058 -0.0176004 0)
(1.02987 -0.0167972 0)
(1.02911 -0.0159227 0)
(1.0283 -0.0149772 0)
(1.02741 -0.0139689 0)
(1.02642 -0.0129122 0)
(1.02538 -0.0118122 0)
(1.02436 -0.0106708 0)
(1.02343 -0.00949151 0)
(1.02261 -0.0082801 0)
(1.02187 -0.0070438 0)
(1.02121 -0.00578993 0)
(1.02066 -0.0045222 0)
(1.02025 -0.00324168 0)
(1.01998 -0.00194988 0)
(1.01984 -0.000650617 0)
(1.01703 0.0201927 0)
(1.02804 0.0195665 0)
(1.03105 0.019267 0)
(1.03159 0.0188198 0)
(1.03129 0.0181809 0)
(1.03069 0.0175246 0)
(1.02992 0.016721 0)
(1.02905 0.0158444 0)
(1.02809 0.0148913 0)
(1.0271 0.0138691 0)
(1.02611 0.0127934 0)
(1.02516 0.011675 0)
(1.02427 0.0105242 0)
(1.02342 0.00934962 0)
(1.0226 0.00815736 0)
(1.02183 0.0069485 0)
(1.02118 0.0057219 0)
(1.02067 0.00447499 0)
(1.0203 0.00320886 0)
(1.02004 0.00192916 0)
(1.01989 0.000643481 0)
(1.00016 0.0197125 -1.31119e-22)
(0.993673 0.0195723 -9.85743e-23)
(0.986188 0.0194045 -1.42395e-22)
(0.977653 0.0191845 1.3107e-22)
(0.968029 0.0189106 -4.31116e-22)
(0.957307 0.0185761 1.45581e-22)
(0.945506 0.0181701 -4.18069e-23)
(0.945506 0.0181701 -4.18069e-23)
(0.928387 0.019269 -1.8907e-22)
(0.913743 0.0186309 2.7865e-22)
(0.898232 0.0178805 -1.54534e-22)
(0.882068 0.0170056 -5.46629e-22)
(0.865525 0.0159956 1.88061e-22)
(0.848932 0.0148422 1.36056e-22)
(0.832667 0.0135402 7.13177e-23)
(0.817143 0.0120887 -2.55443e-22)
(0.80279 0.0104917 -3.10317e-22)
(0.790041 0.0087589 2.06424e-22)
(0.779299 0.00690532 -1.36932e-22)
(0.770925 0.00495164 6.8392e-23)
(0.765209 0.00292324 -4.90344e-23)
(0.762353 0.000849248 -1.17798e-23)
)
;
    }
    procBoundary43to44
    {
        type            processor;
        value           nonuniform List<vector> 
86
(
(0.810616 -0.000852978 1.26968e-23)
(0.812892 -0.00236674 6.58644e-24)
(0.817303 -0.00384678 1.04905e-24)
(0.823712 -0.00527289 3.70044e-23)
(0.831922 -0.00662717 -1.40177e-23)
(0.841691 -0.00789473 -1.32675e-22)
(0.841691 -0.00789473 -1.32675e-22)
(0.864917 -0.00781068 -1.0464e-22)
(0.875782 -0.00872175 -2.68584e-23)
(0.88729 -0.00953657 5.54821e-23)
(0.899173 -0.0102544 3.45365e-24)
(0.911178 -0.0108772 -5.70174e-23)
(0.923071 -0.0114093 1.28681e-22)
(0.934647 -0.0118568 -1.63173e-23)
(0.945733 -0.0122272 2.52517e-23)
(0.956192 -0.0125287 -5.68357e-23)
(0.96592 -0.01277 -1.67447e-23)
(0.974846 -0.0129599 -7.55174e-23)
(0.982931 -0.0131068 1.03785e-22)
(0.990165 -0.0132173 8.84845e-23)
(0.996557 -0.0132954 -3.93214e-23)
(1.00214 -0.0133542 1.54244e-22)
(1.01672 -0.0135475 0)
(1.02615 -0.0132612 0)
(1.02846 -0.0131344 0)
(1.0283 -0.0128964 0)
(1.02741 -0.0125506 0)
(1.02632 -0.0121528 0)
(1.02518 -0.0116676 0)
(1.02403 -0.0111232 0)
(1.02289 -0.0105128 0)
(1.02174 -0.00984056 0)
(1.02054 -0.0091185 0)
(1.01932 -0.00835734 0)
(1.01814 -0.0075645 0)
(1.01706 -0.00674253 0)
(1.0161 -0.00589251 0)
(1.01526 -0.00501813 0)
(1.01454 -0.00412604 0)
(1.01393 -0.003222 0)
(1.01348 -0.00230901 0)
(1.01317 -0.00138892 0)
(1.01301 -0.000463635 0)
(1.01652 0.013507 0)
(1.02614 0.0132303 0)
(1.02854 0.0131125 0)
(1.02842 0.0128817 0)
(1.02752 0.0125374 0)
(1.02639 0.0121352 0)
(1.02519 0.0116433 0)
(1.02395 0.0110965 0)
(1.02269 0.0104938 0)
(1.02144 0.00984034 0)
(1.02022 0.0091409 0)
(1.01908 0.00839626 0)
(1.01803 0.00760857 0)
(1.01705 0.00678285 0)
(1.01614 0.00592739 0)
(1.0153 0.00505071 0)
(1.01457 0.00415843 0)
(1.01397 0.00325182 0)
(1.01352 0.00233189 0)
(1.01321 0.0014024 0)
(1.01305 0.000467988 0)
(1.00179 0.0133025 -1.68382e-22)
(0.996149 0.0132393 6.67519e-24)
(0.989701 0.0131562 -7.8287e-23)
(0.982412 0.0130402 -9.68947e-23)
(0.974273 0.0128872 -6.71246e-23)
(0.965296 0.0126906 1.64662e-22)
(0.955522 0.012442 -5.54309e-23)
(0.945024 0.0121326 1.2328e-22)
(0.933906 0.0117539 1.40881e-23)
(0.922309 0.0112975 3.24731e-23)
(0.910408 0.0107563 -1.20405e-22)
(0.898409 0.0101241 -4.99313e-23)
(0.886546 0.00939698 -4.93398e-24)
(0.875075 0.00857306 4.83858e-23)
(0.864263 0.00765335 -4.32598e-23)
(0.841031 0.00773916 1.17388e-22)
(0.841031 0.00773916 1.17388e-22)
(0.831355 0.00646389 -4.73055e-23)
(0.823253 0.00510309 -3.03637e-23)
(0.816966 0.00367189 2.04445e-23)
(0.812685 0.00218834 -2.00595e-23)
(0.810546 0.000672794 5.2699e-24)
)
;
    }
}


// ************************************************************************* //
