/*--------------------------------*- C++ -*----------------------------------*\
  =========                 |
  \\      /  F ield         | OpenFOAM: The Open Source CFD Toolbox
   \\    /   O peration     | Website:  https://openfoam.org
    \\  /    A nd           | Version:  7
     \\/     M anipulation  |
\*---------------------------------------------------------------------------*/
FoamFile
{
    version     2.0;
    format      ascii;
    class       surfaceScalarField;
    location    "35";
    object      phi;
}
// * * * * * * * * * * * * * * * * * * * * * * * * * * * * * * * * * * * * * //

dimensions      [0 3 -1 0 0 0 0];

internalField   nonuniform List<scalar> 
266
(
0.000595717
-0.00458722
0.000580298
-0.00471374
0.000563417
-0.00484831
0.000545195
-0.00499128
0.000525712
-0.00514244
0.000504979
-0.00530085
0.000482939
0.000543241
-0.00388277
0.0005437
-0.00401365
0.000536099
-0.00412605
0.000523268
-0.00423192
0.000506963
-0.00433834
0.000488144
-0.00444916
0.000467289
-0.00456637
0.00044463
0.000420286
0.000394327
0.000366797
0.000348917
-0.00284709
0.000406737
-0.00323808
0.000442969
-0.00352572
0.000459925
-0.00373259
0.000461882
-0.00388472
0.000453273
-0.00400504
0.000437672
-0.00411045
0.000417494
0.000394152
0.000368369
2.77184e-05
-0.000388504
9.10626e-05
-0.00112447
0.000171015
-0.00181645
0.000249883
-0.00242174
0.000314799
-0.002912
0.000359378
-0.00328266
0.000382993
-0.00354934
0.000388673
-0.00373827
0.000380855
0.000363747
2.67413e-05
-0.000415245
8.6029e-05
-0.00118376
0.000158309
-0.00188873
0.000226433
-0.00248986
0.000278862
-0.00296443
0.000310688
0.00032239
2.54747e-05
-0.00044072
8.01382e-05
-0.00123842
0.000144235
-0.00195283
0.000201424
2.39373e-05
7.34848e-05
2.39394e-05
0.000441854
7.34386e-05
0.00124116
0.00195653
2.54855e-05
0.000416369
8.01206e-05
0.00118652
0.00014411
0.00189254
0.000201108
0.0024941
0.00296863
2.67607e-05
0.000389608
8.60404e-05
0.00112724
0.000158238
0.00182034
0.000226191
0.00242614
0.000278383
0.00291643
0.000309941
0.0032868
0.000321379
0.00355309
0.00374167
2.77458e-05
9.11028e-05
0.000170999
0.00024972
0.000314413
0.00285174
0.000358729
0.00324249
0.000382077
0.00352974
0.000387513
0.00373623
0.000379485
0.00388807
0.000362202
0.00400822
0.00411357
0.000348632
0.000406195
0.000442158
0.000458863
0.000460605
0.000451818
0.00401701
0.000436071
0.00412932
0.000415771
0.00423518
0.000392325
0.00434165
0.000366452
0.00445256
0.00456988
0.000542339
0.00053459
0.00052164
0.000505237
0.000486339
0.00046542
0.000442713
0.00471742
0.000418339
0.00485211
0.00039237
0.00499519
0.000364851
0.00514646
0.00530497
0.000578502
0.000561601
0.000543379
0.000523922
0.000503244
0.000481299
0.000354105
0.000259963
0.000186156
0.000133647
8.94162e-05
5.85978e-05
3.42317e-05
1.38113e-05
-1.96418e-06
-9.26883e-06
-0.0201553
-1.37544e-05
-0.0200961
-1.79768e-05
-0.0200264
-2.06469e-05
-0.0199665
-2.24413e-05
-0.0199209
-2.15634e-05
-0.0198883
-1.79419e-05
-0.0198721
-1.53708e-05
-0.0198094
-1.29657e-05
-0.0197881
-1.00515e-05
-0.0197587
-3.18004e-06
-0.0197857
-0.0197373
-0.000103661
-9.92538e-05
-9.43352e-05
-8.86408e-05
-8.18552e-05
-7.24411e-05
-6.00424e-05
-4.88886e-05
-3.82194e-05
-2.67829e-05
-1.15773e-05
-4.36284e-05
0.0204172
-6.35751e-05
0.0203486
-8.10731e-05
0.0202645
-9.23088e-05
0.0201985
-9.75366e-05
0.0201656
-0.000102766
0.0200599
-0.000102851
0.0200476
-0.000102268
0.0199677
-9.80215e-05
0.0199518
-8.94988e-05
0.0199248
-7.85839e-05
0.0198966
-6.73221e-05
0.0198571
-5.68695e-05
0.0198145
-4.44736e-05
0.019807
-2.88303e-05
0.0198179
-1.34163e-05
0.0197995
0.0197715
0.000353429
0.000260768
0.000188489
0.000137133
9.59971e-05
6.60377e-05
3.92496e-05
1.90448e-05
4.9282e-06
-9.33535e-06
-1.74117e-05
-2.51736e-05
-2.94485e-05
-2.94355e-05
-2.7507e-05
-2.48347e-05
-2.27718e-05
-1.88033e-05
-1.18692e-05
-5.11519e-06
)
;

boundaryField
{
    inlet
    {
        type            calculated;
        value           nonuniform 0();
    }
    outlet
    {
        type            calculated;
        value           nonuniform 0();
    }
    cylinder
    {
        type            calculated;
        value           uniform 0;
    }
    top
    {
        type            symmetryPlane;
        value           uniform 0;
    }
    bottom
    {
        type            symmetryPlane;
        value           uniform 0;
    }
    defaultFaces
    {
        type            empty;
        value           nonuniform 0();
    }
    procBoundary15to14
    {
        type            processor;
        value           nonuniform List<scalar> 
98
(
-0.00546478
-0.00469108
-0.00482397
-0.00496532
-0.00511491
0.00033774
-0.0052718
-0.00421174
-0.004315
-0.00442338
0.000340476
-0.00453848
-0.00387691
-0.00398794
0.000340534
-0.00408724
-0.00331448
-0.00356104
0.000317532
-0.00373342
-0.00254705
0.00024158
-0.00300459
-0.000464657
-0.00128797
0.00012901
-0.00200835
-0.000465794
-0.00129066
-0.00201192
0.000128833
-0.0025511
-0.00300853
0.000241015
-0.00331836
-0.00356453
-0.00373657
0.000316282
-0.00388004
-0.00399094
-0.00409021
0.000338841
-0.00421488
-0.00431821
-0.00442669
-0.00454191
0.000338483
-0.00469471
-0.00482774
-0.00496922
-0.00511894
-0.00527595
0.000335832
-0.00546899
-0.0208548
-0.0205745
-0.0205522
-0.0204716
-0.0203974
-0.0203615
-0.0202985
-0.0202259
-0.0201752
0.000104545
-0.0201562
-0.0201005
-0.0200313
-0.0199722
-0.0199277
-0.0198977
-0.0198845
-0.0198206
-0.0197988
-0.0197702
-0.0198009
-0.0197488
-0.0203849
-0.0203286
-0.020247
-0.0201872
-0.0201604
-0.0200546
-0.0200475
-0.0199683
-0.0199561
-0.0199333
-0.0199075
-0.0198684
-0.0198249
-0.0198194
-0.0198335
-0.0198149
-0.0197849
-0.0208715
-0.0205902
-0.0205719
1.13427e-05
-0.0204697
)
;
    }
    procBoundary15to16
    {
        type            processor;
        value           nonuniform List<scalar> 
90
(
0.00460099
0.00472916
0.00486519
0.0050095
0.00516192
0.00532159
0.00548682
0.0038703
0.00401319
0.00413365
0.00424475
0.00435465
-0.000609479
0.00446798
0.00276958
0.00318026
0.00348949
-0.000530776
0.00371564
0.000360785
0.00106112
0.0017365
-0.000271411
0.00234287
0.000361862
0.00106389
0.00174044
0.00234742
-0.000271331
0.00277444
0.00318493
0.00349378
0.00371952
0.00388633
-0.000542063
0.00401673
0.00413707
0.00424813
0.00435806
0.00447146
0.0045908
-0.000593959
0.00473288
0.00486901
0.00501341
0.00516592
0.00532565
0.00549094
0.0209837
0.0206687
0.020626
0.0205241
0.0204416
0.0203923
0.0203228
0.0202463
0.0201909
0.0201626
0.0201006
0.0200306
0.0199691
0.0199227
0.0198874
0.0198684
0.0198069
0.0197857
0.0197558
0.0197788
0.0197341
0.0209994
0.0206828
0.0206442
0.0205211
0.0204583
0.0203786
0.0202913
0.0202187
0.0201797
0.0200741
0.0200557
0.0199755
0.0199561
0.0199248
0.0198947
0.0198545
0.0198124
0.019803
0.019811
0.0197928
0.0197664
)
;
    }
}


// ************************************************************************* //
