/*--------------------------------*- C++ -*----------------------------------*\
  =========                 |
  \\      /  F ield         | OpenFOAM: The Open Source CFD Toolbox
   \\    /   O peration     | Website:  https://openfoam.org
    \\  /    A nd           | Version:  7
     \\/     M anipulation  |
\*---------------------------------------------------------------------------*/
FoamFile
{
    version     2.0;
    format      ascii;
    class       surfaceScalarField;
    location    "55";
    object      phi;
}
// * * * * * * * * * * * * * * * * * * * * * * * * * * * * * * * * * * * * * //

dimensions      [0 3 -1 0 0 0 0];

internalField   nonuniform List<scalar> 
17388
(
-3.98596e-06
-1.50774e-05
1.90633e-05
-1.43718e-05
-4.36485e-05
5.40343e-05
-3.01256e-05
-7.06079e-05
8.63617e-05
-5.03513e-05
-9.50527e-05
0.000115278
-7.4252e-05
-0.000116573
0.000140474
-0.000101112
-0.000135263
0.000162123
-0.00013028
-0.000151621
0.000180789
-0.00016115
-0.000166426
0.000197297
-0.00019315
-0.0001806
0.0002126
-0.000225719
-0.000195078
0.000227648
-0.000258302
-0.000210711
0.000243293
-0.000290333
-0.000228201
0.000260232
-0.000321244
-0.000248078
0.000278989
-0.000350482
-0.000270693
0.00029993
-0.000377552
-0.000296219
0.000323289
-0.0004021
-0.000324654
0.000349202
-0.00042402
-0.000355818
0.000377738
-0.000443598
-0.000389355
0.000408934
-0.000461645
-0.000424755
0.000442801
-0.000479588
-0.000461331
0.000479274
-0.000498269
0.000518294
-0.000499613
-4.22217e-06
-1.08552e-05
-1.51786e-05
-3.2692e-05
-3.17414e-05
-5.40451e-05
-5.29384e-05
-7.38557e-05
-7.79168e-05
-9.15949e-05
-0.000105925
-0.000107255
-0.000136295
-0.000121251
-0.000168421
-0.000134301
-0.000201741
-0.00014728
-0.000235717
-0.000161102
-0.000269816
-0.000176611
-0.0003035
-0.000194517
-0.000336217
-0.00021536
-0.000367425
-0.000239485
-0.000396629
-0.000267015
-0.000423459
-0.000297824
-0.000447793
-0.000331484
-0.000469908
-0.000367241
-0.000490627
-0.000404036
-0.000511428
-0.000440529
-0.000475147
-0.00053455
-4.38686e-06
-6.46835e-06
-1.57378e-05
-2.13411e-05
-3.28515e-05
-3.69314e-05
-5.46958e-05
-5.20114e-05
-8.03732e-05
-6.59174e-05
-0.000109104
-7.85234e-05
-0.000140209
-9.0147e-05
-0.000173083
-0.000101426
-0.000207181
-0.000113183
-0.000241986
-0.000126297
-0.000276989
-0.000141607
-0.000311672
-0.000159834
-0.000345491
-0.000181541
-0.000377888
-0.000207088
-0.00040832
-0.000236584
-0.00043633
-0.000269814
-0.000461669
-0.000306145
-0.000484469
-0.000344441
-0.000505437
-0.000383068
-0.000526011
-0.000419955
-0.00045264
-0.000548519
-4.47534e-06
-1.99301e-06
-1.60344e-05
-9.78201e-06
-3.34274e-05
-1.95384e-05
-5.55793e-05
-2.98595e-05
-8.1559e-05
-3.99377e-05
-0.000110566
-4.95166e-05
-0.000141911
-5.8802e-05
-0.000174996
-6.83411e-05
-0.000209288
-7.88903e-05
-0.000244294
-9.12917e-05
-0.000279528
-0.000106373
-0.000314487
-0.000124875
-0.000348629
-0.0001474
-0.000381362
-0.000174355
-0.000412063
-0.000205884
-0.000440124
-0.000241752
-0.000465074
-0.000281195
-0.000486761
-0.000322753
-0.00050562
-0.000364209
-0.000522929
-0.000402646
-0.000434456
-0.000541112
-4.48525e-06
2.49224e-06
-1.60609e-05
1.7936e-06
-3.34538e-05
-2.14541e-06
-5.5563e-05
-7.75034e-06
-8.14343e-05
-1.40665e-05
-0.00011025
-2.07004e-05
-0.000141316
-2.77368e-05
-0.000174035
-3.5622e-05
-0.000207887
-4.5038e-05
-0.000242397
-5.67816e-05
-0.000277101
-7.16695e-05
-0.000311509
-9.04668e-05
-0.000345077
-0.000113832
-0.000377176
-0.000142256
-0.000407084
-0.000175975
-0.000434011
-0.000214825
-0.000457184
-0.000258023
-0.000476045
-0.000303892
-0.000490582
-0.000349672
-0.000501721
-0.000391507
-0.000424263
-0.000511914
-4.41669e-06
6.90893e-06
-1.58168e-05
1.31937e-05
-3.29287e-05
1.49664e-05
-5.46403e-05
1.39613e-05
-7.99828e-05
1.1276e-05
-0.000108125
7.442e-06
-0.000138362
2.50023e-06
-0.000170097
-3.88744e-06
-0.000202813
-1.2322e-05
-0.000236045
-2.35493e-05
-0.000269343
-3.83718e-05
-0.000302228
-5.75814e-05
-0.000334154
-8.19062e-05
-0.000364457
-0.000111952
-0.000392327
-0.000148106
-0.000416782
-0.00019037
-0.00043672
-0.000238085
-0.000451084
-0.000289528
-0.000459244
-0.000341513
-0.000461514
-0.000389237
-0.000425638
-0.000460139
-4.27234e-06
1.11813e-05
-1.53099e-05
2.42313e-05
-3.1864e-05
3.15205e-05
-5.28247e-05
3.4922e-05
-7.72136e-05
3.56649e-05
-0.000104185
3.44138e-05
-0.000133021
3.13354e-05
-0.000163108
2.61999e-05
-0.000193923
1.84934e-05
-0.000224997
7.52444e-06
-0.000255877
-7.49152e-06
-0.000286086
-2.73728e-05
-0.000315069
-5.2923e-05
-0.000342139
-8.48817e-05
-0.000366414
-0.000123831
-0.000386758
-0.000170026
-0.000401762
-0.000223081
-0.00040985
-0.000281439
-0.000409656
-0.000341706
-0.000400602
-0.000398291
-0.000441998
-0.000384242
-4.05741e-06
1.52387e-05
-1.45554e-05
3.47293e-05
-3.02859e-05
4.7251e-05
-5.01504e-05
5.47865e-05
-7.31632e-05
5.86777e-05
-9.84603e-05
5.97109e-05
-0.000125296
5.81717e-05
-0.000153033
5.39361e-05
-0.000181115
4.65759e-05
-0.000209046
3.54556e-05
-0.000236348
1.98102e-05
-0.000262517
-1.20438e-06
-0.000286977
-2.84624e-05
-0.000309014
-6.28445e-05
-0.000327698
-0.000105148
-0.000341793
-0.000155931
-0.000349671
-0.000215203
-0.000349321
-0.000281789
-0.000338662
-0.000352365
-0.000316113
-0.00042084
-0.000476523
-0.000281588
-3.77962e-06
1.90183e-05
-1.35763e-05
4.4526e-05
-2.82346e-05
6.19093e-05
-4.6672e-05
7.32239e-05
-6.78943e-05
7.99001e-05
-9.10107e-05
8.28274e-05
-0.000115236
8.2397e-05
-0.000139882
7.8582e-05
-0.000164338
7.10318e-05
-0.000188044
5.91618e-05
-0.000210458
4.22237e-05
-0.000231013
1.93515e-05
-0.00024907
-1.04062e-05
-0.000263864
-4.80498e-05
-0.000274419
-9.45928e-05
-0.000279447
-0.000150904
-0.000277219
-0.000217431
-0.000265462
-0.000293547
-0.000241556
-0.000376271
-0.000203448
-0.000458949
-0.000531485
-0.000148486
-3.44891e-06
2.24672e-05
-1.24021e-05
5.34792e-05
-2.57621e-05
7.52692e-05
-4.24625e-05
8.99244e-05
-6.1495e-05
9.89326e-05
-8.19305e-05
0.000103263
-0.000102926
0.000103392
-0.000123717
9.93731e-05
-0.000143603
9.0918e-05
-0.000161921
7.74797e-05
-0.000178013
5.83155e-05
-0.000191192
3.25308e-05
-0.000200691
-9.07613e-07
-0.000205645
-4.30958e-05
-0.000204983
-9.52544e-05
-0.000197368
-0.000158518
-0.000181047
-0.000233751
-0.000153639
-0.000320955
-0.00011195
-0.000417959
-5.27327e-05
-0.000518166
-0.000602162
1.79448e-05
-3.07696e-06
2.55442e-05
-1.10676e-05
6.14698e-05
-2.29303e-05
8.71319e-05
-3.76095e-05
0.000104604
-5.40733e-05
0.000115396
-7.13395e-05
0.000120529
-8.84853e-05
0.000120538
-0.000104643
0.000115531
-0.000118983
0.000105258
-0.000130691
8.91876e-05
-0.000138935
6.65599e-05
-0.000142837
3.64322e-05
-0.000141439
-2.30575e-06
-0.000133662
-5.08725e-05
-0.000118279
-0.000110637
-9.38421e-05
-0.000182955
-5.85681e-05
-0.000269025
-1.01023e-05
-0.000369421
5.48959e-05
-0.000482957
0.000140322
-0.000603593
-0.000712571
0.000250731
-2.67648e-06
2.82206e-05
-9.61068e-06
6.8404e-05
-1.98067e-05
9.73279e-05
-3.22091e-05
0.000117006
-4.57489e-05
0.000128936
-5.93733e-05
0.000134153
-7.20565e-05
0.000133221
-8.27955e-05
0.00012627
-9.05933e-05
0.000113056
-9.44341e-05
9.30283e-05
-9.32536e-05
6.53794e-05
-8.59095e-05
2.90882e-05
-7.11646e-05
-1.70507e-05
-4.76485e-05
-7.43885e-05
-1.387e-05
-0.000144416
3.18212e-05
-0.000228647
9.12756e-05
-0.00032848
0.000166753
-0.000444899
0.000261224
-0.000577428
0.000378594
-0.000720963
-0.000861727
0.00052775
-2.26042e-06
3.04811e-05
-8.06972e-06
7.42133e-05
-1.64596e-05
0.000105718
-2.63581e-05
0.000126905
-3.66422e-05
0.00013922
-4.6168e-05
0.000143679
-5.37813e-05
0.000140834
-5.8312e-05
0.0001308
-5.85562e-05
0.0001133
-5.32496e-05
8.77218e-05
-4.10398e-05
5.31696e-05
-2.04603e-05
8.50864e-06
1.00825e-05
-4.75935e-05
5.23281e-05
-0.000116634
0.00010811
-0.000200198
0.000179345
-0.000299882
0.000267994
-0.000417128
0.000376111
-0.000553017
0.000506229
-0.000707545
0.000661353
-0.000876088
-0.00105258
0.000852202
-1.84102e-06
3.23221e-05
-6.48061e-06
7.88529e-05
-1.29519e-05
0.000112189
-2.01448e-05
0.000134097
-2.68604e-05
0.000145936
-3.1841e-05
0.00014866
-3.37766e-05
0.00014277
-3.12978e-05
0.000128322
-2.29556e-05
0.000104958
-7.19501e-06
7.19612e-05
1.76721e-05
2.83025e-05
5.34846e-05
-2.73038e-05
0.000102238
-9.63474e-05
0.000166061
-0.000180457
0.000247169
-0.000281306
0.000347767
-0.00040048
0.000469927
-0.000539287
0.000615453
-0.000698543
0.000786229
-0.000878321
0.000983586
-0.00107344
-0.001288
0.00121901
-1.42877e-06
3.37509e-05
-4.87342e-06
8.22976e-05
-9.33514e-06
0.000116651
-1.36384e-05
0.000138401
-1.64829e-05
0.00014878
-1.64705e-05
0.000148647
-1.21066e-05
0.000138406
-1.78932e-06
0.000118004
1.62116e-05
8.69572e-05
4.37789e-05
4.43938e-05
8.29687e-05
-1.08872e-05
0.000136017
-8.03521e-05
0.000205324
-0.000165654
0.000293401
-0.000268534
0.000402777
-0.000390681
0.000535851
-0.000533554
0.00069469
-0.000698126
0.00088074
-0.000884593
0.00109496
-0.00109254
0.00133691
-0.00131539
-0.00156824
0.00161715
-1.03139e-06
3.47823e-05
-3.26923e-06
8.45354e-05
-5.64274e-06
0.000119024
-6.87981e-06
0.000139638
-5.54605e-06
0.000147447
-7.58013e-08
0.000143177
1.12434e-05
0.000127087
3.02792e-05
9.89687e-05
5.90753e-05
5.81611e-05
9.98712e-05
3.598e-06
0.000155108
-6.61239e-05
0.000227413
-0.000152657
0.00031955
-0.000257791
0.00043432
-0.000383304
0.000574406
-0.000530768
0.000742163
-0.000701311
0.000939355
-0.000895318
0.00116683
-0.00111206
0.00142415
-0.00134987
0.0017095
-0.00160075
-0.00188904
0.0020303
-6.52887e-07
3.54351e-05
-1.67729e-06
8.55598e-05
-1.88357e-06
0.000119231
1.37142e-07
0.000137617
5.96965e-06
0.000141614
1.73995e-05
0.000131747
3.63864e-05
0.0001081
6.50956e-05
7.02595e-05
0.000105913
1.73438e-05
0.000161449
-5.19379e-05
0.000234521
-0.000139196
0.000328101
-0.000246237
0.000445209
-0.0003749
0.00058875
-0.000526844
0.000761281
-0.000703299
0.000964726
-0.000904756
0.00120006
-0.00113065
0.0014671
-0.00137911
0.00176348
-0.00164625
0.00208664
-0.00192391
-0.00224049
0.0024381
-2.92777e-07
3.57279e-05
-8.83121e-08
8.53553e-05
1.9573e-06
0.000117185
7.43433e-06
0.00013214
1.81442e-05
0.000130904
3.60979e-05
0.000113793
6.35445e-05
8.06535e-05
0.000102979
3.08254e-05
0.000157145
-3.68222e-05
0.000229017
-0.000123811
0.000321743
-0.000231922
0.000438528
-0.000363022
0.000582453
-0.000518825
0.000756228
-0.000700619
0.000961868
-0.000908938
0.00120034
-0.00114323
0.00147124
-0.00140155
0.00177273
-0.0016806
0.00210024
-0.00197376
0.00245092
-0.00227459
-0.00260737
0.0028178
5.31056e-08
3.56748e-05
1.50657e-06
8.39019e-05
5.92985e-06
0.000112762
1.51244e-05
0.000122946
3.11335e-05
0.000114895
5.62521e-05
8.86747e-05
9.30472e-05
4.38584e-05
0.000144362
-2.04897e-05
0.000213298
-0.000105758
0.000303148
-0.000213661
0.00041728
-0.000346055
0.000558938
-0.00050468
0.000730963
-0.00069085
0.000935439
-0.000905095
0.0011733
-0.0011468
0.00144395
-0.00141389
0.001745
-0.0017026
0.0020723
-0.0020079
0.0024194
-0.00232086
0.00278295
-0.00263814
-0.00297088
0.00314646
3.96273e-07
3.52785e-05
3.15786e-06
8.11403e-05
1.0117e-05
0.000105802
2.33406e-05
0.000109722
4.51563e-05
9.30795e-05
7.81765e-05
5.56545e-05
0.000125312
-3.27709e-06
0.000189758
-8.4936e-05
0.000274933
-0.000190932
0.000384351
-0.000323078
0.000521409
-0.000483113
0.000689088
-0.000672359
0.000889559
-0.000891321
0.00112375
-0.00113928
0.00139091
-0.00141396
0.00168832
-0.00171129
0.00201121
-0.00202548
0.00235273
-0.00234942
0.0027054
-0.00267353
0.00306356
-0.0029963
-0.00331093
0.0034036
7.51988e-07
3.45266e-05
4.91351e-06
7.69788e-05
1.46276e-05
9.60884e-05
3.22682e-05
9.20813e-05
6.04881e-05
6.48596e-05
0.000102246
1.38964e-05
0.000160807
-6.18382e-05
0.000239689
-0.000163818
0.000342537
-0.000293781
0.000472907
-0.000453447
0.000633934
-0.000644141
0.000827918
-0.000866342
0.00105583
-0.00111923
0.00131685
-0.00140031
0.00160803
-0.00170514
0.00192418
-0.00202744
0.00225814
-0.00235945
0.00260094
-0.00269222
0.0029448
-0.00301739
0.00327754
-0.00332904
-0.00360444
0.00357106
1.13949e-06
3.33871e-05
6.83923e-06
7.1279e-05
1.95943e-05
8.33334e-05
4.21247e-05
6.95509e-05
7.74406e-05
2.95437e-05
0.000128863
-3.75262e-05
0.000199992
-0.000132967
0.000294592
-0.000258418
0.000416376
-0.000415564
0.000568663
-0.000605734
0.000753927
-0.000829405
0.000973268
-0.00108568
0.00122589
-0.00137186
0.00150872
-0.00168314
0.0018163
-0.00201272
0.00214102
-0.00235216
0.00247386
-0.00269229
0.0028051
-0.00302345
0.00312741
-0.00333971
0.00342694
-0.00362857
-0.00390041
0.00372291
1.58128e-06
3.18058e-05
9.00935e-06
6.38509e-05
2.51641e-05
6.71786e-05
5.31424e-05
4.15726e-05
9.63312e-05
-1.36451e-05
0.000158405
-9.96002e-05
0.000243239
-0.000217801
0.000354705
-0.000369884
0.000496331
-0.00055719
0.000670825
-0.000780228
0.000879503
-0.00103808
0.00112171
-0.00132789
0.00139439
-0.00164454
0.00169193
-0.00198068
0.00200645
-0.00232724
0.00232853
-0.00267423
0.00264827
-0.00301204
0.00295677
-0.00333195
0.00324658
-0.00362952
0.0035142
-0.00389619
-0.00414987
0.00376366
2.10128e-06
2.97045e-05
1.15011e-05
5.44511e-05
3.14857e-05
4.7194e-05
6.55464e-05
7.5119e-06
0.000117445
-6.5544e-05
0.000191166
-0.000173321
0.000290743
-0.000317378
0.000419935
-0.000499076
0.000581741
-0.000718996
0.000777791
-0.000976278
0.00100771
-0.001268
0.0012686
-0.00158878
0.00155486
-0.0019308
0.00185844
-0.00228426
0.00216962
-0.00263842
0.00247822
-0.00298283
0.00277487
-0.00330868
0.00305234
-0.00360942
0.00330594
-0.00388311
0.00353524
-0.00412549
-0.00435394
0.00373931
2.72285e-06
2.69817e-05
1.43879e-05
4.27861e-05
3.86945e-05
2.28873e-05
7.95275e-05
-3.3321e-05
0.000140992
-0.000127008
0.000227289
-0.000259618
0.000342426
-0.000432515
0.000489744
-0.000646393
0.000671281
-0.000900534
0.00088708
-0.00119208
0.00113459
-0.00151551
0.00140837
-0.00186257
0.00170037
-0.00222279
0.00200065
-0.00258454
0.0022987
-0.00293647
0.00258484
-0.00326897
0.00285152
-0.00357536
0.00309419
-0.0038521
0.00331125
-0.00410018
0.00350469
-0.00431893
-0.00452585
0.0036766
3.46685e-06
2.35148e-05
1.77324e-05
2.85206e-05
4.68979e-05
-6.27824e-06
9.52151e-05
-8.16382e-05
0.000167061
-0.000198854
0.000266703
-0.00035926
0.00039786
-0.000563672
0.000563067
-0.0008116
0.000762924
-0.00110039
0.000995401
-0.00142455
0.00125545
-0.00177556
0.00153515
-0.00214226
0.00182445
-0.0025121
0.00211255
-0.00287263
0.00238936
-0.00321328
0.00264696
-0.00352658
0.00288047
-0.00380887
0.00308838
-0.00406
0.00327186
-0.00428366
0.00343509
-0.00448215
-0.00467165
0.00358089
4.34988e-06
1.91649e-05
2.15801e-05
1.12904e-05
5.61612e-05
-4.08593e-05
0.000112653
-0.000138131
0.000195586
-0.000281787
0.000309076
-0.00047275
0.000456218
-0.000710814
0.000638296
-0.000993679
0.000854001
-0.00131609
0.00109888
-0.00166944
0.00136537
-0.00204204
0.00164344
-0.00242033
0.00192199
-0.00279066
0.0021905
-0.00314114
0.00244052
-0.0034633
0.00266671
-0.00375277
0.00286716
-0.00400932
0.0030431
-0.00423594
0.00319783
-0.00443839
0.00333654
-0.00462087
-0.00479789
0.00346278
5.38292e-06
1.3782e-05
2.59547e-05
-9.28144e-06
6.6497e-05
-8.14016e-05
0.000131783
-0.000203416
0.00022632
-0.000376324
0.00035379
-0.000600221
0.000516267
-0.000873291
0.000713335
-0.00119075
0.00094139
-0.00154415
0.00119345
-0.0019215
0.00145971
-0.0023083
0.00172887
-0.00268949
0.00198987
-0.00305166
0.00223359
-0.00338487
0.00245406
-0.00368376
0.00264883
-0.00394754
0.00281871
-0.00417921
0.00296699
-0.00438422
0.00309815
-0.00456955
0.00321764
-0.00474036
-0.00490908
0.00332883
6.57059e-06
7.21142e-06
3.08546e-05
-3.35655e-05
7.78584e-05
-0.000128405
0.000152429
-0.000277987
0.000258822
-0.000482716
0.000399943
-0.000741343
0.000576421
-0.00104977
0.000785736
-0.00140006
0.00102179
-0.0017802
0.00127525
-0.00217495
0.00153474
-0.00256779
0.00178869
-0.00294344
0.00202717
-0.00329014
0.00224334
-0.00360104
0.00243401
-0.00387443
0.00259946
-0.00411299
0.00274258
-0.00432234
0.00286788
-0.00450951
0.00298025
-0.00468192
0.00308475
-0.00484486
-0.0050086
0.00318426
7.91089e-06
-6.99471e-07
3.62519e-05
-6.19065e-05
9.01367e-05
-0.00018229
0.000174303
-0.000362153
0.000292468
-0.000600882
0.000446386
-0.00089526
0.00063483
-0.00123821
0.0008529
-0.00161813
0.00109205
-0.00201936
0.0013411
-0.002424
0.001588
-0.00281469
0.00182195
-0.00317739
0.00203503
-0.00350322
0.00222307
-0.00378908
0.00238559
-0.00403695
0.00252501
-0.00425241
0.00264558
-0.0044429
0.00275225
-0.00461619
0.00284973
-0.0047794
0.00294237
-0.0049375
-0.00509859
0.00303236
9.39524e-06
-1.00947e-05
4.20929e-05
-9.46041e-05
0.000103163
-0.00024336
0.000197005
-0.000455995
0.000326476
-0.000730353
0.000491782
-0.00106057
0.000689516
-0.00143595
0.000912309
-0.00184093
0.0011495
-0.00225654
0.00138878
-0.00266328
0.00161846
-0.00304437
0.00182937
-0.0033883
0.00201609
-0.00368994
0.00217715
-0.00395013
0.00231429
-0.00417409
0.00243142
-0.00436955
0.0025334
-0.00454488
0.00262508
-0.00470787
0.00271063
-0.00486494
0.00279354
-0.00502041
-0.00518039
0.00287534
1.10095e-05
-2.11043e-05
4.82992e-05
-0.000131894
0.000116712
-0.000311773
0.000220043
-0.000559327
0.000359937
-0.000870246
0.000534698
-0.00123533
0.000738536
-0.00163978
0.000961759
-0.00206415
0.00119216
-0.00248694
0.00141723
-0.00288835
0.00162646
-0.00325361
0.00181297
-0.0035748
0.00197394
-0.00385092
0.00211024
-0.00408643
0.00222526
-0.00428912
0.00232371
-0.004468
0.0024105
-0.00463167
0.00249
-0.00478737
0.00256567
-0.00494061
0.00264021
-0.00509495
-0.00525474
0.00271456
1.27335e-05
-3.38377e-05
5.47703e-05
-0.000173931
0.000130512
-0.000387514
0.000242851
-0.000671667
0.000391873
-0.00101927
0.000573701
-0.00141716
0.000780135
-0.00184622
0.000999543
-0.00228356
0.00121892
-0.00270632
0.00142643
-0.00309586
0.00161346
-0.00344064
0.0017756
-0.00373694
0.00191249
-0.00398781
0.0020268
-0.00420074
0.00212296
-0.00438528
0.0022059
-0.00455093
0.00228017
-0.00470594
0.00234953
-0.00485673
0.00241671
-0.00500779
0.00248367
-0.00516191
-0.00532198
0.00255091
1.45416e-05
-4.83793e-05
6.13855e-05
-0.000220775
0.00014425
-0.000470378
0.000264815
-0.000792233
0.000421291
-0.00117574
0.000607458
-0.00160332
0.000812886
-0.00205165
0.00102457
-0.00249524
0.00122953
-0.00291128
0.00141734
-0.00328367
0.00158164
-0.00360494
0.00172051
-0.0038758
0.00183558
-0.00410288
0.00193079
-0.00429596
0.00201103
-0.00446551
0.00208102
-0.00462093
0.00214481
-0.00476973
0.00220541
-0.00491733
0.00226493
-0.0050673
0.00232474
-0.00522172
-0.00538225
0.00238501
1.64035e-05
-6.47828e-05
6.80081e-05
-0.000272379
0.000157588
-0.000559958
0.000285305
-0.00091995
0.000447245
-0.00133768
0.000634837
-0.00179091
0.000835783
-0.00225259
0.0010364
-0.00269586
0.0012245
-0.00309938
0.00139155
-0.00345072
0.00153362
-0.00374701
0.00165094
-0.00399312
0.00174668
-0.00419862
0.0018255
-0.00437478
0.00189228
-0.00453229
0.00195134
-0.00467999
0.00200605
-0.00482444
0.0020588
-0.00497008
0.00211113
-0.00511963
0.00216397
-0.00527456
-0.00543555
0.00221727
1.82843e-05
-8.30671e-05
7.44886e-05
-0.000328583
0.000170174
-0.000655643
0.000303707
-0.00105348
0.000468896
-0.00150287
0.000654971
-0.00197699
0.000848284
-0.0024459
0.0010352
-0.00288278
0.00120491
-0.00326908
0.00135109
-0.0035969
0.0014721
-0.00386802
0.00156993
-0.00409095
0.00164878
-0.00427746
0.00171355
-0.00443955
0.00176886
-0.0045876
0.00181844
-0.00472958
0.00186505
-0.00487104
0.00191048
-0.00501552
0.00195586
-0.00516501
0.00200177
-0.00532047
-0.00548182
0.00204804
2.01456e-05
-0.000103213
8.06705e-05
-0.000389108
0.00018166
-0.000756633
0.000319456
-0.00119128
0.000485561
-0.00166898
0.000667308
-0.00215874
0.000850304
-0.0026289
0.00102161
-0.00305409
0.00117226
-0.00341973
0.00129817
-0.00372282
0.0013997
-0.00396954
0.00148016
-0.00417142
0.00154432
-0.00434162
0.00159699
-0.00449223
0.00164234
-0.00463294
0.00168349
-0.00477072
0.00172259
-0.00491014
0.00176101
-0.00505394
0.00179952
-0.00520352
0.00183847
-0.00535943
-0.00552097
0.00187762
2.19465e-05
-0.000125159
8.63957e-05
-0.000453558
0.000191717
-0.000861954
0.000332069
-0.00133163
0.000496747
-0.00183366
0.000671614
-0.0023336
0.000842158
-0.00279944
0.000996685
-0.00320861
0.00112827
-0.00355131
0.00123497
-0.00382952
0.00131877
-0.00405334
0.00138389
-0.00423654
0.00143525
-0.00439298
0.00147738
-0.00453436
0.00151387
-0.00466943
0.00154727
-0.00480412
0.00157924
-0.00494211
0.00161077
-0.00508548
0.00164242
-0.00523516
0.00167434
-0.00539135
-0.00555291
0.00170628
2.36445e-05
-0.000148804
9.15113e-05
-0.000521424
0.000200048
-0.00097049
0.000341167
-0.00147275
0.00050217
-0.00199466
0.000667959
-0.00249939
0.000824484
-0.00295597
0.00096168
-0.00334581
0.00107472
-0.00366435
0.00116355
-0.00391836
0.00123139
-0.00412118
0.00128297
-0.00428811
0.0013231
-0.00443311
0.00135586
-0.00456712
0.00138427
-0.00469784
0.00141036
-0.00483021
0.00143539
-0.00496714
0.00146009
-0.00511017
0.00148481
-0.00525988
0.00150963
-0.00541617
-0.00557757
0.00153429
2.51976e-05
-0.000174001
9.58758e-05
-0.000592103
0.000206408
-0.00108102
0.00034649
-0.00161283
0.000501753
-0.00214992
0.000656672
-0.00265431
0.000798152
-0.00309745
0.000917981
-0.00346564
0.00101334
-0.00375971
0.00108576
-0.00399077
0.0011393
-0.00417472
0.00117888
-0.0043277
0.00120903
-0.00446325
0.00123329
-0.00459139
0.00125416
-0.00471871
0.0012732
-0.00484926
0.00129138
-0.00498532
0.00130921
-0.005128
0.00132694
-0.00527762
0.00134457
-0.0054338
-0.00559489
0.00136189
2.65659e-05
-0.000200567
9.93657e-05
-0.000664902
0.00021061
-0.00119227
0.000347904
-0.00175013
0.000495609
-0.00229763
0.000638286
-0.00279699
0.000764173
-0.00322334
0.00086699
-0.00356846
0.00094574
-0.00383846
0.00100318
-0.00404822
0.00104392
-0.00421546
0.0010728
-0.00435657
0.00109392
-0.00448438
0.00111031
-0.00460778
0.00112397
-0.00473237
0.00113611
-0.0048614
0.00114745
-0.00499665
0.00115836
-0.00513891
0.00116902
-0.00528827
0.00117938
-0.00544416
-0.0056048
0.0011893
2.77127e-05
-0.00022828
0.00010188
-0.00073907
0.000212532
-0.00130292
0.000345399
-0.00188299
0.00048401
-0.00243624
0.000613476
-0.00292645
0.000723618
-0.00333348
0.000810054
-0.00365489
0.000873358
-0.00390177
0.000917199
-0.00409206
0.00094642
-0.00424468
0.000965623
-0.00437577
0.000978443
-0.0044972
0.000987396
-0.00461673
0.000994059
-0.00473903
0.00099936
-0.0048667
0.00100383
-0.00500112
0.00100774
-0.00514283
0.00101123
-0.00529176
0.00101425
-0.00544718
-0.00560727
0.00101672
2.86065e-05
-0.000256886
0.000103344
-0.000813807
0.000212118
-0.00141169
0.000339074
-0.00200995
0.000467356
-0.00256452
0.000583006
-0.0030421
0.000677563
-0.00342803
0.000748422
-0.00372575
0.000797448
-0.00395079
0.000828928
-0.00412354
0.000847718
-0.00426347
0.000858067
-0.00438612
0.000863116
-0.00450224
0.000864921
-0.00461854
0.000864709
-0.00473882
0.000863178
-0.00486517
0.000860726
-0.00499867
0.00085757
-0.00513968
0.000853798
-0.00528799
0.00084938
-0.00544276
-0.00560221
0.000844317
2.92215e-05
-0.000286108
0.00010371
-0.000888295
0.000209379
-0.00151736
0.000329123
-0.00212969
0.000446135
-0.00268153
0.000547674
-0.00314364
0.000627037
-0.0035074
0.000683212
-0.00378193
0.000719083
-0.00398666
0.000739292
-0.00414375
0.000748547
-0.00427273
0.000750673
-0.00438825
0.000748335
-0.00449991
0.000743183
-0.00461338
0.000736157
-0.00473179
0.000727777
-0.00485679
0.000718343
-0.00498923
0.000708027
-0.00512936
0.000696903
-0.00527687
0.000684951
-0.00543081
-0.00558946
0.000672205
2.95389e-05
-0.000315647
0.000102961
-0.000961717
0.000204379
-0.00161878
0.000315815
-0.00224113
0.000420887
-0.0027866
0.000508277
-0.00323103
0.000572994
-0.00357211
0.000615409
-0.00382434
0.000639162
-0.00401042
0.00064904
-0.00415362
0.000649483
-0.00427317
0.000643869
-0.00438263
0.000634419
-0.00449046
0.000622434
-0.0046014
0.000608623
-0.00471798
0.000593363
-0.00484153
0.000576877
-0.00497275
0.000559305
-0.00511179
0.000540727
-0.00525829
0.000521146
-0.00541123
-0.00556883
0.000500515
2.95467e-05
-0.000345193
0.000101104
-0.00103327
0.000197237
-0.00171491
0.00029947
-0.00234336
0.000392176
-0.00287931
0.000465579
-0.00330444
0.000516297
-0.00362283
0.000545859
-0.0038539
0.000558427
-0.00402299
0.00055877
-0.00415397
0.000550981
-0.00426538
0.000537993
-0.00436964
0.000521628
-0.00447409
0.000502897
-0.00458267
0.000482318
-0.0046974
0.000460157
-0.00481937
0.000436568
-0.00494916
0.000411645
-0.00508687
0.000385462
-0.00523211
0.000358078
-0.00538385
-0.0055403
0.000329546
2.92401e-05
-0.000374433
9.81725e-05
-0.00110221
0.000188106
-0.00180485
0.00028044
-0.0024357
0.000360566
-0.00295944
0.000420293
-0.00336416
0.000457709
-0.00366025
0.000475279
-0.00387147
0.00047749
-0.0040252
0.00046896
-0.00414544
0.0004534
-0.00424982
0.000433316
-0.00434956
0.000410183
-0.00445096
0.000384768
-0.00455725
0.000357442
-0.00467008
0.000328385
-0.00479031
0.000297696
-0.00491847
0.00026543
-0.0050546
0.000231561
-0.00519824
0.000195859
-0.00534814
-0.00550397
0.00015953
2.8621e-05
-0.000403054
9.422e-05
-0.00116781
0.000177171
-0.0018878
0.000259094
-0.00251762
0.000326598
-0.00302694
0.000373066
-0.00341063
0.000397892
-0.00368507
0.000404272
-0.00387785
0.000396844
-0.00401777
0.000379993
-0.00412859
0.000357028
-0.00422686
0.000330062
-0.00432259
0.000300271
-0.00442117
0.000268226
-0.00452521
0.000234178
-0.00463603
0.000198242
-0.00475438
0.000160496
-0.00488072
0.000121028
-0.00501513
7.98773e-05
-0.00515709
3.66823e-05
-0.00530495
-0.00545448
-1.28082e-05
2.76975e-05
-0.000430752
8.93171e-05
-0.00122943
0.000164634
-0.00196311
0.0002358
-0.00258878
0.000290782
-0.00308192
0.000324478
-0.00344433
0.000337415
-0.00369801
0.000333334
-0.00387377
0.000316891
-0.00400133
0.000292174
-0.00410387
0.000262095
-0.00419678
0.000228417
-0.00428892
0.000192058
-0.00438481
0.000153431
-0.00448658
0.000112699
-0.0045953
6.99011e-05
-0.00471158
2.51073e-05
-0.00483593
-2.15904e-05
-0.00496843
-7.00575e-05
-0.00510862
-0.000120745
-0.00525426
-0.00540269
-0.000172533
2.64827e-05
-0.000457235
8.3547e-05
-0.00128649
0.000150708
-0.00203028
0.000210918
-0.00264899
0.000253585
-0.00312459
0.000275036
-0.00346578
0.00027676
-0.00369974
0.000262875
-0.00385988
0.000237952
-0.0039764
0.000205747
-0.00407166
0.000168793
-0.00415982
0.00012854
-0.00424866
8.56922e-05
-0.00434196
4.05237e-05
-0.00444141
-6.88216e-06
-0.00454789
-5.64576e-05
-0.00466201
-0.000108222
-0.00478416
-0.000162076
-0.00491458
-0.000218037
-0.00505266
-0.000275947
-0.00519635
-0.00534376
-0.000334877
2.49946e-05
-0.000482229
7.70016e-05
-0.0013385
0.000135605
-0.00208888
0.000184785
-0.00269817
0.000215429
-0.00315523
0.000225181
-0.00347553
0.00021633
-0.00369089
0.000193229
-0.00383678
0.000160285
-0.00394346
0.000120908
-0.00403229
7.72778e-05
-0.00411619
3.05587e-05
-0.00420194
-1.87034e-05
-0.0042927
-7.03175e-05
-0.0043898
-0.000124279
-0.00449393
-0.000180642
-0.00460564
-0.00023937
-0.00472543
-0.000300403
-0.00485355
-0.000363628
-0.00498943
-0.0004288
-0.00513118
-0.00527691
-0.000495657
2.32543e-05
-0.000505484
6.97781e-05
-0.00138502
0.000119536
-0.00213864
0.000157715
-0.00273635
0.000176687
-0.00317421
0.00017529
-0.00347413
0.00015646
-0.00367206
0.000124667
-0.00380499
8.41005e-05
-0.00390289
3.78106e-05
-0.003986
-1.23407e-05
-0.00406604
-6.53789e-05
-0.00414891
-0.000120954
-0.00423712
-0.000178974
-0.00433178
-0.000239467
-0.00443343
-0.000302514
-0.0045426
-0.000368149
-0.0046598
-0.000436313
-0.00478539
-0.000506833
-0.00491891
-0.000579467
-0.00505854
-0.00520224
-0.000654129
2.12864e-05
-0.00052677
6.19756e-05
-0.00142571
0.000102701
-0.00217936
0.000129998
-0.00276365
0.000137689
-0.0031819
0.000125684
-0.00346213
9.74254e-05
-0.0036438
5.74071e-05
-0.00376497
9.54986e-06
-0.00385503
-4.33958e-05
-0.00393305
-9.98784e-05
-0.00400956
-0.000159171
-0.00408961
-0.000220993
-0.0041753
-0.000285323
-0.00426745
-0.000352249
-0.00436651
-0.000421893
-0.00447295
-0.000494341
-0.00458735
-0.000569558
-0.00471017
-0.000647356
-0.00484112
-0.000727474
-0.00497843
-0.0051199
-0.000809815
1.91174e-05
-0.000545887
5.36931e-05
-0.00146029
8.52899e-05
-0.00221096
0.000101892
-0.00278025
9.872e-05
-0.00317872
7.663e-05
-0.00344004
3.94541e-05
-0.00360662
-8.37278e-06
-0.00371715
-6.31898e-05
-0.00380022
-0.000122606
-0.00387363
-0.000185309
-0.00394686
-0.000250729
-0.00402419
-0.000318695
-0.00410734
-0.000389235
-0.00419691
-0.000462482
-0.00429326
-0.000538607
-0.00439683
-0.000617752
-0.00450821
-0.000699932
-0.00462799
-0.000784965
-0.00475608
-0.000872527
-0.00489086
-0.00502999
-0.000962439
1.67772e-05
-0.000562664
4.50277e-05
-0.00148854
6.74807e-05
-0.00223341
7.36304e-05
-0.0027864
6.00251e-05
-0.00316512
2.83673e-05
-0.00340838
-1.72658e-05
-0.00356099
-7.25254e-05
-0.00366189
-0.000134052
-0.00373869
-0.000199745
-0.00380794
-0.000268525
-0.00387808
-0.00033996
-0.00395276
-0.000413958
-0.00403334
-0.000490593
-0.00412027
-0.00057003
-0.00421382
-0.000652488
-0.00431437
-0.000738178
-0.00442252
-0.000827187
-0.00453898
-0.000919363
-0.00466391
-0.0010143
-0.00479592
-0.00493261
-0.00111169
1.43016e-05
-0.000576966
3.60769e-05
-0.00151031
4.94406e-05
-0.00224678
4.54192e-05
-0.00278238
2.18589e-05
-0.00314156
-1.89273e-05
-0.00336759
-7.25968e-05
-0.00350732
-0.000134954
-0.00359953
-0.00020294
-0.0036707
-0.000274732
-0.00373615
-0.000349451
-0.00380336
-0.00042678
-0.00387543
-0.000506691
-0.00395343
-0.000589288
-0.00403768
-0.000674766
-0.00412835
-0.000763383
-0.00422575
-0.000855425
-0.00433047
-0.000951079
-0.00444332
-0.00105026
-0.00456473
-0.00115249
-0.00469369
-0.0048279
-0.0012572
1.17268e-05
-0.000588693
2.69368e-05
-0.00152552
3.13202e-05
-0.00225116
1.75011e-05
-0.00276856
-1.56594e-05
-0.0031084
-6.51423e-05
-0.00331811
-0.000126429
-0.00344603
-0.000195569
-0.00353039
-0.000269785
-0.00359649
-0.000347505
-0.00365843
-0.000428023
-0.00372284
-0.000511119
-0.00379233
-0.000596812
-0.00386774
-0.000685229
-0.00394926
-0.00077658
-0.004037
-0.000871157
-0.00413117
-0.000969313
-0.00423232
-0.00107136
-0.00434128
-0.00117732
-0.00445876
-0.00128668
-0.00458434
-0.00471598
-0.0013986
9.0627e-06
-0.000597756
1.76915e-05
-0.00153415
1.32836e-05
-0.00224675
-1.00307e-05
-0.00274525
-5.24753e-05
-0.00306595
-0.000110139
-0.00326045
-0.000178669
-0.0033775