/*--------------------------------*- C++ -*----------------------------------*\
  =========                 |
  \\      /  F ield         | OpenFOAM: The Open Source CFD Toolbox
   \\    /   O peration     | Website:  https://openfoam.org
    \\  /    A nd           | Version:  7
     \\/     M anipulation  |
\*---------------------------------------------------------------------------*/
FoamFile
{
    version     2.0;
    format      ascii;
    class       volVectorField;
    location    "55";
    object      U;
}
// * * * * * * * * * * * * * * * * * * * * * * * * * * * * * * * * * * * * * //

dimensions      [0 1 -1 0 0 0 0];

internalField   nonuniform List<vector> 
8820
(
(-0.000548075 -0.0074412 -6.41788e-22)
(-0.00353234 -0.020595 -1.40959e-20)
(-0.00958546 -0.0320321 -6.54918e-21)
(-0.0173755 -0.0415389 -2.83866e-21)
(-0.0262364 -0.0491297 8.66346e-22)
(-0.0357193 -0.0550112 -5.15972e-21)
(-0.0454332 -0.0595135 -1.11315e-20)
(-0.0550605 -0.0630247 -6.72974e-21)
(-0.0643481 -0.0659333 1.55732e-20)
(-0.0730912 -0.0685825 -2.76981e-21)
(-0.0811217 -0.071244 4.42862e-21)
(-0.0883007 -0.0741088 6.38202e-21)
(-0.0945135 -0.0772918 -9.21861e-21)
(-0.0996704 -0.0808432 -1.04359e-20)
(-0.103711 -0.0847632 4.85505e-21)
(-0.106617 -0.0890139 2.59121e-21)
(-0.108437 -0.0935305 6.31546e-22)
(-0.109327 -0.0982312 1.74033e-20)
(-0.109468 -0.103023 -5.48412e-21)
(-0.108845 -0.10779 -3.60169e-20)
(-0.108436 -0.112423 2.74551e-22)
(-0.000412738 -0.00567512 1.90241e-20)
(-0.00323941 -0.0162454 -2.07079e-20)
(-0.00931046 -0.025848 4.06022e-21)
(-0.0172209 -0.0341025 2.23749e-20)
(-0.0262685 -0.0409097 -9.28303e-21)
(-0.0359799 -0.0463864 -1.11486e-20)
(-0.0459437 -0.0507893 -1.75377e-20)
(-0.0558274 -0.0544484 1.69296e-20)
(-0.0653685 -0.0577064 2.45605e-20)
(-0.0743572 -0.060872 -1.99133e-20)
(-0.0826241 -0.064191 -2.40807e-20)
(-0.0900306 -0.0678339 -3.81884e-20)
(-0.0964634 -0.0718964 -1.71774e-20)
(-0.101833 -0.0764065 -3.28709e-20)
(-0.10608 -0.081332 1.70094e-20)
(-0.109184 -0.0865874 -2.60522e-21)
(-0.111192 -0.092039 -1.26325e-20)
(-0.112265 -0.0975149 -1.68113e-21)
(-0.112588 -0.102815 -3.43989e-20)
(-0.112148 -0.107706 -2.09308e-20)
(-0.111991 -0.111996 2.20099e-20)
(-0.000405307 -0.00382355 5.52589e-20)
(-0.00322601 -0.0117002 -1.20705e-20)
(-0.00936311 -0.0194056 4.35668e-20)
(-0.0173738 -0.0263793 2.93314e-20)
(-0.0265383 -0.0323966 2.97057e-20)
(-0.0363713 -0.037475 1.34838e-20)
(-0.0464509 -0.0417899 -2.21445e-20)
(-0.0564367 -0.0456064 3.83534e-20)
(-0.0660622 -0.049218 5.7892e-20)
(-0.0751164 -0.0528972 3.06332e-20)
(-0.0834309 -0.0568636 -4.54643e-20)
(-0.0908686 -0.0612693 7.6406e-20)
(-0.0973167 -0.0661944 -6.37413e-21)
(-0.102683 -0.0716487 -1.39725e-19)
(-0.106901 -0.0775729 -9.47248e-20)
(-0.109936 -0.0838379 5.17081e-20)
(-0.111822 -0.0902429 -2.86525e-20)
(-0.112705 -0.0965231 -6.63454e-20)
(-0.112756 -0.102361 1.08318e-19)
(-0.111944 -0.107388 -4.64293e-20)
(-0.111392 -0.111323 -5.40687e-20)
(-0.000530072 -0.00192541 -1.73185e-20)
(-0.00349972 -0.00704763 1.15425e-19)
(-0.00974908 -0.0128214 -1.54292e-20)
(-0.017835 -0.0184992 -1.55384e-19)
(-0.0270401 -0.0237244 -1.62305e-20)
(-0.0368802 -0.0284085 -1.43934e-19)
(-0.0469324 -0.0326392 7.40772e-20)
(-0.0568562 -0.0366125 1.38831e-19)
(-0.0663859 -0.0405694 -1.26664e-19)
(-0.0753131 -0.0447449 -1.67794e-19)
(-0.0834724 -0.0493334 9.56865e-20)
(-0.0907295 -0.0544714 -9.00301e-20)
(-0.0969717 -0.0602283 1.09388e-19)
(-0.102102 -0.0666032 1.55021e-19)
(-0.106041 -0.0735189 3.05055e-20)
(-0.108734 -0.0808118 -1.19525e-20)
(-0.110182 -0.0882214 -1.17063e-19)
(-0.1105 -0.095389 -2.32205e-20)
(-0.109831 -0.101865 -2.63567e-20)
(-0.108096 -0.107111 -6.84645e-21)
(-0.106502 -0.110722 -1.48752e-20)
(-0.000786439 -2.10783e-05 -7.62357e-20)
(-0.00405792 -0.00237921 -1.11502e-19)
(-0.0104622 -0.006215 6.6347e-20)
(-0.0185934 -0.0105959 -8.8122e-20)
(-0.0277565 -0.0150309 9.96421e-20)
(-0.0374812 -0.0193221 5.16122e-20)
(-0.0473535 -0.0234658 1.06223e-19)
(-0.0570393 -0.0275857 -8.85872e-21)
(-0.0662787 -0.0318679 -1.05744e-19)
(-0.0748686 -0.0365089 5.86499e-20)
(-0.0826489 -0.041679 1.21512e-20)
(-0.0894889 -0.0475021 2.2849e-20)
(-0.0952764 -0.054043 -3.40973e-20)
(-0.0999095 -0.0612992 -3.30113e-20)
(-0.103294 -0.0691881 2.01914e-20)
(-0.105347 -0.0775272 -3.88408e-20)
(-0.106029 -0.0860102 -6.19932e-21)
(-0.105409 -0.0941905 6.65481e-20)
(-0.103581 -0.101472 3.33e-20)
(-0.100386 -0.107101 -4.16154e-20)
(-0.0970885 -0.110473 1.21648e-19)
(-0.00116888 0.00184906 1.56338e-20)
(-0.00488788 0.00221363 3.47754e-19)
(-0.0114843 0.000293281 -2.34324e-20)
(-0.0196258 -0.00280379 2.28897e-19)
(-0.0286583 -0.00645542 5.91744e-20)
(-0.0381373 -0.010354 -5.9749e-20)
(-0.0476667 -0.014403 -4.28831e-20)
(-0.056925 -0.0186515 7.9786e-20)
(-0.0656615 -0.0232293 -2.64765e-20)
(-0.073681 -0.0282934 2.5235e-19)
(-0.0808293 -0.0339905 -8.31458e-20)
(-0.0869805 -0.0404345 3.18037e-19)
(-0.0920236 -0.047691 3.7403e-21)
(-0.0958524 -0.0557657 1.35442e-20)
(-0.0983586 -0.0645853 -1.31925e-19)
(-0.0994323 -0.0739683 -8.30017e-20)
(-0.0989878 -0.0835859 1.63535e-19)
(-0.0970351 -0.0929218 -1.44042e-19)
(-0.0936102 -0.101229 -1.24935e-19)
(-0.0884341 -0.107494 -1.66951e-20)
(-0.0827516 -0.110798 3.65649e-20)
(-0.00166727 0.00364606 7.98064e-20)
(-0.00596712 0.00664206 -1.12117e-19)
(-0.012786 0.00658582 -6.22671e-20)
(-0.0208973 0.00474403 -2.34105e-19)
(-0.0297045 0.00186245 -7.79441e-20)
(-0.0387994 -0.00164452 2.47331e-19)
(-0.0478118 -0.0055883 4.65139e-20)
(-0.0564373 -0.00994279 1.04615e-19)
(-0.0644372 -0.0147799 -1.01379e-19)
(-0.0716246 -0.0202162 4.45093e-20)
(-0.0778517 -0.0263744 3.82979e-20)
(-0.0829965 -0.0333595 -1.28011e-19)
(-0.0869494 -0.0412417 2.13402e-19)
(-0.0896013 -0.0500425 -3.39644e-20)
(-0.0908336 -0.0597121 2.22916e-19)
(-0.0905131 -0.0700925 9.33101e-20)
(-0.088511 -0.0808635 -7.46383e-20)
(-0.0847775 -0.0914727 -7.71469e-20)
(-0.0792923 -0.101043 -4.25612e-20)
(-0.0716301 -0.108276 -7.85793e-20)
(-0.0628294 -0.111813 8.11567e-20)
(-0.00226725 0.00533389 5.41717e-20)
(-0.00726448 0.0108228 8.25762e-20)
(-0.0143273 0.0125506 7.93755e-20)
(-0.0223619 0.011919 -1.28278e-20)
(-0.0308431 0.00978565 3.03427e-19)
(-0.0394075 0.00666574 -1.772e-19)
(-0.0477162 0.00283716 2.09471e-19)
(-0.0554861 -0.00159922 -2.78617e-19)
(-0.0624912 -0.00665701 2.24622e-21)
(-0.0685521 -0.0124108 -1.47791e-19)
(-0.0735254 -0.0189578 -1.76718e-20)
(-0.0772905 -0.0263929 -3.71165e-20)
(-0.0797374 -0.034792 -2.92648e-19)
(-0.0807544 -0.0441955 7.49891e-20)
(-0.0802163 -0.0545873 6.26148e-20)
(-0.077975 -0.0658527 1.68948e-19)
(-0.0738694 -0.0777132 -5.54087e-20)
(-0.0677994 -0.0896272 2.30207e-20)
(-0.0597208 -0.100641 6.17262e-20)
(-0.0490882 -0.109206 -1.56384e-19)
(-0.0363403 -0.113407 -5.56156e-20)
(-0.00295113 0.00688069 -1.44399e-19)
(-0.0087413 0.0146804 1.37016e-19)
(-0.0160592 0.018084 -1.34453e-19)
(-0.023964 0.0185997 -5.79316e-20)
(-0.0320116 0.0171819 3.71361e-21)
(-0.0398897 0.0144382 -1.99339e-20)
(-0.0472951 0.010731 -1.86379e-19)
(-0.0539673 0.00623378 -4.30021e-19)
(-0.0596924 0.000991605 -1.26447e-19)
(-0.0642961 -0.00502668 -1.94679e-20)
(-0.0676346 -0.0118902 -3.12034e-21)
(-0.0695845 -0.0196809 3.26791e-19)
(-0.07003 -0.0284766 -1.38385e-20)
(-0.0688537 -0.038335 4.15128e-21)
(-0.0659253 -0.0492758 2.36111e-20)
(-0.0610902 -0.0612376 6.62838e-20)
(-0.0541704 -0.074009 -2.88753e-20)
(-0.0450346 -0.0871077 -1.24897e-19)
(-0.033682 -0.0995855 -1.05792e-19)
(-0.0196082 -0.109717 3.71819e-19)
(-0.0020155 -0.114806 2.89851e-22)
(-0.0036987 0.00826 1.47093e-19)
(-0.0103531 0.0181499 1.10749e-20)
(-0.0179249 0.0230939 -3.53433e-19)
(-0.0256385 0.0246748 -1.02947e-19)
(-0.0331372 0.0239267 2.00865e-19)
(-0.0401628 0.0215387 -2.29366e-19)
(-0.0464504 0.0179516 1.00828e-19)
(-0.0517616 0.0134081 3.92761e-19)
(-0.0558928 0.00801104 1.85367e-19)
(-0.0586699 0.00177396 1.71333e-19)
(-0.0599427 -0.00534121 -7.91936e-20)
(-0.0595767 -0.0133985 2.73973e-20)
(-0.0574424 -0.0224705 -1.75835e-19)
(-0.0534095 -0.0326271 2.33805e-19)
(-0.0473391 -0.0439145 3.83803e-21)
(-0.039073 -0.0563215 -3.69951e-20)
(-0.0284294 -0.0697126 6.21057e-20)
(-0.015262 -0.083703 4.20327e-20)
(0.000346656 -0.0974472 -8.47355e-20)
(0.0186261 -0.109098 -1.48022e-19)
(0.0418198 -0.114362 -2.44539e-19)
(-0.00448831 0.00945161 -2.29326e-19)
(-0.0120512 0.0211783 3.99672e-19)
(-0.0198611 0.0275013 1.93274e-19)
(-0.0273123 0.0300454 -4.74599e-20)
(-0.0341367 0.0299056 -6.0333e-20)
(-0.0401312 0.0278412 -1.35171e-19)
(-0.045069 0.0243626 -7.60976e-20)
(-0.0487328 0.0197777 1.26903e-19)
(-0.0509249 0.0142451 2.74018e-19)
(-0.0514658 0.00782333 1.26988e-19)
(-0.0501906 0.00050843 1.75757e-19)
(-0.0469439 -0.0077405 1.69786e-19)
(-0.0415739 -0.0169839 -2.76015e-19)
(-0.0339261 -0.0272909 1.231e-19)
(-0.0238429 -0.0387196 -3.90794e-19)
(-0.0111614 -0.0512934 -4.0601e-19)
(0.00429427 -0.064944 -3.17161e-19)
(0.022665 -0.0794044 1.23849e-19)
(0.0438342 -0.0940117 7.74088e-19)
(0.0680973 -0.106803 -1.93787e-19)
(0.0982881 -0.112132 2.04882e-19)
(-0.00529797 0.0104421 3.98965e-19)
(-0.0137847 0.0237263 -1.74218e-19)
(-0.0217997 0.0312428 5.87171e-20)
(-0.0289039 0.0346277 3.16438e-19)
(-0.0349152 0.0350183 -2.92587e-19)
(-0.039684 0.033231 1.08968e-19)
(-0.0430195 0.0298377 -1.76388e-19)
(-0.0447222 0.025205 -4.27703e-19)
(-0.0445958 0.0195444 6.05977e-19)
(-0.0424484 0.012959 -2.78504e-20)
(-0.0380921 0.00548061 1.66591e-19)
(-0.0313408 -0.00290425 -7.56586e-20)
(-0.0220086 -0.0122359 1.64384e-19)
(-0.00990905 -0.0225677 -9.15473e-21)
(0.00514262 -0.0339546 2.07405e-19)
(0.0233189 -0.0464306 -5.26318e-20)
(0.0447799 -0.0599677 2.10035e-19)
(0.0696288 -0.0744058 -3.91755e-19)
(0.0976901 -0.089292 -4.14136e-19)
(0.129165 -0.102839 3.60583e-19)
(0.168579 -0.108794 -1.73703e-19)
(-0.00610634 0.0112249 -3.88389e-19)
(-0.0155015 0.025768 2.42859e-19)
(-0.0236683 0.0342717 -1.9319e-19)
(-0.0303236 0.0383548 1.0648e-19)
(-0.035365 0.0391804 -9.1901e-20)
(-0.0386922 0.0376097 4.26812e-19)
(-0.0401467 0.034266 -3.56152e-20)
(-0.0395423 0.0295683 1.2083e-19)
(-0.0366784 0.023777 -1.0601e-19)
(-0.0313439 0.0170381 2.75796e-19)
(-0.02332 0.00941984 -5.51302e-19)
(-0.0123819 0.000939913 -6.68624e-20)
(0.00169847 -0.00841494 -5.87978e-20)
(0.0191451 -0.0186736 2.54209e-19)
(0.0401691 -0.0298691 -3.29846e-19)
(0.0649505 -0.0420196 4.27374e-20)
(0.0936184 -0.055101 2.84059e-19)
(0.126217 -0.0690074 1.33051e-19)
(0.162489 -0.0834513 6.78439e-21)
(0.201898 -0.0971572 1.17621e-21)
(0.25256 -0.103196 -2.22296e-19)
(-0.00689358 0.0118002 3.48672e-19)
(-0.0171502 0.0272917 -2.78456e-19)
(-0.0253908 0.0365578 1.76902e-19)
(-0.0314722 0.0411783 -5.03516e-20)
(-0.0353626 0.0423269 -3.48675e-19)
(-0.0370041 0.0408981 -3.99351e-19)
(-0.0362651 0.0375576 4.50102e-19)
(-0.0329671 0.0327696 -7.40352e-20)
(-0.0268991 0.0268387 5.13719e-19)
(-0.0178241 0.0199515 -3.20382e-20)
(-0.00548672 0.0122129 1.50666e-20)
(0.0103807 0.00367388 2.15675e-19)
(0.0300491 -0.00564674 2.32008e-19)
(0.053778 -0.0157459 3.28586e-19)
(0.0817946 -0.0266203 1.40305e-19)
(0.114265 -0.038252 -2.35044e-22)
(0.151257 -0.0505861 -5.17004e-20)
(0.192703 -0.0635094 9.71187e-20)
(0.238345 -0.0767825 2.61485e-19)
(0.286028 -0.0899986 -2.0458e-19)
(0.349559 -0.0948588 2.55868e-19)
(-0.00764199 0.012174 -6.9193e-20)
(-0.0186798 0.028298 -4.40197e-19)
(-0.0268869 0.038088 -2.057e-19)
(-0.0322398 0.0430689 2.03956e-19)
(-0.0347651 0.0444137 -4.92397e-20)
(-0.0344395 0.043041 -2.02027e-20)
(-0.031151 0.0396497 -3.28474e-19)
(-0.024722 0.0347425 8.73265e-20)
(-0.0149248 0.0286635 -4.29655e-19)
(-0.00149191 0.0216379 -3.71874e-19)
(0.015872 0.0138069 -2.33272e-19)
(0.037476 0.00525664 -2.41888e-19)
(0.0636257 -0.00395804 2.91221e-20)
(0.0945985 -0.0137957 1.97711e-19)
(0.130609 -0.0242103 3.93648e-19)
(0.171769 -0.0351351 -6.06411e-20)
(0.218026 -0.0464647 -2.89669e-19)
(0.269101 -0.0580466 -2.42088e-19)
(0.324883 -0.0694771 -2.4796e-20)
(0.380653 -0.0816876 -1.44105e-19)
(0.457811 -0.0839092 6.24729e-20)
(-0.0083361 0.0123568 3.27526e-19)
(-0.0200405 0.0287985 3.62601e-19)
(-0.0280712 0.0388645 2.40236e-19)
(-0.0325028 0.0440167 2.02229e-19)
(-0.0334063 0.0454198 8.0803e-20)
(-0.0307839 0.0440101 3.47227e-19)
(-0.0245344 0.0405113 4.86856e-19)
(-0.014474 0.0354592 -5.5806e-19)
(-0.00035228 0.0292337 4.98425e-19)
(0.0181314 0.0220964 -2.24365e-20)
(0.0413097 0.0142252 -2.14245e-19)
(0.0695233 0.00574379 3.48167e-20)
(0.103091 -0.00325413 2.81393e-19)
(0.142272 -0.0126848 1.98765e-19)
(0.187214 -0.0224562 -2.46422e-19)
(0.237902 -0.0324505 2.39016e-19)
(0.294083 -0.0425086 -3.85598e-20)
(0.355112 -0.0524653 -2.77431e-21)
(0.421143 -0.061484 6.13236e-20)
(0.484248 -0.0723893 1.18843e-19)
(0.574231 -0.0707291 -1.94511e-19)
(-0.00896251 0.0123627 -7.31497e-19)
(-0.0211821 0.0288138 2.50871e-19)
(-0.0288509 0.0389033 -2.21654e-19)
(-0.0321204 0.0440301 -4.1346e-19)
(-0.0310929 0.0453495 -3.22131e-19)
(-0.0257827 0.0438073 -1.69495e-19)
(-0.0160926 0.0401487 -5.10372e-19)
(-0.00182402 0.0349381 5.70976e-20)
(0.0172992 0.0285882 2.89357e-19)
(0.0416096 0.0213963 2.24012e-20)
(0.0714662 0.0135783 2.67068e-19)
(0.107218 0.00529731 2.49181e-19)
(0.149156 -0.00331136 3.01585e-19)
(0.197459 -0.0121206 4.73779e-19)
(0.252125 -0.0209945 2.90434e-20)
(0.312903 -0.0297721 -2.56652e-19)
(0.379226 -0.0382515 -1.31744e-19)
(0.449935 -0.046329 -6.04508e-19)
(0.525343 -0.052542 -4.73222e-20)
(0.594553 -0.0619763 -1.34229e-19)
(0.694432 -0.0557823 1.98875e-19)
(-0.00950915 0.0122074 2.05845e-19)
(-0.0220526 0.0283697 2.98206e-19)
(-0.0291248 0.0382332 -1.84569e-19)
(-0.0309319 0.043138 1.46017e-19)
(-0.0275975 0.0442315 6.01424e-19)
(-0.0191367 0.0424672 1.77301e-19)
(-0.00544469 0.0386103 2.38136e-19)
(0.0136957 0.0332501 2.32695e-19)
(0.0385867 0.0268309 -5.06066e-19)
(0.0695823 0.0196864 4.22687e-20)
(0.107044 0.0120716 5.36213e-20)
(0.151285 0.00419098 4.74458e-19)
(0.202502 -0.00377855 -4.42012e-19)
(0.260699 -0.0116703 7.10325e-20)
(0.325602 -0.0193148 -3.45332e-19)
(0.396584 -0.0265277 2.04918e-19)
(0.472616 -0.0330948 1.84855e-19)
(0.551966 -0.0390288 -2.79973e-20)
(0.634635 -0.0423543 -2.578e-19)
(0.708349 -0.0501178 -1.92595e-19)
(0.812855 -0.0395882 6.69461e-20)
(-0.00996455 0.0119066 -1.15931e-19)
(-0.0225954 0.0274977 3.81637e-20)
(-0.0287766 0.0368929 -7.94861e-20)
(-0.0287544 0.0413856 -2.84479e-19)
(-0.0226584 0.0421198 -5.73632e-20)
(-0.0104976 0.0400612 2.12311e-19)
(0.00784892 0.0359914 3.19077e-19)
(0.0326188 0.0305247 -6.01808e-20)
(0.0641317 0.0241377 4.00949e-20)
(0.10274 0.0172009 4.24612e-19)
(0.148761 0.0100095 -4.1064e-19)
(0.202403 0.00280828 -1.31331e-19)
(0.263665 -0.0041897 9.65543e-20)
(0.332243 -0.0107905 -5.06348e-20)
(0.407437 -0.0168135 3.13343e-19)
(0.488087 -0.0220847 -9.1134e-20)
(0.572542 -0.0264365 3.84036e-20)
(0.658556 -0.0299563 2.87262e-19)
(0.745105 -0.0307559 3.18184e-19)
(0.821338 -0.0364095 7.25934e-20)
(0.923079 -0.0226935 1.20018e-19)
(-0.0103154 0.0114753 -4.43347e-20)
(-0.0227479 0.0262293 -3.05984e-19)
(-0.0276748 0.0349279 -1.08322e-19)
(-0.0253755 0.0388345 -4.6088e-20)
(-0.0159757 0.039098 1.18014e-19)
(0.000530441 0.0366991 -1.69411e-19)
(0.0242821 0.032438 -2.30307e-19)
(0.0555316 0.0269556 -5.23979e-19)
(0.0945942 0.020761 1.54226e-19)
(0.141775 0.0142625 -5.92256e-19)
(0.197276 0.00779293 4.77163e-19)
(0.261088 0.00163007 -7.02136e-20)
(0.332875 -0.0039917 -5.17349e-21)
(0.411858 -0.00887689 -1.80752e-19)
(0.496742 -0.0128714 -6.32677e-19)
(0.58569 -0.015858 3.36261e-19)
(0.676333 -0.0177962 1.73677e-20)
(0.766027 -0.0187228 -1.30971e-20)
(0.852249 -0.0177644 2.47036e-19)
(0.928438 -0.0203611 1.14416e-19)
(1.01849 -0.00580217 3.02331e-19)
(-0.0105451 0.0109254 -2.71742e-20)
(-0.0224353 0.0245948 -8.40217e-20)
(-0.0256684 0.0323914 -3.82928e-19)
(-0.0205548 0.0355641 -7.70695e-19)
(-0.00721126 0.0352769 2.35896e-19)
(0.0143861 0.0325313 3.10792e-19)
(0.0443903 0.0281503 5.5972e-20)
(0.0830487 0.0228026 4.10114e-19)
(0.130629 0.0170312 -3.26609e-19)
(0.187315 0.0112784 -5.08196e-19)
(0.253082 0.00590628 -5.94808e-19)
(0.327557 0.00120781 1.00402e-19)
(0.40989 -0.00259093 2.90197e-19)
(0.498653 -0.00533509 -2.06618e-19)
(0.591802 -0.00695016 2.75568e-19)
(0.686752 -0.00743159 -2.59822e-19)
(0.78047 -0.00692706 1.61203e-19)
(0.870034 -0.00537307 2.06752e-20)
(0.951825 -0.00344921 1.25265e-19)
(1.02459 -0.00164645 -4.95414e-19)
(1.09373 0.00884832 -4.34439e-19)
(-0.0106323 0.0102655 -1.377e-19)
(-0.0215692 0.0226235 -4.03873e-19)
(-0.0225837 0.0293422 6.03839e-20)
(-0.014022 0.0316697 6.88708e-20)
(0.00400694 0.0307956 1.56088e-19)
(0.031541 0.02775 6.54973e-19)
(0.0687292 0.0233825 -2.82132e-19)
(0.115774 0.0183915 1.45059e-19)
(0.172823 0.0133504 2.76958e-19)
(0.239829 0.00872663 -9.96143e-20)
(0.316385 0.00489116 2.81474e-19)
(0.401575 0.00211898 -6.05856e-19)
(0.493842 0.000580712 3.52762e-19)
(0.590953 0.000332254 2.41117e-20)
(0.690049 0.00130677 -2.47238e-19)
(0.787852 0.00334041 -1.05619e-19)
(0.88091 0.00609342 1.21176e-19)
(0.966208 0.00958416 -4.62211e-19)
(1.04042 0.0122442 3.84174e-19)
(1.10539 0.018187 -5.17116e-19)
(1.14669 0.0159075 -2.80495e-20)
(-0.0105486 0.00950099 5.64482e-19)
(-0.0200449 0.0203428 4.33881e-20)
(-0.0182233 0.025845 -1.8063e-20)
(-0.00547972 0.0272632 -4.1617e-19)
(0.0180766 0.0258224 -1.89251e-19)
(0.0524809 0.0225887 -3.077e-19)
(0.0978417 0.0184414 2.73979e-20)
(0.154248 0.0141069 3.71338e-19)
(0.221619 0.0101796 -9.60051e-20)
(0.29952 0.00713063 1.38765e-20)
(0.386978 0.0053042 -3.21988e-19)
(0.482327 0.00490576 -5.36376e-19)
(0.583147 0.00598668 1.1664e-19)
(0.686319 0.00843721 -3.94618e-19)
(0.788239 0.0119941 3.50549e-19)
(0.885173 0.0162938 3.30597e-19)
(0.973642 0.0208408 2.86887e-19)
(1.05094 0.0254558 -1.52052e-20)
(1.11518 0.0289251 -2.37266e-20)
(1.16621 0.0340578 5.08345e-19)
(1.20191 0.0310983 -5.99731e-20)
(-0.0102571 0.00863452 -1.8503e-19)
(-0.0177395 0.0177799 -5.95951e-19)
(-0.0123676 0.0219716 -1.83371e-19)
(0.00539079 0.0224738 -1.12508e-19)
(0.0354071 0.0205541 4.33788e-19)
(0.0776802 0.0173198 -1.36681e-19)
(0.132215 0.0136799 6.02817e-19)
(0.198882 0.0103798 -6.20385e-20)
(0.277222 0.00801429 -1.55417e-19)
(0.366221 0.00702067 7.40631e-20)
(0.464128 0.0076616 4.98918e-19)
(0.568357 0.0100041 -4.19316e-20)
(0.675531 0.0139083 8.44118e-19)
(0.781718 0.01904 5.21201e-19)
(0.882816 0.0249127 3.07235e-19)
(0.975044 0.030979 1.78629e-19)
(1.05538 0.0366421 2.98671e-19)
(1.122 0.0416632 1.35997e-19)
(1.17408 0.0450343 -2.62616e-19)
(1.21277 0.0489589 4.50739e-19)
(1.23806 0.0458663 4.15672e-19)
(-0.00971185 0.00766691 -3.91256e-19)
(-0.0145119 0.0149634 4.40634e-19)
(-0.00477783 0.0178028 2.94925e-19)
(0.0189201 0.0174493 -2.43389e-19)
(0.0564003 0.0152154 2.34915e-19)
(0.107568 0.0122508 -9.36359e-20)
(0.172227 0.0094867 -3.22519e-19)
(0.249888 0.007668 5.13765e-19)
(0.339516 0.00735217 -1.61245e-19)
(0.439306 0.00888613 1.39307e-19)
(0.546535 0.0123776 3.86551e-19)
(0.657592 0.0176772 2.73675e-19)
(0.768202 0.0243898 -3.73901e-19)
(0.873866 0.0319284 -2.75308e-19)
(0.970407 0.039604 5.5245e-20)
(1.05451 0.0467537 1.36348e-19)
(1.12408 0.0527862 -2.9351e-19)
(1.1785 0.0575108 1.37946e-19)
(1.21826 0.0602026 1.07203e-19)
(1.24533 0.0628554 -3.01874e-19)
(1.26086 0.0592255 4.14144e-19)
(-0.00885778 0.00659908 2.41211e-19)
(-0.0102052 0.011927 2.73673e-19)
(0.0047976 0.0134318 1.60572e-19)
(0.035437 0.0123576 2.01624e-19)
(0.0814263 0.0100576 -2.82841e-19)
(0.14249 0.00771742 -2.93798e-19)
(0.218098 0.0062723 5.35185e-20)
(0.307208 0.00643023 -1.84773e-19)
(0.407995 0.00865427 -5.92845e-20)
(0.517651 0.0131243 4.06045e-19)
(0.632356 0.0197088 -4.74006e-19)
(0.747501 0.0279708 1.8862e-19)
(0.85815 0.0372267 -2.52264e-19)
(0.959662 0.0466569 -4.26305e-19)
(1.04831 0.0554464 5.09805e-19)
(1.12174 0.062928 2.32661e-19)
(1.17913 0.0686348 -7.91533e-20)
(1.22116 0.0725204 -1.49976e-20)
(1.24946 0.0742007 8.5363e-20)
(1.26665 0.0754728 -2.04498e-19)
(1.27484 0.0713685 -8.76275e-20)
(-0.00763156 0.00543424 -2.22464e-20)
(-0.00464977 0.00871346 -1.27077e-19)
(0.016614 0.00896768 5.2907e-19)
(0.0552518 0.00738863 1.85961e-19)
(0.110796 0.0053564 -6.70331e-21)
(0.182669 0.00407562 -6.38251e-20)
(0.269828 0.00445088 1.86219e-19)
(0.370463 0.00709701 1.33643e-19)
(0.481732 0.0123041 -4.47499e-19)
(0.599664 0.0199947 -1.75803e-19)
(0.719337 0.0297175 -4.37489e-19)
(0.835352 0.0407056 -6.4108e-19)
(0.942524 0.0520033 6.40581e-19)
(1.03661 0.0626369 -5.99822e-19)
(1.11484 0.0717837 -3.27373e-19)
(1.17617 0.0788982 1.92623e-19)
(1.22117 0.0837337 -2.56663e-20)
(1.25167 0.0864442 -2.31136e-19)
(1.27014 0.0869631 9.08526e-20)
(1.27958 0.0869568 4.52621e-21)
(1.28203 0.0823139 1.13715e-19)
(-0.00596331 0.00418022 -3.31254e-19)
(0.00233019 0.00537913 -7.73863e-20)
(0.0309194 0.00453979 -2.05064e-19)
(0.0786374 0.00275595 8.02076e-20)
(0.144732 0.00140933 3.56409e-19)
(0.228165 0.00169081 1.31924e-19)
(0.327168 0.00442005 1.3653e-19)
(0.438926 0.0100398 -6.34747e-19)
(0.559393 0.0185714 1.32116e-19)
(0.683382 0.0295888 1.0241e-19)
(0.805028 0.0422653 -2.58861e-19)
(0.918529 0.055511 9.87304e-20)
(1.01899 0.0681739 3.80951e-19)
(1.10309 0.0792503 1.28303e-19)
(1.16941 0.0880431 5.06643e-19)
(1.21834 0.0942335 3.18376e-19)
(1.25173 0.0978464 -7.03875e-20)
(1.27224 0.0992377 4.08448e-19)
(1.28283 0.0986132 -7.20144e-20)
(1.28643 0.0974416 -1.12966e-20)
(1.28509 0.0923872 -6.34887e-20)
(-0.00377909 0.00285181 4.72872e-20)
(0.01091 0.00199813 2.37319e-19)
(0.0479409 0.000301216 -9.00909e-20)
(0.105808 -0.00130233 -1.69271e-19)
(0.18334 -0.00146937 2.77384e-20)
(0.278842 0.000925323 1.82767e-19)
(0.389584 0.00653886 -6.91006e-20)
(0.51153 0.0155423 1.7301e-20)
(0.639317 0.027586 -1.43319e-19)
(0.766645 0.0418222 1.63092e-20)
(0.887043 0.05704 1.40375e-19)
(0.994834 0.0718936 -3.38961e-19)
(1.08596 0.085161 -9.27115e-20)
(1.15846 0.0959512 1.51953e-19)
(1.21242 0.103808 -6.33909e-19)
(1.2496 0.108702 -4.73138e-20)
(1.27277 0.110927 2.00922e-19)
(1.28513 0.111007 -2.13576e-20)
(1.28971 0.10934 2.0444e-19)
(1.28919 0.107174 4.95639e-20)
(1.28532 0.101823 -3.4135e-20)
(-0.00100388 0.00147271 -6.91956e-20)
(0.0212558 -0.00133413 4.66758e-20)
(0.0678708 -0.00356862 2.53953e-19)
(0.1369 -0.00452452 2.14076e-19)
(0.226585 -0.00295549 -1.78618e-19)
(0.33435 0.0021234 -1.5579e-19)
(0.456267 0.0111059 2.64885e-19)
(0.586915 0.0237785 -1.14395e-19)
(0.719641 0.039328 -8.27241e-20)
(0.847298 0.0564533 3.69997e-20)
(0.96331 0.0736101 8.88736e-20)
(1.06269 0.0893201 -4.03164e-19)
(1.14271 0.102443 -1.50208e-19)
(1.20296 0.11233 -7.56409e-20)
(1.24499 0.118841 -3.08969e-19)
(1.27165 0.122244 3.04178e-19)
(1.28632 0.123062 5.54059e-20)
(1.29233 0.121932 2.28353e-19)
(1.29254 0.119365 -5.6964e-20)
(1.28923 0.116361 6.80209e-20)
(1.28385 0.110835 -1.74285e-19)
(0.0024354 7.68569e-05 3.62713e-19)
(0.0335156 -0.00449881 8.60566e-21)
(0.0908516 -0.00686336 -1.95117e-19)
(0.17195 -0.0066289 1.36182e-19)
(0.27427 -0.00272486 -3.40792e-19)
(0.394116 0.00559444 6.0909e-20)
(0.526154 0.0183394 -7.38543e-20)
(0.663521 0.0347995 5.88614e-19)
(0.798452 0.0536371 3.9806e-19)
(0.9234 0.0731234 3.29907e-19)
(1.03225 0.0914931 4.99137e-20)
(1.12125 0.107293 2.86954e-19)
(1.18925 0.119612 1.63508e-19)
(1.23744 0.128135 -1.00838e-19)
(1.2686 0.133061 -6.02413e-20)
(1.28632 0.134924 -1.73733e-19)
(1.29421 0.134412 1.13146e-19)
(1.29547 0.132215 2.46125e-19)
(1.29264 0.128889 5.51406e-20)
(1.28752 0.125189 1.11226e-19)
(1.28125 0.119571 1.34457e-19)
(0.00660623 -0.00129054 -3.89212e-19)
(0.0478096 -0.00735288 3.00482e-19)
(0.116962 -0.00935169 -1.26881e-19)
(0.210881 -0.00732041 -5.45703e-20)
(0.32603 -0.000466113 -6.31117e-20)
(0.457356 0.0115956 -8.69839e-20)
(0.597988 0.0283625 -1.8742e-19)
(0.739695 0.0485341 -9.83317e-20)
(0.873961 0.0702387 -1.18483e-19)
(0.993386 0.0914102 -7.79866e-21)
(1.09289 0.11022 -5.91898e-20)
(1.17031 0.125404 3.62348e-19)
(1.22619 0.136394 6.69844e-20)
(1.26314 0.143256 1.08808e-19)
(1.28485 0.146502 3.15834e-19)
(1.29526 0.146875 -2.38587e-19)
(1.29794 0.145159 -2.10483e-20)
(1.29579 0.142045 -2.5717e-19)
(1.2909 0.138078 -2.42282e-19)
(1.28465 0.133791 -1.42224e-19)
(1.27792 0.128132 -1.81004e-19)
(0.0115668 -0.00257318 1.48572e-19)
(0.0642211 -0.00973094 -4.39277e-20)
(0.146204 -0.0107822 2.44148e-20)
(0.253492 -0.00630067 -4.62581e-20)
(0.381325 0.00410407 1.24402e-19)
(0.523105 0.0203158 6.73129e-20)
(0.67039 0.0411963 -3.97655e-19)
(0.813824 0.0648023 2.03862e-19)
(0.944634 0.0887829 -7.07696e-20)
(1.05616 0.110881 6.82433e-19)
(1.14482 0.129383 -2.94317e-19)
(1.21022 0.143356 3.75686e-20)
(1.25453 0.152645 2.40003e-19)
(1.28145 0.157689 -1.62743e-19)
(1.29523 0.159267 -2.34621e-19)
(1.29988 0.158258 1.47249e-19)
(1.29869 0.155476 4.65844e-21)
(1.29415 0.151576 -9.20585e-20)
(1.28793 0.147058 -3.6238e-19)
(1.28101 0.142263 3.65984e-21)
(1.27403 0.136579 -1.46273e-19)
(0.0173632 -0.00370431 3.81364e-20)
(0.082788 -0.0114484 -3.8504e-20)
(0.178492 -0.0108911 3.07011e-19)
(0.299448 -0.00328068 -1.34809e-20)
(0.43946 0.0112252 -2.19949e-19)
(0.590262 0.0318636 1.09087e-19)
(0.741951 0.0567621 -4.08761e-20)
(0.884445 0.08334 -1.00933e-19)
(1.00929 0.108886 1.66373e-19)
(1.11111 0.131137 -2.63866e-19)
(1.18812 0.148662 -2.17649e-19)
(1.24172 0.160963 1.83002e-20)
(1.27542 0.16832 -1.69474e-19)
(1.29372 0.171505 1.63528e-19)
(1.30107 0.171492 2.21479e-20)
(1.30129 0.169228 3.76824e-20)
(1.29731 0.16551 -5.29496e-20)
(1.29115 0.160927 9.51437e-20)
(1.28409 0.155915 2.13982e-19)
(1.27679 0.150663 -1.1524e-19)
(1.26969 0.144947 1.18879e-19)
(0.0240254 -0.00460799 -3.4305e-20)
(0.103495 -0.0123068 1.28881e-19)
(0.213647 -0.00941204 2.05389e-19)
(0.348286 0.00200483 -6.94754e-20)
(0.499606 0.0210782 -1.47751e-19)
(0.657654 0.0462609 1.26034e-19)
(0.811328 0.0748931 -4.64462e-20)
(0.950336 0.103829 -2.78796e-20)
(1.06714 0.130171 3.56426e-19)
(1.15807 0.151839 5.13936e-20)
(1.22326 0.16783 -9.27217e-20)
(1.26573 0.178135 -3.67039e-20)
(1.29006 0.183447 2.75282e-19)
(1.30116 0.184809 -5.60658e-20)
(1.30343 0.183315 1.60711e-19)
(1.30035 0.179923 -1.83445e-19)
(1.29439 0.175373 1.88312e-19)
(1.28717 0.17018 -1.00023e-19)
(1.27959 0.164704 4.75722e-20)
(1.2721 0.159028 4.85333e-20)
(1.26494 0.153251 -5.6362e-20)
(0.031565 -0.00520103 1.08091e-19)
(0.12627 -0.0121004 4.44577e-20)
(0.251393 -0.00608792 -4.00685e-20)
(0.399423 0.00978296 1.63301e-19)
(0.560837 0.0337747 2.06193e-19)
(0.724099 0.0634448 -2.82027e-19)
(0.877313 0.0953541 -1.01586e-19)
(1.01057 0.12593 2.20951e-19)
(1.11777 0.152291 -2.41927e-19)
(1.19721 0.172724 -7.59439e-20)
(1.25091 0.186747 -9.59864e-20)
(1.28326 0.194853 -6.11507e-20)
(1.29954 0.198096 -6.5553e-21)
(1.30478 0.197715 2.79173e-20)
(1.30313 0.19486 -4.34766e-20)
(1.29764 0.190449 8.90466e-20)
(1.29033 0.185145 4.47165e-20)
(1.28242 0.179386 4.98134e-20)
(1.27456 0.173456 1.85964e-19)
(1.26699 0.167369 -3.6254e-21)
(1.25979 0.161492 -9.28823e-20)
(0.0399719 -0.00539552 -2.19133e-19)
(0.150975 -0.0106241 1.07679e-19)
(0.291359 -0.000682889 -1.82217e-19)
(0.45218 0.0202298 6.43505e-20)
(0.622173 0.0493502 1.10234e-19)
(0.788472 0.0832752 8.55107e-20)
(0.9389 0.117863 -1.84775e-20)
(1.06452 0.149305 -1.31686e-19)
(1.16109 0.174949 1.96844e-19)
(1.22897 0.193595 1.81737e-20)
(1.27189 0.205339 -1.43411e-19)
(1.29529 0.211141 6.86285e-21)
(1.30482 0.212353 1.29314e-19)
(1.3054 0.210333 -6.12342e-20)
(1.3008 0.206226 7.61401e-20)
(1.29358 0.200882 -9.41325e-20)
(1.28537 0.194875 3.19327e-20)
(1.27705 0.188571 9.48535e-22)
(1.26904 0.182181 1.39114e-19)
(1.26145 0.175689 -6.17602e-20)
(1.25423 0.16966 2.6308e-20)
(0.0492129 -0.00510174 5.10094e-20)
(0.177413 -0.007682 3.6718e-21)
(0.333091 0.00700565 1.01979e-19)
(0.505801 0.0334601 -6.33941e-20)
(0.682629 0.0677638 -6.48999e-20)
(0.849755 0.105548 -2.18359e-20)
(0.995307 0.142113 -8.78651e-21)
(1.11185 0.17364 2.56693e-19)
(1.19727 0.197903 -3.00028e-20)
(1.25393 0.214322 -1.40051e-19)
(1.28703 0.223579 1.09463e-21)
(1.3027 0.227052 2.44695e-20)
(1.3067 0.226306 -8.60836e-20)
(1.30365 0.222752 -4.58698e-21)
(1.29686 0.217486 -9.41082e-20)
(1.28845 0.21127 -1.36535e-19)
(1.27965 0.204589 -8.09455e-20)
(1.2711 0.197742 -1.58089e-19)
(1.26305 0.190875 -4.03389e-20)
(1.25549 0.183974 2.98483e-20)
(1.24826 0.177741 1.33283e-20)
(0.0592302 -0.00423146 -5.77513e-20)
(0.205326 -0.00309616 -7.80117e-20)
(0.376058 0.0171364 -2.14052e-19)
(0.559486 0.0495211 3.56323e-20)
(0.741257 0.0889025 1.33937e-19)
(0.90708 0.130011 6.26999e-20)
(1.04598 0.167792 -1.59031e-19)
(1.15247 0.198652 7.39737e-20)
(1.22665 0.22096 -1.77907e-20)
(1.27276 0.234821 -1.05254e-20)
(1.29711 0.241474 -5.44726e-20)
(1.30625 0.242642 7.15585e-20)
(1.30581 0.240028 -1.97264e-20)
(1.3 0.235037 1.57875e-20)
(1.29163 0.228685 1.24418e-20)
(1.2824 0.221634 -1.75165e-21)
(1.27325 0.214289 -2.47212e-21)
(1.26461 0.206888 -7.29432e-20)
(1.25657 0.199523 -6.47532e-20)
(1.24908 0.192207 5.42679e-20)
(1.24185 0.185712 -4.3267e-20)
(0.0699416 -0.00270142 1.61016e-19)
(0.234397 0.00328517 7.27848e-20)
(0.419674 0.0298158 7.68308e-20)
(0.612425 0.0683899 -2.68906e-20)
(0.797182 0.112589 1.18036e-19)
(0.959745 0.156379 -1.13582e-19)
(1.0906 0.194593 5.97248e-20)
(1.18647 0.224093 4.41435e-20)
(1.24969 0.243974 4.91305e-21)
(1.28611 0.255042 -3.60517e-20)
(1.30284 0.259044 -2.534e-20)
(1.30658 0.257965 3.31212e-20)
(1.30265 0.253578 -6.16342e-21)
(1.29476 0.247231 2.51209e-20)
(1.28528 0.239842 -3.53873e-20)
(1.27554 0.231976 -6.43669e-20)
(1.26621 0.223963 -1.99653e-20)
(1.25756 0.215989 4.27205e-20)
(1.24961 0.208103 -4.72717e-20)
(1.2422 0.200359 2.82881e-20)
(1.23501 0.193549 6.69007e-21)
(0.0812411 -0.00043683 -4.64018e-20)
(0.264264 0.01158 -6.51516e-20)
(0.463319 0.0450915 -6.46808e-20)
(0.663824 0.089975 -4.40032e-20)
(0.849634 0.138594 -1.95221e-20)
(1.00723 0.184349 4.95776e-20)
(1.129 0.222228 -1.50195e-20)
(1.21409 0.249752 2.6113e-20)
(1.26691 0.26683 -7.12177e-20)
(1.29462 0.274955 4.64273e-20)
(1.30485 0.276309 1.37692e-20)
(1.3042 0.273061 2.4392e-20)
(1.29756 0.266988 -2.0431e-20)
(1.28817 0.259351 2.43347e-20)
(1.27795 0.250958 1.30838e-20)
(1.2679 0.24228 6.443e-21)
(1.25852 0.233585 -5.97127e-21)