/*--------------------------------*- C++ -*----------------------------------*\
  =========                 |
  \\      /  F ield         | OpenFOAM: The Open Source CFD Toolbox
   \\    /   O peration     | Website:  https://openfoam.org
    \\  /    A nd           | Version:  7
     \\/     M anipulation  |
\*---------------------------------------------------------------------------*/
FoamFile
{
    version     2.0;
    format      ascii;
    class       volVectorField;
    location    "10";
    object      U;
}
// * * * * * * * * * * * * * * * * * * * * * * * * * * * * * * * * * * * * * //

dimensions      [0 1 -1 0 0 0 0];

internalField   nonuniform List<vector> 
36
(
(1.00776 0.0388734 0)
(1.00995 0.0348161 0)
(1.0115 0.0301187 0)
(1.01256 0.0250033 0)
(1.01326 0.0196281 0)
(1.01369 0.0141005 0)
(1.01394 0.00848932 0)
(1.01405 0.0028347 0)
(0.987486 0.0390464 -5.83107e-20)
(0.985517 0.034761 -6.6131e-21)
(0.984023 0.029978 6.59763e-21)
(0.982792 0.0250155 4.69309e-20)
(0.981907 0.0197687 -1.41901e-20)
(0.981267 0.014258 2.51019e-20)
(0.980849 0.00859946 -9.47372e-21)
(0.980644 0.00286768 -4.30547e-21)
(0.980644 -0.00286768 -3.53274e-21)
(0.980849 -0.00859946 9.14331e-21)
(0.981267 -0.014258 -6.12877e-21)
(0.981907 -0.0197687 2.17065e-21)
(0.982792 -0.0250155 -3.6973e-20)
(0.984023 -0.029978 -2.91389e-20)
(0.985517 -0.034761 1.07993e-20)
(0.987486 -0.0390464 6.79126e-20)
(0.996214 -0.0261544 4.15877e-28)
(0.99851 -0.0274441 0)
(1.00052 -0.0276772 0)
(1.0022 -0.0268602 0)
(1.00356 -0.0251593 0)
(1.00461 -0.0227818 0)
(1.00541 -0.0199028 0)
(1.00598 -0.0166619 2.89222e-28)
(1.00639 -0.013169 -1.35759e-11)
(1.00666 -0.00950763 1.35759e-11)
(1.00682 -0.00574046 0)
(1.0069 -0.00191858 0)
)
;

boundaryField
{
    inlet
    {
        type            uniformFixedValue;
        uniformValue    constant (1 0 0);
        value           nonuniform 0();
    }
    outlet
    {
        type            pressureInletOutletVelocity;
        value           nonuniform 0();
    }
    cylinder
    {
        type            fixedValue;
        value           nonuniform 0();
    }
    top
    {
        type            symmetryPlane;
    }
    bottom
    {
        type            symmetryPlane;
    }
    defaultFaces
    {
        type            empty;
    }
    procBoundary3to1
    {
        type            processor;
        value           nonuniform List<vector> 4((0.998264 -0.0150684 4.15904e-28) (0.999146 -0.016069 0) (0.999953 -0.0163916 0) (1.00064 -0.0160417 0));
    }
    procBoundary3to2
    {
        type            processor;
        value           nonuniform List<vector> 
33
(
(1.00356 0.0251593 2.16127e-11)
(1.00461 0.0227818 1.03383e-11)
(1.00541 0.0199028 -9.92685e-12)
(1.00598 0.0166619 -1.91563e-11)
(1.00639 0.013169 -9.2961e-12)
(1.00666 0.00950763 4.09938e-28)
(1.00682 0.00574046 0)
(1.0069 0.00191858 -2.68178e-28)
(0.994427 0.0238872 -3.57354e-20)
(0.993479 0.0211377 1.70998e-20)
(0.992758 0.0179809 7.61187e-21)
(0.992207 0.0149309 3.0173e-20)
(0.991773 0.0119099 8.64603e-21)
(0.99147 0.00858958 1.6741e-20)
(0.991277 0.00518867 -1.08552e-20)
(0.991189 0.00173575 -1.08334e-20)
(0.991189 -0.00173575 -5.65261e-21)
(0.991277 -0.00518867 1.02888e-20)
(0.99147 -0.00858958 -8.03165e-21)
(0.991773 -0.0119099 1.85466e-20)
(0.992207 -0.0149309 -2.81458e-20)
(0.992758 -0.0179809 -2.76707e-20)
(0.993479 -0.0211377 -2.91312e-20)
(0.994427 -0.0238872 4.39504e-20)
(0.994427 -0.0238872 4.39504e-20)
(1.00119 -0.0151243 0)
(1.0016 -0.0137613 0)
(1.00189 -0.012063 0)
(1.00209 -0.0101222 2.89222e-28)
(1.00222 -0.00801273 0)
(1.0023 -0.00579138 0)
(1.00235 -0.0035002 0)
(1.00237 -0.00117079 0)
)
;
    }
    procBoundary3to4
    {
        type            processor;
        value           nonuniform List<vector> 
35
(
(1.02237 0.0249859 0)
(1.02302 0.0179035 0)
(1.0234 0.0107561 0)
(1.02358 0.0035859 0)
(0.991163 0.0422391 0)
(1.00479 0.0419917 0)
(0.981707 0.055639 -4.4324e-20)
(0.977663 0.0492616 -4.98364e-20)
(0.974386 0.0423244 -8.96959e-21)
(0.971692 0.0352359 -1.91939e-20)
(0.969574 0.0277931 -6.37869e-21)
(0.96799 0.0200657 8.3413e-21)
(0.966935 0.0121274 -1.13621e-20)
(0.966401 0.00405579 5.79474e-21)
(0.966401 -0.00405579 -3.6195e-21)
(0.966935 -0.0121274 -3.81866e-21)
(0.96799 -0.0200657 1.60583e-20)
(0.969574 -0.0277931 1.91654e-20)
(0.971692 -0.0352359 -6.20694e-21)
(0.974386 -0.0423244 1.75629e-20)
(0.977663 -0.0492616 3.322e-20)
(0.981707 -0.055639 5.35727e-20)
(0.991163 -0.0422391 0)
(0.991163 -0.0422391 0)
(0.996321 -0.0439136 0)
(1.00097 -0.0437932 0)
(1.00479 -0.0419917 0)
(1.00776 -0.0388734 0)
(1.00995 -0.0348161 0)
(1.0115 -0.0301187 0)
(1.01256 -0.0250033 0)
(1.01326 -0.0196281 -1.29179e-11)
(1.01369 -0.0141005 1.29179e-11)
(1.01394 -0.00848932 0)
(1.01405 -0.0028347 0)
)
;
    }
    procBoundary3to5
    {
        type            processor;
        value           nonuniform List<vector> 4((1.01422 0.0506689 0) (1.01744 0.0449807 0) (1.01974 0.0386585 0) (1.02132 0.0319394 0));
    }
}


// ************************************************************************* //
