/*--------------------------------*- C++ -*----------------------------------*\
  =========                 |
  \\      /  F ield         | OpenFOAM: The Open Source CFD Toolbox
   \\    /   O peration     | Website:  https://openfoam.org
    \\  /    A nd           | Version:  7
     \\/     M anipulation  |
\*---------------------------------------------------------------------------*/
FoamFile
{
    version     2.0;
    format      ascii;
    class       surfaceScalarField;
    location    "40";
    object      phi;
}
// * * * * * * * * * * * * * * * * * * * * * * * * * * * * * * * * * * * * * //

dimensions      [0 3 -1 0 0 0 0];

internalField   nonuniform List<scalar> 
228
(
-2.58125e-05
2.56742e-05
-1.21398e-05
3.29438e-05
-1.5543e-05
-2.527e-05
3.89334e-05
5.00055e-05
-2.44304e-05
5.17641e-05
6.65336e-05
-2.33083e-05
6.40194e-05
8.23392e-05
-2.1924e-05
-3.68264e-05
9.72417e-05
0.000115004
-3.41337e-05
0.000111071
0.000131392
-3.10838e-05
0.000123672
0.000146304
-2.77353e-05
0.000134907
0.000159551
-2.41567e-05
0.000144661
0.000170962
-2.04245e-05
-2.98502e-05
0.000180387
0.000201866
-2.39338e-05
0.000187703
0.00020943
-1.79182e-05
0.000214202
-1.3696e-05
0.000216012
0.000229
-4.56587e-06
0.000225148
1.28869e-05
0.000216983
0.000214993
2.71447e-05
0.000196252
6.78885e-05
0.000170761
0.000143608
9.2272e-05
0.000136626
9.92535e-05
4.63237e-05
0.000175467
-2.55465e-05
0.000308095
-0.000223742
0.000510078
-0.000518546
0.000800559
-0.000929536
0.0011874
-0.00145974
0.00165255
-0.00208126
0.00214313
-0.00273244
0.00258329
-0.00333887
0.00290813
0.00313716
-0.00408181
0.0032685
0.00342433
0.00329423
0.0044331
0.00341982
0.00326019
0.00406606
0.00289658
0.00332602
0.00312582
0.00256993
0.00272229
0.0021294
0.00207492
0.00163978
0.00145762
0.00117616
0.000931191
0.000790514
0.000523116
0.000500509
0.000230433
0.000298437
3.38883e-05
0.000165594
-8.94624e-05
-3.60374e-05
8.24662e-05
-0.000159636
0.000124684
-0.00013168
5.63287e-05
-0.000182808
1.65676e-05
-0.000202301
-0.00019894
1.16288e-06
-0.000207815
-1.43622e-05
-0.000198004
-0.000208849
-2.3984e-05
-0.000193516
-2.57363e-05
-0.000167407
-0.000186033
-3.17704e-05
-0.000157669
-0.000175792
-2.57428e-05
-0.000123853
-3.75187e-05
-0.000145893
-2.92552e-05
-0.000112144
-0.000132255
-3.24997e-05
-9.90918e-05
-0.00011695
-3.54126e-05
-8.48479e-05
-0.000100187
-2.26718e-05
-5.41286e-05
-3.79393e-05
-6.95803e-05
-8.21852e-05
-2.39251e-05
-4.15852e-05
-4.00359e-05
-5.34694e-05
-2.49042e-05
-2.85327e-05
-3.67047e-05
-2.55913e-05
-1.51229e-05
-1.94815e-05
-2.59748e-05
-1.51237e-06
-1.99879e-06
-2.60488e-05
0.00165963
-0.0216422
0.001498
-0.0215282
0.00133923
-0.0214172
0.00118346
-0.0213141
0.0010305
-0.0212304
0.000879824
-0.021159
0.000730926
-0.0211072
0.000582911
-0.0210405
0.000436338
0.000290352
0.000145347
0.00323023
0.00301014
0.00280244
0.00260299
0.00241448
0.00223471
0.00206137
0.0018936
0.00173157
0.00157462
0.00142088
0.00126996
0.00112201
0.000976789
0.000833818
0.000692607
0.00323183
0.00301654
0.0028118
0.00261356
0.00242586
0.00224531
0.00207035
0.0019015
0.00173799
0.00157792
0.00142275
0.00127047
0.00112198
0.0213225
0.000976139
0.021244
0.000832521
0.0211767
0.000690683
0.0211108
0.000550432
0.0210511
0.000411768
0.0210136
0.000274224
0.0209944
0.000137054
0.0209709
0.0209478
0.00118364
0.00103004
0.000878688
0.000729139
0.00058121
0.000434877
0.000289643
0.000144773
)
;

boundaryField
{
    inlet
    {
        type            calculated;
        value           nonuniform 0();
    }
    outlet
    {
        type            calculated;
        value           nonuniform 0();
    }
    cylinder
    {
        type            calculated;
        value           nonuniform 0();
    }
    top
    {
        type            symmetryPlane;
        value           uniform 0;
    }
    bottom
    {
        type            symmetryPlane;
        value           uniform 0;
    }
    defaultFaces
    {
        type            empty;
        value           nonuniform 0();
    }
    procBoundary26to25
    {
        type            processor;
        value           nonuniform List<scalar> 
139
(
1.22781e-05
1.20108e-05
1.15997e-05
1.1053e-05
1.03819e-05
7.55615e-05
2.03042e-05
1.84828e-05
1.65001e-05
1.44031e-05
1.22435e-05
0.000152842
1.66184e-05
1.28149e-05
0.000192806
1.1886e-05
5.88613e-06
0.000214691
-4.72172e-06
-1.42831e-05
0.000204122
-4.23968e-05
-5.91461e-05
0.000137635
-0.0001199
4.36864e-05
-0.000220173
-0.000113469
-0.000377864
-0.000355955
-0.000612849
-0.000706255
-0.000939727
-0.00117721
-0.00135501
-0.00175728
-0.00182418
-0.00240021
-0.00228184
-0.00303389
-0.00265548
-0.00359152
-0.00384877
-0.00309536
-0.00425495
-0.00444942
-0.00329971
-0.0047615
-0.00456758
-0.00474472
-0.00315975
-0.00423984
-0.00357852
-0.0030864
-0.00383441
-0.00264407
-0.00302276
-0.00226945
-0.00239211
-0.0018122
-0.00175299
-0.00134441
-0.00117673
-0.00093062
-0.000708928
-0.000604702
-0.000360939
-0.000370004
-0.000120116
-0.000212209
3.57213e-05
-0.000111853
0.000128519
-5.13494e-05
-3.31571e-05
0.000191866
-6.13183e-06
4.35129e-06
0.000199266
1.31006e-05
1.94952e-05
0.00017495
1.81931e-05
2.20321e-05
0.000134086
1.55097e-05
1.75463e-05
1.94474e-05
2.11687e-05
6.60191e-05
1.07813e-05
1.13816e-05
1.18517e-05
1.21814e-05
1.23643e-05
1.23967e-05
-0.0210005
-0.0209626
-0.020955
-0.0209278
-0.0237464
-0.0232701
-0.0228627
-0.022553
-0.0222978
-0.022089
-0.0219106
-0.0217451
-0.0215989
-0.0214852
-0.0213744
-0.0212663
-0.0211662
-0.0210851
-0.021016
-0.020966
0.000552246
-0.0209001
-0.0236807
-0.0232115
-0.0228291
-0.0225216
-0.0222864
-0.0220817
-0.0219042
-0.021736
-0.0216133
-0.0214673
-0.0213682
-0.0212547
-0.021174
-0.0210981
-0.0210331
-0.0209689
-0.0209109
-0.020875
-0.0208569
-0.0208338
-0.0208107
)
;
    }
    procBoundary26to27
    {
        type            processor;
        value           nonuniform List<scalar> 
134
(
-4.32133e-05
-4.23317e-05
-4.09585e-05
-3.91139e-05
-9.73429e-05
-5.44879e-05
-5.05218e-05
-4.59956e-05
-4.0982e-05
-3.55675e-05
-0.000191694
-4.00219e-05
-3.14976e-05
-2.26902e-05
-0.000228854
-1.38416e-05
-7.14559e-07
-0.000227685
2.55793e-05
4.5885e-05
-0.000178171
0.000102452
-0.000104104
0.000194407
0.000247337
0.000113174
0.000418663
0.000356999
0.000671624
0.000707961
0.00102213
0.00117979
0.00146736
0.00176231
0.0019715
0.0024105
0.00246507
0.0030524
0.00286976
0.00361975
0.0038764
0.00334256
0.00429336
0.00342456
0.00463687
0.00461914
0.00341709
0.00427619
0.00360517
0.00333178
0.0038601
0.00285582
0.00304012
0.00244983
0.00240186
0.00195655
0.00175815
0.00145376
0.00118002
0.00100991
0.000711793
0.000660119
0.000363505
0.000407155
0.000121715
0.00023552
0.000180212
-9.15657e-05
8.84314e-05
-0.000163783
3.26996e-05
1.10059e-05
-0.000208783
-1.33287e-05
-2.70436e-05
-0.000205789
-3.32187e-05
-4.20112e-05
-5.02731e-05
-0.000163038
-4.28927e-05
-4.78047e-05
-5.2176e-05
-5.5941e-05
-5.9048e-05
-6.31731e-05
-4.16689e-05
-4.28144e-05
-4.34575e-05
-4.35906e-05
0.0218071
0.0216898
0.021576
0.0214699
0.0213833
0.0213097
0.0212561
0.0211885
0.0211471
0.0211085
0.0211
0.0210732
0.0239405
0.0234902
0.0230704
0.0227524
0.0224863
0.0222688
0.0220839
0.0219129
-0.00182454
0.021761
0.0238687
0.0234267
0.0230339
0.0227198
0.0224741
0.0222622
0.0220791
0.0219049
0.0217768
0.0216274
0.0215233
0.021407
-0.00133994
0.0214788
0.0213976
0.021328
0.0212603
0.021199
0.02116
0.0211397
0.0211158
0.0210926
)
;
    }
}


// ************************************************************************* //
