/*--------------------------------*- C++ -*----------------------------------*\
  =========                 |
  \\      /  F ield         | OpenFOAM: The Open Source CFD Toolbox
   \\    /   O peration     | Website:  https://openfoam.org
    \\  /    A nd           | Version:  7
     \\/     M anipulation  |
\*---------------------------------------------------------------------------*/
FoamFile
{
    version     2.0;
    format      ascii;
    class       volVectorField;
    location    "40";
    object      U;
}
// * * * * * * * * * * * * * * * * * * * * * * * * * * * * * * * * * * * * * //

dimensions      [0 1 -1 0 0 0 0];

internalField   nonuniform List<vector> 
183
(
(0.584245 -0.0938668 -3.2988e-24)
(0.582879 -0.0739735 -1.31979e-25)
(0.600973 -0.0940013 -1.01079e-24)
(0.593722 -0.0747059 -5.78434e-24)
(0.620011 -0.0936691 -5.38151e-24)
(0.607462 -0.0749072 1.8733e-23)
(0.640904 -0.0929385 6.60015e-24)
(0.623769 -0.0746218 -7.30305e-24)
(0.663184 -0.0918851 -1.88093e-23)
(0.642261 -0.0739066 8.04316e-26)
(0.686382 -0.0905881 1.30135e-23)
(0.662517 -0.072828 8.33227e-23)
(0.710052 -0.0891255 4.25723e-24)
(0.684101 -0.0714585 -1.42008e-22)
(0.733788 -0.0875704 -6.3783e-23)
(0.706574 -0.0698731 1.10442e-22)
(0.75723 -0.0859883 4.9402e-23)
(0.729518 -0.0681455 1.86865e-24)
(0.780078 -0.0844344 -2.42522e-23)
(0.752542 -0.0663454 -1.54283e-22)
(0.802091 -0.0829525 -7.48316e-23)
(0.7753 -0.0645353 3.20722e-22)
(0.823089 -0.0815744 7.67292e-23)
(0.797496 -0.0627689 -2.36384e-22)
(0.842949 -0.0803207 -1.73496e-23)
(0.818888 -0.06109 2.08403e-23)
(0.861595 -0.0792012 3.56695e-23)
(0.839288 -0.0595316 -3.95871e-23)
(0.878998 -0.0782174 -6.74268e-23)
(0.858561 -0.0581164 -7.31247e-23)
(0.895159 -0.0773633 8.19381e-23)
(0.876621 -0.0568576 1.35067e-22)
(0.910108 -0.0766266 -6.44427e-23)
(0.893423 -0.0557588 2.23838e-23)
(0.923891 -0.0759908 -1.03447e-24)
(0.908957 -0.0548166 -2.25067e-23)
(0.936568 -0.0754473 -2.16573e-23)
(0.923243 -0.0540273 1.61919e-22)
(0.948208 -0.0750064 -5.36873e-24)
(0.93632 -0.0533916 -1.12327e-22)
(0.958883 -0.074628 9.36195e-24)
(0.948249 -0.0528729 9.81547e-24)
(0.98841 -0.0732327 0)
(0.980901 -0.0513516 0)
(1.01859 -0.0697017 0)
(1.01247 -0.0486156 0)
(1.03509 -0.0652615 0)
(1.02956 -0.0464634 0)
(1.04494 -0.0608573 0)
(1.03942 -0.0444146 0)
(1.03643 -0.031227 0)
(1.05113 -0.0561536 0)
(1.04553 -0.0420923 0)
(1.04173 -0.0307504 0)
(1.05526 -0.0516657 0)
(1.04962 -0.0397167 0)
(1.0452 -0.0299514 0)
(1.05809 -0.0472952 0)
(1.05246 -0.0372047 0)
(1.04757 -0.0288068 0)
(1.05999 -0.0430984 0)
(1.05444 -0.034614 0)
(1.04918 -0.0273995 0)
(1.06117 -0.0390896 0)
(1.05574 -0.0319767 0)
(1.0502 -0.0257882 0)
(1.06176 -0.0352595 0)
(1.05649 -0.0293131 0)
(1.05073 -0.0240184 0)
(1.06188 -0.0316 0)
(1.05678 -0.0266442 0)
(1.05086 -0.0221303 0)
(1.06164 -0.0281006 0)
(1.05672 -0.0239858 0)
(1.05068 -0.0201557 0)
(1.06114 -0.0247483 0)
(1.05641 -0.0213489 0)
(1.05029 -0.0181197 0)
(1.06051 -0.0215283 0)
(1.05595 -0.0187399 0)
(1.04977 -0.0160407 0)
(1.05982 -0.0184244 0)
(1.05541 -0.016161 0)
(1.0492 -0.0139325 0)
(1.05912 -0.0154204 0)
(1.05484 -0.0136123 0)
(1.04861 -0.011805 0)
(1.05844 -0.012501 0)
(1.05429 -0.0110923 0)
(1.04805 -0.00966619 0)
(1.05785 -0.00965136 0)
(1.0538 -0.00859841 0)
(1.04755 -0.00752152 0)
(1.0534 -0.00612557 0)
(1.04715 -0.00537418 0)
(1.05312 -0.00366792 0)
(1.04687 -0.00322564 0)
(1.05298 -0.00122105 0)
(1.04673 -0.00107556 0)
(0.946458 -0.00228105 0)
(1.03136 0.0056708 0)
(1.07702 0.00915819 0)
(1.09455 0.01071 0)
(1.09751 0.0115482 0)
(1.09467 0.0120062 0)
(1.09018 0.0122815 0)
(1.0856 0.01239 0)
(1.08137 0.0123171 0)
(1.07757 0.0120625 0)
(1.07418 0.0116311 0)
(1.07117 0.0110307 0)
(1.0685 0.0102746 0)
(1.06614 0.00937864 0)
(1.06406 0.00836066 0)
(1.06225 0.00723986 0)
(1.06074 0.00603503 0)
(1.05954 0.0047628 0)
(1.05864 0.00343865 0)
(1.05804 0.0020781 0)
(1.05773 0.000695354 0)
(0.970934 0.0171912 0)
(1.04208 0.0235095 0)
(1.08006 0.0248476 0)
(1.09449 0.0240758 0)
(1.09667 0.0226183 0)
(1.09389 0.0210598 0)
(1.08961 0.0196246 0)
(1.08517 0.0183057 0)
(1.08099 0.0170551 0)
(1.07717 0.0158357 0)
(1.07371 0.0146161 0)
(1.0706 0.013375 0)
(1.06782 0.0121009 0)
(1.06534 0.0107883 0)
(1.06316 0.00943683 0)
(1.06126 0.00804976 0)
(1.05967 0.00663176 0)
(1.0584 0.00518712 0)
(1.05746 0.00372029 0)
(1.05682 0.00223721 0)
(1.0565 0.000746241 0)
(0.873882 -0.0113284 3.13431e-23)
(0.909454 0.00938089 -1.19041e-22)
(0.848627 -0.0146303 1.39603e-22)
(0.887806 0.00642542 1.02171e-22)
(0.822431 -0.0182988 -2.28712e-22)
(0.865091 0.00311373 -8.69294e-23)
(0.795577 -0.0223426 -5.11387e-22)
(0.841495 -0.000551671 2.72862e-22)
(0.768377 -0.0267317 4.85477e-22)
(0.817229 -0.00455651 2.94228e-22)
(0.74117 -0.031429 -8.24093e-22)
(0.792529 -0.00887547 -3.98605e-22)
(0.714317 -0.0363893 4.80125e-22)
(0.767656 -0.0134754 2.18697e-22)
(0.688193 -0.0415572 -9.99379e-23)
(0.742891 -0.0183137 -3.36037e-22)
(0.663186 -0.0468673 -9.18888e-23)
(0.718536 -0.023338 -1.61631e-25)
(0.639687 -0.0522459 -1.82747e-22)
(0.694911 -0.0284879 3.00906e-22)
(0.618088 -0.0576122 2.35456e-22)
(0.672348 -0.0336958 -4.41443e-22)
(0.598765 -0.0628809 -1.42874e-23)
(0.651193 -0.0388889 3.64732e-22)
(0.582079 -0.0679643 -4.44548e-22)
(0.631794 -0.0439898 1.39755e-22)
(0.568355 -0.0727754 2.31071e-22)
(0.614494 -0.0489191 -1.55626e-22)
(0.557876 -0.0772311 8.00616e-23)
(0.599626 -0.0535978 1.92409e-22)
(0.550865 -0.081256 -4.30709e-23)
(0.587496 -0.0579492 -1.69702e-22)
(0.547476 -0.0847856 8.55964e-23)
(0.578372 -0.0619028 1.82924e-23)
(0.547782 -0.0877698 -2.59144e-24)
(0.572468 -0.0653965 4.12753e-24)
(0.551767 -0.0901749 6.68869e-24)
(0.569934 -0.0683793 -3.31179e-23)
(0.55932 -0.0919864 -2.64463e-24)
(0.570846 -0.0708144 9.50543e-24)
(0.570241 -0.0932091 -5.94668e-24)
(0.575192 -0.0726806 4.12845e-25)
)
;

boundaryField
{
    inlet
    {
        type            uniformFixedValue;
        uniformValue    constant (1 0 0);
        value           nonuniform 0();
    }
    outlet
    {
        type            pressureInletOutletVelocity;
        value           nonuniform 0();
    }
    cylinder
    {
        type            fixedValue;
        value           nonuniform 0();
    }
    top
    {
        type            symmetryPlane;
    }
    bottom
    {
        type            symmetryPlane;
    }
    defaultFaces
    {
        type            empty;
    }
    procBoundary45to44
    {
        type            processor;
        value           nonuniform List<vector> 
85
(
(0.575608 -0.0983587 7.84744e-25)
(0.596278 -0.0988819 -1.89815e-23)
(0.618681 -0.0991273 1.60022e-23)
(0.642306 -0.099158 1.1558e-22)
(0.666663 -0.0990368 -1.24705e-22)
(0.691305 -0.0988228 -1.49266e-22)
(0.715842 -0.0985675 9.46541e-23)
(0.739948 -0.098313 -2.4198e-22)
(0.763366 -0.0980902 -2.64601e-23)
(0.785905 -0.0979187 2.0593e-22)
(0.807434 -0.0978075 1.16119e-22)
(0.827875 -0.0977562 5.33161e-23)
(0.84719 -0.097757 -2.17863e-22)
(0.865376 -0.0977968 -3.04732e-23)
(0.88245 -0.0978595 2.25823e-22)
(0.898444 -0.0979271 9.30232e-23)
(0.913397 -0.0979795 -1.29392e-22)
(0.927354 -0.0979984 3.37626e-22)
(0.940359 -0.0979906 1.61578e-22)
(0.952459 -0.0979931 -2.46441e-22)
(0.963701 -0.0979045 3.05927e-22)
(0.995255 -0.0964291 0)
(1.02965 -0.0906441 0)
(1.04794 -0.0830643 0)
(1.05827 -0.0759072 0)
(1.06419 -0.068642 0)
(1.06774 -0.062028 0)
(1.0699 -0.0558779 0)
(1.07114 -0.0501899 0)
(1.0717 -0.044939 0)
(1.07174 -0.0400734 0)
(1.07135 -0.035551 0)
(1.07066 -0.0313331 0)
(1.06978 -0.0273822 0)
(1.06881 -0.0236621 0)
(1.06783 -0.0201378 0)
(1.06688 -0.0167766 0)
(1.06601 -0.0135496 0)
(1.06526 -0.01043 0)
(1.05738 -0.00685596 0)
(1.05738 -0.00685596 0)
(1.05705 -0.00409892 0)
(1.05688 -0.00136396 0)
(0.922885 -0.016595 0)
(1.0187 -0.00911263 0)
(1.06985 -0.00390756 0)
(1.0899 -0.000132752 0)
(1.09419 0.00309878 0)
(1.09231 0.0056551 0)
(1.0887 0.00762797 0)
(1.08495 0.00905592 0)
(1.0815 0.00999328 0)
(1.07841 0.0104998 0)
(1.07566 0.0106344 0)
(1.07321 0.0104481 0)
(1.07104 0.00998721 0)
(1.0691 0.00929356 0)
(1.06737 0.0084055 0)
(1.06586 0.00735826 0)
(1.06458 0.00618369 0)
(1.06356 0.00490886 0)
(1.06279 0.00355783 0)
(1.06228 0.00215387 0)
(1.06201 0.000720805 0)
(0.840042 -0.0250052 -2.22877e-22)
(0.811468 -0.0279825 1.34362e-22)
(0.782082 -0.0312802 -5.98261e-23)
(0.752243 -0.0349226 -2.30135e-22)
(0.72235 -0.0388709 -3.37172e-22)
(0.692828 -0.0430864 6.90028e-23)
(0.664122 -0.047526 1.4365e-23)
(0.636691 -0.0521369 4.2584e-23)
(0.610995 -0.0568568 -4.10764e-23)
(0.587486 -0.0616162 5.62596e-23)
(0.566598 -0.0663407 -2.93265e-23)
(0.548731 -0.0709532 -3.03117e-23)
(0.534243 -0.0753774 3.12684e-23)
(0.523431 -0.0795408 -1.29488e-22)
(0.516515 -0.0833782 2.39402e-22)
(0.513629 -0.0868344 -1.69682e-22)
(0.514808 -0.0898677 -2.3978e-24)
(0.519979 -0.0924517 5.83576e-23)
(0.528966 -0.0945769 -6.12019e-25)
(0.54149 -0.0962511 -1.98628e-23)
(0.557183 -0.0974987 -8.0766e-25)
)
;
    }
    procBoundary45to46
    {
        type            processor;
        value           nonuniform List<vector> 
85
(
(0.603463 -0.0567126 2.32964e-24)
(0.609435 -0.0580512 3.85856e-24)
(0.618402 -0.0588485 -6.27134e-24)
(0.630173 -0.0591216 4.38053e-23)
(0.644489 -0.058902 -4.7926e-23)
(0.661037 -0.0582342 6.3858e-23)
(0.679457 -0.0571734 -6.53442e-23)
(0.699363 -0.0557829 -6.08869e-23)
(0.720353 -0.0541309 -1.33841e-22)
(0.742028 -0.0522876 5.01723e-23)
(0.764005 -0.050322 -1.17519e-22)
(0.785928 -0.0482994 1.48595e-22)
(0.807481 -0.0462792 8.71725e-23)
(0.828392 -0.0443127 -1.75413e-22)
(0.848437 -0.0424428 -7.67635e-24)
(0.867445 -0.040703 2.22916e-22)
(0.885292 -0.0391177 7.40064e-24)
(0.901898 -0.0377013 -1.15297e-22)
(0.917225 -0.0364589 -1.06953e-22)
(0.931273 -0.0353935 -1.24455e-22)
(0.944066 -0.0345224 -7.52346e-23)
(0.978854 -0.0325612 0)
(1.01098 -0.0314439 0)
(1.0275 -0.0313017 0)
(1.0275 -0.0313017 0)
(1.03828 -0.0174146 0)
(1.04308 -0.0186375 0)
(1.04576 -0.0194401 0)
(1.04739 -0.0197462 0)
(1.04839 -0.0196179 0)
(1.04893 -0.0191241 0)
(1.04911 -0.0183296 0)
(1.04898 -0.0172928 0)
(1.04861 -0.0160627 0)
(1.04809 -0.0146793 0)
(1.04749 -0.0131746 0)
(1.04685 -0.0115742 0)
(1.04623 -0.00989906 0)
(1.04565 -0.0081668 0)
(1.04514 -0.00639199 0)
(1.04474 -0.00458617 0)
(1.04446 -0.00275908 0)
(1.04431 -0.000920669 0)
(0.987227 0.0285669 0)
(1.04669 0.033186 0)
(1.07798 0.0330657 0)
(1.08966 0.0310009 0)
(1.09118 0.0283703 0)
(1.0885 0.0257839 0)
(1.08449 0.0234498 0)
(1.08027 0.0213555 0)
(1.07624 0.0194507 0)
(1.07248 0.0176882 0)
(1.06904 0.0160243 0)
(1.06591 0.014426 0)
(1.06309 0.01287 0)
(1.06056 0.011339 0)
(1.05832 0.00982164 0)
(1.05638 0.00831132 0)
(1.05474 0.00680382 0)
(1.05344 0.00529598 0)
(1.05246 0.00378592 0)
(1.0518 0.00227353 0)
(1.05147 0.000758423 0)
(0.935012 0.0223719 -6.19498e-23)
(0.916462 0.0199589 -3.15983e-22)
(0.896851 0.0172243 1.18211e-22)
(0.876301 0.014172 3.02443e-23)
(0.85496 0.0108014 2.8653e-22)
(0.832999 0.00712394 -4.66369e-22)
(0.810613 0.00315761 4.29792e-23)
(0.788019 -0.00106471 3.02015e-23)
(0.765456 -0.00550236 -7.4938e-23)
(0.743182 -0.0101158 -2.10954e-22)
(0.721474 -0.0148559 8.56717e-23)
(0.700626 -0.0196637 -7.61798e-23)
(0.680942 -0.0244749 8.29791e-23)
(0.662736 -0.0292214 5.47252e-25)
(0.64632 -0.0338321 6.4495e-23)
(0.631999 -0.0382351 -7.40595e-23)
(0.620061 -0.0423594 7.47297e-23)
(0.610763 -0.0461378 -2.73174e-23)
(0.604322 -0.0495089 -7.36025e-24)
(0.600902 -0.0524205 -3.70752e-24)
(0.600605 -0.0548312 -1.26484e-24)
)
;
    }
}


// ************************************************************************* //
