/*--------------------------------*- C++ -*----------------------------------*\
  =========                 |
  \\      /  F ield         | OpenFOAM: The Open Source CFD Toolbox
   \\    /   O peration     | Website:  https://openfoam.org
    \\  /    A nd           | Version:  7
     \\/     M anipulation  |
\*---------------------------------------------------------------------------*/
FoamFile
{
    version     2.0;
    format      ascii;
    class       surfaceScalarField;
    location    "40";
    object      phi;
}
// * * * * * * * * * * * * * * * * * * * * * * * * * * * * * * * * * * * * * //

dimensions      [0 3 -1 0 0 0 0];

internalField   nonuniform List<scalar> 
278
(
0.00196684
0.00125185
-0.00150669
-0.00131056
0.00109945
0.00204799
0.000974631
-0.00153028
0.00213557
0.000679986
-0.00175601
0.00222752
0.00037274
-0.00198524
0.00232203
5.74274e-05
-0.00221559
0.00241758
-0.000261751
-0.00244485
0.00251305
-0.000581189
0.00273911
-0.00267091
-0.00377935
0.00260745
-0.000897656
0.00282843
-0.00289189
-0.00391268
0.00270004
-0.00120835
0.00291426
-0.0031061
-0.00404227
0.0027902
-0.00151084
0.00299618
-0.00331207
-0.00416711
0.00287741
-0.00180306
0.00307389
-0.00350856
-0.00428629
0.00296117
-0.00208323
0.00314714
-0.00369452
-0.004399
0.00304105
0.0032157
-0.00386917
-0.0045046
0.00327935
-0.0040319
-0.00460265
0.0033379
-0.00418234
-0.00469289
0.00339115
-0.00432029
-0.00477525
0.00343895
-0.00444576
-0.00484985
0.00348116
-0.00455896
-0.00491698
0.00351763
-0.00466026
-0.00497706
0.00354838
-0.00475026
-0.00503066
0.00357366
-0.00483005
-0.00507812
0.0200279
-0.00494927
-0.00498337
0.0211619
-0.00470433
-0.00464313
0.0217176
-0.00425201
-0.00418699
0.0219379
-0.00374998
-0.00371641
0.0219913
-0.00327606
-0.00327702
0.0219725
-0.00285525
-0.00288289
0.021926
-0.00248919
-0.00253406
0.0218691
-0.00217159
-0.00222583
0.0218086
-0.00189473
-0.00195258
0.0217476
-0.00165144
-0.00170897
0.0216871
-0.00143563
-0.00149025
0.0216284
-0.00124227
-0.00129243
0.0215728
-0.00106726
-0.00111204
0.0215218
-0.000907078
-0.000946029
0.0214762
-0.00075871
-0.000791691
0.0214364
-0.00061964
-0.000646704
0.0214023
-0.000487793
-0.000509093
0.0213745
-0.000361395
-0.000377117
0.0213535
-0.000238876
-0.000249198
0.0213394
-0.000118846
-0.000123898
0.0213322
0.000665812
0.017731
-0.000466469
0.000560822
0.0195933
0.000297211
0.0205174
1.08639e-05
0.0209165
-0.000232408
0.0210781
-0.000415531
0.0211492
-0.000542044
0.0211858
-0.000621452
0.021207
-0.000663117
0.021219
-0.000674983
0.0212239
-0.000663467
0.0212235
-0.000633676
0.021219
-0.000589636
0.0212117
-0.000534541
0.0212023
-0.000470949
0.0211912
-0.000400898
0.0211795
-0.000325974
0.0211684
-0.000247417
0.021159
-0.000166284
0.0211517
-8.35488e-05
0.0211464
0.0211436
0.00109492
-0.00112175
0.000924508
0.00064781
0.000351562
8.97387e-05
-0.000117972
-0.000271752
-0.000378841
-0.000447474
-0.000485058
-0.000497736
-0.000490482
-0.000467291
-0.000431407
-0.000385503
-0.000331784
-0.000272041
-0.000207744
-0.000140182
-7.05452e-05
0.00308225
-0.00043603
-0.00115124
0.0029849
-0.000392516
-0.00117889
0.00287971
-0.000338429
-0.00120651
0.00276839
-0.000276906
-0.00123608
0.00265304
-0.00021153
-0.0012695
0.00253608
-0.000146196
-0.00130853
0.00242018
-8.49652e-05
-0.00135469
0.0023612
0.00168222
0.00230814
-3.19019e-05
-0.00140917
0.00224385
0.00184032
0.00220284
9.10987e-06
-0.00147277
0.00213247
0.0019869
0.00210704
3.45444e-05
-0.00154588
0.00203017
0.00211527
0.00202332
4.13974e-05
-0.00162851
0.00193981
0.00221914
0.00195397
2.72447e-05
-0.00172027
0.00186395
0.00229291
0.00190083
-9.63843e-06
-0.00182049
0.00180466
0.0023319
0.00186524
-7.02159e-05
-0.00192829
0.00176343
0.00233261
0.00184792
-0.000154706
0.00174109
0.00229287
-0.00026263
0.00173776
0.00221192
-0.000392889
0.00175288
0.00209038
-0.000543866
0.00178524
0.00193017
-0.000713533
0.00183312
0.00173431
-0.000899565
0.00189443
)
;

boundaryField
{
    inlet
    {
        type            calculated;
        value           nonuniform 0();
    }
    outlet
    {
        type            calculated;
        value           nonuniform 0();
    }
    cylinder
    {
        type            calculated;
        value           nonuniform 0();
    }
    top
    {
        type            symmetryPlane;
        value           uniform 0;
    }
    bottom
    {
        type            symmetryPlane;
        value           uniform 0;
    }
    defaultFaces
    {
        type            empty;
        value           nonuniform 0();
    }
    procBoundary43to42
    {
        type            processor;
        value           nonuniform List<scalar> 
86
(
-0.001712
-0.00177077
-0.00184093
-0.00192027
-0.00200671
-0.0020984
-0.00219361
-0.00229099
-0.00238935
-0.00248771
-0.00258519
-0.00268101
-0.00277445
-0.00234983
-0.00311662
-0.00318746
-0.0032532
-0.00331348
-0.00336796
-0.00341632
-0.00345839
-0.00349388
-0.0199087
-0.0214069
-0.02217
-0.0224399
-0.0224652
-0.0223933
-0.0222921
-0.0221867
-0.0220855
-0.0219908
-0.021903
-0.0218218
-0.0217478
-0.021682
-0.0216246
-0.0215754
-0.0215341
-0.0215009
-0.021476
-0.0214594
-0.0214511
-0.0179304
-0.0194883
-0.0202538
-0.0206301
-0.0208349
-0.0209661
-0.0210593
-0.0211276
-0.0211773
-0.0212121
-0.021235
-0.0212488
-0.0212557
-0.0212574
-0.0212548
-0.0212496
-0.0212434
-0.0212376
-0.0212328
-0.0212292
-0.0212272
-0.00311269
-0.00302841
-0.00293379
-0.00282991
-0.00271842
-0.00260142
-0.00248141
-0.0015193
-0.00252412
-0.00240195
-0.00227905
-0.00215854
-0.00204369
-0.00193772
-0.00184365
-0.00176414
-0.00170136
-0.00165681
-0.00163134
-0.00162502
-0.00163726
-0.00166682
)
;
    }
    procBoundary43to44
    {
        type            processor;
        value           nonuniform List<scalar> 
86
(
0.00217796
0.0022677
0.0023613
0.00245675
0.00255238
0.00264684
0.00364327
0.00287519
0.00296177
0.00304384
0.00312102
0.00319307
0.00325985
0.0033213
0.0033774
0.00342813
0.00347351
0.00351356
0.00354829
0.00357771
0.00360198
0.00362113
0.0199332
0.0208217
0.0212615
0.0214673
0.0215519
0.0215784
0.0215772
0.0215608
0.0215354
0.0215039
0.0214684
0.0214306
0.0213924
0.0213558
0.0213219
0.0212914
0.0212647
0.0212425
0.0212255
0.0212141
0.0212083
0.0177579
0.0197637
0.0207941
0.0212127
0.02134
0.0213569
0.0213396
0.0213141
0.0212876
0.0212615
0.0212361
0.0212117
0.0211885
0.0211664
0.0211453
0.0211258
0.0211087
0.0210947
0.0210841
0.0210768
0.0210731
0.00311174
0.00301255
0.00290734
0.00279795
0.00268646
0.00257511
0.00246634
0.00236262
0.00226643
0.00218015
0.00210595
0.00204573
0.00200105
0.00197303
0.00196228
-0.00204264
0.00184902
0.00186802
0.00190385
0.0019549
0.00201915
0.00209431
)
;
    }
}


// ************************************************************************* //
