/*--------------------------------*- C++ -*----------------------------------*\
  =========                 |
  \\      /  F ield         | OpenFOAM: The Open Source CFD Toolbox
   \\    /   O peration     | Website:  https://openfoam.org
    \\  /    A nd           | Version:  7
     \\/     M anipulation  |
\*---------------------------------------------------------------------------*/
FoamFile
{
    version     2.0;
    format      ascii;
    class       volVectorField;
    location    "80";
    object      U;
}
// * * * * * * * * * * * * * * * * * * * * * * * * * * * * * * * * * * * * * //

dimensions      [0 1 -1 0 0 0 0];

internalField   nonuniform List<vector> 
183
(
(1.26027 0.209125 -4.68787e-21)
(1.24822 0.198844 -4.53967e-21)
(1.23704 0.189046 2.82316e-20)
(1.22643 0.180009 1.29611e-20)
(1.216 0.172169 1.29721e-20)
(0.957567 0.203747 -1.12071e-19)
(1.13162 0.257199 1.85464e-20)
(1.25002 0.294431 5.65006e-20)
(1.31986 0.315262 1.10962e-20)
(1.3528 0.322432 -9.61005e-20)
(1.36106 0.319834 3.03868e-21)
(1.35481 0.311157 -5.4919e-20)
(1.34125 0.29923 8.39302e-20)
(1.32481 0.285911 -8.90344e-20)
(1.30787 0.272267 5.75887e-21)
(1.2916 0.25885 -2.62011e-20)
(1.27644 0.24591 3.70511e-20)
(1.26255 0.233555 6.89617e-20)
(1.24989 0.221833 2.00117e-20)
(1.23833 0.210714 1.44713e-21)
(1.22763 0.200105 -1.9316e-20)
(1.21748 0.190316 2.78213e-20)
(1.20752 0.181843 7.07295e-22)
(0.171829 0.0274468 -5.99917e-20)
(0.48427 0.0920358 -1.24475e-19)
(0.760543 0.168005 4.20904e-20)
(0.986199 0.238014 2.22783e-19)
(1.15277 0.292458 -1.95339e-19)
(1.26177 0.328006 1.32206e-20)
(1.32273 0.345789 1.11778e-19)
(1.34869 0.349583 -4.68054e-20)
(1.35224 0.343891 1.00721e-20)
(1.34327 0.332636 3.74049e-20)
(1.32842 0.318639 4.0169e-21)
(1.31159 0.303651 1.9635e-20)
(1.29477 0.288622 6.67411e-20)
(1.27885 0.274008 9.56884e-21)
(0.183124 0.0358652 6.92154e-20)
(0.508175 0.113961 2.29963e-19)
(0.787911 0.198902 1.13213e-19)
(1.00985 0.273164 1.5461e-20)
(1.16847 0.327943 -7.6126e-20)
(1.26829 0.361293 -1.29032e-19)
(1.32106 0.375729 1.39468e-19)
(1.34091 0.37604 2.21007e-19)
(0.193672 0.045035 -3.18864e-20)
(0.5296 0.137217 -3.48815e-19)
(0.811212 0.230908 1.82799e-19)
(1.02841 0.308821 -1.03085e-19)
(0.18521 -0.0437653 4.26841e-21)
(0.517979 -0.137249 3.27441e-19)
(0.804284 -0.235457 -4.34747e-20)
(1.02932 -0.318766 1.93001e-20)
(0.173559 -0.0347285 8.94641e-20)
(0.494011 -0.114025 3.11008e-19)
(0.777829 -0.203346 6.26987e-21)
(1.00773 -0.283011 -1.30876e-19)
(1.17463 -0.342706 -7.32541e-20)
(1.28119 -0.379754 1.4718e-19)
(1.33866 -0.396551 -5.96184e-20)
(1.36153 -0.398115 -1.10814e-20)
(1.36309 -0.389816 -6.12554e-20)
(0.161166 -0.0265177 -7.23403e-20)
(0.467473 -0.0922854 -9.79336e-20)
(0.747088 -0.172509 -2.65049e-19)
(0.980733 -0.247906 4.47844e-20)
(1.15616 -0.307409 1.5849e-19)
(1.27268 -0.346895 3.58892e-20)
(1.33912 -0.367283 -6.09697e-20)
(1.36871 -0.372522 -1.04371e-19)
(1.3746 -0.367428 5.80993e-20)
(1.36722 -0.356215 -9.18745e-21)
(1.35362 -0.34191 -4.89073e-20)
(1.33789 -0.326374 9.04254e-20)
(1.32209 -0.31061 -3.01903e-20)
(1.30714 -0.2951 -2.66578e-20)
(1.29337 -0.280055 -3.69502e-20)
(1.13186 -0.272472 1.10626e-19)
(1.25861 -0.313868 -1.29595e-19)
(1.33478 -0.337555 6.6284e-20)
(1.37206 -0.346374 4.6697e-20)
(1.38318 -0.344504 4.675e-21)
(1.3789 -0.335931 -3.66068e-20)
(1.36684 -0.323703 -2.54239e-20)
(1.35169 -0.309809 -7.68972e-20)
(1.33595 -0.295384 3.93503e-20)
(1.32079 -0.281004 -2.44842e-20)
(1.30669 -0.266943 4.61353e-20)
(1.29378 -0.253326 -5.66387e-20)
(1.28204 -0.240224 -1.69431e-20)
(1.27133 -0.227641 3.7681e-20)
(1.26139 -0.215507 -3.9652e-20)
(1.25186 -0.204177 -2.82278e-20)
(1.24228 -0.194131 8.05626e-22)
(1.29381 -0.228412 4.5188e-21)
(1.2827 -0.216522 -3.51821e-20)
(1.27233 -0.205034 3.24489e-20)
(1.26238 -0.19426 -4.75639e-21)
(1.25237 -0.184652 -1.1898e-20)
(1.19129 0.140932 -7.17002e-22)
(1.15594 0.127573 3.84016e-21)
(1.13967 0.0997526 -2.13826e-21)
(1.1242 0.0918901 1.28329e-21)
(1.11254 0.0770268 1.26169e-21)
(1.10457 0.0686606 -3.79e-22)
(1.09617 0.0608107 -8.16429e-22)
(1.08895 0.0533301 2.50281e-22)
(1.08439 0.0467449 1.88144e-22)
(1.07997 0.0415219 -2.84627e-22)
(1.07521 0.0368292 -6.50621e-23)
(1.07039 0.0327773 9.06317e-23)
(1.06637 0.0278081 -1.15678e-23)
(1.06383 0.0248131 7.1049e-24)
(1.05996 0.0202639 1.47791e-23)
(1.05914 0.0174606 7.69903e-23)
(1.05533 0.0143303 2.46454e-23)
(1.05415 0.0108871 8.48955e-23)
(1.05228 0.0076174 9.1233e-23)
(1.05305 0.00414292 -3.87499e-23)
(1.05095 0.00263425 1.63319e-22)
(1.18449 0.147662 4.71006e-21)
(1.15141 0.133379 -7.83339e-21)
(1.13606 0.103526 2.03467e-21)
(1.12159 0.0948794 1.74236e-21)
(1.11018 0.0792369 -2.26101e-23)
(1.10275 0.0703303 -5.516e-23)
(1.09454 0.0622633 5.97172e-22)
(1.08742 0.0544579 -9.2661e-23)
(1.08308 0.0475901 9.26888e-23)
(1.07887 0.0422482 3.34887e-22)
(1.07423 0.0375351 4.10997e-22)
(1.06944 0.0334179 -6.20982e-23)
(1.06546 0.0283083 1.78663e-23)
(1.063 0.0252751 -1.15604e-23)
(1.05914 0.0205904 -8.90752e-23)
(1.05847 0.0177764 -1.36133e-22)
(1.05458 0.0146481 -9.77479e-23)
(1.0534 0.0111147 -3.05828e-22)
(1.05154 0.00770208 -1.65705e-22)
(1.05245 0.00421841 -8.00717e-23)
(1.0502 0.0027663 -3.896e-22)
(1.21948 -0.155911 -4.11567e-21)
(1.1866 -0.135679 2.45944e-21)
(1.1698 -0.0998516 -1.65837e-21)
(1.15073 -0.0880021 1.16876e-21)
(1.13691 -0.0693373 -7.03956e-23)
(1.12256 -0.0601521 4.98479e-23)
(1.11059 -0.0500583 3.38671e-22)
(1.10099 -0.0413781 -1.95812e-22)
(1.09279 -0.036904 1.51367e-22)
(1.0834 -0.0298771 2.92858e-23)
(1.07902 -0.0261667 9.50489e-23)
(1.07107 -0.0220537 4.59329e-23)
(1.06889 -0.017955 -1.37659e-22)
(1.06277 -0.0158974 -1.63483e-22)
(1.06188 -0.0121993 1.9345e-22)
(1.05695 -0.0114874 -1.38695e-22)
(1.05556 -0.00768718 2.33135e-22)
(1.05357 -0.00649066 1.14697e-23)
(1.0534 -0.00393586 -2.60067e-22)
(1.0522 -0.00319008 1.4622e-22)
(1.0509 -0.000886698 2.27057e-23)
(1.22801 -0.148886 9.45624e-22)
(1.19269 -0.129192 6.76321e-22)
(1.1746 -0.0950714 -7.84351e-22)
(1.15403 -0.0838831 -1.04521e-21)
(1.13956 -0.0659437 -8.54829e-22)
(1.12464 -0.0572501 2.82468e-22)
(1.11238 -0.0476504 -2.09299e-22)
(1.10238 -0.0394986 -9.42362e-23)
(1.09394 -0.0351978 -5.93738e-23)
(1.08448 -0.0285697 -1.4337e-23)
(1.07985 -0.0250722 5.63903e-23)
(1.07191 -0.0211554 5.72983e-23)
(1.06953 -0.0172988 3.01411e-22)
(1.0634 -0.0153341 1.32121e-22)
(1.06234 -0.0117766 1.0558e-22)
(1.05747 -0.0110531 3.89711e-22)
(1.05605 -0.00744101 -1.35971e-22)
(1.05402 -0.00632716 4.55397e-22)
(1.05376 -0.00383094 4.10841e-22)
(1.05256 -0.00305814 8.42081e-23)
(1.05133 -0.00082617 3.86722e-22)
)
;

boundaryField
{
    inlet
    {
        type            uniformFixedValue;
        uniformValue    constant (1 0 0);
        value           nonuniform 0();
    }
    outlet
    {
        type            pressureInletOutletVelocity;
        value           nonuniform 0();
    }
    cylinder
    {
        type            fixedValue;
        value           uniform (0 0 0);
    }
    top
    {
        type            symmetryPlane;
    }
    bottom
    {
        type            symmetryPlane;
    }
    defaultFaces
    {
        type            empty;
    }
    procBoundary16to15
    {
        type            processor;
        value           nonuniform List<vector> 
90
(
(1.26417 0.260004 1.29675e-19)
(1.25079 0.246684 4.60934e-20)
(1.23867 0.234076 2.62894e-20)
(1.22763 0.22212 6.60816e-20)
(1.21745 0.210698 5.95263e-20)
(1.20774 0.200125 -4.82897e-20)
(1.19812 0.191015 4.02241e-20)
(1.34058 0.367262 1.96206e-19)
(1.32954 0.35348 -1.01847e-19)
(1.31388 0.337465 -5.62892e-20)
(1.29699 0.320844 -1.20637e-19)
(1.28048 0.304446 4.8339e-20)
(1.26417 0.260004 1.29675e-19)
(1.26505 0.288643 5.57386e-21)
(1.17878 0.363312 1.01804e-19)
(1.26978 0.394015 2.20788e-19)
(1.31512 0.40488 1.23113e-20)
(1.34058 0.367262 1.96206e-19)
(1.32973 0.401654 1.30979e-19)
(0.203321 0.0548714 1.26108e-20)
(0.548271 0.161551 -3.46071e-19)
(0.83023 0.263665 -8.77648e-20)
(1.17878 0.363312 1.01804e-19)
(1.04182 0.344605 -8.38535e-20)
(0.195949 -0.0535411 1.40006e-19)
(0.539079 -0.161696 5.78555e-20)
(0.82622 -0.268467 -4.99003e-20)
(1.04545 -0.354772 1.98988e-19)
(1.18739 -0.378005 1.88796e-19)
(1.18739 -0.378005 1.88796e-19)
(1.28438 -0.412162 9.47273e-20)
(1.33373 -0.42515 -1.9407e-20)
(1.35081 -0.422999 -1.30577e-19)
(1.34888 -0.411549 1.79569e-19)
(1.35335 -0.376024 -2.4425e-19)
(1.35335 -0.376024 -2.4425e-19)
(1.33872 -0.359695 1.00494e-21)
(1.32274 -0.342548 2.13732e-20)
(1.3071 -0.325458 -7.15877e-20)
(1.2925 -0.308814 9.09448e-22)
(1.27916 -0.292779 -1.26283e-19)
(1.28085 -0.265568 -2.46054e-20)
(1.28085 -0.265568 -2.46054e-20)
(1.26955 -0.25169 -1.73774e-21)
(1.25929 -0.238398 6.50819e-20)
(1.24982 -0.225594 -2.40367e-20)
(1.2407 -0.213668 3.27269e-20)
(1.23144 -0.203191 -3.20263e-20)
(1.17709 0.153968 -9.98688e-21)
(1.14677 0.139008 4.29247e-21)
(1.13225 0.107239 2.00171e-21)
(1.11883 0.0977972 -1.27532e-21)
(1.10776 0.081444 1.80626e-21)
(1.10086 0.0719657 -7.22883e-22)
(1.09289 0.0637249 -1.07465e-21)
(1.08586 0.05559 6.66424e-22)
(1.08174 0.0484151 -8.37358e-23)
(1.07777 0.0429546 5.29539e-22)
(1.07327 0.0382408 3.07868e-22)
(1.06848 0.0340669 8.02261e-23)
(1.06454 0.0288097 6.70218e-23)
(1.06215 0.025736 -6.85374e-23)
(1.05831 0.0209092 -8.28779e-23)
(1.05779 0.01809 -9.69019e-23)
(1.05383 0.0149781 8.28168e-23)
(1.05263 0.011348 2.19153e-22)
(1.05078 0.00777545 -1.8344e-22)
(1.05184 0.00429609 2.76479e-22)
(1.04944 0.00291192 1.08663e-22)
(1.21059 -0.162564 7.8834e-21)
(1.18046 -0.141978 -3.35996e-21)
(1.16492 -0.104512 -1.54221e-21)
(1.14728 -0.0919712 9.46374e-22)
(1.13422 -0.0726938 -7.99656e-22)
(1.12041 -0.0630129 -7.98168e-22)
(1.10877 -0.0524505 4.56041e-22)
(1.09953 -0.0432277 -1.46135e-22)
(1.09162 -0.038601 -5.36021e-23)
(1.08229 -0.0311792 -1.26041e-22)
(1.07815 -0.0272528 4.88559e-23)
(1.0702 -0.0229501 -1.59471e-22)
(1.06822 -0.0185996 2.7835e-22)
(1.06212 -0.0164505 9.11086e-23)
(1.06141 -0.012618 -4.96541e-22)
(1.05641 -0.0119299 1.32312e-22)
(1.05505 -0.00793248 7.39088e-22)
(1.05311 -0.00664233 9.97568e-22)
(1.05304 -0.00403506 -4.3714e-22)
(1.05183 -0.00333078 9.64221e-22)
(1.05045 -0.000955338 1.0136e-21)
)
;
    }
    procBoundary16to17
    {
        type            processor;
        value           nonuniform List<vector> 
88
(
(1.26979 0.195987 -3.16864e-22)
(1.2573 0.186531 1.08349e-20)
(1.24567 0.177521 2.69336e-21)
(1.23461 0.169195 2.23352e-20)
(1.22374 0.162008 -3.01052e-22)
(0.924157 0.170729 -4.44043e-20)
(1.105 0.222515 7.13033e-21)
(1.23285 0.26085 4.98332e-20)
(1.31216 0.284359 3.25461e-20)
(1.35295 0.294736 -7.51465e-20)
(1.3668 0.2952 -4.17048e-20)
(1.36401 0.289134 2.67661e-20)
(1.35228 0.279321 2.98177e-20)
(1.33658 0.2677 2.05906e-20)
(1.31977 0.255456 1.7536e-20)
(1.30327 0.243235 3.75597e-21)
(1.28774 0.231354 -1.49814e-20)
(1.2734 0.219961 1.72997e-20)
(1.2734 0.219961 1.72997e-20)
(0.159951 0.0198463 -2.49677e-20)
(0.458201 0.0716641 1.18525e-19)
(0.729392 0.138557 2.29297e-19)
(0.729392 0.138557 2.29297e-19)
(0.14821 -0.0192003 1.1724e-19)
(0.438715 -0.0722638 -1.42124e-20)
(0.712371 -0.143303 -7.31772e-20)
(0.948444 -0.213842 1.47219e-19)
(0.948444 -0.213842 1.47219e-19)
(1.10173 -0.238255 6.9515e-21)
(1.23876 -0.280965 -1.26818e-20)
(1.32533 -0.307579 7.12707e-21)
(1.37126 -0.319822 2.34525e-20)
(1.38859 -0.32116 1.53022e-20)
(1.3882 -0.315269 8.61148e-20)
(1.37827 -0.305168 -1.36895e-20)
(1.36409 -0.292945 7.04918e-21)
(1.34865 -0.279864 -2.16934e-20)
(1.33345 -0.266608 -3.36792e-21)
(1.31913 -0.253516 3.55887e-21)
(1.30591 -0.240753 -3.79456e-20)
(1.30591 -0.240753 -3.79456e-20)
(1.30486 -0.216307 2.54849e-22)
(1.2934 -0.205081 -8.88406e-21)
(1.28267 -0.1942 -2.19573e-21)
(1.27233 -0.183934 -1.82362e-20)
(1.26194 -0.174775 2.69394e-22)
(1.19753 0.133836 2.3607e-21)
(1.16028 0.121623 -9.83402e-23)
(1.143 0.0959064 -6.85924e-22)
(1.12673 0.0888413 1.00108e-21)
(1.11478 0.0748104 5.03356e-22)
(1.10634 0.066962 -1.89969e-22)
(1.09777 0.059368 2.74579e-22)
(1.09044 0.0522047 -7.41066e-23)
(1.08567 0.0458817 2.20404e-22)
(1.08106 0.0407794 5.87171e-23)
(1.07619 0.0361246 1.00935e-22)
(1.07135 0.0321435 6.82727e-23)
(1.06727 0.027308 1.44779e-23)
(1.06466 0.0243514 -4.23785e-24)
(1.06077 0.0199301 -9.38562e-24)
(1.05982 0.0171422 6.63026e-24)
(1.05606 0.0140239 5.92004e-24)
(1.05489 0.0106656 -5.81874e-23)
(1.05302 0.00752027 -6.69477e-23)
(1.05364 0.00406913 -1.2182e-23)
(1.05168 0.00251749 -3.32313e-23)
(1.23614 -0.141544 -1.93438e-21)
(1.19871 -0.12254 8.47388e-23)
(1.17917 -0.0901577 5.67167e-22)
(1.15733 -0.0796307 -8.01822e-22)
(1.14216 -0.0625029 -3.82589e-22)
(1.12668 -0.0543082 1.41778e-22)
(1.11414 -0.0452228 -1.79468e-22)
(1.10372 -0.0375846 4.42282e-23)
(1.09505 -0.0334883 -8.97147e-23)
(1.08553 -0.0272552 -3.26323e-24)
(1.08066 -0.023969 1.04008e-23)
(1.07272 -0.0202555 6.95682e-23)
(1.07015 -0.0166314 6.83215e-23)
(1.06401 -0.0147623 -1.05374e-23)
(1.06279 -0.0113503 5.37683e-23)
(1.05797 -0.0106261 -2.01159e-23)
(1.05652 -0.00719366 -1.07697e-23)
(1.05445 -0.00615341 1.28098e-22)
(1.05411 -0.00372133 1.37492e-22)
(1.05291 -0.0029337 2.47265e-23)
(1.05174 -0.00077285 6.36772e-23)
)
;
    }
}


// ************************************************************************* //
