/*--------------------------------*- C++ -*----------------------------------*\
  =========                 |
  \\      /  F ield         | OpenFOAM: The Open Source CFD Toolbox
   \\    /   O peration     | Website:  https://openfoam.org
    \\  /    A nd           | Version:  7
     \\/     M anipulation  |
\*---------------------------------------------------------------------------*/
FoamFile
{
    version     2.0;
    format      ascii;
    class       volVectorField;
    location    "40";
    object      U;
}
// * * * * * * * * * * * * * * * * * * * * * * * * * * * * * * * * * * * * * //

dimensions      [0 1 -1 0 0 0 0];

internalField   nonuniform List<vector> 
392
(
(1.1981 0.41753 -3.14633e-20)
(1.20747 0.412234 1.7739e-20)
(1.21324 0.405038 -2.3333e-20)
(1.11292 0.432024 3.53453e-20)
(1.1374 0.435677 2.78943e-20)
(1.15764 0.43636 -2.84006e-20)
(1.17388 0.434285 2.01138e-20)
(1.18636 0.429719 5.12698e-20)
(1.19524 0.423166 5.27165e-20)
(1.20068 0.414839 -2.96346e-20)
(1.00614 0.422011 3.61935e-20)
(1.04303 0.434237 2.86185e-20)
(1.07523 0.443065 6.87976e-20)
(1.1029 0.448549 2.94792e-21)
(1.12627 0.450827 1.02412e-20)
(1.14559 0.450114 -1.12988e-20)
(1.16112 0.446667 2.98939e-20)
(1.17311 0.440792 -6.47341e-20)
(1.18167 0.433034 2.59511e-20)
(0.862708 0.386545 -7.40709e-20)
(0.912545 0.408066 -8.10439e-20)
(0.957593 0.426262 -6.51354e-20)
(0.997839 0.440974 3.42838e-20)
(1.03335 0.452122 -5.34903e-21)
(1.06426 0.459717 -4.50417e-20)
(1.09079 0.463862 2.16078e-20)
(1.11319 0.464746 -7.39637e-20)
(1.13174 0.462637 6.06946e-20)
(0.745205 0.354374 -3.34801e-20)
(0.803073 0.38198 -9.16067e-21)
(0.856285 0.406449 7.11346e-20)
(0.904735 0.427522 3.1697e-20)
(0.948381 0.445001 -6.01289e-21)
(0.987252 0.458766 1.10546e-19)
(1.02146 0.468779 4.73103e-20)
(1.05118 0.4751 -4.52249e-20)
(1.07667 0.47788 5.64641e-21)
(0.542746 0.272652 1.33994e-20)
(0.612507 0.308847 3.42268e-20)
(0.678058 0.342545 -4.96183e-20)
(0.739198 0.373396 -2.60887e-21)
(0.795755 0.401075 -4.3612e-20)
(0.8476 0.425298 -2.61767e-21)
(0.894662 0.445835 8.9233e-21)
(0.936932 0.462522 -2.90645e-20)
(0.97448 0.475279 -1.58264e-20)
(1.00745 0.484113 -2.27518e-20)
(0.308697 0.163341 -3.58513e-20)
(0.388982 0.207053 -1.96761e-20)
(0.465594 0.248952 4.99959e-20)
(0.538317 0.288692 2.4662e-20)
(0.606937 0.325916 7.0187e-20)
(0.671253 0.360273 -4.44513e-20)
(0.731082 0.391428 1.62178e-20)
(0.786278 0.419077 -1.23747e-21)
(0.836739 0.442961 -4.66506e-20)
(0.882421 0.462882 -6.3742e-21)
(0.136865 0.0768363 -4.73071e-20)
(0.223065 0.125984 5.29832e-20)
(0.305889 0.173612 2.21102e-20)
(0.385151 0.219375 5.04828e-20)
(0.460647 0.262939 -7.72611e-20)
(0.532166 0.30396 -2.54964e-20)
(0.599509 0.342089 7.84478e-21)
(0.662486 0.376986 5.10735e-20)
(0.720936 0.408334 -4.97598e-20)
(0.774734 0.435853 7.15389e-20)
(0.046931 0.0282367 1.58521e-20)
(0.135287 0.0816494 -4.6011e-20)
(0.220361 0.13348 -3.92749e-21)
(0.301996 0.183402 -8.08563e-22)
(0.380006 0.231074 1.35103e-20)
(0.45419 0.276163 -4.72039e-21)
(0.524348 0.318329 -3.40209e-20)
(0.590287 0.357232 2.89159e-20)
(0.651837 0.392549 -4.75284e-21)
(0.0462444 0.0298871 3.77973e-20)
(0.1332 0.0862171 -7.28046e-21)
(0.216857 0.140569 -1.1537e-20)
(0.297049 0.192624 -1.68895e-20)
(0.373589 0.242048 -1.00218e-20)
(0.446279 0.28851 5.25186e-20)
(0.514927 0.331677 -3.21551e-20)
(0.0453806 0.0314393 6.30715e-21)
(0.130621 0.0904973 -1.93818e-20)
(0.212582 0.147185 -1.59729e-20)
(0.291089 0.201194 6.22413e-20)
(0.365952 0.252198 -3.21529e-20)
(0.0443462 0.0328785 1.42945e-20)
(0.127568 0.0944491 -1.73072e-20)
(0.207569 0.153266 -8.40213e-21)
(0.284163 0.209032 -1.72223e-20)
(0.0431492 0.0341904 6.02691e-21)
(0.124067 0.0980335 -6.54379e-21)
(0.0431492 -0.0341904 -3.11946e-21)
(0.124067 -0.0980335 8.27925e-21)
(0.0443462 -0.0328785 -3.85218e-21)
(0.127568 -0.0944491 1.11819e-20)
(0.207569 -0.153266 -1.31462e-20)
(0.284163 -0.209032 5.57239e-21)
(0.0453806 -0.0314393 -1.20263e-20)
(0.130621 -0.0904973 2.11194e-20)
(0.212582 -0.147185 3.82528e-20)
(0.291089 -0.201194 -4.28007e-20)
(0.365952 -0.252198 1.20547e-20)
(0.436979 -0.29987 6.8699e-21)
(0.0462444 -0.0298871 -4.01235e-20)
(0.1332 -0.0862171 1.75756e-20)
(0.216857 -0.140569 4.33167e-20)
(0.297049 -0.192624 1.44772e-20)
(0.373589 -0.242048 -3.84772e-21)
(0.446279 -0.28851 -2.93191e-20)
(0.514927 -0.331677 2.99457e-20)
(0.579354 -0.37122 -1.35845e-20)
(0.046931 -0.0282367 -2.11565e-20)
(0.135287 -0.0816494 4.43856e-20)
(0.220361 -0.13348 -5.78313e-20)
(0.301996 -0.183402 -8.40802e-21)
(0.380006 -0.231074 -1.1142e-20)
(0.45419 -0.276163 8.82152e-22)
(0.524348 -0.318329 3.20793e-20)
(0.590287 -0.357232 -9.4643e-21)
(0.651837 -0.392549 -7.06897e-21)
(0.136865 -0.0768363 2.71294e-20)
(0.223065 -0.125984 -2.37357e-20)
(0.305889 -0.173612 -1.4835e-20)
(0.385151 -0.219375 -3.89262e-20)
(0.460647 -0.262939 3.05568e-20)
(0.532166 -0.30396 -1.49203e-20)
(0.599509 -0.342089 -4.85951e-20)
(0.662486 -0.376986 -2.4313e-20)
(0.720936 -0.408334 1.96191e-20)
(0.774734 -0.435853 1.66351e-20)
(0.308697 -0.163341 3.24144e-20)
(0.388982 -0.207053 3.97185e-20)
(0.465594 -0.248952 -2.21918e-20)
(0.538317 -0.288692 1.18278e-20)
(0.606937 -0.325916 -7.21689e-20)
(0.671253 -0.360273 -1.09646e-20)
(0.731082 -0.391428 -1.27936e-20)
(0.786278 -0.419077 -3.45187e-20)
(0.836739 -0.442961 7.95595e-20)
(0.882421 -0.462882 1.4447e-20)
(0.923351 -0.478714 -2.7077e-20)
(0.542746 -0.272652 -5.32187e-21)
(0.612507 -0.308847 -3.29159e-20)
(0.678058 -0.342545 9.0095e-20)
(0.739198 -0.373396 4.39351e-20)
(0.795755 -0.401075 -4.18284e-20)
(0.8476 -0.425298 -2.39398e-20)
(0.894662 -0.445835 -5.62151e-20)
(0.936932 -0.462522 7.96565e-20)
(0.97448 -0.475279 -5.79292e-20)
(1.00745 -0.484113 -1.99555e-20)
(0.745205 -0.354374 1.88696e-20)
(0.803073 -0.38198 4.21854e-20)
(0.856285 -0.406449 2.27451e-20)
(0.904735 -0.427522 5.50018e-20)
(0.948381 -0.445001 1.77721e-20)
(0.987252 -0.458766 2.27383e-20)
(1.02146 -0.468779 3.40638e-20)
(1.05118 -0.4751 4.59208e-20)
(1.07667 -0.47788 -5.15522e-20)
(0.912545 -0.408066 1.11107e-20)
(0.957593 -0.426262 2.55907e-21)
(0.997839 -0.440974 -9.78595e-20)
(1.03335 -0.452122 2.80659e-20)
(1.06426 -0.459717 1.05022e-21)
(1.09079 -0.463862 3.18776e-20)
(1.11319 -0.464746 2.85629e-20)
(1.13174 -0.462637 3.34277e-20)
(1.04303 -0.434237 -2.12159e-20)
(1.07523 -0.443065 -2.55038e-20)
(1.1029 -0.448549 -2.1805e-21)
(1.12627 -0.450827 1.39109e-20)
(1.14559 -0.450114 -7.50608e-20)
(1.16112 -0.446667 4.13219e-20)
(1.17311 -0.440792 2.59452e-20)
(1.18167 -0.433034 -9.5125e-20)
(1.1374 -0.435677 -4.62018e-20)
(1.15764 -0.43636 2.06434e-20)
(1.17388 -0.434285 -9.13255e-20)
(1.18636 -0.429719 7.18533e-20)
(1.19524 -0.423166 6.42003e-20)
(1.20068 -0.414839 1.38762e-20)
(1.1981 -0.41753 -5.28419e-20)
(1.20747 -0.412234 -6.54832e-20)
(1.21324 -0.405038 3.90841e-20)
(1.21824 0.38642 1.67205e-20)
(1.21715 0.355613 -5.91786e-21)
(1.21232 0.327822 -1.46686e-21)
(1.20724 0.302 1.7733e-21)
(1.20267 0.279117 -2.5012e-21)
(1.1988 0.258846 4.49162e-21)
(1.19531 0.240777 -1.75669e-21)
(1.19204 0.224573 1.63281e-21)
(1.18883 0.20986 -2.17411e-21)
(1.1856 0.196385 9.58092e-22)
(1.18233 0.183963 -7.29897e-22)
(1.17902 0.172445 -4.09086e-23)
(1.1757 0.161718 -2.41677e-22)
(1.17239 0.151693 5.68299e-22)
(1.16913 0.142292 -4.00134e-22)
(1.16593 0.133452 5.71279e-23)
(1.1628 0.125119 -6.29668e-23)
(1.15976 0.117242 9.38198e-23)
(1.15682 0.109778 2.69868e-22)
(1.15398 0.102688 -4.06778e-22)
(1.15126 0.095935 -9.2477e-22)
(1.14866 0.0894885 6.46504e-22)
(1.14618 0.0833195 -3.07766e-25)
(1.14382 0.0774021 -3.95095e-22)
(1.14159 0.0717122 1.39492e-22)
(1.1395 0.066228 5.35529e-22)
(1.13753 0.06093 1.58604e-23)
(1.13571 0.0557997 -7.29624e-22)
(1.13402 0.0508202 -1.06698e-22)
(1.13246 0.0459756 1.04613e-22)
(1.13105 0.0412514 -1.1144e-22)
(1.12978 0.0366336 -4.61292e-22)
(1.12865 0.0321092 -8.70513e-23)
(1.12767 0.0276659 1.16646e-22)
(1.12683 0.0232921 -2.20713e-22)
(1.12613 0.0189765 9.92052e-24)
(1.12557 0.0147085 -5.99648e-22)
(1.12516 0.0104778 1.3972e-22)
(1.12489 0.00627582 -2.27635e-22)
(1.12475 0.0020841 -2.16757e-22)
(1.20566 0.394223 9.14882e-21)
(1.20538 0.361401 -3.0798e-21)
(1.20156 0.332317 3.6346e-21)
(1.19764 0.30569 2.94417e-21)
(1.19417 0.282271 -1.62998e-20)
(1.19126 0.261626 6.07265e-21)
(1.18859 0.24328 -1.68309e-22)
(1.186 0.226833 -3.53369e-21)
(1.18336 0.211913 4.28982e-21)
(1.18061 0.198255 -1.3034e-21)
(1.17774 0.185667 3.72249e-22)
(1.17478 0.173999 -9.45231e-22)
(1.17176 0.163138 -1.15967e-22)
(1.16872 0.152991 4.1105e-22)
(1.16569 0.14348 7.93477e-23)
(1.16269 0.134541 1.24999e-23)
(1.15975 0.126117 5.3356e-22)
(1.15688 0.118158 3.71887e-22)
(1.15408 0.110618 -8.78543e-22)
(1.15138 0.103457 2.41528e-22)
(1.14878 0.0966407 -3.21516e-22)
(1.14628 0.0901351 -6.13282e-22)
(1.1439 0.0839113 1.5411e-21)
(1.14162 0.0779429 4.75836e-22)
(1.13947 0.0722055 2.0365e-22)
(1.13745 0.066677 2.17196e-22)
(1.13554 0.0613375 -8.8321e-22)
(1.13377 0.0561681 1.34617e-21)
(1.13213 0.0511518 -1.69704e-22)
(1.13062 0.0462723 1.23618e-21)
(1.12925 0.0415149 -9.06415e-22)
(1.12801 0.0368654 8.66206e-22)
(1.12692 0.0323106 -2.10194e-22)
(1.12596 0.0278381 5.42175e-22)
(1.12514 0.0234358 -1.3607e-22)
(1.12446 0.0190926 4.90608e-22)
(1.12392 0.0147977 4.89505e-22)
(1.12352 0.0105405 -7.44612e-23)
(1.12325 0.00631265 4.7575e-22)
(1.12312 0.00209548 1.64607e-22)
(1.14391 0.0907783 8.55308e-22)
(1.14162 0.0845003 -8.56329e-22)
(1.13943 0.0784815 5.79333e-22)
(1.13736 0.0726971 -2.1687e-22)
(1.1354 0.0671247 -7.59781e-22)
(1.13356 0.061744 -1.7794e-22)
(1.13184 0.0565358 1.14325e-21)
(1.13025 0.0514828 -1.91493e-21)
(1.12878 0.0465687 1.37536e-21)
(1.12745 0.0417782 -4.43142e-22)
(1.12625 0.0370971 -4.63375e-22)
(1.12518 0.0325121 7.76563e-22)
(1.12424 0.0280103 -1.23323e-21)
(1.12345 0.0235798 1.26057e-21)
(1.12278 0.019209 -4.31509e-23)
(1.12226 0.0148872 -5.00965e-22)
(1.12187 0.0106035 2.56303e-22)
(1.12162 0.00634965 -5.11501e-22)
(1.12149 0.00210699 -2.39086e-23)
(1.16225 -0.144655 -3.58361e-22)
(1.15947 -0.135619 -4.41865e-22)
(1.15671 -0.127106 1.03027e-21)
(1.154 -0.119065 -1.04039e-21)
(1.15136 -0.111451 -1.24658e-22)
(1.14879 -0.104222 3.16692e-22)
(1.1463 -0.0973423 -3.25312e-22)
(1.14391 -0.0907783 -6.82693e-22)
(1.14162 -0.0845003 5.79764e-22)
(1.13943 -0.0784815 -1.2797e-21)
(1.13736 -0.0726971 6.7149e-22)
(1.1354 -0.0671247 5.44159e-22)
(1.13356 -0.061744 -1.65566e-22)
(1.13184 -0.0565358 -1.49973e-21)
(1.13025 -0.0514828 1.04324e-21)
(1.12878 -0.0465687 -1.75391e-21)
(1.12745 -0.0417782 5.53417e-23)
(1.12625 -0.0370971 2.03994e-22)
(1.12518 -0.0325121 -5.59639e-22)
(1.12424 -0.0280103 8.06295e-22)
(1.12345 -0.0235798 -6.59653e-22)
(1.12278 -0.019209 -3.74999e-22)
(1.12226 -0.0148872 7.96726e-23)
(1.12187 -0.0106035 -4.89015e-22)
(1.12162 -0.00634965 8.66564e-23)
(1.12149 -0.00210699 -4.04831e-22)
(1.20566 -0.394223 -9.6178e-21)
(1.20538 -0.361401 4.39047e-21)
(1.20156 -0.332317 -5.00152e-21)
(1.19764 -0.30569 -1.83935e-21)
(1.19417 -0.282271 1.46188e-20)
(1.19126 -0.261626 -5.86761e-21)
(1.18859 -0.24328 1.68615e-21)
(1.186 -0.226833 2.55646e-21)
(1.18336 -0.211913 -4.17441e-21)
(1.18061 -0.198255 2.12031e-21)
(1.17774 -0.185667 -1.40907e-22)
(1.17478 -0.173999 7.35791e-22)
(1.17176 -0.163138 4.32448e-22)
(1.16872 -0.152991 -3.44735e-22)
(1.16569 -0.14348 -1.48082e-23)
(1.16269 -0.134541 9.36139e-23)
(1.15975 -0.126117 -3.71033e-22)
(1.15688 -0.118158 -2.34944e-22)
(1.15408 -0.110618 1.04281e-21)
(1.15138 -0.103457 -1.46148e-22)
(1.14878 -0.0966407 6.99001e-22)
(1.14628 -0.0901351 8.44477e-22)
(1.1439 -0.0839113 -9.51598e-22)
(1.14162 -0.0779429 4.31959e-22)
(1.13947 -0.0722055 -2.93224e-22)
(1.13745 -0.066677 -3.48689e-23)
(1.13554 -0.0613375 1.4757e-21)
(1.13377 -0.0561681 -5.61508e-22)
(1.13213 -0.0511518 1.00445e-21)
(1.13062 -0.0462723 -5.8938e-22)
(1.12925 -0.0415149 1.25413e-21)
(1.12801 -0.0368654 -1.21854e-22)
(1.12692 -0.0323106 2.93338e-22)
(1.12596 -0.0278381 -1.57715e-22)
(1.12514 -0.0234358 4.43217e-23)
(1.12446 -0.0190926 2.42546e-22)
(1.12392 -0.0147977 4.5415e-22)
(1.12352 -0.0105405 2.62519e-22)
(1.12325 -0.00631265 2.56999e-22)
(1.12312 -0.00209548 2.19534e-22)
(1.21824 -0.38642 -1.62533e-20)
(1.21715 -0.355613 4.61168e-21)
(1.21232 -0.327822 2.82939e-21)
(1.20724 -0.302 -2.87481e-21)
(1.20267 -0.279117 4.17755e-21)
(1.1988 -0.258846 -4.69613e-21)
(1.19531 -0.240777 2.4245e-22)
(1.19204 -0.224573 -6.57685e-22)
(1.18883 -0.20986 2.05893e-21)
(1.1856 -0.196385 -1.77357e-21)
(1.18233 -0.183963 4.98916e-22)
(1.17902 -0.172445 2.50064e-22)
(1.1757 -0.161718 -7.44314e-23)
(1.17239 -0.151693 -6.34554e-22)
(1.16913 -0.142292 4.26554e-22)
(1.16593 -0.133452 -3.1568e-23)
(1.1628 -0.125119 1.57514e-23)
(1.15976 -0.117242 -8.20668e-23)
(1.15682 -0.109778 -2.54961e-22)
(1.15398 -0.102688 4.25145e-22)
(1.15126 -0.095935 7.79649e-22)
(1.14866 -0.0894885 -6.22093e-22)
(1.14618 -0.0833195 -3.12625e-22)
(1.14382 -0.0774021 1.88105e-22)
(1.14159 -0.0717122 -5.05334e-22)
(1.1395 -0.066228 -5.01943e-22)
(1.13753 -0.06093 -2.6468e-22)
(1.13571 -0.0557997 3.01402e-22)
(1.13402 -0.0508202 1.4515e-22)
(1.13246 -0.0459757 -3.72603e-22)
(1.13105 -0.0412514 1.52351e-22)
(1.12978 -0.0366336 -2.40527e-23)
(1.12865 -0.0321092 -2.14106e-22)
(1.12767 -0.0276659 -7.3067e-23)
(1.12683 -0.0232921 -2.911e-22)
(1.12613 -0.0189765 -3.24573e-22)
(1.12557 -0.0147085 7.71473e-23)
(1.12516 -0.0104778 -9.42895e-23)
(1.12489 -0.00627582 -7.98363e-23)
)
;

boundaryField
{
    inlet
    {
        type            uniformFixedValue;
        uniformValue    constant (1 0 0);
        value           nonuniform 0();
    }
    outlet
    {
        type            pressureInletOutletVelocity;
        value           nonuniform 0();
    }
    cylinder
    {
        type            fixedValue;
        value           uniform (0 0 0);
    }
    top
    {
        type            symmetryPlane;
    }
    bottom
    {
        type            symmetryPlane;
    }
    defaultFaces
    {
        type            empty;
    }
    procBoundary10to9
    {
        type            processor;
        value           nonuniform List<vector> 
152
(
(1.18694 0.423648 5.00326e-20)
(1.14674 0.457838 -1.04156e-20)
(1.15843 0.450699 -2.21489e-20)
(1.18694 0.423648 5.00326e-20)
(1.16688 0.441821 2.81146e-20)
(1.09824 0.477362 4.58332e-20)
(1.14674 0.457838 -1.04156e-20)
(1.11619 0.473865 -6.18339e-20)
(1.03608 0.48913 -7.81194e-20)
(1.09824 0.477362 4.58332e-20)
(1.06066 0.490532 8.39271e-20)
(0.923351 0.478714 -2.56849e-20)
(0.959634 0.490415 3.33454e-20)
(1.03608 0.48913 -7.81194e-20)
(0.991456 0.498039 -2.55185e-20)
(0.823802 0.459313 5.64724e-20)
(0.923351 0.478714 -2.56849e-20)
(0.868125 0.478549 -3.54323e-20)
(0.708852 0.423982 2.00252e-20)
(0.823802 0.459313 5.64724e-20)
(0.761227 0.451277 -3.15376e-20)
(0.579354 0.37122 -2.77206e-20)
(0.708852 0.423982 2.00252e-20)
(0.6394 0.406835 4.16564e-20)
(0.436979 0.29987 -1.54153e-20)
(0.579354 0.37122 -2.77206e-20)
(0.503985 0.343885 -1.58307e-21)
(0.436979 0.29987 -1.54153e-20)
(0.357158 0.26143 8.83875e-21)
(0.201857 0.158752 -5.1452e-21)
(0.357158 0.26143 8.83875e-21)
(0.276326 0.21606 -2.65626e-21)
(0.0417992 0.0353613 2.39976e-21)
(0.201857 0.158752 -5.1452e-21)
(0.120144 0.101214 2.2959e-22)
(0.0417992 -0.0353613 -2.07837e-21)
(0.120144 -0.101214 -7.41336e-22)
(0.201857 -0.158752 5.21952e-21)
(0.201857 -0.158752 5.21952e-21)
(0.276326 -0.21606 9.39518e-22)
(0.357158 -0.26143 -1.21068e-20)
(0.357158 -0.26143 -1.21068e-20)
(0.426366 -0.310138 1.39113e-20)
(0.503985 -0.343885 5.36325e-21)
(0.503985 -0.343885 5.36325e-21)
(0.566802 -0.383932 -2.53758e-20)
(0.6394 -0.406835 -3.09465e-20)
(0.6394 -0.406835 -3.09465e-20)
(0.708852 -0.423982 -3.56587e-20)
(0.708852 -0.423982 -3.56587e-20)
(0.761227 -0.451277 4.06927e-20)
(0.823802 -0.459313 -3.13521e-20)
(0.823802 -0.459313 -3.13521e-20)
(0.868125 -0.478549 2.34518e-20)
(0.907759 -0.493474 -2.07348e-20)
(0.959634 -0.490415 -7.252e-21)
(0.959634 -0.490415 -7.252e-21)
(0.991456 -0.498039 5.37739e-21)
(1.03608 -0.48913 7.78154e-20)
(1.03608 -0.48913 7.78154e-20)
(1.06066 -0.490532 -9.50048e-20)
(1.09824 -0.477362 2.44119e-20)
(1.09824 -0.477362 2.44119e-20)
(1.11619 -0.473865 3.28151e-20)
(1.14674 -0.457838 -4.47276e-20)
(1.14674 -0.457838 -4.47276e-20)
(1.15843 -0.450699 3.42498e-20)
(1.16688 -0.441821 -2.48354e-20)
(1.18694 -0.423648 -4.81855e-20)
(1.18694 -0.423648 -4.81855e-20)
(1.19226 0.401141 5.7314e-21)
(1.19304 0.366557 7.97682e-22)
(1.19043 0.336423 -3.57374e-21)
(1.18778 0.309107 -1.02066e-20)
(1.1855 0.285237 2.99159e-21)
(1.1836 0.264274 -3.21466e-22)
(1.18179 0.245683 -1.97729e-21)
(1.17991 0.229021 3.41831e-21)
(1.17785 0.21391 1.03862e-22)
(1.17558 0.200081 -1.77802e-21)
(1.17313 0.187337 -4.75522e-23)
(1.17052 0.175527 -6.72788e-22)
(1.16782 0.164536 1.65085e-22)
(1.16505 0.154272 4.24167e-23)
(1.16225 0.144655 3.31874e-22)
(1.15947 0.135619 4.41866e-22)
(1.15671 0.127106 -1.03027e-21)
(1.154 0.119065 1.04039e-21)
(1.15136 0.111451 1.24658e-22)
(1.14879 0.104222 -3.16692e-22)
(1.1463 0.0973423 3.25313e-22)
(1.1463 0.0973423 3.25313e-22)
(1.14155 0.091418 -1.6234e-21)
(1.13935 0.0850865 1.84275e-21)
(1.13725 0.0790177 -4.76694e-22)
(1.13525 0.0731868 1.98965e-22)
(1.13336 0.0675709 -8.27486e-22)
(1.13158 0.0621492 1.74882e-21)
(1.12991 0.0569026 -7.41036e-22)
(1.12837 0.0518132 -8.70494e-22)
(1.12695 0.0468645 6.98329e-24)
(1.12565 0.0420411 2.1437e-21)
(1.12448 0.0373287 -1.13555e-21)
(1.12344 0.0327134 -6.04866e-22)
(1.12253 0.0281826 -9.7608e-23)
(1.12175 0.0237239 1.37648e-22)
(1.12111 0.0193256 -3.24234e-22)
(1.1206 0.0149768 -8.01269e-23)
(1.12022 0.0106666 -2.44742e-22)
(1.11998 0.00638682 -8.17347e-22)
(1.11986 0.00211864 5.78226e-22)
(1.15882 -0.145815 1.50832e-23)
(1.15624 -0.136685 9.14152e-22)
(1.15367 -0.128086 -1.43401e-21)
(1.15113 -0.119965 -9.01207e-22)
(1.14864 -0.112278 8.09848e-22)
(1.1462 -0.104982 -2.42043e-22)
(1.14383 -0.0980397 -1.27397e-21)
(1.14155 -0.091418 1.3085e-21)
(1.13935 -0.0850865 -2.83535e-21)
(1.13725 -0.0790177 9.94927e-22)
(1.13525 -0.0731868 3.39435e-22)
(1.13336 -0.0675709 1.08435e-21)
(1.13158 -0.0621492 -1.17547e-21)
(1.12991 -0.0569026 -4.36172e-22)
(1.12837 -0.0518132 1.44618e-21)
(1.12695 -0.0468645 3.02959e-22)
(1.12565 -0.0420411 -1.51912e-21)
(1.12448 -0.0373287 1.76951e-21)
(1.12344 -0.0327134 -7.07774e-22)
(1.12253 -0.0281826 -3.07319e-22)
(1.12175 -0.0237239 -7.90531e-22)
(1.12111 -0.0193256 3.26364e-22)
(1.1206 -0.0149768 -1.27509e-21)
(1.12022 -0.0106666 -1.7036e-22)
(1.11998 -0.00638682 -5.16649e-22)
(1.11986 -0.00211864 6.49896e-23)
(1.19226 -0.401141 -4.80755e-21)
(1.19304 -0.366557 -1.20164e-21)
(1.19043 -0.336423 2.91517e-21)
(1.18778 -0.309107 9.92204e-21)
(1.1855 -0.285237 -3.72528e-21)
(1.1836 -0.264274 7.39577e-22)
(1.18179 -0.245683 1.68263e-21)
(1.17991 -0.229021 -3.5375e-21)
(1.17785 -0.21391 -2.42352e-22)
(1.17558 -0.200081 1.91094e-21)
(1.17313 -0.187337 -2.17084e-23)
(1.17052 -0.175527 6.59306e-22)
(1.16782 -0.164536 -1.58095e-22)
(1.16505 -0.154272 -2.3633e-24)
(1.16505 -0.154272 -2.3633e-24)
)
;
    }
    procBoundary10to11
    {
        type            processor;
        value           nonuniform List<vector> 
145
(
(1.20821 0.404272 2.37892e-20)
(1.21827 0.400263 1.4754e-20)
(1.22453 0.394259 3.07989e-20)
(1.12075 0.414376 5.31985e-20)
(1.14648 0.419375 7.50692e-20)
(1.1678 0.421445 -2.67647e-20)
(1.18493 0.420754 3.13351e-20)
(1.18493 0.420754 3.13351e-20)
(1.01208 0.401996 3.73017e-20)
(1.05041 0.415229 7.79604e-20)
(1.08398 0.425237 -5.97209e-21)
(1.08398 0.425237 -5.97209e-21)
(0.866798 0.365728 -6.80606e-20)
(0.91801 0.387599 -1.02257e-20)
(0.964476 0.406425 3.57039e-20)
(0.964476 0.406425 3.57039e-20)
(0.749044 0.334506 -3.69e-20)
(0.808161 0.36193 1.73161e-20)
(0.808161 0.36193 1.73161e-20)
(0.545413 0.255972 -8.91396e-20)
(0.616167 0.291019 6.49032e-20)
(0.682838 0.32394 9.97563e-21)
(0.682838 0.32394 9.97563e-21)
(0.3104 0.152678 -2.13008e-21)
(0.391468 0.194214 5.36196e-20)
(0.468991 0.234321 -4.6929e-20)
(0.468991 0.234321 -4.6929e-20)
(0.137922 0.0718214 -2.55643e-20)
(0.22495 0.118148 -1.60788e-20)
(0.22495 0.118148 -1.60788e-20)
(0.0474352 0.0265036 1.47416e-20)
(0.0474352 0.0265036 1.47416e-20)
(0.0474352 -0.0265036 1.26069e-20)
(0.0474352 -0.0265036 1.26069e-20)
(0.137922 -0.0718214 -1.09934e-20)
(0.22495 -0.118148 -3.70341e-20)
(0.22495 -0.118148 -3.70341e-20)
(0.3104 -0.152678 -5.25049e-21)
(0.391468 -0.194214 -5.31717e-20)
(0.468991 -0.234321 4.58105e-20)
(0.468991 -0.234321 4.58105e-20)
(0.545413 -0.255972 1.24666e-19)
(0.616167 -0.291019 -1.45654e-20)
(0.682838 -0.32394 5.74588e-20)
(0.682838 -0.32394 5.74588e-20)
(0.749044 -0.334506 1.85283e-20)
(0.808161 -0.36193 9.28294e-21)
(0.862708 -0.386545 7.05178e-20)
(0.862708 -0.386545 7.05178e-20)
(0.91801 -0.387599 4.56231e-20)
(0.964476 -0.406425 -3.45738e-20)
(1.00614 -0.422011 1.6658e-20)
(1.00614 -0.422011 1.6658e-20)
(1.05041 -0.415229 2.89189e-20)
(1.08398 -0.425237 -1.18095e-20)
(1.11292 -0.432024 -5.29891e-20)
(1.11292 -0.432024 -5.29891e-20)
(1.14648 -0.419375 -8.79495e-20)
(1.1678 -0.421445 6.48159e-20)
(1.18493 -0.420754 -4.98921e-21)
(1.18493 -0.420754 -4.98921e-21)
(1.20821 -0.404272 1.01092e-20)
(1.21827 -0.400263 -4.29327e-20)
(1.22453 -0.394259 -1.16907e-20)
(1.22978 0.37779 1.29347e-20)
(1.22837 0.34923 -1.34879e-20)
(1.22271 0.322902 -3.10874e-21)
(1.21659 0.298029 -7.01093e-21)
(1.21102 0.275782 8.44604e-22)
(1.2062 0.255938 4.53178e-22)
(1.20194 0.23818 1.59175e-21)
(1.19801 0.222244 -4.81207e-21)
(1.19426 0.207755 2.04479e-21)
(1.19056 0.194474 -4.04661e-22)
(1.18689 0.182226 6.84657e-22)
(1.18324 0.170864 -2.2465e-21)
(1.17963 0.160277 -2.51795e-22)
(1.17606 0.150378 9.45286e-22)
(1.17257 0.14109 -2.82542e-22)
(1.16916 0.132352 2.56104e-22)
(1.16585 0.124112 -9.90671e-23)
(1.16264 0.11632 8.75698e-23)
(1.15956 0.108933 -7.22359e-24)
(1.15659 0.101913 -5.50817e-24)
(1.15375 0.0952254 6.17541e-23)
(1.15104 0.0888389 -1.12692e-22)
(1.14846 0.0827253 3.569e-22)
(1.14602 0.0768594 3.89744e-22)
(1.14372 0.0712174 -1.6137e-22)
(1.14155 0.0657778 8.15193e-22)
(1.13953 0.0605216 -8.04009e-22)
(1.13764 0.0554306 -1.95486e-22)
(1.1359 0.0504882 1.14712e-21)
(1.13431 0.0456787 1.0307e-23)
(1.13285 0.0409878 -2.5586e-22)
(1.13155 0.0364018 1.08974e-22)
(1.13039 0.031908 -6.71831e-23)
(1.12938 0.027494 5.90253e-22)
(1.12851 0.0231486 -2.40641e-22)
(1.1278 0.0188606 1.23548e-22)
(1.12723 0.0146197 5.54878e-22)
(1.1268 0.0104153 -5.88159e-22)
(1.12652 0.00623914 4.82253e-22)
(1.12637 0.00207285 -2.44292e-24)
(1.12475 -0.0020841 1.60625e-22)
(1.22978 -0.37779 -1.6056e-20)
(1.22837 -0.34923 1.25753e-20)
(1.22271 -0.322902 1.53191e-21)
(1.21659 -0.298029 3.49006e-21)
(1.21102 -0.275782 1.49881e-21)
(1.2062 -0.255938 -3.02395e-21)
(1.20194 -0.23818 -2.42547e-21)
(1.19801 -0.222244 4.10383e-21)
(1.19426 -0.207755 -2.34047e-21)
(1.19056 -0.194474 -2.45745e-21)
(1.18689 -0.182226 1.28186e-21)
(1.18324 -0.170864 1.91022e-21)
(1.17963 -0.160277 -4.47864e-22)
(1.17606 -0.150378 -1.88383e-21)
(1.17257 -0.14109 9.51542e-22)
(1.16916 -0.132352 -4.67657e-22)
(1.16585 -0.124112 5.0609e-23)
(1.16264 -0.11632 -1.03272e-22)
(1.15956 -0.108933 3.98851e-23)
(1.15659 -0.101913 1.83661e-22)
(1.15375 -0.0952254 3.81477e-23)
(1.15104 -0.0888389 -6.01771e-23)
(1.14846 -0.0827253 5.1934e-23)
(1.14602 -0.0768594 -2.09823e-22)
(1.14372 -0.0712174 6.9155e-22)
(1.14155 -0.0657778 1.14471e-22)
(1.13953 -0.0605216 -3.95973e-22)
(1.13764 -0.0554306 3.22084e-22)
(1.1359 -0.0504882 -8.76096e-22)
(1.13431 -0.0456787 7.35866e-22)
(1.13285 -0.0409878 5.51722e-22)
(1.13155 -0.0364018 1.83521e-22)
(1.13039 -0.031908 3.82333e-22)
(1.12938 -0.027494 -2.67387e-22)
(1.12851 -0.0231486 4.03306e-22)
(1.1278 -0.0188606 2.11124e-22)
(1.12723 -0.0146197 3.34807e-22)
(1.1268 -0.0104153 -1.12499e-22)
(1.12475 -0.0020841 1.60625e-22)
(1.12652 -0.00623914 4.20447e-22)
)
;
    }
}


// ************************************************************************* //
