/*--------------------------------*- C++ -*----------------------------------*\
  =========                 |
  \\      /  F ield         | OpenFOAM: The Open Source CFD Toolbox
   \\    /   O peration     | Website:  https://openfoam.org
    \\  /    A nd           | Version:  7
     \\/     M anipulation  |
\*---------------------------------------------------------------------------*/
FoamFile
{
    version     2.0;
    format      ascii;
    class       volScalarField;
    location    "45";
    object      p;
}
// * * * * * * * * * * * * * * * * * * * * * * * * * * * * * * * * * * * * * //

dimensions      [0 2 -2 0 0 0 0];

internalField   nonuniform List<scalar> 
183
(
-0.283915
-0.283792
-0.283585
-0.283311
-0.283001
-0.284732
-0.284625
-0.284427
-0.28415
-0.283826
-0.285551
-0.285344
-0.285043
-0.284675
-0.286571
-0.28634
-0.285991
-0.285551
-0.287687
-0.287417
-0.287
-0.286458
-0.288894
-0.288577
-0.288074
-0.2874
-0.290187
-0.289817
-0.289215
-0.288383
-0.291551
-0.291128
-0.29042
-0.289408
-0.288087
-0.29249
-0.291677
-0.290475
-0.288877
-0.293865
-0.292958
-0.291574
-0.289681
-0.295195
-0.294209
-0.292656
-0.290452
-0.287253
-0.295345
-0.293636
-0.291139
-0.287397
-0.296274
-0.294407
-0.291632
-0.287443
-0.280895
-0.294865
-0.291801
-0.287305
-0.279198
-0.294932
-0.29154
-0.286906
-0.27714
-0.290808
-0.286192
-0.274868
-0.289645
-0.285136
-0.272613
-0.283691
-0.270572
-0.268663
-0.249535
-0.263402
-0.250938
-0.268739
-0.264515
-0.252801
-0.269855
-0.265523
-0.255165
-0.274212
-0.270815
-0.266493
-0.257805
-0.274698
-0.271602
-0.267457
-0.260472
-0.277292
-0.275078
-0.272262
-0.268449
-0.263003
-0.277441
-0.275407
-0.272871
-0.269499
-0.279072
-0.277588
-0.275739
-0.2735
-0.27062
-0.279125
-0.277775
-0.276128
-0.274197
-0.279234
-0.278031
-0.276594
-0.274974
-0.280269
-0.279416
-0.278367
-0.277143
-0.275805
-0.280414
-0.279679
-0.278786
-0.277768
-0.280642
-0.280022
-0.279276
-0.278445
-0.280955
-0.28044
-0.279827
-0.279155
-0.281351
-0.280931
-0.28043
-0.279889
-0.282085
-0.281832
-0.281491
-0.281082
-0.280641
-0.282594
-0.282398
-0.28212
-0.281779
-0.28141
-0.283204
-0.283051
-0.282817
-0.282521
-0.282196
-0.275593
-0.244017
-0.214637
-0.187968
-0.164768
-0.145182
-0.128674
-0.114817
-0.103149
-0.0933168
-0.0850266
-0.0780049
-0.0720875
-0.0670967
-0.0629397
-0.0595143
-0.0567461
-0.0545923
-0.0529966
-0.0519655
-0.0514365
-0.262679
-0.241462
-0.218088
-0.193919
-0.171719
-0.152288
-0.135395
-0.120885
-0.108482
-0.0978828
-0.0888845
-0.0812588
-0.0748227
)
;

boundaryField
{
    inlet
    {
        type            zeroGradient;
    }
    outlet
    {
        type            fixedValue;
        value           nonuniform 0();
    }
    cylinder
    {
        type            zeroGradient;
    }
    top
    {
        type            symmetryPlane;
    }
    bottom
    {
        type            symmetryPlane;
    }
    defaultFaces
    {
        type            empty;
    }
    procBoundary31to30
    {
        type            processor;
        value           nonuniform List<scalar> 
88
(
-0.283951
-0.284745
-0.285653
-0.285653
-0.286681
-0.287811
-0.289039
-0.290353
-0.291735
-0.292959
-0.292959
-0.294372
-0.295734
-0.296408
-0.296408
-0.297419
-0.296904
-0.296904
-0.29717
-0.294582
-0.294582
-0.293835
-0.288141
-0.288141
-0.281735
-0.281735
-0.266725
-0.248544
-0.262059
-0.262059
-0.267533
-0.267533
-0.272841
-0.273591
-0.273591
-0.276774
-0.277083
-0.277083
-0.279005
-0.279046
-0.279046
-0.28024
-0.280197
-0.2802
-0.2802
-0.280942
-0.280995
-0.281131
-0.281356
-0.281673
-0.281673
-0.282245
-0.282703
-0.28327
-0.263754
-0.215288
-0.186848
-0.1633
-0.142555
-0.126083
-0.111983
-0.100261
-0.0904076
-0.0821035
-0.0750872
-0.0690756
-0.0640681
-0.0597838
-0.0562482
-0.0533033
-0.0509061
-0.0490686
-0.0476541
-0.0468128
-0.0462975
-0.25716
-0.214107
-0.189271
-0.167306
-0.147221
-0.13096
-0.116584
-0.104494
-0.0941727
-0.0853151
-0.0778664
-0.0715288
-0.0661714
)
;
    }
    procBoundary31to32
    {
        type            processor;
        value           nonuniform List<scalar> 
81
(
-0.282645
-0.283443
-0.28423
-0.285008
-0.285778
-0.286545
-0.287313
-0.287313
-0.286296
-0.286695
-0.28707
-0.28707
-0.283032
-0.282178
-0.282178
-0.300344
-0.300864
-0.301116
-0.300982
-0.300323
-0.299042
-0.297095
-0.279972
-0.281391
-0.282304
-0.28285
-0.283199
-0.283501
-0.265325
-0.283848
-0.265325
-0.267422
-0.271819
-0.271819
-0.273082
-0.274253
-0.276674
-0.276674
-0.277559
-0.278442
-0.279315
-0.280172
-0.281011
-0.281835
-0.289748
-0.252456
-0.224436
-0.201742
-0.181602
-0.163734
-0.147971
-0.13406
-0.121816
-0.111072
-0.101695
-0.0935545
-0.0865113
-0.0804661
-0.0753113
-0.0709705
-0.0673688
-0.064446
-0.0621613
-0.0604719
-0.0593659
-0.0588124
-0.261977
-0.274286
-0.244654
-0.222501
-0.200854
-0.180859
-0.162695
-0.14638
-0.131946
-0.119313
-0.108325
-0.0988534
-0.0907356
-0.0694534
-0.0838234
)
;
    }
}


// ************************************************************************* //
