/*--------------------------------*- C++ -*----------------------------------*\
  =========                 |
  \\      /  F ield         | OpenFOAM: The Open Source CFD Toolbox
   \\    /   O peration     | Website:  https://openfoam.org
    \\  /    A nd           | Version:  7
     \\/     M anipulation  |
\*---------------------------------------------------------------------------*/
FoamFile
{
    version     2.0;
    format      ascii;
    class       volVectorField;
    location    "45";
    object      U;
}
// * * * * * * * * * * * * * * * * * * * * * * * * * * * * * * * * * * * * * //

dimensions      [0 1 -1 0 0 0 0];

internalField   nonuniform List<vector> 
183
(
(-0.0881423 -0.0134388 -8.56231e-21)
(-0.0917817 -0.0158824 3.97332e-21)
(-0.0945755 -0.0183958 2.12892e-21)
(-0.0966268 -0.02093 5.21704e-22)
(-0.0981357 -0.0234307 1.43373e-20)
(-0.0884041 -0.00958444 -2.70865e-20)
(-0.0919996 -0.0128016 1.39974e-20)
(-0.0947265 -0.0160384 -2.12795e-21)
(-0.0966766 -0.0191803 -1.04207e-20)
(-0.0980413 -0.022095 -1.24932e-21)
(-0.0912248 -0.00963863 -7.84327e-20)
(-0.0936884 -0.0136282 4.29137e-20)
(-0.0953051 -0.0174267 -2.38024e-20)
(-0.0962468 -0.0208189 -5.52423e-20)
(-0.0893341 -0.0064217 2.50969e-20)
(-0.0913325 -0.0112079 -9.96237e-21)
(-0.0923825 -0.0157405 -9.76768e-20)
(-0.092625 -0.0197168 -1.98664e-20)
(-0.0861543 -0.00316121 1.66868e-20)
(-0.0874736 -0.0087911 -3.27169e-20)
(-0.0877186 -0.0141532 -5.35697e-21)
(-0.0869868 -0.018857 5.56662e-20)
(-0.0814514 0.000150559 -1.1031e-19)
(-0.0818523 -0.00635681 -6.99226e-20)
(-0.0810369 -0.0126437 1.37452e-19)
(-0.0790486 -0.0182403 -1.22391e-19)
(-0.074922 0.00353303 1.86519e-19)
(-0.0741195 -0.00385179 7.84296e-20)
(-0.0719496 -0.0111319 -6.2538e-20)
(-0.0683949 -0.0177788 -6.59146e-20)
(-0.0661921 0.007002 5.24845e-20)
(-0.0638277 -0.00120497 1.42089e-19)
(-0.0599371 -0.00948544 -4.67006e-20)
(-0.0544425 -0.0172868 1.9297e-20)
(-0.0473828 -0.0237269 5.27776e-20)
(-0.0504381 0.00164202 5.64235e-20)
(-0.0443458 -0.00755448 -2.41449e-20)
(-0.036418 -0.0165126 -1.06494e-19)
(-0.0266799 -0.0242943 -9.09079e-20)
(-0.0333509 0.00469381 -3.1092e-20)
(-0.0244275 -0.00523127 5.23307e-20)
(-0.0134047 -0.0152258 3.55785e-20)
(-0.000262399 -0.024383 -7.36619e-20)
(-0.0119522 0.00786765 -3.42366e-19)
(0.00058259 -0.00250684 -2.69415e-19)
(0.0155154 -0.013274 1.0483e-19)
(0.0328989 -0.0236649 6.69319e-19)
(0.0532161 -0.0316371 -1.6829e-19)
(0.0314203 0.000521557 1.79072e-19)
(0.0512542 -0.0105974 -3.34174e-19)
(0.073881 -0.0218143 -3.58013e-19)
(0.099852 -0.0312096 3.17203e-19)
(0.0687694 0.00365521 2.40826e-19)
(0.0946113 -0.00729806 1.13061e-19)
(0.123635 -0.0187199 4.23422e-21)
(0.156054 -0.0291223 1.71813e-21)
(0.197261 -0.0319542 -1.96652e-19)
(0.146284 -0.00358671 8.34461e-20)
(0.182933 -0.0144378 2.27634e-19)
(0.222496 -0.0251472 -1.79971e-19)
(0.274822 -0.0283168 2.27991e-19)
(0.206896 0.000354837 -2.06329e-19)
(0.252338 -0.00910834 -1.97914e-20)
(0.299475 -0.0193251 -1.26297e-19)
(0.364691 -0.0215539 5.71211e-20)
(0.332112 -0.00277902 5.39071e-20)
(0.386867 -0.0118297 1.06202e-19)
(0.465921 -0.011535 -1.74349e-19)
(0.421969 0.00472463 -3.91562e-20)
(0.484002 -0.00273184 -1.16636e-19)
(0.576171 0.00156842 1.80248e-19)
(0.589341 0.0081501 -1.70713e-19)
(0.69136 0.0173772 5.90793e-20)
(0.805428 0.0354366 1.0828e-19)
(0.776497 -0.051593 -3.01389e-19)
(0.559546 -0.0236095 1.52064e-19)
(0.660876 -0.0334932 -1.76964e-19)
(0.395079 -0.0192293 -1.69915e-21)
(0.455734 -0.0137301 2.45168e-20)
(0.546174 -0.0185551 5.8353e-20)
(0.30865 -0.0133815 5.02393e-20)
(0.361883 -0.00635168 -9.63695e-20)
(0.438656 -0.00739347 3.00011e-19)
(0.190229 -0.0166059 -1.73226e-19)
(0.23368 -0.00942933 -9.14445e-20)
(0.279369 -0.00143022 2.76993e-19)
(0.342298 -0.000447809 -3.76696e-19)
(0.134957 -0.0153864 1.6552e-20)
(0.170095 -0.00718973 3.81747e-20)
(0.208515 0.000954094 2.23276e-19)
(0.258999 0.00224741 1.53411e-19)
(0.0641074 -0.0228627 2.15218e-19)
(0.0889816 -0.0149192 4.6571e-19)
(0.117116 -0.00658586 -1.45339e-19)
(0.148893 0.00080373 -4.1198e-19)
(0.188979 0.00115285 1.02807e-19)
(0.0316744 -0.0229131 -2.6975e-19)
(0.0511818 -0.0152064 -3.39041e-19)
(0.0735737 -0.00752174 1.78689e-20)
(0.0995177 -0.00160989 -5.05451e-21)
(-0.00757848 -0.0300054 1.49585e-19)
(0.00518599 -0.0231929 -2.31188e-19)
(0.0203694 -0.0162169 4.60851e-19)
(0.0381056 -0.00975417 -6.63283e-20)
(0.0590267 -0.00570281 1.49254e-19)
(-0.0259373 -0.0297775 5.73936e-20)
(-0.0163468 -0.0237159 2.51972e-19)
(-0.00462675 -0.0178165 -2.18921e-19)
(0.00931234 -0.0128744 7.66792e-20)
(-0.0408801 -0.0295107 8.14168e-20)
(-0.0338262 -0.0244098 1.18139e-19)
(-0.0249013 -0.0197648 -6.9527e-20)
(-0.014107 -0.0163931 -2.319e-19)
(-0.0565057 -0.0334032 -1.0247e-19)
(-0.0530508 -0.0291835 5.71542e-20)
(-0.048044 -0.0251475 -7.75487e-20)
(-0.041411 -0.0217763 2.58827e-19)
(-0.0332489 -0.0198265 -4.7694e-20)
(-0.0649343 -0.0320203 6.67134e-20)
(-0.0629941 -0.0287407 9.29124e-20)
(-0.0596619 -0.025791 -6.19397e-20)
(-0.0549264 -0.0236229 1.09332e-19)
(-0.0718472 -0.0304329 -3.11291e-20)
(-0.0711531 -0.0281095 -2.25775e-20)
(-0.0692178 -0.0262053 8.06525e-20)
(-0.066088 -0.0251174 3.52094e-20)
(-0.0775183 -0.028613 -1.74966e-20)
(-0.0778571 -0.0272192 6.34515e-22)
(-0.0770974 -0.0262749 -7.42479e-20)
(-0.0753367 -0.026107 4.70817e-20)
(-0.0821402 -0.0265391 1.00323e-20)
(-0.0833268 -0.0260232 -1.77588e-19)
(-0.0835434 -0.0259326 6.09473e-20)
(-0.0829285 -0.0265174 -1.05622e-19)
(-0.08304 -0.0241193 5.71417e-20)
(-0.0858346 -0.0242062 -5.56158e-20)
(-0.0876936 -0.0245089 2.636e-20)
(-0.0886885 -0.0251695 3.01297e-20)
(-0.0889884 -0.0263596 -7.03876e-20)
(-0.0854311 -0.0207398 -7.72487e-22)
(-0.0886661 -0.0216293 -1.41343e-20)
(-0.0910208 -0.0226981 7.83723e-21)
(-0.0925877 -0.0240262 7.10397e-21)
(-0.0935559 -0.0257093 2.45207e-20)
(-0.0871364 -0.0171687 8.25317e-21)
(-0.0906541 -0.0188404 -1.35461e-20)
(-0.0933223 -0.0206388 2.25965e-22)
(-0.0952443 -0.0225802 1.8363e-21)
(-0.0966191 -0.0246854 1.8975e-20)
(1.21125 0.0732229 0)
(1.27009 0.0849881 0)
(1.26344 0.0873653 0)
(1.24417 0.0869634 0)
(1.2254 0.082937 0)
(1.209 0.0788102 0)
(1.19515 0.0736473 0)
(1.18283 0.0682036 0)
(1.17171 0.0624355 0)
(1.1625 0.0566503 0)
(1.15436 0.05098 0)
(1.1468 0.0455293 0)
(1.13969 0.0400274 0)
(1.13372 0.0349694 0)
(1.12864 0.02976 0)
(1.12478 0.0250595 0)
(1.12073 0.0202632 0)
(1.11783 0.0156371 0)
(1.11552 0.0111823 0)
(1.11455 0.00649773 0)
(1.11336 0.00244499 0)
(1.20569 -0.0943445 0)
(1.27743 -0.104553 0)
(1.27533 -0.102058 0)
(1.25624 -0.0959177 0)
(1.2369 -0.0876966 0)
(1.21908 -0.0802276 0)
(1.20348 -0.0730434 0)
(1.18887 -0.0658689 0)
(1.17703 -0.0593404 0)
(1.16552 -0.0532477 0)
(1.15615 -0.0471846 0)
(1.1473 -0.0420077 0)
(1.1401 -0.0365051 0)
)
;

boundaryField
{
    inlet
    {
        type            uniformFixedValue;
        uniformValue    constant (1 0 0);
        value           nonuniform 0();
    }
    outlet
    {
        type            pressureInletOutletVelocity;
        value           nonuniform 0();
    }
    cylinder
    {
        type            fixedValue;
        value           nonuniform 0();
    }
    top
    {
        type            symmetryPlane;
    }
    bottom
    {
        type            symmetryPlane;
    }
    defaultFaces
    {
        type            empty;
    }
    procBoundary31to30
    {
        type            processor;
        value           nonuniform List<vector> 
88
(
(-0.0836214 -0.0111008 -7.56866e-21)
(-0.0839145 -0.00647408 -1.41447e-20)
(-0.0878448 -0.00563744 -1.15481e-19)
(-0.0878448 -0.00563744 -1.15481e-19)
(-0.0863507 -0.00162271 1.28524e-19)
(-0.0837662 0.00244295 -2.73357e-20)
(-0.079887 0.00654833 1.12694e-20)
(-0.0744576 0.0106803 -2.8143e-20)
(-0.0671728 0.0148104 6.26135e-20)
(-0.054827 0.0105457 1.93682e-20)
(-0.054827 0.0105457 1.93682e-20)
(-0.0403534 0.0140982 3.30112e-21)
(-0.0222873 0.0175237 -3.28112e-19)
(0.0143516 0.0109913 -4.33732e-20)
(0.0143516 0.0109913 -4.33732e-20)
(0.0461462 0.0138364 3.53459e-20)
(0.113296 0.00666136 -4.42267e-20)
(0.113296 0.00666136 -4.42267e-20)
(0.165698 0.00941119 -2.46264e-19)
(0.276995 0.00454408 -2.18123e-21)
(0.276995 0.00454408 -2.18123e-21)
(0.3569 0.00930138 -5.19161e-19)
(0.52066 0.0137463 -2.24745e-19)
(0.52066 0.0137463 -2.24745e-19)
(0.700071 0.0212562 6.36663e-20)
(0.700071 0.0212562 6.36663e-20)
(0.910727 0.05496 2.71496e-19)
(0.884957 -0.0718872 1.83375e-19)
(0.670556 -0.0362568 -1.60443e-19)
(0.670556 -0.0362568 -1.60443e-19)
(0.49191 -0.0272523 -8.44626e-20)
(0.49191 -0.0272523 -8.44626e-20)
(0.332194 -0.0219362 1.1392e-19)
(0.255768 -0.018683 3.07497e-19)
(0.255768 -0.018683 3.07497e-19)
(0.151068 -0.0233244 1.49284e-19)
(0.103539 -0.0229956 -1.78128e-19)
(0.103539 -0.0229956 -1.78128e-19)
(0.0424246 -0.0301828 -2.28844e-19)
(0.0149326 -0.0301649 2.77885e-19)
(0.0149326 -0.0301649 2.77885e-19)
(-0.0181448 -0.0363689 4.50399e-20)
(-0.033588 -0.0356025 1.28111e-19)
(-0.0462029 -0.0345996 -7.83998e-20)
(-0.0462029 -0.0345996 -7.83998e-20)
(-0.0585366 -0.0375099 -1.09997e-19)
(-0.0655681 -0.0353275 1.07762e-19)
(-0.0713412 -0.0328909 5.05695e-20)
(-0.0760786 -0.0302075 -7.20424e-20)
(-0.0799425 -0.0272809 5.35566e-20)
(-0.0799425 -0.0272809 5.35566e-20)
(-0.0792972 -0.0241342 -3.73001e-20)
(-0.0812868 -0.0199627 1.9362e-20)
(-0.0827321 -0.0156078 1.03723e-21)
(1.2272 0.108531 -2.23408e-20)
(1.25237 0.116516 -4.30202e-20)
(1.24168 0.115244 1.05995e-20)
(1.22316 0.111171 1.4393e-20)
(1.20588 0.102815 1.23956e-20)
(1.19187 0.0949548 -1.0269e-20)
(1.17998 0.0866643 4.4245e-21)
(1.16935 0.0787798 7.9006e-21)
(1.15969 0.071099 -6.88439e-22)
(1.15179 0.0638192 1.29008e-21)
(1.14474 0.0569776 -4.46518e-21)
(1.13803 0.0505908 1.20734e-21)
(1.13167 0.0442744 1.78255e-22)
(1.12635 0.0385716 1.05084e-22)
(1.12182 0.0327223 2.26507e-21)
(1.11848 0.0275216 -5.28542e-21)
(1.1147 0.0222139 4.28312e-21)
(1.11213 0.0171312 -1.82697e-21)
(1.10996 0.0122479 1.77625e-21)
(1.10926 0.00709306 -6.16229e-22)
(1.108 0.0027097 9.37741e-23)
(1.22623 -0.126631 2.37209e-20)
(1.2587 -0.130541 5.17094e-21)
(1.25127 -0.125295 2.62622e-20)
(1.23269 -0.11736 -7.10524e-21)
(1.21503 -0.106228 -1.11886e-20)
(1.19993 -0.0960107 1.17353e-20)
(1.18662 -0.0864508 -5.99079e-21)
(1.17407 -0.0771732 -7.38772e-21)
(1.1642 -0.0689285 2.2432e-21)
(1.15411 -0.0613824 1.26251e-20)
(1.14618 -0.0540113 -6.20105e-21)
(1.13837 -0.0478211 -1.68424e-21)
(1.13214 -0.0412996 2.43807e-21)
)
;
    }
    procBoundary31to32
    {
        type            processor;
        value           nonuniform List<vector> 
81
(
(-0.0993195 -0.0258476 -4.5255e-21)
(-0.0990344 -0.0246477 -2.86287e-20)
(-0.096717 -0.0235731 9.03172e-20)
(-0.0922433 -0.0227904 -2.20948e-20)
(-0.0854302 -0.0224227 2.80308e-20)
(-0.0759978 -0.0225203 -1.06074e-19)
(-0.0635227 -0.0230242 -3.61694e-20)
(-0.0635227 -0.0230242 -3.61694e-20)
(-0.0385043 -0.0274646 -1.35111e-19)
(-0.0149468 -0.0292623 3.23859e-19)
(0.0152261 -0.0308016 -1.29248e-19)
(0.0152261 -0.0308016 -1.29248e-19)
(0.0778596 -0.0320814 1.82519e-19)
(0.131886 -0.0329391 -1.57512e-19)
(0.131886 -0.0329391 -1.57512e-19)
(0.233187 0.00357811 3.83371e-20)
(0.309542 0.00414607 3.35963e-21)
(0.394775 0.00539737 1.97558e-20)
(0.487953 0.00780781 -9.19664e-21)
(0.587237 0.0117564 4.24631e-20)
(0.689835 0.0173832 -2.72488e-21)
(0.792183 0.0243274 1.21428e-20)
(0.762855 -0.0545798 -7.85083e-21)
(0.659517 -0.0497558 -6.33585e-22)
(0.558278 -0.0470216 -1.02709e-20)
(0.462783 -0.0465285 -3.98233e-21)
(0.375569 -0.0480043 3.20596e-21)
(0.297879 -0.0509562 -2.07245e-20)
(0.131244 -0.00284869 1.42517e-19)
(0.22982 -0.0547821 -2.98063e-20)
(0.131244 -0.00284869 1.42517e-19)
(0.08409 -0.00864471 3.67483e-20)
(0.0258952 -0.0107034 9.45892e-20)
(0.0258952 -0.0107034 9.45892e-20)
(-0.00130318 -0.0158579 2.38057e-20)
(-0.0235318 -0.0205115 -3.81592e-19)
(-0.0489077 -0.0228905 8.65069e-20)
(-0.0489077 -0.0228905 8.65069e-20)
(-0.0618992 -0.0253807 4.32161e-20)
(-0.0727335 -0.0271282 2.24488e-20)
(-0.0816629 -0.0280755 -6.75391e-20)
(-0.0887911 -0.0282761 4.51846e-20)
(-0.0941346 -0.0278557 -4.66734e-20)
(-0.0976625 -0.0269826 -7.90451e-21)
(0.983695 0.0428831 -5.17113e-20)
(1.1336 0.0387949 0)
(1.23911 0.0491606 0)
(1.25041 0.0552744 0)
(1.23932 0.0575804 0)
(1.22585 0.0567725 0)
(1.21325 0.055428 0)
(1.20201 0.0530092 0)
(1.19137 0.0500583 0)
(1.18122 0.0465824 0)
(1.17234 0.0428785 0)
(1.16426 0.0390637 0)
(1.15663 0.0352377 0)
(1.14937 0.0312315 0)
(1.14313 0.027448 0)
(1.1378 0.0234875 0)
(1.13361 0.0198474 0)
(1.12945 0.0161025 0)
(1.12634 0.0124497 0)
(1.12395 0.00890969 0)
(1.12277 0.0052006 0)
(1.12164 0.00193783 0)
(1.13675 -0.075854 0)
(0.962196 -0.0694919 4.88149e-20)
(1.26382 -0.0773342 0)
(1.2776 -0.0672553 0)
(1.26385 -0.0593146 0)
(1.24659 -0.0533925 0)
(1.22965 -0.0490573 0)
(1.21421 -0.0454995 0)
(1.19957 -0.0419819 0)
(1.18724 -0.0387949 0)
(1.17549 -0.0357057 0)
(1.1656 -0.0323883 0)
(1.15645 -0.029468 0)
(1.1338 -0.0318697 0)
(1.14883 -0.0260988 0)
)
;
    }
}


// ************************************************************************* //
