/*--------------------------------*- C++ -*----------------------------------*\
  =========                 |
  \\      /  F ield         | OpenFOAM: The Open Source CFD Toolbox
   \\    /   O peration     | Website:  https://openfoam.org
    \\  /    A nd           | Version:  7
     \\/     M anipulation  |
\*---------------------------------------------------------------------------*/
FoamFile
{
    version     2.0;
    format      ascii;
    class       volScalarField;
    location    "75";
    object      p;
}
// * * * * * * * * * * * * * * * * * * * * * * * * * * * * * * * * * * * * * //

dimensions      [0 2 -2 0 0 0 0];

internalField   nonuniform List<scalar> 
40000
(
-0.287127
-0.288005
-0.288663
-0.289199
-0.289678
-0.290104
-0.290484
-0.290829
-0.29115
-0.291454
-0.291749
-0.29204
-0.29233
-0.292623
-0.292918
-0.293216
-0.293515
-0.293814
-0.294112
-0.294407
-0.294699
-0.294988
-0.295276
-0.295566
-0.295865
-0.296181
-0.296525
-0.296911
-0.297352
-0.297877
-0.287679
-0.288504
-0.289124
-0.289631
-0.290084
-0.290487
-0.290849
-0.291178
-0.291485
-0.29178
-0.292069
-0.292358
-0.292651
-0.292951
-0.293259
-0.293577
-0.293904
-0.29424
-0.294584
-0.294938
-0.295301
-0.295677
-0.296069
-0.296484
-0.29693
-0.297419
-0.297967
-0.298593
-0.299312
-0.30016
-0.288324
-0.28909
-0.289668
-0.290141
-0.290565
-0.290944
-0.291283
-0.291594
-0.291886
-0.292169
-0.292449
-0.292733
-0.293026
-0.293331
-0.293651
-0.293986
-0.294337
-0.294706
-0.295094
-0.295502
-0.295932
-0.296389
-0.296879
-0.29741
-0.297993
-0.298645
-0.299385
-0.300236
-0.301214
-0.302369
-0.289049
-0.289753
-0.290285
-0.290722
-0.291115
-0.291465
-0.29178
-0.29207
-0.292344
-0.292612
-0.292881
-0.293158
-0.293448
-0.293755
-0.294082
-0.294431
-0.294803
-0.295202
-0.295628
-0.296085
-0.296576
-0.297108
-0.297687
-0.298325
-0.299036
-0.299838
-0.300754
-0.301813
-0.30303
-0.304471
-0.289846
-0.290482
-0.290966
-0.291364
-0.291722
-0.292042
-0.29233
-0.292596
-0.29285
-0.2931
-0.293355
-0.293622
-0.293905
-0.294211
-0.294542
-0.294901
-0.295291
-0.295714
-0.296174
-0.296674
-0.29722
-0.297818
-0.298479
-0.299214
-0.300039
-0.300975
-0.302052
-0.3033
-0.30473
-0.306429
-0.290701
-0.291268
-0.291701
-0.292058
-0.292379
-0.292667
-0.292925
-0.293165
-0.293395
-0.293625
-0.293863
-0.294115
-0.294389
-0.294689
-0.29502
-0.295384
-0.295787
-0.29623
-0.296718
-0.297255
-0.297848
-0.298505
-0.299237
-0.300056
-0.300982
-0.302037
-0.303255
-0.304672
-0.306288
-0.30821
-0.291604
-0.2921
-0.29248
-0.292795
-0.293077
-0.293329
-0.293556
-0.293767
-0.293971
-0.294177
-0.294394
-0.294629
-0.294889
-0.295179
-0.295505
-0.29587
-0.29628
-0.296737
-0.297246
-0.297814
-0.298446
-0.299152
-0.299944
-0.300837
-0.301849
-0.303006
-0.304344
-0.305906
-0.30768
-0.309777
-0.292544
-0.292967
-0.293294
-0.293565
-0.293807
-0.294022
-0.294215
-0.294394
-0.294569
-0.294748
-0.29494
-0.295153
-0.295395
-0.295671
-0.295987
-0.296347
-0.296758
-0.297222
-0.297746
-0.298336
-0.299
-0.299746
-0.300587
-0.30154
-0.302623
-0.303862
-0.305298
-0.306983
-0.30889
-0.311077
-0.293508
-0.293861
-0.294134
-0.29436
-0.294561
-0.294737
-0.294894
-0.295039
-0.29518
-0.295329
-0.295492
-0.295679
-0.295897
-0.296154
-0.296454
-0.296804
-0.297209
-0.297675
-0.298206
-0.298811
-0.299496
-0.300272
-0.301151
-0.30215
-0.303289
-0.304592
-0.306104
-0.307886
-0.309906
-0.312057
-0.294488
-0.294771
-0.294992
-0.295173
-0.295331
-0.295467
-0.295585
-0.295693
-0.295799
-0.295913
-0.296043
-0.296199
-0.296389
-0.29662
-0.296899
-0.297232
-0.297625
-0.298083
-0.298614
-0.299224
-0.299922
-0.300718
-0.301624
-0.302656
-0.303834
-0.305184
-0.306748
-0.308596
-0.310691
-0.312931
-0.295475
-0.295691
-0.29586
-0.295996
-0.296112
-0.296206
-0.296284
-0.296352
-0.296418
-0.296493
-0.296586
-0.296705
-0.296861
-0.29706
-0.297311
-0.29762
-0.297993
-0.298438
-0.29896
-0.299567
-0.300268
-0.301074
-0.301995
-0.303047
-0.30425
-0.305628
-0.307223
-0.309107
-0.311222
-0.313549
-0.29646
-0.296613
-0.296732
-0.296825
-0.296897
-0.296949
-0.296984
-0.297009
-0.297033
-0.297064
-0.297114
-0.297192
-0.297307
-0.297469
-0.297684
-0.297962
-0.298308
-0.29873
-0.299234
-0.29983
-0.300525
-0.30133
-0.302255
-0.303315
-0.304529
-0.305917
-0.307524
-0.30942
-0.311529
-0.313852
-0.297436
-0.297532
-0.297604
-0.297654
-0.297684
-0.297692
-0.297682
-0.297662
-0.297639
-0.297623
-0.297625
-0.297655
-0.297723
-0.29784
-0.298013
-0.298251
-0.298561
-0.298952
-0.299431
-0.300006
-0.300685
-0.301479
-0.302398
-0.303454
-0.304665
-0.306049
-0.307647
-0.309532
-0.31161
-0.313849
-0.2984
-0.298444
-0.298472
-0.298482
-0.298468
-0.298432
-0.298376
-0.298307
-0.298233
-0.298165
-0.298114
-0.29809
-0.298105
-0.298169
-0.298292
-0.298482
-0.298749
-0.299101
-0.299545
-0.30009
-0.300744
-0.301517
-0.30242
-0.303462
-0.304658
-0.306024
-0.307595
-0.309448
-0.311471
-0.313545
-0.299349
-0.299347
-0.299336
-0.299306
-0.29925
-0.299169
-0.299065
-0.298944
-0.298816
-0.298691
-0.29858
-0.298496
-0.29845
-0.298455
-0.298519
-0.298655
-0.298869
-0.299173
-0.299573
-0.300079
-0.3007
-0.301443
-0.302319
-0.303338
-0.304509
-0.305845
-0.307374
-0.309174
-0.311122
-0.312945
-0.300281
-0.300241
-0.300195
-0.300127
-0.30003
-0.299903
-0.299749
-0.299573
-0.299387
-0.299199
-0.299024
-0.298873
-0.29876
-0.298697
-0.298696
-0.298767
-0.298922
-0.299168
-0.299517
-0.299975
-0.300553
-0.301258
-0.302099
-0.303085
-0.304222
-0.305519
-0.306993
-0.308722
-0.310581
-0.312053
-0.301199
-0.301129
-0.301051
-0.300948
-0.300811
-0.300637
-0.30043
-0.300197
-0.299948
-0.299693
-0.299447
-0.299223
-0.299036
-0.298898
-0.298823
-0.298823
-0.298909
-0.29909
-0.299378
-0.299781
-0.300307
-0.300966
-0.301765
-0.302709
-0.303805
-0.305054
-0.306463
-0.308105
-0.309871
-0.310875
-0.302107
-0.302013
-0.301909
-0.301773
-0.301595
-0.301374
-0.301113
-0.30082
-0.300503
-0.300176
-0.299854
-0.299551
-0.299283
-0.299063
-0.298907
-0.298827
-0.298836
-0.298945
-0.299164
-0.299504
-0.299972
-0.300576
-0.301325
-0.302221
-0.303268
-0.304462
-0.305799
-0.307338
-0.309019
-0.309423
-0.303011
-0.302902
-0.302775
-0.302608
-0.30239
-0.302121
-0.301804
-0.301446
-0.301058
-0.300655
-0.300251
-0.299862
-0.299506
-0.299198
-0.298954
-0.298788
-0.298713
-0.298742
-0.298886
-0.299154
-0.299557
-0.300101
-0.300793
-0.301634
-0.302626
-0.303759
-0.305016
-0.306435
-0.308053
-0.307715
-0.303921
-0.303803
-0.303657
-0.303461
-0.303203
-0.302884
-0.302508
-0.302083
-0.30162
-0.301135
-0.300645
-0.300165
-0.299716
-0.299313
-0.298975
-0.298716
-0.298551
-0.298494
-0.298556
-0.298748
-0.299079
-0.299557
-0.300186
-0.300967
-0.301896
-0.302961
-0.304132
-0.305409
-0.307001
-0.305779
-0.304848
-0.304728
-0.304565
-0.30434
-0.304043
-0.303673
-0.303235
-0.30274
-0.302198
-0.301628
-0.301045
-0.30047
-0.299922
-0.29942
-0.298982
-0.298625
-0.298365
-0.298216
-0.298192
-0.298302
-0.298557
-0.298963
-0.299524
-0.300239
-0.301099
-0.302088
-0.303167
-0.304274
-0.305882
-0.303657
-0.305806
-0.30569
-0.305513
-0.30526
-0.304921
-0.304498
-0.303997
-0.303427
-0.302803
-0.302143
-0.301464
-0.300789
-0.300138
-0.299532
-0.29899
-0.298531
-0.298171
-0.297928
-0.297813
-0.297838
-0.298013
-0.298344
-0.298832
-0.299474
-0.300257
-0.301159
-0.302138
-0.303042
-0.304705
-0.301407
-0.306814
-0.306703
-0.306513
-0.306231
-0.30585
-0.305371
-0.304803
-0.304156
-0.303446
-0.302692
-0.301915
-0.301136
-0.300379
-0.299665
-0.299016
-0.298452
-0.297991
-0.29765
-0.297442
-0.29738
-0.297472
-0.297723
-0.298133
-0.298696
-0.299392
-0.300194
-0.301063
-0.301727
-0.303465
-0.299097
-0.307889
-0.307785
-0.307582
-0.307269
-0.306843
-0.306306
-0.305668
-0.304941
-0.304142
-0.303291
-0.302411
-0.301526
-0.30066
-0.299837
-0.299079
-0.298409
-0.297845
-0.297404
-0.297102
-0.296951
-0.296957
-0.297125
-0.297452
-0.297927
-0.298525
-0.29921
-0.299951
-0.300345
-0.302136
-0.296804
-0.309052
-0.308954
-0.308736
-0.30839
-0.307915
-0.307317
-0.306606
-0.305795
-0.304903
-0.303953
-0.302969
-0.301976
-0.301
-0.300067
-0.2992
-0.298422
-0.297755
-0.297215
-0.296818
-0.296575
-0.296493
-0.296573
-0.296809
-0.297185
-0.29767
-0.298217
-0.298806
-0.298916
-0.300682
-0.294604
-0.310325
-0.310231
-0.309994
-0.30961
-0.309083
-0.30842
-0.307631
-0.306733
-0.305746
-0.304695
-0.303605
-0.302503
-0.301416
-0.300372
-0.299397
-0.298513
-0.297742
-0.297103
-0.29661
-0.296274
-0.2961
-0.296085
-0.296219
-0.296482
-0.296833
-0.297219
-0.297618
-0.297452
-0.299057
-0.292557
-0.311732
-0.311634
-0.311373
-0.310947
-0.310363
-0.309629
-0.308759
-0.307771
-0.306687
-0.305532
-0.304335
-0.303123
-0.301927
-0.300773
-0.29969
-0.2987
-0.297828
-0.297089
-0.296499
-0.296066
-0.295793
-0.295674
-0.295693
-0.295821
-0.296014
-0.29621
-0.296369
-0.295957
-0.297187
-0.290654
-0.313295
-0.313186
-0.312893
-0.312419
-0.311772
-0.310962
-0.310006
-0.308924
-0.307739
-0.30648
-0.305175
-0.303855
-0.302549
-0.301287
-0.300097
-0.299004
-0.298029
-0.29719
-0.2965
-0.295966
-0.295584
-0.295346
-0.295229
-0.295199
-0.295203
-0.295178
-0.295042
-0.294429
-0.294966
-0.288765
-0.315038
-0.314906
-0.314573
-0.314043
-0.313325
-0.312434
-0.311388
-0.310208
-0.30892
-0.307555
-0.306142
-0.304713
-0.303299
-0.30193
-0.300635
-0.299438
-0.298361
-0.29742
-0.296625
-0.295978
-0.295475
-0.295098
-0.294819
-0.294599
-0.294379
-0.294103
-0.293638
-0.292887
-0.292374
-0.287028
-0.316983
-0.316815
-0.316431
-0.315835
-0.31504
-0.314061
-0.312918
-0.311637
-0.310244
-0.308771
-0.307249
-0.305712
-0.30419
-0.302716
-0.301316
-0.300015
-0.298834
-0.297785
-0.296876
-0.296105
-0.29546
-0.294918
-0.294446
-0.293997
-0.293511
-0.292944
-0.292144
-0.291304
-0.289712
-0.286904
-0.319151
-0.318931
-0.318485
-0.317814
-0.316932
-0.315857
-0.314613
-0.313225
-0.311724
-0.310141
-0.30851
-0.306864
-0.305236
-0.303656
-0.302151
-0.300745
-0.299454
-0.29829
-0.297254
-0.29634
-0.295528
-0.294789
-0.294083
-0.293361
-0.292561
-0.291649
-0.290491
-0.289453
-0.287414
-0.289592
-0.321562
-0.321272
-0.32075
-0.319993
-0.319015
-0.317837
-0.316484
-0.314985
-0.313372
-0.311677
-0.309936
-0.308181
-0.306446
-0.304759
-0.303147
-0.301631
-0.300223
-0.298931
-0.297751
-0.296669
-0.295659
-0.294685
-0.293701
-0.292654
-0.291486
-0.29017
-0.288605
-0.287117
-0.284853
-0.285719
-0.324232
-0.323855
-0.323242
-0.322387
-0.321303
-0.320012
-0.318544
-0.316929
-0.3152
-0.313391
-0.311538
-0.309673
-0.307828
-0.306032
-0.304308
-0.302674
-0.301139
-0.299702
-0.298355
-0.297075
-0.29583
-0.294577
-0.293265
-0.291842
-0.290254
-0.288475
-0.286432
-0.284369
-0.281615
-0.280826
-0.327177
-0.326692
-0.325974
-0.32501
-0.323808
-0.322396
-0.320806
-0.319068
-0.317219
-0.315292
-0.313323
-0.311345
-0.309388
-0.307479
-0.305636
-0.303873
-0.302194
-0.300591
-0.299048
-0.297534
-0.296012
-0.294433
-0.292745
-0.290897
-0.28884
-0.286554
-0.283983
-0.281301
-0.27798
-0.275879
-0.330411
-0.329798
-0.32896
-0.327873
-0.326542
-0.325
-0.323278
-0.321412
-0.319437
-0.317388
-0.3153
-0.313206
-0.311131
-0.309101
-0.307128
-0.305222
-0.303377
-0.301581
-0.299808
-0.298021
-0.296177
-0.294224
-0.292112
-0.289794
-0.287233
-0.284413
-0.281294
-0.278002
-0.27413
-0.27098
-0.333944
-0.333183
-0.332209
-0.330987
-0.329516
-0.327833
-0.325972
-0.323971
-0.321864
-0.319688
-0.317477
-0.315259
-0.31306
-0.310898
-0.308782
-0.306712
-0.304677
-0.302654
-0.300612
-0.298507
-0.296293
-0.293919
-0.291341
-0.288521
-0.285431
-0.282069
-0.278406
-0.274546
-0.270167
-0.266254
-0.337786
-0.336858
-0.335732
-0.334361
-0.33274
-0.330905
-0.328898
-0.326753
-0.324509
-0.322201
-0.319859
-0.317511
-0.315177
-0.312869
-0.31059
-0.308331
-0.306074
-0.303787
-0.301431
-0.298962
-0.296331
-0.293495
-0.290415
-0.287069
-0.283442
-0.279542
-0.275358
-0.270982
-0.266156
-0.261671
-0.341946
-0.34083
-0.339537
-0.338006
-0.336221
-0.334227
-0.332063
-0.329769
-0.327381
-0.324933
-0.322453
-0.319964
-0.317482
-0.31501
-0.312544
-0.310066
-0.307548
-0.304954
-0.302238
-0.299357
-0.296265
-0.292929
-0.289322
-0.285437
-0.281274
-0.276855
-0.272182
-0.267343
-0.262126
-0.257209
-0.34643
-0.345107
-0.343633
-0.341928
-0.339971
-0.337806
-0.335479
-0.333027
-0.330488
-0.327892
-0.325264
-0.322622
-0.319974
-0.317315
-0.314632
-0.311898
-0.309077
-0.306127
-0.303003
-0.299663
-0.296071
-0.292205
-0.288055
-0.283628
-0.278942
-0.274029
-0.268903
-0.263649
-0.25809
-0.252831
-0.351242
-0.349695
-0.348025
-0.346137
-0.343995
-0.341652
-0.339153
-0.336537
-0.333838
-0.331084
-0.328296
-0.325484
-0.322648
-0.319773
-0.316837
-0.313804
-0.310632
-0.307277
-0.303696
-0.299854
-0.295728
-0.291311
-0.28661
-0.281649
-0.276459
-0.27108
-0.265537
-0.25991
-0.254047
-0.248505
-0.356387
-0.354598
-0.35272
-0.350636
-0.348303
-0.345773
-0.343095
-0.340306
-0.337438
-0.334516
-0.331552
-0.328549
-0.325496
-0.322371
-0.319139
-0.315759
-0.312185
-0.308374
-0.304289
-0.299907
-0.29522
-0.290239
-0.284989
-0.279507
-0.273836
-0.268022
-0.262095
-0.25613
-0.249994
-0.244204
-0.361867
-0.359819
-0.35772
-0.355433
-0.352899
-0.350174
-0.34731
-0.34434
-0.341294
-0.338188
-0.335029
-0.331809
-0.328507
-0.325089
-0.321514
-0.317735
-0.313705
-0.309386
-0.304754
-0.2998
-0.294534
-0.288985
-0.283194
-0.277209
-0.271082
-0.264862
-0.258581
-0.252307
-0.245922
-0.239905
-0.36768
-0.365358
-0.363029
-0.360529
-0.357787
-0.354862
-0.351804
-0.348645
-0.345407
-0.342101
-0.338723
-0.335254
-0.331662
-0.327904
-0.323932
-0.319697
-0.315157
-0.310284
-0.305066
-0.299516
-0.293661
-0.287546
-0.281228
-0.274762
-0.268205
-0.261606
-0.254997
-0.248435
-0.24182
-0.235589
-0.373824
-0.371213
-0.368644
-0.365926
-0.36297
-0.359839
-0.35658
-0.353221
-0.349777
-0.346249
-0.342621
-0.338865
-0.334937
-0.330786
-0.32636
-0.321612
-0.316509
-0.311037
-0.305204
-0.29904
-0.292592
-0.285922
-0.279093
-0.27217
-0.265208
-0.258254
-0.251339
-0.244509
-0.237677
-0.231243
-0.380292
-0.37738
-0.374563
-0.37162
-0.368446
-0.365103
-0.361635
-0.358064
-0.354395
-0.350619
-0.346708
-0.34262
-0.338303
-0.3337
-0.328759
-0.323441
-0.317726
-0.311618
-0.305145
-0.298359
-0.291323
-0.28411
-0.276791
-0.269433
-0.26209
-0.254803
-0.247601
-0.24052
-0.233484
-0.226851
-0.387074
-0.383849
-0.380777
-0.377607
-0.37421
-0.370649
-0.366964
-0.363166
-0.35925
-0.355194
-0.350958
-0.346487
-0.341723
-0.336606
-0.33109
-0.325147
-0.318775
-0.312001
-0.304873
-0.297462
-0.289847
-0.282109
-0.274322
-0.266552
-0.258848
-0.251249
-0.243776
-0.236457
-0.229228
-0.222403
-0.394152
-0.390606
-0.387275
-0.383874
-0.380252
-0.376468
-0.372553
-0.368511
-0.364321
-0.359948
-0.355338
-0.350429
-0.345155
-0.33946
-0.333309
-0.326691
-0.319625
-0.312161
-0.304371
-0.29634
-0.288159
-0.279915
-0.271682
-0.263521
-0.255478
-0.247583
-0.239855
-0.232309
-0.224897
-0.217886
-0.401507
-0.397632
-0.394039
-0.390406
-0.386556
-0.382541
-0.378386
-0.374077
-0.369581
-0.364847
-0.35981
-0.354399
-0.34855
-0.342215
-0.335372
-0.328034
-0.320245
-0.312077
-0.303623
-0.294982
-0.286253
-0.277524
-0.268866
-0.260335
-0.251971
-0.243797
-0.235826
-0.228067
-0.220481
-0.213291
-0.40911
-0.4049
-0.401045
-0.397181
-0.393101
-0.388847
-0.384434
-0.379833
-0.374993
-0.369849
-0.364325
-0.358348
-0.351858
-0.34482
-0.337235
-0.329139
-0.320605
-0.311727
-0.302615
-0.293379
-0.284121
-0.274928
-0.265866
-0.256986
-0.248317
-0.239879
-0.231679
-0.223717
-0.215967
-0.208605
-0.416927
-0.412381
-0.408264
-0.404169
-0.399856
-0.395355
-0.390665
-0.385739
-0.380512
-0.374903
-0.36883
-0.362219
-0.355022
-0.347225
-0.338852
-0.329971
-0.320678
-0.31109
-0.301331
-0.291518
-0.281753
-0.272119
-0.262674
-0.253462
-0.244506
-0.235818
-0.227401
-0.219249
-0.211344
-0.203818
-0.424915
-0.420034
-0.415659
-0.411335
-0.406785
-0.402024
-0.397034
-0.391749
-0.386085
-0.379952
-0.373262
-0.365951
-0.357985
-0.349377
-0.340181
-0.330493
-0.320437
-0.310147
-0.299758
-0.289389
-0.27914
-0.269085
-0.259279
-0.249753
-0.240525
-0.231602
-0.22298
-0.21465
-0.2066
-0.19892
-0.433026
-0.427814
-0.423186
-0.418636
-0.413844
-0.408808
-0.403491
-0.397806
-0.391652
-0.38493
-0.377557
-0.369479
-0.360688
-0.351224
-0.341178
-0.330673
-0.319857
-0.308879
-0.29788
-0.286978
-0.276267
-0.265815
-0.255666
-0.245845
-0.236361
-0.227216
-0.218403
-0.209907
-0.201724
-0.1939
-0.441201
-0.435666
-0.430793
-0.426018
-0.420979
-0.415652
-0.409976
-0.403844
-0.397142
-0.389767
-0.381643
-0.372737
-0.36307
-0.352717
-0.341802
-0.330479
-0.318913
-0.307266
-0.29568
-0.28427
-0.273123
-0.262295
-0.251823
-0.241724
-0.232001
-0.222649
-0.213658
-0.20501
-0.196704
-0.188748
-0.449378
-0.44353
-0.438419
-0.433423
-0.428129
-0.42249
-0.41642
-0.409792
-0.402482
-0.394388
-0.385449
-0.375659
-0.365074
-0.353807
-0.342015
-0.329879
-0.317581
-0.305288
-0.293142
-0.281251
-0.269691
-0.25851
-0.247736
-0.237376
-0.22743
-0.217887
-0.208732
-0.199946
-0.19153
-0.183455
-0.457483
-0.451337
-0.445999
-0.440784
-0.435226
-0.42925
-0.422746
-0.41557
-0.40759
-0.398712
-0.388899
-0.378177
-0.366641
-0.354446
-0.341779
-0.328844
-0.315837
-0.302926
-0.290248
-0.277902
-0.265955
-0.254444
-0.243388
-0.232787
-0.222635
-0.212916
-0.203613
-0.194705
-0.18619
-0.178011
-0.465437
-0.45901
-0.453457
-0.448025
-0.442191
-0.435852
-0.428872
-0.421093
-0.412381
-0.402659
-0.391918
-0.380225
-0.367717
-0.354588
-0.341057
-0.327346
-0.313658
-0.300159
-0.28698
-0.274208
-0.2619
-0.250082
-0.238764
-0.227942
-0.217601
-0.207725
-0.198289
-0.189275
-0.180675
-0.172407
-0.473155
-0.466468
-0.460712
-0.455064
-0.448942
-0.442209
-0.434709
-0.426271
-0.416768
-0.406146
-0.394432
-0.381739
-0.368249
-0.354192
-0.339816
-0.325357
-0.31102
-0.296968
-0.283319
-0.270151
-0.257507
-0.245407
-0.23385
-0.222825
-0.212316
-0.202299
-0.19275
-0.183646
-0.174976
-0.166636
-0.480544
-0.473622
-0.467676
-0.461812
-0.455386
-0.448229
-0.440163
-0.431011
-0.420662
-0.409091
-0.396369
-0.382658
-0.368185
-0.353217
-0.338024
-0.32285
-0.3079
-0.29333
-0.279245
-0.265711
-0.252761
-0.240402
-0.228629
-0.217424
-0.206766
-0.196628
-0.186983
-0.177808
-0.169083
-0.16069
-0.487509
-0.480377
-0.474257
-0.468176
-0.461429
-0.453814
-0.445136
-0.435219
-0.423973
-0.411413
-0.397659
-0.382924
-0.36748
-0.351626
-0.335648
-0.319799
-0.304277
-0.289226
-0.274741
-0.260872
-0.247643
-0.235052
-0.223087
-0.211724
-0.200938
-0.1907
-0.180978
-0.171751
-0.162988
-0.154563
-0.493949
-0.486637
-0.480356
-0.474057
-0.466971
-0.458864
-0.44953
-0.4388
-0.426615
-0.413035
-0.398236
-0.382481
-0.366088
-0.349381
-0.332661
-0.31618
-0.300128
-0.284637
-0.269786
-0.255616
-0.242137
-0.229342
-0.217209
-0.205712
-0.194821
-0.184504
-0.174727
-0.165468
-0.156685
-0.148251
-0.499762
-0.492299
-0.485873
-0.479353
-0.471909
-0.463277
-0.453244
-0.44166
-0.428501
-0.413882
-0.398037
-0.381281
-0.363969
-0.346451
-0.329035
-0.311969
-0.295432
-0.279542
-0.264364
-0.249926
-0.236229
-0.223256
-0.210983
-0.199376
-0.188404
-0.178029
-0.168219
-0.158949
-0.150165
-0.141745
-0.504841
-0.497261
-0.490704
-0.483961
-0.47614
-0.466951
-0.456182
-0.443707
-0.42955
-0.413886
-0.397005
-0.379275
-0.361086
-0.342806
-0.324745
-0.307144
-0.290169
-0.273923
-0.258456
-0.243786
-0.229902
-0.216782
-0.204395
-0.192705
-0.181675
-0.171267
-0.161445
-0.152186
-0.143421
-0.135039
-0.509083
-0.501419
-0.494746
-0.487776
-0.479559
-0.469784
-0.458246
-0.444854
-0.429687
-0.41298
-0.395087
-0.376421
-0.357405
-0.338416
-0.319767
-0.301684
-0.28432
-0.267762
-0.252048
-0.237181
-0.223144
-0.209907
-0.197435
-0.185687
-0.174625
-0.164208
-0.154398
-0.145171
-0.136446
-0.128128
-0.512383
-0.504669
-0.497895
-0.490695
-0.482064
-0.471677
-0.459345
-0.44502
-0.42884
-0.411108
-0.392236
-0.372683
-0.352895
-0.333259
-0.314079
-0.29557
-0.277869
-0.261045
-0.245123
-0.230097
-0.215941
-0.20262
-0.190092
-0.178315
-0.167247
-0.156845
-0.147071
-0.137899
-0.129237
-0.121009
-0.51464
-0.506911
-0.500051
-0.492616
-0.483557
-0.472537
-0.459392
-0.444126
-0.426943
-0.408215
-0.38841
-0.368027
-0.347531
-0.327311
-0.307663
-0.288786
-0.270798
-0.253756
-0.23767
-0.222523
-0.208284
-0.194911
-0.182358
-0.17058
-0.159532
-0.14917
-0.139455
-0.130361
-0.121789
-0.113679
-0.515756
-0.508046
-0.501114
-0.493443
-0.483942
-0.472274
-0.458308
-0.442105
-0.423941
-0.404256
-0.383572
-0.362424
-0.341289
-0.320554
-0.300502
-0.281316
-0.263096
-0.245883
-0.229677
-0.21445
-0.200164
-0.186772
-0.174225
-0.162476
-0.151475
-0.141177
-0.131542
-0.122547
-0.114095
-0.106125
-0.515637
-0.507982
-0.500992
-0.493084
-0.483132
-0.470807
-0.456018
-0.438893
-0.419782
-0.399191
-0.377693
-0.355851
-0.33415
-0.312972
-0.292583
-0.273148
-0.254751
-0.237417
-0.221135
-0.205869
-0.191573
-0.178198
-0.16569
-0.153998
-0.143073
-0.132863
-0.123326
-0.114447
-0.106126
-0.0982774
-0.514198
-0.506631
-0.499598
-0.491452
-0.481045
-0.46806
-0.452459
-0.434438
-0.414424
-0.392987
-0.370748
-0.348289
-0.3261
-0.304553
-0.283895
-0.264273
-0.245755
-0.22835
-0.212037
-0.196774
-0.182508
-0.169185
-0.156749
-0.145146
-0.134323
-0.124227
-0.114811
-0.106065
-0.0978542
-0.0899963
-0.511359
-0.503913
-0.496851
-0.488469
-0.477606
-0.463968
-0.447573
-0.428693
-0.407831
-0.385619
-0.362717
-0.339724
-0.317128
-0.295287
-0.27443
-0.254684
-0.2361
-0.218677
-0.20238
-0.187162
-0.172966
-0.159732
-0.147402
-0.135919
-0.125227
-0.11527
-0.106004
-0.0974245
-0.08931
-0.0812764
-0.507048
-0.499756
-0.492679
-0.484067
-0.472753
-0.458475
-0.441314
-0.421623
-0.399978
-0.377069
-0.353588
-0.330147
-0.307228
-0.285169
-0.264183
-0.244377
-0.225785
-0.208394
-0.192162
-0.177032
-0.162945
-0.149838
-0.137649
-0.126318
-0.115788
-0.105997
-0.0969045
-0.0885266
-0.0805085
-0.0727433
-0.501204
-0.494096
-0.487019
-0.478183
-0.46643
-0.451534
-0.433646
-0.4132
-0.390845
-0.367323
-0.343354
-0.319554
-0.296395
-0.274199
-0.253154
-0.233352
-0.214809
-0.197503
-0.181382
-0.166386
-0.152449
-0.139506
-0.127493
-0.116348
-0.106011
-0.0964196
-0.0875432
-0.0793475
-0.0714907
-0.0640902
-0.493775
-0.48688
-0.479818
-0.47077
-0.458592
-0.443107
-0.42454
-0.403406
-0.380421
-0.356377
-0.332013
-0.307947
-0.284634
-0.262377
-0.241346
-0.22161
-0.203175
-0.186006
-0.170045
-0.155227
-0.141482
-0.12874
-0.116941
-0.106015
-0.095901
-0.0865396
-0.0779008
-0.0699233
-0.0622723
-0.0552216
-0.484719
-0.478065
-0.471034
-0.461786
-0.449206
-0.43317
-0.41398
-0.39223
-0.368705
-0.344233
-0.319571
-0.29533
-0.27195
-0.249711
-0.228763
-0.209158
-0.190888
-0.173909
-0.158157
-0.143559
-0.130052
-0.117551
-0.105998
-0.0953238
-0.085465
-0.0763622
-0.0679857
-0.0602595
-0.0528411
-0.0461236
-0.474006
-0.467618
-0.460635
-0.451205
-0.43825
-0.421707
-0.401957
-0.379674
-0.3557
-0.330899
-0.306037
-0.281714
-0.258353
-0.236211
-0.215416
-0.196005
-0.177958
-0.161221
-0.145727
-0.131398
-0.118162
-0.105943
-0.0946725
-0.0842839
-0.074711
-0.0658949
-0.057807
-0.0503598
-0.0431934
-0.0368098
-0.461616
-0.455519
-0.448601
-0.439007
-0.425712
-0.408714
-0.388475
-0.365744
-0.341419
-0.316391
-0.291427
-0.267116
-0.243859
-0.22189
-0.201318
-0.182164
-0.164397
-0.147956
-0.132767
-0.11875
-0.105829
-0.0939282
-0.0829763
-0.0729057
-0.0636489
-0.0551475
-0.0473744
-0.0402298
-0.0333324
-0.0272936
-0.44754
-0.441757
-0.434922
-0.425189
-0.411591
-0.394196
-0.373545
-0.350459
-0.325883
-0.300728
-0.275762
-0.251555
-0.228486
-0.206766
-0.186485
-0.167652
-0.150221
-0.134127
-0.11929
-0.105629
-0.093065
-0.08152
-0.0709219
-0.0612017
-0.0522908
-0.0441314
-0.0366984
-0.0298783
-0.023267
-0.0175878
-0.431783
-0.426335
-0.419601
-0.409756
-0.395899
-0.378169
-0.357188
-0.333841
-0.309117
-0.28394
-0.259069
-0.235058
-0.212259
-0.190863
-0.170941
-0.152487
-0.135448
-0.119751
-0.105314
-0.0920532
-0.0798857
-0.0687339
-0.0585241
-0.0491861
-0.0406503
-0.0328599
-0.0257916
-0.0193168
-0.0130089
-0.00770519
-0.414359
-0.409266
-0.402652
-0.392724
-0.378656
-0.36066
-0.339434
-0.315925
-0.291156
-0.266058
-0.24138
-0.217653
-0.195206
-0.174206
-0.154708
-0.136692
-0.120099
-0.10485
-0.0908594
-0.0780402
-0.0663093
-0.0555874
-0.0457998
-0.0368752
-0.0287433
-0.0213484
-0.0146686
-0.00855932
-0.00257232
0.00234021
-0.395294
-0.390572
-0.384099
-0.374121
-0.359893
-0.341703
-0.320321
-0.296751
-0.272039
-0.247122
-0.222732
-0.199375
-0.177358
-0.156825
-0.137813
-0.120294
-0.1042
-0.0894472
-0.0759471
-0.0636116
-0.0523559
-0.0420996
-0.0327674
-0.024287
-0.0165872
-0.00961369
-0.00334586
0.00237781
0.008026
0.0125327
-0.374625
-0.370291
-0.36398
-0.353985
-0.339653
-0.321344
-0.299898
-0.276366
-0.251815
-0.227176
-0.203165
-0.180264
-0.158751
-0.138752
-0.120289
-0.103322
-0.0877777
-0.0735681
-0.0606024
-0.0487909
-0.0380478
-0.0282921
-0.0194475
-0.0114412
-0.00420119
0.00232525
0.00815808
0.0134761
0.0187671
0.0228543
-0.3524
-0.348467
-0.342339
-0.332365
-0.317986
-0.299636
-0.278219
-0.254824
-0.230531
-0.206268
-0.182727
-0.160361
-0.139426
-0.120026
-0.10217
-0.0858088
-0.0708629
-0.0572417
-0.0448522
-0.0336035
-0.0234092
-0.0141876
-0.00586211
0.00164101
0.00839397
0.014448
0.0198229
0.0247149
0.029629
0.033283
-0.328677
-0.325155
-0.319233
-0.309318
-0.294952
-0.276643
-0.255346
-0.23218
-0.208246
-0.184454
-0.161468
-0.139715
-0.119425
-0.100687
-0.0834938
-0.0677891
-0.0534887
-0.0404991
-0.0287257
-0.0180771
-0.00846605
0.000189182
0.00796549
0.0149371
0.0211764
0.0267328
0.0316268
0.0360717
0.0405861
0.0437892
-0.303523
-0.300421
-0.294727
-0.284913
-0.270625
-0.252433
-0.231334
-0.208502
-0.185027
-0.161793
-0.139442
-0.118375
-0.0987965
-0.0807777
-0.064301
-0.0493013
-0.0356908
-0.0233737
-0.0122544
-0.00224085
0.0067541
0.0148124
0.0220107
0.0284237
0.0341232
0.0391571
0.0435469
0.0475216
0.0516078
0.0543369
-0.277015
-0.274338
-0.268895
-0.259227
-0.245077
-0.227062
-0.20627
-0.183869
-0.160938
-0.138347
-0.116709
-0.0963955
-0.0775903
-0.0603463
-0.0446355
-0.0303863
-0.0175073
-0.00590112
0.00452854
0.0138739
0.0222222
0.0296547
0.0362482
0.0420767
0.0472116
0.0516982
0.05556
0.0590388
0.0626618
0.0648951
-0.249232
-0.246991
-0.241822
-0.232341
-0.218364
-0.200636
-0.180237
-0.158351
-0.136051
-0.114184
-0.0933304
-0.0738352
-0.0558601
-0.0394422
-0.0245436
-0.0110872
0.00102136
0.0118808
0.0215878
0.0302346
0.0379077
0.0446881
0.0506517
0.055872
0.0604184
0.0643336
0.0676436
0.0706005
0.0737233
0.0754398
-0.22025
-0.21847
-0.213598
-0.204321
-0.190616
-0.173241
-0.153315
-0.132029
-0.110443
-0.0893733
-0.0693715
-0.0507543
-0.0336621
-0.0181177
-0.00407439
0.00855016
0.0198526
0.0299324
0.0388866
0.0468067
0.0537789
0.0598832
0.0651944
0.0697849
0.0737208
0.0770411
0.0797779
0.0821928
0.084774
0.085907
-0.190144
-0.188878
-0.184325
-0.175298
-0.161916
-0.144965
-0.125592
-0.104987
-0.084191
-0.0639891
-0.0449009
-0.0272163
-0.0110555
0.00357199
0.0167211
0.0284781
0.0389418
0.0482122
0.0563861
0.0635546
0.0698029
0.0752098
0.0798492
0.083791
0.0870961
0.0898
0.0919483
0.0938051
0.0957657
0.096139
-0.159027
-0.158385
-0.15407
-0.145359
-0.13236
-0.115905
-0.0971612
-0.0773142
-0.0573785
-0.0381079
-0.0199896
-0.00328711
0.0118983
0.0255698
0.0377893
0.0486469
0.0582426
0.0666769
0.0740462
0.080441
0.0859453
0.0906369
0.0945884
0.0978662
0.100524
0.102597
0.104152
0.105421
0.106586
0.105967
-0.127146
-0.126944
-0.12298
-0.114617
-0.102054
-0.0861625
-0.0681198
-0.0491004
-0.0300902
-0.0118087
0.00528896
0.0209648
0.0351359
0.0478166
0.0590752
0.0690049
0.0777069
0.0852816
0.0918251
0.0974271
0.10217
0.106132
0.109383
0.111987
0.113989
0.115432
0.116408
0.117048
0.117171
0.115423
-0.0945094
-0.0947467
-0.0911622
-0.0831817
-0.0711069
-0.0558418
-0.038567
-0.0204395
-0.00241339
0.0148272
0.0308592
0.0454693
0.0585917
0.0702512
0.0805217
0.0894989
0.0972849
0.10398
0.10968
0.114473
0.118441
0.121661
0.124203
0.126125
0.127472
0.128306
0.128739
0.128731
0.127718
0.125033
-0.0612279
-0.0619226
-0.0587309
-0.0511678
-0.0396308
-0.0250508
-0.00860474
0.00857301
0.0255627
0.0417168
0.0566439
0.0701545
0.0821988
0.0928112
0.10207
0.110074
0.116926
0.122725
0.127565
0.131536
0.134718
0.137187
0.139011
0.140248
0.140946
0.141189
0.141096
0.140406
0.138289
0.136893
-0.0274315
-0.0285911
-0.0258055
-0.0186926
-0.00774026
0.00610097
0.0216633
0.0378397
0.0537473
0.0687756
0.0825644
0.0949472
0.105889
0.115433
0.123662
0.130676
0.136577
0.141466
0.145436
0.148574
0.150962
0.152672
0.153773
0.154321
0.15437
0.154017
0.153346
0.152018
0.149517
0.148787
0.00675116
0.0051247
0.00749112
0.0141232
0.0244482
0.0375021
0.052132
0.0672621
0.0820484
0.095918
0.108541
0.119773
0.129593
0.138051
0.145236
0.151247
0.156187
0.160156
0.163246
0.165545
0.16713
0.168077
0.168451
0.168309
0.167709
0.166748
0.165478
0.163564
0.160755
0.159956
0.041191
0.0390984
0.0410339
0.0471575
0.0568167
0.0690402
0.0826953
0.0967409
0.110373
0.123058
0.134493
0.144557
0.15324
0.160601
0.16673
0.171729
0.175701
0.178743
0.180949
0.182402
0.183182
0.183362
0.183007
0.182174
0.180924
0.179349
0.177482
0.17503
0.17189
0.170747
0.0757579
0.073202
0.0746964
0.0802867
0.0892463
0.100602
0.113247
0.126176
0.138629
0.150108
0.16034
0.169224
0.176761
0.183017
0.188085
0.192067
0.195065
0.197178
0.198496
0.199103
0.199077
0.198489
0.197405
0.195881
0.193978
0.191784
0.189323
0.186337
0.182808
0.18122
0.110321
0.107307
0.108352
0.113387
0.121618
0.132075
0.143679
0.155468
0.166723
0.176982
0.186002
0.193698
0.200085
0.205233
0.209237
0.212201
0.214226
0.215409
0.21584
0.215602
0.214771
0.213418
0.211606
0.209393
0.206839
0.204025
0.200973
0.197451
0.193493
0.191413
0.144751
0.141283
0.141872
0.146335
0.153813
0.163345
0.173887
0.184518
0.194561
0.203593
0.211396
0.217904
0.223141
0.227182
0.230126
0.232075
0.23313
0.233387
0.232935
0.231856
0.230224
0.22811
0.225575
0.222675
0.219472
0.216042
0.212402
0.208339
0.203933
0.201336
0.178916
0.175003
0.175131
0.179007
0.185713
0.194302
0.203765
0.213227
0.222053
0.229856
0.236444
0.241767
0.245859
0.248801
0.25069
0.251631
0.251723
0.251062
0.249734
0.247821
0.245395
0.242526
0.239275
0.235695
0.231848
0.227806
0.22358
0.218979
0.214114
0.210986
0.212688
0.208337
0.208003
0.211281
0.217201
0.224834
0.233209
0.241497
0.249107
0.255685
0.261066
0.265213
0.268171
0.270023
0.270869
0.270812
0.269953
0.268383
0.26619
0.263453
0.260244
0.25663
0.252671
0.24842
0.243936
0.239288
0.234484
0.229348