/*--------------------------------*- C++ -*----------------------------------*\
  =========                 |
  \\      /  F ield         | OpenFOAM: The Open Source CFD Toolbox
   \\    /   O peration     | Website:  https://openfoam.org
    \\  /    A nd           | Version:  7
     \\/     M anipulation  |
\*---------------------------------------------------------------------------*/
FoamFile
{
    version     2.0;
    format      ascii;
    class       surfaceScalarField;
    location    "75";
    object      phi;
}
// * * * * * * * * * * * * * * * * * * * * * * * * * * * * * * * * * * * * * //

dimensions      [0 3 -1 0 0 0 0];

internalField   nonuniform List<scalar> 
79480
(
-7.46037e-07
6.32176e-06
-5.57572e-06
-2.87708e-06
1.85239e-05
-1.63928e-05
-6.34699e-06
3.07171e-05
-2.72472e-05
-1.11082e-05
4.28084e-05
-3.80471e-05
-1.71108e-05
5.4703e-05
-4.87004e-05
-2.43025e-05
6.63174e-05
-5.91258e-05
-3.26283e-05
7.75843e-05
-6.92584e-05
-4.20312e-05
8.84576e-05
-7.90547e-05
-5.24516e-05
9.89175e-05
-8.84971e-05
-6.38283e-05
0.000108974
-9.75973e-05
-7.60981e-05
0.000118668
-0.000106398
-8.91967e-05
0.00012807
-0.000114971
-0.000103059
0.000137279
-0.000123417
-0.00011762
0.000146416
-0.000131856
-0.000132814
0.000155616
-0.000140422
-0.000148576
0.000165021
-0.000149259
-0.000164844
0.000174772
-0.000158504
-0.000181556
0.000185
-0.000168288
-0.000198655
0.000195819
-0.00017872
-0.000216091
0.000207325
-0.000189889
-0.000233822
0.000219586
-0.000201855
-0.000251819
0.000232647
-0.00021465
-0.000270074
0.000246529
-0.000228275
-0.000288603
0.000261228
-0.000242698
-0.000307459
0.000276718
-0.000257862
-0.000326736
0.000292953
-0.000273676
-0.000346579
0.000309863
-0.00029002
-0.000367182
0.000327342
-0.000306738
-0.000388792
0.000345229
-0.00032362
0.000363312
-0.000340359
-0.000411745
-6.98696e-07
7.02046e-06
-2.70024e-06
2.05254e-05
-5.96665e-06
3.39835e-05
-1.04581e-05
4.72998e-05
-1.61319e-05
6.03768e-05
-2.29421e-05
7.31276e-05
-3.08396e-05
8.54818e-05
-3.9772e-05
9.739e-05
-4.96835e-05
0.000108829
-6.05154e-05
0.000119806
-7.22058e-05
0.000130358
-8.46907e-05
0.000140555
-9.79038e-05
0.000150493
-0.000111777
0.00016029
-0.000126242
0.000170081
-0.000141229
0.000180009
-0.00015667
0.000190213
-0.000172498
0.000200827
-0.000188647
0.000211968
-0.000205059
0.000223736
-0.000221681
0.000236208
-0.000238474
0.000249441
-0.000255416
0.000263471
-0.000272507
0.000278319
-0.000289782
0.000293993
-0.000307317
0.000310487
-0.000325236
0.000327782
-0.000343722
0.000345827
-0.000363014
0.000364521
0.000383759
-0.00038346
-6.46603e-07
7.66706e-06
-2.50523e-06
2.2384e-05
-5.5464e-06
3.70246e-05
-9.73818e-06
5.14916e-05
-1.50452e-05
6.56838e-05
-2.1428e-05
7.95105e-05
-2.88433e-05
9.28971e-05
-3.72433e-05
0.00010579
-4.65758e-05
0.000118162
-5.67841e-05
0.000130014
-6.78078e-05
0.000141382
-7.95822e-05
0.000152329
-9.20394e-05
0.00016295
-0.000105108
0.000173359
-0.000118716
0.000183689
-0.000132787
0.00019408
-0.000147245
0.000204671
-0.000162015
0.000215597
-0.000177021
0.000226975
-0.000192192
0.000238907
-0.000207461
0.000251478
-0.000222772
0.000264751
-0.000238082
0.00027878
-0.000253366
0.000293604
-0.000268634
0.00030926
-0.00028393
0.000325783
-0.000299352
0.000343205
-0.000315059
0.000361535
-0.000331278
0.00038074
0.000400845
-0.000348364
-5.90544e-07
8.2576e-06
-2.2949e-06
2.40884e-05
-5.09215e-06
3.98219e-05
-8.95825e-06
5.53577e-05
-1.3865e-05
7.05905e-05
-1.97795e-05
8.5425e-05
-2.66638e-05
9.97814e-05
-3.44745e-05
0.000113601
-4.31627e-05
0.00012685
-5.2674e-05
0.000139525
-6.29482e-05
0.000151656
-7.392e-05
0.000163301
-8.55191e-05
0.000174549
-9.76708e-05
0.000185511
-0.000110296
0.000196314
-0.000123313
0.000207096
-0.000136637
0.000217995
-0.00015018
0.00022914
-0.000163855
0.000240649
-0.000177574
0.000252627
-0.000191253
0.000265156
-0.00020481
0.000278309
-0.000218177
0.000292147
-0.000231299
0.000306725
-0.000244144
0.000322106
-0.00025672
0.000338359
-0.000269085
0.00035557
-0.000281366
0.000373815
-0.000293768
0.000393141
0.000413725
-0.000306648
-5.31385e-07
8.78899e-06
-2.07239e-06
2.56294e-05
-4.61046e-06
4.236e-05
-8.12918e-06
5.88764e-05
-1.26072e-05
7.50686e-05
-1.80178e-05
9.08355e-05
-2.4328e-05
0.000106092
-3.14985e-05
0.000120771
-3.94833e-05
0.000134835
-4.82295e-05
0.000148272
-5.76771e-05
0.000161104
-6.77596e-05
0.000173384
-7.84037e-05
0.000185193
-8.953e-05
0.000196637
-0.000101053
0.000207838
-0.000112883
0.000218926
-0.000124924
0.000230036
-0.000137077
0.000241292
-0.000149238
0.00025281
-0.000161301
0.00026469
-0.000173159
0.000277014
-0.000184703
0.000289854
-0.00019583
0.000303274
-0.000206446
0.000317341
-0.000216473
0.000332133
-0.000225869
0.000347755
-0.00023464
0.000364341
-0.000242869
0.000382044
-0.00025073
0.000401002
0.000421569
-0.000258573
-4.70065e-07
9.25905e-06
-1.84109e-06
2.70004e-05
-4.10847e-06
4.46273e-05
-7.26287e-06
6.20308e-05
-1.12893e-05
7.9095e-05
-1.61665e-05
9.57127e-05
-2.18659e-05
0.000111791
-2.83519e-05
0.000127257
-3.55806e-05
0.000142063
-4.35003e-05
0.000156191
-5.20506e-05
0.000169654
-6.1163e-05
0.000182496
-7.07609e-05
0.000194791
-8.07595e-05
0.000206635
-9.10662e-05
0.000218144
-0.000101581
0.000229441
-0.000112198
0.000240652
-0.000122802
0.000251896
-0.000133273
0.000263281
-0.000143483
0.0002749
-0.000153298
0.000286829
-0.00016258
0.000299135
-0.000171185
0.000311879
-0.000178972
0.000325128
-0.00018581
0.000338971
-0.000191592
0.000353537
-0.000196261
0.00036901
-0.000199843
0.000385627
-0.000202471
0.00040363
0.000423561
-0.000204464
-4.07575e-07
9.66663e-06
-1.60463e-06
2.81975e-05
-3.59378e-06
4.66165e-05
-6.37202e-06
6.48091e-05
-9.92989e-06
8.26529e-05
-1.42507e-05
0.000100033
-1.93098e-05
0.00011685
-2.50741e-05
0.000133021
-3.15016e-05
0.000148491
-3.85406e-05
0.00016323
-4.61299e-05
0.000177243
-5.41986e-05
0.000190565
-6.26657e-05
0.000203258
-7.14404e-05
0.00021541
-8.04221e-05
0.000227126
-8.95008e-05
0.00023852
-9.85567e-05
0.000249708
-0.00010746
0.0002608
-0.000116071
0.000271892
-0.00012424
0.000283068
-0.000131802
0.000294392
-0.000138585
0.000305918
-0.000144403
0.000317696
-0.00014906
0.000329786
-0.000152363
0.000342274
-0.000154131
0.000355304
-0.000154226
0.000369105
-0.000152607
0.000384008
-0.000149354
0.000400377
0.000418904
-0.000144697
-3.4495e-07
1.00116e-05
-1.36679e-06
2.92193e-05
-3.07437e-06
4.83241e-05
-5.46999e-06
6.72047e-05
-8.54865e-06
8.57315e-05
-1.22973e-05
0.000103782
-1.6694e-05
0.000121247
-2.17075e-05
0.000138035
-2.72964e-05
0.00015408
-3.34087e-05
0.000169342
-3.99814e-05
0.000183816
-4.69403e-05
0.000197524
-5.41994e-05
0.000210517
-6.16612e-05
0.000222872
-6.92163e-05
0.000234681
-7.67435e-05
0.000246047
-8.41091e-05
0.000257074
-9.11668e-05
0.000267857
-9.77563e-05
0.000278482
-0.000103702
0.000289014
-0.000108811
0.000299501
-0.000112872
0.000309979
-0.000115652
0.000320476
-0.0001169
0.000331034
-0.00011635
0.000341725
-0.000113738
0.000352692
-0.000108832
0.000364199
-0.0001015
0.000376676
-9.1798e-05
0.000390676
0.000406827
-7.97208e-05
-2.83248e-07
1.02948e-05
-1.13144e-06
3.00675e-05
-2.55845e-06
4.97511e-05
-4.57058e-06
6.92168e-05
-7.16601e-06
8.8327e-05
-1.0334e-05
0.00010695
-1.40543e-05
0.000124967
-1.82962e-05
0.000142277
-2.30179e-05
0.000158801
-2.81662e-05
0.000174491
-3.36752e-05
0.000189325
-3.94666e-05
0.000203315
-4.54488e-05
0.000216499
-5.15166e-05
0.00022894
-5.7551e-05
0.000240716
-6.34186e-05
0.000251915
-6.89712e-05
0.000262626
-7.40445e-05
0.000272931
-7.84568e-05
0.000282894
-8.20066e-05
0.000292563
-8.44696e-05
0.000301964
-8.55951e-05
0.000311104
-8.51026e-05
0.000319984
-8.268e-05
0.000328611
-7.7986e-05
0.000337031
-7.06633e-05
0.00034537
-6.03695e-05
0.000353905
-4.68384e-05
0.000363145
-3.00534e-05
0.00037389
0.000387606
-1.08332e-05
-2.23534e-07
1.05184e-05
-9.02492e-07
3.07465e-05
-2.05431e-06
5.09029e-05
-3.68777e-06
7.08503e-05
-5.80274e-06
9.04419e-05
-8.3894e-06
0.000109537
-1.14275e-05
0.000128005
-1.48858e-05
0.000145735
-1.87209e-05
0.000162636
-2.28769e-05
0.000178647
-2.72843e-05
0.000193733
-3.18598e-05
0.000207891
-3.65048e-05
0.000221144
-4.11059e-05
0.000233541
-4.55333e-05
0.000245143
-4.96408e-05
0.000256022
-5.32644e-05
0.00026625
-5.62211e-05
0.000275888
-5.83069e-05
0.00028498
-5.92934e-05
0.00029355
-5.8924e-05
0.000301595
-5.69086e-05
0.000309089
-5.29178e-05
0.000315993
-4.65775e-05
0.000322271
-3.74676e-05
0.000327921
-2.51304e-05
0.000333032
-9.10292e-06
0.000337877
1.10172e-05
0.000343025
3.54278e-05
0.00034948
0.000359551
6.34832e-05
-1.66858e-07
1.06852e-05
-6.83815e-07
3.12634e-05
-1.57016e-06
5.17892e-05
-2.83545e-06
7.21156e-05
-4.4795e-06
9.2086e-05
-6.49173e-06
0.000111549
-8.85044e-06
0.000130364
-1.15221e-05
0.000148407
-1.44604e-05
0.000165575
-1.76056e-05
0.000181792
-2.08833e-05
0.00019701
-2.42037e-05
0.000211211
-2.74607e-05
0.000224401
-3.05311e-05
0.000236611
-3.32735e-05
0.000247885
-3.55278e-05
0.000258277
-3.71132e-05
0.000267835
-3.78269e-05
0.000276601
-3.74414e-05
0.000284595
-3.57007e-05
0.000291809
-3.23153e-05
0.000298209
-2.69556e-05
0.000303729
-1.92432e-05
0.000308281
-8.74273e-06
0.00031177
5.0459e-06
0.000314132
2.26842e-05
0.000315394
4.47701e-05
0.000315792
7.18452e-05
0.00031595
0.000104184
0.000317141
0.000322222
0.000141513
-1.14232e-07
1.07994e-05
-4.79136e-07
3.16283e-05
-1.11395e-06
5.24241e-05
-2.02707e-06
7.30287e-05
-3.21638e-06
9.32753e-05
-4.66868e-06
0.000113001
-6.35904e-06
0.000132054
-8.25006e-06
0.000150298
-1.02909e-05
0.000167616
-1.24164e-05
0.000183917
-1.45459e-05
0.00019914
-1.65819e-05
0.000213247
-1.84093e-05
0.000226229
-1.98941e-05
0.000238096
-2.0882e-05
0.000248873
-2.11973e-05
0.000258592
-2.06414e-05
0.000267279
-1.89901e-05
0.00027495
-1.59913e-05
0.000281596
-1.13601e-05
0.000287178
-4.7733e-06
0.000291623
4.13866e-06
0.000294817
1.58022e-05
0.000296617
3.07133e-05
0.000296859
4.94497e-05
0.000295396
7.26797e-05
0.000292164
0.000101144
0.000287327
0.000135566
0.000281528
0.000176429
0.000276278
0.000275171
0.00022348
-6.66139e-08
1.08661e-05
-2.91953e-07
3.18537e-05
-6.93117e-07
5.28252e-05
-1.27527e-06
7.36109e-05
-2.0323e-06
9.40323e-05
-2.94641e-06
0.000113915
-3.98752e-06
0.000133096
-5.11253e-06
0.000151423
-6.26437e-06
0.000168767
-7.3708e-06
0.000185024
-8.34318e-06
0.000200112
-9.07503e-06
0.000213979
-9.44061e-06
0.000226594
-9.29347e-06
0.000237949
-8.46488e-06
0.000248045
-6.76218e-06
0.000256889
-3.96676e-06
0.000264484
1.68475e-07
0.000270815
5.92243e-06
0.000275842
1.36106e-05
0.00027949
2.35917e-05
0.000281642
3.6276e-05
0.000282133
5.21384e-05
0.000280755
7.17334e-05
0.000277264
9.57148e-05
0.000271414
0.000124853
0.000263026
0.000160038
0.000252142
0.000202201
0.000239365
0.00025207
0.000226409
0.00021772
0.000309521
-2.49419e-08
1.0891e-05
-1.25414e-07
3.19541e-05
-3.14389e-07
5.30142e-05
-5.91472e-07
7.38879e-05
-9.44388e-07
9.43853e-05
-1.34862e-06
0.00011432
-1.76692e-06
0.000133514
-2.14854e-06
0.000151804
-2.42825e-06
0.000169047
-2.52498e-06
0.000185121
-2.34038e-06
0.000199927
-1.75708e-06
0.000213395
-6.36984e-07
0.000225474
1.18055e-06
0.000236131
3.88072e-06
0.000245345
7.67532e-06
0.000253095
1.28051e-05
0.000259354
1.95429e-05
0.000264077
2.81971e-05
0.000267188
3.91168e-05
0.00026857
5.26988e-05
0.000268059
6.93972e-05
0.000265435
8.97363e-05
0.000260416
0.000114329
0.000252671
0.000143902
0.000241842
0.000179323
0.000227605
0.000221625
0.000209839
0.000271963
0.000189028
0.00033136
0.000167012
0.000149115
0.000399965
1.04845e-08
1.08805e-05
1.7739e-08
3.19469e-05
1.64622e-08
5.30155e-05
1.45906e-08
7.38898e-05
3.27876e-08
9.43671e-05
1.04467e-07
0.000114248
2.76209e-07
0.000133342
6.08456e-07
0.000151472
1.17663e-06
0.000168479
2.07261e-06
0.000184225
3.40645e-06
0.000198594
5.30839e-06
0.000211494
7.93096e-06
0.000222852
1.14513e-05
0.000232611
1.60734e-05
0.000240722
2.20309e-05
0.000247137
2.95898e-05
0.000251795
3.90519e-05
0.000254615
5.07592e-05
0.00025548
6.50987e-05
0.000254231
8.25104e-05
0.000250648
0.000103496
0.000244449
0.000128634
0.000235278
0.000158598
0.000222707
0.000194185
0.000206255
0.000236352
0.000185438
0.000286267
0.000159924
0.000345305
0.000129991
0.000414827
9.74895e-05
6.84918e-05
0.00049545
3.82845e-08
1.08422e-05
1.35499e-07
3.18497e-05
2.95066e-07
5.28559e-05
5.35352e-07
7.36495e-05
8.8782e-07
9.40146e-05
1.39708e-06
0.000113739
2.1212e-06
0.000132618
3.13249e-06
0.000150461
4.51868e-06
0.000167093
6.38462e-06
0.000182359
8.85426e-06
0.000196124
1.2073e-05
0.000208275
1.62104e-05
0.000218714
2.14624e-05
0.000227359
2.80552e-05
0.00023413
3.62474e-05
0.000238945
4.63342e-05
0.000241708
5.8651e-05
0.000242298
7.35785e-05
0.000240553
9.15479e-05
0.000236261
0.000113049
0.000229147
0.000138639
0.000218859
0.000168957
0.00020496
0.000204743
0.000186921
0.000246866
0.000164132
0.000296368
0.000135936
0.000354533
0.00010176
0.000422939
6.15847e-05
0.000503297
1.71318e-05
-2.51446e-05
0.000596933
5.87111e-08
1.07835e-05
2.2636e-07
3.1682e-05
5.18441e-07
5.25638e-05
9.65973e-07
7.3202e-05
1.61358e-06
9.3367e-05
2.51935e-06
0.000112833
3.75514e-06
0.000131382
5.40736e-06
0.000148809
7.57834e-06
0.000164922
1.03882e-05
0.000179549
1.39774e-05
0.000192535
1.8509e-05
0.000203743
2.41723e-05
0.000213051
3.11857e-05
0.000220345
3.98008e-05
0.000225515
5.03057e-05
0.00022844
6.30295e-05
0.000228985
7.83473e-05
0.00022698
9.66848e-05
0.000222215
0.000118525
0.00021442
0.000144418
0.000203255
0.000174985
0.000188292
0.000210938
0.000169007
0.000253093
0.000144766
0.000302397
0.000114827
0.000359975
7.83581e-05
0.000427204
3.45308e-05
0.000505833
-1.70439e-05
0.000597882
-7.49176e-05
-0.000132918
0.000705655
7.13744e-08
1.07122e-05
2.89842e-07
3.14635e-05
6.85587e-07
5.21681e-05
1.30482e-06
7.25828e-05
2.20774e-06
9.24641e-05
3.46824e-06
0.000111572
5.17426e-06
0.000129676
7.42869e-06
0.000146554
1.03509e-05
0.000162
1.40788e-05
0.000175821
1.8772e-05
0.000187842
2.46145e-05
0.000197901
3.18187e-05
0.000205847
4.06293e-05
0.000211535
5.13277e-05
0.000214816
6.42367e-05
0.000215531
7.97256e-05
0.000213496
9.82157e-05
0.00020849
0.000120187
0.000200244
0.000146184
0.000188423
0.000176826
0.000172613
0.000212814
0.000152303
0.000254945
0.000126875
0.000304126
9.55858e-05
0.000361393
5.75594e-05
0.000427954
1.17978e-05
0.000505258
-4.27736e-05
0.000595172
-0.000106958
0.000699928
-0.000179674
-0.000256042
0.000823052
7.63746e-08
1.06358e-05
3.26391e-07
3.12135e-05
7.97629e-07
5.16968e-05
1.55402e-06
7.18264e-05
2.67371e-06
9.13444e-05
4.24879e-06
0.000109997
6.38567e-06
0.000127539
9.20613e-06
0.000143734
1.28491e-05
0.000158357
1.74735e-05
0.000171196
2.32608e-05
0.000182054
3.04197e-05
0.000190742
3.91897e-05
0.000197077
4.98464e-05
0.000200878
6.27065e-05
0.000201956
7.81338e-05
0.000200104
9.65449e-05
0.000195085
0.000118416
0.000186619
0.000144292
0.000174369
0.000174789
0.000157926
0.00021061
0.000136792
0.000252549
0.000110364
0.000301504
7.79207e-05
0.000358486
3.86038e-05
0.000424636
-8.59072e-06
0.000501247
-6.48134e-05
0.000589822
-0.000131348
0.000692277
-0.000209413
0.000810891
-0.000298287
-0.00039573
0.000950579
7.41029e-08
1.05617e-05
3.37577e-07
3.09501e-05
8.58115e-07
5.11763e-05
1.71986e-06
7.09646e-05
3.02133e-06
9.00429e-05
4.87518e-06
0.000108144
7.40873e-06
0.000125006
1.07653e-05
0.000140377
1.51063e-05
0.000154016
2.06144e-05
0.000165688
2.74973e-05
0.000175171
3.59918e-05
0.000182247
4.63698e-05
0.000186699
5.89431e-05
0.000188305
7.40705e-05
0.000186829
9.2164e-05
0.00018201
0.000113696
0.000173552
0.00013921
0.000161106
0.000169322
0.000144257
0.000204737
0.000122511
0.000246254
9.5275e-05
0.000294773
6.18445e-05
0.000351308
2.1386e-05
0.000416987
-2.70757e-05
0.000493065
-8.46685e-05
0.000580923
-0.000152671
0.00068209
-0.000232515
0.000798458
-0.000325782
0.000932137
-0.000431965
-0.000553033
0.00108944
6.52726e-08
1.04964e-05
3.26182e-07
3.06891e-05
8.73214e-07
5.06293e-05
1.81318e-06
7.00247e-05
3.26738e-06
8.85887e-05
5.37145e-06
0.000106039
8.2762e-06
0.000122101
1.21492e-05
0.000136504
1.71777e-05
0.000148987
2.35716e-05
0.000159294
3.15688e-05
0.000167174
4.14396e-05
0.000172376
5.34934e-05
0.000174645
6.80852e-05
0.000173713
8.56232e-05
0.000169291
0.000106577
0.000161057
0.000131485
0.000148644
0.000160966
0.000131625
0.000195724
0.000109498
0.000236564
8.16715e-05
0.000284391
4.74473e-05
0.000340227
6.00845e-06
0.000405208
-4.3595e-05
0.000480587
-0.000102454
0.000567726
-0.000171808
0.000668086
-0.00025303
0.000783191
-0.000347621
0.000914814
-0.000457405
0.00106467
-0.000581822
-0.000728603
0.00124024
5.09387e-08
1.04455e-05
2.96258e-07
3.04438e-05
8.51834e-07
5.00737e-05
1.84957e-06
6.90269e-05
3.43592e-06
8.70024e-05
5.77203e-06
0.000103703
9.03489e-06
0.000118838
1.34195e-05
0.00013212
1.91421e-05
0.000143265
2.64445e-05
0.000151992
3.55992e-05
0.00015802
4.69157e-05
0.00016106
6.07478e-05
0.000160813
7.75012e-05
0.000156959
9.76425e-05
0.000149149
0.000121708
0.000136991
0.000150314
0.000120038
0.000184167
9.77725e-05
0.00022407
6.95947e-05
0.000270937
3.48046e-05
0.000325794
-7.40965e-06
0.000389786
-5.79832e-05
0.000464172
-0.000117981
0.000550319
-0.000188601
0.000649677
-0.000271166
0.000763747
-0.000367101
0.000894003
-0.000477876
0.00104197
-0.000605377
0.00120881
-0.000748657
-0.000922404
0.00140261
3.25044e-08
1.0413e-05
2.53129e-07
3.02232e-05
8.05619e-07
4.95212e-05
1.84933e-06
6.79832e-05
3.55827e-06
8.52934e-05
6.12168e-06
0.00010114
9.74567e-06
0.000115214
1.4656e-05
0.000127209
2.11021e-05
0.000136818
2.93619e-05
0.000143732
3.97485e-05
0.000147633
5.26171e-05
0.000148191
6.83733e-05
0.000145057
8.74822e-05
0.000137851
0.000110478
0.000126153
0.000137977
0.000109493
0.000170681
8.73334e-05
0.000209396
5.90572e-05
0.000255036
2.39546e-05
0.000308631
-1.87901e-05
0.000371329
-7.01075e-05
0.000444394
-0.000131048
0.000529195
-0.000202782
0.000627179
-0.000286586
0.000739836
-0.000383823
0.000868634
-0.000495898
0.00101492
-0.000624159
0.00117982
-0.000770276
0.00136384
-0.000932686
-0.0011334
0.00157484
1.17456e-08
1.04012e-05
2.03327e-07
3.00316e-05
7.48795e-07
4.89757e-05
1.8372e-06
6.68948e-05
3.67256e-06
8.34581e-05
6.47492e-06
9.83376e-05
1.04827e-05
0.000111206
1.59561e-05
0.000121736
2.31822e-05
0.000129592
3.24807e-05
0.000134434
4.42112e-05
0.000135903
5.87819e-05
0.000133621
7.66587e-05
0.00012718
9.83756e-05
0.000116134
0.000124545
9.99832e-05
0.000155871
7.81675e-05
0.000193155
5.00492e-05
0.000237311
1.49018e-05
0.000289366
-2.8101e-05
0.00035047
-7.98934e-05
0.000421883
-0.000141521
0.000504971
-0.000214136
0.000601173
-0.000298985
0.000711963
-0.000397376
0.000838783
-0.000510642
0.000982956
-0.000640072
0.00114559
-0.000786789
0.00132721
-0.000951897
0.0015278
-0.00113327
-0.00135927
0.00175367
-9.49867e-09
1.04107e-05
1.54403e-07
2.98677e-05
6.97856e-07
4.84323e-05
1.84186e-06
6.57508e-05
3.82294e-06
8.1477e-05
6.89485e-06
9.52657e-05
1.13317e-05
0.000106769
1.74325e-05
0.000115635
2.55268e-05
0.000121498
3.59817e-05
0.000123979
4.92106e-05
0.000122674
6.56826e-05
0.000117149
8.59327e-05
0.00010693
0.000110573
9.14931e-05
0.000140305
7.02514e-05
0.000175928
4.25442e-05
0.000218352
7.62518e-06
0.000268602
-3.53474e-05
0.000327818
-8.73174e-05
0.000397257
-0.000149332
0.000478271
-0.000222535
0.000572285
-0.000308151
0.00068075
-0.000407449
0.000805075
-0.000521701
0.00094654
-0.000652107
0.00110618
-0.000799707
0.0012847
-0.000965311
0.00148184
-0.00114904
0.0016973
-0.00134873
-0.00159624
0.00193426
-2.86956e-08
1.04394e-05
1.14841e-07
2.97242e-05
6.71079e-07
4.7876e-05
1.89504e-06
6.45268e-05
4.05824e-06
7.93138e-05
7.45122e-06
9.18727e-05
1.23876e-05
0.000101833
1.92095e-05
0.000108813
2.82945e-05
0.000112413
4.00637e-05
0.00011221
5.49915e-05
0.000107746
7.36159e-05
9.85243e-05
9.65498e-05
8.3996e-05
0.000124493
6.35501e-05
0.000158242
3.65023e-05
0.000198701
2.08506e-06
0.000246888
-4.05617e-05
0.000303935
-9.23949e-05
0.000371087
-0.000154468
0.000449678
-0.000227924
0.000541113
-0.00031397
0.000646811
-0.000413849
0.000768144
-0.000528782
0.000906342
-0.000659899
0.00106238
-0.000808145
0.00123683
-0.000974157
0.00142984
-0.00115832
0.00164021
-0.00135941
0.00186769
-0.00157621
-0.00183903
0.00211048
-4.3627e-08
1.0483e-05
9.35622e-08
2.9587e-05
6.87856e-07
4.72817e-05
2.03038e-06
6.31843e-05
4.43023e-06
7.69139e-05
8.21798e-06
8.80849e-05
1.37507e-05
9.63003e-05
2.14186e-05
0.000101145
3.16529e-05
0.000102179
4.49355e-05
9.8927e-05
6.18089e-05
9.08723e-05
8.28882e-05
7.7445e-05
0.000108872
5.80122e-05
0.000140554
3.18681e-05
0.000178832
-1.77593e-06
0.000224716
-4.37984e-05
0.000279326
-9.51715e-05
0.000343889
-0.000156958
0.000419723
-0.000230303
0.000508204
-0.000316405
0.000610718
-0.000416484
0.000728594
-0.000531724
0.000863009
-0.000663197
0.00101488
-0.000811767
0.00118471
-0.00097798
0.00137247
-0.00116192
0.00157753
-0.00136339
0.0017978
-0.00157967
0.00203326
-0.00181168
-0.00208109
0.00227533
-5.17984e-08
1.05348e-05
9.96724e-08
2.94355e-05
7.67908e-07
4.66135e-05
2.2821e-06
6.16701e-05
4.99155e-06
7.42045e-05
9.27022e-06
8.38063e-05
1.55228e-05
9.00477e-05
2.41927e-05
9.24753e-05
3.57707e-05
9.06008e-05
5.08057e-05
8.3892e-05
6.99157e-05
7.17623e-05
9.37994e-05
5.35613e-05
0.000123247
2.85645e-05
0.00015915
-4.0352e-06
0.000202508
-4.51338e-05
0.000254429
-9.57186e-05
0.000316121
-0.000156864
0.00038888
-0.000229717
0.000474053
-0.000315476
0.000572991
-0.000415343
0.000686979
-0.000530472
0.000817143
-0.000661889
0.000964337
-0.000810392
0.00112901
-0.000976442
0.00131107
-0.00116004
0.00150974
-0.00136059
0.00172348
-0.00157712
0.00194952
-0.00180571
0.00218768
-0.00204983
-0.00231502
0.00242161
-5.08315e-08
1.05857e-05
1.42018e-07
2.92427e-05
9.30432e-07
4.58251e-05
2.68353e-06
5.9917e-05
5.79344e-06
7.10946e-05
1.0681e-05
7.89188e-05
1.78027e-05
8.29259e-05
2.76602e-05
8.26179e-05
4.08094e-05
7.74516e-05
5.78724e-05
6.6829e-05
7.95484e-05
5.00864e-05
0.000106624
2.64852e-05
0.000139985
-4.79646e-06
0.00018062
-4.46696e-05
0.000229621
-9.41348e-05
0.000288179
-0.000154277
0.000357567
-0.000226251
0.000439101
-0.000311252
0.0005341
-0.000410475
0.000643807
-0.00052505
0.0007693
-0.000655965
0.00091138
-0.000803968
0.00107044
-0.000969451
0.00124633
-0.00115233
0.00143825
-0.00135196
0.00164463
-0.00156697
0.00186299
-0.00179549
0.00209036
-0.00203308
0.00232476
-0.00228423
-0.00253274
0.00254248
-3.85294e-08
1.06242e-05
2.28802e-07
2.89753e-05
1.19323e-06
4.48607e-05
3.26558e-06
5.78447e-05
6.88342e-06
6.74767e-05
1.25178e-05
7.32844e-05
2.06813e-05
7.47624e-05
3.19383e-05
7.13609e-05
4.69153e-05
6.24747e-05
6.6312e-05
4.74322e-05
9.09128e-05
2.54856e-05
0.000121595
-4.1973e-06
0.000159337
-4.25382e-05
0.000205216
-9.05488e-05
0.000260405
-0.000149324
0.000326151
-0.000220023
0.000403746
-0.000303846
0.000494475
-0.000401981
0.000599545
-0.000515545
0.000719994
-0.000645499
0.000856579
-0.00079255
0.00100965
-0.000957035
0.001179
-0.00113881
0.00136381
-0.00133714
0.00156248
-0.00155062
0.0017727
-0.0017772
0.00199129
-0.00201407
0.0022155
-0.00225729
0.00243965
-0.00250837
-0.00272821
0.00263512
-1.30476e-08
1.06372e-05
3.6719e-07
2.85951e-05
1.57194e-06
4.36559e-05
4.05544e-06
5.53612e-05
8.30321e-06
6.3229e-05
1.48397e-05
6.67479e-05
2.42375e-05
6.53646e-05
3.71279e-05
5.84705e-05
5.42115e-05
4.5391e-05
7.62694e-05
2.53743e-05
0.000104172
-2.41699e-06
0.000138885
-3.89108e-05
0.000181473
-8.51256e-05
0.000233087
-0.000142163
0.000294954
-0.000211191
0.00036834
-0.000293409
0.000454502
-0.000390008
0.000554619
-0.000502098
0.000669697
-0.000630623
0.000800462
-0.000776263
0.00094723
-0.000939318
0.00110978
-0.00111959
0.00128725
-0.00131628
0.00147805
-0.00152793
0.00167983
-0.00175241
0.00188962
-0.00198699
0.0021038
-0.00222825
0.00231976
-0.00247325
0.00253078
-0.00271939
-0.00294973
0.0027523
2.73414e-08
1.06099e-05
5.63078e-07
2.80594e-05
2.0794e-06
4.21396e-05
5.07547e-06
5.23651e-05
1.0087e-05
5.82174e-05
1.76949e-05
5.914e-05
2.85349e-05
5.45246e-05
4.33081e-05
4.36973e-05
6.27921e-05
2.5907e-05
8.78497e-05
3.16762e-07
0.000119435
-3.40025e-05
0.000158596
-7.80718e-05
0.000206468
-0.000132997
0.000264254
-0.000199949
0.000333198
-0.000280135
0.000414536
-0.000374747
0.000509423
-0.000484895
0.000618845
-0.00061152
0.000743512
-0.000755289
0.000883728
-0.000916479
0.00103927
-0.00109486
0.00120927
-0.00128959
0.00139215
-0.00149916
0.00158558
-0.00172137
0.00178659
-0.00195341
0.00199168
-0.00219208
0.00219715
-0.00243372
0.00239968
-0.00267578
0.00259455
-0.00291426
-0.00314423
0.00278905
8.35233e-08
1.05264e-05
8.20773e-07
2.73221e-05
2.72523e-06
4.02351e-05
6.34247e-06
4.87479e-05
1.22605e-05
5.22994e-05
2.11189e-05
5.02816e-05
3.36189e-05
4.20247e-05
5.05336e-05
2.67825e-05
7.27176e-05
3.72304e-06
0.000101113
-2.80786e-05
0.000136752
-6.96413e-05
0.00018075
-0.00012207
0.000234293
-0.00018654
0.000298604
-0.000264261
0.0003749
-0.000356431
0.000464321
-0.000464168
0.000567845
-0.000588419
0.000686177
-0.000729852
0.00081963
-0.000888742
0.000967995
-0.00106484
0.00113043
-0.0012573
0.0013054
-0.00146455
0.00149061
-0.00168437
0.00168315
-0.0019139
0.00187955
-0.00214982
0.00207612
-0.00238865
0.00226921
-0.00262681
0.0024555
-0.00286208
0.0026318
-0.00309056
-0.00331258
0.00280016
1.56324e-07
1.03701e-05
1.1431e-06
2.63353e-05
3.51574e-06
3.78625e-05
7.86739e-06
4.43962e-05
1.484e-05
4.53268e-05
2.51335e-05
3.99881e-05
3.9516e-05
2.76422e-05
5.88326e-05
7.46593e-06
8.40124e-05
-2.14568e-05
0.000116071
-6.01375e-05
0.000156107
-0.000109677
0.000205286
-0.000171249
0.000264814
-0.000246067
0.000335892
-0.000335339
0.000419654
-0.000440193
0.000517076
-0.000561591
0.000628876
-0.000700219
0.000755389
-0.000856366
0.000896445
-0.0010298
0.00105125
-0.00121965
0.00121833
-0.00142437
0.00139547
-0.00164169
0.00157982
-0.00186872
0.00176799
-0.00210207
0.00195634
-0.00233817
0.00214125
-0.00257355
0.00231945
-0.00280501
0.00248819
-0.00303082
0.00264534
-0.00324771
-0.00345944
0.00279219
2.46017e-07
1.0124e-05
1.53141e-06
2.50499e-05
4.45401e-06
3.49399e-05
9.65555e-06
3.91947e-05
1.7833e-05
3.71494e-05
2.97475e-05
2.80735e-05
4.62338e-05
1.11559e-05
6.82068e-05
-1.45071e-05
9.66652e-05
-4.99152e-05
0.000132688
-9.61606e-05
0.000177423
-0.000154412
0.00023206
-0.000225886
0.000297789
-0.000311796
0.00037574
-0.00041329
0.000466899
-0.000531351
0.000572005
-0.000666697
0.000691433
-0.000819647
0.000825068
-0.000990001
0.000972193
-0.00117692
0.00113141
-0.00137887
0.0013006
-0.00159357
0.001477
-0.0018181
0.00165734
-0.00204905
0.00183802
-0.00228276
0.0020155
-0.00251566
0.00218653
-0.00274458
0.00234848
-0.00296696
0.00249942
-0.00318176
0.00263839
-0.00338668
-0.00358745
0.0027664
3.52562e-07
9.77147e-06
1.98575e-06
2.34168e-05
5.54026e-06
3.13854e-05
1.17071e-05
3.30279e-05
2.12385e-05
2.76179e-05
3.49569e-05
1.43552e-05
5.37615e-05
-7.64867e-06
7.86326e-05
-3.93782e-05
0.00011063
-8.19125e-05
0.000150882
-0.000136412
0.000200562
-0.000204092
0.000260852
-0.000286176
0.000332882
-0.000383827
0.000417654
-0.000498061
0.000515939
-0.000629636
0.000628164
-0.000778921
0.000754286
-0.000945769
0.00089368
-0.00112939
0.00104505
-0.00132829
0.0012064
-0.00154022
0.00137507
-0.00176224
0.00154789
-0.00199091
0.00172136
-0.00222252
0.00189197
-0.00245338
0.00205653
-0.00268021
0.00221239
-0.00290044
0.00235775
-0.00311232
0.00249159
-0.0033156
0.00261397
-0.00350906
-0.00369947
0.00272599
4.75673e-07
9.2958e-06
2.50516e-06
2.13873e-05
6.77239e-06
2.71182e-05
1.40177e-05
2.57825e-05
2.50486e-05
1.6587e-05
4.07467e-05
-1.34292e-06
6.20722e-05
-2.89742e-05
9.00635e-05
-6.73695e-05
0.000125829
-0.000117678
0.000170526
-0.00018111
0.000225328
-0.000258894
0.000291368
-0.000352216
0.000369668
-0.000462126
0.000461037
-0.000589431
0.000565966
-0.000734565
0.000684498
-0.000897454
0.000816117
-0.00107739
0.00095965
-0.00127293
0.00111323
-0.00148188
0.00127434
-0.00170132
0.0014399
-0.0019278
0.00160652
-0.00215753
0.00177074
-0.00238674
0.00192937
-0.00261201
0.00207977
-0.00283061
0.00222008
-0.00304075
0.00234934
-0.00324159
0.00246741
-0.00343368
0.00257514
-0.00361678
-0.0037981
0.00267376
6.14912e-07
8.68089e-06
3.08801e-06
1.89142e-05
8.1465e-06
2.20597e-05
1.65798e-05
1.73492e-05
2.92492e-05
3.91762e-06
4.70924e-05
-1.91861e-05
7.11247e-05
-5.30064e-05
0.000102432
-9.8677e-05
0.000142155
-0.000157401
0.000191457
-0.000230412
0.000251476
-0.000318913
0.000323252
-0.000423993
0.000407643
-0.000546517
0.000505208
-0.000686995
0.000616087
-0.000845444
0.000739886
-0.00102125
0.000875576
-0.00121308
0.00102144
-0.00141879
0.0011751
-0.00163554
0.00133362
-0.00185984
0.00149368
-0.00208787
0.00165189
-0.00231574
0.00180506
-0.00253991
0.00195051
-0.00275746
0.00208632
-0.00296641
0.00221143
-0.00316585
0.00232569
-0.00335585
0.00242968
-0.00353767
0.00252479
-0.00371189
-0.00388566
0.00261235
7.6977e-07
7.91112e-06
3.73218e-06
1.59518e-05
9.65744e-06
1.61344e-05
1.9383e-05
7.62366e-06
3.38212e-05
-1.05206e-05
5.39614e-05
-3.93263e-05
8.0865e-05
-7.991e-05
0.000115652
-0.000133464
0.000159476
-0.000201224
0.000213475
-0.000284411
0.000278713
-0.000384151
0.000356092
-0.000501372
0.000446246
-0.000636671
0.000549421
-0.00079017
0.000665357
-0.00096138
0.000793181
-0.00114908
0.000931347
-0.00135124
0.00107764
-0.00156509
0.00122925
-0.00178715
0.00138299
-0.00201358
0.0015355
-0.00224038
0.00168359
-0.00246383
0.00182453
-0.00268085
0.00195631
-0.00288923
0.00207775
-0.00308785
0.00218857
-0.00327668
0.0022893
-0.00345658
0.00238104
-0.00362941
0.00246549
-0.00379634
-0.00396415
0.00254398
9.39739e-07
6.97138e-06
4.43537e-06
1.24561e-05
1.12992e-05
9.27054e-06
2.24148e-05
-3.49187e-06
3.87418e-05
-2.68476e-05
6.13139e-05
-6.18984e-05
9.12281e-05
-0.000109824
0.000129622
-0.000171858
0.000177634
-0.000249236
0.000236347
-0.000343124
0.000306708
-0.000454512
0.000389427
-0.000584091
0.000484861
-0.000732104
0.00059289
-0.0008982
0.000712812
-0.0010813
0.000843264
-0.00127953
0.00098221
-0.00149019
0.00112701
-0.00170988
0.00127457
-0.00193472
0.00142162
-0.00216062
0.00156494
-0.0023837
0.00170175
-0.00260065
0.00182992
-0.00280902
0.00194812
-0.00300744
0.00205594
-0.00319567
0.00215375
-0.00337448
0.00224258
-0.00354541
0.00232385