/*--------------------------------*- C++ -*----------------------------------*\
  =========                 |
  \\      /  F ield         | OpenFOAM: The Open Source CFD Toolbox
   \\    /   O peration     | Website:  https://openfoam.org
    \\  /    A nd           | Version:  7
     \\/     M anipulation  |
\*---------------------------------------------------------------------------*/
FoamFile
{
    version     2.0;
    format      ascii;
    class       volVectorField;
    location    "75";
    object      U;
}
// * * * * * * * * * * * * * * * * * * * * * * * * * * * * * * * * * * * * * //

dimensions      [0 1 -1 0 0 0 0];

internalField   nonuniform List<vector> 
40000
(
(-0.000234163 0.00466273 -2.33656e-21)
(-0.00127464 0.0131666 7.23508e-21)
(-0.0033774 0.0210255 -4.61367e-21)
(-0.0063023 0.0282129 -3.87543e-24)
(-0.00991821 0.0347078 -3.21849e-24)
(-0.0141372 0.0405034 2.7947e-24)
(-0.0188673 0.0456084 -7.65774e-21)
(-0.0240182 0.0500473 1.82013e-21)
(-0.0295052 0.0538609 -5.19692e-21)
(-0.0352483 0.0571044 -1.64325e-21)
(-0.0411731 0.0598461 0)
(-0.0472099 0.062163 -5.91795e-21)
(-0.0532948 0.0641381 0)
(-0.059369 0.0658547 0)
(-0.0653792 0.0673933 -5.01585e-21)
(-0.0712776 0.0688266 4.73947e-21)
(-0.0770217 0.0702167 -2.23716e-21)
(-0.0825745 0.071613 -2.14334e-24)
(-0.0879045 0.0730505 1.988e-21)
(-0.0929864 0.0745503 0)
(-0.0978012 0.0761202 -1.76532e-21)
(-0.102337 0.0777558 -4.98944e-21)
(-0.106592 0.0794434 6.2536e-21)
(-0.110573 0.0811609 -2.93622e-21)
(-0.114298 0.0828808 8.27883e-21)
(-0.117799 0.0845704 5.18752e-21)
(-0.121123 0.0861932 -9.74042e-21)
(-0.124326 0.0877079 9.14194e-21)
(-0.127471 0.0890633 -2.13937e-21)
(-0.130648 0.0901961 -4.04548e-21)
(-0.00036692 0.0052215 0)
(-0.0016109 0.0146905 4.84113e-21)
(-0.00383399 0.0233841 9.25117e-21)
(-0.00681386 0.0312877 -8.82878e-21)
(-0.0104297 0.0383892 -4.22744e-21)
(-0.0146005 0.0446887 1.6094e-20)
(-0.0192415 0.0502022 -3.83919e-21)
(-0.0242687 0.0549612 -7.30684e-21)
(-0.0296031 0.0590132 -1.72728e-23)
(-0.03517 0.0624201 -1.97635e-20)
(-0.0408991 0.0652564 6.24329e-21)
(-0.046725 0.0676059 2.36918e-20)
(-0.0525866 0.0695575 -1.12161e-20)
(-0.0584278 0.0712008 -5.51097e-24)
(-0.0641971 0.0726222 -5.03371e-21)
(-0.0698478 0.0739001 2.89313e-25)
(-0.075338 0.0751025 0)
(-0.0806308 0.0762843 0)
(-0.0856942 0.0774862 1.59514e-20)
(-0.0905017 0.0787352 0)
(-0.0950328 0.0800453 7.07665e-21)
(-0.099274 0.0814194 -6.66433e-21)
(-0.10322 0.0828512 4.14476e-24)
(-0.106874 0.0843277 0)
(-0.110252 0.085831 1.11009e-20)
(-0.113381 0.0873392 -1.03814e-20)
(-0.116305 0.0888265 9.74033e-21)
(-0.119078 0.09026 -9.14185e-21)
(-0.121761 0.0915965 8.61829e-21)
(-0.12444 0.0927895 -2.43663e-20)
(-0.000525415 0.00573724 -9.39699e-21)
(-0.00201411 0.0161023 -9.66411e-21)
(-0.00438673 0.0255769 0)
(-0.00744063 0.0341562 0)
(-0.0110662 0.0418346 0)
(-0.0151903 0.048618 8.08006e-21)
(-0.0197356 0.0545278 0)
(-0.0246252 0.0596012 7.29884e-21)
(-0.0297862 0.0638909 1.38756e-20)
(-0.0351497 0.0674643 1.31764e-20)
(-0.0406503 0.0704014 0)
(-0.0462266 0.0727911 1.6208e-23)
(-0.0518211 0.0747279 -2.24771e-20)
(-0.0573803 0.0763068 2.12719e-20)
(-0.0628548 0.0776195 1.00441e-20)
(-0.0681993 0.0787499 9.50339e-21)
(-0.0733722 0.0797715 -8.96361e-21)
(-0.0783365 0.0807443 1.69425e-20)
(-0.0830593 0.0817149 -3.19308e-20)
(-0.0875124 0.0827158 -4.16451e-24)
(-0.091673 0.0837672 -2.83541e-20)
(-0.0955244 0.0848787 2.67226e-20)
(-0.0990573 0.0860517 0)
(-0.102271 0.087282 0)
(-0.105175 0.0885614 1.11649e-20)
(-0.107793 0.089879 0)
(-0.110162 0.0912207 0)
(-0.112336 0.0925648 0)
(-0.114368 0.0938786 -1.73742e-20)
(-0.116343 0.0951377 1.62414e-20)
(-0.000706346 0.00620567 9.39699e-21)
(-0.00247621 0.0173907 -7.00427e-24)
(-0.00502485 0.0275867 3.10682e-23)
(-0.0081706 0.0367959 -1.77342e-20)
(-0.0118158 0.0450175 -1.69232e-20)
(-0.0158953 0.0522612 2.29587e-23)
(-0.0203396 0.0585525 -3.07644e-20)
(-0.0250794 0.0639325 1.46451e-20)
(-0.0300484 0.068458 -2.78377e-20)
(-0.0351834 0.0722003 2.64323e-20)
(-0.0404243 0.0752435 -1.25333e-20)
(-0.0457142 0.0776811 2.37708e-20)
(-0.0509993 0.079612 2.24769e-20)
(-0.0562291 0.0811358 3.18681e-23)
(-0.0613563 0.0823491 -2.01467e-20)
(-0.0663368 0.0833407 0)
(-0.0711296 0.0841888 2.99034e-24)
(-0.0756973 0.0849589 1.69711e-20)
(-0.0800058 0.0857025 -2.6443e-24)
(-0.0840247 0.0864578 -2.70636e-23)
(-0.0877282 0.0872507 2.83831e-20)
(-0.0910954 0.0880971 -2.67223e-20)
(-0.094112 0.0890059 0)
(-0.0967712 0.0899811 2.37319e-20)
(-0.0990762 0.0910246 6.80082e-23)
(-0.101043 0.092137 -6.29276e-20)
(-0.102704 0.0933176 1.96793e-20)
(-0.104111 0.0945583 3.71565e-20)
(-0.105303 0.0958417 1.73739e-20)
(-0.106362 0.0971708 1.64645e-20)
(-0.000906125 0.00662336 3.7787e-20)
(-0.00298843 0.0185463 -1.94594e-20)
(-0.00573657 0.0293988 1.85884e-20)
(-0.00899057 0.0391877 1.77595e-20)
(-0.0126649 0.0479146 0)
(-0.0167027 0.0555918 -3.23934e-20)
(-0.0210424 0.0622469 -1.5454e-20)
(-0.025622 0.0679234 -2.93255e-20)
(-0.0303822 0.0726806 1.3913e-20)
(-0.0352659 0.0765928 4.57198e-23)
(-0.0402182 0.0797468 2.51172e-20)
(-0.0451869 0.0822395 2.38365e-20)
(-0.0501221 0.0841732 -4.50563e-20)
(-0.0549764 0.0856516 2.13425e-20)
(-0.0597048 0.0867751 -3.21101e-23)
(-0.0642646 0.0876369 0)
(-0.0686153 0.0883198 -1.79811e-20)
(-0.0727188 0.0888937 -3.40013e-20)
(-0.0765396 0.0894151 4.81122e-20)
(-0.0800448 0.0899272 1.51496e-20)
(-0.0832048 0.0904611 0)
(-0.0859939 0.0910388 -2.68493e-20)
(-0.0883916 0.0916757 0)
(-0.0903837 0.0923839 -7.13307e-20)
(-0.0919652 0.0931752 4.47312e-20)
(-0.0931429 0.0940626 -6.23438e-24)
(-0.0939437 0.0950604 3.96685e-20)
(-0.0944163 0.0961776 -5.58224e-20)
(-0.0945797 0.0974174 3.5047e-20)
(-0.0945095 0.0988175 1.6471e-20)
(-0.00112098 0.00698778 -1.89153e-20)
(-0.00354152 0.0195618 1.94742e-20)
(-0.0065094 0.0310017 -1.375e-23)
(-0.00988656 0.0413158 -5.34981e-20)
(-0.0135995 0.0505066 0)
(-0.0175991 0.058587 3.23933e-20)
(-0.0218317 0.065585 -3.09559e-20)
(-0.0262429 0.0715453 5.87058e-20)
(-0.0307798 0.0765281 0)
(-0.0353914 0.0806091 -2.64777e-20)
(-0.0400284 0.0838772 -2.5117e-20)
(-0.0446432 0.0864311 -2.38064e-20)
(-0.0491899 0.0883759 -6.77441e-20)
(-0.0536243 0.0898181 6.19858e-24)
(-0.0579038 0.0908616 -2.85512e-23)
(-0.061987 0.091603 -2.47493e-23)
(-0.065834 0.0921292 5.40955e-20)
(-0.0694062 0.0925141 -5.87423e-23)
(-0.0726663 0.0928185 5.80062e-23)
(-0.0755785 0.0930899 -3.02441e-20)
(-0.0781091 0.0933643 -5.77288e-23)
(-0.0802267 0.0936687 5.37609e-20)
(-0.0819038 0.0940246 -7.59717e-20)
(-0.0831177 0.0944516 2.38e-20)
(-0.0838535 0.0949707 0)
(-0.0841073 0.095608 0)
(-0.0838978 0.0963948 -3.96678e-20)
(-0.0832714 0.0973615 3.74908e-20)
(-0.082222 0.0985382 -3.51361e-20)
(-0.0808008 0.100004 0)
(-0.00134706 0.00729731 -1.90145e-20)
(-0.00412598 0.0204324 0)
(-0.00733054 0.032387 1.86761e-20)
(-0.0108441 0.0431684 1.07217e-19)
(-0.0146046 0.0527782 -3.40812e-20)
(-0.0185703 0.0612278 0)
(-0.022695 0.0685448 -6.79787e-23)
(-0.0269313 0.0747729 2.94435e-20)
(-0.0312326 0.0799724 -2.79581e-20)
(-0.0355539 0.0842191 0)
(-0.0398511 0.0876024 0)
(-0.0440813 0.0902224 -4.7778e-20)
(-0.0482027 0.0921854 6.77815e-20)
(-0.0521744 0.0936002 -2.1379e-20)
(-0.0559561 0.094573 0)
(-0.059508 0.0952035 3.82594e-20)
(-0.0627906 0.0955818 -3.6029e-20)
(-0.0657647 0.0957852 3.41147e-20)
(-0.0683912 0.0958782 -6.42664e-20)
(-0.0706312 0.0959121 -9.10122e-20)
(-0.0724466 0.0959267 2.856e-20)
(-0.0737999 0.0959534 2.69725e-20)
(-0.0746556 0.0960186 2.53484e-20)
(-0.0749816 0.0961483 0)
(-0.0747516 0.0963725 -4.50547e-20)
(-0.073949 0.0967302 0)
(-0.0725822 0.0972714 0)
(-0.0706959 0.0980528 -7.51221e-20)
(-0.0682577 0.0991385 4.81046e-23)
(-0.0652493 0.100655 -1.002e-19)
(-0.00158053 0.00755133 1.90145e-20)
(-0.00473235 0.0211556 3.92744e-20)
(-0.00818715 0.0335498 3.75599e-20)
(-0.0118487 0.0447379 -3.57796e-20)
(-0.0156654 0.0547183 0)
(-0.0196022 0.0635 0)
(-0.0236194 0.0711083 3.098e-20)
(-0.027676 0.0775851 -2.95047e-20)
(-0.0317316 0.0829892 -3.75952e-23)
(-0.0357466 0.0873955 5.32572e-20)
(-0.0396818 0.0908929 0)
(-0.043499 0.0935815 4.77777e-20)
(-0.0471604 0.0955683 0)
(-0.0506282 0.0969631 0)
(-0.0538645 0.0978741 7.90733e-24)
(-0.0568312 0.0984029 3.82709e-20)
(-0.0594891 0.0986422 -3.61972e-20)
(-0.0617986 0.0986722 6.82862e-20)
(-0.0637186 0.0985601 -3.22465e-20)
(-0.0652072 0.0983604 9.10618e-20)
(-0.0662214 0.0981158 0)
(-0.0667174 0.097861 0)
(-0.0666513 0.0976261 5.09037e-20)
(-0.0659806 0.0974422 0)
(-0.0646665 0.0973471 4.50944e-20)
(-0.062678 0.0973921 -4.23946e-20)
(-0.0600094 0.0976474 4.01207e-20)
(-0.0567064 0.0982003 -3.77717e-20)
(-0.0527203 0.0991586 7.08651e-20)
(-0.0478662 0.100709 1.0067e-19)
(-0.00181771 0.00775021 0)
(-0.00535145 0.0217315 -3.92743e-20)
(-0.00906677 0.0344889 1.08535e-22)
(-0.0128862 0.0460205 0)
(-0.0167674 0.0563204 -6.85958e-20)
(-0.0206806 0.0653937 -1.84649e-23)
(-0.024592 0.0732621 3.10777e-20)
(-0.0284661 0.0799647 0)
(-0.0322679 0.0855577 2.80537e-20)
(-0.0359626 0.0901141 -5.32569e-20)
(-0.0395159 0.0937214 0)
(-0.0428938 0.0964786 0)
(-0.0460622 0.0984927 -4.5379e-20)
(-0.0489864 0.0998736 4.29009e-20)
(-0.0516311 0.10073 -4.05528e-20)
(-0.0539594 0.101166 0)
(-0.0559329 0.101275 -3.62471e-20)
(-0.0575112 0.10114 -1.02562e-19)
(-0.0586515 0.10083 -6.13463e-23)
(-0.0593086 0.100401 -6.55626e-23)
(-0.0594348 0.0998996 2.86547e-20)
(-0.0589797 0.099361 5.41526e-20)
(-0.0578907 0.0988182 -1.01777e-19)
(-0.0561145 0.0983056 4.80372e-20)
(-0.0535988 0.0978668 -1.44458e-22)
(-0.0502961 0.0975643 -1.96449e-22)
(-0.0461838 0.0974885 -2.15421e-22)
(-0.0413071 0.0977589 3.76953e-20)
(-0.0356273 0.0985448 0)
(-0.028703 0.100189 0)
(-0.00205517 0.0078953 3.83614e-20)
(-0.00597469 0.0221626 8.09087e-23)
(-0.00995765 0.0352063 1.10333e-22)
(-0.0139432 0.0470169 -7.21052e-20)
(-0.0178964 0.0575826 6.86659e-20)
(-0.0217919 0.0669036 0)
(-0.0256002 0.0749973 0)
(-0.0292905 0.0818989 5.92625e-20)
(-0.0328321 0.0876613 -5.62728e-20)
(-0.0361948 0.0923546 4.08973e-23)
(-0.0393483 0.0960639 1.01333e-19)
(-0.0422624 0.0988867 4.80038e-20)
(-0.0449065 0.100929 -9.08719e-20)
(-0.047249 0.102299 4.29699e-20)
(-0.0492566 0.103108 4.06675e-20)
(-0.0508941 0.103458 -3.83861e-20)
(-0.0521234 0.103445 7.2498e-20)
(-0.0529035 0.103153 1.02796e-19)
(-0.0531899 0.102652 6.47156e-20)
(-0.0529341 0.102001 3.05726e-20)
(-0.0520836 0.101246 -5.73889e-20)
(-0.0505815 0.100424 0)
(-0.0483665 0.0995688 -5.38451e-23)
(-0.045374 0.098715 4.80638e-20)
(-0.0415376 0.0979104 4.53886e-20)
(-0.0367923 0.0972261 -8.51915e-20)
(-0.0310963 0.0967712 -4.00962e-20)
(-0.0244857 0.0966978 7.585e-20)
(-0.0169067 0.0972574 0)
(-0.00786085 0.0990166 -6.75129e-20)
(-0.00228983 0.00798887 3.84718e-20)
(-0.00659429 0.0224537 -7.91077e-20)
(-0.0108491 0.0357076 4.44586e-23)
(-0.0150072 0.0477317 -1.00801e-22)
(-0.0190396 0.0585073 0)
(-0.0229232 0.0680293 0)
(-0.0266319 0.0763098 0)
(-0.0301382 0.0833795 -5.93904e-20)
(-0.0334149 0.0892874 5.63941e-20)
(-0.0364354 0.0941 -5.34665e-20)
(-0.0391728 0.0978995 -1.01447e-19)
(-0.0416003 0.100781 -2.22316e-23)
(-0.0436904 0.102848 9.10355e-20)
(-0.045414 0.10421 4.30801e-20)
(-0.04674 0.104973 0)
(-0.0476342 0.105244 -7.69599e-20)
(-0.0480592 0.105116 1.09021e-19)
(-0.0479732 0.104675 -1.02779e-19)
(-0.0473297 0.103993 -6.46186e-20)
(-0.0460771 0.103128 -1.83068e-19)
(-0.0441581 0.102125 -1.44049e-22)
(-0.0415093 0.101023 -1.55187e-22)
(-0.0380607 0.0998536 -4.84488e-23)
(-0.0337364 0.098651 -9.63374e-20)
(-0.0284556 0.0974632 1.36004e-19)
(-0.0221348 0.0963666 -1.02498e-22)
(-0.0147127 0.0954857 0)
(-0.00621263 0.0950074 -7.58481e-20)
(0.00347086 0.0952806 7.16131e-20)
(0.0148563 0.0970948 6.80961e-20)
(-0.00251908 0.00803412 0)
(-0.0072035 0.0226121 -3.97103e-20)
(-0.0117317 0.0360016 3.79379e-20)
(-0.0160675 0.0481736 7.24024e-20)
(-0.0201852 0.0591018 3.45523e-20)
(-0.0240628 0.068775 -6.57979e-20)
(-0.0276756 0.0772002 -7.1032e-23)
(-0.0309985 0.0844029 -5.95128e-20)
(-0.0340067 0.0904279 0)
(-0.0366759 0.0953378 5.36721e-20)
(-0.0389822 0.0992112 0)
(-0.0409015 0.10214 0)
(-0.0424087 0.104227 -9.11472e-20)
(-0.0434769 0.105576 -8.62041e-20)
(-0.0440768 0.106297 1.22285e-19)
(-0.0441753 0.106491 7.69589e-20)
(-0.0437348 0.106255 8.85083e-23)
(-0.0427128 0.105673 -6.85805e-20)
(-0.0410607 0.104817 1.29531e-19)
(-0.0387236 0.103746 -1.58306e-23)
(-0.0356393 0.102505 1.15089e-19)
(-0.031738 0.10113 0)
(-0.0269409 0.0996502 0)
(-0.021161 0.0980977 9.63805e-20)
(-0.014303 0.0965168 -1.36235e-19)
(-0.00626427 0.0949846 1.28161e-19)
(0.00303873 0.0936363 -8.06178e-20)
(0.0135965 0.0926935 7.59994e-20)
(0.0255653 0.0926117 -1.43267e-19)
(0.0395743 0.0944261 6.82804e-20)
(-0.00274084 0.00803504 -3.879e-20)
(-0.00779685 0.0226468 0)
(-0.0125977 0.0361003 0)
(-0.0171145 0.048355 -7.27519e-20)
(-0.0213229 0.0593773 1.38627e-19)
(-0.0251997 0.0691498 -6.59673e-20)
(-0.0287205 0.0776739 -7.14863e-23)
(-0.0318609 0.0849705 5.96481e-20)
(-0.0345972 0.0910796 0)
(-0.0369067 0.0960598 5.05591e-23)
(-0.0387675 0.0999862 2.68223e-24)
(-0.0401573 0.102947 -9.645e-20)
(-0.0410529 0.105042 -9.57328e-23)
(-0.0414293 0.106374 -4.31748e-20)
(-0.0412582 0.107049 -1.22394e-19)
(-0.040507 0.107169 7.7116e-20)
(-0.0391379 0.106829 -7.27353e-20)
(-0.037107 0.106112 1.37431e-19)
(-0.0343635 0.105091 -1.2954e-19)
(-0.0308487 0.103824 -1.22189e-19)
(-0.0264953 0.102355 8.9524e-23)
(-0.0212266 0.100717 -5.42155e-20)
(-0.0149553 0.0989374 5.12446e-20)
(-0.00758329 0.0970417 2.03089e-22)
(0.000999274 0.0950679 -1.3614e-19)
(0.0109144 0.0930882 -8.55652e-20)
(0.0222705 0.0912406 1.61241e-19)
(0.0350731 0.089774 -1.51998e-19)
(0.0495196 0.0892512 7.16537e-20)
(0.0664593 0.0910373 3.30765e-23)
(-0.00295368 0.00799632 1.16498e-19)
(-0.00837028 0.0225691 -3.99446e-20)
(-0.0134411 0.0360182 -7.63376e-20)
(-0.0181409 0.0482918 2.18557e-19)
(-0.0224439 0.059349 1.82293e-22)
(-0.0263244 0.0691666 0)
(-0.0297562 0.0777409 0)
(-0.0327143 0.085088 5.97678e-20)
(-0.035175 0.0912437 -5.66906e-20)
(-0.0371161 0.0962626 5.38261e-20)
(-0.0385165 0.100216 -5.1e-20)
(-0.0393552 0.103189 -9.66524e-20)
(-0.0396101 0.105277 1.8273e-19)
(-0.039257 0.106581 -4.32051e-20)
(-0.0382682 0.107205 8.16243e-20)
(-0.0366111 0.107249 -1.5428e-19)
(-0.034247 0.106806 -7.51335e-23)
(-0.0311301 0.10596 -2.42779e-23)
(-0.0272064 0.104782 1.29673e-19)
(-0.0224128 0.103329 4.82813e-23)
(-0.0166765 0.101644 0)
(-0.00991334 0.0997593 0)
(-0.00202709 0.0976954 -5.1057e-20)
(0.00709184 0.095472 -1.92808e-19)
(0.0175674 0.0931178 1.36137e-19)
(0.029541 0.090694 2.85154e-23)
(0.0431481 0.0883321 -1.6121e-19)
(0.0584106 0.0862931 1.52229e-19)
(0.0755533 0.0852387 -7.13905e-20)
(0.0957783 0.086963 6.75869e-20)
(-0.00315681 0.00792315 0)
(-0.00892128 0.0223915 0)
(-0.0142577 0.0357722 7.66671e-20)
(-0.0191409 0.0480028 -1.46001e-19)
(-0.0235411 0.0590357 9.75852e-23)
(-0.027428 0.0688426 -6.6284e-20)
(-0.0307724 0.0774155 1.89223e-19)
(-0.0335471 0.0847661 -1.7977e-19)
(-0.0357271 0.0909266 1.97341e-24)
(-0.0372896 0.0959478 -5.39259e-20)
(-0.0382134 0.0998972 -1.53313e-19)
(-0.0384776 0.102857 1.45019e-19)
(-0.0380604 0.104918 0)
(-0.0369379 0.10618 0)
(-0.0350818 0.106743 8.16985e-20)
(-0.0324587 0.106706 1.544e-19)
(-0.029028 0.10616 -7.28204e-20)
(-0.0247411 0.105188 0)
(-0.0195399 0.10386 -6.48725e-20)
(-0.0133561 0.102233 -1.14428e-22)
(-0.0061098 0.100347 -5.76338e-20)
(0.00229125 0.0982328 0)
(0.0119534 0.0959065 -5.11717e-20)
(0.0229981 0.0933806 4.80966e-20)
(0.0355638 0.0906723 -9.09658e-20)
(0.0498105 0.087827 2.56564e-19)
(0.0659025 0.0849596 2.34139e-22)
(0.0838792 0.0823234 7.58632e-20)
(0.10397 0.0806524 0)
(0.127909 0.0822691 -6.83197e-20)
(-0.00334994 0.00782132 -7.81902e-20)
(-0.00944869 0.0221278 8.03818e-20)
(-0.0150453 0.0353809 1.01396e-22)
(-0.0201106 0.0475091 -7.32628e-20)
(-0.0246085 0.0584591 0)
(-0.0285025 0.0681986 -1.3298e-19)
(-0.0317587 0.076716 8.87628e-23)
(-0.0343463 0.08402 5.98846e-20)
(-0.0362378 0.0901395 -1.70958e-24)
(-0.0374087 0.0951221 3.2773e-23)
(-0.0378365 0.0990322 1.53411e-19)
(-0.0374996 0.101948 4.84109e-20)
(-0.0363755 0.103959 4.58293e-20)
(-0.0344391 0.10516 -8.6571e-20)
(-0.031661 0.10565 8.17773e-20)
(-0.0280054 0.105523 -7.7193e-20)
(-0.023429 0.104871 7.28884e-20)
(-0.0178788 0.103775 -6.86978e-20)
(-0.0112914 0.102303 0)
(-0.00359152 0.100512 -6.09926e-20)
(0.00530909 0.0984416 1.15294e-19)
(0.0155128 0.0961191 5.42581e-20)
(0.0271374 0.0935582 -5.1091e-20)
(0.0403176 0.0907642 1.92501e-19)
(0.0552068 0.0877427 -4.5255e-20)
(0.0719832 0.0845204 8.53485e-20)
(0.0908399 0.0811862 -8.06746e-20)
(0.111837 0.0779634 -2.72945e-22)
(0.135168 0.0756104 0)
(0.163342 0.0770695 -1.34188e-19)
(-0.00353379 0.00769678 -1.27171e-22)
(-0.00995301 0.0217923 -8.06236e-20)
(-0.0158033 0.0348643 0)
(-0.0210475 0.0468337 -7.35555e-20)
(-0.0256411 0.0576433 6.99747e-20)
(-0.0295398 0.0672582 -1.01005e-22)
(-0.0327034 0.0756645 0)
(-0.0350963 0.082869 -3.80776e-23)
(-0.0366874 0.0888983 -5.69694e-20)
(-0.0374492 0.0937977 5.41184e-20)
(-0.037357 0.097629 0)
(-0.0363871 0.100468 -9.6923e-20)
(-0.0345152 0.102399 9.17852e-20)
(-0.0317139 0.103517 0)
(-0.0279511 0.103916 0)
(-0.0231876 0.103689 0)
(-0.0173754 0.102926 0)
(-0.0104557 0.101705 6.87402e-20)
(-0.00235769 0.100095 -6.47428e-20)
(0.00700286 0.0981516 1.83239e-19)
(0.0177248 0.0959144 -1.15057e-19)
(0.0299227 0.0934091 -1.08567e-19)
(0.0437282 0.0906472 1.53124e-19)
(0.0592912 0.0876289 -1.37145e-22)
(0.0767812 0.0843497 -9.04767e-20)
(0.0963934 0.0808171 -8.53459e-20)
(0.118349 0.0770891 -8.0225e-20)
(0.142734 0.0733375 1.51114e-19)
(0.169633 0.0702721 -1.42311e-19)
(0.202674 0.0715359 2.67786e-19)
(-0.00370954 0.00755548 1.57341e-19)
(-0.0104361 0.0213996 -1.32646e-22)
(-0.0165326 0.0342427 -1.54555e-19)
(-0.0219503 0.0460006 1.47313e-19)
(-0.0266344 0.0566139 -7.02695e-20)
(-0.0305312 0.0660473 -6.67555e-20)
(-0.0335929 0.0742861 6.35102e-20)
(-0.0357782 0.0813363 6.02468e-20)
(-0.0370509 0.0872238 -1.14436e-19)
(-0.0373797 0.0919925 -1.62604e-19)
(-0.0367363 0.0957021 -5.12197e-20)
(-0.0350939 0.0984259 1.94124e-19)
(-0.0324246 0.100247 -2.75223e-19)
(-0.0286977 0.101256 8.67082e-20)
(-0.0238766 0.101545 0)
(-0.0179168 0.101204 0)
(-0.0107637 0.100322 0)
(-0.00235051 0.0989763 1.37348e-19)
(0.00740331 0.0972344 -6.47031e-20)
(0.0185935 0.0951514 -6.08737e-20)
(0.0313323 0.0927678 -1.14927e-19)
(0.0457493 0.0901091 1.08251e-19)
(0.0619927 0.0871862 -5.09052e-20)
(0.0802297 0.0839968 -9.58189e-20)
(0.100647 0.0805293 2.39824e-22)
(0.123457 0.0767752 -1.7031e-19)
(0.148903 0.0727612 2.4051e-19)
(0.177108 0.0685945 -2.26375e-19)
(0.207935 0.0648379 7.12053e-20)
(0.246581 0.0659041 -6.70004e-20)
(-0.00387893 0.00740326 -7.87884e-20)
(-0.0109009 0.0209642 8.09697e-20)
(-0.0172351 0.0335365 7.73259e-20)
(-0.0228184 0.0450339 -2.21556e-19)
(-0.0275836 0.0553977 7.0326e-20)
(-0.0314664 0.0645935 6.69796e-20)
(-0.0344108 0.0726082 0)
(-0.0363682 0.0794487 0)
(-0.0372967 0.0851414 5.72288e-20)
(-0.0371596 0.0897299 1.0845e-19)
(-0.0359241 0.093273 -2.05467e-19)
(-0.0335588 0.0958424 1.53191e-23)
(-0.0300309 0.0975194 0)
(-0.0253042 0.0983915 0)
(-0.0193359 0.098549 -8.18231e-20)
(-0.0120739 0.0980813 3.14023e-23)
(-0.00345471 0.0970732 7.28146e-20)
(0.00659919 0.0956023 -6.86492e-20)
(0.0181809 0.0937359 -1.29261e-19)
(0.0314007 0.0915294 1.21909e-19)
(0.0463872 0.0890243 5.74284e-20)
(0.0632881 0.0862477 -1.61953e-19)
(0.0822708 0.0832119 -1.01896e-19)
(0.103522 0.0799151 9.56103e-20)
(0.127247 0.0763428 9.00484e-20)
(0.153669 0.0724764 8.50117e-20)
(0.183051 0.0683161 0)
(0.215567 0.0639079 0)
(0.250686 0.0595442 1.41417e-19)
(0.295757 0.0604746 0)
(-0.00404413 0.0072456 7.92637e-20)
(-0.011351 0.0204995 -8.13107e-20)
(-0.0179133 0.0327651 1.5546e-19)
(-0.0236508 0.0439573 -2.11429e-22)
(-0.0284824 0.0540209 0)
(-0.0323326 0.0629252 0)
(-0.0351361 0.0706602 0)
(-0.0368361 0.077236 -6.04854e-20)
(-0.037384 0.0826806 5.74335e-20)
(-0.0367368 0.0870389 0)
(-0.0348557 0.0903699 1.02799e-19)
(-0.0317029 0.0927445 9.73276e-20)
(-0.0272392 0.0942428 -9.17829e-20)
(-0.0214209 0.0949506 8.68064e-20)
(-0.0141964 0.0949563 -3.55267e-23)
(-0.00550368 0.0943476 -7.72249e-20)
(0.00473277 0.0932083 -7.27421e-20)
(0.0166041 0.0916153 2.05646e-19)
(0.0302193 0.0896363 6.46717e-20)
(0.0457063 0.0873278 -1.21579e-19)
(0.0632133 0.0847335 -5.73294e-20)
(0.0829089 0.0818836 5.4095e-20)
(0.104981 0.0787939 0)
(0.129638 0.0754661 -9.54771e-20)
(0.157099 0.0718879 -8.98604e-20)
(0.187598 0.0680369 0)
(0.221395 0.0638963 7.98557e-20)
(0.258748 0.0594766 -1.49331e-19)
(0.298489 0.0546553 -2.11808e-19)
(0.350823 0.0556035 0)
(-0.0042076 0.00708736 -1.58648e-19)
(-0.0117906 0.0200179 8.17062e-20)
(-0.0185697 0.0319463 -1.55794e-19)
(-0.0244455 0.0427931 -2.19555e-22)
(-0.0293225 0.0525094 0)
(-0.0331132 0.0610707 0)
(-0.035742 0.0684726 6.40095e-20)
(-0.0371438 0.07473 1.21462e-19)
(-0.0372619 0.0798747 0)
(-0.0360458 0.083954 0)
(-0.0334493 0.0870283 -2.05982e-19)
(-0.0294267 0.0891689 9.74125e-20)
(-0.0239301 0.0904555 -1.17648e-22)
(-0.0169057 0.0909729 0)
(-0.00829079 0.0908084 4.67586e-23)
(0.00198997 0.0900488 7.72134e-20)
(0.014027 0.0887772 5.21307e-23)
(0.0279287 0.0870708 -2.74029e-19)
(0.0438231 0.0849983 -6.45162e-20)
(0.061859 0.0826183 1.21577e-19)
(0.0822067 0.0799781 1.14443e-19)
(0.105057 0.0771123 1.81722e-22)
(0.13062 0.0740424 1.01205e-19)
(0.159118 0.0707763 1.90711e-19)
(0.190786 0.067308 8.98571e-20)
(0.225852 0.0636183 8.43099e-20)
(0.264547 0.0596815 7.95775e-20)
(0.307253 0.0555265 1.50006e-19)
(0.351862 0.0504513 -6.01912e-23)
(0.412197 0.0516795 6.46575e-20)
(-0.00437182 0.0069326 1.59384e-19)
(-0.0122233 0.0195296 -2.45528e-19)
(-0.0192055 0.0310956 1.56281e-19)
(-0.0251987 0.0415612 1.4902e-19)
(-0.030092 0.050887 7.09027e-20)
(-0.0337861 0.0590574 -1.02211e-22)
(-0.0361948 0.0660761 -6.39785e-20)
(-0.0372436 0.0719647 -1.21462e-19)
(-0.0368668 0.0767605 2.45134e-22)
(-0.0350056 0.0805148 2.18147e-19)
(-0.0316043 0.0832908 -1.03414e-19)
(-0.0266076 0.0851614 1.94868e-19)
(-0.0199562 0.0862068 -1.92925e-22)
(-0.0115838 0.086512 -1.7363e-19)
(-0.00141325 0.086164 7.23433e-23)
(0.0106472 0.0852495 0)
(0.0247065 0.083852 3.63325e-19)
(0.0408935 0.0820498 6.8473e-20)
(0.0593582 0.0799138 0)
(0.0802729 0.0775059 6.06646e-20)
(0.103831 0.074878 -5.70607e-20)
(0.130245 0.0720708 2.14826e-19)
(0.15974 0.0691131 -3.03394e-19)
(0.192553 0.0660211 9.47626e-20)
(0.228913 0.0627982 0)
(0.269031 0.0594332 8.37768e-20)
(0.313061 0.0558934 -1.58043e-19)
(0.361553 0.0523074 1.4846e-19)
(0.411132 0.0472146 -1.39813e-19)
(0.479946 0.0490873 -1.30284e-19)
(-0.00453912 0.00678437 -1.59802e-19)
(-0.0126523 0.0190425 -2.80465e-22)
(-0.0198204 0.0302257 -7.82649e-20)
(-0.0259032 0.0402787 -7.46255e-20)
(-0.0307746 0.0491753 -1.42395e-19)
(-0.0343232 0.0569113 6.77234e-20)
(-0.0364521 0.0635009 1.84316e-23)
(-0.0370766 0.0689747 -1.21889e-19)
(-0.0361217 0.0733772 -1.72875e-19)
(-0.0335181 0.0767655 2.76337e-22)
(-0.0291994 0.0792068 1.03274e-19)
(-0.0230979 0.0807768 -1.94962e-19)
(-0.0151408 0.0815578 9.22023e-20)
(-0.00524605 0.0816358 8.68714e-20)
(0.00668133 0.081099 7.17494e-23)
(0.0207528 0.0800349 7.71942e-20)
(0.0370992 0.0785287 -1.45294e-19)
(0.0558725 0.076661 0)
(0.0772471 0.0745059 -1.28624e-19)
(0.101419 0.0721302 1.21017e-19)
(0.128602 0.0695917 -1.13846e-19)
(0.159027 0.0669382 -1.07311e-19)
(0.192927 0.0642071 0)
(0.230532 0.0614238 -2.84692e-19)
(0.27205 0.058602 2.29496e-23)
(0.317645 0.0557413 -4.19626e-19)
(0.367341 0.0527926 2.36795e-19)
(0.421871 0.0500827 -2.96242e-19)
(0.476332 0.0452131 1.39805e-19)
(0.553633 0.0481601 -1.28307e-19)
(-0.00471135 0.0066445 8.00363e-20)
(-0.0130791 0.0185619 8.2251e-20)
(-0.0204113 0.0293456 7.88138e-20)
(-0.0265478 0.038959 -1.8759e-22)
(-0.031348 0.0473922 -1.66293e-22)
(-0.0346885 0.0546555 0)
(-0.0364615 0.0607759 0)
(-0.0365721 0.0657949 0)
(-0.0349342 0.0697662 0)
(-0.0314671 0.072754 0)
(-0.0260914 0.0748315 1.03384e-19)
(-0.0187248 0.0760785 -9.7558e-20)
(-0.00927775 0.0765806 9.23049e-20)
(0.0023505 0.0764264 -8.22231e-23)
(0.016276 0.0757063 -8.18754e-20)
(0.0326331 0.0745105 8.69879e-23)
(0.0515769 0.0729269 -1.45154e-19)
(0.0732847 0.0710399 1.36582e-19)
(0.0979547 0.0689285 1.28621e-19)
(0.125804 0.0666651 -1.21092e-19)
(0.157063 0.0643145 2.27586e-19)
(0.191966 0.0619325 0)
(0.23074 0.0595651 -2.01191e-19)
(0.273585 0.0572466 7.00728e-23)
(0.320654 0.0549992 6.5829e-23)
(0.372025 0.0528333 3.53605e-22)
(0.427532 0.0506629 -7.83802e-20)
(0.488059 0.0491052 1.47781e-19)
(0.547095 0.0446809 1.38566e-19)
(0.63221 0.0491301 6.6872e-20)
(-0.00488965 0.00651361 0)
(-0.013503 0.0180899 8.26803e-20)
(-0.0209714 0.0284604 -7.86815e-20)
(-0.0271162 0.0376112 -8.02351e-23)
(-0.0317831 0.0455521 1.43283e-19)
(-0.0348373 0.0523103 -6.81682e-20)
(-0.0361603 0.0579279 0)
(-0.0356461 0.0624594 0)
(-0.0331967 0.0659696 -1.15848e-19)
(-0.0287182 0.0685315 1.099e-19)
(-0.022116 0.0702255 1.03768e-19)
(-0.0132907 0.0711375 0)
(-0.00213311 0.0713575 9.23362e-20)
(0.0114794 0.0709786 0)
(0.0276866 0.070095 -1.63694e-19)
(0.0466482 0.0688007 2.31346e-19)
(0.0685449 0.0671884 2.1763e-19)
(0.0935781 0.0653473 -6.83555e-20)
(0.121967 0.0633626 -6.96209e-23)
(0.153943 0.0613134 -1.81257e-19)
(0.18974 0.0592719 0)
(0.229579 0.0573015 0)
(0.273653 0.0554554 1.00497e-19)
(0.322099 0.0537739 1.88938e-19)
(0.37497 0.0522838 2.01439e-22)
(0.432212 0.051002 1.66959e-19)
(0.493421 0.049784 1.56852e-19)
(0.559497 0.0495808 0)
(0.622588 0.0457942 -1.38556e-19)
(0.713975 0.0520858 1.92808e-19)
(-0.0050742 0.00639083 8.09939e-20)
(-0.0139208 0.0176256 0)
(-0.0214895 0.0275712 1.12914e-22)
(-0.0275859 0.0362402 -7.56167e-20)
(-0.032043 0.0436649 7.20681e-20)
(-0.0347156 0.049892 6.82593e-20)
(-0.0354744 0.054981 -1.77556e-22)
(-0.0342016 0.0590011 6.15778e-20)
(-0.0307862 0.0620298 0)
(-0.0251193 0.0641509 -2.19943e-19)
(-0.0170891 0.0654535 2.99644e-22)
(-0.00657616 0.0660309 0)
(0.00655079 0.0659798 9.23849e-20)
(0.0224388 0.0653988 -2.61221e-19)
(0.0412533 0.0643878 8.20965e-20)
(0.0631799 0.0630466 -7.70343e-20)
(0.0884238 0.0614736 -1.45124e-19)
(0.117207 0.0597646 -2.04792e-19)
(0.14976 0.0580115 0)
(0.186317 0.0563003 0)
(0.227094 0.05471 1.13349e-19)
(0.272273 0.0533095 1.0662e-19)
(0.321977 0.0521559 -1.00161e-19)
(0.376235 0.0512904 0)
(0.43495 0.0507371 0)
(0.497872 0.050509 0)
(0.564349 0.0503975 1.55592e-19)
(0.635039 0.0516268 -7.31933e-20)
(0.701504 0.0486499 1.37576e-19)
(0.796629 0.0569491 1.24283e-19)
(-0.00526383 0.00627401 -1.62159e-19)
(-0.0143257 0.0171647 8.34397e-20)
(-0.0219495 0.0266748 -7.98302e-20)
(-0.0279277 0.0348461 7.60748e-20)
(-0.0320829 0.041736 -7.20681e-20)
(-0.0342598 0.0474131 6.85185e-20)
(-0.0343183 0.0519559 -6.51872e-20)
(-0.0321286 0.0554505 -1.23131e-19)
(-0.0275653 0.0579885 1.16903e-19)
(-0.0205027 0.059666 2.20607e-19)
(-0.0108094 0.0605825 1.03923e-19)
(0.0016559 0.0608407 -9.8411e-20)
(0.0170489 0.0605451 1.73586e-22)
(0.0355424 0.059802 9.51933e-23)
(0.0573279 0.0587186 8.21904e-20)
(0.0826149 0.0574017 0)
(0.111628 0.055957 1.45137e-19)
(0.1446 0.0544875 3.41134e-19)
(0.181763 0.0530918 -6.42027e-20)
(0.223327 0.0518621 0)
(0.269465 0.0508813 -2.26589e-19)
(0.320284 0.0502203 -1.06384e-19)
(0.37579 0.0499337 -1.00022e-19)
(0.435853 0.0500554 9.39081e-20)
(0.500173 0.0505972 -8.82244e-20)
(0.568242 0.0515501 8.27414e-20)
(0.639182 0.0526716 -6.74741e-22)
(0.713052 0.0552401 1.44884e-19)
(0.782097 0.0532733 -1.37027e-19)
(0.877368 0.0635054 -2.50364e-19)
(-0.00545595 0.00615971 8.18112e-20)
(-0.0147073 0.0167 8.38035e-20)
(-0.0223293 0.0257639 -2.32733e-22)
(-0.0281053 0.0334247 3.7775e-22)
(-0.0318491 0.0397665 0)
(-0.0333962 0.0448818 -2.66551e-22)
(-0.032596 0.0488701 -1.96463e-19)
(-0.0293056 0.0518355 0)
(-0.0233842 0.0538857 -1.17361e-19)
(-0.0146876 0.0551303 -4.42566e-19)
(-0.00306326 0.0556811 1.04641e-19)
(0.011654 0.0556514 -9.85849e-20)
(0.029645 0.0551557 -1.85204e-19)
(0.0511081 0.0543093 1.74902e-19)
(0.0762581 0.0532282 0)
(0.105323 0.0520276 7.71319e-20)
(0.138539 0.0508209 -2.18081e-19)
(0.176133 0.0497184 -6.83099e-20)
(0.218314 0.0488242 -1.92509e-19)
(0.265246 0.0482338 0)
(0.317018 0.04803 2.26418e-19)
(0.373615 0.0482784 1.06378e-19)
(0.434878 0.0490225 0)
(0.500465 0.0502777 9.36304e-20)
(0.569823 0.0520317 0)
(0.642135 0.0542295 -8.24571e-20)
(0.716345 0.0566635 -2.31786e-19)
(0.791569 0.0602844 -2.88995e-19)
(0.862285 0.059688 -1.34972e-19)
(0.952948 0.0714578 -3.19793e-21)
(-0.00564637 0.00604338 -8.18112e-20)
(-0.0150509 0.0162218 2.9904e-22)
(-0.022601 0.024828 8.04979e-20)
(-0.028075 0.0319675 -7.64525e-20)
(-0.0312796 0.0377531 -7.28049e-20)
(-0.0320421 0.0423024 1.38112e-19)
(-0.0302013 0.0457372 6.58087e-20)
(-0.0256008 0.0481812 1.24557e-19)
(-0.0180831 0.0497593 1.17327e-19)
(-0.00748441 0.0505963 1.11297e-19)
(0.0063703 0.0508177 2.09921e-19)
(0.0236703 0.0505489 -3.00784e-22)
(0.0446211 0.0499158 0)
(0.0694433 0.0490445 -8.74024e-20)
(0.0983697 0.0480605 -2.53129e-22)
(0.131637 0.0470882 1.26741e-22)
(0.169475 0.0462487 2.18168e-19)
(0.212086 0.0456578 0)
(0.259627 0.0454224 1.28292e-19)
(0.312175 0.0456366 0)
(0.369692 0.0463756 -2.37782e-23)
(0.431993 0.0476908 -1.06175e-19)
(0.498701 0.0496025 1.99399e-19)
(0.569215 0.0520939 -9.37558e-20)
(0.642695 0.0551156 -1.75136e-19)
(0.718002 0.0585433 8.19095e-20)
(0.793938 0.0622766 3.07942e-19)
(0.868558 0.0665162 7.21508e-20)
(0.939834 0.0679789 3.35306e-19)
(1.02 0.0801673 6.44763e-20)
(-0.00582921 0.00591964 8.25232e-20)
(-0.0153379 0.0157183 -1.69394e-19)
(-0.0227309 0.0238536 0)
(-0.0277858 0.0304632 0)
(-0.0303045 0.0356892 7.31938e-20)
(-0.0301065 0.0396757 -2.91251e-22)
(-0.02702 0.0425677 -1.31617e-19)
(-0.0208747 0.0445098 -1.24615e-19)
(-0.0114959 0.045645 5.44896e-22)
(0.00130088 0.0461149 4.91598e-22)
(0.0177128 0.0460595 -1.0493e-19)
(0.0379524 0.0456183 1.97687e-19)
(0.0622461 0.0449297 -1.86506e-19)
(0.0908311 0.0441312 8.794e-20)
(0.123948 0.0433588 8.23847e-20)
(0.161825 0.0427453 -1.54874e-19)
(0.204666 0.0424181 -7.26927e-20)
(0.252619 0.0424958 6.85104e-20)
(0.305751 0.0430829 0)
(0.364007 0.0442646 -1.20425e-19)