/*--------------------------------*- C++ -*----------------------------------*\
  =========                 |
  \\      /  F ield         | OpenFOAM: The Open Source CFD Toolbox
   \\    /   O peration     | Website:  https://openfoam.org
    \\  /    A nd           | Version:  7
     \\/     M anipulation  |
\*---------------------------------------------------------------------------*/
FoamFile
{
    version     2.0;
    format      ascii;
    class       volScalarField;
    location    "5";
    object      p;
}
// * * * * * * * * * * * * * * * * * * * * * * * * * * * * * * * * * * * * * //

dimensions      [0 2 -2 0 0 0 0];

internalField   nonuniform List<scalar> 
183
(
0.00156882
0.00121943
0.00156833
0.00121903
0.00156736
0.00121826
0.00156591
0.0012171
0.00156399
0.00121556
0.00156159
0.00121363
0.00155871
0.00121133
0.00155536
0.00120865
0.00155154
0.00120559
0.00154725
0.00120216
0.00154248
0.00119836
0.00153724
0.00119419
0.00153152
0.00118964
0.00152536
0.00118472
0.00151866
0.00117948
0.00151068
0.0011738
0.00150101
0.00116707
0.00150023
0.00115913
0.00149117
0.00115723
0.00148353
0.00115093
0.00147266
0.00114206
0.00109672
0.000849953
0.000980028
0.00076241
0.00085702
0.000668103
0.000718884
0.00056229
0.000570537
0.000448229
0.000414704
0.000328032
0.000253978
0.000203666
9.09923e-05
7.71537e-05
-7.16604e-05
-4.94918e-05
-0.000231527
-0.000174339
-0.000386298
-0.000295552
-0.000533831
-0.000411411
-0.000672169
-0.00052032
-0.000799544
-0.000620831
-0.000914389
-0.000711643
-0.00101534
-0.000791613
-0.00110122
-0.000859758
-0.00117108
-0.000915257
-0.00122413
-0.000957455
-0.00125982
-0.00098586
-0.00127775
-0.00100014
0.000314268
0.000104373
-0.000104297
-0.000308643
-0.000505786
-0.000693093
-0.000868185
-0.00102895
-0.00117353
-0.00130032
-0.00140799
-0.00149542
-0.00156175
-0.00160632
-0.0016287
0.00109713
0.000980518
0.000857589
0.000719528
0.000571255
0.000415493
0.000254834
9.19123e-05
-7.06798e-05
-0.000230489
-0.000385208
-0.000532693
-0.000670986
-0.000798322
-0.000913132
-0.00101405
-0.00109991
-0.00116974
-0.00122278
-0.00125846
-0.00127639
0.00085031
0.000762838
0.000668599
0.000562853
0.000448856
0.00032872
0.000204414
7.79579e-05
-4.86345e-05
-0.000173432
-0.000294599
-0.000410415
-0.000519286
-0.000619762
-0.000710543
-0.000790487
-0.000858609
-0.00091409
-0.000956275
-0.000984671
-0.000998942
0.00147308
0.00114242
0.00148393
0.00115127
0.00149154
0.00115756
0.00150059
0.00115944
0.00150134
0.00116736
0.00151099
0.00117407
0.00151895
0.00117973
0.00152563
0.00118496
0.00153177
0.00118986
0.00153747
0.00119439
0.00154269
0.00119855
0.00154744
0.00120233
0.00155171
0.00120574
0.00155551
0.00120878
0.00155884
0.00121145
0.0015617
0.00121373
0.00156408
0.00121564
0.00156598
0.00121716
0.00156741
0.0012183
0.00156836
0.00121906
0.00156883
0.00121944
)
;

boundaryField
{
    inlet
    {
        type            zeroGradient;
    }
    outlet
    {
        type            fixedValue;
        value           nonuniform 0();
    }
    cylinder
    {
        type            zeroGradient;
    }
    top
    {
        type            symmetryPlane;
    }
    bottom
    {
        type            symmetryPlane;
    }
    defaultFaces
    {
        type            empty;
    }
    procBoundary41to40
    {
        type            processor;
        value           nonuniform List<scalar> 
87
(
0.00202166
0.00202104
0.00201981
0.00201798
0.00201554
0.0020125
0.00200886
0.00200462
0.00199978
0.00199433
0.00198827
0.00198158
0.00197417
0.00196601
0.00195697
0.00194815
0.00194171
0.00193021
0.00192008
0.00191175
0.00189811
0.00141398
0.00141398
0.001259
0.00109774
0.000916859
0.000723497
0.00052115
0.00031329
0.000103322
-0.000105417
-0.000309827
-0.000507031
-0.000694392
-0.000869535
-0.00103034
-0.00117496
-0.00130179
-0.00140949
-0.00149694
-0.00156329
-0.00160787
-0.00163025
0.000381784
0.000111394
-0.000156149
-0.000416954
-0.000667476
-0.000904525
-0.00112528
-0.00132725
-0.00150833
-0.0016667
-0.00180085
-0.00190958
-0.00199194
-0.00204721
-0.00207495
0.00141445
0.00141445
0.00125956
0.00109839
0.000917596
0.000724317
0.000522051
0.000522051
0.00189858
0.0019122
0.00192051
0.00193061
0.0019421
0.00194852
0.0019573
0.00196632
0.00197447
0.00198185
0.00198851
0.00199455
0.00199998
0.0020048
0.00200901
0.00201263
0.00201565
0.00201806
0.00201987
0.00202107
0.00202167
)
;
    }
    procBoundary41to42
    {
        type            processor;
        value           nonuniform List<scalar> 
86
(
0.000949143
0.000948829
0.000948209
0.000947283
0.000946052
0.000944517
0.00094268
0.000940541
0.000938102
0.000935365
0.000932332
0.000929004
0.00092538
0.000921459
0.000917256
0.000912821
0.000908042
0.000902285
0.000895644
0.000893374
0.000885699
0.000885699
0.000659648
0.000592737
0.000520212
0.000438948
0.000351065
0.000258241
0.000161954
6.37575e-05
-3.47844e-05
-0.000132161
-0.000226924
-0.0003177
-0.000403207
-0.000482269
-0.000553825
-0.000616933
-0.000670779
-0.00071468
-0.000748089
-0.000770591
-0.000781904
0.000659958
0.000886012
0.000593109
0.000520644
0.000439438
0.000351612
0.000258842
0.000162607
6.44588e-05
-3.40367e-05
-0.00013137
-0.000226092
-0.000316831
-0.000402304
-0.000481336
-0.000552865
-0.00061595
-0.000669776
-0.000713662
-0.000747058
-0.000769553
-0.000780862
0.000886012
0.000893671
0.000895928
0.000902553
0.000908295
0.00091306
0.000917479
0.000921667
0.000925573
0.000929182
0.000932494
0.000935512
0.000938234
0.000940657
0.00094278
0.000944602
0.000946122
0.000947337
0.000948247
0.000948852
0.000949151
)
;
    }
}


// ************************************************************************* //
