/*--------------------------------*- C++ -*----------------------------------*\
  =========                 |
  \\      /  F ield         | OpenFOAM: The Open Source CFD Toolbox
   \\    /   O peration     | Website:  https://openfoam.org
    \\  /    A nd           | Version:  7
     \\/     M anipulation  |
\*---------------------------------------------------------------------------*/
FoamFile
{
    version     2.0;
    format      ascii;
    class       surfaceScalarField;
    location    "30";
    object      phi;
}
// * * * * * * * * * * * * * * * * * * * * * * * * * * * * * * * * * * * * * //

dimensions      [0 3 -1 0 0 0 0];

internalField   nonuniform List<scalar> 
277
(
-0.00105613
-0.00119587
0.00117066
-0.00203097
0.00196997
-0.000997866
-0.00122301
-0.0020859
-0.000898257
-0.00125641
-0.00213932
-0.000761447
-0.00129983
-0.00219561
-0.00059277
-0.00135614
-0.00225858
-0.000398184
-0.00142712
-0.0023311
-0.000183643
-0.00151351
-0.00241483
4.5527e-05
-0.00161491
-0.0025099
0.000281875
-0.00172962
-0.00261761
0.000523573
-0.0018562
-0.00273573
0.000766385
-0.00199195
-0.00286184
0.00100721
-0.00213389
-0.00299295
0.00124336
-0.00227874
-0.00312569
0.00147235
-0.00242299
-0.00325653
0.00169176
-0.00256293
-0.00338189
0.00189909
-0.00269471
-0.00349837
0.00209185
-0.00281455
0.00219638
-0.0036029
-0.00403962
0.00226745
-0.00291882
0.00235746
-0.0036929
-0.00413517
0.00242301
-0.00300414
0.00249649
-0.00376639
-0.00421683
0.00255659
-0.00306802
0.0026125
-0.0038223
-0.00428431
0.00267089
0.00271045
-0.00386186
-0.00433765
0.0193408
-0.00392524
-0.00433355
0.0223752
-0.00369081
-0.00406415
0.0236047
-0.00333179
-0.00369306
0.02392
-0.00296192
-0.00331967
0.023909
-0.00262143
-0.00297429
0.0238061
-0.00231748
-0.00265968
0.0236859
-0.00204711
-0.00237295
0.0235648
-0.00180619
-0.00211122
0.0234467
-0.00159096
-0.00187235
0.0233357
-0.00139729
-0.00165387
0.0232311
-0.00122158
-0.00145322
0.0231306
-0.00106113
-0.00126818
0.0230348
-0.000913929
-0.00109683
0.0229479
-0.000777872
-0.000937044
0.0228724
-0.000650943
-0.000786736
0.0228076
-0.000531239
-0.00064399
0.0227506
-0.000417809
-0.000507711
0.0227039
-0.000309295
-0.000376534
0.0226693
-0.000204349
-0.000249062
0.0226469
-0.000101508
-0.00012385
0.0226336
-0.000352082
0.0229441
-0.00027778
0.0228784
-0.000206202
0.0228276
-0.000136237
0.0227915
-6.76161e-05
0.0227656
0.0227496
-0.00200596
0.0191296
0.00158213
-0.00211567
0.0224855
-0.00209211
0.0238795
-0.00200761
0.0242127
-0.0018928
0.0241596
-0.00176191
0.0240074
-0.00162307
0.0238448
-0.00148233
0.0236898
-0.00134261
0.0235474
-0.00120625
0.0234141
-0.00107424
0.0232915
-0.000947592
0.0231786
-0.000826349
0.0230777
-0.000710241
0.0229882
-0.000598773
0.0229086
-0.000491742
0.022837
-0.000388801
0.0227755
-0.000288991
0.0227277
-0.000191223
0.0226937
-9.50671e-05
0.0226695
0.0226546
-0.00307911
0.00271946
-0.00307352
-0.00291181
-0.00270301
-0.00248818
-0.00227792
-0.00207438
-0.00187875
-0.0016915
-0.00151353
-0.0013448
-0.00118507
-0.00103338
-0.000888637
-0.000749831
-0.00061638
-0.000487685
-0.000362661
-0.000240129
-0.000119471
0.00260424
0.0012845
0.0027212
0.00146517
0.00261819
0.00246379
0.00117666
0.00260048
0.00132847
0.00249186
0.00230446
0.00105351
0.00246116
0.00117177
0.00234036
0.00212669
0.000915421
0.00230203
0.000996439
0.00193362
0.000763611
0.000804743
0.0017281
0.000600222
0.000599593
0.00151256
0.000428116
0.000384321
0.00128905
0.000250707
0.000162502
0.00105923
7.18091e-05
-6.23021e-05
0.000824781
-0.000104714
-0.000286593
0.000587476
-0.000274898
-0.000507074
0.00034964
-0.000435251
-0.000720713
0.00011411
-0.000583085
-0.000924891
-0.000114343
-0.00071394
-0.00111615
-0.000330827
-0.00082763
-0.00129178
-0.00053065
-0.000923134
-0.00145015
-0.000707443
-0.00100063
-0.00158997
-0.000855015
-0.00106138
-0.00171078
-0.00096764
-0.00110767
-0.00181309
-0.00104058
-0.00114275
-0.00189857
-0.00107055
)
;

boundaryField
{
    inlet
    {
        type            calculated;
        value           nonuniform 0();
    }
    outlet
    {
        type            calculated;
        value           nonuniform 0();
    }
    cylinder
    {
        type            calculated;
        value           nonuniform 0();
    }
    top
    {
        type            symmetryPlane;
        value           uniform 0;
    }
    bottom
    {
        type            symmetryPlane;
        value           uniform 0;
    }
    defaultFaces
    {
        type            empty;
        value           nonuniform 0();
    }
    procBoundary36to35
    {
        type            processor;
        value           nonuniform List<scalar> 
87
(
0.00108134
0.001025
0.000931664
0.000804862
0.000649082
0.000469162
0.000270035
5.58766e-05
-0.000167165
-0.000396998
-0.000630632
-0.000865266
-0.00109851
-0.00132811
-0.00155182
-0.0017673
-0.00197202
-0.00216318
-0.00233768
-0.00249271
-0.00262905
-0.00310986
-0.0192775
-0.0226097
-0.0239637
-0.0242899
-0.0242495
-0.0241101
-0.0239562
-0.0238057
-0.0236619
-0.0235294
-0.0234068
-0.023291
-0.023182
-0.023084
-0.0229993
-0.0229273
-0.022864
-0.0228124
-0.0227742
-0.0227497
-0.0227351
-0.0230222
-0.0229527
-0.0228991
-0.0228614
-0.0228342
-0.0228173
-0.0187057
-0.00137756
-0.0223758
-0.0239031
-0.0242972
-0.0242744
-0.0241383
-0.0239837
-0.0238306
-0.0236871
-0.0235504
-0.0234235
-0.0233053
-0.023199
-0.0231043
0.00043016
-0.0230201
-0.00251117
-0.00235595
-0.0021813
-0.00198861
-0.00178181
-0.00156471
-0.00134046
-0.00111164
-0.00088033
-0.000648258
-0.000417292
-0.000189287
3.37243e-05
0.000245199
0.000444516
0.000626155
0.000784943
0.000915758
0.00101393
0.00107566
0.00109846
)
;
    }
    procBoundary36to37
    {
        type            processor;
        value           nonuniform List<scalar> 
86
(
-0.000995125
-0.000942936
-0.000844836
-0.000705152
-0.000529802
-0.000325661
-9.99143e-05
0.000140594
0.000389587
0.000641696
0.00089249
0.00113831
0.00137611
0.00160319
0.00181712
0.00201557
0.00393121
0.00230479
0.00245301
0.00257815
0.00267998
0.00276379
0.0193367
0.0221058
0.0232336
0.0235466
0.0235636
0.0234915
0.0233991
0.023303
0.0232078
0.0231172
0.0230304
0.0229455
0.0228634
0.0227882
0.0227221
0.0226649
0.0226143
0.0225727
0.0225418
0.0225217
0.0225097
0.0194892
0.0224799
0.0237178
0.0240039
0.0239448
0.0237972
0.0236413
0.0234942
0.0233601
0.0232361
0.0231227
0.0230189
0.022926
0.0228435
0.0227698
0.0227036
0.0226468
0.0226027
0.0225712
0.0225488
0.0225351
0.00282247
0.00272682
0.00261266
0.00247764
0.00216475
0.00212532
0.00193325
0.00172783
0.00151087
0.00128403
0.00104907
0.000807957
0.000563279
0.000318288
7.69151e-05
-0.0001552
-0.000372281
-0.000567617
-0.000734211
-0.000865321
-0.000955099
-0.000999155
)
;
    }
}


// ************************************************************************* //
