/*--------------------------------*- C++ -*----------------------------------*\
  =========                 |
  \\      /  F ield         | OpenFOAM: The Open Source CFD Toolbox
   \\    /   O peration     | Website:  https://openfoam.org
    \\  /    A nd           | Version:  7
     \\/     M anipulation  |
\*---------------------------------------------------------------------------*/
FoamFile
{
    version     2.0;
    format      ascii;
    class       volVectorField;
    location    "30";
    object      U;
}
// * * * * * * * * * * * * * * * * * * * * * * * * * * * * * * * * * * * * * //

dimensions      [0 1 -1 0 0 0 0];

internalField   nonuniform List<vector> 
183
(
(-0.241267 -0.0300443 2.45131e-22)
(-0.240736 -0.0508229 -6.1493e-22)
(-0.226973 -0.030714 2.93149e-21)
(-0.226178 -0.0523377 -6.48842e-22)
(-0.203927 -0.0315005 3.79749e-21)
(-0.201676 -0.053769 -3.86896e-21)
(-0.172888 -0.0325167 2.25513e-21)
(-0.168101 -0.055239 -3.94759e-21)
(-0.134795 -0.0338547 -1.04359e-21)
(-0.12658 -0.0568594 2.06215e-21)
(-0.0906574 -0.0355768 -9.15869e-22)
(-0.0783764 -0.0587188 -1.3008e-20)
(-0.041478 -0.037716 -3.80368e-21)
(-0.0247714 -0.0608717 -7.71412e-22)
(0.0118308 -0.040272 -1.08843e-21)
(0.0330398 -0.0633356 5.92307e-21)
(0.0684936 -0.0432112 7.91182e-21)
(0.0940161 -0.0661261 4.03351e-21)
(0.12787 -0.0464841 8.19546e-21)
(0.15729 -0.0692219 -1.22007e-20)
(0.189451 -0.0500288 2.06102e-21)
(0.222158 -0.0725499 1.0723e-20)
(0.252818 -0.0537606 -3.17245e-21)
(0.288047 -0.0760264 -5.68763e-21)
(0.317592 -0.0575861 -1.55538e-20)
(0.354461 -0.0795571 1.62008e-20)
(0.383393 -0.061405 5.07479e-21)
(0.420931 -0.0830389 -5.74754e-21)
(0.449798 -0.065111 -8.03894e-22)
(0.486968 -0.0863664 1.68546e-20)
(0.516312 -0.0685952 -2.87951e-20)
(0.552039 -0.0894395 2.44205e-20)
(0.582351 -0.0717425 5.00406e-20)
(0.615561 -0.0921569 -3.05755e-20)
(0.645866 -0.103135 9.04114e-21)
(0.647236 -0.0744155 1.33859e-20)
(0.676909 -0.0943898 1.02694e-21)
(0.703316 -0.105421 -1.55699e-20)
(0.710207 -0.0765358 1.59838e-20)
(0.735445 -0.0961046 -1.00581e-20)
(0.757376 -0.107255 -7.40628e-21)
(0.770437 -0.0783005 9.98012e-22)
(0.790551 -0.0976921 -5.63295e-22)
(0.807639 -0.109133 1.2413e-20)
(0.827061 -0.0793973 1.51705e-20)
(0.841662 -0.0987857 -6.83642e-21)
(0.853797 -0.110568 4.43883e-21)
(0.978183 -0.0935534 0)
(0.977264 -0.104785 0)
(1.1394 -0.0968876 0)
(1.12379 -0.106498 0)
(1.20495 -0.086563 0)
(1.18376 -0.095487 0)
(1.22123 -0.0775099 0)
(1.20016 -0.086567 0)
(1.21984 -0.0688858 0)
(1.20076 -0.0777846 0)
(1.21353 -0.0609225 0)
(1.19669 -0.0695755 0)
(1.2064 -0.0538505 0)
(1.19152 -0.0621365 0)
(1.19936 -0.0475383 0)
(1.18612 -0.0553463 0)
(1.1926 -0.0419215 0)
(1.18074 -0.0491645 0)
(1.18634 -0.0368846 0)
(1.17562 -0.0435198 0)
(1.18051 -0.032331 0)
(1.17076 -0.0383484 0)
(1.17497 -0.0281764 0)
(1.16604 -0.0335856 0)
(1.16974 -0.0243864 0)
(1.16152 -0.0291948 0)
(1.16501 -0.0208827 0)
(1.1574 -0.0251042 0)
(1.16092 -0.0176476 0)
(1.1538 -0.0212857 0)
(1.15742 -0.0145933 0)
(1.1507 -0.0176608 0)
(1.15435 -0.0117174 0)
(1.14796 -0.0142178 0)
(1.15184 -0.00897897 0)
(1.14571 -0.0109172 0)
(1.14998 -0.00633922 0)
(1.14405 -0.00772123 0)
(1.14879 -0.00378502 0)
(1.14296 -0.00461001 0)
(1.14811 -0.00124089 0)
(1.14236 -0.0015199 0)
(1.16318 0.00966218 0)
(1.15976 0.00778673 0)
(1.15712 0.00598388 0)
(1.15525 0.00423629 0)
(1.15391 0.00251726 0)
(1.1531 0.000834169 0)
(0.949688 0.0456005 0)
(1.13016 0.0516082 0)
(1.20611 0.0520567 0)
(1.22567 0.050832 0)
(1.22438 0.0484876 0)
(1.21746 0.0454306 0)
(1.20971 0.0419997 0)
(1.20213 0.0385042 0)
(1.19507 0.0350034 0)
(1.18836 0.0315607 0)
(1.18212 0.028236 0)
(1.17632 0.0250063 0)
(1.1711 0.0219504 0)
(1.16644 0.0189955 0)
(1.16229 0.0161892 0)
(1.15854 0.0134756 0)
(1.15531 0.0108847 0)
(1.1528 0.00837844 0)
(1.15102 0.00593755 0)
(1.14974 0.00353597 0)
(1.149 0.00117349 0)
(0.97778 0.071945 0)
(1.13851 0.0770789 0)
(1.20546 0.074017 0)
(1.22111 0.0695562 0)
(1.21807 0.0644611 0)
(1.21031 0.059138 0)
(1.2021 0.0539425 0)
(1.19432 0.0489731 0)
(1.18722 0.0442029 0)
(1.18064 0.0396601 0)
(1.17462 0.035366 0)
(1.16912 0.0312826 0)
(1.1642 0.02744 0)
(1.15983 0.0237603 0)
(1.15594 0.0202594 0)
(1.15244 0.0168832 0)
(1.14943 0.0136455 0)
(1.14709 0.0105093 0)
(1.14542 0.00745046 0)
(1.14424 0.00444152 0)
(1.14355 0.0014751 0)
(0.765323 0.0340739 -1.3688e-20)
(0.793371 0.0384037 7.05647e-21)
(0.840492 0.0677837 -9.26914e-21)
(0.702607 0.0317694 4.58076e-21)
(0.735314 0.035599 -2.30101e-21)
(0.789307 0.0653263 -6.33492e-21)
(0.637423 0.0290507 -1.18301e-20)
(0.674382 0.0322378 8.6865e-21)
(0.734512 0.0621338 5.70925e-21)
(0.570747 0.0259395 -3.40072e-20)
(0.611385 0.0282653 6.76626e-21)
(0.676745 0.0583123 7.54399e-22)
(0.503486 0.0223633 -1.51301e-20)
(0.547066 0.0237465 1.14573e-20)
(0.436399 0.0183789 5.42167e-21)
(0.482053 0.0187751 -2.01434e-20)
(0.370065 0.0140771 1.18621e-20)
(0.416836 0.0134459 1.78934e-21)
(0.304894 0.00953533 -2.04209e-20)
(0.351784 0.00784401 1.07207e-20)
(0.241162 0.00480577 1.45466e-20)
(0.287183 0.00205268 -3.38596e-20)
(0.179078 0.000140709 1.5131e-20)
(0.223296 -0.00375725 -1.74703e-21)
(0.118863 -0.00432259 -3.12826e-21)
(0.160411 -0.00948181 7.08546e-22)
(0.0608117 -0.00862973 -1.30228e-22)
(0.0989388 -0.0151026 7.15681e-21)
(0.00536023 -0.0126668 -1.04109e-20)
(0.0394475 -0.0205239 9.7502e-21)
(-0.0468821 -0.016312 4.15553e-21)
(-0.0173161 -0.0256475 -3.89963e-21)
(-0.095117 -0.0195009 4.71936e-21)
(-0.0703493 -0.0303944 -3.45686e-21)
(-0.138405 -0.0222173 -6.37451e-21)
(-0.118542 -0.0347024 1.43291e-21)
(-0.175717 -0.02445 5.83572e-22)
(-0.16066 -0.0385341 3.00563e-21)
(-0.206016 -0.026217 -1.19235e-21)
(-0.195434 -0.0418692 -1.32299e-21)
(-0.22835 -0.0275686 -5.86261e-21)
(-0.221673 -0.0447132 6.5448e-21)
(-0.24195 -0.0285854 -9.46321e-22)
(-0.238374 -0.0471037 1.7112e-21)
(-0.246316 -0.0293728 -1.15354e-21)
(-0.244835 -0.0491108 -2.3425e-22)
)
;

boundaryField
{
    inlet
    {
        type            uniformFixedValue;
        uniformValue    constant (1 0 0);
        value           nonuniform 0();
    }
    outlet
    {
        type            pressureInletOutletVelocity;
        value           nonuniform 0();
    }
    cylinder
    {
        type            fixedValue;
        value           nonuniform 0();
    }
    top
    {
        type            symmetryPlane;
    }
    bottom
    {
        type            symmetryPlane;
    }
    defaultFaces
    {
        type            empty;
    }
    procBoundary36to35
    {
        type            processor;
        value           nonuniform List<vector> 
87
(
(-0.251808 0.00241862 3.41622e-22)
(-0.23973 0.00233616 1.21406e-21)
(-0.219843 0.00203881 -4.5032e-22)
(-0.192731 0.0014528 -3.87978e-21)
(-0.15911 0.000429391 6.65816e-21)
(-0.119761 -0.00108341 1.3187e-21)
(-0.0754547 -0.0030196 -3.02803e-21)
(-0.0268986 -0.00539413 -1.06891e-20)
(0.0252992 -0.00816612 7.01241e-21)
(0.0806394 -0.0112961 5.33781e-21)
(0.138719 -0.0147524 -4.0894e-21)
(0.199217 -0.0184633 -1.75595e-20)
(0.261862 -0.0223545 -1.22906e-21)
(0.3264 -0.0263424 7.62063e-21)
(0.39256 -0.0303263 2.13791e-20)
(0.459996 -0.0341974 -5.18008e-21)
(0.528267 -0.0378303 4.2185e-20)
(0.596791 -0.0410843 1.30481e-20)
(0.664816 -0.0438342 8.60514e-21)
(0.731408 -0.0460134 -7.8177e-21)
(0.795447 -0.0473917 1.21817e-20)
(0.978074 -0.0766511 0)
(0.978074 -0.0766511 0)
(1.15344 -0.0780645 0)
(1.22387 -0.0693189 0)
(1.23957 -0.0611829 0)
(1.23605 -0.0539355 0)
(1.22762 -0.0473694 0)
(1.21876 -0.0416961 0)
(1.21033 -0.036676 0)
(1.2024 -0.0322196 0)
(1.19516 -0.0282182 0)
(1.1885 -0.0246016 0)
(1.18224 -0.0213089 0)
(1.17636 -0.0183359 0)
(1.1711 -0.0156099 0)
(1.16656 -0.0131341 0)
(1.16273 -0.0108106 0)
(1.15936 -0.00865082 0)
(1.15662 -0.00661251 0)
(1.1546 -0.0046573 0)
(1.15331 -0.00278371 0)
(1.15257 -0.000901945 0)
(1.16635 0.00555671 0)
(1.16275 0.00444655 0)
(1.15998 0.00339714 0)
(1.15804 0.00239552 0)
(1.15663 0.00141344 0)
(1.15578 0.000466249 0)
(0.934078 0.0376803 0)
(0.934078 0.0376803 0)
(1.12613 0.0397053 0)
(1.2065 0.0388945 0)
(1.2284 0.0377584 0)
(1.22865 0.0359273 0)
(1.22269 0.0337464 0)
(1.21552 0.0312559 0)
(1.20822 0.0286487 0)
(1.20125 0.025986 0)
(1.19444 0.0233344 0)
(1.18801 0.0207752 0)
(1.18194 0.0182791 0)
(1.17644 0.015962 0)
(1.17152 0.0137319 0)
(1.16714 0.0116571 0)
(1.16714 0.0116571 0)
(0.754615 0.039963 -7.18275e-21)
(0.687667 0.0387693 -2.07859e-22)
(0.618215 0.0372623 -2.75521e-21)
(0.54745 0.0355241 -1.23695e-20)
(0.476478 0.0333498 -2.18603e-20)
(0.406243 0.0307961 -1.40536e-20)
(0.337488 0.0279501 2.01536e-21)
(0.270748 0.0248911 -1.41846e-20)
(0.206382 0.0217118 1.66115e-22)
(0.144623 0.0185179 1.90862e-20)
(0.0856665 0.0154131 -3.77381e-22)
(0.029713 0.0125045 -9.09503e-21)
(-0.0229552 0.00990673 -3.36482e-21)
(-0.071935 0.00766487 -8.04046e-21)
(-0.116672 0.0058018 1.53338e-20)
(-0.156483 0.00436946 -1.73141e-21)
(-0.190597 0.0033628 -7.2111e-22)
(-0.218229 0.00274524 1.69815e-21)
(-0.238649 0.00244708 -8.68919e-22)
(-0.251266 0.00237465 -2.32918e-21)
(-0.255697 0.00240145 2.625e-22)
)
;
    }
    procBoundary36to37
    {
        type            processor;
        value           nonuniform List<vector> 
86
(
(-0.215053 -0.0492204 6.85844e-23)
(-0.203107 -0.0529419 8.94186e-22)
(-0.180056 -0.0563582 -4.38592e-21)
(-0.14677 -0.0595733 -1.3238e-21)
(-0.104476 -0.0626909 5.53649e-22)
(-0.0546241 -0.065803 -1.17102e-20)
(0.00125781 -0.0689834 1.36519e-20)
(0.0616905 -0.07228 1.61326e-21)
(0.125335 -0.0757129 6.44678e-23)
(0.191049 -0.0792763 1.53585e-21)
(0.257886 -0.0829383 -5.39181e-21)
(0.325077 -0.0866447 3.88583e-21)
(0.39198 -0.0903245 2.1831e-20)
(0.458034 -0.0938959 -1.57737e-21)
(0.522712 -0.0972744 1.95538e-20)
(0.585495 -0.100382 6.53276e-21)
(0.585495 -0.100382 6.53276e-21)
(0.671857 -0.104223 1.3461e-21)
(0.726096 -0.106663 -8.70989e-21)
(0.776594 -0.10869 -8.38333e-22)
(0.823118 -0.11082 -2.56033e-22)
(0.86555 -0.112607 7.54929e-21)
(0.979139 -0.10813 0)
(1.11193 -0.109897 0)
(1.16598 -0.0995757 0)
(1.18153 -0.0911204 0)
(1.18309 -0.0824414 0)
(1.18038 -0.0743711 0)
(1.17656 -0.0670177 0)
(1.17242 -0.060227 0)
(1.16821 -0.0539508 0)
(1.16413 -0.0481261 0)
(1.16016 -0.0426977 0)
(1.15622 -0.0376162 0)
(1.15238 -0.0328566 0)
(1.14883 -0.0283685 0)
(1.14571 -0.0241297 0)
(1.14299 -0.0200782 0)
(1.14058 -0.0162006 0)
(1.1386 -0.0124616 0)
(1.13712 -0.00882631 0)
(1.13615 -0.00527136 0)
(1.13562 -0.00174348 0)
(0.998307 0.102197 0)
(1.13928 0.10723 0)
(1.19659 0.099015 0)
(1.20916 0.0903716 0)
(1.2058 0.0817736 0)
(1.19845 0.0735949 0)
(1.19077 0.0661688 0)
(1.18355 0.0594154 0)
(1.17699 0.0532003 0)
(1.17095 0.0474576 0)
(1.16543 0.042135 0)
(1.16039 0.0371575 0)
(1.15589 0.0325077 0)
(1.15189 0.0280998 0)
(1.14831 0.0239237 0)
(1.1451 0.0199221 0)
(1.14235 0.0160909 0)
(1.14021 0.0123877 0)
(1.13868 0.00878004 0)
(1.1376 0.00523561 0)
(1.13697 0.00173923 0)
(0.879903 0.103932 -8.11871e-21)
(0.835857 0.102242 -3.30271e-21)
(0.78798 0.0998531 6.70764e-21)
(0.736628 0.0970267 7.00767e-21)
(0.616618 0.0538029 -2.97991e-21)
(0.616618 0.0538029 -2.97991e-21)
(0.554697 0.0486598 -1.72156e-20)
(0.491477 0.0429743 -2.95839e-21)
(0.427386 0.0368353 -5.14851e-21)
(0.362796 0.0303286 -2.24004e-20)
(0.298062 0.0235397 -1.86877e-20)
(0.233562 0.0165578 1.33709e-20)
(0.169765 0.00944283 4.58956e-21)
(0.107279 0.00211871 -4.03224e-21)
(0.04689 -0.0048876 -1.48864e-20)
(-0.0104068 -0.0114912 4.5446e-21)
(-0.0634079 -0.0180612 1.02582e-21)
(-0.110748 -0.0243362 4.12796e-21)
(-0.150981 -0.0302096 -4.1503e-22)
(-0.182667 -0.035637 5.07598e-21)
(-0.204496 -0.0406015 1.64632e-21)
(-0.215485 -0.04512 -6.92804e-23)
)
;
    }
}


// ************************************************************************* //
