/*--------------------------------*- C++ -*----------------------------------*\
  =========                 |
  \\      /  F ield         | OpenFOAM: The Open Source CFD Toolbox
   \\    /   O peration     | Website:  https://openfoam.org
    \\  /    A nd           | Version:  7
     \\/     M anipulation  |
\*---------------------------------------------------------------------------*/
FoamFile
{
    version     2.0;
    format      ascii;
    class       volScalarField;
    location    "70";
    object      p;
}
// * * * * * * * * * * * * * * * * * * * * * * * * * * * * * * * * * * * * * //

dimensions      [0 2 -2 0 0 0 0];

internalField   nonuniform List<scalar> 
183
(
-0.109391
-0.152669
-0.113035
-0.157775
-0.116479
-0.162696
-0.119629
-0.167308
-0.122384
-0.17148
-0.124639
-0.175081
-0.126293
-0.177986
-0.127251
-0.180076
-0.12743
-0.181256
-0.126767
-0.181459
-0.125224
-0.180652
-0.122791
-0.178828
-0.119491
-0.176008
-0.11536
-0.172248
-0.110445
-0.167618
-0.104856
-0.162193
-0.0988316
-0.15607
-0.183689
-0.0925568
-0.149449
-0.17894
-0.0856389
-0.14248
-0.173526
-0.0773321
-0.134646
-0.167676
-0.0689827
-0.125377
-0.160414
-0.09525
-0.127448
-0.0555057
-0.0908188
-0.00241222
-0.0286472
0.0272004
0.0094673
0.0449434
0.0290844
0.0441895
0.0336726
0.042565
0.0343832
0.0388604
0.0333453
0.0349903
0.0315852
0.0313699
0.0295104
0.0282163
0.027472
0.0255746
0.0256339
0.0234114
0.0240545
0.0216709
0.0227354
0.0202906
0.0216565
0.0192121
0.0207907
0.018385
0.0201118
0.0177689
0.0195967
0.0173332
0.019227
0.017054
0.0189881
0.0169188
0.0188713
0.0212588
0.0212701
0.0212561
0.0212359
0.0212173
0.0212064
-0.0876871
-0.0695821
-0.0520481
-0.0319603
-0.0155045
-0.00371558
0.00486834
0.01064
0.0147881
0.0175645
0.0194642
0.0207094
0.021505
0.0219973
0.0222873
0.0224467
0.0225255
0.0225569
0.0225649
0.0225631
0.0225605
-0.0780913
-0.0581036
-0.0394552
-0.0208019
-0.00691437
0.00371197
0.0108587
0.0157377
0.0189936
0.021084
0.0224409
0.023265
0.023742
0.0239898
0.0240917
0.0241069
0.0240758
0.0240257
0.0239752
0.0239358
0.0239141
-0.0642553
-0.0765584
-0.0830467
-0.0641316
-0.0788854
-0.0856808
-0.0646082
-0.0814719
-0.0886386
-0.0650949
-0.0835913
-0.0916501
-0.0656868
-0.0857011
-0.0664437
-0.0879933
-0.0674005
-0.0904669
-0.0685834
-0.093128
-0.0700133
-0.0960152
-0.071706
-0.0991851
-0.0736745
-0.102786
-0.0759228
-0.107813
-0.0784295
-0.111848
-0.081181
-0.115515
-0.0841681
-0.119368
-0.0873775
-0.123459
-0.0907848
-0.127822
-0.0943559
-0.132454
-0.0980537
-0.137315
-0.101832
-0.142353
-0.105633
-0.147497
)
;

boundaryField
{
    inlet
    {
        type            zeroGradient;
    }
    outlet
    {
        type            fixedValue;
        value           nonuniform 0();
    }
    cylinder
    {
        type            zeroGradient;
    }
    top
    {
        type            symmetryPlane;
    }
    bottom
    {
        type            symmetryPlane;
    }
    defaultFaces
    {
        type            empty;
    }
    procBoundary36to35
    {
        type            processor;
        value           nonuniform List<scalar> 
87
(
-0.116612
-0.117867
-0.118651
-0.118903
-0.118578
-0.11765
-0.116116
-0.113995
-0.111326
-0.108168
-0.104594
-0.100687
-0.0965355
-0.0922333
-0.0878663
-0.08349
-0.0791476
-0.0750081
-0.0714284
-0.0683383
-0.0641836
-0.0497481
-0.0497481
-0.0164179
0.0127748
0.0274791
0.0357698
0.0369719
0.0353984
0.032759
0.0296262
0.0266372
0.0239764
0.0217266
0.0198804
0.0183956
0.0172189
0.0163003
0.0155965
0.0150721
0.0147013
0.0144638
0.0143489
0.0202117
0.0200701
0.0199546
0.0198687
0.0198108
0.0197823
-0.0737931
-0.0737931
-0.0629015
-0.0488284
-0.0311532
-0.0145603
-0.00249904
0.00617164
0.0116942
0.015472
0.0178265
0.0193264
0.0202368
0.0207631
0.0210537
0.0212
0.0212
-0.072771
-0.0747939
-0.0769889
-0.0790262
-0.0809709
-0.0828463
-0.0846857
-0.0865183
-0.0883737
-0.0902787
-0.0922565
-0.0943243
-0.0964919
-0.0987598
-0.101118
-0.103543
-0.105998
-0.108435
-0.11079
-0.112992
-0.114961
)
;
    }
    procBoundary36to37
    {
        type            processor;
        value           nonuniform List<scalar> 
86
(
-0.162977
-0.167381
-0.171683
-0.175831
-0.179764
-0.183412
-0.1867
-0.189544
-0.191862
-0.193571
-0.194595
-0.19487
-0.19434
-0.192968
-0.190733
-0.187634
-0.187634
-0.141589
-0.139209
-0.136462
-0.133361
-0.13004
-0.109718
-0.0749953
-0.0316157
-0.000922117
0.0142825
0.0201632
0.0230751
0.0247239
0.0253316
0.0252205
0.024733
0.0240764
0.0233754
0.0227008
0.0220889
0.0215581
0.0211156
0.0207635
0.0205016
0.0203279
0.0202414
-0.0590893
-0.0378004
-0.022462
-0.0063812
0.00356373
0.0123768
0.0178898
0.0218138
0.0240757
0.0253425
0.0259507
0.0261684
0.0261743
0.0260672
0.0259081
0.0257347
0.0255699
0.0254269
0.0253142
0.0252367
0.025198
-0.0686522
-0.0715582
-0.0741559
-0.0770896
-0.0947355
-0.0947355
-0.0979399
-0.101271
-0.104729
-0.108315
-0.112027
-0.115857
-0.119797
-0.123825
-0.127935
-0.132124
-0.136387
-0.140717
-0.145112
-0.149557
-0.154032
-0.158515
)
;
    }
}


// ************************************************************************* //
