/*--------------------------------*- C++ -*----------------------------------*\
  =========                 |
  \\      /  F ield         | OpenFOAM: The Open Source CFD Toolbox
   \\    /   O peration     | Website:  https://openfoam.org
    \\  /    A nd           | Version:  7
     \\/     M anipulation  |
\*---------------------------------------------------------------------------*/
FoamFile
{
    version     2.0;
    format      ascii;
    class       volScalarField;
    location    "25";
    object      p;
}
// * * * * * * * * * * * * * * * * * * * * * * * * * * * * * * * * * * * * * //

dimensions      [0 2 -2 0 0 0 0];

internalField   nonuniform List<scalar> 
36
(
-0.473679
-0.499316
-0.452962
-0.470678
-0.434605
-0.401086
-0.445657
-0.407718
-0.368182
-0.32802
-0.317849
-0.273566
-0.23236
-0.1953
-0.317849
-0.273566
-0.23236
-0.1953
-0.445657
-0.407718
-0.368182
-0.32802
-0.470678
-0.434605
-0.401086
-0.499316
-0.452962
-0.473679
-0.0113802
-0.00665074
-0.00327216
-0.00105908
5.33893e-05
-0.00327219
-0.00105911
5.33603e-05
)
;

boundaryField
{
    inlet
    {
        type            zeroGradient;
    }
    outlet
    {
        type            fixedValue;
        value           nonuniform 0();
    }
    cylinder
    {
        type            zeroGradient;
    }
    top
    {
        type            symmetryPlane;
    }
    bottom
    {
        type            symmetryPlane;
    }
    defaultFaces
    {
        type            empty;
    }
    procBoundary26to24
    {
        type            processor;
        value           nonuniform List<scalar> 8(-0.451803 -0.300349 -0.252324 -0.209071 -0.300349 -0.252324 -0.209071 -0.451803);
    }
    procBoundary26to25
    {
        type            processor;
        value           nonuniform List<scalar> 
24
(
-0.522817
-0.522817
-0.485369
-0.485369
-0.408968
-0.363626
-0.363626
-0.17129
-0.17129
-0.408968
-0.363626
-0.363626
-0.485369
-0.485369
-0.522817
-0.522817
-0.00269935
0.00148295
0.00446369
0.00640305
0.00734805
0.00446366
0.00640302
0.00734802
)
;
    }
    procBoundary26to27
    {
        type            processor;
        value           nonuniform List<scalar> 
26
(
-0.447362
-0.433796
-0.433796
-0.420666
-0.420666
-0.391107
-0.366825
-0.366825
-0.288294
-0.288294
-0.250183
-0.162266
-0.288294
-0.250183
-0.162266
-0.366825
-0.288294
-0.420666
-0.366825
-0.391107
-0.420666
-0.433796
-0.433796
-0.447362
-0.0177187
-0.00665077
)
;
    }
    procBoundary26to28
    {
        type            processor;
        value           nonuniform List<scalar> 
12
(
-0.33207
-0.214877
-0.214877
-0.33207
-0.0195806
-0.0143427
-0.0105973
-0.00813723
-0.00687464
-0.0105974
-0.00813726
-0.00687466
)
;
    }
}


// ************************************************************************* //
