/*--------------------------------*- C++ -*----------------------------------*\
  =========                 |
  \\      /  F ield         | OpenFOAM: The Open Source CFD Toolbox
   \\    /   O peration     | Website:  https://openfoam.org
    \\  /    A nd           | Version:  7
     \\/     M anipulation  |
\*---------------------------------------------------------------------------*/
FoamFile
{
    version     2.0;
    format      ascii;
    class       surfaceScalarField;
    location    "20";
    object      phi;
}
// * * * * * * * * * * * * * * * * * * * * * * * * * * * * * * * * * * * * * //

dimensions      [0 3 -1 0 0 0 0];

internalField   nonuniform List<scalar> 
272
(
0.000842948
-0.00488809
0.000839226
-0.00503336
0.000834646
-0.00518661
0.000829168
-0.00534705
-0.00551304
0.000822806
0.000320958
-0.00206272
0.000434689
-0.00259566
0.000533382
-0.00304225
0.000610589
-0.00339465
0.000665334
-0.00366183
0.00070039
-0.00386253
0.00072022
-0.00401802
0.00072935
-0.00414706
0.000731454
-0.0042637
0.000729081
-0.00437718
0.000723795
-0.00449295
0.000716472
0.000707586
0.000697404
0.000686085
0.000673696
0.000660209
0.00064568
2.89125e-05
-0.0003068
0.000100494
-0.000933593
0.000199074
-0.00156955
0.000307151
-0.0021708
0.000408904
-0.00269741
0.000493457
-0.0031268
0.000556027
-0.00345722
0.000596984
-0.00370279
0.000619835
0.000629184
0.000629297
0.00062341
0.000613641
2.88463e-05
-0.000335646
9.84103e-05
-0.00100316
0.000191554
-0.00166269
0.000290338
-0.00226958
0.000379706
0.000450291
0.000498877
2.84638e-05
9.52557e-05
0.000182066
2.8489e-05
0.000336104
9.53127e-05
0.00100434
0.000182124
0.00166439
0.00227151
2.88752e-05
0.000307229
9.84834e-05
0.000934736
0.000191649
0.00157122
0.000290406
0.00217275
0.000379697
0.00269939
0.000450169
0.00312863
0.000498629
0.0034588
0.000526589
0.00370413
0.00388655
2.89443e-05
0.000100581
0.000199202
0.000307274
0.000408971
0.00259769
0.000493427
0.00304417
0.00055588
0.00339634
0.000596724
0.00366328
0.000619479
0.00386379
0.000628759
0.00401916
0.000628827
0.00414817
0.000622919
0.00426485
0.000613146
0.00437842
0.000600731
0.00449432
0.00461555
0.000434831
0.000533444
0.000610545
0.000665182
0.000700144
0.000719906
0.000728995
0.000731083
0.000728715
0.000723453
0.000716172
0.000707344
0.000697239
0.00488991
0.000686019
0.00503535
0.000673755
0.00518878
0.00066042
0.0053494
0.00551553
0.00064607
0.000842942
0.00083933
0.000834885
0.000829567
0.00082339
0.000682744
-0.0211617
0.000571246
-0.0208085
0.000483575
-0.0207348
0.000412513
-0.0206061
0.000351846
-0.0205081
0.000302568
-0.0204428
0.000260258
-0.0203606
0.00022306
-0.0202727
0.000191458
-0.0202056
0.000166072
-0.0201624
0.000143793
-0.0200898
0.000123089
-0.0200121
0.000104065
-0.0199441
8.67104e-05
-0.0198922
7.16262e-05
-0.0198503
5.88967e-05
-0.0198252
4.57331e-05
-0.0197616
3.30885e-05
-0.0197384
2.08992e-05
-0.0197063
1.16124e-05
-0.0197244
-0.0196825
0.000510669
0.000407473
0.000326536
0.000264258
0.000211738
0.00017149
0.000138219
0.000109769
8.67843e-05
7.05866e-05
5.76079e-05
4.57599e-05
3.5534e-05
2.66369e-05
2.02615e-05
1.64622e-05
1.19305e-05
7.61674e-06
3.58922e-06
3.44488e-06
0.000511945
0.0211719
0.000410038
0.0208191
0.000330415
0.0207508
0.000268996
0.0206021
0.000218803
0.0205233
0.000178557
0.0204295
0.00014326
0.0203332
0.000114511
0.0202492
9.16144e-05
0.0201966
6.98562e-05
0.0200814
5.37028e-05
0.0200503
3.86288e-05
0.0199619
2.71981e-05
0.0199323
1.97652e-05
0.0198914
1.42269e-05
0.0198554
9.74874e-06
0.0198101
4.89157e-06
0.0197662
1.92763e-06
0.0197523
1.87536e-06
0.0197553
1.60342e-06
0.0197361
0.0197109
0.000684172
0.000573879
0.000487409
0.000417086
0.000358372
0.000308861
0.00026489
0.000227234
0.000195316
0.000164987
0.000140007
0.00011639
9.65925e-05
8.0112e-05
6.58238e-05
5.24993e-05
3.93861e-05
2.80185e-05
1.89404e-05
9.939e-06
)
;

boundaryField
{
    inlet
    {
        type            calculated;
        value           nonuniform 0();
    }
    outlet
    {
        type            calculated;
        value           nonuniform 0();
    }
    cylinder
    {
        type            calculated;
        value           uniform 0;
    }
    top
    {
        type            symmetryPlane;
        value           uniform 0;
    }
    bottom
    {
        type            symmetryPlane;
        value           uniform 0;
    }
    defaultFaces
    {
        type            empty;
        value           nonuniform 0();
    }
    procBoundary16to15
    {
        type            processor;
        value           nonuniform List<scalar> 
90
(
-0.00461401
-0.00474203
-0.00487791
-0.00502204
-0.00517422
-0.00533356
-0.00549851
-0.00388538
-0.00402737
-0.00414717
-0.00425782
-0.00436741
0.000601213
-0.00448052
-0.00278678
-0.00319739
-0.0035058
0.000526955
-0.00373086
-0.00036411
-0.00106995
-0.0017495
0.000270881
-0.0023584
-0.000364593
-0.00107117
-0.0017512
-0.00236028
0.000270891
-0.00278868
-0.0031991
-0.00350726
-0.00373209
-0.00389803
0.000538075
-0.00402844
-0.00414824
-0.00425895
-0.00436865
-0.00448191
-0.00460113
0.00058632
-0.00474374
-0.00487981
-0.00502413
-0.00517652
-0.00533606
-0.00550118
-0.0210267
-0.0207053
-0.0206539
-0.0205438
-0.0204555
-0.0204026
-0.0203273
-0.0202443
-0.0201826
-0.0201462
-0.0200768
-0.0200003
-0.0199339
-0.0198833
-0.0198439
-0.0198214
-0.0197571
-0.0197341
-0.0197023
-0.0197243
-0.0196791
-0.0210378
-0.0207172
-0.0206712
-0.0205407
-0.0204731
-0.0203892
-0.0202979
-0.0202205
-0.0201737
-0.0200596
-0.0200342
-0.0199468
-0.0199209
-0.019884
-0.0198498
-0.0198056
-0.0197613
-0.0197493
-0.0197553
-0.0197358
-0.0197093
)
;
    }
    procBoundary16to17
    {
        type            processor;
        value           nonuniform List<scalar> 
88
(
0.00489088
0.00503708
0.00519119
0.00535253
0.0055194
0.00194623
0.00248192
0.00294356
0.00331744
0.00360708
0.00382748
0.00399819
0.00413793
0.0042616
0.00437955
0.00449823
0.00462134
-0.000845735
0.00475092
0.000277887
0.000862012
-0.000204463
0.00147097
0.000278285
0.000863099
0.0014726
0.00206468
-0.000321134
0.002484
0.00294556
0.00331924
0.00360865
0.00382883
0.0039994
0.00413908
0.00426277
0.00438079
0.00449958
0.00462283
0.00475256
-0.000845641
0.00489261
0.00503897
0.00519323
0.00535472
0.00552171
0.0213018
0.02092
0.0208225
0.0206771
0.0205687
0.0204921
0.0204029
0.0203099
0.0202372
0.0201878
0.0201121
0.0200328
0.0199632
0.0199096
0.0198654
0.0198379
0.0197748
0.019751
0.0197185
0.0197337
0.0196941
0.0213112
0.0209294
0.0208373
0.0206724
0.020582
0.020479
0.0203771
0.0202869
0.0202286
0.0201117
0.0200753
0.0199855
0.0199521
0.0199079
0.0198697
0.0198234
0.0197793
0.0197636
0.0197644
0.0197451
0.0197208
)
;
    }
}


// ************************************************************************* //
