/*--------------------------------*- C++ -*----------------------------------*\
  =========                 |
  \\      /  F ield         | OpenFOAM: The Open Source CFD Toolbox
   \\    /   O peration     | Website:  https://openfoam.org
    \\  /    A nd           | Version:  7
     \\/     M anipulation  |
\*---------------------------------------------------------------------------*/
FoamFile
{
    version     2.0;
    format      ascii;
    class       volScalarField;
    location    "60";
    object      p;
}
// * * * * * * * * * * * * * * * * * * * * * * * * * * * * * * * * * * * * * //

dimensions      [0 2 -2 0 0 0 0];

internalField   nonuniform List<scalar> 
183
(
-0.0526175
-0.045078
-0.0553314
-0.0456226
-0.036406
-0.0581812
-0.0469937
-0.0371848
-0.049375
-0.0377115
-0.0534306
-0.0394918
-0.0273794
-0.0430386
-0.0284298
-0.0158544
-0.0314387
-0.0160967
-0.0377291
-0.0185708
-0.00241053
-0.0248384
-0.00440182
0.0126871
0.0110772
0.0292197
0.0278874
0.0471776
0.0461727
0.0665472
0.0664457
0.0874075
0.10503
0.0899561
0.110155
0.12827
0.135838
0.153265
0.166483
0.180867
0.195501
0.212796
0.224741
0.252507
0.257651
0.267169
0.297389
0.300736
0.348213
0.340161
0.341753
0.389683
0.38052
0.428388
0.418177
0.464052
0.452866
0.496419
0.484341
0.525257
0.550362
0.571555
0.588685
0.601632
0.610304
0.614642
0.614616
0.610228
0.601513
0.588533
0.571386
0.550196
0.525119
0.496337
0.484394
0.46406
0.453025
0.428526
0.418479
0.389993
0.381008
0.348744
0.340882
0.342849
0.298395
0.302134
0.253856
0.259405
0.269506
0.214964
0.227509
0.169128
0.184122
0.199455
0.139644
0.157779
0.0943775
0.115289
0.134111
0.0722625
0.0939322
0.112199
0.0534404
0.0744539
0.0365876
0.0564171
0.0211494
0.0397203
0.0069593
0.0243637
-0.00601763
0.0103468
-0.017801
-0.00236367
-0.0284336
-0.0138365
-0.0013283
-0.0379857
-0.0241646
-0.0122193
-0.0334506
-0.0220547
-0.0418056
-0.0309867
-0.0215837
-0.0391252
-0.0299197
-0.0212365
-0.0369549
-0.0299907
-0.0419289
-0.0475797
-0.0365674
-0.0326997
-0.0250785
-0.021812
-0.0178471
-0.0116069
-0.00766528
-0.00698795
-0.00551224
-0.0014982
0.00189611
0.00455586
0.00579507
0.00606628
0.00821033
0.0113048
0.0113234
0.0100474
0.012654
0.0123454
0.0122089
0.0106688
0.0135968
0.0110863
0.0111238
0.0129576
0.0150134
0.0143989
0.0127178
0.0131857
0.0157286
-0.0280374
-0.0362146
-0.0265984
-0.0244818
-0.0198638
-0.015768
-0.00855176
-0.00449408
-0.00124645
0.00321042
0.00591822
0.00877607
0.0107362
0.010005
0.0103486
0.0121077
0.0139681
0.0135229
0.0121973
0.0126514
)
;

boundaryField
{
    inlet
    {
        type            zeroGradient;
    }
    outlet
    {
        type            fixedValue;
        value           nonuniform 0();
    }
    cylinder
    {
        type            zeroGradient;
    }
    top
    {
        type            symmetryPlane;
    }
    bottom
    {
        type            symmetryPlane;
    }
    defaultFaces
    {
        type            empty;
    }
    procBoundary10to9
    {
        type            processor;
        value           nonuniform List<scalar> 
144
(
-0.029754
-0.0282848
-0.029754
-0.0198025
-0.0275283
-0.0282848
-0.0186594
-0.0275283
-0.0168435
-0.0168435
-0.00501261
-0.00302555
-0.00501261
0.00811824
-0.00302555
0.0112047
0.0112047
0.0269188
0.0269188
0.0441676
0.0441676
0.0629603
0.0629603
0.0832647
0.0832647
0.119138
0.143111
0.143111
0.16851
0.16851
0.207882
0.236594
0.236594
0.276279
0.307867
0.307867
0.346566
0.380419
0.380419
0.416467
0.449651
0.479741
0.51238
0.51238
0.536785
0.557385
0.574036
0.586622
0.595054
0.599276
0.59926
0.595007
0.58655
0.573951
0.557301
0.536722
0.512361
0.512361
0.480069
0.450114
0.4171
0.381261
0.381261
0.348197
0.309826
0.309826
0.279275
0.240042
0.240042
0.212523
0.173725
0.173725
0.149596
0.149596
0.126863
0.0917226
0.0917226
0.0726468
0.0726468
0.0550089
0.0550089
0.0388312
0.0388312
0.0240952
0.0240952
0.01074
0.01074
0.0218609
0.00939732
0.00939732
-0.00189455
-0.00189455
-0.0121796
-0.0121796
-0.00365614
-0.0131264
-0.0131264
-0.00511874
-0.0151007
-0.0151007
-0.0292753
-0.0391249
-0.0304145
-0.0276966
-0.0210008
-0.0186826
-0.0156009
-0.00946106
-0.0055755
-0.00550609
-0.00458849
-0.000576245
0.0029524
0.00567796
0.00673673
0.00671723
0.00891855
0.00891855
0.0134009
0.013103
0.0112806
0.0145487
0.0121887
0.0118932
0.0137804
0.0160779
0.0152976
0.0132304
0.0137037
0.0166487
-0.0156677
-0.027963
-0.0204559
-0.0194022
-0.0161428
-0.0129531
-0.00597307
-0.00219093
0.000595825
0.00489407
0.00748804
0.010305
0.0122255
0.0122255
)
;
    }
    procBoundary10to11
    {
        type            processor;
        value           nonuniform List<scalar> 
123
(
-0.0683882
-0.0599882
-0.0730268
-0.0625435
-0.0625435
-0.0781731
-0.0660356
-0.0660356
-0.0709109
-0.0709109
-0.0779208
-0.0626931
-0.0626931
-0.0694996
-0.0694996
-0.060029
-0.060029
-0.0705917
-0.0494513
-0.0494513
-0.0603752
-0.0603752
-0.0490729
-0.0107261
-0.0107261
0.00481536
0.00481536
0.022416
0.022416
0.0435261
0.0435261
0.0707739
0.119032
0.119032
0.157708
0.205835
0.205835
0.258188
0.304276
0.304276
0.305082
0.305082
0.259329
0.20759
0.20759
0.159936
0.122223
0.122223
0.0745839
0.0486348
0.0486348
0.0289833
0.0289833
0.0128891
0.0128891
-0.00117429
-0.00117429
-0.0138803
-0.0138803
-0.0254596
-0.0254596
-0.0359796
-0.0359796
-0.0454748
-0.0454748
-0.0539923
-0.0539923
-0.0615991
-0.0465454
-0.0465454
-0.0542068
-0.0542068
-0.0610661
-0.0493611
-0.0493611
-0.0562073
-0.0462888
-0.0462888
-0.0522268
-0.0444611
-0.0542077
-0.0556788
-0.0424765
-0.0374546
-0.0289506
-0.0248382
-0.0200549
-0.0137133
-0.00970325
-0.00844031
-0.00644346
-0.00242279
0.000838876
0.00346236
0.00486133
0.00540629
0.00748241
0.0102817
0.010442
0.00941795
0.0117204
0.0148311
-0.04003
-0.0441318
-0.0324887
-0.0293099
-0.0234322
-0.0185215
-0.0110875
-0.00677757
-0.00310174
0.00149921
0.00433229
0.00724291
0.0092655
0.008927
0.00956075
0.0112429
0.0129436
0.0126614
0.0116655
0.0148311
0.0121071
)
;
    }
}


// ************************************************************************* //
