/*--------------------------------*- C++ -*----------------------------------*\
  =========                 |
  \\      /  F ield         | OpenFOAM: The Open Source CFD Toolbox
   \\    /   O peration     | Website:  https://openfoam.org
    \\  /    A nd           | Version:  7
     \\/     M anipulation  |
\*---------------------------------------------------------------------------*/
FoamFile
{
    version     2.0;
    format      ascii;
    class       volVectorField;
    location    "60";
    object      U;
}
// * * * * * * * * * * * * * * * * * * * * * * * * * * * * * * * * * * * * * //

dimensions      [0 1 -1 0 0 0 0];

internalField   nonuniform List<vector> 
183
(
(1.0994 0.273923 -3.28339e-20)
(1.09685 0.259084 4.91081e-21)
(1.08802 0.308781 -4.39782e-20)
(1.08617 0.291864 1.27761e-20)
(1.08414 0.277013 -1.63326e-20)
(1.07485 0.350644 2.04519e-20)
(1.07218 0.330653 1.00042e-20)
(1.07051 0.311848 1.97747e-21)
(1.05746 0.375613 -3.5194e-20)
(1.05498 0.353767 -1.56959e-20)
(1.04045 0.427543 -2.9716e-20)
(1.03794 0.401981 6.68743e-20)
(1.03602 0.378121 -2.60083e-20)
(1.01735 0.457667 -7.61026e-20)
(1.0158 0.429715 -9.32386e-22)
(1.01477 0.40369 -8.97886e-21)
(0.990876 0.489325 -6.08559e-20)
(0.990594 0.458788 3.19514e-20)
(0.959097 0.557976 2.67947e-21)
(0.96048 0.522423 1.69892e-22)
(0.961857 0.489151 1.47837e-20)
(0.920865 0.594365 3.12406e-21)
(0.925419 0.556661 1.39863e-20)
(0.92905 0.520683 6.75068e-21)
(0.884555 0.591221 -6.23174e-21)
(0.891468 0.553075 1.01274e-20)
(0.835963 0.624096 7.85097e-21)
(0.84806 0.585528 -2.15073e-20)
(0.776383 0.650867 7.73834e-20)
(0.797083 0.616113 -1.12221e-20)
(0.70073 0.662967 3.71647e-20)
(0.735604 0.640576 -1.91326e-20)
(0.758348 0.605264 -3.38175e-20)
(0.602186 0.645934 -4.60473e-20)
(0.659093 0.650628 5.82486e-21)
(0.695077 0.627108 -6.56046e-20)
(0.561579 0.632228 1.2062e-19)
(0.617786 0.634812 -5.72654e-20)
(0.436951 0.565064 -1.57428e-19)
(0.521343 0.614845 5.16316e-20)
(0.577121 0.615579 -1.40467e-20)
(0.400817 0.547701 2.6447e-20)
(0.48182 0.593864 3.91724e-20)
(0.255421 0.409413 2.22484e-19)
(0.3654 0.526818 -5.26585e-20)
(0.443337 0.569389 1.40346e-19)
(0.228615 0.391992 -5.96102e-20)
(0.331027 0.502529 -9.59808e-20)
(0.0832288 0.16734 6.16925e-20)
(0.2027 0.37176 3.66524e-19)
(0.298012 0.474978 1.16746e-19)
(0.0720087 0.157655 6.07719e-20)
(0.177942 0.348848 7.45811e-20)
(0.0613515 0.14669 -3.02416e-19)
(0.154592 0.323409 1.76792e-19)
(0.0513821 0.134529 2.46629e-19)
(0.132886 0.295617 6.7553e-20)
(0.0422167 0.121262 -3.67406e-20)
(0.11304 0.265667 -1.12571e-19)
(0.0339612 0.106995 2.49148e-19)
(0.0267107 0.0918396 -2.38829e-19)
(0.0205482 0.0759195 5.90152e-21)
(0.0155441 0.059364 -6.39851e-20)
(0.0117552 0.0423093 1.05631e-19)
(0.00922465 0.0248963 -5.23909e-20)
(0.00798114 0.00726946 -3.73563e-21)
(0.00803881 -0.0104246 1.16717e-21)
(0.00939707 -0.0280385 -3.35566e-20)
(0.0120406 -0.0454258 -9.6528e-20)
(0.0159395 -0.062442 3.1012e-20)
(0.0210496 -0.0789462 1.2825e-19)
(0.0273127 -0.0948025 -2.33194e-20)
(0.0346573 -0.109881 1.14251e-19)
(0.0429989 -0.12406 -7.9298e-20)
(0.115072 -0.273247 2.73689e-20)
(0.0522414 -0.137226 1.85788e-19)
(0.135142 -0.303009 -1.1269e-19)
(0.0622774 -0.149275 -1.84605e-19)
(0.157053 -0.330589 -1.95809e-19)
(0.0729895 -0.160116 2.52068e-19)
(0.180587 -0.355794 -3.9296e-19)
(0.0842512 -0.169667 -3.86226e-19)
(0.205506 -0.378451 1.77597e-19)
(0.302071 -0.484968 -1.81843e-19)
(0.231556 -0.398406 -1.83811e-19)
(0.335321 -0.512214 2.89032e-19)
(0.258468 -0.415532 1.96643e-21)
(0.369898 -0.536174 -2.42306e-19)
(0.448706 -0.58077 -5.69206e-20)
(0.405486 -0.556708 2.01983e-19)
(0.487437 -0.604917 -2.25554e-19)
(0.441753 -0.573701 -4.18566e-20)
(0.527173 -0.625551 1.3131e-21)
(0.583425 -0.627325 5.15565e-20)
(0.567584 -0.64257 8.05772e-20)
(0.624322 -0.646242 1.0137e-19)
(0.608325 -0.655897 -6.27809e-20)
(0.665828 -0.661729 -1.88254e-19)
(0.701967 -0.638622 5.6401e-20)
(0.707625 -0.673729 1.7019e-20)
(0.742698 -0.651806 -3.44039e-20)
(0.765372 -0.616529 6.25552e-23)
(0.783647 -0.661807 -2.28212e-20)
(0.804305 -0.627136 7.64846e-20)
(0.843354 -0.634879 -4.6275e-20)
(0.855295 -0.59621 2.54169e-20)
(0.891954 -0.601708 -1.41772e-20)
(0.89868 -0.563387 2.42427e-21)
(0.93279 -0.566818 8.69664e-21)
(0.936243 -0.530641 -1.28389e-20)
(0.967831 -0.532263 9.66797e-21)
(0.969057 -0.498779 4.14699e-21)
(0.998239 -0.498873 1.87943e-20)
(0.997836 -0.468108 2.29015e-20)
(1.02477 -0.466942 2.29322e-20)
(1.02313 -0.438741 -9.01284e-21)
(1.02201 -0.412433 -6.21194e-21)
(1.04798 -0.43656 3.54718e-20)
(1.0454 -0.41072 -3.47034e-20)
(1.04343 -0.386546 9.05559e-21)
(1.06513 -0.384068 3.41259e-20)
(1.06264 -0.361876 1.48536e-20)
(1.08282 -0.35882 -2.44543e-20)
(1.08022 -0.338465 2.47356e-20)
(1.07869 -0.319293 2.45562e-20)
(1.09659 -0.316331 2.94088e-22)
(1.09499 -0.29907 -9.32411e-21)
(1.09328 -0.283901 3.71453e-20)
(1.10891 -0.280925 -3.12803e-20)
(1.10663 -0.265804 1.71639e-20)
(1.10102 0.203195 6.41481e-21)
(1.09897 0.18919 -4.93729e-21)
(1.09839 0.148984 -2.94545e-21)
(1.09594 0.132037 4.49288e-21)
(1.09093 0.110201 -1.25831e-21)
(1.0906 0.0942617 -3.63594e-21)
(1.08683 0.0848021 2.26024e-21)
(1.08019 0.0736492 -9.45813e-22)
(1.07755 0.0615351 -6.9479e-22)
(1.07696 0.0534928 -8.47246e-22)
(1.07457 0.0491442 -4.19121e-22)
(1.06938 0.0446915 1.33854e-23)
(1.06477 0.0373237 1.43962e-22)
(1.06271 0.0329125 -6.72252e-23)
(1.05901 0.0258708 3.30189e-22)
(1.06027 0.0227851 8.44818e-23)
(1.05525 0.0203587 -4.34747e-22)
(1.0529 0.0151148 3.3616e-22)
(1.05139 0.00868494 -3.37554e-22)
(1.05432 0.00566355 -2.18673e-22)
(1.04975 0.0050458 9.57676e-22)
(1.0518 0.0155052 -4.37522e-22)
(1.05041 0.00854078 7.88183e-22)
(1.05371 0.00578068 -1.89048e-22)
(1.04871 0.00542541 -4.03441e-22)
(1.06089 -0.0262542 -1.813e-21)
(1.06099 -0.0228118 1.33687e-21)
(1.05601 -0.0204888 5.32376e-24)
(1.05411 -0.0145608 -1.25952e-21)
(1.05305 -0.00970934 -8.94997e-23)
(1.05527 -0.00643074 -1.01522e-21)
(1.05395 -0.00662399 4.88229e-22)
(1.05052 -0.00281839 -1.53588e-21)
(1.11109 -0.209579 -4.47023e-21)
(1.11058 -0.193703 3.59495e-21)
(1.1107 -0.153456 2.18138e-21)
(1.10671 -0.133436 -1.13441e-21)
(1.10458 -0.112174 -8.44038e-22)
(1.09872 -0.0994269 2.51347e-21)
(1.09064 -0.0860783 -1.15907e-21)
(1.08577 -0.0709728 5.03659e-22)
(1.08233 -0.0642227 2.18388e-22)
(1.07407 -0.0541682 -1.68587e-22)
(1.07225 -0.0456141 -4.97989e-22)
(1.06566 -0.0400628 3.03505e-22)
(1.06385 -0.0308276 -8.06999e-22)
(1.06188 -0.0261661 5.83634e-22)
(1.06163 -0.0225121 -6.07552e-22)
(1.05681 -0.0199698 6.81764e-23)
(1.0551 -0.0143181 5.78048e-22)
(1.0539 -0.00984692 2.44575e-22)
(1.05574 -0.00653409 -4.38526e-22)
(1.05445 -0.0062931 1.1311e-23)
)
;

boundaryField
{
    inlet
    {
        type            uniformFixedValue;
        uniformValue    constant (1 0 0);
        value           nonuniform 0();
    }
    outlet
    {
        type            pressureInletOutletVelocity;
        value           nonuniform 0();
    }
    cylinder
    {
        type            fixedValue;
        value           uniform (0 0 0);
    }
    top
    {
        type            symmetryPlane;
    }
    bottom
    {
        type            symmetryPlane;
    }
    defaultFaces
    {
        type            empty;
    }
    procBoundary10to9
    {
        type            processor;
        value           nonuniform List<vector> 
144
(
(1.0826 0.26167 -9.34137e-21)
(1.06953 0.294506 -2.66551e-20)
(1.0826 0.26167 -9.34137e-21)
(1.06838 0.279315 -6.17217e-21)
(1.05329 0.333286 1.90322e-21)
(1.06953 0.294506 -2.66551e-20)
(1.05252 0.314031 -3.26428e-20)
(1.05329 0.333286 1.90322e-21)
(1.03469 0.355828 -1.0154e-20)
(1.03469 0.355828 -1.0154e-20)
(1.0142 0.37943 1.0761e-20)
(0.990735 0.43042 1.54949e-20)
(1.0142 0.37943 1.0761e-20)
(0.991251 0.404047 -1.69331e-20)
(0.990735 0.43042 1.54949e-20)
(0.963482 0.458258 -1.11078e-20)
(0.963482 0.458258 -1.11078e-20)
(0.932553 0.487124 5.65021e-20)
(0.932553 0.487124 5.65021e-20)
(0.897423 0.516873 5.90691e-21)
(0.897423 0.516873 5.90691e-21)
(0.857425 0.547178 4.03601e-21)
(0.857425 0.547178 4.03601e-21)
(0.811591 0.577261 -8.11885e-20)
(0.811591 0.577261 -8.11885e-20)
(0.775361 0.566411 1.12989e-20)
(0.72 0.591562 -1.16923e-19)
(0.72 0.591562 -1.16923e-19)
(0.655078 0.610497 1.27109e-19)
(0.655078 0.610497 1.27109e-19)
(0.615879 0.590801 1.98925e-20)
(0.537402 0.593009 -1.9126e-19)
(0.537402 0.593009 -1.9126e-19)
(0.49892 0.567207 1.09493e-19)
(0.406206 0.541548 2.58392e-19)
(0.406206 0.541548 2.58392e-19)
(0.370728 0.510492 -1.96701e-19)
(0.266654 0.444329 -1.17481e-19)
(0.266654 0.444329 -1.17481e-19)
(0.23723 0.410773 1.94614e-19)
(0.209999 0.374521 3.09067e-19)
(0.185198 0.335802 -1.53858e-19)
(0.0952488 0.233769 2.56402e-19)
(0.0952488 0.233769 2.56402e-19)
(0.0796878 0.200152 -2.86606e-19)
(0.0665086 0.165058 2.46661e-19)
(0.0558392 0.128741 -1.28009e-19)
(0.0477827 0.0914645 7.70507e-20)
(0.0424169 0.0535009 4.26026e-20)
(0.0397939 0.0151276 4.03861e-21)
(0.0399389 -0.0233747 2.44176e-20)
(0.0428512 -0.0617242 -4.21807e-21)
(0.048503 -0.0996398 -4.98875e-20)
(0.0568405 -0.136844 -1.51984e-19)
(0.0677838 -0.173066 2.05436e-19)
(0.0812276 -0.208041 -4.06025e-19)
(0.0970417 -0.241515 1.70111e-19)
(0.0970417 -0.241515 1.70111e-19)
(0.188062 -0.346776 -1.04395e-19)
(0.213194 -0.385286 -4.8781e-20)
(0.240736 -0.421305 2.37243e-19)
(0.270449 -0.454602 -2.08998e-19)
(0.270449 -0.454602 -2.08998e-19)
(0.375511 -0.52247 -4.58717e-19)
(0.411297 -0.553238 1.72471e-19)
(0.411297 -0.553238 1.72471e-19)
(0.504665 -0.579546 1.58632e-19)
(0.543441 -0.605059 -1.50999e-19)
(0.543441 -0.605059 -1.50999e-19)
(0.622272 -0.602865 -2.3435e-19)
(0.661734 -0.622291 8.60511e-20)
(0.661734 -0.622291 8.60511e-20)
(0.7268 -0.603068 -1.03468e-19)
(0.7268 -0.603068 -1.03468e-19)
(0.782197 -0.577502 -4.75276e-20)
(0.818639 -0.588145 1.17798e-19)
(0.818639 -0.588145 1.17798e-19)
(0.864459 -0.557657 6.56417e-21)
(0.864459 -0.557657 6.56417e-21)
(0.904443 -0.526962 -4.38522e-20)
(0.904443 -0.526962 -4.38522e-20)
(0.939578 -0.496851 4.40115e-20)
(0.939578 -0.496851 4.40115e-20)
(0.970539 -0.467645 -1.94072e-20)
(0.970539 -0.467645 -1.94072e-20)
(0.997861 -0.439483 1.74933e-20)
(0.997861 -0.439483 1.74933e-20)
(0.998259 -0.412822 2.74653e-20)
(1.02134 -0.387856 7.36452e-21)
(1.02134 -0.387856 7.36452e-21)
(1.04204 -0.363904 7.15541e-21)
(1.04204 -0.363904 7.15541e-21)
(1.06098 -0.341026 2.32441e-21)
(1.06098 -0.341026 2.32441e-21)
(1.06032 -0.321398 1.18194e-20)
(1.07797 -0.301605 1.19897e-20)
(1.07797 -0.301605 1.19897e-20)
(1.07715 -0.286104 3.162e-21)
(1.09204 -0.268297 6.17914e-21)
(1.09204 -0.268297 6.17914e-21)
(1.09006 0.204582 -6.46788e-23)
(1.09162 0.191166 -4.91817e-21)
(1.0926 0.151532 -4.28048e-22)
(1.09141 0.134029 2.21021e-21)
(1.08704 0.111991 -9.14912e-22)
(1.08769 0.0953023 -4.5804e-21)
(1.08476 0.0861028 -1.5216e-22)
(1.07806 0.0750471 3.23848e-21)
(1.07548 0.0622328 -1.26914e-21)
(1.07553 0.0537411 -3.21861e-22)
(1.07368 0.049704 -2.20132e-22)
(1.06843 0.0455627 -2.61337e-22)
(1.06365 0.0380092 3.22935e-22)
(1.06158 0.0334164 3.48022e-22)
(1.05798 0.0260344 -7.77666e-22)
(1.05963 0.0230192 -9.6247e-24)
(1.05447 0.0209585 7.36412e-22)
(1.05447 0.0209585 7.36412e-22)
(1.05069 0.0159273 3.26421e-23)
(1.04942 0.00835279 1.34473e-21)
(1.05311 0.00590235 1.48305e-22)
(1.04766 0.00584598 -6.27217e-22)
(1.05989 -0.0262802 -1.42313e-21)
(1.06036 -0.0230864 1.80393e-21)
(1.05524 -0.0210456 -9.69222e-22)
(1.05311 -0.0148231 -1.37718e-21)
(1.05218 -0.00952408 -5.76872e-23)
(1.05481 -0.00628898 -1.33632e-21)
(1.05348 -0.00699602 -1.80835e-22)
(1.04961 -0.00312588 7.12594e-22)
(1.09978 -0.210949 -1.39758e-22)
(1.10287 -0.195687 3.36998e-21)
(1.10464 -0.156256 3.67579e-22)
(1.10188 -0.135436 -1.61364e-21)
(1.10105 -0.114025 6.39755e-22)
(1.0961 -0.101391 2.79888e-21)
(1.08817 -0.0881024 -5.54012e-22)
(1.08359 -0.0722711 -7.46343e-22)
(1.08072 -0.0655007 2.06287e-22)
(1.07246 -0.0553622 -3.06126e-22)
(1.07087 -0.0464928 8.23902e-22)
(1.06424 -0.0409152 3.58624e-22)
(1.0625 -0.0311851 -1.84526e-21)
(1.0625 -0.0311851 -1.84526e-21)
)
;
    }
    procBoundary10to11
    {
        type            processor;
        value           nonuniform List<vector> 
123
(
(1.11415 0.270076 3.83529e-20)
(1.11065 0.255803 -6.32672e-20)
(1.10501 0.304856 -6.37763e-20)
(1.10229 0.288403 3.18999e-20)
(1.10229 0.288403 3.18999e-20)
(1.09422 0.346506 -7.54146e-20)
(1.0906 0.327075 1.37677e-20)
(1.0906 0.327075 1.37677e-20)
(1.07842 0.371958 -1.02487e-19)
(1.07842 0.371958 -1.02487e-19)
(1.0646 0.423963 -6.60497e-20)
(1.06066 0.398972 2.39619e-20)
(1.06066 0.398972 2.39619e-20)
(1.04363 0.454954 -4.82633e-20)
(1.04363 0.454954 -4.82633e-20)
(1.01947 0.487704 -4.22638e-20)
(1.01947 0.487704 -4.22638e-20)
(0.99232 0.557072 1.07626e-19)
(0.991555 0.522141 4.2523e-21)
(0.991555 0.522141 4.2523e-21)
(0.956777 0.594998 1.10356e-20)
(0.956777 0.594998 1.10356e-20)
(0.913173 0.631504 4.37594e-20)
(0.874743 0.629218 -3.08617e-21)
(0.874743 0.629218 -3.08617e-21)
(0.817128 0.657963 3.83994e-20)
(0.817128 0.657963 3.83994e-20)
(0.742374 0.671793 3.37869e-20)
(0.742374 0.671793 3.37869e-20)
(0.642815 0.655911 3.262e-20)
(0.642815 0.655911 3.262e-20)
(0.50999 0.588902 3.43003e-20)
(0.473459 0.578818 1.4986e-19)
(0.473459 0.578818 1.4986e-19)
(0.310578 0.435428 -2.04972e-19)
(0.282839 0.423919 1.68708e-19)
(0.282839 0.423919 1.68708e-19)
(0.10682 0.182619 1.5439e-20)
(0.094879 0.17568 2.40277e-19)
(0.094879 0.17568 2.40277e-19)
(0.0959284 -0.177861 2.74699e-20)
(0.0959284 -0.177861 2.74699e-20)
(0.107881 -0.184645 -2.6299e-19)
(0.28596 -0.429722 -4.3907e-21)
(0.28596 -0.429722 -4.3907e-21)
(0.313738 -0.440898 -1.37947e-19)
(0.478353 -0.587065 -6.03735e-21)
(0.478353 -0.587065 -6.03735e-21)
(0.514931 -0.596743 4.00514e-20)
(0.649044 -0.665481 -2.0278e-20)
(0.649044 -0.665481 -2.0278e-20)
(0.749389 -0.682208 -4.09095e-20)
(0.749389 -0.682208 -4.09095e-20)
(0.824527 -0.668613 -3.74511e-20)
(0.824527 -0.668613 -3.74511e-20)
(0.882272 -0.639765 -1.56912e-20)
(0.882272 -0.639765 -1.56912e-20)
(0.928401 -0.604665 1.70138e-20)
(0.928401 -0.604665 1.70138e-20)
(0.966605 -0.567992 -5.22331e-21)
(0.966605 -0.567992 -5.22331e-21)
(0.999047 -0.531883 2.77009e-20)
(0.999047 -0.531883 2.77009e-20)
(1.02699 -0.497193 -3.54199e-20)
(1.02699 -0.497193 -3.54199e-20)
(1.05122 -0.464211 5.83927e-20)
(1.05122 -0.464211 5.83927e-20)
(1.07232 -0.433001 6.24154e-20)
(1.06836 -0.407738 1.2038e-20)
(1.06836 -0.407738 1.2038e-20)
(1.08636 -0.380476 1.34968e-20)
(1.08636 -0.380476 1.34968e-20)
(1.10249 -0.354783 5.82848e-20)
(1.09899 -0.33499 -4.29103e-20)
(1.09899 -0.33499 -4.29103e-20)
(1.11395 -0.31254 4.88419e-20)
(1.11149 -0.295736 -4.84516e-20)
(1.11149 -0.295736 -4.84516e-20)
(1.12403 -0.277209 -2.90999e-20)
(1.12079 -0.262626 8.55887e-21)
(1.11168 0.201382 -5.45487e-21)
(1.10613 0.186763 6.3491e-21)
(1.10398 0.146319 -2.60901e-21)
(1.10028 0.129992 7.09167e-21)
(1.09465 0.108384 3.1399e-21)
(1.09342 0.0931284 -4.11352e-21)
(1.0889 0.0834515 3.59314e-22)
(1.08229 0.0723083 1.03387e-21)
(1.07956 0.0608376 -7.13249e-22)
(1.07837 0.0531521 8.21533e-22)
(1.0755 0.0485306 -1.06847e-21)
(1.07034 0.043849 1.846e-22)
(1.0659 0.0366745 2.35767e-23)
(1.06381 0.0324151 4.51517e-23)
(1.06003 0.0256718 1.32565e-22)
(1.06094 0.0225258 -1.69437e-22)
(1.05607 0.0198022 -3.95715e-22)
(1.05397 0.0147527 2.26104e-22)
(1.05237 0.00878736 -3.66052e-22)
(1.05496 0.00555112 4.00148e-22)
(1.05078 0.00470579 2.38225e-23)
(1.0514 -0.00255339 -1.21851e-21)
(1.12213 -0.20778 7.53388e-21)
(1.11812 -0.191254 -2.89236e-21)
(1.11656 -0.150543 -6.88041e-22)
(1.11133 -0.131335 -1.2679e-21)
(1.10799 -0.110194 1.69646e-21)
(1.1013 -0.097406 2.36294e-21)
(1.09307 -0.0840855 -7.7315e-22)
(1.08792 -0.0696569 -3.23739e-22)
(1.08395 -0.0629139 -9.79527e-24)
(1.07569 -0.0529863 -9.90223e-23)
(1.07364 -0.044742 -1.7645e-22)
(1.06707 -0.0392311 4.29212e-22)
(1.06517 -0.0304548 -4.95948e-22)
(1.06287 -0.0260169 -3.71823e-23)
(1.0623 -0.0221919 1.9793e-22)
(1.05763 -0.0194871 -9.90479e-23)
(1.05606 -0.0140903 6.45128e-22)
(1.05474 -0.00993848 -3.81512e-23)
(1.05622 -0.006602 -3.07563e-24)
(1.0514 -0.00255339 -1.21851e-21)
(1.05495 -0.00600137 -2.58087e-22)
)
;
    }
}


// ************************************************************************* //
