/*--------------------------------*- C++ -*----------------------------------*\
  =========                 |
  \\      /  F ield         | OpenFOAM: The Open Source CFD Toolbox
   \\    /   O peration     | Website:  https://openfoam.org
    \\  /    A nd           | Version:  7
     \\/     M anipulation  |
\*---------------------------------------------------------------------------*/
FoamFile
{
    version     2.0;
    format      ascii;
    class       volVectorField;
    location    "70";
    object      U;
}
// * * * * * * * * * * * * * * * * * * * * * * * * * * * * * * * * * * * * * //

dimensions      [0 1 -1 0 0 0 0];

internalField   nonuniform List<vector> 
183
(
(0.921337 -0.595755 -1.59584e-22)
(0.841389 -0.668152 1.43452e-22)
(0.942838 -0.590964 -5.66576e-22)
(0.851717 -0.666909 6.79629e-22)
(0.963375 -0.585348 6.12127e-21)
(0.861979 -0.66457 -4.49367e-22)
(0.982772 -0.578953 -1.50169e-21)
(0.872307 -0.661055 -2.212e-21)
(1.00089 -0.571826 -6.85358e-21)
(0.882777 -0.656299 3.66238e-21)
(1.01766 -0.564016 1.77703e-21)
(0.893414 -0.650265 8.13041e-22)
(1.03304 -0.555572 -4.03607e-21)
(0.904183 -0.642937 -1.985e-21)
(1.04707 -0.546541 1.38347e-21)
(0.915006 -0.634327 -4.90137e-21)
(1.05981 -0.536972 2.96154e-21)
(0.925763 -0.624475 3.45194e-21)
(1.07138 -0.526909 -3.99651e-21)
(0.93632 -0.613445 2.99462e-21)
(1.0819 -0.516399 1.63793e-20)
(0.94655 -0.601324 -1.99618e-21)
(1.09148 -0.505487 -1.14184e-21)
(0.956358 -0.588222 -8.22968e-21)
(1.10023 -0.494224 3.12895e-21)
(0.965708 -0.574261 -4.02292e-22)
(1.10823 -0.48268 -2.86159e-21)
(0.974628 -0.559585 3.68556e-21)
(1.11553 -0.470933 -6.2409e-21)
(0.983206 -0.544342 8.28237e-21)
(1.12215 -0.459003 -3.88907e-21)
(0.991571 -0.52865 -1.20605e-21)
(1.1281 -0.44679 -6.62856e-22)
(0.999859 -0.512575 1.54894e-20)
(1.13338 -0.434382 -9.57214e-21)
(1.00817 -0.496309 4.32115e-21)
(1.138 -0.422743 1.5903e-21)
(1.01657 -0.480402 2.997e-21)
(1.14197 -0.412838 1.4139e-20)
(1.02521 -0.465151 -3.01258e-21)
(1.14533 -0.400734 -7.28238e-21)
(1.0343 -0.448733 3.42146e-21)
(1.06218 -0.39313 0)
(0.839669 -0.465012 0)
(0.995216 -0.338784 0)
(0.803331 -0.340504 0)
(1.0302 -0.267496 0)
(0.859507 -0.269154 0)
(0.991872 -0.231852 0)
(0.886332 -0.16712 0)
(0.982679 -0.18232 0)
(0.909873 -0.114785 0)
(0.985768 -0.149652 0)
(0.92933 -0.0762029 0)
(0.995268 -0.112843 0)
(0.94613 -0.0549042 0)
(1.00724 -0.0857815 0)
(0.967501 -0.0408355 0)
(1.01791 -0.0638224 0)
(0.988629 -0.031114 0)
(1.02628 -0.0478328 0)
(1.00627 -0.024 0)
(1.03253 -0.0361098 0)
(1.01947 -0.0188159 0)
(1.03705 -0.0274711 0)
(1.02882 -0.0149717 0)
(1.04034 -0.0210961 0)
(1.03533 -0.0120937 0)
(1.04283 -0.0162451 0)
(1.03992 -0.00979843 0)
(1.04459 -0.0125508 0)
(1.04304 -0.00794183 0)
(1.04589 -0.00962351 0)
(1.04518 -0.0063565 0)
(1.04664 -0.00727023 0)
(1.04646 -0.0049779 0)
(1.04715 -0.00532621 0)
(1.04728 -0.0037565 0)
(1.0475 -0.00362651 0)
(1.0478 -0.00261586 0)
(1.04777 -0.00212775 0)
(1.04813 -0.00155733 0)
(1.04779 -0.000671442 0)
(1.0482 -0.000496829 0)
(0.383218 -0.457364 0)
(0.422419 -0.408196 0)
(0.65576 -0.317144 0)
(0.901802 -0.245119 0)
(1.04075 -0.180516 0)
(1.0856 -0.13004 0)
(1.09087 -0.0944086 0)
(1.08554 -0.067487 0)
(1.07991 -0.0479198 0)
(1.0752 -0.0337809 0)
(1.07165 -0.0237218 0)
(1.0686 -0.0166069 0)
(1.06616 -0.0115177 0)
(1.0639 -0.00793972 0)
(1.06209 -0.00534191 0)
(1.0603 -0.00358411 0)
(1.05886 -0.00227858 0)
(1.05768 -0.00145109 0)
(1.05689 -0.000823896 0)
(1.05622 -0.000461874 0)
(1.05576 -0.000127601 0)
(0.531501 -0.536023 0)
(0.707556 -0.371738 0)
(0.947644 -0.225241 0)
(1.10694 -0.132108 0)
(1.16652 -0.0796323 0)
(1.16798 -0.0513075 0)
(1.15071 -0.0353755 0)
(1.13215 -0.0236014 0)
(1.11588 -0.0150646 0)
(1.1023 -0.00848488 0)
(1.09145 -0.00374078 0)
(1.08267 -0.000412888 0)
(1.07582 0.00174733 0)
(1.07026 0.00294075 0)
(1.06595 0.00348405 0)
(1.0624 0.00346795 0)
(1.05972 0.00318171 0)
(1.05774 0.00261474 0)
(1.05641 0.0019644 0)
(1.05544 0.00117974 0)
(1.05488 0.000408152 0)
(0.860175 -0.277727 0)
(1.02381 -0.129025 0)
(1.16369 -0.0501139 0)
(1.21722 -0.00779313 0)
(1.20903 0.00858928 0)
(1.18109 0.0108564 0)
(1.15141 0.0122335 0)
(1.12921 0.0105934 0)
(1.11226 0.00921491 0)
(1.09919 0.00761113 0)
(1.08879 0.00630563 0)
(1.0803 0.0052873 0)
(1.07354 0.00448878 0)
(1.06803 0.00384119 0)
(1.06372 0.00332381 0)
(0.456965 -0.456554 6.66756e-21)
(0.523628 -0.570126 -2.38589e-21)
(0.479703 -0.478261 -1.6385e-20)
(0.538698 -0.579195 1.24711e-21)
(0.50024 -0.495 5.87126e-21)
(0.552494 -0.587173 -1.88077e-21)
(0.521138 -0.510831 -1.15708e-21)
(0.56716 -0.594989 -3.76924e-21)
(0.542183 -0.525061 1.25175e-21)
(0.58258 -0.602285 -1.04602e-20)
(0.563406 -0.537973 8.26532e-21)
(0.598706 -0.609147 -6.43279e-21)
(0.584774 -0.54964 2.17193e-21)
(0.615442 -0.615581 -1.42287e-21)
(0.606268 -0.560161 -1.88196e-21)
(0.632667 -0.621622 -6.1499e-21)
(0.627874 -0.56958 -3.22806e-21)
(0.650238 -0.627297 -5.89194e-22)
(0.649593 -0.577919 -1.1496e-21)
(0.667995 -0.632638 8.62938e-21)
(0.671437 -0.585179 -1.73052e-20)
(0.685763 -0.637669 2.91619e-21)
(0.693433 -0.59136 5.80035e-21)
(0.703354 -0.642411 -5.86534e-21)
(0.715613 -0.59646 -7.95914e-21)
(0.720579 -0.646873 -1.38622e-21)
(0.738013 -0.600479 9.84042e-21)
(0.737257 -0.65105 -4.56133e-21)
(0.760656 -0.603423 5.32477e-22)
(0.753226 -0.654924 7.40214e-21)
(0.783542 -0.605308 -8.20502e-21)
(0.768356 -0.658454 -1.22012e-21)
(0.806642 -0.606151 5.87272e-21)
(0.782569 -0.661584 -9.46232e-22)
(0.829883 -0.60598 -1.61347e-21)
(0.795845 -0.664239 1.24929e-21)
(0.853147 -0.604823 -1.10133e-21)
(0.80823 -0.666329 -4.89709e-23)
(0.876275 -0.602713 -9.88215e-22)
(0.819837 -0.667752 -1.22701e-21)
(0.899076 -0.599681 5.88296e-22)
(0.830827 -0.668397 1.67373e-22)
)
;

boundaryField
{
    inlet
    {
        type            uniformFixedValue;
        uniformValue    constant (1 0 0);
        value           nonuniform 0();
    }
    outlet
    {
        type            pressureInletOutletVelocity;
        value           nonuniform 0();
    }
    cylinder
    {
        type            fixedValue;
        value           nonuniform 0();
    }
    top
    {
        type            symmetryPlane;
    }
    bottom
    {
        type            symmetryPlane;
    }
    defaultFaces
    {
        type            empty;
    }
    procBoundary35to34
    {
        type            processor;
        value           nonuniform List<vector> 
85
(
(0.924581 -0.36089 -4.08251e-22)
(0.94035 -0.370209 1.00262e-21)
(0.956307 -0.3792 -1.68705e-23)
(0.972607 -0.387682 1.28224e-21)
(0.989344 -0.395455 3.59151e-22)
(1.00655 -0.402317 -3.70768e-21)
(1.02418 -0.408082 -6.44979e-21)
(1.04212 -0.412593 -6.47616e-21)
(1.06023 -0.415724 -8.81814e-21)
(1.07829 -0.417384 9.09178e-21)
(1.0961 -0.41751 1.4213e-20)
(1.11343 -0.416065 -6.33925e-21)
(1.1301 -0.413042 6.41415e-21)
(1.14591 -0.408466 -2.92906e-21)
(1.16074 -0.402399 2.40184e-20)
(1.17446 -0.394899 6.82758e-21)
(1.18701 -0.385963 -8.444e-21)
(1.19837 -0.375672 -1.721e-20)
(1.2085 -0.36466 -1.18258e-20)
(1.21733 -0.35362 1.35374e-20)
(1.22466 -0.339898 -1.77426e-20)
(1.15316 -0.347876 0)
(1.15316 -0.347876 0)
(1.09068 -0.331566 0)
(1.0939 -0.256752 0)
(1.06752 -0.241246 0)
(1.07587 -0.181304 0)
(1.07358 -0.152294 0)
(1.07324 -0.118296 0)
(1.0693 -0.094771 0)
(1.06598 -0.075647 0)
(1.06337 -0.0606461 0)
(1.06145 -0.0488248 0)
(1.05993 -0.0392896 0)
(1.0587 -0.0316636 0)
(1.05783 -0.0253912 0)
(1.05703 -0.02027 0)
(1.05645 -0.0159417 0)
(1.05574 -0.01227 0)
(1.05522 -0.00909639 0)
(1.05484 -0.00624095 0)
(1.05465 -0.00367223 0)
(1.05443 -0.00116951 0)
(0.406451 0.000804958 0)
(0.430145 -0.118499 0)
(0.612177 -0.160431 0)
(0.798736 -0.180666 0)
(0.923271 -0.149865 0)
(0.984446 -0.110598 0)
(1.01337 -0.0772786 0)
(1.02962 -0.0530083 0)
(1.04064 -0.0357642 0)
(1.04777 -0.0238222 0)
(1.05232 -0.0154893 0)
(1.05463 -0.00973826 0)
(1.05586 -0.00574345 0)
(1.05607 -0.00311664 0)
(1.05609 -0.00132621 0)
(1.0556 -0.000330099 0)
(1.05518 0.000310312 0)
(1.05478 0.000482671 0)
(1.0546 0.000536422 0)
(1.05431 0.000326729 0)
(1.05403 0.000140166 0)
(0.467878 -0.001753 1.43145e-20)
(0.491899 -0.0299875 -1.14681e-20)
(0.516004 -0.0548596 5.64907e-21)
(0.539723 -0.0792971 1.46094e-20)
(0.563159 -0.103993 -4.44483e-21)
(0.58657 -0.128409 2.33121e-21)
(0.61014 -0.152026 4.27187e-21)
(0.633945 -0.174481 -1.58478e-20)
(0.657998 -0.195545 -2.06628e-20)
(0.682252 -0.215095 4.89922e-21)
(0.706574 -0.233074 -5.76029e-21)
(0.730742 -0.249482 -2.84655e-21)
(0.754474 -0.26438 9.28315e-21)
(0.777481 -0.277897 5.35458e-21)
(0.799511 -0.290215 1.77684e-21)
(0.820395 -0.301559 -9.96561e-21)
(0.840065 -0.312175 -3.92552e-21)
(0.858565 -0.322296 5.23815e-21)
(0.876035 -0.332123 2.04295e-21)
(0.892688 -0.341797 -8.04234e-22)
(0.90878 -0.35139 -1.23936e-21)
)
;
    }
    procBoundary35to36
    {
        type            processor;
        value           nonuniform List<vector> 
87
(
(0.894206 -0.446983 1.71228e-22)
(0.894961 -0.455551 1.60445e-21)
(0.893776 -0.464315 2.25762e-21)
(0.890653 -0.473143 1.43068e-21)
(0.885695 -0.481872 -5.93138e-22)
(0.879111 -0.490322 1.06617e-22)
(0.871202 -0.498302 -1.34591e-21)
(0.862353 -0.505629 -1.17436e-23)
(0.853006 -0.512125 4.81078e-21)
(0.843631 -0.517629 5.87416e-21)
(0.83471 -0.522014 -1.86731e-21)
(0.8267 -0.525182 -1.26949e-22)
(0.81999 -0.527065 -9.58877e-21)
(0.814857 -0.527612 2.83571e-21)
(0.811425 -0.526768 -2.31008e-22)
(0.80966 -0.52453 -1.5294e-20)
(0.809414 -0.521098 2.2849e-20)
(0.810514 -0.516741 5.45953e-21)
(0.812845 -0.511015 8.4371e-21)
(0.816392 -0.502504 -1.65968e-21)
(0.821223 -0.491786 5.2052e-21)
(0.821223 -0.491786 5.2052e-21)
(0.681302 -0.295735 0)
(0.618146 -0.187699 0)
(0.627557 -0.140968 0)
(0.682142 -0.0352715 0)
(0.775859 0.0191481 0)
(0.859003 0.0551282 0)
(0.917268 0.0565409 0)
(0.955652 0.0469029 0)
(0.981573 0.0349244 0)
(1.00004 0.0252064 0)
(1.0134 0.0179137 0)
(1.0229 0.0125922 0)
(1.02956 0.00867552 0)
(1.03428 0.00584554 0)
(1.03759 0.00380255 0)
(1.03992 0.00237752 0)
(1.04142 0.00140977 0)
(1.04242 0.000771091 0)
(1.04309 0.000391797 0)
(1.04352 0.000165237 0)
(1.04366 5.80859e-05 0)
(1.06023 0.00281433 0)
(1.0576 0.00236744 0)
(1.05567 0.00186384 0)
(1.05437 0.00137097 0)
(1.05344 0.000811718 0)
(1.0529 0.000277704 0)
(1.06356 0.0356101 0)
(0.786831 -0.330877 -4.62333e-21)
(1.15855 0.111198 0)
(1.20661 0.110831 0)
(1.2246 0.101603 0)
(1.20492 0.0826643 0)
(1.17833 0.0652096 0)
(1.15179 0.0549759 0)
(1.12887 0.0461174 0)
(1.11117 0.0400847 0)
(1.0977 0.034342 0)
(1.08743 0.029411 0)
(1.07938 0.0249402 0)
(1.07306 0.0209409 0)
(1.0679 0.0173701 0)
(1.06023 0.00281433 0)
(1.06374 0.0142136 0)
(0.786831 -0.330877 -4.62333e-21)
(0.779801 -0.333821 1.72234e-21)
(0.779034 -0.337166 -4.43042e-21)
(0.780432 -0.341445 -1.19125e-20)
(0.783083 -0.345828 -6.19878e-21)
(0.786713 -0.350312 2.61482e-21)
(0.791199 -0.354933 4.26082e-21)
(0.796472 -0.359692 -7.63359e-21)
(0.80248 -0.364583 5.87236e-21)
(0.80917 -0.369604 5.62513e-21)
(0.816485 -0.374758 -8.25859e-22)
(0.824349 -0.380052 -4.76818e-22)
(0.832652 -0.3855 -4.53358e-21)
(0.841255 -0.391125 1.65749e-21)
(0.849988 -0.396961 1.93989e-21)
(0.858651 -0.403053 -3.01926e-21)
(0.866999 -0.409444 2.96527e-22)
(0.874751 -0.416177 -6.97228e-22)
(0.881627 -0.423293 -3.00422e-21)
(0.88734 -0.430807 -5.47095e-22)
(0.891608 -0.438714 -6.16481e-22)
)
;
    }
}


// ************************************************************************* //
