/*--------------------------------*- C++ -*----------------------------------*\
  =========                 |
  \\      /  F ield         | OpenFOAM: The Open Source CFD Toolbox
   \\    /   O peration     | Website:  https://openfoam.org
    \\  /    A nd           | Version:  7
     \\/     M anipulation  |
\*---------------------------------------------------------------------------*/
FoamFile
{
    version     2.0;
    format      ascii;
    class       volVectorField;
    location    "60";
    object      U;
}
// * * * * * * * * * * * * * * * * * * * * * * * * * * * * * * * * * * * * * //

dimensions      [0 1 -1 0 0 0 0];

internalField   nonuniform List<vector> 
183
(
(1.16778 0.247825 3.66438e-20)
(1.16107 0.236258 4.9069e-20)
(1.1735 0.2965 2.17398e-20)
(1.16686 0.281387 5.7062e-20)
(1.16101 0.267106 -2.34717e-20)
(1.15518 0.254347 -1.70445e-20)
(1.14921 0.242061 1.9356e-20)
(1.18296 0.357249 1.23601e-19)
(1.17351 0.338513 -1.31181e-20)
(1.1653 0.320824 -1.97914e-20)
(1.15828 0.304135 1.47065e-20)
(1.15237 0.288324 4.72075e-20)
(1.19748 0.43262 -9.82886e-20)
(1.18541 0.4095 -1.80955e-20)
(1.1744 0.387485 -1.28452e-19)
(1.16459 0.36666 -2.43589e-20)
(1.15599 0.347009 -7.06882e-20)
(1.19786 0.4954 3.87691e-20)
(1.18686 0.469922 2.11233e-20)
(1.17518 0.444526 1.63692e-19)
(1.16412 0.420116 -1.98572e-19)
(1.15415 0.396992 8.52194e-20)
(1.17809 0.555766 1.03069e-19)
(1.17967 0.535308 -8.59939e-20)
(1.17252 0.50944 3.37284e-20)
(1.16228 0.482112 1.96526e-19)
(1.15167 0.455255 -2.76676e-20)
(1.08496 0.57592 7.60984e-20)
(1.13377 0.585431 -3.68049e-19)
(1.15144 0.573441 -1.54623e-19)
(1.1523 0.550029 -2.32501e-19)
(1.14558 0.521924 2.23572e-19)
(0.809879 0.470948 -2.91857e-20)
(0.969729 0.558996 2.99202e-19)
(1.06192 0.598972 -1.03209e-19)
(1.10662 0.604515 3.25979e-19)
(1.12243 0.589026 -3.08092e-19)
(1.1231 0.56287 2.78747e-19)
(0.559774 0.348135 7.11465e-19)
(0.796684 0.496446 -1.36966e-19)
(0.94908 0.58302 -1.92091e-19)
(1.03543 0.619459 4.25117e-20)
(1.07673 0.621157 9.2329e-20)
(0.223356 0.147498 -5.52712e-19)
(0.551017 0.368782 2.70323e-20)
(0.779793 0.519624 1.29169e-19)
(0.924756 0.604347 2.43786e-19)
(1.00584 0.637192 -1.69636e-19)
(0.22032 0.157064 8.33143e-19)
(0.539283 0.387635 -4.52255e-19)
(0.759392 0.540235 2.69039e-19)
(0.215885 0.165872 -1.83802e-19)
(0.52476 0.404482 4.97265e-19)
(0.210106 0.173712 -1.70197e-19)
(0.210111 -0.173894 4.47783e-20)
(0.215638 -0.165849 -1.65629e-19)
(0.526199 -0.406429 -5.52449e-20)
(0.219786 -0.156853 1.92739e-19)
(0.540242 -0.389196 -2.2727e-19)
(0.762616 -0.544467 1.84172e-19)
(0.222514 -0.147125 -1.32462e-21)
(0.551442 -0.369963 -1.2203e-19)
(0.782457 -0.523414 -1.61753e-21)
(0.92961 -0.610573 -7.74197e-20)
(1.01227 -0.645171 -6.14129e-20)
(0.559593 -0.348958 -3.49419e-19)
(0.798739 -0.499801 -1.6088e-19)
(0.953406 -0.588849 -9.05015e-20)
(1.0415 -0.627129 3.03001e-19)
(1.08386 -0.629958 6.47615e-20)
(0.811227 -0.473889 -2.43809e-19)
(0.973481 -0.564439 -1.66909e-19)
(1.06755 -0.606345 -1.10024e-19)
(1.11348 -0.613121 1.74643e-19)
(1.12993 -0.598292 2.71844e-19)
(1.13087 -0.572435 -1.62477e-19)
(1.09011 -0.583017 1.4876e-20)
(1.1403 -0.59386 -9.75869e-20)
(1.15875 -0.582622 1.93567e-19)
(1.15999 -0.559568 -1.88562e-19)
(1.15344 -0.531588 -1.03326e-19)
(1.18517 -0.564893 -1.30457e-19)
(1.18725 -0.544862 3.87994e-19)
(1.18035 -0.519163 1.27202e-19)
(1.17025 -0.49185 -2.31718e-20)
(1.15975 -0.464914 1.79604e-19)
(1.20564 -0.505226 -2.9766e-19)
(1.19486 -0.479792 -1.76345e-19)
(1.18334 -0.454333 -1.86836e-19)
(1.17244 -0.429792 1.71656e-19)
(1.16261 -0.406473 -3.83254e-20)
(1.20571 -0.442624 -2.71383e-20)
(1.19384 -0.419385 2.23605e-20)
(1.18304 -0.397185 7.67692e-20)
(1.17342 -0.376104 -8.3993e-20)
(1.16502 -0.356148 3.17608e-20)
(1.15781 -0.337293 -6.56295e-20)
(1.19202 -0.366946 -4.31203e-21)
(1.18281 -0.347906 4.12464e-20)
(1.17484 -0.329865 5.80162e-20)
(1.16807 -0.312792 -2.52502e-20)
(1.16243 -0.296579 1.98848e-20)
(1.18365 -0.305429 -6.71188e-21)
(1.17731 -0.289895 -1.09485e-19)
(1.17176 -0.27518 2.00264e-20)
(1.16623 -0.261977 1.55294e-20)
(1.16051 -0.24928 -5.05203e-20)
(1.17929 -0.255666 2.59418e-20)
(1.1728 -0.243641 -7.50101e-21)
(1.15131 0.190086 -1.27234e-20)
(1.13333 0.173245 -7.16329e-22)
(1.12539 0.134714 5.31665e-21)
(1.11687 0.121066 -3.90222e-22)
(1.10846 0.100741 -3.73174e-22)
(1.10405 0.0878581 -3.16028e-21)
(1.09729 0.0777573 4.50215e-21)
(1.09048 0.0673333 -4.32595e-24)
(1.0869 0.0579102 -5.74138e-22)
(1.08379 0.0510711 -7.87725e-22)
(1.07962 0.0457391 -3.55905e-22)
(1.07453 0.0407211 3.79668e-23)
(1.07034 0.0343186 -3.13748e-22)
(1.068 0.0304546 6.05741e-23)
(1.06401 0.0246128 3.97097e-23)
(1.06385 0.0213242 -1.01578e-22)
(1.05944 0.0179256 -1.44194e-22)
(1.05795 0.0135149 1.17877e-22)
(1.0561 0.00887527 -2.17166e-22)
(1.14188 0.193493 -1.44058e-20)
(1.12683 0.177121 -1.66096e-21)
(1.12024 0.137732 2.64666e-21)
(1.11287 0.123418 3.72357e-21)
(1.10514 0.102715 -2.03047e-22)
(1.10147 0.0892735 1.14627e-21)
(1.09519 0.0792091 2.71634e-21)
(1.08847 0.0685366 -1.67502e-21)
(1.08515 0.0586753 6.23954e-22)
(1.08246 0.0516793 -5.19248e-22)
(1.07855 0.0464684 8.579e-22)
(1.07345 0.0414714 -1.13394e-22)
(1.06924 0.0348834 -2.43085e-23)
(1.06698 0.0309437 3.03679e-23)
(1.06303 0.0249083 9.76492e-23)
(1.0631 0.0216415 3.86135e-22)
(1.05859 0.0183513 2.99718e-22)
(1.057 0.0137998 3.71093e-22)
(1.0552 0.00889198 2.07085e-22)
(1.05697 0.00523942 2.93846e-22)
(1.0537 0.00388485 -1.0661e-21)
(1.15359 -0.199952 1.15971e-20)
(1.1401 -0.181477 5.99716e-21)
(1.13373 -0.141177 9.46103e-22)
(1.12467 -0.124326 -1.3954e-22)
(1.11793 -0.103594 -3.471e-24)
(1.10916 -0.0910891 7.38565e-22)
(1.10025 -0.0782287 -3.35953e-21)
(1.09409 -0.0655857 8.08836e-22)
(1.0888 -0.0588613 -1.73528e-23)
(1.08051 -0.0495137 -2.20958e-22)
(1.07772 -0.0421422 -8.02144e-23)
(1.07114 -0.0368216 9.58128e-23)
(1.06888 -0.0292336 -4.84097e-22)
(1.06576 -0.0252668 -1.35715e-22)
(1.06443 -0.0211437 6.52281e-23)
(1.0601 -0.0182076 -3.74726e-22)
(1.05874 -0.0134582 -5.27473e-22)
(1.05711 -0.00998748 2.21177e-22)
(1.0578 -0.00663907 3.30777e-22)
(1.05658 -0.00531185 -4.00244e-22)
(1.05465 -0.00183998 1.34716e-21)
(1.16352 -0.196576 1.12298e-20)
(1.14708 -0.177536 -3.97393e-21)
(1.13924 -0.137875 -7.75135e-21)
(1.12894 -0.121742 -2.66143e-21)
(1.12116 -0.101209 4.93349e-22)
(1.11179 -0.0889166 8.01332e-22)
(1.1026 -0.0762926 -1.98138e-21)
(1.09607 -0.0641778 4.0342e-22)
(1.0904 -0.0574801 1.15903e-22)
(1.08208 -0.0483767 7.15173e-22)
(1.07904 -0.0412735 1.18632e-23)
(1.07244 -0.036035 -5.27479e-23)
(1.07003 -0.0287915 -1.31343e-22)
)
;

boundaryField
{
    inlet
    {
        type            uniformFixedValue;
        uniformValue    constant (1 0 0);
        value           nonuniform 0();
    }
    outlet
    {
        type            pressureInletOutletVelocity;
        value           nonuniform 0();
    }
    cylinder
    {
        type            fixedValue;
        value           uniform (0 0 0);
    }
    top
    {
        type            symmetryPlane;
    }
    bottom
    {
        type            symmetryPlane;
    }
    defaultFaces
    {
        type            empty;
    }
    procBoundary13to12
    {
        type            processor;
        value           nonuniform List<vector> 
106
(
(1.14722 0.273464 3.14619e-20)
(1.14205 0.260258 -1.53973e-20)
(1.13685 0.247271 5.54831e-21)
(1.14859 0.328499 5.94803e-20)
(1.14236 0.311067 4.65547e-20)
(1.14722 0.273464 3.14619e-20)
(1.13722 0.294582 3.32821e-20)
(1.14534 0.375191 -4.97719e-20)
(1.14859 0.328499 5.94803e-20)
(1.13768 0.35467 -1.63567e-20)
(1.14179 0.429639 -5.57213e-20)
(1.14534 0.375191 -4.97719e-20)
(1.13298 0.405477 1.13952e-20)
(1.13638 0.4929 1.43087e-19)
(1.14179 0.429639 -5.57213e-20)
(1.12705 0.464703 -1.96912e-19)
(1.13638 0.4929 1.43087e-19)
(1.1172 0.532732 -1.25379e-19)
(1.09134 0.60236 -4.44125e-19)
(1.1172 0.532732 -1.25379e-19)
(1.09228 0.573712 1.14357e-19)
(1.09134 0.60236 -4.44125e-19)
(1.04447 0.635167 -7.84316e-20)
(0.897105 0.622738 3.53697e-19)
(1.04447 0.635167 -7.84316e-20)
(0.973584 0.651966 2.97687e-19)
(0.897105 0.622738 3.53697e-19)
(0.735756 0.557992 3.7877e-19)
(0.735756 0.557992 3.7877e-19)
(0.507692 0.419088 -1.09513e-19)
(0.507692 0.419088 -1.09513e-19)
(0.203162 0.180435 -4.49461e-20)
(0.203375 -0.180807 2.64068e-19)
(0.509547 -0.421461 -1.12168e-19)
(0.509547 -0.421461 -1.12168e-19)
(0.73945 -0.562682 1.74451e-20)
(0.73945 -0.562682 1.74451e-20)
(0.902395 -0.62937 -1.76419e-20)
(0.902395 -0.62937 -1.76419e-20)
(0.980271 -0.660279 -1.63147e-19)
(1.05179 -0.644196 1.08586e-20)
(1.05179 -0.644196 1.08586e-20)
(1.09897 -0.61175 2.22493e-19)
(1.09897 -0.61175 2.22493e-19)
(1.10009 -0.583337 -2.94563e-19)
(1.12506 -0.542377 -7.74947e-20)
(1.12506 -0.542377 -7.74947e-20)
(1.14432 -0.502549 -1.84781e-19)
(1.14432 -0.502549 -1.84781e-19)
(1.13505 -0.474254 4.83238e-20)
(1.14998 -0.439152 1.65096e-19)
(1.14998 -0.439152 1.65096e-19)
(1.14126 -0.414787 4.75847e-21)
(1.15394 -0.384418 1.07556e-20)
(1.15394 -0.384418 1.07556e-20)
(1.14642 -0.363595 3.92082e-20)
(1.14005 -0.343963 1.19635e-20)
(1.15179 -0.319486 6.7616e-20)
(1.15179 -0.319486 6.7616e-20)
(1.1469 -0.302617 3.32053e-20)
(1.15757 -0.281314 7.16446e-20)
(1.15757 -0.281314 7.16446e-20)
(1.15268 -0.267705 -5.29184e-20)
(1.14773 -0.254345 3.91912e-20)
(1.13213 0.196516 -3.43996e-21)
(1.1201 0.180688 -3.70212e-22)
(1.11494 0.140679 -5.96382e-21)
(1.10875 0.125689 2.64828e-21)
(1.10173 0.104647 3.53385e-23)
(1.09885 0.0906277 1.08997e-21)
(1.09309 0.0806461 4.95631e-22)
(1.08643 0.0697618 1.39232e-21)
(1.08335 0.059415 9.44204e-22)
(1.08112 0.0522346 -7.26538e-22)
(1.07749 0.047182 -1.18417e-23)
(1.07238 0.0422415 5.21929e-22)
(1.06813 0.035461 -3.52204e-23)
(1.06594 0.0314326 3.16119e-23)
(1.06205 0.0251858 1.10444e-22)
(1.06236 0.0219498 4.22548e-22)
(1.05774 0.0188033 4.18403e-22)
(1.05602 0.014099 -2.96271e-22)
(1.05427 0.00888572 2.47944e-23)
(1.05628 0.00533929 -6.69033e-23)
(1.05276 0.00412972 -8.59225e-22)
(1.14339 -0.202949 -8.76148e-21)
(1.13292 -0.1851 3.72068e-22)
(1.1281 -0.144394 5.00327e-21)
(1.1203 -0.126787 6.9555e-22)
(1.11465 -0.105894 -2.88614e-21)
(1.10653 -0.0932313 -9.16049e-22)
(1.09787 -0.0801689 -3.56506e-22)
(1.09207 -0.0669668 -8.425e-22)
(1.08719 -0.060229 -8.81017e-22)
(1.07892 -0.0506598 1.86118e-22)
(1.07638 -0.0430085 -9.47304e-23)
(1.06982 -0.0376144 -2.99515e-22)
(1.06769 -0.0296581 6.66132e-24)
(1.06481 -0.0255598 1.37305e-22)
(1.0637 -0.0215042 -1.54286e-22)
(1.05928 -0.0186113 1.27809e-22)
(1.05788 -0.0136638 -8.52623e-22)
(1.05634 -0.0100032 -6.35439e-22)
(1.05726 -0.00664946 -1.28973e-22)
(1.05602 -0.00551602 -5.24455e-22)
(1.05388 -0.00197692 9.60332e-22)
)
;
    }
    procBoundary13to14
    {
        type            processor;
        value           nonuniform List<vector> 
104
(
(1.17982 0.240707 3.69049e-20)
(1.17258 0.229859 -1.48168e-20)
(1.18796 0.28822 -9.86305e-20)
(1.18066 0.273824 9.03987e-20)
(1.17417 0.260145 1.19589e-20)
(1.17417 0.260145 1.19589e-20)
(1.2004 0.347042 -4.34617e-20)
(1.19018 0.329254 -2.15486e-20)
(1.18123 0.312416 1.3546e-19)
(1.18123 0.312416 1.3546e-19)
(1.21851 0.419642 -2.02593e-19)
(1.20558 0.397895 -8.36073e-20)
(1.19366 0.37705 1.26008e-19)
(1.19366 0.37705 1.26008e-19)
(1.22146 0.479926 2.37896e-19)
(1.21003 0.456446 3.53365e-20)
(1.21003 0.456446 3.53365e-20)
(1.20212 0.536146 -2.66714e-19)
(1.20502 0.518843 1.11676e-19)
(1.20502 0.518843 1.11676e-19)
(1.10432 0.550521 9.09652e-20)
(1.15788 0.564062 -1.1766e-19)
(1.15788 0.564062 -1.1766e-19)
(0.819121 0.443432 2.17284e-19)
(0.986508 0.532515 5.95199e-20)
(0.986508 0.532515 5.95199e-20)
(0.565388 0.325969 3.2417e-19)
(0.565388 0.325969 3.2417e-19)
(0.224967 0.137331 4.61644e-20)
(0.224967 0.137331 4.61644e-20)
(0.223791 -0.136815 -8.1875e-20)
(0.223791 -0.136815 -8.1875e-20)
(0.564523 -0.326458 -4.02878e-19)
(0.564523 -0.326458 -4.02878e-19)
(0.819656 -0.445984 -1.18841e-19)
(0.989577 -0.537596 -2.67603e-19)
(0.989577 -0.537596 -2.67603e-19)
(1.10887 -0.557364 -3.05234e-19)
(1.16401 -0.572343 2.18989e-19)
(1.16401 -0.572343 2.18989e-19)
(1.20891 -0.545255 -9.5262e-20)
(1.21245 -0.528453 1.4671e-19)
(1.21245 -0.528453 1.4671e-19)
(1.22916 -0.489902 -1.75971e-19)
(1.21804 -0.466493 2.02171e-19)
(1.21804 -0.466493 2.02171e-19)
(1.22681 -0.42989 5.1981e-20)
(1.21414 -0.408047 4.29856e-21)
(1.20248 -0.387019 -1.01559e-19)
(1.20248 -0.387019 -1.01559e-19)
(1.2097 -0.35705 3.57725e-20)
(1.19977 -0.338953 5.09798e-20)
(1.19111 -0.321746 -8.67759e-20)
(1.19111 -0.321746 -8.67759e-20)
(1.19851 -0.297464 2.11504e-20)
(1.19152 -0.282627 -6.12475e-20)
(1.18536 -0.268477 5.48958e-20)
(1.18536 -0.268477 5.48958e-20)
(1.19181 -0.248763 -3.18151e-20)
(1.18486 -0.237411 1.46476e-20)
(1.16041 0.186313 2.10725e-21)
(1.13962 0.169091 1.05206e-21)
(1.13039 0.131634 2.72707e-21)
(1.12074 0.118634 -1.97855e-21)
(1.11168 0.0987289 9.93316e-22)
(1.10657 0.086388 1.72736e-21)
(1.09938 0.0762949 1.83385e-22)
(1.09246 0.0661462 -5.67993e-22)
(1.08861 0.0571183 3.43484e-22)
(1.08511 0.0504172 -1.0755e-21)
(1.08072 0.0449993 3.19964e-22)
(1.07563 0.0399886 -3.24406e-22)
(1.07143 0.0337634 -2.33301e-22)
(1.069 0.0299649 3.33129e-23)
(1.06497 0.0243022 2.53549e-23)
(1.06462 0.0210003 1.07166e-22)
(1.0603 0.017523 -6.14904e-23)
(1.05888 0.0132419 2.44921e-22)
(1.05699 0.00883884 -7.6623e-23)
(1.05766 0.00514331 2.79522e-22)
(1.05766 0.00514331 2.79522e-22)
(1.05463 0.00366383 -6.10232e-22)
(1.0667 -0.0249389 -1.98092e-22)
(1.06518 -0.0207758 -1.78119e-22)
(1.06092 -0.017821 3.16538e-22)
(1.05958 -0.0132543 2.95157e-22)
(1.05786 -0.00994584 -1.94904e-22)
(1.05836 -0.00661137 2.82062e-22)
(1.05715 -0.00512782 1.78358e-22)
(1.05538 -0.00172289 -8.61607e-23)
(1.17314 -0.192852 7.61282e-21)
(1.15386 -0.173306 -6.46587e-21)
(1.14462 -0.134497 -4.86348e-21)
(1.1331 -0.119036 -1.05028e-21)
(1.12434 -0.0987488 1.97998e-21)
(1.11441 -0.0867169 2.38644e-22)
(1.10492 -0.074357 2.18615e-22)
(1.09802 -0.0627432 4.16869e-22)
(1.09199 -0.0560878 3.88538e-22)
(1.08363 -0.0472468 4.40476e-22)
(1.08035 -0.0404006 -1.26168e-22)
(1.07372 -0.0352522 -6.53426e-24)
(1.0667 -0.0249389 -1.98092e-22)
(1.07114 -0.0283318 -3.37692e-23)
)
;
    }
}


// ************************************************************************* //
