/*--------------------------------*- C++ -*----------------------------------*\
  =========                 |
  \\      /  F ield         | OpenFOAM: The Open Source CFD Toolbox
   \\    /   O peration     | Website:  https://openfoam.org
    \\  /    A nd           | Version:  7
     \\/     M anipulation  |
\*---------------------------------------------------------------------------*/
FoamFile
{
    version     2.0;
    format      ascii;
    class       volScalarField;
    location    "55";
    object      p;
}
// * * * * * * * * * * * * * * * * * * * * * * * * * * * * * * * * * * * * * //

dimensions      [0 2 -2 0 0 0 0];

internalField   nonuniform List<scalar> 
36
(
-0.542092
-0.555195
-0.494855
-0.451622
-0.559356
-0.497175
-0.450557
-0.402488
-0.351207
-0.300172
-0.252149
-0.208897
-0.111219
-0.559356
-0.497175
-0.450557
-0.402488
-0.351207
-0.300172
-0.252149
-0.208897
-0.555195
-0.494855
-0.451622
-0.542092
-0.0814861
-0.0814861
-0.0566728
-0.0377459
-0.0236332
-0.012826
-0.00457946
0.00175737
0.00658597
0.0101797
0.0127314
)
;

boundaryField
{
    inlet
    {
        type            zeroGradient;
    }
    outlet
    {
        type            fixedValue;
        value           nonuniform 0();
    }
    cylinder
    {
        type            zeroGradient;
    }
    top
    {
        type            symmetryPlane;
    }
    bottom
    {
        type            symmetryPlane;
    }
    defaultFaces
    {
        type            empty;
    }
    procBoundary24to21
    {
        type            processor;
        value           uniform -0.0555537;
    }
    procBoundary24to22
    {
        type            processor;
        value           nonuniform List<scalar> 
11
(
-0.0805274
-0.0555537
-0.0359396
-0.0202991
-0.00888396
4.00382e-05
0.0068409
0.0120816
0.0160767
0.0190451
0.0211416
)
;
    }
    procBoundary24to23
    {
        type            processor;
        value           nonuniform List<scalar> 
20
(
-0.551914
-0.489681
-0.439918
-0.386607
-0.329823
-0.274512
-0.224044
-0.180053
-0.111219
-0.551914
-0.489681
-0.439918
-0.386607
-0.329823
-0.274512
-0.224044
-0.180053
-0.142688
-0.0566728
0.0143734
)
;
    }
    procBoundary24to25
    {
        type            processor;
        value           nonuniform List<scalar> 
26
(
-0.522635
-0.485188
-0.485188
-0.408788
-0.408788
-0.363448
-0.171118
-0.138338
-0.408788
-0.363448
-0.171118
-0.485188
-0.408788
-0.485188
-0.522635
-0.104748
-0.104748
-0.0758248
-0.0539804
-0.0376172
-0.0250854
-0.015506
-0.00814673
-0.00253576
0.00164622
0.00462674
)
;
    }
    procBoundary24to26
    {
        type            processor;
        value           nonuniform List<scalar> 8(-0.445476 -0.317672 -0.27339 -0.232186 -0.317672 -0.27339 -0.232186 -0.445476);
    }
}


// ************************************************************************* //
