/*--------------------------------*- C++ -*----------------------------------*\
  =========                 |
  \\      /  F ield         | OpenFOAM: The Open Source CFD Toolbox
   \\    /   O peration     | Website:  https://openfoam.org
    \\  /    A nd           | Version:  7
     \\/     M anipulation  |
\*---------------------------------------------------------------------------*/
FoamFile
{
    version     2.0;
    format      ascii;
    class       volScalarField;
    location    "35";
    object      p;
}
// * * * * * * * * * * * * * * * * * * * * * * * * * * * * * * * * * * * * * //

dimensions      [0 2 -2 0 0 0 0];

internalField   nonuniform List<scalar> 
392
(
-0.0220679
-0.0212417
-0.0204446
-0.0220774
-0.0212508
-0.0204534
-0.0220965
-0.0212691
-0.0204709
-0.022125
-0.0212965
-0.0204973
-0.022163
-0.021333
-0.0205323
-0.0222105
-0.0213786
-0.0205761
-0.0222673
-0.0214332
-0.0206286
-0.0223336
-0.0214968
-0.0206897
-0.0224091
-0.0215694
-0.0207594
-0.022494
-0.0216509
-0.0208377
-0.022588
-0.0217412
-0.0209244
-0.0226911
-0.0218402
-0.0210195
-0.0228032
-0.0219478
-0.0211229
-0.0229242
-0.0220641
-0.0212345
-0.023054
-0.0221887
-0.0213542
-0.0231925
-0.0223216
-0.0214819
-0.0206717
-0.0224627
-0.0216174
-0.0208018
-0.0226119
-0.0217606
-0.0209394
-0.022769
-0.0219115
-0.0210843
-0.022933
-0.0220689
-0.0212355
-0.023103
-0.0222322
-0.0213923
-0.0232854
-0.0224073
-0.0215604
-0.023496
-0.0226091
-0.0217539
-0.0236927
-0.0227976
-0.0219346
-0.0238028
-0.0229056
-0.0220406
-0.0241557
-0.0232504
-0.0223771
-0.0245069
-0.0235942
-0.0227136
-0.0248737
-0.0239538
-0.0230658
-0.0252657
-0.0243384
-0.0234428
-0.0256787
-0.0247439
-0.0238407
-0.0261088
-0.0251668
-0.0242561
-0.0265526
-0.0256036
-0.0246856
-0.0270064
-0.0260507
-0.0251257
-0.027466
-0.0265042
-0.0255726
-0.0279274
-0.0269602
-0.0260226
-0.028387
-0.0274149
-0.0264719
-0.0288409
-0.0278648
-0.0269171
-0.029286
-0.0283066
-0.027355
-0.0297195
-0.0287376
-0.0277828
-0.0301388
-0.0291553
-0.028198
-0.0305421
-0.0295576
-0.0285986
-0.0309276
-0.029943
-0.028983
-0.0312944
-0.0303102
-0.0293499
-0.0284129
-0.0316416
-0.0306584
-0.0296983
-0.0287608
-0.0319686
-0.030987
-0.0300277
-0.0290903
-0.0322754
-0.0312958
-0.0303378
-0.0294008
-0.0325619
-0.0315847
-0.0306283
-0.0296921
-0.0328283
-0.0318538
-0.0308993
-0.0299644
-0.0321035
-0.0311511
-0.0302177
-0.032334
-0.031384
-0.0304523
-0.0325458
-0.0315984
-0.0306685
-0.0327395
-0.0317947
-0.0308668
-0.0329157
-0.0319734
-0.0310475
-0.0330748
-0.0321351
-0.0312112
-0.0332174
-0.0322802
-0.0313583
-0.0333441
-0.0324092
-0.0314892
-0.0334554
-0.0325226
-0.0316044
-0.0335517
-0.0326209
-0.0317042
-0.0336334
-0.0327043
-0.0317891
-0.0337009
-0.0327733
-0.0318593
-0.0337546
-0.0328282
-0.0319152
-0.0337946
-0.0328691
-0.0319569
-0.0338211
-0.0328963
-0.0319846
-0.0338344
-0.0329099
-0.0319984
-0.0238028
-0.0241558
-0.0245069
-0.0248738
-0.0252657
-0.0256787
-0.0261088
-0.0265527
-0.0270064
-0.027466
-0.0279275
-0.028387
-0.0288409
-0.0292861
-0.0297195
-0.0301388
-0.0305421
-0.0309277
-0.0312944
-0.0316416
-0.0319686
-0.0322754
-0.0325619
-0.0328283
-0.0330749
-0.0333023
-0.033511
-0.0337015
-0.0338744
-0.0340304
-0.03417
-0.0342939
-0.0344026
-0.0344965
-0.0345762
-0.0346419
-0.0346941
-0.034733
-0.0347589
-0.0347717
-0.0229057
-0.0232504
-0.0235943
-0.0239539
-0.0243384
-0.024744
-0.0251668
-0.0256037
-0.0260508
-0.0265043
-0.0269602
-0.0274149
-0.0278648
-0.0283067
-0.0287376
-0.0291553
-0.0295576
-0.029943
-0.0303102
-0.0306584
-0.0309871
-0.0312959
-0.0315847
-0.0318539
-0.0321035
-0.032334
-0.0325458
-0.0327396
-0.0329157
-0.0330748
-0.0332174
-0.0333441
-0.0334554
-0.0335517
-0.0336334
-0.0337009
-0.0337546
-0.0337946
-0.0338212
-0.0338344
-0.0220406
-0.0223771
-0.0227136
-0.0230659
-0.0234428
-0.0238408
-0.0242561
-0.0246856
-0.0251257
-0.0255726
-0.0260226
-0.0264719
-0.0269172
-0.0273551
-0.0277828
-0.028198
-0.0285987
-0.028983
-0.0293499
-0.0296984
-0.0300278
-0.0303378
-0.0306283
-0.0308993
-0.0311511
-0.031384
-0.0315984
-0.0317947
-0.0319734
-0.0321351
-0.0322802
-0.0324092
-0.0325226
-0.0326209
-0.0327043
-0.0327733
-0.0328282
-0.0328691
-0.0328963
-0.0329099
-0.0236927
-0.0227977
-0.0219347
-0.023496
-0.0226092
-0.021754
-0.0232854
-0.0224073
-0.0215604
-0.023103
-0.0222322
-0.0213923
-0.022933
-0.022069
-0.0212355
-0.022769
-0.0219115
-0.0210843
-0.022612
-0.0217607
-0.0209395
-0.0224628
-0.0216174
-0.0208019
-0.0231925
-0.0223217
-0.0214819
-0.0206718
-0.0230541
-0.0221887
-0.0213543
-0.0229243
-0.0220641
-0.0212346
-0.0228032
-0.0219479
-0.021123
-0.0226911
-0.0218402
-0.0210195
-0.022588
-0.0217412
-0.0209244
-0.022494
-0.0216509
-0.0208377
-0.0224092
-0.0215694
-0.0207595
-0.0223336
-0.0214969
-0.0206897
-0.0222673
-0.0214332
-0.0206286
-0.0222105
-0.0213786
-0.0205761
-0.022163
-0.021333
-0.0205324
-0.022125
-0.0212965
-0.0204973
-0.0220965
-0.0212691
-0.020471
-0.0220774
-0.0212508
-0.0204534
-0.0220679
-0.0212417
-0.0204446
)
;

boundaryField
{
    inlet
    {
        type            zeroGradient;
    }
    outlet
    {
        type            fixedValue;
        value           nonuniform 0();
    }
    cylinder
    {
        type            zeroGradient;
    }
    top
    {
        type            symmetryPlane;
    }
    bottom
    {
        type            symmetryPlane;
    }
    defaultFaces
    {
        type            empty;
    }
    procBoundary46to45
    {
        type            processor;
        value           nonuniform List<scalar> 
131
(
-0.0229249
-0.0229348
-0.0229546
-0.0229843
-0.0230239
-0.0230733
-0.0231325
-0.0232015
-0.0232802
-0.0233685
-0.0234664
-0.0235738
-0.0236906
-0.0238166
-0.0239519
-0.0240961
-0.0233395
-0.0233395
-0.0234949
-0.0236585
-0.0238293
-0.0240064
-0.0241964
-0.0244161
-0.0246213
-0.0247336
-0.0250948
-0.0254531
-0.0258271
-0.0262263
-0.0266464
-0.0270835
-0.027534
-0.0279939
-0.0284591
-0.0289255
-0.0293892
-0.0298466
-0.0302942
-0.0307293
-0.0311495
-0.0315528
-0.0319377
-0.0323031
-0.0326483
-0.0329729
-0.0332768
-0.0335599
-0.0338228
-0.0330749
-0.0330749
-0.0333023
-0.033511
-0.0337015
-0.0338744
-0.0340304
-0.03417
-0.0342939
-0.0344026
-0.0344965
-0.0345762
-0.0346419
-0.0346941
-0.034733
-0.0347589
-0.0347717
-0.0247336
-0.0250948
-0.0254532
-0.0258271
-0.0262263
-0.0266465
-0.0270836
-0.027534
-0.0279939
-0.0284592
-0.0289256
-0.0293893
-0.0298466
-0.0302942
-0.0307294
-0.0311495
-0.0315528
-0.0319378
-0.0323032
-0.0326484
-0.0329729
-0.0332768
-0.03356
-0.0338228
-0.0340657
-0.0342892
-0.0344939
-0.0346804
-0.0348495
-0.0350017
-0.0351378
-0.0352584
-0.035364
-0.0354551
-0.0355324
-0.0355961
-0.0356466
-0.0356842
-0.0357092
-0.0357216
-0.0246214
-0.0244162
-0.0241964
-0.0240064
-0.0238294
-0.0236585
-0.0234949
-0.0233395
-0.0233395
-0.0240961
-0.0239519
-0.0238167
-0.0236906
-0.0235738
-0.0234664
-0.0233685
-0.0232802
-0.0232015
-0.0231325
-0.0230733
-0.0230239
-0.0229843
-0.0229546
-0.0229348
-0.0229249
)
;
    }
    procBoundary46to47
    {
        type            processor;
        value           nonuniform List<scalar> 
131
(
-0.0196753
-0.0196837
-0.0197006
-0.0197259
-0.0197596
-0.0198016
-0.0198521
-0.0199108
-0.0199778
-0.0200529
-0.0201362
-0.0202276
-0.0203269
-0.0204341
-0.0205491
-0.0205491
-0.0198897
-0.0200147
-0.0201468
-0.0202859
-0.0204312
-0.0205818
-0.0207432
-0.0209288
-0.021102
-0.0212059
-0.0215343
-0.0218633
-0.0222082
-0.0225775
-0.0229676
-0.0233752
-0.0237971
-0.0242299
-0.0246699
-0.0251134
-0.0255569
-0.0259969
-0.0264302
-0.0268542
-0.0272663
-0.0276645
-0.0280471
-0.0280471
-0.0274987
-0.0278454
-0.0281742
-0.0284844
-0.028776
-0.0290489
-0.029303
-0.0295387
-0.0297562
-0.0299558
-0.030138
-0.0303032
-0.0304518
-0.0305842
-0.0307007
-0.0308019
-0.0308879
-0.0309591
-0.0310158
-0.0310581
-0.0310863
-0.0311003
-0.021206
-0.0215343
-0.0218634
-0.0222082
-0.0225775
-0.0229677
-0.0233753
-0.0237972
-0.0242299
-0.0246699
-0.0251135
-0.0255569
-0.0259969
-0.0264303
-0.0268542
-0.0272663
-0.0276645
-0.0280472
-0.0284129
-0.0287609
-0.0290903
-0.0294008
-0.0296922
-0.0299644
-0.0302177
-0.0304523
-0.0306685
-0.0308668
-0.0310475
-0.0312112
-0.0313583
-0.0314892
-0.0316044
-0.0317042
-0.0317891
-0.0318593
-0.0319152
-0.0319569
-0.0319846
-0.0319984
-0.0211021
-0.0209289
-0.0207433
-0.0205818
-0.0204312
-0.020286
-0.0201468
-0.0200147
-0.0198897
-0.0205491
-0.0205491
-0.0204342
-0.020327
-0.0202276
-0.0201363
-0.020053
-0.0199778
-0.0199108
-0.0198521
-0.0198017
-0.0197596
-0.0197259
-0.0197006
-0.0196837
-0.0196753
)
;
    }
}


// ************************************************************************* //
