/*--------------------------------*- C++ -*----------------------------------*\
  =========                 |
  \\      /  F ield         | OpenFOAM: The Open Source CFD Toolbox
   \\    /   O peration     | Website:  https://openfoam.org
    \\  /    A nd           | Version:  7
     \\/     M anipulation  |
\*---------------------------------------------------------------------------*/
FoamFile
{
    version     2.0;
    format      ascii;
    class       volScalarField;
    location    "24";
    object      p;
}
// * * * * * * * * * * * * * * * * * * * * * * * * * * * * * * * * * * * * * //

dimensions      [0 2 -2 0 0 0 0];

internalField   nonuniform List<scalar> 
40000
(
-0.263797
-0.264684
-0.265352
-0.265899
-0.266393
-0.266835
-0.267232
-0.267592
-0.267925
-0.268237
-0.268534
-0.268819
-0.269095
-0.269363
-0.269623
-0.269874
-0.270115
-0.270343
-0.270554
-0.270747
-0.270917
-0.271062
-0.271181
-0.271273
-0.271337
-0.271376
-0.271393
-0.271392
-0.271378
-0.271366
-0.263903
-0.264784
-0.265447
-0.26599
-0.26648
-0.26692
-0.267314
-0.267672
-0.268003
-0.268312
-0.268607
-0.268889
-0.269163
-0.26943
-0.269688
-0.269938
-0.270177
-0.270402
-0.270612
-0.270802
-0.27097
-0.271113
-0.271229
-0.271316
-0.271377
-0.271411
-0.271424
-0.271419
-0.271397
-0.271382
-0.264113
-0.264981
-0.265635
-0.266171
-0.266655
-0.267088
-0.267477
-0.26783
-0.268156
-0.268461
-0.268751
-0.26903
-0.2693
-0.269562
-0.269817
-0.270063
-0.270298
-0.27052
-0.270726
-0.270912
-0.271075
-0.271212
-0.271322
-0.271403
-0.271455
-0.27148
-0.271484
-0.271469
-0.271435
-0.271412
-0.264424
-0.265275
-0.265915
-0.26644
-0.266914
-0.267338
-0.267719
-0.268064
-0.268383
-0.268682
-0.268965
-0.269238
-0.269502
-0.269759
-0.270008
-0.270248
-0.270478
-0.270695
-0.270894
-0.271074
-0.27123
-0.271359
-0.271459
-0.271529
-0.271569
-0.271581
-0.271571
-0.271542
-0.271488
-0.271453
-0.264835
-0.265661
-0.266284
-0.266795
-0.267256
-0.267668
-0.268038
-0.268373
-0.268683
-0.268972
-0.269247
-0.269512
-0.269768
-0.270017
-0.270258
-0.270492
-0.270714
-0.270923
-0.271114
-0.271285
-0.271432
-0.27155
-0.271638
-0.271693
-0.271716
-0.27171
-0.271681
-0.271633
-0.271551
-0.2715
-0.265341
-0.266137
-0.266738
-0.267232
-0.267677
-0.268075
-0.268431
-0.268753
-0.269051
-0.269329
-0.269593
-0.269847
-0.270094
-0.270333
-0.270565
-0.270789
-0.271002
-0.271201
-0.271383
-0.271543
-0.271677
-0.271782
-0.271854
-0.271891
-0.271893
-0.271863
-0.271809
-0.271737
-0.271621
-0.271546
-0.265936
-0.266698
-0.267274
-0.267747
-0.268173
-0.268554
-0.268893
-0.269201
-0.269484
-0.269749
-0.27
-0.270241
-0.270475
-0.270703
-0.270924
-0.271136
-0.271338
-0.271525
-0.271695
-0.271842
-0.271962
-0.27205
-0.272103
-0.272119
-0.272095
-0.272036
-0.271952
-0.271848
-0.271689
-0.271582
-0.266615
-0.267339
-0.267887
-0.268336
-0.26874
-0.269101
-0.269422
-0.269712
-0.269979
-0.270227
-0.270463
-0.270689
-0.270909
-0.271122
-0.271329
-0.271528
-0.271717
-0.271891
-0.272046
-0.272178
-0.272281
-0.272351
-0.272382
-0.272371
-0.272318
-0.272224
-0.272102
-0.271961
-0.271751
-0.271597
-0.267373
-0.268054
-0.26857
-0.268994
-0.269374
-0.269712
-0.270012
-0.270282
-0.270529
-0.270759
-0.270977
-0.271186
-0.271389
-0.271586
-0.271777
-0.27196
-0.272133
-0.272291
-0.27243
-0.272545
-0.272629
-0.272677
-0.272683
-0.272643
-0.272555
-0.27242
-0.272254
-0.272069
-0.271798
-0.271578
-0.268201
-0.268837
-0.26932
-0.269715
-0.270069
-0.270382
-0.270658
-0.270906
-0.271131
-0.27134
-0.271537
-0.271726
-0.271909
-0.272087
-0.27226
-0.272425
-0.27258
-0.272721
-0.272842
-0.272937
-0.273
-0.273024
-0.273002
-0.27293
-0.272802
-0.27262
-0.272401
-0.272164
-0.271825
-0.271504
-0.269094
-0.269683
-0.270129
-0.270494
-0.270819
-0.271105
-0.271356
-0.271578
-0.271779
-0.271964
-0.272138
-0.272304
-0.272465
-0.272621
-0.272773
-0.272917
-0.273052
-0.273173
-0.273273
-0.273348
-0.273388
-0.273385
-0.273333
-0.273224
-0.273053
-0.272819
-0.272537
-0.27224
-0.271831
-0.271341
-0.270044
-0.270584
-0.270993
-0.271326
-0.271621
-0.271878
-0.2721
-0.272295
-0.272468
-0.272626
-0.272773
-0.272913
-0.273049
-0.273181
-0.273308
-0.27343
-0.273542
-0.27364
-0.273718
-0.273769
-0.273784
-0.273754
-0.27367
-0.273522
-0.273303
-0.27301
-0.272656
-0.272292
-0.271823
-0.271009
-0.271045
-0.271536
-0.271907
-0.272207
-0.272469
-0.272694
-0.272885
-0.27305
-0.273193
-0.273321
-0.273438
-0.273549
-0.273656
-0.27376
-0.273861
-0.273956
-0.274043
-0.274116
-0.274169
-0.274195
-0.274183
-0.274124
-0.274005
-0.273817
-0.273548
-0.273191
-0.272757
-0.272317
-0.271814
-0.27049
-0.272091
-0.272533
-0.272865
-0.27313
-0.273358
-0.27355
-0.273708
-0.273839
-0.273949
-0.274043
-0.274128
-0.274206
-0.274281
-0.274353
-0.274423
-0.274489
-0.274547
-0.274593
-0.274619
-0.274617
-0.274577
-0.274486
-0.274333
-0.274102
-0.27378
-0.273356
-0.272837
-0.272293
-0.271628
-0.270289
-0.273177
-0.27357
-0.273863
-0.274093
-0.274285
-0.274441
-0.274563
-0.274658
-0.274731
-0.274789
-0.274836
-0.274878
-0.274916
-0.274953
-0.274989
-0.275022
-0.275048
-0.275063
-0.275059
-0.275027
-0.274957
-0.274834
-0.274644
-0.274371
-0.273995
-0.273502
-0.272894
-0.272237
-0.271379
-0.269944
-0.274297
-0.274644
-0.274897
-0.275091
-0.275247
-0.275365
-0.275448
-0.275503
-0.275536
-0.275553
-0.275559
-0.27556
-0.275558
-0.275555
-0.275552
-0.275548
-0.275539
-0.275519
-0.275482
-0.275418
-0.275316
-0.27516
-0.274933
-0.274616
-0.274187
-0.273623
-0.272922
-0.272147
-0.271105
-0.269409
-0.275449
-0.275751
-0.275966
-0.276123
-0.27624
-0.276318
-0.27636
-0.276372
-0.276361
-0.276333
-0.276294
-0.276248
-0.276201
-0.276154
-0.276108
-0.276062
-0.276013
-0.275955
-0.275882
-0.275783
-0.275646
-0.275455
-0.27519
-0.27483
-0.274348
-0.273714
-0.272917
-0.272018
-0.270797
-0.268706
-0.276631
-0.276889
-0.277067
-0.277186
-0.277264
-0.2773
-0.277298
-0.277263
-0.277204
-0.277126
-0.277036
-0.27694
-0.276843
-0.276746
-0.276652
-0.27656
-0.276466
-0.276366
-0.276252
-0.276114
-0.27594
-0.275711
-0.275408
-0.275004
-0.27447
-0.273768
-0.272873
-0.271846
-0.270456
-0.267839
-0.277841
-0.278059
-0.2782
-0.278282
-0.278318
-0.278309
-0.278259
-0.278175
-0.278062
-0.27793
-0.277785
-0.277633
-0.27748
-0.277329
-0.277181
-0.277036
-0.276893
-0.276745
-0.276587
-0.276407
-0.276191
-0.275922
-0.275578
-0.27513
-0.274544
-0.273775
-0.272785
-0.271627
-0.270087
-0.266811
-0.27908
-0.279262
-0.279366
-0.27941
-0.279403
-0.279347
-0.279246
-0.279107
-0.278938
-0.278746
-0.27854
-0.278327
-0.278112
-0.2779
-0.277693
-0.277491
-0.277292
-0.277092
-0.276884
-0.276656
-0.276395
-0.276083
-0.275694
-0.275199
-0.27456
-0.273727
-0.272643
-0.27135
-0.269699
-0.265626
-0.280353
-0.2805
-0.280569
-0.280573
-0.280521
-0.280415
-0.28026
-0.280062
-0.27983
-0.279574
-0.279301
-0.279021
-0.278739
-0.27846
-0.278187
-0.277922
-0.277663
-0.277405
-0.277141
-0.276861
-0.27655
-0.276189
-0.275752
-0.275206
-0.274512
-0.273613
-0.272439
-0.271004
-0.269297
-0.264303
-0.281662
-0.281778
-0.281812
-0.281776
-0.281677
-0.281517
-0.281303
-0.281042
-0.280743
-0.280416
-0.280071
-0.279718
-0.279362
-0.279011
-0.278667
-0.278333
-0.278007
-0.277685
-0.277361
-0.277023
-0.276656
-0.276241
-0.27575
-0.275149
-0.274393
-0.273426
-0.272163
-0.270575
-0.268877
-0.262875
-0.283016
-0.283102
-0.283101
-0.283023
-0.282874
-0.282658
-0.28238
-0.282051
-0.281679
-0.281277
-0.280854
-0.280421
-0.279986
-0.279556
-0.279135
-0.278726
-0.278327
-0.277936
-0.277546
-0.277144
-0.276717
-0.276242
-0.275691
-0.275028
-0.274205
-0.273163
-0.271811
-0.270054
-0.268428
-0.261386
-0.284423
-0.28448
-0.284443
-0.284321
-0.284119
-0.283842
-0.283497
-0.283094
-0.282645
-0.282161
-0.281654
-0.281136
-0.280616
-0.280101
-0.279598
-0.279108
-0.278632
-0.278166
-0.277704
-0.277233
-0.276739
-0.276198
-0.27558
-0.274848
-0.27395
-0.272825
-0.271382
-0.269439
-0.267926
-0.259901
-0.285894
-0.285921
-0.285848
-0.285679
-0.285421
-0.285079
-0.284661
-0.284179
-0.283646
-0.283075
-0.282479
-0.28187
-0.281259
-0.280654
-0.280063
-0.279487
-0.278928
-0.278383
-0.277843
-0.277299
-0.276731
-0.276118
-0.275427
-0.274617
-0.273635
-0.272417
-0.270877
-0.268743
-0.267344
-0.2585
-0.28744
-0.287438
-0.287326
-0.287106
-0.286787
-0.286375
-0.28588
-0.285314
-0.284692
-0.284028
-0.283336
-0.282631
-0.281924
-0.281225
-0.28054
-0.279874
-0.279228
-0.278598
-0.277976
-0.277352
-0.276706
-0.276013
-0.275241
-0.274346
-0.27327
-0.271949
-0.270301
-0.267989
-0.266643
-0.25728
-0.289077
-0.289043
-0.288887
-0.288614
-0.288229
-0.287742
-0.287163
-0.286508
-0.28579
-0.285028
-0.284237
-0.28343
-0.282623
-0.281824
-0.281042
-0.280281
-0.279542
-0.278823
-0.278116
-0.277406
-0.276675
-0.275896
-0.275034
-0.274044
-0.272865
-0.271432
-0.269655
-0.267201
-0.265753
-0.256278
-0.29082
-0.290749
-0.290546
-0.290213
-0.289758
-0.28919
-0.288522
-0.287771
-0.286953
-0.286087
-0.28519
-0.284278
-0.283365
-0.282463
-0.281579
-0.28072
-0.279886
-0.279074
-0.278274
-0.277474
-0.276651
-0.275778
-0.274816
-0.27372
-0.272429
-0.270878
-0.268953
-0.26642
-0.264553
-0.255376
-0.292685
-0.292573
-0.292317
-0.291918
-0.291386
-0.29073
-0.289967
-0.289115
-0.288191
-0.287217
-0.28621
-0.285188
-0.284166
-0.283156
-0.282168
-0.281206
-0.280273
-0.279362
-0.278466
-0.277568
-0.276644
-0.275666
-0.274594
-0.273381
-0.271968
-0.270302
-0.26824
-0.265749
-0.263069
-0.254775
-0.294691
-0.294528
-0.294213
-0.293742
-0.293125
-0.292376
-0.291512
-0.290552
-0.289517
-0.288429
-0.287308
-0.286172
-0.285037
-0.283917
-0.282821
-0.281754
-0.280716
-0.279703
-0.278703
-0.277698
-0.276663
-0.275566
-0.274367
-0.273021
-0.271475
-0.269694
-0.267538
-0.265258
-0.261847
-0.256669
-0.296854
-0.296633
-0.29625
-0.295699
-0.294991
-0.294141
-0.293168
-0.292095
-0.290944
-0.289738
-0.288498
-0.287244
-0.285994
-0.28476
-0.283552
-0.282376
-0.28123
-0.280107
-0.278995
-0.277872
-0.276711
-0.275478
-0.274131
-0.272629
-0.270927
-0.269009
-0.266767
-0.264675
-0.261414
-0.263738
-0.299195
-0.298903
-0.298443
-0.297805
-0.296997
-0.296038
-0.29495
-0.293758
-0.292485
-0.291156
-0.289794
-0.288419
-0.287049
-0.285699
-0.284377
-0.283086
-0.281825
-0.280585
-0.279349
-0.278093
-0.276788
-0.275395
-0.273875
-0.272187
-0.270293
-0.268195
-0.265827
-0.263652
-0.260624
-0.26215
-0.30173
-0.301356
-0.300807
-0.300072
-0.299156
-0.298081
-0.296871
-0.295553
-0.294153
-0.292697
-0.291209
-0.28971
-0.288219
-0.286748
-0.285307
-0.283896
-0.282513
-0.281144
-0.279769
-0.278362
-0.276889
-0.275309
-0.273582
-0.271671
-0.269545
-0.267211
-0.264633
-0.262175
-0.259025
-0.25893
-0.304477
-0.304007
-0.303359
-0.302517
-0.301483
-0.300284
-0.298945
-0.297496
-0.295963
-0.294376
-0.292758
-0.291131
-0.289514
-0.28792
-0.286353
-0.284816
-0.283299
-0.281787
-0.280256
-0.278674
-0.277004
-0.275204
-0.273235
-0.271061
-0.268658
-0.266036
-0.263172
-0.26033
-0.25689
-0.255434
-0.307453
-0.306871
-0.306113
-0.305153
-0.303993
-0.30266
-0.301185
-0.299598
-0.297929
-0.296205
-0.294454
-0.292696
-0.29095
-0.289225
-0.287527
-0.285852
-0.284188
-0.282515
-0.280804
-0.279019
-0.27712
-0.275065
-0.272814
-0.270338
-0.267617
-0.264664
-0.261464
-0.258204
-0.254423
-0.251855
-0.310675
-0.309965
-0.309083
-0.307995
-0.306698
-0.305224
-0.303605
-0.301875
-0.300063
-0.2982
-0.296311
-0.294418
-0.292536
-0.290675
-0.288835
-0.28701
-0.285181
-0.283324
-0.281405
-0.279384
-0.27722
-0.274871
-0.272301
-0.269486
-0.266415
-0.263102
-0.259542
-0.255871
-0.251746
-0.248377
-0.314157
-0.313302
-0.312283
-0.311055
-0.309612
-0.307988
-0.306219
-0.304339
-0.30238
-0.300372
-0.298341
-0.296307
-0.294284
-0.292277
-0.290283
-0.288289
-0.286274
-0.284205
-0.282046
-0.279753
-0.277285
-0.274604
-0.271679
-0.268496
-0.265051
-0.261364
-0.257439
-0.253384
-0.248944
-0.244999
-0.317913
-0.316895
-0.315725
-0.314348
-0.312748
-0.310965
-0.309039
-0.307003
-0.304892
-0.302735
-0.300556
-0.298375
-0.296202
-0.294037
-0.291872
-0.289688
-0.287459
-0.285146
-0.282709
-0.280106
-0.277295
-0.274245
-0.270935
-0.26736
-0.263527
-0.259464
-0.255184
-0.25078
-0.246059
-0.241706
-0.321954
-0.320755
-0.319422
-0.317883
-0.316117
-0.314168
-0.312077
-0.309881
-0.307612
-0.3053
-0.302968
-0.300631
-0.298295
-0.295956
-0.293599
-0.2912
-0.288723
-0.28613
-0.283376
-0.280421
-0.277229
-0.273778
-0.270058
-0.266075
-0.26185
-0.257417
-0.252798
-0.248081
-0.243111
-0.238462
-0.326291
-0.324894
-0.323383
-0.321672
-0.319732
-0.317609
-0.315347
-0.312983
-0.310551
-0.308078
-0.305585
-0.303081
-0.300568
-0.298034
-0.295459
-0.292811
-0.290051
-0.287135
-0.284022
-0.280675
-0.277067
-0.273187
-0.269039
-0.264641
-0.260026
-0.255235
-0.250298
-0.245297
-0.240107
-0.235232
-0.330932
-0.329319
-0.327618
-0.325725
-0.323601
-0.321297
-0.318858
-0.316322
-0.31372
-0.311079
-0.308413
-0.305728
-0.303018
-0.300265
-0.29744
-0.294506
-0.291419
-0.288138
-0.284623
-0.280845
-0.27679
-0.27246
-0.267872
-0.263059
-0.258062
-0.252928
-0.247692
-0.242433
-0.237045
-0.231984
-0.335883
-0.334036
-0.332133
-0.330049
-0.327733
-0.325241
-0.32262
-0.319905
-0.317127
-0.314307
-0.311456
-0.308571
-0.30564
-0.302636
-0.299524
-0.296261
-0.292804
-0.289111
-0.285152
-0.280909
-0.276381
-0.271586
-0.266555
-0.261331
-0.255963
-0.250503
-0.244988
-0.23949
-0.233919
-0.228694
-0.341147
-0.339051
-0.336933
-0.334649
-0.332136
-0.32945
-0.32664
-0.32374
-0.320777
-0.317767
-0.314713
-0.311606
-0.308423
-0.305132
-0.30169
-0.298052
-0.294175
-0.290026
-0.285584
-0.280845
-0.275825
-0.270557
-0.265083
-0.259457
-0.253733
-0.247962
-0.242184
-0.236462
-0.230719
-0.225342
-0.346726
-0.344363
-0.342021
-0.33953
-0.336813
-0.333928
-0.330923
-0.327831
-0.324672
-0.321456
-0.318178
-0.31482
-0.311351
-0.307729
-0.303909
-0.299846
-0.295502
-0.290853
-0.285892
-0.280634
-0.275109
-0.269364
-0.263455
-0.257438
-0.251372
-0.245307
-0.23928
-0.233346
-0.227438
-0.221911
-0.352614
-0.349972
-0.347396
-0.344692
-0.341765
-0.338676
-0.335471
-0.332177
-0.328809
-0.325368
-0.32184
-0.318197
-0.314399
-0.310399
-0.306149
-0.301609
-0.29675
-0.291561
-0.286054
-0.280258
-0.274221
-0.268003
-0.261666
-0.255273
-0.24888
-0.242534
-0.23627
-0.230134
-0.224067
-0.218391
-0.358806
-0.35587
-0.353054
-0.350131
-0.34699
-0.343692
-0.34028
-0.336774
-0.333181
-0.329491
-0.325681
-0.321712
-0.317537
-0.313106
-0.308373
-0.303305
-0.297886
-0.292122
-0.286044
-0.2797
-0.273151
-0.266466
-0.259715
-0.252959
-0.246253
-0.239639
-0.233149
-0.226817
-0.220595
-0.21477
-0.365289
-0.362049
-0.358985
-0.35584
-0.352483
-0.348971
-0.345343
-0.341612
-0.337773
-0.333806
-0.329675
-0.325334
-0.32073
-0.315812
-0.310541
-0.304894
-0.298874
-0.292507
-0.285842
-0.278944
-0.271887
-0.264747
-0.257594
-0.250491
-0.243485
-0.236615
-0.229907
-0.223386
-0.217015
-0.211039
-0.372046
-0.368491
-0.365176
-0.361808
-0.358231
-0.354499
-0.350646
-0.346673
-0.342563
-0.338284
-0.33379
-0.329025
-0.323935
-0.318472
-0.312608
-0.306337
-0.299682
-0.292689
-0.285428
-0.277977
-0.27042
-0.262837
-0.255299
-0.247861
-0.240569
-0.233454
-0.226536
-0.219833
-0.213315
-0.207191
-0.379053
-0.375178
-0.371609
-0.368015
-0.364216
-0.36026
-0.356169
-0.351934
-0.347523
-0.342892
-0.337984
-0.33274
-0.327104
-0.321038
-0.31453
-0.307594
-0.300275
-0.292643
-0.284781
-0.276784
-0.268739
-0.260729
-0.252819
-0.245063
-0.237497
-0.230146
-0.223027
-0.216148
-0.209488
-0.203217
-0.386282
-0.382082
-0.378258
-0.37444
-0.370417
-0.366228
-0.361885
-0.357362
-0.352615
-0.347587
-0.342211
-0.336427
-0.330184
-0.323461
-0.316261
-0.308626
-0.300623
-0.292342
-0.283884
-0.27535
-0.266833
-0.258411
-0.250146
-0.242084
-0.234256
-0.22668
-0.219367
-0.212319
-0.205523
-0.199108
-0.393695
-0.389169
-0.385092
-0.381051
-0.376801
-0.37237
-0.367757
-0.362918
-0.357795
-0.352318
-0.346416
-0.34003
-0.333122
-0.325687
-0.317756
-0.309395
-0.300695
-0.291765
-0.282719
-0.273663
-0.264689
-0.255872
-0.247268
-0.238915
-0.230837
-0.223046
-0.215547
-0.208338
-0.201411
-0.194857
-0.401251
-0.3964
-0.392074
-0.387812
-0.383332
-0.378648
-0.373742
-0.368554
-0.363009
-0.357027
-0.350538
-0.343488
-0.335858
-0.327666
-0.31897
-0.309864
-0.300461
-0.290888
-0.281267
-0.271705
-0.262294
-0.2531
-0.244173
-0.235542
-0.227226
-0.21923
-0.211555
-0.204193
-0.197143
-0.190456
-0.408897
-0.403727
-0.399157
-0.394677
-0.389963
-0.385012
-0.379788
-0.374212
-0.368195
-0.361651
-0.354512
-0.346739
-0.338334
-0.329345
-0.319859
-0.309997
-0.299894
-0.28969
-0.27951
-0.269463
-0.259633
-0.250081
-0.240846
-0.231953
-0.22341
-0.215221
-0.207379
-0.199875
-0.192708
-0.185897
-0.416577
-0.411096
-0.40629
-0.401594
-0.39664
-0.391407
-0.385835
-0.379829
-0.373286
-0.366119
-0.358269
-0.349716
-0.340491
-0.330673
-0.320381
-0.309761
-0.298967
-0.288148
-0.27743
-0.266919
-0.256691
-0.2468
-0.237275
-0.228133
-0.219378
-0.211006
-0.203009
-0.195372
-0.188099
-0.181172
-0.424225
-0.418445
-0.413412
-0.408503
-0.403303
-0.397767
-0.391815
-0.385331
-0.378207
-0.370356
-0.361736
-0.352353
-0.34227
-0.3316
-0.320495
-0.309124
-0.297654
-0.28624
-0.275008
-0.264057
-0.253453
-0.243241
-0.233443
-0.224068
-0.215115
-0.206574
-0.198433
-0.190676
-0.183305
-0.176274
-0.431769
-0.425704
-0.420455
-0.415336
-0.409882
-0.404021
-0.397652
-0.390642
-0.382878
-0.374286
-0.364841
-0.354584
-0.343614
-0.33208
-0.320163
-0.308054
-0.29593
-0.283946
-0.272226
-0.260858
-0.249901
-0.239389
-0.229336
-0.219745
-0.210608
-0.201912
-0.193641
-0.185777
-0.178319
-0.171196
-0.43913
-0.432799
-0.427345
-0.422019
-0.416301
-0.41009
-0.403263
-0.395677
-0.387218
-0.377827
-0.36751
-0.356344
-0.344467
-0.332067
-0.319349
-0.306521
-0.293769
-0.281245
-0.269064
-0.257305
-0.246019
-0.235228
-0.224939
-0.215149
-0.205844
-0.197009
-0.188621
-0.180665
-0.173133
-0.165931
-0.446223
-0.439647
-0.434002
-0.42847
-0.422475
-0.415887
-0.408562
-0.400348
-0.391139
-0.3809
-0.36967
-0.35757
-0.344778
-0.331517
-0.318018
-0.304499
-0.291148
-0.278114
-0.265502
-0.253381
-0.241789
-0.230741
-0.220237
-0.210267
-0.200812
-0.191853
-0.183366
-0.175332
-0.167738
-0.160474
-0.452958
-0.446162
-0.440339
-0.434603
-0.428317
-0.421322
-0.413457
-0.404565
-0.394556
-0.383424
-0.371251
-0.358202
-0.344497
-0.330392
-0.316136
-0.301958
-0.288044
-0.274533
-0.261522
-0.249067
-0.237195
-0.225914
-0.215216
-0.205085
-0.195499
-0.186434
-0.177864
-0.16977
-0.162128
-0.154821
-0.45924
-0.45225
-0.446265
-0.440324
-0.433732
-0.4263
-0.417853
-0.408237
-0.397383
-0.385322
-0.372185
-0.358183
-0.343578
-0.328652
-0.313674
-0.298874
-0.284433
-0.270482
-0.257105
-0.244345
-0.232221
-0.220731
-0.209862
-0.19959
-0.189893
-0.180741
-0.172107
-0.163971
-0.156298
-0.148967
-0.464971
-0.457817
-0.451684
-0.445537
-0.438623
-0.430724
-0.421654
-0.41127
-0.399533
-0.386519
-0.372408
-0.35746
-0.341976
-0.326264
-0.310602
-0.295221
-0.280295
-0.265942
-0.252232
-0.239199
-0.226851
-0.215178
-0.20416
-0.193772
-0.183984
-0.174765
-0.166086
-0.157926
-0.150239
-0.142906
-0.470051
-0.462764
-0.456498
-0.450144
-0.442891
-0.434494
-0.424764
-0.413575
-0.400926
-0.386943
-0.37186
-0.355984
-0.339653
-0.323194
-0.306893
-0.290977
-0.275609
-0.260893
-0.246887
-0.233613
-0.22107
-0.209241
-0.1981
-0.187618
-0.177761
-0.168498
-0.159794
-0.151631
-0.143947
-0.136633
-0.474378
-0.46699
-0.460607
-0.454044
-0.446435
-0.437512
-0.427089
-0.415065
-0.401484
-0.386527
-0.370485
-0.35371
-0.336572
-0.319414
-0.302524
-0.28612
-0.270355
-0.255317
-0.241053
-0.227572
-0.214865
-0.202908
-0.191671
-0.181119
-0.171217
-0.16193
-0.153223
-0.145076
-0.137415
-0.130144
-0.477852
-0.470396
-0.463911
-0.457137
-0.449156
-0.439681
-0.428536
-0.415655
-0.401133
-0.385211
-0.368233
-0.350598
-0.332701
-0.314897
-0.29747
-0.280631
-0.264515
-0.249199
-0.234715
-0.221062
-0.208223
-0.196168
-0.184861
-0.174266
-0.164343
-0.155055
-0.146368
-0.138258
-0.13064
-0.123436
-0.480372
-0.472883
-0.466311
-0.459324
-0.450956
-0.440907
-0.42902
-0.415268
-0.399807
-0.382937
-0.36506
-0.346611
-0.328011
-0.309618
-0.291713
-0.274491
-0.258075
-0.242524
-0.22786
-0.214072
-0.201134
-0.189011
-0.177663
-0.16705
-0.157132
-0.147867
-0.139221
-0.13117
-0.123618
-0.116507
-0.481843
-0.474354
-0.46771
-0.460508
-0.45174
-0.441101
-0.428456
-0.413832
-0.397443
-0.379657
-0.360925
-0.34172
-0.322477
-0.303559
-0.285234
-0.267686
-0.251019
-0.23528
-0.220476
-0.20659
-0.193588
-0.181429
-0.17007
-0.159467
-0.149577
-0.140359
-0.131775
-0.123804
-0.116344
-0.109354
-0.48217
-0.474716
-0.468015
-0.460598
-0.45142
-0.440178
-0.426771
-0.411281
-0.39399
-0.375327
-0.355795
-0.335896
-0.316079
-0.2967
-0.278019
-0.260201
-0.243335
-0.227455
-0.212555
-0.198609
-0.185578
-0.173416
-0.162076
-0.151511
-0.141677
-0.132527
-0.124024
-0.116149
-0.108801
-0.101944
-0.481267
-0.473882
-0.467139
-0.459506
-0.449912
-0.438062
-0.423896
-0.407558
-0.389399
-0.369911
-0.349642
-0.32912
-0.308799
-0.289029
-0.270056
-0.252027
-0.235016
-0.219041
-0.204088
-0.190123
-0.177099
-0.164968
-0.153678
-0.143181
-0.133428
-0.12437
-0.115968
-0.108203
-0.100967
-0.0941947
-0.479053
-0.47177
-0.464999
-0.457153
-0.447141
-0.434684
-0.419771
-0.402613
-0.383632
-0.36338
-0.342445
-0.321374
-0.300624
-0.280535
-0.261336
-0.243155
-0.226052
-0.210032
-0.195071
-0.181127
-0.168149
-0.156083
-0.144876
-0.134476
-0.124832
-0.115892
-0.107614
-0.0999847
-0.0928564
-0.0860285
-0.475454
-0.468306
-0.461522
-0.453466
-0.443038
-0.429984
-0.414345
-0.396406
-0.376659
-0.355711
-0.334186
-0.312647
-0.291546
-0.271211
-0.251852
-0.233581
-0.216441
-0.200426
-0.185502
-0.17162
-0.158726
-0.146761
-0.13567
-0.125399
-0.115892
-0.107095
-0.0989733
-0.0915152
-0.0845292
-0.0776019
-0.470406
-0.463424
-0.456642
-0.448382
-0.437546
-0.42391
-0.407577
-0.388905
-0.368455
-0.346888
-0.324856
-0.302932
-0.28156
-0.261053
-0.241602
-0.223303
-0.206181
-0.19022
-0.175379
-0.161603
-0.148831
-0.137004
-0.126063
-0.115951
-0.106611
-0.0979862
-0.0900497
-0.0827709
-0.0758656
-0.0692477
-0.463852
-0.457067
-0.450301
-0.441847
-0.430616
-0.416421
-0.399433
-0.380085
-0.359006
-0.336902
-0.314451
-0.292227
-0.270666
-0.250063
-0.230589
-0.212321
-0.195274
-0.179419
-0.164707
-0.151078
-0.138469
-0.126817
-0.116059
-0.106139
-0.0969954
-0.0885733
-0.0808449
-0.0737605
-0.0670041
-0.0607274
-0.455747
-0.449187
-0.442454
-0.433817
-0.422208
-0.407486
-0.389892
-0.369934
-0.348305
-0.325752
-0.302971
-0.280536
-0.258868
-0.238244
-0.218815
-0.200641
-0.183724
-0.168025
-0.153489
-0.140051
-0.127645
-0.116205
-0.105666
-0.0959689
-0.0870523
-0.0788607
-0.0713658
-0.0645027
-0.0579436
-0.051991
-0.446056
-0.439747
-0.433063
-0.424258
-0.412295
-0.397085
-0.378941
-0.358446
-0.336351
-0.313441
-0.290423
-0.267866
-0.246175
-0.225605
-0.206289
-0.188271
-0.171539
-0.156048
-0.141734
-0.128533
-0.116369
-0.105177
-0.0948915
-0.0854498
-0.0767901
-0.0688564
-0.0616212
-0.0550077
-0.0486738
-0.0430367
-0.434754
-0.428723
-0.422104
-0.413149
-0.400861
-0.385207
-0.366576
-0.345624
-0.323154
-0.299982
-0.276822
-0.254232
-0.232599
-0.212158
-0.193022
-0.175221
-0.15873
-0.143498
-0.129455
-0.11653
-0.104649
-0.0937436
-0.0837457
-0.0745917
-0.0662185
-0.0585703
-0.0516209
-0.0452821
-0.0391927
-0.0338768
-0.421829
-0.416097
-0.409562
-0.400477
-0.387898
-0.371853
-0.352805
-0.331479
-0.308729
-0.285391
-0.262184
-0.23965
-0.218158
-0.19792
-0.179031
-0.161507
-0.145313
-0.130389
-0.116662
-0.104058
-0.0924999
-0.0819172
-0.0722412
-0.0634068
-0.0553494
-0.0480138
-0.0413756
-0.0353341
-0.0295065
-0.0245239
-0.407277
-0.401868
-0.395433
-0.386243
-0.373412
-0.357033
-0.337643
-0.316033
-0.293098
-0.269694
-0.246533
-0.224144
-0.202873
-0.182911
-0.164335
-0.147147
-0.131303
-0.116737
-0.103373
-0.0911312
-0.0799358
-0.0697128
-0.0603926
-0.051909
-0.0441964
-0.0372001
-0.0308977
-0.0251746
-0.0196259
-0.0149909
-0.391108
-0.386041
-0.379726
-0.370458
-0.357418
-0.340767
-0.321115
-0.299312
-0.276291
-0.252919
-0.229899
-0.207742
-0.18677
-0.167154
-0.148955
-0.132161
-0.116721
-0.102562
-0.0896052
-0.0777688
-0.0669743
-0.0571469
-0.048216
-0.0401142
-0.0327747
-0.0261441
-0.0202014
-0.014817
-0.00956454
-0.00529222
-0.373342
-0.368637
-0.362461
-0.353143
-0.339942
-0.323085
-0.303254
-0.281353
-0.258346
-0.235103
-0.212316
-0.190475
-0.169879
-0.150679
-0.132918
-0.116575
-0.10159
-0.0878866
-0.0753809
-0.0639904
-0.0536349
-0.0442385
-0.0357296
-0.0280398
-0.0211016
-0.0148625
-0.00930287
-0.00427743
0.000661185
0.0045564
-0.35401
-0.349683
-0.343665
-0.334332
-0.321019
-0.304027
-0.284102
-0.262199
-0.239306
-0.216287
-0.193821
-0.172378
-0.152233
-0.133516
-0.116254
-0.100417
-0.0859376
-0.0727349
-0.0607234
-0.0498186
-0.0399391
-0.031008
-0.0229531
-0.0157051
-0.00919579
-0.00337382
0.00177962
0.00642604
0.0110324
0.014537
-0.333154
-0.329219
-0.323382
-0.314065
-0.300696
-0.283641
-0.26371
-0.241906
-0.219219
-0.196508
-0.174458
-0.153494
-0.133871
-0.1157
-0.0989961
-0.0837173
-0.0697917
-0.0571347
-0.0456588
-0.035278
-0.0259101
-0.0174778
-0.00990799
-0.00313083
0.00292252
0.00830198
0.0130261
0.017273
0.0215274
0.0246273
-0.310827
-0.307297
-0.30166
-0.292397
-0.279026
-0.261985
-0.242142
-0.220532
-0.198113
-0.175832
-0.154277
-0.133867
-0.114834
-0.0972708
-0.0811796
-0.0665098
-0.0531844
-0.041116
-0.0302152
-0.0203952
-0.0115733
-0.00367161
0.00338302
0.00966115
0.0152318
0.0201435
0.0244152
0.0282413
0.0321207
0.0347977
-0.28709
-0.283975
-0.27856
-0.269388
-0.256075
-0.239126
-0.219453
-0.198091
-0.176101
-0.154311
-0.133329
-0.113545
-0.0951671
-0.0782702
-0.0628443
-0.0488315
-0.0361503
-0.024711
-0.0144229
-0.00519869
0.00304468
0.0103852
0.016896
0.022648
0.02771
0.0321288
0.0359244
0.0393063
0.0427821
0.045012
-0.262016
-0.259321
-0.25415
-0.24511
-0.231915
-0.215127
-0.195687
-0.174717
-0.153214
-0.132002
-0.11167
-0.0925811
-0.0749192
-0.0587432
-0.0440323
-0.0307216
-0.0187263
-0.00795431
0.0016856
0.0102812
0.0179155
0.0246662
0.0306062
0.0358063
0.0403344
0.0442355
0.0475309
0.0504427
0.0534796
0.0552397
-0.235682
-0.233412
-0.228508
-0.219641
-0.206617
-0.190049
-0.170967
-0.150456
-0.129523
-0.108971
-0.0893618
-0.0710309
-0.054142
-0.0387382
-0.0247885
-0.0122223
-0.000951453
0.0091174
0.0180762
0.0260127
0.0330095
0.0391438
0.0444881
0.0491123
0.0530828
0.0564417
0.0592129
0.0616284
0.0641892
0.0654573
-0.208161
-0.206338
-0.201719
-0.193059
-0.180257
-0.164013
-0.145353
-0.125384
-0.105103
-0.0852861
-0.0664658
-0.0489529
-0.0328901
-0.0183059
-0.00516042
0.00662216
0.0171327
0.0264655
0.0347128
0.0419621
0.0482956
0.0537895
0.0585153
0.062542
0.0659327
0.0687258
0.070951
0.0728497
0.0748929
0.0756018
-0.179527
-0.178202
-0.173876
-0.165453
-0.152949
-0.13709
-0.118931
-0.0995851
-0.0800307
-0.061018
-0.0430489
-0.0264088
-0.0112208
0.00250009
0.014802
0.0257652
0.0354826
0.0440494
0.0515577
0.0580946
0.0637415
0.0685736
0.0726614
0.0760716
0.0788621
0.0810676
0.0827308
0.0840959
0.0855422
0.0855131
-0.14986
-0.14914
-0.145072
-0.136933
-0.124781
-0.109375
-0.0917923
-0.0731435
-0.0543864
-0.0362414
-0.0191802
-0.00346307
0.0108059
0.0236241
0.0350468
0.0451582
0.054053
0.0618267
0.0685714
0.0743736
0.0793136
0.0834658
0.0868993
0.0896774
0.0918512
0.0934543
0.0945495
0.0953503
0.0960229
0.0950208
-0.119409
-0.119148
-0.115416
-0.107602
-0.0958533
-0.0809651
-0.0640296
-0.0461476
-0.0282527
-0.0110335
0.00506844
0.0198178
0.0331281
0.0450081
0.0555199
0.0647508
0.0727967
0.0797536
0.0857131
0.0907611
0.094977
0.0984342
0.101201
0.103336
0.104885
0.105887
0.106427
0.106621
0.106278
0.104172
-0.0882109
-0.088382
-0.0850195
-0.0775658
-0.066271
-0.0519629
-0.0357399
-0.0186889
-0.00171486
0.0145262
0.0296233
0.043365
0.0556816
0.0665925
0.0761655
0.0844907
0.091665
0.0977845
0.10294
0.107217
0.110695
0.113445
0.115535
0.117021
0.117946
0.118367
0.11839
0.117963
0.116528
0.113516
-0.0563539
-0.0569755
-0.0539949
-0.046936
-0.0361433
-0.0224731
-0.0070229
0.00913936
0.0251397
0.0403565
0.0544086
0.067108
0.0784009
0.0883159
0.0969263
0.104324
0.110608
0.115872
0.120209
0.123702
0.126428
0.128462
0.129867
0.1307
0.131005
0.130864
0.130388
0.129321
0.12686
0.125131
-0.0239638
-0.0250452
-0.0224589
-0.0158266
-0.00558199
0.00739743
0.02202
0.0372417
0.0522221
0.0663743
0.0793472
0.090975
0.101219
0.110116
0.117744
0.124197
0.129574
0.13397
0.137474
0.140171
0.142138
0.143447
0.144161
0.144336
0.144023
0.143313
0.142289
0.140623
0.137826
0.136778
0.00883278
0.00728899
0.00946852
0.0156444
0.0252991
0.0375395
0.0512858
0.0655214
0.0794418
0.0924955
0.104361
0.114893
0.124067
0.131928
0.138558
0.144053
0.148511
0.152027
0.15469
0.156584
0.157784
0.158361
0.15838
0.157895
0.156962
0.155673
0.154078
0.15186
0.148786
0.147685
0.0419094
0.0399037
0.0416651
0.0473575
0.0563843
0.0678429
0.0806701
0.0938807
0.106708
0.118635
0.12937
0.138788
0.146877
0.153689
0.15931
0.163837
0.167367
0.169996
0.171811
0.172895
0.173324
0.173167
0.172487
0.17134
0.169785
0.167909
0.165745
0.163016
0.159634
0.158203
0.0751386
0.0726734
0.0740069
0.0791916
0.0875569
0.0981963
0.110068
0.122221
0.133928
0.144708
0.154295
0.162586
0.169579
0.175333
0.179938
0.18349
0.186088
0.187825
0.188789
0.189062
0.188717
0.187823
0.186445
0.184635
0.182454
0.179986
0.177254
0.174015
0.170263
0.1684
0.108392
0.105472
0.106369
0.111025
0.1187
0.128488
0.139375
0.150445
0.161011
0.170628
0.179057
0.186212
0.192103
0.196796
0.200381
0.202957
0.204621
0.205466
0.205579
0.205039
0.203922
0.202293
0.200216
0.197744
0.194938
0.191875
0.188577
0.184823
0.18066
0.178317
0.141541
0.138172
0.138627
0.142736
0.149696
0.158608
0.168486
0.178454
0.187866
0.19631
0.203575
0.209591
0.21438
0.218012
0.220579
0.22218
0.222912
0.222868
0.222133
0.220785
0.218897
0.216537
0.213764
0.210633
0.207203
0.203548
0.199683
0.19541
0.190814
0.187968
0.174458
0.170646
0.170654
0.174202
0.180428
0.188444
0.197296
0.20615
0.2144
0.221669
0.22777
0.232651
0.236342
0.238917
0.240471
0.241103
0.24091
0.239982
0.238405
0.236255
0.233603
0.230517
0.227055
0.22327
0.219219
0.214974
0.210546
0.205754
0.200714
0.197351
0.207015
0.202769
0.202328
0.205305
0.210782
0.217888
0.225703
0.233438
0.240525
0.246621
0.251565
0.255317
0.257918
0.259446
0.259997
0.25967
0.258561
0.256759
0.254349
0.251406
0.248
0.244196
0.240052
0.23562
0.230957