/*--------------------------------*- C++ -*----------------------------------*\
  =========                 |
  \\      /  F ield         | OpenFOAM: The Open Source CFD Toolbox
   \\    /   O peration     | Website:  https://openfoam.org
    \\  /    A nd           | Version:  7
     \\/     M anipulation  |
\*---------------------------------------------------------------------------*/
FoamFile
{
    version     2.0;
    format      ascii;
    class       surfaceScalarField;
    location    "24";
    object      phi;
}
// * * * * * * * * * * * * * * * * * * * * * * * * * * * * * * * * * * * * * //

dimensions      [0 3 -1 0 0 0 0];

internalField   nonuniform List<scalar> 
79480
(
-7.54489e-07
7.55681e-07
-1.192e-09
-2.90518e-06
2.15394e-06
-3.25207e-09
-6.39995e-06
3.49985e-06
-5.07295e-09
-1.11849e-05
4.7916e-06
-6.64675e-09
-1.72039e-05
6.02697e-06
-7.96988e-09
-2.43991e-05
7.2042e-06
-9.04345e-09
-3.27112e-05
8.32204e-06
-9.87304e-09
-4.20804e-05
9.37968e-06
-1.04682e-08
-5.24464e-05
1.03768e-05
-1.08417e-08
-6.37491e-05
1.13137e-05
-1.10083e-08
-7.5929e-05
1.21909e-05
-1.09837e-08
-8.89279e-05
1.30097e-05
-1.07827e-08
-0.000102689
1.37715e-05
-1.04183e-08
-0.000117157
1.44781e-05
-9.89923e-09
-0.00013228
1.51317e-05
-9.22965e-09
-0.000148006
1.57347e-05
-8.40739e-09
-0.000164289
1.62902e-05
-7.42346e-09
-0.000181084
1.68017e-05
-6.26164e-09
-0.000198354
1.72744e-05
-4.89837e-09
-0.000216066
1.77151e-05
-3.30294e-09
-0.000234197
1.81334e-05
-1.43777e-09
-0.000252741
1.85426e-05
7.4135e-10
-0.000271705
1.89612e-05
3.28524e-09
-0.000291124
1.94128e-05
6.25154e-09
-0.000311062
1.99277e-05
9.70553e-09
-0.000331617
2.05414e-05
1.37214e-08
-0.000352929
2.12933e-05
1.83836e-08
-0.000375172
2.22199e-05
2.37884e-08
-0.000398556
2.33538e-05
3.0049e-08
2.47496e-05
3.73151e-08
-0.000423343
-7.48903e-07
1.50458e-06
-2.88421e-06
4.28924e-06
-6.35457e-06
6.97021e-06
-1.11067e-05
9.54378e-06
-1.70851e-05
1.20054e-05
-2.42323e-05
1.43513e-05
-3.24893e-05
1.65791e-05
-4.17965e-05
1.86868e-05
-5.20935e-05
2.06739e-05
-6.33203e-05
2.25404e-05
-7.54171e-05
2.42878e-05
-8.83255e-05
2.5918e-05
-0.000101988
2.7434e-05
-0.000116349
2.88391e-05
-0.000131355
3.01374e-05
-0.000146954
3.13337e-05
-0.000163097
3.24334e-05
-0.000179739
3.34437e-05
-0.000196838
3.4374e-05
-0.000214361
3.52375e-05
-0.00023228
3.60529e-05
-0.000250584
3.68462e-05
-0.000269276
3.76531e-05
-0.000288384
3.85212e-05
-0.000307967
3.95102e-05
-0.000328117
4.0692e-05
-0.00034897
4.21464e-05
-0.000370699
4.39488e-05
-0.000393512
4.61664e-05
4.89101e-05
-0.000417672
-7.37834e-07
2.24242e-06
-2.84262e-06
6.39403e-06
-6.26454e-06
1.03921e-05
-1.09516e-05
1.42309e-05
-1.68493e-05
1.79031e-05
-2.3901e-05
2.1403e-05
-3.20484e-05
2.47265e-05
-4.1232e-05
2.78705e-05
-5.13918e-05
3.08336e-05
-6.24673e-05
3.3616e-05
-7.43986e-05
3.62191e-05
-8.71263e-05
3.86458e-05
-0.000100592
4.08998e-05
-0.000114739
4.29861e-05
-0.000129512
4.491e-05
-0.000144856
4.6678e-05
-0.00016072
4.82977e-05
-0.000177055
4.97788e-05
-0.000193816
5.11341e-05
-0.00021096
5.2382e-05
-0.000228456
5.35486e-05
-0.000246281
5.46712e-05
-0.000264429
5.58017e-05
-0.000282918
5.70096e-05
-0.000301792
5.83844e-05
-0.000321135
6.00348e-05
-0.000341072
6.20835e-05
-0.000361772
6.46486e-05
-0.000383441
6.78361e-05
7.18184e-05
-0.00040635
-7.21473e-07
2.96389e-06
-2.78112e-06
8.45368e-06
-6.13132e-06
1.37423e-05
-1.0722e-05
1.88215e-05
-1.65e-05
2.36811e-05
-2.341e-05
2.8313e-05
-3.13943e-05
3.27109e-05
-4.03942e-05
3.68703e-05
-5.03493e-05
4.07888e-05
-6.11993e-05
4.44659e-05
-7.28834e-05
4.79032e-05
-8.53412e-05
5.11036e-05
-9.85129e-05
5.40716e-05
-0.00011234
5.68127e-05
-0.000126763
5.93335e-05
-0.000141726
6.16412e-05
-0.000157173
6.37445e-05
-0.000173049
6.56545e-05
-0.000189301
6.73862e-05
-0.00020588
6.89611e-05
-0.000222742
7.04109e-05
-0.000239853
7.17816e-05
-0.00025719
7.31389e-05
-0.000274753
7.45726e-05
-0.000292569
7.62007e-05
-0.000310704
7.81698e-05
-0.00032927
8.06491e-05
-0.000348427
8.38058e-05
-0.000368383
8.77919e-05
9.28494e-05
-0.000389414
-7.0011e-07
3.664e-06
-2.70074e-06
1.04543e-05
-5.95706e-06
1.69987e-05
-1.04213e-05
2.32857e-05
-1.60422e-05
2.93021e-05
-2.27659e-05
3.50366e-05
-3.05357e-05
4.04806e-05
-3.92931e-05
4.56277e-05
-4.89782e-05
5.04739e-05
-5.95299e-05
5.50176e-05
-7.08865e-05
5.92598e-05
-8.29864e-05
6.32034e-05
-9.57676e-05
6.68528e-05
-0.000109169
7.02137e-05
-0.000123128
7.32927e-05
-0.000137584
7.60972e-05
-0.000152475
7.86357e-05
-0.00016774
8.09192e-05
-0.000183317
8.29629e-05
-0.000199145
8.47893e-05
-0.000215166
8.64326e-05
-0.000231329
8.79445e-05
-0.000247591
8.9401e-05
-0.000263928
9.09095e-05
-0.000280342
9.26146e-05
-0.000296874
9.47017e-05
-0.000313616
9.73908e-05
-0.000330718
0.000100908
-0.000348387
0.000105461
0.000111377
-0.000366915
-6.74121e-07
4.33812e-06
-2.60283e-06
1.2383e-05
-5.74457e-06
2.01404e-05
-1.00542e-05
2.75954e-05
-1.54828e-05
3.47306e-05
-2.19777e-05
4.15316e-05
-2.94836e-05
4.79866e-05
-3.79424e-05
5.40865e-05
-4.7294e-05
5.98254e-05
-5.74767e-05
6.52003e-05
-6.84276e-05
7.02108e-05
-8.00831e-05
7.48589e-05
-9.23789e-05
7.91486e-05
-0.00010525
8.30849e-05
-0.000118631
8.66735e-05
-0.000132455
8.99208e-05
-0.000146653
9.2834e-05
-0.000161156
9.5422e-05
-0.00017589
9.76979e-05
-0.000190784
9.96824e-05
-0.00020576
0.000101409
-0.000220746
0.00010293
-0.000235674
0.000104329
-0.000250489
0.000105725
-0.000265163
0.000107288
-0.000279701
0.00010924
-0.00029417
0.00011186
-0.000308704
0.000115442
-0.000323511
0.000120268
0.000126769
-0.000338903
-6.43966e-07
4.98209e-06
-2.48906e-06
1.42281e-05
-5.49729e-06
2.31486e-05
-9.62644e-06
3.17245e-05
-1.48298e-05
3.9934e-05
-2.10565e-05
4.77583e-05
-2.8252e-05
5.51821e-05
-3.63587e-05
6.21932e-05
-4.5316e-05
6.87828e-05
-5.50615e-05
7.49457e-05
-6.55306e-05
8.06798e-05
-7.66573e-05
8.59856e-05
-8.83742e-05
9.08656e-05
-0.000100612
9.53232e-05
-0.000113301
9.93625e-05
-0.000126368
0.000102987
-0.000139736
0.000106202
-0.000153326
0.000109012
-0.000167053
0.000111425
-0.000180828
0.000113457
-0.000194556
0.000115136
-0.000208138
0.000116513
-0.000221477
0.000117668
-0.000234483
0.000118731
-0.000247083
0.000119888
-0.000259245
0.000121402
-0.000270995
0.000123609
-0.000282447
0.000126894
-0.000293807
0.000131628
0.000138379
-0.000305417
-6.10179e-07
5.59227e-06
-2.36133e-06
1.59793e-05
-5.2192e-06
2.60065e-05
-9.14455e-06
3.56499e-05
-1.40929e-05
4.48823e-05
-2.00149e-05
5.36803e-05
-2.68569e-05
6.2024e-05
-3.45612e-05
6.98975e-05
-4.30668e-05
7.72884e-05
-5.23097e-05
8.41887e-05
-6.22234e-05
9.05935e-05
-7.27391e-05
9.65013e-05
-8.37855e-05
0.000101912
-9.52891e-05
0.000106827
-0.000107173
0.000111247
-0.000119358
0.000115172
-0.000131759
0.000118603
-0.000144285
0.000121538
-0.000156838
0.000123978
-0.000169311
0.00012593
-0.000181587
0.000127413
-0.000193541
0.000128466
-0.000205039
0.000129167
-0.000215949
0.000129641
-0.000226151
0.00013009
-0.000235556
0.000130807
-0.000244143
0.000132196
-0.000251995
0.000134746
-0.000259312
0.000138945
0.000145533
-0.000266467
-5.73361e-07
6.16563e-06
-2.22181e-06
1.76277e-05
-4.91482e-06
2.86995e-05
-8.61597e-06
3.9351e-05
-1.32828e-05
4.95491e-05
-1.88673e-05
5.92648e-05
-2.53163e-05
6.8473e-05
-3.25717e-05
7.71529e-05
-4.05716e-05
8.52883e-05
-4.925e-05
9.28671e-05
-5.85377e-05
9.98813e-05
-6.83624e-05
0.000106326
-7.86484e-05
0.000112198
-8.93167e-05
0.000117495
-0.000100284
0.000122214
-0.000111463
0.000126351
-0.000122758
0.000129898
-0.000134067
0.000132847
-0.000145276
0.000135187
-0.00015626
0.000136914
-0.000166879
0.000138032
-0.000176977
0.000138564
-0.000186383
0.000138572
-0.000194915
0.000138173
-0.000202395
0.00013757
-0.000208669
0.000137081
-0.00021365
0.000137177
-0.000217377
0.000138473
-0.000220039
0.000141606
0.000147512
-0.000222017
-5.34169e-07
6.6998e-06
-2.07287e-06
1.91664e-05
-4.58904e-06
3.12157e-05
-8.04878e-06
4.28108e-05
-1.24114e-05
5.39117e-05
-1.76295e-05
6.4483e-05
-2.36501e-05
7.44935e-05
-3.04142e-05
8.39171e-05
-3.78582e-05
9.27322e-05
-4.59136e-05
0.000100923
-5.45079e-05
0.000108476
-6.35643e-05
0.000115382
-7.3002e-05
0.000121636
-8.27354e-05
0.000127229
-9.26738e-05
0.000132153
-0.00010272
0.000136397
-0.000112768
0.000139946
-0.000122703
0.000142781
-0.000132395
0.000144879
-0.000141699
0.000146218
-0.00015045
0.000146782
-0.000158458
0.000146573
-0.000165513
0.000145627
-0.00017138
0.00014404
-0.000175814
0.000142004
-0.000178582
0.000139849
-0.000179512
0.000138108
-0.000178583
0.000137544
-0.000175957
0.00013898
0.000143534
-0.000171979
-4.93302e-07
7.1931e-06
-1.91701e-06
2.05901e-05
-4.24708e-06
3.35458e-05
-7.45164e-06
4.60153e-05
-1.1491e-05
5.79511e-05
-1.63182e-05
6.93102e-05
-2.18793e-05
8.00546e-05
-2.8114e-05
9.01518e-05
-3.49561e-05
9.95744e-05
-4.2334e-05
0.0001083
-5.01707e-05
0.000116312
-5.83842e-05
0.000123596
-6.68873e-05
0.000130139
-7.55869e-05
0.000135928
-8.43834e-05
0.000140949
-9.31692e-05
0.000145183
-0.000101827
0.000148604
-0.000110225
0.00015118
-0.000118219
0.000152873
-0.00012564
0.00015364
-0.000132299
0.000153441
-0.000137973
0.000152247
-0.000142407
0.00015006
-0.000145309
0.000146942
-0.000146362
0.000143057
-0.000145242
0.000138729
-0.000141671
0.000134537
-0.000135538
0.000131411
-0.000126994
0.000130435
0.000132754
-0.000116214
-4.51486e-07
7.64458e-06
-1.75684e-06
2.18955e-05
-3.89439e-06
3.56833e-05
-6.83349e-06
4.89544e-05
-1.05348e-05
6.16524e-05
-1.49508e-05
7.37261e-05
-2.0026e-05
8.51298e-05
-2.56976e-05
9.58235e-05
-3.18963e-05
0.000105773
-3.85458e-05
0.00011495
-4.55641e-05
0.000123331
-5.28626e-05
0.000130894
-6.03465e-05
0.000137623
-6.79138e-05
0.000143495
-7.54545e-05
0.00014849
-8.28489e-05
0.000152577
-8.99654e-05
0.00015572
-9.66575e-05
0.000157872
-0.00010276
0.000158976
-0.000108084
0.000158964
-0.000112411
0.000157767
-0.000115484
0.00015532
-0.000117003
0.000151579
-0.000116619
0.000146558
-0.000113934
0.000140372
-0.000108523
0.000133318
-9.99794e-05
0.000125993
-8.80493e-05
0.000119481
-7.29702e-05
0.000115356
0.000114503
-5.47192e-05
-4.0946e-07
8.05404e-06
-1.59502e-06
2.3081e-05
-3.53645e-06
3.76247e-05
-6.20343e-06
5.16214e-05
-9.55598e-06
6.5005e-05
-1.35449e-05
7.7715e-05
-1.81123e-05
8.96971e-05
-2.31918e-05
0.000100903
-2.87096e-05
0.000111291
-3.45841e-05
0.000120824
-4.07264e-05
0.000129473
-4.70403e-05
0.000137208
-5.34217e-05
0.000144004
-5.9758e-05
0.000149832
-6.59269e-05
0.000154659
-7.17947e-05
0.000158445
-7.72136e-05
0.000161139
-8.20188e-05
0.000162677
-8.60239e-05
0.000162981
-8.90154e-05
0.000161956
-9.07449e-05
0.000159497
-9.09209e-05
0.000155496
-8.91982e-05
0.000149857
-8.51675e-05
0.000142528
-7.83504e-05
0.000133555
-6.82098e-05
0.000123177
-5.41926e-05
0.000111976
-3.57892e-05
0.000101078
-1.27373e-05
9.23045e-05
8.97695e-05
1.19966e-05
-3.67959e-07
8.422e-06
-1.43417e-06
2.41472e-05
-3.1787e-06
3.93693e-05
-5.5704e-06
5.40131e-05
-8.56746e-06
6.80021e-05
-1.21179e-05
8.12655e-05
-1.616e-05
9.37392e-05
-2.06228e-05
0.000105366
-2.54266e-05
0.000116095
-3.04829e-05
0.000125881
-3.56948e-05
0.000134685
-4.09565e-05
0.00014247
-4.6153e-05
0.0001492
-5.11588e-05
0.000154838
-5.58371e-05
0.000159337
-6.00374e-05
0.000162645
-6.35931e-05
0.000164695
-6.63177e-05
0.000165402
-6.80006e-05
0.000164664
-6.84004e-05
0.000162355
-6.72369e-05
0.000158333
-6.41811e-05
0.00015244
-5.88415e-05
0.000144517
-5.07498e-05
0.000134436
-3.93468e-05
0.000122152
-2.39804e-05
0.000107811
-3.93968e-06
9.19354e-05
2.14327e-05
7.57053e-05
5.2377e-05
6.13602e-05
5.3966e-05
8.81806e-05
-3.27687e-07
8.74969e-06
-1.27678e-06
2.50963e-05
-2.82632e-06
4.09188e-05
-4.94294e-06
5.61297e-05
-7.58161e-06
7.06407e-05
-1.06862e-05
8.437e-05
-1.41898e-05
9.72428e-05
-1.80153e-05
0.000109191
-2.20758e-05
0.000120155
-2.62743e-05
0.000130079
-3.05039e-05
0.000138914
-3.46474e-05
0.000146614
-3.85765e-05
0.00015313
-4.21507e-05
0.000158412
-4.52154e-05
0.000162402
-4.76004e-05
0.00016503
-4.91163e-05
0.000166211
-4.95511e-05
0.000165837
-4.86653e-05
0.000163778
-4.61852e-05
0.000159875
-4.17946e-05
0.000153943
-3.51229e-05
0.000145768
-2.5731e-05
0.000135125
-1.30911e-05
0.000121796
3.43403e-06
0.000105627
2.46099e-05
8.66351e-05
5.13208e-05
6.52245e-05
8.44405e-05
4.25855e-05
0.000124475
2.13253e-05
7.33023e-06
0.000171111
-2.89301e-07
9.03899e-06
-1.12519e-06
2.59322e-05
-2.48409e-06
4.22777e-05
-4.32885e-06
5.79745e-05
-6.60969e-06
7.29216e-05
-9.26471e-06
8.70251e-05
-1.22203e-05
0.000100198
-1.53917e-05
0.000112363
-1.86827e-05
0.000123446
-2.19862e-05
0.000133383
-2.51834e-05
0.000142112
-2.81433e-05
0.000149573
-3.07218e-05
0.000155708
-3.27602e-05
0.00016045
-3.4083e-05
0.000163725
-3.4496e-05
0.000165443
-3.37825e-05
0.000165497
-3.16998e-05
0.000163754
-2.79737e-05
0.000160052
-2.2292e-05
0.000154194
-1.42959e-05
0.000145947
-3.56776e-06
0.00013504
1.03841e-05
0.000121173
2.81475e-05
0.000104033
5.04348e-05
8.33399e-05
7.81169e-05
5.8953e-05
0.000112243
3.10982e-05
0.00015395
8.79029e-07
0.000204133
-2.88583e-05
-5.12522e-05
0.000262716
-2.53382e-07
9.29237e-06
-9.81432e-07
2.66603e-05
-2.15615e-06
4.34524e-05
-3.73488e-06
5.95532e-05
-5.66133e-06
7.4848e-05
-7.86613e-06
8.92299e-05
-1.02672e-05
0.0001026
-1.27701e-05
0.000114866
-1.5268e-05
0.000125944
-1.7641e-05
0.000135756
-1.97563e-05
0.000144227
-2.14666e-05
0.000151284
-2.26089e-05
0.00015685
-2.30028e-05
0.000160844
-2.24479e-05
0.00016317
-2.07211e-05
0.000163716
-1.75732e-05
0.000162349
-1.27241e-05
0.000158905
-5.85771e-06
0.000153185
3.38472e-06
0.000144951
1.54135e-05
0.000133918
3.07015e-05
0.000119752
4.98003e-05
0.000102074
7.3362e-05
8.04709e-05
0.000102171
5.45304e-05
0.000137192
2.39325e-05
0.000179619
-1.13291e-05
0.000230852
-5.03536e-05
0.000292195
-9.02011e-05
-0.000123131
0.000364074
-2.20411e-07
9.51278e-06
-8.47149e-07
2.7287e-05
-1.84583e-06
4.44511e-05
-3.16633e-06
6.08737e-05
-4.74399e-06
7.64257e-05
-6.50008e-06
9.09859e-05
-8.34213e-06
0.000104442
-1.0164e-05
0.000116688
-1.18459e-05
0.000127626
-1.32532e-05
0.000137163
-1.42363e-05
0.00014521
-1.46285e-05
0.000151676
-1.42446e-05
0.000156467
-1.28785e-05
0.000159478
-1.03001e-05
0.000160591
-6.25212e-06
0.000159669
-4.4609e-07
0.000156543
7.44282e-06
0.000151016
1.77812e-05
0.000142847
3.09843e-05
0.000131748
4.75243e-05
0.000117378
6.79413e-05
9.93353e-05
9.28566e-05
7.71591e-05
0.000122994
5.03332e-05
0.000159212
1.83128e-05
0.000202551
-1.94066e-05
0.00025432
-6.30978e-05
0.000316143
-0.000112177
0.000389728
-0.000163786
-0.000209707
0.000476304
-1.90743e-07
9.70353e-06
-7.23516e-07
2.78198e-05
-1.55539e-06
4.5283e-05
-2.62674e-06
6.1945e-05
-3.86243e-06
7.76614e-05
-5.17235e-06
9.22959e-05
-6.45153e-06
0.000105721
-7.58008e-06
0.000117816
-8.42263e-06
0.000128468
-8.82744e-06
0.000137568
-8.62494e-06
0.000145007
-7.62586e-06
0.000150677
-5.61882e-06
0.00015446
-2.36739e-06
0.000156226
2.39343e-06
0.000155831
8.96135e-06
0.000153101
1.76715e-05
0.000147833
2.89018e-05
0.000139786
4.30792e-05
0.00012867
6.06865e-05
0.000114141
8.22704e-05
9.57939e-05
0.000108451
7.3155e-05
0.000139932
4.56776e-05
0.000177521
1.27442e-05
0.000222152
-2.63176e-05
0.000274931
-7.21862e-05
0.000337238
-0.000125405
0.000410855
-0.000185794
0.000497822
-0.000250752
-0.000312347
0.000600462
-1.64577e-07
9.8681e-06
-6.11124e-07
2.82663e-05
-1.28587e-06
4.59577e-05
-2.11744e-06
6.27766e-05
-3.01811e-06
7.8562e-05
-3.88413e-06
9.31619e-05
-4.5958e-06
0.000106432
-5.017e-06
0.000118237
-4.99436e-06
0.000128446
-4.35587e-06
0.000136929
-2.90887e-06
0.00014356
-4.3763e-07
0.000148206
3.29976e-06
0.000150722
8.57512e-06
0.000150951
1.56944e-05
0.000148711
2.50027e-05
0.000143792
3.68898e-05
0.000135946
5.17959e-05
0.00012488
7.02189e-05
0.000110247
9.27207e-05
9.1639e-05
0.000119935
6.85794e-05
0.000152576
4.05144e-05
0.000191444
6.80925e-06
0.000237441
-3.32526e-05
0.000291583
-8.04595e-05
0.000355035
-0.000135638
0.000429199
-0.000199569
0.000515922
-0.000272517
0.000617434
-0.000352264
-0.000432277
0.000737363
-1.41933e-07
1.001e-05
-5.09892e-07
2.86343e-05
-1.03683e-06
4.64847e-05
-1.63732e-06
6.33771e-05
-2.20868e-06
7.91334e-05
-2.63125e-06
9.35845e-05
-2.76811e-06
0.000106569
-2.46433e-06
0.000117934
-1.54558e-06
0.000127527
1.83645e-07
0.0001352
2.9427e-06
0.000140801
6.97809e-06
0.00014417
1.25672e-05
0.000145133
2.0023e-05
0.000143495
2.96989e-05
0.000139035
4.19949e-05
0.000131496
5.73638e-05
0.000120577
7.63182e-05
0.000105925
9.94369e-05
8.71279e-05
0.000127373
6.37032e-05
0.000160859
3.50935e-05
0.000200714
6.59455e-07
0.000247847
-4.03244e-05
0.000303264
-8.86691e-05
0.000368067
-0.000145263
0.000443471
-0.000211042
0.00053086
-0.000286958
0.000632031
-0.000373688
0.000749205
-0.000469438
-0.000570433
0.000887361
-1.2263e-07
1.01327e-05
-4.18992e-07
2.89307e-05
-8.06242e-07
4.68719e-05
-1.18244e-06
6.37533e-05
-1.42759e-06
7.93785e-05
-1.40357e-06
9.35604e-05
-9.53603e-07
0.000106119
9.89579e-08
0.000116881
1.95234e-06
0.000125673
4.82935e-06
0.000132323
8.98029e-06
0.00013665
1.46871e-05
0.000138463
2.2268e-05
0.000137552
3.20833e-05
0.00013368
4.45413e-05
0.000126578
6.01047e-05
0.000115933
7.92983e-05
0.000101383
0.000102716
8.25075e-05
0.000131029
5.88154e-05
0.000164989
2.97429e-05
0.000205438
-5.35593e-06
0.000253309
-4.72115e-05
0.000309625
-9.66397e-05
0.000375493
-0.000154537
0.0004521
-0.00022187
0.000540697
-0.00029964
0.000642609
-0.00038887
0.000759461
-0.00049054
0.000893249
-0.000603226
-0.000727283
0.0010501
-1.06269e-07
1.02389e-05
-3.36789e-07
2.91612e-05
-5.90319e-07
4.71254e-05
-7.4592e-07
6.39089e-05
-6.63703e-07
7.92963e-05
-1.84458e-07
9.30812e-05
8.71179e-07
0.000105064
2.70471e-06
0.000115047
5.54217e-06
0.000122836
9.63731e-06
0.000128228
1.52759e-05
0.000131012
2.27807e-05
0.000130959
3.2517e-05
0.000127816
4.4899e-05
0.000121298
6.03971e-05
0.000111079
7.95455e-05
9.67845e-05
0.00010295
7.79794e-05
0.000131293
5.41635e-05
0.000165347
2.47616e-05
0.000205972
-1.08817e-05
0.000254121
-5.35056e-05
0.000310843
-0.000103933
0.000377266
-0.000163063
0.000454592
-0.000231864
0.000544069
-0.000311346
0.000646952
-0.000402523
0.000764467
-0.000506385
0.000897932
-0.000624005
0.00104895
-0.000754249
-0.000902595
0.00122427
-9.22237e-08
1.03312e-05
-2.60808e-07
2.93298e-05
-3.83488e-07
4.72481e-05
-3.17744e-07
6.38432e-05
9.88519e-08
7.88797e-05
1.04925e-06
9.21308e-05
2.73874e-06
0.000103374
5.397e-06
0.000112389
9.28151e-06
0.000118951
1.46817e-05
0.000122828
2.19238e-05
0.00012377
3.1377e-05
0.000121505
4.346e-05
0.000115733
5.86485e-05
0.00010611
7.74827e-05
9.22451e-05
0.000100576
7.36913e-05
0.000128622
4.99333e-05
0.000162403
2.03828e-05
0.000202793
-1.56288e-05
0.000250764
-5.88527e-05
0.000307381
-0.000110122
0.000373793
-0.000170345
0.000451222
-0.000240492
0.000540929
-0.000321571
0.000644177
-0.000414593
0.000762172
-0.000520519
0.000895982
-0.000640195
0.00104647
-0.000774495
0.00121483
-0.000922601
-0.00109517
0.0014074
-7.96388e-08
1.04108e-05
-1.87738e-07
2.94379e-05
-1.78392e-07
4.72388e-05
1.15148e-07
6.35496e-05
8.80456e-07
7.81144e-05
2.3275e-06
9.06838e-05
4.69047e-06
0.000101011
8.23104e-06
0.000108849
1.32424e-05
0.00011394
2.00544e-05
0.000116016
2.90394e-05
0.000114785
4.06192e-05
0.000109926
5.52727e-05
0.000101079
7.3544e-05
8.78382e-05
9.60509e-05
6.97382e-05
0.000123493
4.62492e-05
0.000156659
1.67674e-05
0.000196432
-1.93905e-05
0.000243794
-6.29903e-05
0.00029982
-0.000114879
0.000365673
-0.000175976
0.000442587
-0.000247259
0.000531834
-0.000329739
0.000634684
-0.000424421
0.000752343
-0.000532252
0.000885877
-0.000654053
0.00103612
-0.000790439
0.00120333
-0.000941702
0.00138838
-0.00110765
-0.00130254
0.00159575
-6.74432e-08
1.04782e-05
-1.13469e-07
2.94839e-05
3.41477e-08
4.70912e-05
5.68694e-07
6.30151e-05
1.70617e-06
7.6977e-05
3.68637e-06
8.87036e-05
6.77607e-06
9.79215e-05
1.12729e-05
0.000104352
1.75104e-05
0.000107703
2.5864e-05
0.000107662
3.6758e-05
0.000103891
5.06732e-05
9.60105e-05
6.81556e-05
8.35968e-05
8.98249e-05
6.61689e-05
0.000116383
4.31804e-05
0.00014862
1.40115e-05
0.000187425
-2.2037e-05
0.000233781
-6.57465e-05
0.000288769
-0.000117978
0.000353557
-0.000179667
0.000429382
-0.0002518
0.000517518
-0.000335395
0.000619235
-0.000431457
0.000735735
-0.00054092
0.000868068
-0.000664586
0.00101704
-0.000803025
0.00118314
-0.000956542
0.00136589
-0.00112445
0.00156611
-0.00130788
-0.00152073
0.0017843
-5.43803e-08
1.05326e-05
-3.32138e-08
2.94627e-05
2.64332e-07
4.67936e-05
1.06141e-06
6.2218e-05
2.60474e-06
7.54336e-05
5.16743e-06
8.61409e-05
9.05255e-06
9.40364e-05
1.4598e-05
9.88063e-05
2.21826e-05
0.000100118
3.22327e-05
9.76122e-05
4.52306e-05
9.08929e-05
6.17226e-05
7.95185e-05
8.23281e-05
6.29913e-05
0.000107748
4.07488e-05
0.000138774
1.21551e-05
0.00017629
-2.35048e-05
0.000221281
-6.70278e-05
0.000274825
-0.000119291
0.000338089
-0.000181242
0.000412304
-0.000253882
0.000498741
-0.000338237
0.000598658
-0.000435313
0.000713246
-0.000546044
0.000843537
-0.000671211
0.000990312
-0.000811361
0.00115398
-0.000966691
0.00133453
-0.00113709
0.0015307
-0.00132063
0.00174351
-0.00152068
-0.00174416
0.00196694
-3.90304e-08
1.05717e-05
5.83517e-08
2.93653e-05
5.2429e-07
4.63277e-05
1.61396e-06
6.11283e-05
3.60814e-06
7.34394e-05
6.81661e-06
8.29324e-05
1.15827e-05
8.92704e-05
1.8289e-05
9.21e-05
2.73645e-05
9.10425e-05
3.92925e-05
8.56842e-05
5.46188e-05
7.55666e-05
7.39612e-05
6.0176e-05
9.80181e-05
3.89344e-05
0.000127576
1.11906e-05
0.000163517
-2.37856e-05
0.000206819
-6.68062e-05
0.000258553
-0.000118763
0.000319879
-0.000180617
0.00039202
-0.000253382
0.000476231
-0.000338093
0.000573757
-0.000435763
0.000685767
-0.000547323
0.00081327
-0.000673547
0.00095702
-0.000814962
0.0011174
-0.000971742
0.0012943
-0.00114359
0.00148703
-0.00132982
0.00169369
-0.00152729
0.00191507
-0.00174206
-0.00196585
0.00213676
-1.98467e-08
1.05915e-05
1.67097e-07
2.91784e-05
8.26541e-07
4.56682e-05
2.24839e-06
5.97065e-05
4.7505e-06
7.09373e-05
8.6828e-06
7.90001e-05
1.44329e-05
8.35203e-05
2.24328e-05
8.41001e-05
3.31668e-05
8.03084e-05
4.71802e-05
7.16709e-05
6.5088e-05
5.76588e-05
8.75843e-05
3.76797e-05
0.00011545
1.10685e-05
0.000149559
-2.29188e-05
0.000190882
-6.5108e-05
0.00024048
-0.000116404
0.000299499
-0.000177782
0.00036915
-0.000250267
0.00045067
-0.000334903
0.000545285
-0.000432708
0.000654137
-0.000544615
0.000778207
-0.000671392
0.000918215
-0.000813556
0.00107452
-0.000971264
0.00124699
-0.00114421
0.00143492
-0.00133153
0.00163688
-0.00153177
0.00185063
-0.00174104
0.00207495
-0.00196638
-0.00217745
0.00228654
4.77132e-09
1.05867e-05
2.99027e-07
2.88841e-05
1.18419e-06
4.47831e-05
2.98753e-06
5.79031e-05
6.06696e-06
6.78579e-05
1.08162e-05
7.42509e-05
1.76711e-05
7.66653e-05
2.71178e-05
7.46534e-05
3.97005e-05
6.77257e-05
5.60314e-05
5.534e-05
7.67992e-05
3.68909e-05
0.000102778
1.17013e-05
0.000134831
-2.09851e-05
0.000173919
-6.2006e-05
0.000221089
-0.000112279
0.000277475
-0.00017279
0.000344268
-0.000244575
0.000422689
-0.000328688
0.000513939
-0.000426153
0.000619136
-0.000537905
0.000739228
-0.000664707
0.000874901
-0.000807065
0.00102647
-0.000965123
0.00119377
-0.00113857
0.00137608
-0.00132652
0.00157208
-0.00152753
0.00177971
-0.00173939
0.00199708
-0.00195842
0.00221874
-0.00218804
-0.00237058
0.00241187
3.64217e-08
1.05503e-05
4.60138e-07
2.84604e-05
1.61033e-06
4.36329e-05
3.85409e-06
5.56594e-05
7.59245e-06
6.41196e-05
1.32663e-05
6.8577e-05
2.1364e-05
6.85676e-05
3.24296e-05
6.35879e-05
4.70719e-05
5.30834e-05
6.59739e-05
3.6438e-05
8.99008e-05
1.29641e-05
0.000119706
-1.81043e-05
0.000156336
-5.76149e-05
0.000200825
-0.000106495
0.000254289
-0.000165742
0.000317901
-0.000236402
0.000392864
-0.000319538
0.000480357
-0.000416181
0.000581472
-0.000527269
0.000697132
-0.000653565
0.000827989
-0.000795565
0.000974322
-0.000953398
0.00113593
-0.00112673
0.00131203
-0.00131467
0.00150125
-0.00151574
0.00170161
-0.00172788
0.00191053
-0.00194832
0.00212638
-0.00217427
0.00234343
-0.00240509
-0.00261261
0.00258547
7.66591e-08
1.04736e-05
6.56254e-07
2.78808e-05
2.11758e-06
4.21716e-05
4.86998e-06
5.2907e-05
9.36043e-06
5.96291e-05
1.60805e-05
6.18569e-05
2.55744e-05
5.90737e-05
3.8448e-05
5.07142e-05
5.53783e-05
3.61531e-05
7.71212e-05
1.4695e-05
0.000104519
-1.44337e-05
0.000138503
-5.20883e-05
0.000180092
-9.92043e-05
0.000230385
-0.000156788
0.000290536
-0.000225893
0.000361728
-0.000307595
0.000445122
-0.000402932
0.000541791
-0.00051285
0.000652636
-0.000638113
0.000778288
-0.000779217
0.000919001
-0.000936278
0.00107454
-0.00110894
0.00124411
-0.00129629
0.00142626
-0.00149682
0.00161895
-0.00170843
0.00181958
-0.00192852
0.00202523
-0.00215396
0.00223334
-0.00238239
0.00243922
-0.00261097
-0.00282719
0.0026538
1.26927e-07
1.03467e-05
8.92792e-07
2.7115e-05
2.7177e-06
4.03466e-05
6.05543e-06
4.95692e-05
1.14016e-05
5.42829e-05
1.93015e-05
5.39571e-05
3.03583e-05
4.80169e-05
4.5243e-05
3.58295e-05
6.47022e-05
1.66939e-05
8.95656e-05
-1.01684e-05
0.00012075
-4.56178e-05
0.000159257
-9.05954e-05
0.000206166
-0.000146114
0.000262616
-0.000213237
0.00032977
-0.000293048
0.000408773
-0.000386598
0.000500683
-0.000494842
0.000606389
-0.000618556
0.000726513
-0.000758237
0.0008613
-0.000914003
0.00101051
-0.00108549
0.00117333
-0.00127176
0.0013483
-0.00147127
0.00153335
-0.00168187
0.00172582
-0.0019009
0.00192267
-0.00212537
0.00212069
-0.00235198
0.0023168
-0.00257849
0.00250736
-0.00280154
-0.00301574
0.00269592
1.88524e-07
1.01582e-05
1.17461e-06
2.61289e-05
3.42117e-06
3.81001e-05
7.42842e-06
4.5562e-05
1.3743e-05
4.79683e-05
2.29664e-05
4.47337e-05
3.57635e-05
3.52198e-05
5.28715e-05
1.87215e-05
7.51075e-05
-5.54206e-06
0.000103372
-3.84334e-05
0.000138651
-8.08965e-05
0.000182004
-0.000133949
0.000234552
-0.000198661
0.000297442
-0.000276127
0.000371804
-0.00036741
0.000458689
-0.000473483
0.000558982
-0.000595135
0.000673307
-0.00073288
0.000801917
-0.000886847
0.000944584
-0.00105667
0.00110051
-0.00124141
0.00126826
-0.0014395
0.00144575
-0.00164876
0.00163036
-0.00186647
0.00181899
-0.00208954
0.00200837
-0.00231475
0.00219528
-0.00253889
0.00237673
-0.00275995
0.00254987
-0.00297467
-0.0031823
0.00271642
2.62569e-07
9.89563e-06
1.50589e-06
2.48855e-05
4.23693e-06
3.5369e-05
9.00406e-06
4.07949e-05
1.6407e-05
4.05654e-05
2.71051e-05
3.40356e-05
4.18264e-05
2.04985e-05
6.13748e-05
-8.26916e-07
8.66354e-05
-3.08027e-05
0.000118575
-7.03731e-05
0.000158236
-0.000120558
0.00020672
-0.000182433
0.00026516
-0.000257101
0.000334676
-0.000345643
0.000416314
-0.000449048
0.000510962
-0.000568131
0.000619259
-0.000703432
0.000741482
-0.000855103
0.000877435
-0.0010228
0.00102636
-0.00120559
0.00118686
-0.00140191
0.00135691
-0.00160955
0.00153389
-0.00182575
0.00171477
-0.00204735
0.00189626
-0.00227103
0.00207512
-0.00249361
0.00224846
-0.00271223
0.00241378
-0.00292526
0.0025692
-0.0031301
-0.00332884
0.00271574
3.49986e-07
9.54564e-06
1.89004e-06
2.33455e-05
5.1722e-06
3.20869e-05
1.07943e-05
3.51728e-05
1.94104e-05
3.19493e-05
3.17391e-05
2.17069e-05
4.85713e-05
3.6663e-06
7.0776e-05
-2.30316e-05
9.93015e-05
-5.93283e-05
0.000135171
-0.000106243
0.000179469
-0.000164855
0.000233314
-0.000236277
0.000297817
-0.000321604
0.000374023
-0.00042185
0.000462835
-0.000537859
0.000564913
-0.000670209
0.000680572
-0.000819091
0.000809666
-0.000984197
0.000951495
-0.00116463
0.00110473
-0.00135883
0.00126742
-0.0015646
0.001437
-0.00177914
0.00161049
-0.00199924
0.00178464
-0.0022215
0.00195625
-0.00244263
0.00212239
-0.00265975
0.00228072
-0.00287055
0.00242949
-0.00307403
0.00256785
-0.00326846
-0.00345774
0.00269675
4.51498e-07
9.09414e-06
2.32969e-06
2.14673e-05
6.23234e-06
2.81842e-05
1.28076e-05
2.85975e-05
2.27646e-05
2.19923e-05
3.6881e-05
7.59053e-06
5.60091e-05
-1.54618e-05
8.10786e-05
-4.81011e-05
0.000113093
-9.1343e-05
0.000153119
-0.000146269
0.000202261
-0.000213997
0.000261623
-0.00029564
0.000332255
-0.000392236
0.000415074
-0.000504669
0.000510774
-0.00063356
0.000619719
-0.000779154
0.000741829
-0.000941201
0.000876483
-0.00111885
0.00102244
-0.00131059
0.00117784
-0.00151422
0.0013402
-0.00172696
0.0015066
-0.00194554
0.00167386
-0.00216649
0.00183878
-0.00238643
0.00199846
-0.00260232
0.00215053
-0.00281182
0.00229337
-0.00301339
0.00242607
-0.00320673
0.00254868
-0.00339107
-0.00357138
0.00266232
5.67639e-07
8.52651e-06
2.82667e-06
1.92083e-05
7.42088e-06
2.359e-05
1.5049e-05
2.09693e-05
2.64749e-05
1.05664e-05
4.25339e-05
-8.46847e-06
6.41363e-05
-3.70641e-05
9.22656e-05
-7.62304e-05
0.000127969
-0.000127047
0.000172338
-0.000190637
0.000226469
-0.000268129
0.000291418
-0.000360588
0.000368123
-0.000468941
0.000457316
-0.000593862
0.00055942
-0.000735664
0.000674436
-0.00089417
0.000801837
-0.0010686
0.000940494
-0.00125751
0.00108864
-0.00145874
0.00124392
-0.0016695
0.00140348
-0.00188652
0.0015642
-0.00210626
0.00172291
-0.00232521
0.00187671
-0.00254023
0.00202321
-0.00274881
0.00216071
-0.00294933
0.00228838
-0.00314106
0.00240611
-0.00332446
0.00251469
-0.00349965
-0.00367209
0.00261539
6.98766e-07
7.82774e-06
3.38205e-06
1.6525e-05
8.73947e-06
1.82326e-05
1.75199e-05
1.21889e-05
3.05405e-05
-2.45428e-06
4.86913e-05
-2.66193e-05
7.29347e-05
-6.13075e-05
0.000104298
-0.000107594
0.000143857
-0.000166606
0.000192703
-0.000239483
0.000251896
-0.000327322
0.000322398
-0.00043109
0.000404984
-0.000551527
0.000500143
-0.000689022
0.000607967
-0.000843488
0.000728039
-0.00101424
0.000859354
-0.00119992
0.00100028
-0.00139843
0.00114857
-0.00160703
0.00130148
-0.00182241
0.00145594
-0.00204099
0.00160884
-0.00225915
0.00175724
-0.00247361
0.0018987
-0.00268169
0.00203148
-0.00288159
0.00215464
-0.00307248
0.00226806
-0.00325448
0.00237231
-0.00342872
0.0024687
-0.00359603
-0.003762
0.00255861
8.45077e-07
6.98266e-06
3.9962e-06
1.33739e-05
1.0188e-05
1.20408e-05
2.0218e-05
2.15891e-06
3.49543e-05
-1.71906e-05
5.53366e-05
-4.70015e-05
8.2371e-05
-8.8342e-05
0.000117116
-0.000142339
0.000160655
-0.000210145
0.000214053
-0.000292881
0.000278293
-0.000391562
0.000354199
-0.000506995
0.000442329
-0.000639657
0.000542874
-0.000789566
0.00065554
-0.000956154
0.000779463
-0.00113816
0.000913151
-0.00133361
0.0010545
-0.00153978
0.00120089
-0.00175341
0.00134933