/*--------------------------------*- C++ -*----------------------------------*\
  =========                 |
  \\      /  F ield         | OpenFOAM: The Open Source CFD Toolbox
   \\    /   O peration     | Website:  https://openfoam.org
    \\  /    A nd           | Version:  7
     \\/     M anipulation  |
\*---------------------------------------------------------------------------*/
FoamFile
{
    version     2.0;
    format      ascii;
    class       volVectorField;
    location    "24";
    object      U;
}
// * * * * * * * * * * * * * * * * * * * * * * * * * * * * * * * * * * * * * //

dimensions      [0 1 -1 0 0 0 0];

internalField   nonuniform List<vector> 
40000
(
(-0.000179161 0.000294469 -2.14671e-21)
(-0.00112472 0.000799791 6.64647e-21)
(-0.00314716 0.00123294 -4.24104e-21)
(-0.00600036 0.00160083 -3.9741e-24)
(-0.00954871 0.00190861 -9.03142e-25)
(-0.0137008 0.00216085 2.909e-24)
(-0.0183621 0.00236219 -7.04307e-21)
(-0.0234405 0.00251714 1.67456e-21)
(-0.0288506 0.00263012 -4.77953e-21)
(-0.0345131 0.00270537 -1.51226e-21)
(-0.040355 0.00274698 0)
(-0.0463093 0.00275884 -5.44514e-21)
(-0.0523154 0.00274463 0)
(-0.0583188 0.00270781 0)
(-0.0642709 0.0026516 -4.61481e-21)
(-0.0701288 0.00257901 4.36001e-21)
(-0.0758552 0.00249286 -2.05862e-21)
(-0.0814185 0.00239587 -1.57818e-24)
(-0.0867924 0.00229068 1.82898e-21)
(-0.0919563 0.00218002 0)
(-0.0968961 0.00206674 -1.62251e-21)
(-0.101604 0.00195394 -4.57786e-21)
(-0.106081 0.00184504 5.73611e-21)
(-0.110336 0.0017438 -2.69387e-21)
(-0.114387 0.0016542 7.58478e-21)
(-0.118265 0.00158024 4.74348e-21)
(-0.12201 0.00152558 -8.89378e-21)
(-0.125669 0.00149263 8.33305e-21)
(-0.129294 0.00148265 -1.95078e-21)
(-0.132955 0.00149898 -3.65787e-21)
(-0.00020861 0.000878792 0)
(-0.00120063 0.00238731 4.43441e-21)
(-0.00325533 0.00368087 8.49479e-21)
(-0.00612914 0.00477998 -8.10693e-21)
(-0.00968797 0.00569991 -3.88237e-21)
(-0.0138415 0.00645427 1.47838e-20)
(-0.0184961 0.00705675 -3.52758e-21)
(-0.0235607 0.00752083 -6.71548e-21)
(-0.0289505 0.00785957 -8.58236e-24)
(-0.0345871 0.00808564 -1.81696e-20)
(-0.0403978 0.00821118 5.74147e-21)
(-0.0463163 0.0082478 2.17883e-20)
(-0.0522823 0.00820645 -1.03158e-20)
(-0.0582417 0.00809742 -4.75372e-24)
(-0.0641458 0.00793033 -4.62248e-21)
(-0.0699522 0.00771416 -1.55382e-24)
(-0.0756233 0.00745734 0)
(-0.0811274 0.00716795 0)
(-0.0864379 0.00685392 1.46439e-20)
(-0.0915339 0.00652333 0)
(-0.0964005 0.00618473 6.49126e-21)
(-0.10103 0.00584741 -6.10382e-21)
(-0.105421 0.00552164 -7.53573e-25)
(-0.109582 0.00521872 0)
(-0.113532 0.00495069 1.01166e-20)
(-0.1173 0.00472982 -9.48694e-21)
(-0.120925 0.00456726 8.89376e-21)
(-0.124458 0.00447062 -8.33304e-21)
(-0.127945 0.004444 7.80363e-21)
(-0.131462 0.00449766 -2.19492e-20)
(-0.000267015 0.00145493 -8.60217e-21)
(-0.00135123 0.00395349 -8.86385e-21)
(-0.00347001 0.00609722 0)
(-0.0063848 0.00791967 0)
(-0.0099645 0.00944588 0)
(-0.0141208 0.0106982 7.40777e-21)
(-0.0187622 0.011699 0)
(-0.0237993 0.0124706 6.70684e-21)
(-0.0291488 0.0130344 1.27527e-20)
(-0.0347335 0.0134114 1.2112e-20)
(-0.0404821 0.0136215 0)
(-0.0463291 0.013684 7.05838e-24)
(-0.0522151 0.013617 -2.06502e-20)
(-0.0580863 0.0134374 1.95414e-20)
(-0.0638947 0.0131611 9.23293e-21)
(-0.0695978 0.0128031 8.72878e-21)
(-0.0751582 0.0123771 -8.233e-21)
(-0.0805438 0.0118965 1.55442e-20)
(-0.0857275 0.0113744 -2.92953e-20)
(-0.0906875 0.010824 -7.08487e-26)
(-0.0954079 0.0102595 -2.5968e-20)
(-0.0998789 0.00969621 2.443e-20)
(-0.104099 0.0091512 0)
(-0.108073 0.0086434 0)
(-0.11182 0.00819324 1.0123e-20)
(-0.115367 0.00782171 0)
(-0.118754 0.00754824 0)
(-0.122033 0.00738648 0)
(-0.125245 0.00734453 -1.56113e-20)
(-0.12847 0.00743997 1.46322e-20)
(-0.000353451 0.00201759 8.60217e-21)
(-0.00157425 0.00548453 7.9931e-24)
(-0.00378811 0.0084615 3.7359e-23)
(-0.00676381 0.0109943 -1.62386e-20)
(-0.0103746 0.013117 -1.55131e-20)
(-0.0145352 0.0148602 1.72237e-23)
(-0.019157 0.0162548 -2.82203e-20)
(-0.024153 0.0173311 1.34371e-20)
(-0.0294424 0.0181188 -2.55485e-20)
(-0.0349498 0.0186467 2.42637e-20)
(-0.0406055 0.0189425 -1.15104e-20)
(-0.0463456 0.0190326 2.18212e-20)
(-0.0521115 0.0189422 2.06501e-20)
(-0.0578506 0.0186947 1.64725e-23)
(-0.0635154 0.0183121 -1.84919e-20)
(-0.0690635 0.0178149 0)
(-0.0744577 0.0172223 7.47413e-25)
(-0.0796653 0.0165527 1.55534e-20)
(-0.0846586 0.0158238 9.75215e-25)
(-0.0894143 0.0150541 -7.99583e-24)
(-0.093915 0.0142627 2.59755e-20)
(-0.0981487 0.0134711 -2.44299e-20)
(-0.102111 0.012703 0)
(-0.105806 0.0119851 2.15751e-20)
(-0.109248 0.0113466 4.69376e-24)
(-0.112462 0.010818 -5.69642e-20)
(-0.115492 0.0104283 1.77983e-20)
(-0.118388 0.0101988 3.33542e-20)
(-0.121184 0.0101437 1.56112e-20)
(-0.123971 0.0102887 1.46394e-20)
(-0.000466566 0.00256175 3.45252e-20)
(-0.00186635 0.00696726 -1.77848e-20)
(-0.00420507 0.0107541 1.70058e-20)
(-0.00726095 0.0139791 1.62691e-20)
(-0.0109128 0.0166848 0)
(-0.0150792 0.0189091 -2.96808e-20)
(-0.0196752 0.0206907 -1.4157e-20)
(-0.0246171 0.0220677 -2.68934e-20)
(-0.029827 0.0230774 1.27746e-20)
(-0.0352319 0.0237561 2.92194e-23)
(-0.0407645 0.0241387 2.30482e-20)
(-0.0463623 0.0242588 2.18685e-20)
(-0.0519685 0.0241481 -4.13556e-20)
(-0.0575315 0.0238363 1.95787e-20)
(-0.0630046 0.0233513 -1.90689e-23)
(-0.0683459 0.0227189 0)
(-0.073518 0.0219634 -1.64914e-20)
(-0.0784879 0.0211076 -3.11404e-20)
(-0.0832265 0.0201741 4.40225e-20)
(-0.0877094 0.0191857 1.3832e-20)
(-0.0919166 0.0181667 0)
(-0.0958336 0.0171439 -2.4464e-20)
(-0.0994524 0.0161475 0)
(-0.102774 0.0152122 -6.47469e-20)
(-0.105808 0.0143765 4.05067e-20)
(-0.108578 0.0136816 -4.74028e-24)
(-0.111128 0.0131679 3.56186e-20)
(-0.113511 0.0128665 -5.00312e-20)
(-0.115752 0.0128008 3.12403e-20)
(-0.117948 0.0130072 1.46383e-20)
(-0.000604612 0.00308273 -1.7283e-20)
(-0.00222323 0.00838935 1.77844e-20)
(-0.00471501 0.0129566 -1.71475e-24)
(-0.00786948 0.0168509 -4.89358e-20)
(-0.011572 0.0201221 0)
(-0.0157459 0.0228149 2.96808e-20)
(-0.0203102 0.0249747 -2.83588e-20)
(-0.0251853 0.026647 5.38198e-20)
(-0.0302968 0.0278759 0)
(-0.0355747 0.0287049 -2.42928e-20)
(-0.040954 0.0291757 -2.30482e-20)
(-0.0463747 0.0293284 -2.18472e-20)
(-0.0517817 0.0292011 -6.21475e-20)
(-0.0571247 0.0288295 2.57596e-24)
(-0.0623579 0.0282469 -1.79719e-23)
(-0.0674401 0.0274843 -1.41225e-23)
(-0.0723338 0.0265704 4.95619e-20)
(-0.0770053 0.0255326 -3.46161e-23)
(-0.0814246 0.0243975 3.14085e-23)
(-0.0855652 0.0231919 -2.76333e-20)
(-0.0894045 0.0219445 -2.02299e-23)
(-0.0929244 0.0206873 4.89413e-20)
(-0.0961129 0.0194566 -6.90146e-20)
(-0.0989658 0.018295 2.15892e-20)
(-0.101489 0.0172507 0)
(-0.103703 0.0163771 0)
(-0.105649 0.0157282 -3.56183e-20)
(-0.107386 0.0153487 3.33788e-20)
(-0.108926 0.0152755 -3.12362e-20)
(-0.110375 0.0155594 0)
(-0.0007655 0.0035763 -1.7335e-20)
(-0.00263971 0.00973956 0)
(-0.00531088 0.015052 1.70723e-20)
(-0.00858129 0.0195881 9.80579e-20)
(-0.0123438 0.0234037 -3.11754e-20)
(-0.0165265 0.0265493 0)
(-0.0210537 0.0290765 -5.22652e-23)
(-0.02585 0.0310369 2.69864e-20)
(-0.0308447 0.0324813 -2.56251e-20)
(-0.0359713 0.0334594 0)
(-0.0411679 0.0340194 0)
(-0.0463769 0.0342076 -4.38217e-20)
(-0.0515452 0.0340679 6.2176e-20)
(-0.056624 0.0336415 -1.96082e-20)
(-0.061569 0.0329671 0)
(-0.0663392 0.0320802 3.50511e-20)
(-0.0708973 0.0310138 -3.30286e-20)
(-0.0752091 0.0297993 3.11952e-20)
(-0.0792431 0.0284666 -5.87699e-20)
(-0.0829708 0.0270462 -8.30748e-20)
(-0.0863663 0.0255705 2.60391e-20)
(-0.0894076 0.0240758 2.45006e-20)
(-0.0920777 0.0226043 2.3001e-20)
(-0.0943667 0.0212059 0)
(-0.0962745 0.0199392 -4.05802e-20)
(-0.0978161 0.0188713 0)
(-0.0990325 0.0180725 0)
(-0.0999873 0.0176055 -6.67706e-20)
(-0.100677 0.0175273 -9.5691e-24)
(-0.101212 0.0179094 -8.78473e-20)
(-0.000946856 0.00403872 1.7335e-20)
(-0.00310993 0.0110079 3.58321e-20)
(-0.00598459 0.0170251 3.43009e-20)
(-0.00938707 0.022171 -3.27119e-20)
(-0.0132181 0.0265063 0)
(-0.0174114 0.0300861 0)
(-0.0218961 0.0329674 2.83737e-20)
(-0.0266019 0.0352072 -2.70367e-20)
(-0.0314621 0.036862 -3.91611e-23)
(-0.0364139 0.0379872 4.88277e-20)
(-0.0413987 0.038637 0)
(-0.0463615 0.0388632 4.38215e-20)
(-0.0512516 0.0387153 0)
(-0.056022 0.0382399 0)
(-0.0606295 0.03748 1.73253e-23)
(-0.065034 0.0364757 3.50757e-20)
(-0.0691982 0.0352639 -3.31291e-20)
(-0.0730873 0.033879 6.24829e-20)
(-0.0766684 0.0323543 -2.94428e-20)
(-0.0799104 0.0307229 8.31167e-20)
(-0.0827843 0.0290202 0)
(-0.0852634 0.0272859 0)
(-0.0873249 0.0255671 4.61117e-20)
(-0.0889519 0.0239207 0)
(-0.0901372 0.0224158 4.05553e-20)
(-0.0908884 0.0211344 -3.80689e-20)
(-0.0912444 0.0201666 3.56553e-20)
(-0.0912748 0.0195987 -3.34019e-20)
(-0.0909586 0.019516 6.25176e-20)
(-0.0903992 0.0200216 8.78827e-20)
(-0.00114609 0.00446686 0)
(-0.00362741 0.0121858 -3.58321e-20)
(-0.00672729 0.0188627 9.1627e-23)
(-0.0102765 0.0245824 0)
(-0.0141842 0.0294091 -6.27404e-20)
(-0.0183894 0.0334017 -3.54131e-23)
(-0.0228267 0.0366213 2.84475e-20)
(-0.0274307 0.0391295 0)
(-0.0321391 0.0409879 2.57119e-20)
(-0.0368931 0.0422571 -4.88276e-20)
(-0.0416372 0.0429964 0)
(-0.0463196 0.0432628 0)
(-0.0508918 0.043111 -4.16189e-20)
(-0.0553089 0.0425921 3.93462e-20)
(-0.059529 0.0417538 -3.71772e-20)
(-0.0635127 0.0406399 0)
(-0.0672229 0.0392906 -3.32144e-20)
(-0.0706241 0.0377434 -9.38179e-20)
(-0.0736819 0.0360337 -1.37694e-23)
(-0.0763628 0.0341968 -1.0165e-23)
(-0.078634 0.0322701 2.61121e-20)
(-0.0804638 0.0302957 4.91091e-20)
(-0.0818228 0.0283243 -9.22475e-20)
(-0.0826863 0.0264191 4.33352e-20)
(-0.0830381 0.0246589 -7.89904e-24)
(-0.0828765 0.0231416 2.09939e-23)
(-0.0822359 0.0219807 2.3029e-23)
(-0.0811931 0.021293 3.34231e-20)
(-0.0797093 0.0212026 0)
(-0.0778493 0.0218585 0)
(-0.00136045 0.0048582 3.49612e-20)
(-0.00418534 0.0132662 1.00172e-22)
(-0.0075295 0.0205535 9.96838e-23)
(-0.0112387 0.0268073 -6.59008e-20)
(-0.0152302 0.0320939 6.27809e-20)
(-0.0194485 0.0364747 0)
(-0.0238336 0.0400142 0)
(-0.0283249 0.0427778 5.43083e-20)
(-0.0328647 0.0448312 -5.15687e-20)
(-0.0373979 0.0462396 3.8956e-23)
(-0.0418727 0.0470669 9.29498e-20)
(-0.0462402 0.047375 4.40398e-20)
(-0.0504544 0.047223 -8.33663e-20)
(-0.0544725 0.0466663 3.94201e-20)
(-0.0582538 0.0457567 3.72848e-20)
(-0.0617598 0.0445415 -3.51933e-20)
(-0.0649535 0.0430639 6.63925e-20)
(-0.0677986 0.0413636 9.40484e-20)
(-0.0702592 0.0394779 5.91014e-20)
(-0.0722993 0.0374433 2.78073e-20)
(-0.073882 0.0352981 -5.22967e-20)
(-0.0749702 0.0330857 0)
(-0.0755276 0.0308589 3.40198e-23)
(-0.0755205 0.0286854 4.34095e-20)
(-0.074922 0.0266529 4.06543e-20)
(-0.073719 0.0248751 -7.62889e-20)
(-0.0719375 0.023492 -3.57172e-20)
(-0.0696642 0.0226591 6.68545e-20)
(-0.0668459 0.0225503 0)
(-0.0634425 0.0233774 -5.85145e-20)
(-0.00158715 0.0052109 3.50369e-20)
(-0.00477665 0.0142439 -7.21684e-20)
(-0.00838145 0.0220889 2.25692e-23)
(-0.0122621 0.0288336 -9.83421e-23)
(-0.0163436 0.0345453 0)
(-0.0205759 0.0392869 0)
(-0.0249039 0.0431251 0)
(-0.0292717 0.0461284 -5.44405e-20)
(-0.0336261 0.048366 5.16942e-20)
(-0.0379159 0.049907 -4.90363e-20)
(-0.0420926 0.0508194 -9.30832e-20)
(-0.0461103 0.0511693 -2.64925e-23)
(-0.0499257 0.0510199 8.35694e-20)
(-0.0534976 0.0504308 3.95509e-20)
(-0.0567869 0.0494571 0)
(-0.0597557 0.0481493 -7.06014e-20)
(-0.062367 0.0465533 9.99092e-20)
(-0.0645839 0.0447106 -9.40856e-20)
(-0.0663686 0.0426598 -5.91294e-20)
(-0.0676823 0.0404378 -1.67065e-19)
(-0.0684842 0.0380829 -3.73476e-24)
(-0.0687314 0.0356382 4.76114e-24)
(-0.06838 0.0331569 3.25085e-23)
(-0.0673866 0.0307091 -8.67705e-20)
(-0.0657126 0.0283893 1.22163e-19)
(-0.0633304 0.0263262 -5.44783e-23)
(-0.0602529 0.0246883 0)
(-0.05658 0.023678 -6.68533e-20)
(-0.052264 0.0235304 6.2523e-20)
(-0.0470196 0.0245381 5.87581e-20)
(-0.00182339 0.00552381 0)
(-0.00539426 0.015115 -3.62453e-20)
(-0.00927321 0.0234623 3.46277e-20)
(-0.0133349 0.030652 6.61922e-20)
(-0.0175117 0.0367509 3.16484e-20)
(-0.0217581 0.0418228 -6.02197e-20)
(-0.0260237 0.0459356 -6.2761e-23)
(-0.0302573 0.0491604 -5.45443e-20)
(-0.0344094 0.0515689 0)
(-0.0384328 0.0532337 4.92746e-20)
(-0.0422821 0.0542263 0)
(-0.0459144 0.0546166 0)
(-0.0492886 0.0544715 -8.37176e-20)
(-0.0523654 0.0538543 -7.91509e-20)
(-0.0551069 0.0528233 1.12317e-19)
(-0.0574757 0.0514319 7.06008e-20)
(-0.0594347 0.0497281 7.13938e-23)
(-0.0609458 0.0477551 -6.28583e-20)
(-0.0619695 0.0455521 1.1842e-19)
(-0.0624638 0.0431558 4.19751e-24)
(-0.0623837 0.0406036 1.0494e-19)
(-0.0616804 0.037937 0)
(-0.060302 0.0352076 0)
(-0.0581948 0.0324852 8.69472e-20)
(-0.0553071 0.0298681 -1.22164e-19)
(-0.0515944 0.0274973 1.14504e-19)
(-0.0470504 0.0255706 -7.14825e-20)
(-0.0417893 0.0243411 6.68773e-20)
(-0.0358244 0.0241213 -1.25042e-19)
(-0.0284067 0.0253723 5.88012e-20)
(-0.00206647 0.00579647 -3.53591e-20)
(-0.00603125 0.0158777 0)
(-0.010195 0.0246697 0)
(-0.0144453 0.0322558 -6.65529e-20)
(-0.0187213 0.0387015 1.2693e-19)
(-0.0229811 0.0440701 -6.0404e-20)
(-0.0271786 0.0484307 -9.96965e-23)
(-0.0312664 0.0518555 5.46985e-20)
(-0.0351989 0.054419 0)
(-0.0389322 0.0561961 7.30645e-23)
(-0.0424239 0.0572618 1.95688e-23)
(-0.0456337 0.0576892 -8.86392e-20)
(-0.0485226 0.0575487 -1.50632e-22)
(-0.0510529 0.0569066 -3.9682e-20)
(-0.0531875 0.0558243 -1.12485e-19)
(-0.0548892 0.0543579 7.08133e-20)
(-0.0561204 0.0525573 -6.67909e-20)
(-0.0568416 0.0504671 1.26018e-19)
(-0.057011 0.0481267 -1.18699e-19)
(-0.0565832 0.0455724 -1.11692e-19)
(-0.0555085 0.0428396 3.26543e-23)
(-0.0537321 0.0399671 -4.9372e-20)
(-0.0511936 0.037003 4.63423e-20)
(-0.0478286 0.0340137 5.58686e-23)
(-0.0435713 0.0310973 -1.22385e-19)
(-0.0383586 0.028403 -7.64118e-20)
(-0.0321588 0.0261538 1.42986e-19)
(-0.0250868 0.0246458 -1.33752e-19)
(-0.0172662 0.0242822 6.25184e-20)
(-0.0074746 0.0260695 7.7599e-23)
(-0.00231385 0.0060291 1.06242e-19)
(-0.00668102 0.0165316 -3.64492e-20)
(-0.0111372 0.0257094 -6.98205e-20)
(-0.0155818 0.0336413 1.99968e-19)
(-0.0199591 0.0403906 2.11335e-22)
(-0.0242305 0.0460198 0)
(-0.0283529 0.0505981 0)
(-0.0322826 0.0541988 5.48841e-20)
(-0.0359771 0.0568982 -5.20496e-20)
(-0.0393954 0.0587737 4.94586e-20)
(-0.0424977 0.0599028 -4.69066e-20)
(-0.0452459 0.0603617 -8.89733e-20)
(-0.0476028 0.0602238 1.68088e-19)
(-0.0495316 0.0595585 -3.97551e-20)
(-0.0509959 0.05843 7.49917e-20)
(-0.0519581 0.0568966 -1.41877e-19)
(-0.0523793 0.0550103 -1.26753e-23)
(-0.0522183 0.0528166 4.93934e-23)
(-0.0514301 0.0503554 1.18801e-19)
(-0.0499655 0.0476621 -4.31713e-23)
(-0.0477695 0.0447698 0)
(-0.0447806 0.0417137 0)
(-0.0409298 0.0385365 -4.64843e-20)
(-0.0361415 0.0352987 -1.74112e-19)
(-0.0303355 0.0320934 1.22421e-19)
(-0.0234292 0.0290714 -4.34769e-23)
(-0.0153688 0.0264726 -1.43024e-19)
(-0.00625657 0.0246306 1.33666e-19)
(0.00384928 0.024105 -6.25512e-20)
(0.0161007 0.0264498 5.8273e-20)
(-0.00256323 0.00622256 0)
(-0.00733742 0.0170782 0)
(-0.0120909 0.026582 7.01749e-20)
(-0.016733 0.0348076 -1.33706e-19)
(-0.021212 0.0418152 8.49104e-23)
(-0.0254913 0.047666 -6.08297e-20)
(-0.0295304 0.052429 1.73748e-19)
(-0.0332881 0.0561783 -1.65194e-19)
(-0.0367244 0.0589915 -3.93618e-24)
(-0.0398007 0.0609482 -4.95963e-20)
(-0.0424795 0.0621282 -1.4119e-19)
(-0.0447241 0.0626106 1.33491e-19)
(-0.0464986 0.0624714 0)
(-0.0477668 0.0617827 0)
(-0.0484918 0.0606115 7.52141e-20)
(-0.0486352 0.0590183 1.42224e-19)
(-0.0481563 0.0570568 -6.70419e-20)
(-0.0470106 0.054774 0)
(-0.0451496 0.05221 -5.95158e-20)
(-0.0425189 0.0493993 1.02896e-23)
(-0.0390575 0.046373 -5.2736e-20)
(-0.0346964 0.043162 0)
(-0.0293576 0.0398029 -4.65434e-20)
(-0.0229538 0.0363475 4.36049e-20)
(-0.01539 0.0328795 -8.16116e-20)
(-0.00656358 0.029544 2.29384e-19)
(0.0036015 0.0265873 -8.90588e-23)
(0.0150164 0.0243821 6.68448e-20)
(0.0277274 0.0236611 0)
(0.0429356 0.0263579 -5.86659e-20)
(-0.00281258 0.00637831 -7.1473e-20)
(-0.00799491 0.0175202 7.34764e-20)
(-0.0130477 0.0272904 1.56473e-22)
(-0.017888 0.0357562 -6.71199e-20)
(-0.0224668 0.0429747 0)
(-0.0267482 0.0490057 -1.22157e-19)
(-0.0306934 0.0539176 8.42823e-23)
(-0.0342628 0.0577851 5.50379e-20)
(-0.0374183 0.0606871 3.51445e-24)
(-0.040123 0.0627048 -2.1102e-24)
(-0.0423408 0.0639204 1.41309e-19)
(-0.044036 0.0644154 4.46447e-20)
(-0.045173 0.0642685 4.23398e-20)
(-0.0457156 0.0635543 -7.98677e-20)
(-0.0456257 0.0623422 7.54455e-20)
(-0.044863 0.0606951 -7.11435e-20)
(-0.0433836 0.0586686 6.71617e-20)
(-0.041139 0.0563111 -6.33007e-20)
(-0.0380755 0.0536632 0)
(-0.0341324 0.0507592 -5.61775e-20)
(-0.0292413 0.0476283 1.05391e-19)
(-0.0233245 0.0442975 4.95893e-20)
(-0.0162939 0.0407969 -4.65784e-20)
(-0.00805042 0.0371685 1.74509e-19)
(0.00151579 0.0334829 -4.09021e-20)
(0.0125273 0.029871 7.6517e-20)
(0.0250858 0.0265727 -7.14332e-20)
(0.0391148 0.0239861 8.64459e-23)
(0.0547293 0.0229983 0)
(0.0734503 0.0260076 -1.15951e-19)
(-0.00306024 0.00649831 -1.15501e-22)
(-0.00864859 0.0178618 -7.37789e-20)
(-0.0139998 0.027839 0)
(-0.0190364 0.036491 -6.75256e-20)
(-0.0237103 0.0438716 6.42867e-20)
(-0.0279853 0.0500391 -9.67721e-23)
(-0.031823 0.0550614 0)
(-0.0351848 0.0590139 -8.597e-23)
(-0.0380334 0.0619763 -5.25021e-20)
(-0.0403328 0.064032 4.98825e-20)
(-0.0420476 0.065265 0)
(-0.0431423 0.0657592 -8.95047e-20)
(-0.0435809 0.0655956 8.48835e-20)
(-0.0433258 0.0648516 0)
(-0.042337 0.0635989 0)
(-0.0405707 0.0619025 0)
(-0.0379786 0.0598204 0)
(-0.0345068 0.0574024 6.33894e-20)
(-0.0300944 0.0546904 -5.97035e-20)
(-0.0246729 0.051719 1.68411e-19)
(-0.0181645 0.0485163 -1.05604e-19)
(-0.0104812 0.0451065 -9.91113e-20)
(-0.0015236 0.041514 1.39644e-19)
(0.00881998 0.0377711 6.16561e-23)
(0.0206737 0.033933 -8.18028e-20)
(0.0341787 0.0301097 -7.65149e-20)
(0.0494643 0.0265202 -7.15231e-20)
(0.0664653 0.0235596 1.33554e-19)
(0.0853162 0.0222276 -1.24474e-19)
(0.108144 0.0255692 2.31542e-19)
(-0.00330486 0.00658495 1.44077e-19)
(-0.00929426 0.018108 -1.33397e-22)
(-0.0149401 0.0282341 -1.41846e-19)
(-0.0201679 0.0370181 1.35315e-19)
(-0.0249291 0.0445107 -6.46386e-20)
(-0.0291856 0.0507691 -6.14494e-20)
(-0.0328985 0.055861 5.84624e-20)
(-0.036029 0.0598624 5.5553e-20)
(-0.03854 0.0628545 -1.05576e-19)
(-0.0403954 0.0649221 -1.50206e-19)
(-0.0415594 0.0661516 -4.73728e-20)
(-0.0419959 0.066629 1.79472e-19)
(-0.0416673 0.0664378 -2.54528e-19)
(-0.0405337 0.0656576 8.02261e-20)
(-0.0385514 0.0643628 0)
(-0.0356719 0.0626208 0)
(-0.0318409 0.0604917 0)
(-0.0269969 0.0580275 1.27013e-19)
(-0.0210701 0.055272 -5.9787e-20)
(-0.0139816 0.0522608 -5.63096e-20)
(-0.00564236 0.0490223 -1.05715e-19)
(0.00404803 0.0455795 9.92898e-20)
(0.0152021 0.0419529 -4.66167e-20)
(0.0279449 0.0381666 -8.74353e-20)
(0.0424144 0.0342607 -9.97169e-23)
(0.0587672 0.0303208 -1.5296e-19)
(0.0771596 0.0265323 2.1454e-19)
(0.0975369 0.023253 -2.00432e-19)
(0.119986 0.021525 6.25673e-20)
(0.147589 0.025215 -5.76003e-20)
(-0.00354548 0.00664094 -7.2194e-20)
(-0.00992844 0.018265 7.42815e-20)
(-0.0158622 0.0284833 7.10068e-20)
(-0.0212728 0.0373452 -2.03776e-19)
(-0.0261093 0.0448989 6.46352e-20)
(-0.0303309 0.0512011 6.16742e-20)
(-0.0338968 0.0563198 0)
(-0.0367671 0.0603319 0)
(-0.0389038 0.0633202 5.28259e-20)
(-0.0402696 0.0653715 1.0019e-19)
(-0.0408277 0.0665743 -1.90202e-19)
(-0.0405398 0.0670167 -8.71586e-23)
(-0.0393657 0.0667849 0)
(-0.0372616 0.065961 0)
(-0.0341787 0.0646215 -7.58692e-20)
(-0.030062 0.0628368 3.72225e-23)
(-0.024849 0.0606693 6.75092e-20)
(-0.0184684 0.0581738 -6.35336e-20)
(-0.0108395 0.0553963 -1.19756e-19)
(-0.00187045 0.052375 1.12523e-19)
(0.00854161 0.04914 5.28813e-20)
(0.0205117 0.045715 -1.49107e-19)
(0.0341672 0.0421191 -9.31619e-20)
(0.0496474 0.0383714 8.75414e-20)
(0.0671032 0.0345001 8.19275e-20)
(0.0867021 0.0305665 7.65388e-20)
(0.108623 0.0267151 0)
(0.132824 0.0232357 0)
(0.159239 0.0211052 1.24127e-19)
(0.192356 0.0251685 0)
(-0.00378145 0.00666916 7.28401e-20)
(-0.0105482 0.0183392 -7.47737e-20)
(-0.0167599 0.028595 1.4304e-19)
(-0.0223409 0.0374812 -2.79654e-22)
(-0.0272362 0.0450449 0)
(-0.0314011 0.0513428 0)
(-0.0347918 0.056444 0)
(-0.0373663 0.0604269 -5.59114e-20)
(-0.0390844 0.0633763 5.30905e-20)
(-0.039907 0.0653811 0)
(-0.0397945 0.0665322 9.51775e-20)
(-0.0387056 0.0669202 9.02178e-20)
(-0.0365959 0.0666337 -8.52934e-20)
(-0.0334159 0.0657574 8.0576e-20)
(-0.02911 0.0643705 -9.47066e-23)
(-0.0236145 0.0625461 -7.17367e-20)
(-0.0168566 0.0603497 -6.76328e-20)
(-0.00875312 0.057839 1.91016e-19)
(0.000790714 0.0550637 5.98216e-20)
(0.0118817 0.0520651 -1.12723e-19)
(0.024639 0.0488768 -5.29151e-20)
(0.0391943 0.0455254 4.96929e-20)
(0.0556911 0.0420318 0)
(0.0742834 0.0384142 -8.7418e-20)
(0.0951328 0.0346937 -8.18328e-20)
(0.118412 0.030912 0)
(0.144312 0.0271733 7.1284e-20)
(0.172815 0.0236814 -1.33528e-19)
(0.203544 0.0212021 -1.86331e-19)
(0.242951 0.025704 0)
(-0.00401242 0.00667256 -1.45846e-19)
(-0.011151 0.0183374 7.52625e-20)
(-0.0176275 0.028578 -1.4352e-19)
(-0.0233619 0.0374362 -2.88727e-22)
(-0.028294 0.0449588 0)
(-0.0323739 0.0512038 0)
(-0.0355538 0.0562424 5.91962e-20)
(-0.0377885 0.0601551 1.12435e-19)
(-0.0390347 0.0630292 0)
(-0.03925 0.0649564 0)
(-0.038391 0.06603 -1.91218e-19)
(-0.0364117 0.0663435 9.05222e-20)
(-0.0332617 0.0659881 -1.40337e-22)
(-0.0288843 0.0650511 0)
(-0.0232147 0.0636149 -3.229e-23)
(-0.0161785 0.0617555 7.18556e-20)
(-0.00769008 0.0595419 -1.59659e-22)
(0.00234831 0.0570355 -2.54958e-19)
(0.0140475 0.0542902 -5.99926e-20)
(0.0275319 0.0513519 1.12721e-19)
(0.0429387 0.0482592 1.05878e-19)
(0.0604174 0.045044 -8.57505e-23)
(0.0801278 0.0417319 9.32888e-20)
(0.102237 0.0383442 1.74822e-19)
(0.126914 0.0349012 8.18297e-20)
(0.154326 0.0314327 7.64623e-20)
(0.184663 0.0280103 7.12091e-20)
(0.217946 0.0247581 1.32776e-19)
(0.253278 0.0220494 -7.61124e-22)
(0.29973 0.0271267 5.60673e-20)
(-0.00423825 0.00665399 1.46885e-19)
(-0.0117347 0.0182662 -2.26291e-19)
(-0.0184588 0.0284414 1.44157e-19)
(-0.0243245 0.0372204 1.37556e-19)
(-0.0292648 0.0446514 6.55244e-20)
(-0.0332237 0.0507953 -4.12647e-23)
(-0.0361484 0.055726 -5.91056e-20)
(-0.0379895 0.0595273 -1.12434e-19)
(-0.0386993 0.0622897 2.38842e-22)
(-0.0382309 0.0641079 2.02462e-19)
(-0.0365357 0.0650787 -9.61554e-20)
(-0.0335613 0.0652982 1.81324e-19)
(-0.0292494 0.0648606 -1.08399e-22)
(-0.0235338 0.0638566 -1.61733e-19)
(-0.0163385 0.0623715 -1.59219e-23)
(-0.00757585 0.060485 0)
(0.00285488 0.0582701 3.38754e-19)
(0.0150684 0.0557927 6.36874e-20)
(0.0291938 0.0531116 0)
(0.0453745 0.0502787 5.63763e-20)
(0.0637667 0.0473392 -5.30274e-20)
(0.0845373 0.0443317 1.98864e-19)
(0.10786 0.0412895 -2.79842e-19)
(0.133911 0.0382409 8.7464e-20)
(0.162857 0.0352106 0)
(0.194852 0.0322249 7.63331e-20)
(0.230054 0.0293347 -1.42541e-19)
(0.268556 0.0266232 1.32731e-19)
(0.308674 0.0238612 -1.23537e-19)
(0.362805 0.0297425 -1.13536e-19)
(-0.0044589 0.00661605 -1.47406e-19)
(-0.012297 0.0181318 -3.61676e-22)
(-0.0192472 0.0281938 -7.22403e-20)
(-0.0252159 0.036844 -6.89275e-20)
(-0.0301282 0.0441343 -1.31762e-19)
(-0.0339211 0.0501295 6.2661e-20)
(-0.036536 0.0549078 7.96191e-23)
(-0.0379178 0.0585572 -1.13032e-19)
(-0.0380138 0.0611723 -1.60496e-19)
(-0.0367709 0.0628516 1.48846e-22)
(-0.0341335 0.0636954 9.58998e-20)
(-0.0300411 0.0638034 -1.81537e-19)
(-0.0244255 0.0632733 8.59031e-20)
(-0.0172088 0.0621992 8.11008e-20)
(-0.00830133 0.0606702 -9.39505e-24)
(0.00240023 0.0587701 7.20801e-20)
(0.015014 0.0565764 -1.35595e-19)
(0.0296736 0.0541605 0)
(0.0465277 0.0515872 -1.20131e-19)
(0.065739 0.0489154 1.1289e-19)
(0.0874818 0.0461979 -1.06007e-19)
(0.111937 0.0434823 -9.9472e-20)
(0.139288 0.0408108 0)
(0.169708 0.0382213 -2.61921e-19)
(0.203353 0.035747 1.63627e-22)
(0.240341 0.0334173 -3.81572e-19)
(0.280764 0.0312714 2.13936e-19)
(0.324816 0.0294239 -2.65167e-19)
(0.369763 0.0268194 1.23529e-19)
(0.431941 0.0338239 -1.12261e-19)
(-0.00467428 0.00656101 7.38826e-20)
(-0.0128353 0.0179395 7.59724e-20)
(-0.0199851 0.0278429 7.29281e-20)
(-0.0260213 0.036317 -1.89742e-22)
(-0.0308606 0.0434189 -1.68889e-22)
(-0.0344321 0.0492195 0)
(-0.0366703 0.0538026 0)
(-0.0375139 0.0572615 0)
(-0.0369034 0.0596958 0)
(-0.0347782 0.0612086 0)
(-0.0310741 0.0619044 9.62328e-20)
(-0.0257201 0.0618872 -9.10087e-20)
(-0.0186362 0.0612587 8.61087e-20)
(-0.00973039 0.0601168 7.80577e-24)
(0.0011031 0.0585554 -7.64867e-20)
(0.0139854 0.0566629 1.57688e-23)
(0.0290538 0.0545225 -1.35891e-19)
(0.0464619 0.0522114 1.27844e-19)
(0.0663781 0.0498018 1.20127e-19)
(0.088983 0.0473604 -1.12775e-19)
(0.114465 0.0449489 2.12108e-19)
(0.143012 0.0426245 0)
(0.174806 0.0404396 -1.86294e-19)
(0.210005 0.0384423 3.23531e-22)
(0.248731 0.0366758 3.85606e-22)
(0.291043 0.0351754 5.66304e-22)
(0.336922 0.0339691 -7.07783e-20)
(0.386671 0.0332977 1.32436e-19)
(0.436323 0.0310689 1.23054e-19)
(0.506463 0.039577 5.83202e-20)
(-0.00488416 0.00649062 0)
(-0.013346 0.0176937 7.65333e-20)
(-0.020663 0.0273954 -7.27487e-20)
(-0.0267233 0.0356479 -1.34959e-22)
(-0.0314344 0.0425163 1.32819e-19)
(-0.034717 0.0480787 -6.32115e-20)
(-0.0364982 0.0524264 0)
(-0.0367092 0.0556591 0)
(-0.0352823 0.0578825 -1.07831e-19)
(-0.032148 0.0592052 1.02295e-19)
(-0.0272314 0.0597369 9.67978e-20)
(-0.0204492 0.0595863 0)
(-0.011707 0.0588598 8.63253e-20)
(-0.000896409 0.0576605 0)
(0.0121063 0.0560872 -1.53202e-19)
(0.0274419 0.0542341 2.16617e-19)
(0.0452679 0.0521907 2.03871e-19)
(0.0657574 0.0500415 -6.39561e-20)
(0.0890965 0.0478666 -1.17254e-22)
(0.115479 0.0457414 -1.69435e-19)
(0.1451 0.0437372 0)
(0.178145 0.0419207 0)
(0.214774 0.0403544 9.31903e-20)
(0.255109 0.0390955 1.74312e-19)
(0.299211 0.0381956 -1.02973e-22)
(0.347048 0.0376944 1.52391e-19)
(0.398443 0.0375989 1.42067e-19)
(0.453763 0.0383641 0)
(0.507837 0.0367158 -1.23045e-19)
(0.585186 0.047109 1.69129e-19)
(-0.00508791 0.00640604 7.50645e-20)
(-0.0138246 0.0173974 0)
(-0.0212694 0.0268564 1.61501e-22)
(-0.0273009 0.0348446 -7.01037e-20)
(-0.0318172 0.0414367 6.68992e-20)
(-0.0347303 0.0467207 6.34064e-20)
(-0.0359588 0.0507963 -1.11695e-22)
(-0.0354255 0.0537714 5.73517e-20)
(-0.0330534 0.0557587 0)
(-0.0287619 0.0568734 -2.05124e-19)
(-0.0224638 0.0572312 2.67752e-22)
(-0.0140612 0.0569464 0)
(-0.0034432 0.0561312 8.65305e-20)
(0.0095168 0.0548945 -2.446e-19)
(0.0249623 0.0533412 7.68966e-20)
(0.0430543 0.0515722 -7.22371e-20)
(0.0639698 0.0496844 -1.36101e-19)
(0.0878993 0.0477703 -1.92105e-19)
(0.115042 0.0459185 0)
(0.145596 0.0442137 0)
(0.17975 0.0427361 1.05981e-19)
(0.217669 0.0415615 9.92421e-20)
(0.25947 0.0407602 -9.32308e-20)
(0.305207 0.0403953 0)
(0.354845 0.0405221 0)
(0.408217 0.0411789 0)
(0.464964 0.0423407 1.41455e-19)
(0.525364 0.0447018 -6.56166e-20)
(0.58347 0.0438257 1.23584e-19)
(0.666379 0.0564021 1.09752e-19)
(-0.00528443 0.00630776 -1.50338e-19)
(-0.0142648 0.0170522 7.73832e-20)
(-0.02179 0.0262295 -7.40971e-20)
(-0.0277293 0.0339131 7.06394e-20)
(-0.0319715 0.0401897 -6.68991e-20)
(-0.0344194 0.0451588 6.37001e-20)
(-0.0349827 0.0489305 -6.06032e-20)
(-0.0335747 0.051622 -1.1458e-19)
(-0.0301074 0.0533543 1.08974e-19)
(-0.0244879 0.0542503 2.05797e-19)
(-0.0166143 0.0544326 9.71162e-20)
(-0.0063723 0.0540223 -9.19653e-20)
(0.00636732 0.0531384 2.20865e-22)
(0.0217508 0.0518965 2.38857e-23)
(0.0399419 0.0504087 7.7046e-20)
(0.061121 0.0487839 0)
(0.0854821 0.0471268 1.36176e-19)
(0.113227 0.0455387 3.20141e-19)
(0.14456 0.0441171 -6.02426e-20)
(0.179669 0.0429549 0)
(0.21872 0.0421404 -2.11943e-19)
(0.261829 0.0417556 -9.93095e-20)
(0.309042 0.0418744 -9.28587e-20)
(0.360308 0.0425602 8.71831e-20)
(0.415452 0.0438652 -8.10982e-20)
(0.474128 0.0458146 7.60585e-20)
(0.535785 0.0483569 -3.53194e-22)
(0.600345 0.052321 1.30968e-19)
(0.662037 0.0524487 -1.22367e-19)
(0.747695 0.0673396 -2.20789e-19)
(-0.00547189 0.0061956 7.59743e-20)
(-0.0146586 0.0166582 7.78088e-20)
(-0.0222073 0.0255164 -2.38707e-22)
(-0.0279791 0.0328578 4.03308e-22)
(-0.0318537 0.0387833 0)
(-0.0337246 0.043406 -2.42938e-22)
(-0.0334921 0.0468477 -1.82858e-19)
(-0.0310586 0.0492364 0)
(-0.0263241 0.0507026 -1.09369e-19)
(-0.0191813 0.0513779 -4.13114e-19)
(-0.00951221 0.0513932 9.77334e-20)
(0.00281554 0.0508775 -9.22525e-20)
(0.0179508 0.0499575 -1.73482e-19)
(0.0360597 0.0487568 1.63951e-19)
(0.0573253 0.0473959 0)
(0.0819443 0.045992 7.24285e-20)
(0.110122 0.0446588 -2.04822e-19)
(0.142062 0.0435062 -6.41304e-20)
(0.177958 0.0426395 -1.80719e-19)
(0.217973 0.0421588 0)
(0.262219 0.0421568 2.11916e-19)
(0.310735 0.0427168 9.93044e-20)
(0.363458 0.0439099 0)
(0.420189 0.0457912 8.68602e-20)
(0.480571 0.0483997 0)
(0.544032 0.0517329 -7.54312e-20)
(0.609845 0.0557506 -2.11087e-19)
(0.67723 0.0611333 -2.61561e-19)
(0.741998 0.0627065 -1.21262e-19)
(0.826049 0.0797887 -3.39116e-21)
(-0.0056476 0.00606866 -7.59743e-20)
(-0.0149954 0.016214 2.95234e-22)
(-0.0224999 0.0247171 7.47955e-20)
(-0.0280157 0.0316816 -7.10426e-20)
(-0.0314141 0.0372249 -6.77267e-20)
(-0.0325789 0.041475 1.28488e-19)
(-0.0314004 0.0445674 6.12457e-20)
(-0.0277694 0.0466419 1.16038e-19)
(-0.0215723 0.04784 1.09429e-19)
(-0.0126863 0.0483032 1.03874e-19)
(-0.000975693 0.0481717 1.96212e-19)
(0.0137109 0.0475837 -3.06719e-22)
(0.031542 0.0466748 0)
(0.0527026 0.0455776 -8.19569e-20)
(0.0773914 0.0444218 -2.17813e-22)
(0.105816 0.0433337 1.31999e-22)
(0.138182 0.0424357 2.04923e-19)
(0.174682 0.0418454 0)
(0.215479 0.0416743 1.20429e-19)
(0.260681 0.0420257 0)
(0.310319 0.0429916 2.29054e-24)
(0.364316 0.044649 -9.90489e-20)
(0.422455 0.0470561 1.8571e-19)
(0.48435 0.0502479 -8.7109e-20)
(0.549425 0.054238 -1.61911e-19)
(0.616851 0.0589785 7.56389e-20)
(0.685755 0.0644975 2.81176e-19)
(0.754409 0.0709308 6.50661e-20)
(0.821608 0.0748517 3.01413e-19)
(0.897799 0.093263 5.72835e-20)
(-0.00580789 0.00592542 7.67188e-20)
(-0.0152618 0.0157168 -1.57454e-19)
(-0.0226424 0.0238299 0)
(-0.0277995 0.0303861 0)
(-0.0305963 0.0355206 6.81207e-20)
(-0.0309076 0.0393784 -2.67329e-22)
(-0.0286128 0.0421098 -1.22588e-19)
(-0.0235904 0.0438679 -1.16236e-19)
(-0.015712 0.0448063 4.03606e-22)
(-0.00483813 0.0450776 4.19853e-22)
(0.00918513 0.0448328 -9.81107e-20)
(0.0265282 0.0442202 1.85093e-19)
(0.0473778 0.0433854 -1.7476e-19)