/*--------------------------------*- C++ -*----------------------------------*\
  =========                 |
  \\      /  F ield         | OpenFOAM: The Open Source CFD Toolbox
   \\    /   O peration     | Website:  https://openfoam.org
    \\  /    A nd           | Version:  7
     \\/     M anipulation  |
\*---------------------------------------------------------------------------*/
FoamFile
{
    version     2.0;
    format      ascii;
    class       volVectorField;
    location    "10";
    object      U;
}
// * * * * * * * * * * * * * * * * * * * * * * * * * * * * * * * * * * * * * //

dimensions      [0 1 -1 0 0 0 0];

internalField   nonuniform List<vector> 
8820
(
(-0.000814602 0.00109499 -5.50336e-22)
(-0.00455355 0.00267859 -1.21234e-20)
(-0.0117592 0.00380345 -5.63324e-21)
(-0.0209368 0.00458045 -2.44201e-21)
(-0.0313767 0.00508833 7.45154e-22)
(-0.0426361 0.00539065 -4.45761e-21)
(-0.0543504 0.00554024 -9.62294e-21)
(-0.0662491 0.00557992 -5.82641e-21)
(-0.0781426 0.00554389 1.35053e-20)
(-0.0899039 0.00545921 -2.40618e-21)
(-0.101455 0.00534743 3.86087e-21)
(-0.11276 0.00522637 5.59744e-21)
(-0.123817 0.00511192 -8.07618e-21)
(-0.134658 0.00501977 -9.19642e-21)
(-0.145345 0.00496673 4.27421e-21)
(-0.155976 0.00497161 2.31664e-21)
(-0.166704 0.00505517 5.81144e-22)
(-0.17775 0.00523891 1.56974e-20)
(-0.189213 0.00554351 -4.97592e-21)
(-0.200896 0.00598872 -3.30052e-20)
(-0.214183 0.00657996 2.17087e-22)
(-0.000945551 0.00303941 1.63735e-20)
(-0.00482345 0.00746491 -1.78251e-20)
(-0.0120414 0.0106419 3.49216e-21)
(-0.0211516 0.0128761 1.92919e-20)
(-0.0314667 0.0143791 -8.00857e-21)
(-0.042556 0.0153195 -9.63923e-21)
(-0.0540635 0.0158366 -1.51702e-20)
(-0.0657231 0.0160436 1.46269e-20)
(-0.0773471 0.0160321 2.13386e-20)
(-0.0888077 0.015876 -1.72759e-20)
(-0.100025 0.0156358 -2.09684e-20)
(-0.110957 0.015363 -3.33679e-20)
(-0.121596 0.015104 -1.50848e-20)
(-0.131965 0.0149054 -2.8936e-20)
(-0.142118 0.0148166 1.50824e-20)
(-0.152138 0.0148931 -2.25204e-21)
(-0.162168 0.0151964 -1.13076e-20)
(-0.172418 0.0157914 -1.50487e-21)
(-0.182984 0.0167419 -3.12869e-20)
(-0.193637 0.0181107 -1.93233e-20)
(-0.205751 0.0199155 2.04169e-20)
(-0.00119755 0.00490434 4.76074e-20)
(-0.00534405 0.0120737 -1.04109e-20)
(-0.0125862 0.0172473 3.75566e-20)
(-0.0215662 0.0209086 2.53135e-20)
(-0.0316387 0.0233923 2.56542e-20)
(-0.0423966 0.0249651 1.16467e-20)
(-0.0535 0.0258484 -1.91261e-20)
(-0.0646919 0.0262223 3.32603e-20)
(-0.0757882 0.0262334 5.02551e-20)
(-0.0866602 0.0260004 2.66134e-20)
(-0.0972229 0.025621 -3.96733e-20)
(-0.107427 0.0251785 6.68727e-20)
(-0.117251 0.0247482 -5.49524e-21)
(-0.126704 0.0244051 -1.23193e-19)
(-0.135819 0.0242297 -8.39458e-20)
(-0.144658 0.0243133 4.61145e-20)
(-0.153336 0.0247591 -2.58899e-20)
(-0.162047 0.025679 -6.03781e-20)
(-0.170877 0.027189 9.94438e-20)
(-0.179537 0.0294068 -4.27827e-20)
(-0.189369 0.0323674 -5.12927e-20)
(-0.00155904 0.0066423 -1.48952e-20)
(-0.00609466 0.0163974 9.95629e-20)
(-0.0133761 0.0234766 -1.33024e-20)
(-0.0221717 0.0285145 -1.34098e-19)
(-0.0318953 0.0319534 -1.3978e-20)
(-0.0421733 0.034148 -1.24364e-19)
(-0.0526892 0.0353939 6.40928e-20)
(-0.0631995 0.0359334 1.2021e-19)
(-0.0735258 0.0359638 -1.09856e-19)
(-0.0835391 0.0356456 -1.45877e-19)
(-0.0931487 0.035111 8.33558e-20)
(-0.102294 0.0344718 -7.86714e-20)
(-0.110939 0.0338292 9.61211e-20)
(-0.119069 0.0332832 1.36955e-19)
(-0.126692 0.0329419 2.66956e-20)
(-0.133838 0.0329298 -1.06572e-20)
(-0.140583 0.0333919 -1.05464e-19)
(-0.147093 0.0344926 -2.14595e-20)
(-0.153444 0.0364139 -2.41291e-20)
(-0.159263 0.0393499 -6.26684e-21)
(-0.165796 0.0433663 -1.40221e-20)
(-0.00201393 0.00821302 -6.58191e-20)
(-0.00704632 0.0203426 -9.62766e-20)
(-0.0143862 0.029203 5.72675e-20)
(-0.0229552 0.0355461 -7.60973e-20)
(-0.0322398 0.0399022 8.60615e-20)
(-0.0419078 0.0427008 4.45805e-20)
(-0.0516721 0.0443022 9.18804e-20)
(-0.0613071 0.0450039 -7.69066e-21)
(-0.0706431 0.0450489 -9.17971e-20)
(-0.0795521 0.0446355 5.10138e-20)
(-0.0879378 0.0439263 1.06319e-20)
(-0.0957282 0.0430582 1.9923e-20)
(-0.10287 0.0421535 -2.99624e-20)
(-0.109324 0.0413321 -2.9012e-20)
(-0.115066 0.0407244 1.77976e-20)
(-0.120089 0.0404832 -3.48843e-20)
(-0.12442 0.0407927 -5.65908e-21)
(-0.128182 0.0418739 6.06561e-20)
(-0.131445 0.0439909 3.05015e-20)
(-0.133742 0.0474424 -3.94845e-20)
(-0.136096 0.0523515 1.15352e-19)
(-0.00254302 0.00958545 1.35666e-20)
(-0.00816401 0.0238347 3.00536e-19)
(-0.0155859 0.0343212 -2.02336e-20)
(-0.0239007 0.0418768 1.97749e-19)
(-0.0326752 0.0470976 5.11251e-20)
(-0.0416248 0.0504727 -5.16166e-20)
(-0.0504965 0.0524166 -3.70195e-20)
(-0.0590871 0.0532736 6.90077e-20)
(-0.0672383 0.0533268 -2.28667e-20)
(-0.0748258 0.0528072 2.19189e-19)
(-0.0817497 0.0519036 -7.23062e-20)
(-0.0879276 0.0507733 2.77827e-19)
(-0.0932888 0.0495544 3.33548e-21)
(-0.0977709 0.0483806 1.18362e-20)
(-0.101318 0.0473963 -1.16918e-19)
(-0.103878 0.0467745 -7.43466e-20)
(-0.105428 0.0467323 1.47227e-19)
(-0.106033 0.0475463 -1.32087e-19)
(-0.105762 0.0495753 -1.14837e-19)
(-0.104085 0.0532496 -1.59083e-20)
(-0.101555 0.0587891 3.46713e-20)
(-0.00312553 0.0107392 6.90251e-20)
(-0.0094093 0.0268203 -9.68964e-20)
(-0.0169412 0.0387512 -5.37995e-20)
(-0.0249888 0.0474051 -2.02255e-19)
(-0.0332029 0.0534214 -6.73073e-20)
(-0.0413491 0.0573336 2.13655e-19)
(-0.0492125 0.0595983 4.02126e-20)
(-0.0566155 0.0605986 9.05336e-20)
(-0.0634151 0.0606509 -8.77631e-20)
(-0.0694935 0.0600138 3.85647e-20)
(-0.0747502 0.0588977 3.33728e-20)
(-0.0790955 0.0574755 -1.1195e-19)
(-0.0824447 0.0558956 1.86817e-19)
(-0.0847138 0.0542978 -2.97208e-20)
(-0.085817 0.0528316 1.97589e-19)
(-0.0856642 0.0516784 8.41285e-20)
(-0.0841735 0.051077 -6.66811e-20)
(-0.0813444 0.0513527 -7.05488e-20)
(-0.0772567 0.0529604 -3.85296e-20)
(-0.0714305 0.0565022 -7.4423e-20)
(-0.0635585 0.0624409 7.72205e-20)
(-0.00374086 0.0116651 4.69006e-20)
(-0.0107432 0.0292693 7.14516e-20)
(-0.0184163 0.0424403 6.85964e-20)
(-0.0261981 0.0520574 -1.10801e-20)
(-0.0338211 0.0587821 2.62044e-19)
(-0.0411018 0.0631769 -1.5302e-19)
(-0.0478656 0.0657298 1.80876e-19)
(-0.0539633 0.0668536 -2.40723e-19)
(-0.0592703 0.0668919 1.94109e-21)
(-0.063679 0.0661259 -1.28323e-19)
(-0.0670918 0.0647827 -1.53522e-20)
(-0.0694157 0.0630464 -3.22621e-20)
(-0.0705561 0.0610703 -2.56033e-19)
(-0.0704123 0.0589933 6.54916e-20)
(-0.0688738 0.0569597 5.49617e-20)
(-0.0658157 0.0551456 1.50494e-19)
(-0.0611024 0.0537951 -4.95903e-20)
(-0.0546552 0.0532649 2.03012e-20)
(-0.0465483 0.0540929 5.63766e-20)
(-0.0365016 0.0571601 -1.46087e-19)
(-0.0232698 0.0638802 -5.29336e-20)
(-0.00437016 0.0123649 -1.25114e-19)
(-0.0121287 0.0311744 1.18536e-19)
(-0.019976 0.0453644 -1.16264e-19)
(-0.0275046 0.0557898 -4.99955e-20)
(-0.0345227 0.0631163 3.24242e-21)
(-0.0408957 0.0679224 -1.71548e-20)
(-0.0464895 0.0707169 -1.60747e-19)
(-0.0511855 0.071935 -3.7093e-19)
(-0.0548801 0.0719409 -1.08844e-19)
(-0.0574788 0.0710333 -1.65966e-20)
(-0.0588907 0.0694526 -2.86211e-21)
(-0.0590231 0.0673898 2.83741e-19)
(-0.0577759 0.0649992 -1.23934e-20)
(-0.0550369 0.0624125 3.06268e-21)
(-0.0506765 0.0597591 2.03458e-20)
(-0.04454 0.0571946 5.95941e-20)
(-0.0364438 0.0549433 -2.53338e-20)
(-0.0262279 0.0533579 -1.13376e-19)
(-0.0138553 0.0530289 -9.6514e-20)
(0.00111086 0.0552031 3.50523e-19)
(0.0198255 0.0623482 3.76492e-21)
(-0.00499776 0.0128506 1.27505e-19)
(-0.0135332 0.0325503 9.45978e-21)
(-0.0215866 0.0475264 -3.05179e-19)
(-0.0288818 0.0585877 -8.88746e-20)
(-0.0352926 0.06639 1.73097e-19)
(-0.0407295 0.0715178 -1.97672e-19)
(-0.0450978 0.0744921 8.6794e-20)
(-0.0483097 0.0757633 3.38289e-19)
(-0.0502844 0.075711 1.59709e-19)
(-0.0509427 0.0746474 1.47596e-19)
(-0.0502024 0.0728224 -6.85336e-20)
(-0.0479735 0.0704318 2.35997e-20)
(-0.0441538 0.0676276 -1.52323e-19)
(-0.0386233 0.064531 2.03693e-19)
(-0.031238 0.0612498 3.30331e-21)
(-0.0218202 0.0579043 -3.29804e-20)
(-0.0101473 0.0546709 5.40291e-20)
(0.00400924 0.0518474 3.77684e-20)
(0.0208059 0.0500029 -7.76116e-20)
(0.0409421 0.0505919 -1.3867e-19)
(0.0656596 0.0568019 -2.38059e-19)
(-0.00561219 0.0131423 -1.98402e-19)
(-0.0149302 0.0334302 3.45344e-19)
(-0.023217 0.0489541 1.66838e-19)
(-0.0302994 0.060464 -4.07508e-20)
(-0.0361046 0.0685982 -5.21238e-20)
(-0.0405823 0.0739398 -1.16089e-19)
(-0.0436744 0.0770156 -6.54928e-20)
(-0.0453231 0.0782861 1.08771e-19)
(-0.0454701 0.0781417 2.35125e-19)
(-0.0440517 0.0769043 1.08989e-19)
(-0.0409943 0.0748313 1.50825e-19)
(-0.036211 0.0721217 1.46343e-19)
(-0.0295971 0.068925 -2.38865e-19)
(-0.0210252 0.0653513 1.06484e-19)
(-0.0103395 0.0614853 -3.41299e-19)
(0.0026556 0.0574058 -3.56549e-19)
(0.0182103 0.0532219 -2.82256e-19)
(0.0366055 0.0491327 1.09102e-19)
(0.0580707 0.0455935 7.08885e-19)
(0.0834438 0.0440581 -1.78947e-19)
(0.114638 0.0484049 1.97555e-19)
(-0.00620667 0.0132666 3.44918e-19)
(-0.0162997 0.033862 -1.50517e-19)
(-0.0248384 0.0496955 5.05065e-20)
(-0.0317217 0.0614565 2.72181e-19)
(-0.0369166 0.0697631 -2.5156e-19)
(-0.0404057 0.0751938 9.40074e-20)
(-0.042163 0.0782777 -1.51146e-19)
(-0.0421579 0.0794812 -3.66791e-19)
(-0.040352 0.0792022 5.19361e-19)
(-0.0366945 0.07777 -2.40015e-20)
(-0.0311178 0.0754477 1.42525e-19)
(-0.023534 0.0724378 -6.47902e-20)
(-0.0138317 0.0688886 1.41449e-19)
(-0.00187169 0.0649027 -8.12825e-21)
(0.012517 0.060546 1.80639e-19)
(0.0295461 0.055861 -4.48471e-20)
(0.049484 0.0508895 1.86862e-19)
(0.072645 0.045714 -3.48575e-19)
(0.099284 0.0405966 -3.77042e-19)
(0.130156 0.036753 3.3781e-19)
(0.168603 0.0387022 -1.70881e-19)
(-0.00677913 0.0132535 -3.3535e-19)
(-0.0176278 0.0339033 2.09145e-19)
(-0.0264224 0.0498142 -1.66072e-19)
(-0.033104 0.0616229 9.1297e-20)
(-0.0376661 0.0699311 -7.88897e-20)
(-0.0401168 0.0753131 3.65739e-19)
(-0.0404565 0.0782991 -3.07456e-20)
(-0.0386766 0.0793593 1.03257e-19)
(-0.0347538 0.0788969 -9.05068e-20)
(-0.0286445 0.0772468 2.35519e-19)
(-0.0202801 0.0746777 -4.71227e-19)
(-0.00956362 0.0713963 -5.69709e-20)
(0.00363206 0.0675531 -5.05658e-20)
(0.0194668 0.0632491 2.18313e-19)
(0.0381348 0.0585415 -2.85214e-19)
(0.0598684 0.0534506 3.61657e-20)
(0.0849464 0.0479702 2.489e-19)
(0.113696 0.0420858 1.17062e-19)
(0.146371 0.0358501 3.57715e-21)
(0.183274 0.0299933 2.1727e-21)
(0.230361 0.0294841 -2.09556e-19)
(-0.00733149 0.0131343 3.00568e-19)
(-0.0189053 0.0336159 -2.39816e-19)
(-0.0279388 0.0493826 1.51837e-19)
(-0.0343889 0.0610358 -4.32385e-20)
(-0.0382639 0.0691694 -2.98411e-19)
(-0.0395894 0.0743573 -3.4177e-19)
(-0.0383853 0.0771319 3.83999e-19)
(-0.0346578 0.0779669 -6.2925e-20)
(-0.0283905 0.0772702 4.37396e-19)
(-0.0195376 0.0753818 -2.71288e-20)
(-0.0080188 0.0725761 1.29014e-20)
(0.00628323 0.069066 1.83778e-19)
(0.0235237 0.0650084 1.98083e-19)
(0.0438948 0.0605099 2.81916e-19)
(0.067623 0.0556308 1.20632e-19)
(0.0949643 0.0503886 -1.09222e-21)
(0.126198 0.0447593 -4.60192e-20)
(0.161631 0.0386782 8.59141e-20)
(0.201543 0.0320695 2.38485e-19)
(0.245164 0.0249476 -1.89819e-19)
(0.302839 0.0226585 2.42709e-19)
(-0.00786842 0.012938 -5.95537e-20)
(-0.0201242 0.03306 -3.7805e-19)
(-0.0293511 0.0484762 -1.76386e-19)
(-0.0355012 0.0597769 1.74509e-19)
(-0.0385877 0.0675609 -4.18761e-20)
(-0.0386464 0.0724086 -1.72398e-20)
(-0.0357081 0.0748581 -2.79995e-19)
(-0.0297838 0.0753883 7.40031e-20)
(-0.0208532 0.0744119 -3.64981e-19)
(-0.00885584 0.0722747 -3.15702e-19)
(0.00631365 0.0692581 -1.97611e-19)
(0.0248066 0.0655839 -2.05621e-19)
(0.0468181 0.0614201 2.43823e-20)
(0.0725811 0.0568861 1.69325e-19)
(0.102356 0.0520565 3.37216e-19)
(0.136414 0.0469634 -5.17904e-20)
(0.175011 0.0415936 -2.53252e-19)
(0.218366 0.0358791 -2.12657e-19)
(0.266872 0.0297938 -1.92826e-20)
(0.317814 0.02239 -1.32506e-19)
(0.388124 0.0198102 6.08408e-20)
(-0.00839552 0.0126896 2.80797e-19)
(-0.0212747 0.0322897 3.10858e-19)
(-0.0306121 0.0471676 2.05688e-19)
(-0.0363424 0.0579309 1.73066e-19)
(-0.0384766 0.065199 6.9018e-20)
(-0.0370531 0.0695687 2.95444e-19)
(-0.0321038 0.0715887 4.13758e-19)
(-0.0236328 0.071746 -4.73758e-19)
(-0.0116021 0.0704601 4.22423e-19)
(0.00407775 0.0680844 -1.90758e-20)
(0.0235509 0.0649098 -1.81249e-19)
(0.0470139 0.0611704 2.94029e-20)
(0.0747077 0.0570499 2.39229e-19)
(0.106903 0.0526865 1.69246e-19)
(0.143875 0.0481776 -2.10927e-19)
(0.18588 0.0435813 2.07331e-19)
(0.233095 0.038913 -3.19272e-20)
(0.285528 0.0341126 -2.31347e-21)
(0.343801 0.0294504 5.64606e-20)
(0.402339 0.0226699 1.12875e-19)
(0.486544 0.0218117 -1.84789e-19)
(-0.00891718 0.0124078 -6.26617e-19)
(-0.02234 0.0313483 2.15052e-19)
(-0.0316583 0.0455205 -1.89742e-19)
(-0.0367857 0.0555791 -3.52896e-19)
(-0.0377257 0.0621827 -2.74282e-19)
(-0.0345128 0.0659544 -1.44637e-19)
(-0.0271687 0.0674603 -4.3284e-19)
(-0.0156776 0.0671997 4.83776e-20)
(3.08074e-05 0.0656024 2.4465e-19)
(0.0200886 0.0630325 1.86504e-20)
(0.0446889 0.059794 2.25376e-19)
(0.0740765 0.056137 2.10238e-19)
(0.108529 0.0522648 2.54988e-19)
(0.148329 0.0483388 4.02963e-19)
(0.193722 0.044482 2.50836e-20)
(0.244868 0.0407817 -2.22179e-19)
(0.301777 0.0372859 -1.12671e-19)
(0.364086 0.0339043 -5.3498e-19)
(0.432632 0.0314371 -3.92392e-20)
(0.498591 0.025896 -1.2079e-19)
(0.596054 0.0287066 1.92578e-19)
(-0.00943404 0.0121036 1.76282e-19)
(-0.0232923 0.0302651 2.54776e-19)
(-0.0324055 0.0435852 -1.57428e-19)
(-0.0366711 0.0527959 1.24676e-19)
(-0.0360838 0.0586115 5.11763e-19)
(-0.0306665 0.0616929 1.50748e-19)
(-0.0204202 0.062631 2.01921e-19)
(-0.00529533 0.061943 1.96606e-19)
(0.0148231 0.0600737 -4.27347e-19)
(0.0401183 0.0574022 3.57807e-20)
(0.0708326 0.0542492 4.48274e-20)
(0.107245 0.0508844 4.00359e-19)
(0.149637 0.0475328 -3.74182e-19)
(0.198242 0.0443787 5.90243e-20)
(0.253186 0.0415669 -2.9484e-19)
(0.314413 0.0392046 1.76283e-19)
(0.38162 0.0373613 1.5888e-19)
(0.45394 0.0358639 -2.60301e-20)
(0.532066 0.0360931 -2.33396e-19)
(0.604848 0.0321609 -1.79803e-19)
(0.71205 0.0398886 6.15693e-20)
(-0.00994107 0.0117794 -9.87925e-20)
(-0.0240879 0.0290533 3.23923e-20)
(-0.0327442 0.0413973 -6.80085e-20)
(-0.0358038 0.0496445 -2.42344e-19)
(-0.033253 0.0545815 -4.88518e-20)
(-0.0250972 0.0569173 1.80028e-19)
(-0.0113064 0.0572761 2.70065e-19)
(0.00821308 0.056199 -5.09326e-20)
(0.0336275 0.0541511 3.39155e-20)
(0.0651688 0.0515314 3.57697e-19)
(0.10311 0.0486807 -3.45782e-19)
(0.147723 0.0458892 -1.10588e-19)
(0.199225 0.0434011 8.1558e-20)
(0.257698 0.0414154 -4.3202e-20)
(0.323011 0.040084 2.67865e-19)
(0.394734 0.0395111 -7.88421e-20)
(0.47206 0.0397516 3.46062e-20)
(0.553575 0.0405609 2.52532e-19)
(0.639053 0.0435427 2.85615e-19)
(0.717625 0.0416431 6.65022e-20)
(0.827625 0.0544462 1.14955e-19)
(-0.0104258 0.0114297 -3.7598e-20)
(-0.0246645 0.027711 -2.60989e-19)
(-0.0325371 0.0389763 -9.24595e-20)
(-0.033953 0.0461764 -3.92217e-20)
(-0.0288927 0.0501828 9.9935e-20)
(-0.0173394 0.0517636 -1.43978e-19)
(0.000774583 0.0515835 -1.94695e-19)
(0.0255907 0.0502141 -4.42442e-19)
(0.0573214 0.0481465 1.30076e-19)
(0.0962248 0.0458027 -4.98656e-19)
(0.142559 0.0435446 4.01799e-19)
(0.196512 0.041679 -5.95669e-20)
(0.258122 0.0404579 -4.60942e-21)
(0.327173 0.0400753 -1.53114e-19)
(0.403105 0.0406597 -5.4138e-19)
(0.484933 0.0422731 2.91042e-19)
(0.571179 0.0448902 1.49164e-20)
(0.659915 0.0483018 -1.11552e-20)
(0.749206 0.0535286 2.27022e-19)
(0.831892 0.0545576 1.09229e-19)
(0.934455 0.0711525 2.88408e-19)
(-0.0108658 0.0110406 -2.32236e-20)
(-0.0249394 0.0262234 -7.15772e-20)
(-0.0316186 0.0363282 -3.26169e-19)
(-0.0308544 0.0424314 -6.555e-19)
(-0.0226261 0.0454999 2.00526e-19)
(-0.00689327 0.046369 2.63265e-19)
(0.0164496 0.0457509 4.7098e-20)
(0.0475837 0.0442535 3.46143e-19)
(0.0867426 0.0423977 -2.75414e-19)
(0.134161 0.0406294 -4.27921e-19)
(0.189999 0.0393264 -5.00965e-19)
(0.254241 0.0387989 8.48179e-20)
(0.326586 0.0392836 2.46512e-19)
(0.406337 0.0409332 -1.73669e-19)
(0.492318 0.0438048 2.356e-19)
(0.582839 0.0478629 -2.26695e-19)
(0.675671 0.0529271 1.43172e-19)
(0.768423 0.0589017 1.66854e-20)
(0.857548 0.0654916 1.11384e-19)
(0.941629 0.0708283 -4.66067e-19)
(1.02504 0.0869365 -4.21981e-19)
(-0.0112283 0.0105956 -1.17306e-19)
(-0.0248068 0.0245671 -3.4416e-19)
(-0.0297959 0.0334487 5.13496e-20)
(-0.0262147 0.0384421 5.87917e-20)
(-0.0140502 0.040614 1.32999e-19)
(0.00675723 0.0408735 5.55621e-19)
(0.0363403 0.0399854 -2.38778e-19)
(0.0748932 0.0385977 1.22429e-19)
(0.122619 0.0372612 2.33454e-19)
(0.179645 0.0364405 -8.40312e-20)
(0.245904 0.0365152 2.37588e-19)
(0.321012 0.0377726 -5.12067e-19)
(0.404139 0.0403943 3.00373e-19)
(0.493913 0.0444393 2.02566e-20)
(0.588384 0.0498318 -2.12801e-19)
(0.685081 0.0563746 -9.26052e-20)
(0.781112 0.0636909 1.05348e-19)
(0.873647 0.071665 -4.1967e-19)
(0.958934 0.0789832 3.54104e-19)
(1.03945 0.0886063 -4.91088e-19)
(1.09499 0.094851 -2.35803e-20)
(-0.0114732 0.0100748 4.8098e-19)
(-0.024141 0.0227128 3.70727e-20)
(-0.0268508 0.0303295 -1.53559e-20)
(-0.0197174 0.0342393 -3.54178e-19)
(-0.00274774 0.0356088 -1.60877e-19)
(0.0241237 0.0354242 -2.61071e-19)
(0.0610292 0.0345057 2.33552e-20)
(0.108125 0.0335408 3.14046e-19)
(0.165498 0.0331047 -8.10859e-20)
(0.233037 0.0336651 1.18787e-20)
(0.310283 0.0355756 -2.71706e-19)
(0.396283 0.0390583 -4.54328e-19)
(0.489477 0.0441828 9.9396e-20)
(0.587662 0.0508503 -3.37813e-19)
(0.688051 0.0587893 3.02553e-19)
(0.787464 0.0675911 2.89404e-19)
(0.882592 0.076689 2.55401e-19)
(0.970414 0.0857326 -1.2127e-20)
(1.04838 0.0935396 -2.38223e-20)
(1.11564 0.10207 4.86223e-19)
(1.16736 0.104037 -5.42928e-20)
(-0.0115504 0.00945781 -1.57722e-19)
(-0.0227983 0.0206338 -5.08316e-19)
(-0.0225453 0.0269669 -1.56554e-19)
(-0.0110309 0.0298609 -9.57994e-20)
(0.0116997 0.0305783 3.68965e-19)
(0.045691 0.0301827 -1.1596e-19)
(0.0910258 0.029547 5.11342e-19)
(0.147739 0.0293915 -5.26251e-20)
(0.215674 0.0302999 -1.3149e-19)
(0.294312 0.032714 6.25813e-20)
(0.382599 0.0369162 4.23409e-19)
(0.478807 0.0430027 -3.60362e-20)
(0.580485 0.050863 7.23243e-19)
(0.684536 0.0601752 4.46779e-19)
(0.787428 0.0704284 2.66651e-19)
(0.885537 0.0809934 1.57538e-19)
(0.975529 0.0911432 2.70042e-19)
(1.05482 0.100395 1.24318e-19)
(1.12165 0.107708 -2.43996e-19)
(1.17586 0.114284 4.35176e-19)
(1.21681 0.115171 4.12453e-19)
(-0.0114026 0.00872778 -3.3408e-19)
(-0.0206197 0.0183117 3.76305e-19)
(-0.0166265 0.0233689 2.51644e-19)
(0.000182587 0.0253613 -2.07596e-19)
(0.0296966 0.0256375 1.99798e-19)
(0.071894 0.0253335 -7.96465e-20)
(0.12673 0.0253663 -2.7364e-19)
(0.193998 0.0264723 4.35906e-19)
(0.273129 0.0292131 -1.36478e-19)
(0.362995 0.033958 1.18489e-19)
(0.461728 0.0408535 3.28311e-19)
(0.566656 0.0497967 2.34024e-19)
(0.674373 0.0604272 -3.20061e-19)
(0.780982 0.0721545 -2.39093e-19)
(0.882488 0.0842251 5.053e-20)
(0.975261 0.0958365 1.22065e-19)
(1.05646 0.106198 -2.67737e-19)
(1.12439 0.11484 1.25712e-19)
(1.17849 0.120926 1.00123e-19)
(1.21956 0.125651 -2.93368e-19)
(1.24848 0.124954 4.08718e-19)
(-0.0109664 0.00787338 2.0621e-19)
(-0.0174342 0.015742 2.33702e-19)
(-0.0088324 0.0195644 1.37438e-19)
(0.0142572 0.0208209 1.71764e-19)
(0.0516173 0.0209309 -2.41282e-19)
(0.103092 0.0210918 -2.49956e-19)
(0.168398 0.0222462 4.55667e-20)
(0.246923 0.0251151 -1.56994e-19)
(0.337486 0.0301899 -5.00883e-20)
(0.438123 0.0376996 3.45673e-19)
(0.545972 0.047576 -4.04739e-19)
(0.657336 0.0594402 1.62946e-19)
(0.767938 0.0726313 -2.17923e-19)
(0.873371 0.0862862 -3.71254e-19)
(0.969629 0.0994626 4.49197e-19)
(1.05361 0.111289 2.0498e-19)
(1.12345 0.121048 -7.31343e-20)
(1.17867 0.128415 -1.293e-20)
(1.21996 0.132881 8.32504e-20)
(1.24905 0.135658 -1.97267e-19)
(1.26828 0.133597 -8.35794e-20)
(-0.0101741 0.00689075 -1.86959e-20)
(-0.0130637 0.0129396 -1.09062e-19)
(0.00110017 0.0156103 4.52996e-19)
(0.0315111 0.0163547 1.58888e-19)
(0.0777876 0.0166415 -5.86654e-21)
(0.139541 0.0177088 -5.45e-20)
(0.216101 0.020493 1.58714e-19)
(0.306251 0.0256502 1.14071e-19)
(0.407971 0.033532 -3.81572e-19)
(0.518259 0.0441416 -1.49812e-19)
(0.633156 0.0571114 -3.74646e-19)
(0.748003 0.0717272 -5.51392e-19)
(0.85793 0.0870176 5.56172e-19)
(0.958476 0.101901 -5.26475e-19)
(1.04617 0.115358 -2.89368e-19)
(1.11892 0.126588 1.72592e-19)
(1.17616 0.135077 -2.21667e-20)
(1.21872 0.140746 -2.14521e-19)
(1.24836 0.143429 8.43248e-20)
(1.26757 0.144424 7.62381e-21)
(1.27875 0.141122 1.15206e-19)
(-0.00895497 0.00578476 -2.84135e-19)
(-0.00732745 0.00994218 -6.68202e-20)
(0.0134273 0.0115968 -1.75409e-19)
(0.0522326 0.0121181 6.86337e-20)
(0.108462 0.0129939 3.04882e-19)
(0.181365 0.0154703 1.1261e-19)
(0.269693 0.0204278 1.16829e-19)
(0.371402 0.0283866 -5.42255e-19)
(0.483413 0.0394679 1.13689e-19)
(0.601552 0.0533557 8.75646e-20)
(0.720789 0.0693103 -2.22888e-19)
(0.835754 0.0862621 8.46132e-20)
(0.941434 0.102979 3.30883e-19)
(1.03386 0.118276 1.13189e-19)
(1.1106 0.131199 4.51571e-19)
(1.17092 0.141158 2.88115e-19)
(1.21561 0.147937 -6.60637e-20)
(1.24661 0.151728 3.81641e-19)
(1.26646 0.15269 -6.97465e-20)
(1.27791 0.1521 -1.20672e-20)
(1.28346 0.14782 -6.02569e-20)
(-0.00723668 0.00456993 4.06716e-20)
(-4.70041e-05 0.00681313 2.03739e-19)
(0.028388 0.00765113 -7.73791e-20)
(0.0766638 0.00830911 -1.45659e-19)
(0.143802 0.010253 2.36107e-20)
(0.228521 0.0146884 1.5692e-19)
(0.328778 0.0223686 -5.89069e-20)
(0.44147 0.0335844 1.47511e-20)
(0.562284 0.0481233 -1.2254e-19)
(0.685859 0.0652622 1.43406e-20)
(0.806299 0.0838538 1.21726e-19)
(0.917949 0.102512 -2.95392e-19)
(1.01621 0.119855 -8.21877e-20)
(1.09812 0.134744 1.33292e-19)
(1.16265 0.146442 -5.67356e-19)
(1.21049 0.154666 -4.39335e-20)
(1.24363 0.15953 1.84623e-19)
(1.26479 0.16147 -1.93502e-20)
(1.2769 0.160894 1.96059e-19)
(1.28266 0.158981 4.99636e-20)
(1.28424 0.153994 -3.52162e-20)
(-0.00494668 0.00327095 -5.97008e-20)
(0.00894747 0.00364245 4.02259e-20)
(0.0461922 0.00393755 2.18663e-19)
(0.104982 0.00516602 1.83778e-19)
(0.183847 0.00871698 -1.53564e-19)
(0.280775 0.0156865 -1.33344e-19)
(0.392693 0.0266063 2.27601e-19)
(0.515236 0.0414264 -9.85773e-20)
(0.642783 0.0594967 -7.13691e-20)
(0.768928 0.07963 3.15308e-20)
(0.887295 0.100291 7.77998e-20)
(0.99249 0.119881 -3.52697e-19)
(1.08087 0.137025 -1.32737e-19)
(1.15089 0.150789 -6.75388e-20)
(1.20301 0.16076 -2.78545e-19)
(1.23921 0.167007 2.77421e-19)
(1.26237 0.169946 5.04952e-20)
(1.27563 0.170196 2.14558e-19)
(1.28192 0.168323 -5.49016e-20)
(1.28366 0.165336 6.79592e-20)
(1.28271 0.15988 -1.71777e-19)
(-0.00201414 0.00192287 3.13725e-19)
(0.0198104 0.000546694 7.35859e-21)
(0.0670078 0.000655497 -1.68528e-19)
(0.137278 0.00296138 1.17199e-19)
(0.228493 0.00870384 -2.93753e-19)
(0.33768 0.0187776 5.26709e-20)
(0.460515 0.0333771 -6.36214e-20)
(0.591231 0.0519922 5.07572e-19)
(0.722971 0.0734526 3.4477e-19)
(0.848603 0.0961009 2.86339e-19)
(0.961795 0.118102 4.44468e-20)
(1.05799 0.137797 2.52579e-19)
(1.13492 0.15399 1.45296e-19)
(1.19264 0.166077 -8.97036e-20)
(1.233 0.174029 -5.45082e-20)
(1.25898 0.178248 -1.59463e-19)
(1.27396 0.179387 1.05563e-19)
(1.28115 0.178171 2.33593e-19)
(1.28325 0.175241 5.12692e-20)
(1.28228 0.171397 1.07198e-19)
(1.27971 0.165656 1.32962e-19)
(0.00162796 0.000571043 -3.37114e-19)
(0.0326731 -0.00233239 2.60382e-19)
(0.0909468 -0.00196511 -1.09805e-19)
(0.17354 0.00199166 -4.69328e-20)
(0.27747 0.0105342 -5.44581e-20)
(0.398574 0.0242406 -7.50054e-20)
(0.531085 0.0428374 -1.62341e-19)
(0.667822 0.0652449 -8.48668e-20)
(0.800925 0.0897332 -1.02869e-19)
(0.923015 0.114235 -7.00836e-21)
(1.02839 0.136762 -5.23113e-20)
(1.1138 0.155777 3.19471e-19)
(1.17864 0.170407 5.92115e-20)
(1.22446 0.180458 9.7712e-20)
(1.25428 0.186281 2.85714e-19)
(1.27169 0.188556 -2.19679e-19)
(1.28024 0.18809 -1.97613e-20)
(1.28294 0.185645 -2.42496e-19)
(1.28212 0.181863 -2.32058e-19)
(1.27937 0.177333 -1.39499e-19)
(1.27581 0.171431 -1.77525e-19)
(0.00603999 -0.000728831 1.29393e-19)
(0.0476351 -0.00483012 -3.8247e-20)
(0.118051 -0.00367067 2.12131e-20)
(0.213637 0.00256423 -4.00869e-20)
(0.330339 0.0145113 1.07911e-19)
(0.462587 0.0322968 5.81504e-20)
(0.603074 0.0550465 -3.44825e-19)
(0.743333 0.0810332 1.76777e-19)
(0.874903 0.107989 -6.22654e-20)
(0.990732 0.133566 5.9779e-19)
(1.08628 0.155804 -2.59036e-19)
(1.15996 0.17346 3.29606e-20)
(1.21281 0.186088 2.15049e-19)
(1.24773 0.193922 -1.46838e-19)
(1.2685 0.197647 -2.13609e-19)
(1.27902 0.198142 1.35079e-19)
(1.28268 0.196287 4.38822e-21)
(1.28216 0.192823 -8.66747e-20)
(1.27937 0.188349 -3.47125e-19)
(1.27548 0.18326 3.80118e-21)
(1.27131 0.177267 -1.45266e-19)
(0.0112723 -0.0019114 3.31893e-20)
(0.0647554 -0.00676272 -3.38986e-20)
(0.148281 -0.00419269 2.67632e-19)
(0.257305 0.00498238 -1.1664e-20)
(0.386487 0.0209014 -1.90951e-19)
(0.528685 0.0430909 9.46818e-20)
(0.675066 0.0699602 -3.58868e-20)
(0.816172 0.0991085 -8.82099e-20)
(0.943471 0.127823 1.45627e-19)
(1.05082 0.153651 -2.33125e-19)
(1.13527 0.174857 -1.92398e-19)
(1.197 0.190623 1.66276e-20)
(1.23858 0.200979 -1.52161e-19)
(1.2639 0.206558 1.47327e-19)
(1.2772 0.208304 1.99943e-20)
(1.28233 0.207215 3.54103e-20)
(1.28239 0.204173 -4.89172e-20)
(1.27963 0.199863 8.98864e-20)
(1.27553 0.19481 2.05399e-19)
(1.27092 0.189245 -1.11106e-19)
(1.26637 0.183191 1.18623e-19)
(0.017362 -0.00290254 -3.01634e-20)
(0.0840445 -0.00793198 1.12354e-19)
(0.181505 -0.00325797 1.79211e-19)
(0.304147 0.0095295 -6.07214e-20)
(0.445152 0.0299154 -1.29227e-19)
(0.595715 0.0566802 1.10165e-19)
(0.745646 0.0874376 -4.09077e-20)
(0.884938 0.119155 -2.45252e-20)
(1.00558 0.14883 3.13727e-19)
(1.10283 0.174113 4.51544e-20)
(1.1756 0.193658 -8.22185e-20)
(1.22577 0.20716 -3.27738e-20)
(1.25718 0.215118 2.48516e-19)
(1.27435 0.218505 -5.03866e-20)
(1.28165 0.218439 1.47789e-19)
(1.28269 0.215959 -1.698e-19)
(1.28016 0.211901 1.75815e-19)
(1.27587 0.206873 -9.5082e-20)
(1.27092 0.20131 4.51395e-20)
(1.26587 0.195323 4.79132e-20)
(1.26106 0.189207 -5.66432e-20)
(0.0243296 -0.00362077 9.51244e-20)
(0.105457 -0.00813129 3.8934e-20)
(0.217493 -0.000599997 -3.49036e-20)
(0.353638 0.0164537 1.42884e-19)
(0.505444 0.0416953 1.80186e-19)
(0.662476 0.0730313 -2.47588e-19)
(0.813497 0.107257 -8.93455e-20)
(0.948503 0.140821 1.94606e-19)
(1.06057 0.170635 -2.14347e-19)
(1.14676 0.194652 -6.73954e-20)
(1.20786 0.212046 -8.56854e-20)
(1.2473 0.223053 -5.45913e-20)
(1.26981 0.228603 -5.05339e-21)
(1.28026 0.22992 2.57769e-20)
(1.28287 0.228219 -4.02523e-20)
(1.28088 0.22452 8.20716e-20)
(1.27652 0.21958 4.18411e-20)
(1.27121 0.213919 4.67429e-20)
(1.26573 0.207884 1.7827e-19)
(1.26039 0.201504 -3.2806e-21)
(1.2554 0.195303 -9.1823e-20)
(0.0321754 -0.00397923 -1.93079e-19)
(0.128886 -0.0071527 9.45246e-20)
(0.25592 0.00402918 -1.60103e-19)
(0.405141 0.0259541 5.65632e-20)
(0.566397 0.0563057 9.67707e-20)
(0.727785 0.0920269 7.49943e-20)
(0.877473 0.129142 -1.67337e-20)
(1.00605 0.163754 -1.16796e-19)
(1.10818 0.192915 1.74595e-19)
(1.1829 0.215053 1.67342e-20)
(1.23282 0.229944 -1.28134e-19)
(1.26261 0.238348 6.26576e-21)
(1.27758 0.241552 1.17183e-19)
(1.28262 0.240952 -5.60044e-20)
(1.28164 0.237784 7.01214e-20)
(1.27744 0.233004 -8.77452e-20)
(1.27183 0.227277 2.9693e-20)
(1.26585 0.221034 4.78004e-22)
(1.26003 0.21454 1.33084e-19)
(1.25453 0.207782 -6.01671e-20)
(1.24938 0.201458 2.57384e-20)
(0.0408774 -0.0038883 4.52752e-20)
(0.154163 -0.00479494 3.57224e-21)
(0.296368 0.0108472 9.00794e-20)
(0.457925 0.0381698 -5.60129e-20)
(0.627007 0.0737315 -5.74215e-20)
(0.790541 0.113478 -1.91658e-20)
(0.936644 0.15278 -8.08365e-21)
(1.05707 0.18762 2.27931e-19)
(1.14842 0.215406 -2.68412e-20)
(1.21179 0.235179 -1.2552e-19)
(1.25135 0.247337 7.43337e-22)
(1.2727 0.253122 2.24885e-20)
(1.28141 0.254091 -7.81316e-20)
(1.28219 0.251729 -4.11048e-21)
(1.27853 0.247238 -8.68016e-20)
(1.27276 0.241482 -1.27192e-19)
(1.2663 0.235028 -7.62926e-20)
(1.25989 0.228229 -1.49779e-19)
(1.25387 0.221273 -3.86986e-20)
(1.24828 0.214139 2.912e-20)
(1.24301 0.207645 1.33341e-20)
(0.0503891 -0.00325862 -5.12873e-20)
(0.181054 -0.000871828 -6.91399e-20)
(0.338335 0.0200305 -1.89637e-19)
(0.511201 0.0531724 3.16354e-20)
(0.686287 0.0938813 1.18463e-19)
(0.849775 0.137139 5.57825e-20)
(0.99032 0.177851 -1.41374e-19)
(1.10134 0.212121 6.57868e-20)
(1.18158 0.237907 -1.59616e-20)
(1.23406 0.254947 -9.58134e-21)
(1.26429 0.26425 -4.9164e-20)
(1.27843 0.267464 6.51012e-20)
(1.28206 0.266329 -1.79041e-20)
(1.27955 0.262348 1.45297e-20)
(1.27391 0.256648 1.14708e-20)
(1.26705 0.24999 -1.68592e-21)
(1.26004 0.242843 -2.55224e-21)
(1.25338 0.235492 -6.93813e-20)
(1.24726 0.22806 -6.22609e-20)
(1.24163 0.220547 5.27729e-20)
(1.23627 0.213832 -4.26315e-20)
(0.0606393 -0.00200446 1.4366e-19)
(0.209269 0.00477931 6.4771e-20)
(0.381257 0.0317051 6.831e-20)
(0.564149 0.0709624 -2.37071e-20)
(0.743306 0.116595 1.0495e-19)
(0.90468 0.16273 -1.01224e-19)
(1.03804 0.204041 5.32805e-20)
(1.13885 0.236999 3.96582e-20)
(1.20805 0.260268 4.59067e-21)
(1.25041 0.274319 -3.25128e-20)
(1.27242 0.280727 -2.30884e-20)
(1.28053 0.281457 2.99014e-20)
(1.28012 0.278352 -5.69322e-21)
(1.27512 0.272876 2.30827e-20)
(1.26807 0.266055 -3.26645e-20)
(1.26047 0.258538 -6.00127e-20)
(1.25311 0.250712 -1.89001e-20)
(1.24633 0.242801 4.06164e-20)
(1.24019 0.234874 -4.50998e-20)
(1.23456 0.226971 2.73137e-20)
(1.22913 0.219983 6.59558e-21)
(0.0715317 -4.73463e-05 -4.15117e-20)
(0.238462 0.0122897 -5.82205e-20)
(0.424518 0.0459398 -5.76875e-20)
(0.615953 0.0914699 -3.92159e-20)
(0.797225 0.141654 -1.74238e-20)
(0.954629 0.189945 4.43222e-20)
(1.07957 0.231051 -1.34709e-20)
(1.16978 0.262037 2.34401e-20)
(1.22835 0.282379 -6.41961e-20)
(1.26151 0.293284 4.20585e-20)
(1.27643 0.296816 1.25199e-20)
(1.2796 0.295171 2.22285e-20)
(1.27605 0.290222 -1.87572e-20)
(1.2692 0.283352 2.23885e-20)
(1.26116 0.275468 1.21636e-20)
(1.25309 0.267118 6.06007e-21)
(1.24554 0.258611 -5.61058e-21)
(1.23873 0.250121 -3.72465e-20)
(1.23263 0.241678 3.60988e-20)
(1.22705 0.233373 -1.09286e-20)
(1.22159 0.226058 -1.14798e-20)
(0.0829472 0.00268055 -9.43238e-22)
(0.268245 0.0217524 -1.9657e-20)
(0.467479 0.0627417 6.40364e-21)
(0.665831 0.114558 -3.93699e-21)
(0.847323 0.168796 9.3459e-21)
(0.999169 0.218471 4.22995e-21)
(1.11483 0.258606 1.00972e-20)