/*--------------------------------*- C++ -*----------------------------------*\
  =========                 |
  \\      /  F ield         | OpenFOAM: The Open Source CFD Toolbox
   \\    /   O peration     | Website:  https://openfoam.org
    \\  /    A nd           | Version:  7
     \\/     M anipulation  |
\*---------------------------------------------------------------------------*/
FoamFile
{
    version     2.0;
    format      ascii;
    class       volScalarField;
    location    "60";
    object      p;
}
// * * * * * * * * * * * * * * * * * * * * * * * * * * * * * * * * * * * * * //

dimensions      [0 2 -2 0 0 0 0];

internalField   nonuniform List<scalar> 
8820
(
-0.381978
-0.38392
-0.385025
-0.385759
-0.386326
-0.386764
-0.387113
-0.387389
-0.387593
-0.387704
-0.387695
-0.387529
-0.38717
-0.386581
-0.385732
-0.3846
-0.383197
-0.381594
-0.379763
-0.377333
-0.375448
-0.383905
-0.386017
-0.387241
-0.388086
-0.388773
-0.389342
-0.389827
-0.390244
-0.390587
-0.39083
-0.390935
-0.390853
-0.390531
-0.389912
-0.388944
-0.387581
-0.385812
-0.383688
-0.381148
-0.377872
-0.375142
-0.386223
-0.388459
-0.38978
-0.390725
-0.391527
-0.392225
-0.392852
-0.39342
-0.393917
-0.394312
-0.394556
-0.394588
-0.394336
-0.393722
-0.392667
-0.391096
-0.38897
-0.386306
-0.383021
-0.378841
-0.375094
-0.388947
-0.391257
-0.392649
-0.393681
-0.394591
-0.395418
-0.396191
-0.39692
-0.397588
-0.398156
-0.398567
-0.398747
-0.398606
-0.398041
-0.396942
-0.395199
-0.392736
-0.389526
-0.385458
-0.380301
-0.375359
-0.392078
-0.394408
-0.395842
-0.396946
-0.397955
-0.398908
-0.399831
-0.400729
-0.401582
-0.402346
-0.402953
-0.403317
-0.403329
-0.402862
-0.401771
-0.399905
-0.397136
-0.393385
-0.388501
-0.382279
-0.375954
-0.395602
-0.397893
-0.399341
-0.400498
-0.401596
-0.402669
-0.403741
-0.404814
-0.405863
-0.406838
-0.407665
-0.408245
-0.408451
-0.40813
-0.407101
-0.405165
-0.402133
-0.397858
-0.392134
-0.384751
-0.37684
-0.399486
-0.401682
-0.403112
-0.404303
-0.405474
-0.406657
-0.407872
-0.409118
-0.410367
-0.411562
-0.412623
-0.413441
-0.41387
-0.413733
-0.41281
-0.410853
-0.407603
-0.402828
-0.396254
-0.387625
-0.377921
-0.403682
-0.40573
-0.407111
-0.408312
-0.409536
-0.410814
-0.41216
-0.413569
-0.415009
-0.41642
-0.417715
-0.418774
-0.419436
-0.419497
-0.418704
-0.416754
-0.413315
-0.408061
-0.400635
-0.390695
-0.378976
-0.408131
-0.409983
-0.411283
-0.412468
-0.413722
-0.415071
-0.416526
-0.418077
-0.419689
-0.421296
-0.422804
-0.424084
-0.424959
-0.425202
-0.424525
-0.422573
-0.41894
-0.4132
-0.404914
-0.393606
-0.379534
-0.412764
-0.414378
-0.415568
-0.416709
-0.417963
-0.419352
-0.420885
-0.422546
-0.424294
-0.426058
-0.427738
-0.429193
-0.430231
-0.430601
-0.429981
-0.427969
-0.424088
-0.417818
-0.40864
-0.39594
-0.37917
-0.417508
-0.418853
-0.419903
-0.420969
-0.422188
-0.423581
-0.42515
-0.426876
-0.428711
-0.430579
-0.432368
-0.433927
-0.435047
-0.435452
-0.434788
-0.432608
-0.428373
-0.421485
-0.411295
-0.396989
-0.377926
-0.422292
-0.423346
-0.42423
-0.425188
-0.426333
-0.427684
-0.429241
-0.430977
-0.432838
-0.434739
-0.43656
-0.438132
-0.43923
-0.439551
-0.438714
-0.436223
-0.431495
-0.423856
-0.412575
-0.396778
-0.375476
-0.427051
-0.427802
-0.428495
-0.429311
-0.430341
-0.431601
-0.433089
-0.434772
-0.436589
-0.438445
-0.440207
-0.441692
-0.442652
-0.44276
-0.441598
-0.438643
-0.433266
-0.424751
-0.41231
-0.395191
-0.371742
-0.431731
-0.432176
-0.432659
-0.433299
-0.434168
-0.435284
-0.436642
-0.438204
-0.439903
-0.441631
-0.443242
-0.444534
-0.445237
-0.445
-0.443372
-0.439801
-0.433634
-0.424139
-0.41049
-0.392231
-0.366877
-0.436297
-0.43644
-0.436694
-0.437125
-0.437787
-0.438705
-0.439871
-0.441244
-0.442747
-0.444264
-0.445632
-0.446631
-0.446966
-0.446258
-0.444033
-0.439714
-0.432641
-0.422103
-0.407248
-0.388053
-0.361171
-0.440726
-0.440581
-0.440592
-0.44078
-0.441192
-0.441857
-0.44277
-0.443886
-0.445121
-0.446348
-0.447387
-0.447997
-0.447859
-0.446569
-0.443629
-0.438452
-0.430387
-0.418782
-0.402787
-0.382887
-0.354967
-0.445024
-0.444604
-0.444358
-0.444273
-0.444392
-0.444754
-0.445357
-0.446154
-0.447053
-0.447916
-0.448547
-0.448681
-0.447975
-0.445999
-0.44224
-0.436111
-0.426994
-0.414329
-0.397327
-0.376963
-0.348573
-0.449213
-0.448532
-0.448017
-0.447632
-0.44742
-0.447433
-0.447673
-0.448093
-0.448597
-0.449031
-0.449181
-0.448758
-0.447393
-0.444635
-0.439958
-0.432792
-0.422576
-0.40886
-0.391029
-0.370419
-0.342129
-0.453339
-0.452407
-0.451611
-0.4509
-0.450323
-0.449947
-0.44978
-0.449776
-0.44983
-0.449776
-0.449378
-0.44832
-0.446209
-0.442571
-0.436882
-0.428599
-0.417241
-0.402454
-0.383929
-0.363096
-0.335313
-0.457465
-0.456285
-0.455195
-0.454135
-0.453166
-0.452368
-0.451757
-0.451287
-0.450845
-0.450248
-0.449236
-0.447466
-0.444517
-0.439907
-0.433118
-0.423654
-0.411121
-0.395233
-0.376026
-0.354483
-0.327279
-0.461667
-0.460234
-0.458836
-0.457408
-0.456023
-0.454776
-0.453693
-0.452722
-0.451742
-0.450549
-0.448854
-0.446289
-0.442411
-0.436736
-0.428777
-0.418101
-0.404417
-0.387496
-0.367606
-0.344582
-0.318064
-0.466034
-0.464331
-0.462607
-0.460794
-0.458975
-0.457261
-0.455681
-0.45418
-0.45262
-0.450772
-0.448321
-0.444871
-0.439969
-0.433146
-0.423969
-0.412096
-0.397351
-0.379623
-0.359295
-0.335449
-0.310919
-0.470658
-0.468655
-0.466586
-0.464372
-0.462106
-0.45991
-0.457814
-0.455752
-0.453566
-0.450999
-0.447707
-0.443275
-0.437253
-0.429213
-0.4188
-0.405787
-0.390123
-0.371843
-0.351352
-0.328274
-0.305039
-0.47563
-0.473287
-0.47085
-0.468221
-0.465496
-0.462805
-0.460172
-0.457515
-0.454649
-0.451287
-0.447058
-0.44154
-0.434311
-0.425005
-0.413371
-0.399309
-0.382893
-0.364278
-0.34393
-0.321651
-0.299253
-0.481034
-0.478301
-0.475469
-0.472411
-0.469217
-0.466017
-0.462824
-0.459529
-0.455916
-0.451667
-0.446394
-0.439689
-0.431176
-0.420582
-0.407773
-0.392776
-0.375769
-0.357
-0.336942
-0.315507
-0.294238
-0.486941
-0.48376
-0.480507
-0.477005
-0.473329
-0.469603
-0.465816
-0.461827
-0.457384
-0.452143
-0.445715
-0.437723
-0.427872
-0.415995
-0.402082
-0.386271
-0.36882
-0.350026
-0.330336
-0.309725
-0.289439
-0.493409
-0.489718
-0.486014
-0.482052
-0.477879
-0.473601
-0.469176
-0.464421
-0.459048
-0.452697
-0.444998
-0.435635
-0.424413
-0.411284
-0.396355
-0.379851
-0.362075
-0.343341
-0.324045
-0.30419
-0.284837
-0.500477
-0.496213
-0.492028
-0.48759
-0.482897
-0.478032
-0.472907
-0.467294
-0.460873
-0.453286
-0.444205
-0.433406
-0.420806
-0.40648
-0.390631
-0.373542
-0.355533
-0.336906
-0.317991
-0.298813
-0.280229
-0.508163
-0.503267
-0.498574
-0.493639
-0.488399
-0.482896
-0.47699
-0.470405
-0.462803
-0.45385
-0.44329
-0.43101
-0.417051
-0.401598
-0.384925
-0.367345
-0.349168
-0.330665
-0.3121
-0.293506
-0.275567
-0.516467
-0.510884
-0.505659
-0.500205
-0.49438
-0.488171
-0.48138
-0.473691
-0.464763
-0.454316
-0.442196
-0.428416
-0.413139
-0.396638
-0.379232
-0.361238
-0.342935
-0.324555
-0.306296
-0.288197
-0.270775
-0.525366
-0.519053
-0.513273
-0.507275
-0.500813
-0.493811
-0.48601
-0.477064
-0.466659
-0.454602
-0.440863
-0.425589
-0.409051
-0.391586
-0.37353
-0.355181
-0.336779
-0.318507
-0.300508
-0.282822
-0.265818
-0.534814
-0.527738
-0.521386
-0.514813
-0.507648
-0.499744
-0.490783
-0.480414
-0.468385
-0.454617
-0.439227
-0.422488
-0.40476
-0.386413
-0.36778
-0.349122
-0.330633
-0.312452
-0.294669
-0.277327
-0.260657
-0.544743
-0.536883
-0.529946
-0.52276
-0.514809
-0.505868
-0.495578
-0.483614
-0.469822
-0.454269
-0.437222
-0.419068
-0.400226
-0.381079
-0.36193
-0.342998
-0.32443
-0.306319
-0.288716
-0.271661
-0.255263
-0.555058
-0.546409
-0.538875
-0.531027
-0.522187
-0.512054
-0.500253
-0.486523
-0.470848
-0.453464
-0.43478
-0.415277
-0.395405
-0.375532
-0.355921
-0.336744
-0.318101
-0.300043
-0.282591
-0.265776
-0.249606
-0.565635
-0.556207
-0.548066
-0.539496
-0.529644
-0.518143
-0.504641
-0.488987
-0.471338
-0.452107
-0.431833
-0.411058
-0.390239
-0.369711
-0.349687
-0.33029
-0.311575
-0.293559
-0.276238
-0.259631
-0.243657
-0.576324
-0.566141
-0.557381
-0.548016
-0.537007
-0.523951
-0.508562
-0.490848
-0.471168
-0.450105
-0.428308
-0.40635
-0.384668
-0.363551
-0.343159
-0.323564
-0.304785
-0.286806
-0.269604
-0.253182
-0.237388
-0.586946
-0.576044
-0.566651
-0.556401
-0.544077
-0.529274
-0.511826
-0.491948
-0.470214
-0.447368
-0.424132
-0.401085
-0.378624
-0.356982
-0.336263
-0.316497
-0.297665
-0.279727
-0.262642
-0.246391
-0.230772
-0.597291
-0.585721
-0.575675
-0.564436
-0.550627
-0.53389
-0.514238
-0.49213
-0.468359
-0.443803
-0.419229
-0.395193
-0.372037
-0.349931
-0.328931
-0.309021
-0.290154
-0.272266
-0.255304
-0.239221
-0.223785
-0.607125
-0.594947
-0.584223
-0.571881
-0.556414
-0.537571
-0.515605
-0.491244
-0.465489
-0.439324
-0.413524
-0.388601
-0.364833
-0.342329
-0.321092
-0.301072
-0.282193
-0.264373
-0.247548
-0.231638
-0.2164
-0.616192
-0.603475
-0.592041
-0.578472
-0.561181
-0.540089
-0.51574
-0.489148
-0.461499
-0.433844
-0.40694
-0.381236
-0.356941
-0.334103
-0.31268
-0.292588
-0.273727
-0.256
-0.239332
-0.223609
-0.208599
-0.624216
-0.611035
-0.598856
-0.583934
-0.564666
-0.541218
-0.514469
-0.485711
-0.456286
-0.427279
-0.3994
-0.373026
-0.348292
-0.325188
-0.303632
-0.283512
-0.264706
-0.247103
-0.23062
-0.215106
-0.200359
-0.63091
-0.617346
-0.60438
-0.587984
-0.566615
-0.540749
-0.511627
-0.480811
-0.449759
-0.419551
-0.390833
-0.363901
-0.338817
-0.315521
-0.293891
-0.273791
-0.255082
-0.237642
-0.221376
-0.206101
-0.191664
-0.635982
-0.622116
-0.608322
-0.590343
-0.566781
-0.538484
-0.507071
-0.474341
-0.44183
-0.410586
-0.381171
-0.353796
-0.328457
-0.305044
-0.283404
-0.263378
-0.244812
-0.227577
-0.211567
-0.196572
-0.182494
-0.639139
-0.625055
-0.610393
-0.590743
-0.564937
-0.534249
-0.500672
-0.466206
-0.432426
-0.400317
-0.370351
-0.342654
-0.317157
-0.293707
-0.272125
-0.25223
-0.233857
-0.216868
-0.201155
-0.186487
-0.172816
-0.640101
-0.625879
-0.610318
-0.588933
-0.56088
-0.527893
-0.492321
-0.456326
-0.42148
-0.388687
-0.35832
-0.330423
-0.304871
-0.28147
-0.260016
-0.240314
-0.222183
-0.205481
-0.190099
-0.175788
-0.162542
-0.6386
-0.624321
-0.607837
-0.584688
-0.554434
-0.519291
-0.481932
-0.444636
-0.408939
-0.375647
-0.345034
-0.317064
-0.291562
-0.2683
-0.247052
-0.227606
-0.20977
-0.193398
-0.178372
-0.164403
-0.151493
-0.634395
-0.620135
-0.602721
-0.577815
-0.545456
-0.508343
-0.469437
-0.431086
-0.394762
-0.361161
-0.330457
-0.302546
-0.277203
-0.254174
-0.233214
-0.214094
-0.196614
-0.180627
-0.165998
-0.152345
-0.139568
-0.627269
-0.613103
-0.594769
-0.568154
-0.533833
-0.494979
-0.454792
-0.415646
-0.378923
-0.345204
-0.314569
-0.286849
-0.261778
-0.239079
-0.218491
-0.199772
-0.18272
-0.167181
-0.152988
-0.139738
-0.12724
-0.617043
-0.603045
-0.583822
-0.555583
-0.519488
-0.479156
-0.437974
-0.398299
-0.361409
-0.327765
-0.297359
-0.269964
-0.245282
-0.223013
-0.202883
-0.184639
-0.168103
-0.153079
-0.139384
-0.126469
-0.114768
-0.603577
-0.589815
-0.569757
-0.540021
-0.50238
-0.46086
-0.418981
-0.37905
-0.342224
-0.308847
-0.27883
-0.251896
-0.22772
-0.205986
-0.186408
-0.168729
-0.15275
-0.138309
-0.125148
-0.112717
-0.101854
-0.586769
-0.573313
-0.552497
-0.521426
-0.482501
-0.440102
-0.397833
-0.35792
-0.321385
-0.288466
-0.259
-0.232665
-0.209116
-0.188016
-0.169077
-0.152038
-0.136694
-0.12289
-0.110322
-0.0984585
-0.0884129
-0.566564
-0.553483
-0.532009
-0.499798
-0.459876
-0.416924
-0.374576
-0.334948
-0.298928
-0.266651
-0.237907
-0.212304
-0.189492
-0.16913
-0.150919
-0.134596
-0.119957
-0.106847
-0.094929
-0.0836784
-0.0744467
-0.542953
-0.530311
-0.5083
-0.475171
-0.434562
-0.391393
-0.349273
-0.310192
-0.27491
-0.243468
-0.215579
-0.190847
-0.168891
-0.149367
-0.131971
-0.11644
-0.102573
-0.0902138
-0.0789926
-0.0683882
-0.0599882
-0.515968
-0.50383
-0.481423
-0.447623
-0.406655
-0.363605
-0.322005
-0.283727
-0.249396
-0.218963
-0.192086
-0.168351
-0.147364
-0.128776
-0.11228
-0.0976138
-0.0845822
-0.0730268
-0.0625435
-0.0526175
-0.045078
-0.48569
-0.474115
-0.451471
-0.417277
-0.376291
-0.333661
-0.292855
-0.25564
-0.222469
-0.193214
-0.167496
-0.144884
-0.124976
-0.107418
-0.0919045
-0.0781731
-0.0660356
-0.0553314
-0.0456226
-0.036406
-0.029754
-0.452233
-0.441286
-0.41859
-0.384303
-0.343596
-0.301619
-0.261972
-0.226047
-0.194227
-0.166314
-0.141895
-0.120525
-0.1018
-0.0853642
-0.0709109
-0.0581812
-0.0469937
-0.0371848
-0.0282848
-0.0198025
-0.0140372
-0.415744
-0.405513
-0.382972
-0.348844
-0.308561
-0.267777
-0.229494
-0.195074
-0.164786
-0.138367
-0.115377
-0.0953644
-0.0779208
-0.0626931
-0.049375
-0.0377115
-0.0275283
-0.0186594
-0.0106022
-0.00286818
0.00204829
-0.376401
-0.367007
-0.344794
-0.310876
-0.271662
-0.232248
-0.195574
-0.162862
-0.134273
-0.109489
-0.0880499
-0.0694996
-0.0534306
-0.0394918
-0.0273794
-0.0168435
-0.00771813
0.000166912
0.00735003
0.014325
0.0183983
-0.33441
-0.325998
-0.304109
-0.270936
-0.233011
-0.195223
-0.160385
-0.129565
-0.102825
-0.079805
-0.060029
-0.0430386
-0.0284298
-0.0158544
-0.00501261
0.00433896
0.0123595
0.0192298
0.0255219
0.0317034
0.0347938
-0.28999
-0.282753
-0.261309
-0.229234
-0.192824
-0.156906
-0.124108
-0.0953444
-0.0705917
-0.0494513
-0.0314387
-0.0160967
-0.00302555
0.00811824
0.0176296
0.0257457
0.0326272
0.0384776
0.0438801
0.0491938
0.0511178
-0.243484
-0.237504
-0.216801
-0.185984
-0.151338
-0.117514
-0.0869369
-0.0603752
-0.0377291
-0.0185708
-0.00241053
0.0112047
0.0226685
0.0323182
0.0404421
0.0472738
0.0529883
0.0578209
0.0623194
0.0666827
0.0676697
-0.195454
-0.190419
-0.170791
-0.141458
-0.108804
-0.0772721
-0.0490729
-0.0248384
-0.00440182
0.0126871
0.0269188
0.0387399
0.0485354
0.0566342
0.0633157
0.068811
0.0733169
0.0770901
0.0805896
0.0839352
0.0846524
-0.145992
-0.141963
-0.123571
-0.0959425
-0.0654865
-0.036415
-0.0107261
0.0110772
0.0292197
0.0441676
0.0564087
0.0663804
0.0744574
0.0809573
0.086148
0.0902568
0.093496
0.096106
0.0983913
0.100519
0.100923
-0.0954304
-0.0925
-0.0754676
-0.0497345
-0.0216544
0.00481536
0.0278874
0.0471776
0.0629603
0.0757122
0.0859153
0.093996
0.100317
0.105183
0.108848
0.111537
0.113464
0.114807
0.115587
0.115801
0.1165
-0.0441393
-0.0423716
-0.0268157
-0.00314134
0.022416
0.0461727
0.0665472
0.0832647
0.0966412
0.107159
0.115293
0.121455
0.125995
0.129205
0.131328
0.132581
0.133166
0.133194
0.132601
0.13159
0.131605
0.00751077
0.00807104
0.0220449
0.0435261
0.0664457
0.0874075
0.10503
0.119138
0.130081
0.138345
0.144393
0.148624
0.151373
0.152918
0.153491
0.1533
0.15252
0.151215
0.149334
0.147259
0.146336
0.0591482
0.0584709
0.0707739
0.0899561
0.110155
0.12827
0.143111
0.154594
0.163098
0.169105
0.173067
0.175369
0.176331
0.176217
0.175248
0.17362
0.171485
0.168882
0.165799
0.162696
0.160759
0.110401
0.108469
0.119032
0.135838
0.153265
0.16851
0.180567
0.189434
0.19551
0.199275
0.201166
0.201555
0.200747
0.198991
0.196499
0.19345
0.18998
0.186116
0.181877
0.177761
0.17481
0.1609
0.157708
0.166483
0.180867
0.195501
0.207882
0.217177
0.223455
0.227135
0.22869
0.228543
0.22705
0.224501
0.221134
0.217146
0.212706
0.207934
0.202851
0.197497
0.192385
0.188422
0.210281
0.205835
0.212796
0.224741
0.236594
0.246144
0.252722
0.256462
0.257797
0.25719
0.25505
0.251719
0.247472
0.242534
0.237091
0.231299
0.225264
0.219005
0.212578
0.206492
0.201528
0.258188
0.252507
0.257651
0.267169
0.276279
0.283059
0.286989
0.288262
0.287319
0.284615
0.280545
0.275433
0.269543
0.263086
0.256237
0.249139
0.24189
0.234503
0.227045
0.220013
0.214063
0.304276
0.297389
0.300736
0.307867
0.314305
0.318399
0.319773
0.318669
0.315534
0.310813
0.304887
0.298065
0.290598
0.282684
0.274487
0.26614
0.257729
0.249267
0.240827
0.23288
0.225971
0.348213
0.340161
0.341753
0.346566
0.350427
0.351946
0.350876
0.347503
0.342278
0.335636
0.327942
0.319493
0.310524
0.301225
0.291748
0.282215
0.272703
0.263224
0.253856
0.245032
0.237195
0.389683
0.38052
0.380419
0.383009
0.384414
0.383491
0.38011
0.374594
0.367397
0.358942
0.349582
0.339598
0.329217
0.318614
0.307932
0.297283
0.286736
0.276304
0.266065
0.256408
0.247684
0.428388
0.418177
0.416467
0.416955
0.41605
0.412839
0.407297
0.39978
0.390743
0.380598
0.369684
0.358272
0.346573
0.334756
0.322953
0.311266
0.299758
0.288442
0.277393
0.266953
0.257393
0.464052
0.452866
0.449651
0.448179
0.445132
0.439806
0.432272
0.422912
0.412181
0.40048
0.388137
0.375409
0.3625
0.349566
0.336732
0.324092
0.311701
0.299574
0.287782
0.276617
0.266277
0.496419
0.484341
0.479741
0.476474
0.471474
0.464226
0.454883
0.443852
0.431585
0.418474
0.404834
0.390915
0.376909
0.362965
0.349197
0.335693
0.322504
0.309644
0.29718
0.285352
0.274297
0.525257
0.51238
0.506534
0.501656
0.494909
0.485946
0.474992
0.462473
0.44884
0.434474
0.419682
0.404704
0.389722
0.374879
0.360281
0.34601
0.33211
0.318601
0.305539
0.293117
0.281418
0.550362
0.536785
0.529845
0.523558
0.515288
0.504832
0.492477
0.478666
0.463845
0.448389
0.432596
0.416697
0.400868
0.385244
0.369926
0.354987
0.340472
0.326399
0.312817
0.299874
0.287611
0.571555
0.557385
0.549517
0.542036
0.53248
0.520767
0.507232
0.492332
0.476512
0.460139
0.443503
0.426829
0.410286
0.394004
0.378079
0.362578
0.347544
0.332996
0.318977
0.305592
0.292848
0.588685
0.574036
0.565416
0.556971
0.546377
0.533651
0.519167
0.503392
0.486766
0.469655
0.45234
0.435042
0.417924
0.401113
0.384697
0.368744
0.353291
0.33836
0.323988
0.310243
0.297109
0.601632
0.586622
0.577434
0.568264
0.556892
0.543406
0.52821
0.511778
0.494549
0.476883
0.459059
0.441291
0.423741
0.406531
0.389747
0.373452
0.357683
0.342464
0.327824
0.313807
0.300376
0.610304
0.595054
0.585492
0.575843
0.563958
0.549971
0.534307
0.517441
0.499814
0.481782
0.463621
0.445542
0.427706
0.41023
0.393201
0.376678
0.360699
0.345287
0.330468
0.316268
0.302636
0.614642
0.599276
0.589535
0.57966
0.567532
0.553308
0.537421
0.52035
0.502532
0.484324
0.466001
0.447772
0.429796
0.412191
0.395042
0.378407
0.362324
0.346815
0.331906
0.317613
0.303879
0.614616
0.59926
0.589538
0.57969
0.567592
0.553397
0.537536
0.520487
0.502689
0.484498
0.466188
0.44797
0.430004
0.412406
0.395262
0.378631
0.362549
0.347042
0.332133
0.317838
0.304101
0.610228
0.595007
0.585504
0.575937
0.564142
0.550241
0.534653
0.517855
0.500286
0.482302
0.464182
0.446137
0.428328
0.410874
0.393861
0.37735
0.361377
0.345968
0.331148
0.316944
0.303304
0.601513
0.58655
0.577461
0.568427
0.557203
0.543859
0.528792
0.512471
0.495339
0.477754
0.459998
0.442286
0.424782
0.407606
0.390849
0.374573
0.358815
0.3436
0.328959
0.314936
0.301492
0.588533
0.573951
0.565466
0.557211
0.546824
0.534296
0.519991
0.504371
0.48788
0.470881
0.453661
0.43644
0.419386
0.402623
0.386245
0.370316
0.354879
0.339954
0.32558
0.311827
0.298674
0.571386
0.557301
0.549606
0.542367
0.533074
0.521614
0.508308
0.493607
0.477956
0.461727
0.445212
0.428637
0.412174
0.395954
0.380075
0.364606
0.349591
0.33505
0.321028
0.307631
0.294864
0.550196
0.536722
0.52999
0.523994
0.516044
0.505895
0.493816
0.480245
0.46563
0.450349
0.434702
0.418922
0.403189
0.387639
0.372376
0.357476
0.342982
0.328917
0.315331
0.302372
0.290078
0.525119
0.512361
0.506757
0.502219
0.495845
0.487241
0.476609
0.464371
0.450978
0.436816
0.422194
0.407354
0.392484
0.377727
0.363193
0.348965
0.33509
0.321588
0.308519
0.296077
0.284341
0.496337
0.484394
0.480069
0.477187
0.472611
0.465771
0.456795
0.446084
0.434091
0.421211
0.407764
0.394002
0.380122
0.366275
0.352578
0.339122
0.325958
0.313106
0.300631
0.288779
0.277677
0.46406
0.453025
0.450114
0.449069
0.446495
0.441625
0.4345
0.425498
0.415072
0.403629
0.391499
0.378945
0.366175
0.353348
0.340592
0.328002
0.315638
0.303517
0.29171
0.280515
0.270119
0.428526
0.418479
0.4171
0.418055
0.417667
0.414956
0.409865
0.402741
0.394038
0.384175
0.373494
0.362272
0.350724
0.339022
0.327301
0.315668
0.304187
0.292873
0.281805
0.271328
0.261702
0.389993
0.381008
0.381261
0.384355
0.386319
0.385937
0.383044
0.377952
0.371117
0.362966
0.353857
0.344078
0.333858
0.323377
0.312782
0.302188
0.291667
0.281233
0.270969
0.261267
0.252467
0.348744
0.340882
0.342849
0.348197
0.352654
0.354753
0.354205
0.351286
0.346448
0.34013
0.332704
0.32447
0.315672
0.306501
0.297113
0.287635
0.278146
0.268661
0.259261
0.250383
0.242457
0.305082
0.298395
0.302134
0.309826
0.316894
0.321602
0.32353
0.322906
0.32018
0.315801
0.310156
0.303561
0.29627
0.288488
0.280382
0.272089
0.263698
0.255224
0.246745
0.238734
0.231721
0.259329
0.253856
0.259405
0.269506
0.279275
0.286697
0.291208
0.292986
0.29247
0.290123
0.286345
0.281468
0.27576
0.269437
0.262678
0.255633
0.248399
0.240994
0.233488
0.226381
0.220313
0.21182
0.20759
0.214964
0.227509
0.240042
0.25026
0.257442
0.261706
0.263484
0.263246
0.261408
0.258317
0.254254
0.249451
0.244097
0.238353
0.232329
0.226046
0.219561
0.21339
0.20829
0.162907
0.159936
0.169128
0.184122
0.199455
0.212523
0.22244
0.229257
0.233393
0.235325
0.235485
0.234235
0.231871
0.228637
0.224736
0.22034
0.215572
0.210457
0.205038
0.19983
0.195714
0.112951
0.111243
0.122223
0.139644
0.157779
0.173725
0.186417
0.195834
0.202373
0.206521
0.208722
0.209354
0.208729
0.207104
0.204693
0.201682
0.198209
0.194307
0.189996
0.185776
0.182653
0.0623208
0.0618699
0.0745839
0.0943775
0.115289
0.134111
0.149596
0.161635
0.170606
0.176997
0.181267
0.183809
0.18495
0.18496
0.184067
0.18247
0.180325
0.177678
0.174519
0.171308
0.169181
0.0113915
0.0121777
0.0265521
0.0486348
0.0722625
0.0939322
0.112199
0.126863
0.138273
0.146918
0.153269
0.157733
0.160654
0.162315
0.162955
0.162787
0.16199
0.160632
0.158677
0.156502
0.155379
-0.03946
-0.0374693
-0.021528
0.00273021
0.0289833
0.0534404
0.0744539
0.0917226
0.105558
0.116449
0.124877
0.131263
0.135964
0.139278
0.141457
0.142724
0.143284
0.143255
0.142592
0.14151
0.141333
-0.0898567
-0.0867098
-0.0693109
-0.0430197
-0.0142653
0.0128891
0.0365876
0.0564171
0.0726468
0.0857583
0.0962416
0.104531
0.110998
0.115953
0.119661
0.12235
0.124241
0.125518
0.126222
0.126394
0.126993
-0.139422
-0.135189
-0.116452
-0.0882997
-0.0572006
-0.0274691
-0.00117429
0.0211494
0.0397203
0.0550089
0.0675108
0.0776718
0.0858749
0.0924454
0.0976591
0.101752
0.104945
0.107487
0.109704
0.111817
0.112362
-0.187782
-0.182557
-0.16261
-0.132799
-0.0995431
-0.0673848
-0.0386087
-0.0138803
0.0069593
0.0243637
0.0388312
0.0508165
0.060713
0.0688578
0.0755386
0.0809955
0.0854357
0.0891266
0.0925397
0.0958305
0.0966108
-0.234625
-0.228436
-0.207454
-0.176215
-0.141019
-0.106614
-0.0754974
-0.048476
-0.0254596
-0.00601763
0.0103468
0.0240952
0.035629
0.0452937
0.0533857
0.0601468
0.0657612
0.0704717
0.0748308
0.0790531
0.0799557
-0.279854
-0.272366
-0.250697
-0.218261
-0.181363
-0.144918
-0.111628
-0.0824473
-0.0573646
-0.0359796
-0.017801
-0.00236367
0.01074
0.0218609
0.0313015
0.0393059
0.0460417
0.0517169
0.0569156
0.0620062
0.0637436
-0.322831
-0.314169
-0.29217
-0.258665
-0.220323
-0.18207
-0.146797
-0.11561
-0.0885897
-0.0653714
-0.0454748
-0.0284336
-0.0138365
-0.0013283
0.00939732
0.0185898
0.0264136
0.033053
0.0390797
0.0449696
0.0477994
-0.363266
-0.353649
-0.331304
-0.297245
-0.257659
-0.217852
-0.180808
-0.14779
-0.118976
-0.0940488
-0.0725421
-0.0539923
-0.0379857
-0.0241646
-0.0122193
-0.00189455
0.00698005
0.0145778
0.0214368
0.0280575
0.0318028
-0.400946
-0.390516
-0.367895
-0.333622
-0.293164
-0.252055
-0.213476
-0.178821
-0.148375
-0.121875
-0.0988772
-0.0789233
-0.0615991
-0.0465454
-0.0334506
-0.0220547
-0.0121796
-0.00365614
0.00401808
0.0113372
0.0158605
-0.435663
-0.424528
-0.40182
-0.36748
-0.326612
-0.28449
-0.244626
-0.208547
-0.176645
-0.148722
-0.124363
-0.103118
-0.0845754
-0.0683757
-0.0542068
-0.0418056
-0.0309867
-0.0215837
-0.0131264
-0.00511874
0.000190829
-0.467236
-0.455478
-0.432883
-0.398746
-0.357712
-0.314986
-0.274102
-0.236825
-0.203658
-0.174474
-0.148892
-0.126476
-0.106821
-0.0895675
-0.0744043
-0.0610661
-0.0493611
-0.0391252
-0.0299197
-0.0212365
-0.0151007
-0.495522
-0.483199
-0.460897
-0.427261
-0.386375
-0.343341
-0.301759
-0.263529
-0.229299
-0.199026
-0.172367
-0.148908
-0.128251
-0.110041
-0.0939663
-0.0797621
-0.0672299
-0.0562073
-0.0462888
-0.0369549
-0.0299907
-0.520408
-0.50758
-0.48573
-0.452866
-0.412469
-0.369452
-0.327468
-0.288547
-0.253468
-0.222286
-0.194702
-0.170333
-0.148792
-0.129724
-0.112825
-0.0978292
-0.0845322
-0.0727731
-0.0621799
-0.0522268
-0.0444611
-0.54182
-0.528552
-0.50729
-0.475446
-0.43587
-0.393212
-0.351134
-0.311787
-0.276086
-0.244174
-0.215827
-0.19068
-0.16838
-0.148557
-0.130923
-0.115213
-0.101218
-0.0887789
-0.077555
-0.0670158
-0.0584776
-0.559734
-0.546089
-0.525534
-0.494931
-0.456487
-0.414529
-0.372673
-0.333174
-0.297079
-0.264637
-0.235685
-0.209893
-0.186965
-0.166484
-0.148213
-0.131871
-0.117248
-0.10419
-0.0923874
-0.081297
-0.0720022
-0.574169
-0.560215
-0.54046
-0.511288
-0.474265
-0.433338
-0.392024
-0.35265
-0.316394
-0.283618
-0.254236
-0.227964
-0.204481
-0.183465
-0.164662
-0.147766
-0.132588
-0.118977
-0.106659
-0.0950655
-0.0850028
-0.585194
-0.570999
-0.552114
-0.524528
-0.489185
-0.449602
-0.409143
-0.370176
-0.333996
-0.301083
-0.271435
-0.244819
-0.220936
-0.199498
-0.18023
-0.162872
-0.147216
-0.133116
-0.120353
-0.108347
-0.0974831
-0.592921
-0.578555
-0.560585
-0.534702
-0.501262
-0.463313
-0.424012
-0.38573
-0.349866
-0.317015
-0.287265
-0.260448
-0.236299
-0.214543
-0.194916
-0.17718
-0.161121
-0.146592
-0.133433
-0.121161
-0.109557
-0.597509
-0.583044
-0.56601
-0.541903
-0.510544
-0.47449
-0.436635
-0.399312
-0.364002
-0.331414
-0.301731
-0.274853
-0.250558
-0.22859
-0.208705
-0.190674
-0.174292
-0.159404
-0.145871
-0.133317
-0.121671
-0.599153
-0.584665
-0.568568
-0.546269
-0.517122
-0.483183
-0.447039
-0.410937
-0.376416
-0.34429
-0.314842
-0.288044
-0.26372
-0.241646
-0.221595
-0.203352
-0.186722
-0.171553
-0.157723
-0.144948
-0.133236
-0.598086
-0.583653
-0.568475
-0.547974
-0.521117
-0.489471
-0.455274
-0.420641
-0.387136
-0.355668
-0.326619
-0.300037
-0.275803
-0.253724
-0.233595
-0.215219
-0.198412
-0.183029
-0.168951
-0.155931
-0.14395
-0.594569
-0.580273
-0.565981
-0.54723
-0.522689
-0.493462
-0.461413
-0.428476
-0.396204
-0.365584
-0.337093
-0.310863
-0.286831
-0.264845
-0.244725
-0.226289
-0.209369
-0.193821
-0.17953
-0.166262
-0.153954
-0.588886
-0.574813
-0.561366
-0.544283
-0.522031
-0.495295
-0.46555
-0.434509
-0.403675
-0.374085
-0.346308
-0.320559
-0.29684
-0.275041
-0.255011
-0.236586
-0.219611
-0.203949
-0.18949
-0.176018
-0.163417
-0.581339
-0.567573
-0.554925
-0.539402
-0.519364
-0.495134
-0.467803
-0.438826
-0.409614
-0.381229
-0.354316
-0.329174
-0.305873
-0.284351
-0.264488
-0.246143
-0.229174
-0.213453
-0.198878
-0.18526
-0.172425
-0.572236
-0.558863
-0.546967
-0.532877
-0.514934
-0.49317
-0.468308
-0.441526
-0.414098
-0.387079
-0.361175
-0.336762
-0.31398
-0.292821
-0.273199
-0.255
-0.238098
-0.222373
-0.207734
-0.194024
-0.181019
-0.561885
-0.54899
-0.537801
-0.525007
-0.509007
-0.489614
-0.467225
-0.442723
-0.417215
-0.391709
-0.366949
-0.343383
-0.321218
-0.300503
-0.281194
-0.263204
-0.246425
-0.23075
-0.216095
-0.202338
-0.189224
-0.550588
-0.53825
-0.52773
-0.516094
-0.501859
-0.484698
-0.464727
-0.442545
-0.419058
-0.395194
-0.371706
-0.349098
-0.327645
-0.307453
-0.288525
-0.270801
-0.254199
-0.238623
-0.223999
-0.210235
-0.197067
-0.538632
-0.526923
-0.517042
-0.50643
-0.493771
-0.478663
-0.461007
-0.441133
-0.419731
-0.397614
-0.375514
-0.353971
-0.333321
-0.31373
-0.295245
-0.277844
-0.261467
-0.246036
-0.231484
-0.217749
-0.204574
-0.526283
-0.515268
-0.506002
-0.496294
-0.485018
-0.471759
-0.456266
-0.438638
-0.419344
-0.399052
-0.378441
-0.358065
-0.338307
-0.31939
-0.301411
-0.284384
-0.268278
-0.253034
-0.238592
-0.224916
-0.211776
-0.513782
-0.503514
-0.494848
-0.485938
-0.47586
-0.464232
-0.450714
-0.435221
-0.418013
-0.399593
-0.380554
-0.361438
-0.34266
-0.324492
-0.307079
-0.290477
-0.274684
-0.259663
-0.245366
-0.231774
-0.218702
-0.501341
-0.491859
-0.483786
-0.475586
-0.466535
-0.456319
-0.444563
-0.431053
-0.415862
-0.399324
-0.381918
-0.364145
-0.346431
-0.329086
-0.312301
-0.296174
-0.280735
-0.265973
-0.251852
-0.238364
-0.225389
-0.489139
-0.480472
-0.472985
-0.465427
-0.457255
-0.44824
-0.438021
-0.426306
-0.41302
-0.398333
-0.382594
-0.366235
-0.349666
-0.33322
-0.317128
-0.301527
-0.286483
-0.272012
-0.258095
-0.244729
-0.231873
-0.477325
-0.469485
-0.462583
-0.455613
-0.448195
-0.440189
-0.431281
-0.421151
-0.40962
-0.396713
-0.382645
-0.36775
-0.352401
-0.336932
-0.321601
-0.306583
-0.291977
-0.27783
-0.264145
-0.250915
-0.238193
-0.466015
-0.459001
-0.452682
-0.44626
-0.439495
-0.43233
-0.424519
-0.415754
-0.405797
-0.394561
-0.382128
-0.368727
-0.354663
-0.340249
-0.325754
-0.311381
-0.297263
-0.283475
-0.270048
-0.256969
-0.244391
-0.455292
-0.449094
-0.443352
-0.43745
-0.431258
-0.424794
-0.417885
-0.410266
-0.401684
-0.391973
-0.381107
-0.3692
-0.356471
-0.343188
-0.32961
-0.315955
-0.302381
-0.288994
-0.275856
-0.262938
-0.25051
-0.445218
-0.439812
-0.434638
-0.429233
-0.423553
-0.417674
-0.411499
-0.404822
-0.397407
-0.389051
-0.379645
-0.369198
-0.357834
-0.345751
-0.333176
-0.320322
-0.307365
-0.29443
-0.281617
-0.268875
-0.256595
-0.435827
-0.431181
-0.426561
-0.421632
-0.416416
-0.411033
-0.405451
-0.399533
-0.393082
-0.385895
-0.377811
-0.368758
-0.35876
-0.347932
-0.336446
-0.324488
-0.312233
-0.299818
-0.287378
-0.274834
-0.262701
-0.427139
-0.423212
-0.419125
-0.414651
-0.409859
-0.404901
-0.399799
-0.394482
-0.388808
-0.3826
-0.37568
-0.367918
-0.359255
-0.349716
-0.339398
-0.328439
-0.316992
-0.305186
-0.293184
-0.280871
-0.268878
-0.419161
-0.415906
-0.412323
-0.408278
-0.403877
-0.399287
-0.394576
-0.389731
-0.38467
-0.379257
-0.37333
-0.366728
-0.359333
-0.351087
-0.342002
-0.332146
-0.321628
-0.310545
-0.299075
-0.287047
-0.275211
-0.411894
-0.409257
-0.406143
-0.402497
-0.398453
-0.394185
-0.389796
-0.38532
-0.380733
-0.375951
-0.370842
-0.36525
-0.359022
-0.352035
-0.34422
-0.335562
-0.326106
-0.31589
-0.305081
-0.293436
-0.281763
-0.405337
-0.403257
-0.400569
-0.397288
-0.393568
-0.389584
-0.385461
-0.381275
-0.37705
-0.372754
-0.368301
-0.363558
-0.358366
-0.352565
-0.346018
-0.338631
-0.330368
-0.321187
-0.31122
-0.300105
-0.288739
-0.399489
-0.397896