/*--------------------------------*- C++ -*----------------------------------*\
  =========                 |
  \\      /  F ield         | OpenFOAM: The Open Source CFD Toolbox
   \\    /   O peration     | Website:  https://openfoam.org
    \\  /    A nd           | Version:  7
     \\/     M anipulation  |
\*---------------------------------------------------------------------------*/
FoamFile
{
    version     2.0;
    format      ascii;
    class       surfaceScalarField;
    location    "60";
    object      phi;
}
// * * * * * * * * * * * * * * * * * * * * * * * * * * * * * * * * * * * * * //

dimensions      [0 3 -1 0 0 0 0];

internalField   nonuniform List<scalar> 
17388
(
-4.86259e-06
-8.87391e-06
1.37365e-05
-1.72859e-05
-3.6603e-05
4.90262e-05
-3.59473e-05
-7.09635e-05
8.96249e-05
-5.97966e-05
-0.000108544
0.000132393
-8.79553e-05
-0.000146959
0.000175118
-0.00011965
-0.000184985
0.00021668
-0.000154156
-0.000222459
0.000256966
-0.000190752
-0.000260066
0.000296662
-0.000228681
-0.000299043
0.000336973
-0.000267119
-0.000340859
0.000379297
-0.000305139
-0.000386925
0.000424945
-0.000341683
-0.000438373
0.000474917
-0.000375531
-0.000495909
0.000529758
-0.0004053
-0.000559727
0.000589496
-0.000429458
-0.00062948
0.000653638
-0.000446398
-0.000704308
0.000721248
-0.000454559
-0.000782979
0.00079114
-0.000452615
-0.00086425
0.000862306
-0.000439747
-0.000947385
0.000934517
-0.000415642
-0.00103276
0.00100866
-0.00112449
0.00108912
-0.00038028
-5.27903e-06
-3.59488e-06
-1.87449e-05
-2.3137e-05
-3.89442e-05
-5.07642e-05
-6.47239e-05
-8.27639e-05
-9.51313e-05
-0.000116552
-0.000129352
-0.000150765
-0.000166654
-0.000185157
-0.000206341
-0.000220379
-0.000247709
-0.000257676
-0.00029
-0.000298568
-0.000332358
-0.000344567
-0.000373778
-0.000396954
-0.000413059
-0.000456628
-0.000448779
-0.000524007
-0.000479304
-0.000598956
-0.000502854
-0.000680758
-0.000517655
-0.000768178
-0.000522195
-0.000859711
-0.000515555
-0.000954025
-0.000497553
-0.00105076
-0.00115321
-0.00046883
-5.57056e-06
1.97568e-06
-1.97804e-05
-8.92725e-06
-4.10843e-05
-2.94603e-05
-6.82499e-05
-5.55982e-05
-0.000100264
-8.45376e-05
-0.000136278
-0.000114751
-0.000175558
-0.000145878
-0.000217436
-0.000178501
-0.000261266
-0.000213846
-0.000306368
-0.000253466
-0.000351971
-0.000298964
-0.000397147
-0.000351778
-0.000440744
-0.000413031
-0.000481338
-0.000483413
-0.000517217
-0.000563076
-0.000546437
-0.000651538
-0.000566976
-0.000747639
-0.000577046
-0.000849641
-0.000575515
-0.000955556
-0.000562231
-0.00106405
-0.00117711
-0.000538331
-5.71896e-06
7.69465e-06
-2.03333e-05
5.68711e-06
-4.22534e-05
-7.54016e-06
-7.01951e-05
-2.76565e-05
-0.000103098
-5.16342e-05
-0.000140086
-7.77629e-05
-0.000180422
-0.000105542
-0.000223464
-0.000135459
-0.00026862
-0.00016869
-0.000315289
-0.000206796
-0.000362795
-0.000251457
-0.000410307
-0.000304266
-0.000456756
-0.000366583
-0.000500761
-0.000439408
-0.000540586
-0.000523251
-0.00057416
-0.000617965
-0.000599215
-0.000722584
-0.000613619
-0.000835237
-0.000615884
-0.000953291
-0.0006057
-0.00107423
-0.00119826
-0.000584547
-5.71269e-06
1.34073e-05
-2.03657e-05
2.03402e-05
-4.23762e-05
1.44703e-05
-7.04372e-05
4.04454e-07
-0.000103456
-1.86152e-05
-0.000140529
-4.069e-05
-0.000180909
-6.51624e-05
-0.00022397
-9.23985e-05
-0.000269159
-0.0001235
-0.000315943
-0.000160012
-0.000363735
-0.000203666
-0.000411807
-0.000256194
-0.0004592
-0.000319189
-0.000504629
-0.000393979
-0.000546401
-0.000481479
-0.000582395
-0.00058197
-0.000610154
-0.000694825
-0.00062718
-0.000818211
-0.000631503
-0.000948969
-0.000622409
-0.00108333
-0.00121918
-0.000601493
-5.54799e-06
1.89553e-05
-1.98633e-05
3.46555e-05
-4.14212e-05
3.60282e-05
-6.89208e-05
2.79041e-05
-0.000101248
1.37124e-05
-0.000137471
-4.46715e-06
-0.000176819
-2.58142e-05
-0.00021866
-5.05584e-05
-0.000262454
-7.97063e-05
-0.000307706
-0.00011476
-0.000353893
-0.000157479
-0.000400379
-0.000209708
-0.000446321
-0.000273247
-0.00049056
-0.00034974
-0.000531524
-0.000440515
-0.00056715
-0.000546345
-0.0005949
-0.000667074
-0.000611986
-0.000801126
-0.000615894
-0.00094506
-0.000605255
-0.00109397
-0.00124301
-0.000581424
-5.22951e-06
2.41848e-05
-1.88376e-05
4.82636e-05
-3.94053e-05
5.65958e-05
-6.56634e-05
5.41622e-05
-9.64866e-05
4.45356e-05
-0.000130907
2.99537e-05
-0.000168114
1.13923e-05
-0.000207437
-1.12355e-05
-0.000248312
-3.88308e-05
-0.000290238
-7.28337e-05
-0.000332709
-0.000115008
-0.000375139
-0.000167278
-0.000416773
-0.000231614
-0.000456584
-0.000309928
-0.000493168
-0.000403932
-0.000524626
-0.000514886
-0.000548512
-0.000643189
-0.000561915
-0.000787722
-0.000561874
-0.000945101
-0.000546202
-0.00110964
-0.00127367
-0.00051554
-4.7704e-06
2.89552e-05
-1.73266e-05
6.08198e-05
-3.63944e-05
7.56637e-05
-6.07583e-05
7.85261e-05
-8.92868e-05
7.30641e-05
-0.000120969
6.16362e-05
-0.000154932
4.53554e-05
-0.000190431
2.4263e-05
-0.000226831
-2.43065e-06
-0.000263567
-3.60981e-05
-0.000300084
-7.84909e-05
-0.000335778
-0.000131584
-0.00036992
-0.000197472
-0.000401572
-0.000278276
-0.000429494
-0.00037601
-0.000452029
-0.00049235
-0.000466992
-0.000628226
-0.000471624
-0.00078309
-0.000462809
-0.000953916
-0.000437676
-0.00113477
-0.00131588
-0.000395465
-4.19175e-06
3.3147e-05
-1.53927e-05
7.20208e-05
-3.25016e-05
9.27726e-05
-5.43713e-05
0.000100396
-7.98676e-05
9.85605e-05
-0.000107927
8.96959e-05
-0.000137589
7.50175e-05
-0.000168003
5.46763e-05
-0.00019841
2.79764e-05
-0.000228116
-6.39232e-06
-0.000256446
-5.01605e-05
-0.00028269
-0.000105339
-0.000306052
-0.000174111
-0.000325594
-0.000258735
-0.00034018
-0.000361424
-0.000348388
-0.000484142
-0.00034841
-0.000628205
-0.000337927
-0.000793573
-0.000314154
-0.000977689
-0.000274365
-0.00117456
-0.00137499
-0.000215253
-3.52124e-06
3.66682e-05
-1.31195e-05
8.1619e-05
-2.78799e-05
0.000107533
-4.67313e-05
0.000119247
-6.85366e-05
0.000120366
-9.21699e-05
0.000113329
-0.000116563
9.94102e-05
-0.000140721
7.88349e-05
-0.000163722
5.09775e-05
-0.000184681
1.45665e-05
-0.000202729
-3.21124e-05
-0.000216963
-9.11056e-05
-0.000226416
-0.000164658
-0.000230037
-0.000255114
-0.000226681
-0.000364779
-0.000215068
-0.000495755
-0.000193748
-0.000649525
-0.000160966
-0.000826355
-0.000114493
-0.00102416
-5.21444e-05
-0.00123691
-0.00144965
2.25113e-05
-2.79121e-06
3.94594e-05
-1.06057e-05
8.94335e-05
-2.27122e-05
0.00011964
-3.81145e-05
0.000134649
-5.56691e-05
0.00013792
-7.4178e-05
0.000131838
-9.24472e-05
0.000117679
-0.000109314
9.57018e-05
-0.000123649
6.53119e-05
-0.000134336
2.52539e-05
-0.000140243
-2.62057e-05
-0.000140207
-9.11409e-05
-0.000133002
-0.000171863
-0.000117348
-0.000270768
-9.19962e-05
-0.000390131
-5.56478e-05
-0.000532104
-7.10358e-06
-0.000698069
5.48578e-05
-0.000888316
0.000131759
-0.00110106
0.000224823
-0.00132997
-0.00156138
0.000336551
-2.03617e-06
4.14956e-05
-7.95796e-06
9.53553e-05
-1.7198e-05
0.00012888
-2.88242e-05
0.000146276
-4.16791e-05
0.000150775
-5.44834e-05
0.000144642
-6.59038e-05
0.0001291
-7.4588e-05
0.000104386
-7.91734e-05
6.98973e-05
-7.82735e-05
2.4354e-05
-7.0454e-05
-3.40252e-05
-5.42558e-05
-0.000107339
-2.81318e-05
-0.000197987
9.44427e-06
-0.000308344
6.00797e-05
-0.000440766
0.00012504
-0.000597064
0.000205425
-0.000778454
0.000302019
-0.00098491
0.00041535
-0.00121439
0.000545618
-0.00146024
-0.00171052
0.000694763
-1.29009e-06
4.27857e-05
-5.28257e-06
9.93477e-05
-1.15374e-05
0.000135134
-1.91661e-05
0.000153904
-2.69846e-05
0.000158594
-3.36216e-05
0.000151279
-3.75926e-05
0.000133071
-3.734e-05
0.000104133
-3.1251e-05
6.38084e-05
-1.76494e-05
1.07524e-05
5.20022e-06
-5.68748e-05
3.9175e-05
-0.000141314
8.60893e-05
-0.000244901
0.000147812
-0.000370067
0.000226036
-0.00051899
0.000322251
-0.000693279
0.000437432
-0.000893635
0.00057189
-0.00111937
0.000725364
-0.00136787
0.000896895
-0.00163177
-0.00189943
0.00108581
-5.83676e-07
4.33694e-05
-2.6772e-06
0.000101441
-5.91531e-06
0.000138372
-9.42314e-06
0.000157412
-1.19704e-05
0.000161141
-1.20805e-05
0.00015139
-8.10595e-06
0.000129096
1.7269e-06
9.43005e-05
1.93067e-05
4.62286e-05
4.66123e-05
-1.65532e-05
8.57309e-05
-9.59934e-05
0.000138796
-0.000194379
0.00020801
-0.000314116
0.000295479
-0.000457535
0.000403074
-0.000626586
0.00053225
-0.000822455
0.000683756
-0.00104514
0.000857344
-0.00129296
0.00105176
-0.00156228
0.00126508
-0.0018451
-0.00212798
0.00149362
5.43826e-08
4.3315e-05
-2.21452e-07
0.000101717
-4.84501e-07
0.000138636
1.71026e-07
0.000156757
3.04809e-06
0.000158264
9.74778e-06
0.00014469
2.20979e-05
0.000116746
4.2106e-05
7.42924e-05
7.19317e-05
1.6403e-05
0.000113874
-5.84956e-05
0.000170342
-0.000152462
0.000243803
-0.00026784
0.000336702
-0.000407015
0.000451306
-0.000572139
0.000589488
-0.000764768
0.000752463
-0.000985429
0.000940467
-0.00123314
0.00115245
-0.00150494
0.00138579
-0.00179562
0.00163778
-0.00209709
-0.00239202
0.00190183
6.16345e-07
4.26986e-05
2.02636e-06
0.000100307
4.64638e-06
0.000136015
9.45409e-06
0.000151949
1.7859e-05
0.000149859
3.16127e-05
0.000130936
5.2743e-05
9.56159e-05
8.35068e-05
4.35286e-05
0.000126358
-2.64484e-05
0.000183909
-0.000116047
0.000258878
-0.000227431
0.000353995
-0.000362956
0.000471858
-0.000524878
0.000614713
-0.000714994
0.000784162
-0.000934217
0.000980829
-0.0011821
0.00120402
-0.00145633
0.0014515
-0.00175242
0.0017189
-0.00206303
0.0020027
-0.00238089
-0.00268319
0.00229388
1.0838e-06
4.16148e-05
4.0426e-06
9.73483e-05
9.42978e-06
0.000130628
1.83561e-05
0.000143023
3.23799e-05
0.000135835
5.34367e-05
0.000109879
8.37827e-05
6.52699e-05
0.000125943
1.36862e-06
0.000182676
-8.31816e-05
0.000256893
-0.000190264
0.000351574
-0.000322111
0.000469604
-0.000480986
0.000613549
-0.000668824
0.000785348
-0.000886793
0.000985941
-0.00113481
0.00121489
-0.00141104
0.00147006
-0.0017115
0.00174761
-0.00202998
0.00204133
-0.00235674
0.00234658
-0.00268613
-0.00298957
0.00265296
1.46457e-06
4.01503e-05
5.83428e-06
9.29786e-05
1.38822e-05
0.00012258
2.69112e-05
0.000129994
4.66775e-05
0.000116069
7.53405e-05
8.12165e-05
0.000115415
2.51955e-05
0.000169723
-5.29391e-05
0.000241308
-0.000154767
0.000333351
-0.000282307
0.000448988
-0.000437748
0.000591074
-0.000623073
0.000761853
-0.000839602
0.000962546
-0.00108749
0.00119292
-0.00136519
0.00145095
-0.00166907
0.00173257
-0.00199312
0.00203198
-0.00232939
0.00234151
-0.00266628
0.00265512
-0.00299974
-0.00329714
0.00296269
1.7718e-06
3.83785e-05
7.44493e-06
8.73054e-05
1.80895e-05
0.000111936
3.5263e-05
0.00011282
6.09724e-05
9.03596e-05
9.76448e-05
4.45441e-05
0.000148087
-2.52469e-05
0.000215416
-0.000120268
0.000302947
-0.000242298
0.000414029
-0.000393388
0.000551779
-0.000575498
0.000718733
-0.000790026
0.000916396
-0.00103727
0.00114476
-0.00131585
0.00140188
-0.00162231
0.00168359
-0.00195078
0.00198367
-0.0022932
0.00229417
-0.00263989
0.00260692
-0.00297903
0.00291433
-0.00330714
-0.00359178
0.00320897
2.02943e-06
3.6349e-05
8.95141e-06
8.03835e-05
2.22033e-05
9.8684e-05
4.36576e-05
9.13657e-05
7.56267e-05
5.83906e-05
0.000120846
-6.75108e-07
0.000182437
-8.68382e-05
0.000263796
-0.000201627
0.00036843
-0.000346932
0.000499693
-0.000524651
0.000660405
-0.000736211
0.000852376
-0.000981998
0.00107587
-0.00126076
0.00132909
-0.00156908
0.00160791
-0.00190112
0.00190578
-0.00224866
0.00221435
-0.00260176
0.00252388
-0.00294942
0.00282646
-0.00328161
0.00311281
-0.0035935
-0.00386142
0.00338245
2.27015e-06
3.40789e-05
1.04586e-05
7.2195e-05
2.6429e-05
8.27136e-05
5.24248e-05
6.53699e-05
9.11104e-05
1.9705e-05
0.000145569
-5.51334e-05
0.000219222
-0.000160492
0.000315694
-0.000298098
0.000438536
-0.000469775
0.000590847
-0.000676962
0.00077476
-0.000920123
0.000990857
-0.0011981
0.00123761
-0.00150751
0.001511
-0.00184247
0.00180446
-0.00219458
0.0021093
-0.0025535
0.00241562
-0.00290808
0.00271307
-0.00324688
0.00299396
-0.0035625
0.00324499
-0.00384452
-0.00409353
0.00347709
2.53257e-06
3.15463e-05
1.20907e-05
6.26369e-05
3.10089e-05
6.37953e-05
6.19468e-05
3.4432e-05
0.000107959
-2.63071e-05
0.000172477
-0.000119651
0.000259194
-0.000247209
0.000371832
-0.000410736
0.000513751
-0.000611695
0.00068743
-0.000850641
0.000893829
-0.00112652
0.00113177
-0.00143603
0.00139746
-0.00177321
0.00168444
-0.00212944
0.0019839
-0.00249404
0.00228569
-0.00285528
0.0025795
-0.00320189
0.00285622
-0.00352361
0.00310957
-0.00381584
0.00332931
-0.00406427
-0.00429863
0.00353441
2.8577e-06
2.86886e-05
1.39788e-05
5.15158e-05
3.6196e-05
4.15781e-05
7.26145e-05
-1.98648e-06
0.000126692
-8.03851e-05
0.000202185
-0.000195144
0.000302956
-0.00034798
0.000432622
-0.000540401
0.000594019
-0.000773092
0.000788545
-0.00104517
0.00101546
-0.00135344
0.00127136
-0.00169193
0.00154996
-0.00205181
0.00184249
-0.00242197
0.00213858
-0.00279014
0.00242766
-0.00314436
0.00270036
-0.00347459
0.00295001
-0.00377326
0.00317235
-0.00403818
0.00337042
-0.00426233
-0.00447384
0.00354563
3.28488e-06
2.54037e-05
1.62481e-05
3.85525e-05
4.22269e-05
1.55994e-05
8.47807e-05
-4.45404e-05
0.000147751
-0.000143355
0.000235141
-0.000282535
0.000350814
-0.000463653
0.000497986
-0.000687572
0.000678547
-0.000953653
0.00089231
-0.00125893
0.00113637
-0.0015975
0.0014048
-0.00196036
0.00168895
-0.00233596
0.00197835
-0.00271136
0.00226209
-0.00307388
0.00253044
-0.00341271
0.00277615
-0.0037203
0.00299542
-0.00399252
0.0031876
-0.00423036
0.00335681
-0.00443154
-0.00462047
0.00350343
3.84802e-06
2.15557e-05
1.90047e-05
2.33958e-05
4.92958e-05
-1.46917e-05
9.87126e-05
-9.39571e-05
0.00017142
-0.000216062
0.000271531
-0.000382646
0.000402654
-0.000594777
0.000567229
-0.000852147
0.000765723
-0.00115215
0.000995887
-0.00148909
0.00125233
-0.00185394
0.00152669
-0.00223472
0.00180844
-0.00261772
0.0020864
-0.00298932
0.00235032
-0.0033378
0.00259243
-0.00365482
0.00280832
-0.00393619
0.00299721
-0.00418141
0.0031612
-0.00439435
0.00330587
-0.00457621
-0.00474887
0.00343427
4.5724e-06
1.69833e-05
2.23249e-05
5.64332e-06
5.75309e-05
-4.98977e-05
0.000114557
-0.000150983
0.000197779
-0.000299284
0.00031121
-0.000496077
0.000457877
-0.000741444
0.000639004
-0.00103327
0.000853164
-0.00136631
0.0010957
-0.00173163
0.00135872
-0.00211696
0.00163182
-0.00250781
0.00190353
-0.00288942
0.00216307
-0.00324886
0.00240198
-0.00357671
0.00261518
-0.00386803
0.00280124
-0.00412224
0.00296203
-0.0043422
0.00310156
-0.00453388
0.00322616
-0.00470081
-0.00486174
0.00333903
5.47305e-06
1.15103e-05
2.62491e-05
-1.51327e-05
6.69815e-05
-9.06302e-05
0.000132316
-0.000216318
0.000226669
-0.000393637
0.000353677
-0.000623084
0.000515393
-0.000903161
0.000711373
-0.00122925
0.000937917
-0.00159285
0.00118784
-0.00198156
0.00145105
-0.00238017
0.00171589
-0.00277266
0.00197102
-0.00314455
0.00220718
-0.00348501
0.00241843
-0.00378797
0.00260261
-0.00405221
0.00276094
-0.00428058
0.00289725
-0.00447851
0.0030166
-0.00465323
0.00312526
-0.00480948
-0.00496308
0.00322661
6.55452e-06
4.95576e-06
3.07799e-05
-3.93581e-05
7.76146e-05
-0.000137465
0.000151843
-0.000290546
0.000257693
-0.000499488
0.000398088
-0.000763479
0.000573686
-0.00107876
0.000781968
-0.00143754
0.00101675
-0.00182764
0.00126851
-0.00223331
0.00152557
-0.00263723
0.00177605
-0.00302313
0.00200978
-0.00337828
0.00221982
-0.00369505
0.00240306
-0.00397121
0.00256002
-0.00420916
0.00269395
-0.00441451
0.00280981
-0.00459437
0.00291296
-0.00475638
0.00300914
-0.00490566
-0.0050551
0.00310117
7.81182e-06
-2.85606e-06
3.58848e-05
-6.74311e-05
8.9318e-05
-0.000190898
0.000172849
-0.000374077
0.000290239
-0.000616877
0.000443314
-0.000916555
0.000630931
-0.00126638
0.000848212
-0.00165482
0.00108652
-0.00206595
0.00133446
-0.00248125
0.00157969
-0.00288246
0.0018111
-0.00325454
0.00202055
-0.00358773
0.00220379
-0.0038783
0.00236043
-0.00412785
0.00249311
-0.00434185
0.00260639
-0.00452779
0.00270562
-0.00469359
0.00279591
-0.00484668
0.00288216
-0.00499191
-0.00513952
0.00296657
9.23217e-06
-1.20882e-05
4.15006e-05
-9.96995e-05
0.000101911
-0.000251308
0.000194927
-0.000467094
0.000323515
-0.000745464
0.000488019
-0.00108106
0.000685149
-0.00146351
0.000907565
-0.00187723
0.00114449
-0.00230287
0.00138337
-0.00272014
0.00161218
-0.00311127
0.00182145
-0.00346381
0.00200556
-0.00377184
0.00216296
-0.0040357
0.0022955
-0.00426039
0.0024073
-0.00445365
0.00250351
-0.004624
0.00258933
-0.00477942
0.0026693
-0.00492664
0.00274736
-0.00506998
-0.00521723
0.00282508
1.07969e-05
-2.28851e-05
4.75391e-05
-0.000136442
0.000115155
-0.000318924
0.00021757
-0.000569508
0.000356603
-0.000884498
0.000530754
-0.00125521
0.00073437
-0.00166712
0.000957766
-0.00210063
0.00118857
-0.00253367
0.00141397
-0.00294554
0.00162311
-0.00332041
0.00180877
-0.00364947
0.00196799
-0.00393105
0.00210156
-0.00416928
0.00221302
-0.00437185
0.00230727
-0.00454789
0.00238951
-0.00470623
0.00246445
-0.00485436
0.00253587
-0.00499806
0.00260685
-0.00514096
-0.00528873
0.00267836
1.24827e-05
-3.53678e-05
5.38924e-05
-0.000177851
0.000128769
-0.000393801
0.000240202
-0.000680941
0.000388516
-0.00103281
0.000570068
-0.00143676
0.000776795
-0.00187385
0.000997019
-0.00232085
0.0012175
-0.00275416
0.00142604
-0.00315408
0.00161364
-0.00350801
0.00177561
-0.00381143
0.00191141
-0.00406686
0.00202375
-0.00428161
0.00211716
-0.00446526
0.00219682
-0.00462755
0.00226757
-0.00477699
0.00233347
-0.00492026
0.00239752
-0.00506212
0.00246202
-0.00520546
-0.0053542
0.00252749
1.42624e-05
-4.96302e-05
6.04365e-05
-0.000224025
0.000142436
-0.0004758
0.000262205
-0.00080071
0.00041825
-0.00118886
0.000604602
-0.00162312
0.000810931
-0.00208018
0.00102411
-0.00253404
0.00123085
-0.00296089
0.00142029
-0.00334352
0.00158572
-0.00367344
0.00172491
-0.00395063
0.00183942
-0.00418137
0.00193324
-0.00437543
0.0020114
-0.00454342
0.0020789
-0.00469506
0.00214004
-0.00483813
0.00219814
-0.00497835
0.00225552
-0.0051195
0.00231383
-0.00526377
-0.00541362
0.00237325
1.61054e-05
-6.57356e-05
6.70345e-05
-0.000274955
0.000155819
-0.000564585
0.000282948
-0.000927839
0.000444846
-0.00135075
0.000633181
-0.00181145
0.000835687
-0.00228268
0.00103847
-0.00273682
0.00122894
-0.00315136
0.00139812
-0.0035127
0.00154171
-0.00381703
0.00165973
-0.00406865
0.00175531
-0.00427695
0.00183319
-0.00445331
0.00189848
-0.00460871
0.00195574
-0.00475231
0.00200859
-0.00489099
0.00205968
-0.00502944
0.00211075
-0.00517056
0.00216293
-0.00531595
-0.00546688
0.00221619
1.7978e-05
-8.37136e-05
7.35396e-05
-0.000330516
0.000168569
-0.000659614
0.000301814
-0.00106108
0.000467443
-0.00151638
0.000654882
-0.00199889
0.00085042
-0.00247822
0.0010401
-0.00292651
0.00121267
-0.00332393
0.00136136
-0.00366138
0.00148417
-0.00393984
0.00158296
-0.00416744
0.00166195
-0.00435593
0.00172619
-0.00451755
0.00178052
-0.00466304
0.00182893
-0.00480072
0.00187439
-0.00493644
0.00191892
-0.00507398
0.00196382
-0.00521546
0.00200983
-0.00536196
-0.00551383
0.00205678
1.98431e-05
-0.000103557
7.97986e-05
-0.000390472
0.000180339
-0.000760155
0.000318231
-0.00119898
0.000485327
-0.00168348
0.000669082
-0.00218264
0.000854931
-0.00266407
0.00102953
-0.0031011
0.0011834
-0.0034778
0.00131206
-0.00379004
0.00141557
-0.00404335
0.00149719
-0.00424906
0.00156174
-0.00442048
0.00161425
-0.00457006
0.00165909
-0.00470788
0.00169963
-0.00484126
0.00173824
-0.00497506
0.00177646
-0.00511219
0.00181519
-0.00525419
0.00185491
-0.00540168
-0.00555431
0.00189539
2.16614e-05
-0.000125218
8.56564e-05
-0.000454467
0.000190799
-0.000865298
0.0003317
-0.00133988
0.000497961
-0.00184974
0.00067547
-0.00236015
0.000849426
-0.00283803
0.00100765
-0.00325933
0.00114272
-0.00361287
0.00125231
-0.00389963
0.0013382
-0.00412924
0.00140462
-0.00431548
0.0014566
-0.00447247
0.0014989
-0.00461236
0.00153534
-0.00474432
0.00156868
-0.0048746
0.00160076
-0.00500714
0.00163272
-0.00514416
0.00166521
-0.00528668
0.00169851
-0.00543498
-0.00558815
0.00173235
2.3392e-05
-0.00014861
9.09615e-05
-0.000522036
0.000199649
-0.000973986
0.000341819
-0.00148205
0.00050501
-0.00201293
0.00067403
-0.00252917
0.000834439
-0.00299844
0.000975638
-0.00340053
0.00109232
-0.00372955
0.0011841
-0.00399142
0.0012541
-0.00419924
0.00130709
-0.00436846
0.00134807
-0.00451345
0.00138133
-0.00464563
0.00141012
-0.00477311
0.00143666
-0.00490114
0.00146236
-0.00503284
0.00148806
-0.00516985
0.00151419
-0.00531282
0.00154092
-0.0054617
-0.00561522
0.00156799
2.49938e-05
-0.000173604
9.55719e-05
-0.000592614
0.000206633
-0.00108505
0.000348297
-0.00162371
0.000506338
-0.00217097
0.000665014
-0.00268785
0.000810749
-0.00314417
0.000934782
-0.00352456
0.00103385
-0.00382862
0.00110924
-0.00406681
0.00116498
-0.00425498
0.00120609
-0.00440958
0.0012373
-0.00454466
0.0012624
-0.00467072
0.00128405
-0.00479476
0.00130403
-0.00492111
0.00132338
-0.0050522
0.00134274
-0.00518921
0.0013624
-0.00533248
0.00138242
-0.00548172
-0.00563539
0.00140259
2.64271e-05
-0.000200031
9.93606e-05
-0.000665548
0.000211549
-0.00119723
0.000350965
-0.00176313
0.000502
-0.00232201
0.00064888
-0.00283473
0.000779297
-0.00327459
0.00088643
-0.0036317
0.000968902
-0.00391109
0.00102931
-0.00412721
0.00107227
-0.00429794
0.0011028
-0.0044401
0.00112521
-0.00456708
0.00114275
-0.00468826
0.0011576
-0.00480961
0.00117112
-0.00493463
0.0011841
-0.00506518
0.00119702
-0.00520212
0.00121007
-0.00534553
0.00122325
-0.00549491
-0.00564857
0.00123643
2.76549e-05
-0.000227686
0.000102221
-0.000740114
0.000214256
-0.00130927
0.000349776
-0.00189865
0.000492214
-0.00246444
0.000626243
-0.00296876
0.000741099
-0.00338944
0.000831893
-0.00372249
0.000898886
-0.00397808
0.000945662
-0.00417398
0.000977147
-0.00432943
0.000998133
-0.00446109
0.00101247
-0.00458142
0.00102289
-0.00469867
0.00103112
-0.00481784
0.00103821
-0.00494171
0.00104476
-0.00507174
0.00105111
-0.00520847
0.00105742
-0.00535184
0.00106367
-0.00550115
-0.00565466
0.00106976
2.86446e-05
-0.00025633
0.000104072
-0.000815541
0.000214677
-0.00141987
0.00034479
-0.00202876
0.000477331
-0.00259699
0.000597817
-0.00308924
0.000697194
-0.00348882
0.000772397
-0.0037977
0.000825058
-0.00403074
0.000859444
-0.00420837
0.000880546
-0.00435053
0.000892819
-0.00447336
0.000899619
-0.00458822
0.000903189
-0.00470224
0.000904896
-0.00481955
0.000905537
-0.00494236
0.000905569
-0.00507177
0.000905249
-0.00520815
0.000904689
-0.00535128
0.000903873
-0.00550033
-0.00565357
0.000902789
2.93689e-05
-0.000285699
0.000104856
-0.000891028
0.000212801
-0.00152782
0.000336167
-0.00215213
0.000457797
-0.00271862
0.000564366
-0.00319581
0.000648589
-0.00357304
0.000709057
-0.00385816
0.000748495
-0.00407018
0.000771589
-0.00423146
0.000783216
-0.00436215
0.000787415
-0.00447756
0.000787056
-0.00458786
0.000783956
-0.00469914
0.000779177
-0.00481477
0.000773321
-0.0049365
0.000766736
-0.00506519
0.000759624
-0.00520104
0.000752072
-0.00534373
0.000744074
-0.00549233
-0.00564518
0.000735678
2.98066e-05
-0.000315506
0.000104546
-0.000965767
0.000208672
-0.00163195
0.000324142
-0.0022676
0.000434119
-0.00282859
0.000526662
-0.00328835
0.000596228
-0.00364261
0.000642859
-0.0039048
0.00067011
-0.00409743
0.000682862
-0.00424422
0.000685748
-0.00436504
0.000682359
-0.00447417
0.000675109
-0.00458061
0.000665445
-0.00468948
0.00065418
-0.0048035
0.000641765
-0.00492408
0.000628464
-0.00505188
0.000614441
-0.00518701
0.000599777
-0.00532906
0.000584475
-0.00547703
-0.00562928
0.000568578
2.99435e-05
-0.000345449
0.000103139
-0.00103896
0.000202385
-0.00173119
0.00030901
-0.00237422
0.00040684
-0.00292642
0.000485455
-0.00336697
0.000540971
-0.00369813
0.00057466
-0.00393848
0.000590661
-0.00411343
0.000593878
-0.00424743
0.000588611
-0.00435977
0.000578001
-0.00446356
0.000564044
-0.00456665
0.000547878
-0.00467331
0.000530112
-0.00478574
0.00051108
-0.00490505
0.000490973
-0.00503178
0.000469922
-0.00516596
0.000448007
-0.00530715
0.000425257
-0.00545428
-0.00560572
0.000401698
2.97719e-05
-0.000375221
0.000100658
-0.00110985
0.000194078
-0.00182461
0.000291103
-0.00247125
0.000376506
-0.00301182
0.000441454
-0.00343192
0.000483589
-0.00374026
0.00050519
-0.00396008
0.000510775
-0.00411902
0.000505132
-0.00424179
0.000492179
-0.00434682
0.000474621
-0.004446
0.000454085
-0.00454612
0.000431453
-0.00465068
0.000407173
-0.00476146
0.000381483
-0.00487936
0.000354518
-0.00500481
0.000326366
-0.00513781
0.000297064
-0.00527784
0.00026658
-0.0054238
-0.00557444
0.000235298
2.92911e-05
-0.000404512
9.71479e-05
-0.00117771
0.000183919
-0.00191138
0.000270775
-0.0025581
0.00034365
-0.0030847
0.000395307
-0.00348357
0.000424754
-0.00376971
0.000435067
-0.0039704
0.000430966
-0.00411492
0.000417021
-0.00422784
0.000396749
-0.00432655
0.000372447
-0.0044217
0.000345426
-0.00451909
0.000316353
-0.00462161
0.000285552
-0.00473066
0.000253185
-0.00484699
0.000219353
-0.00497098
0.00018414
-0.0051026
0.000147537
-0.00524124
0.000109132
-0.00538539
-0.00553369
6.83878e-05
2.85061e-05
-0.000433018
9.26701e-05
-0.00124187
0.000172099
-0.00199081
0.000248383
-0.00263439
0.000308779
-0.0031451
0.000347599
-0.00352239
0.000365048
-0.00378716
0.000364806
-0.00397015
0.000351649
-0.00410176
0.000329864
-0.00420606
0.000302562
-0.00429925
0.000271674
-0.00439081
0.000238235
-0.00448566
0.000202743
-0.00458612
0.000165419
-0.00469333
0.00012638
-0.00480795
8.56676e-05
-0.00493027
4.34077e-05
-0.00506034
-2.89196e-07
-0.00519754
-4.54618e-05
-0.00534022
-0.00548496
-9.41974e-05
2.74277e-05
-0.000460446
8.73005e-05
-0.00130174
0.000158819
-0.00206233
0.00022428
-0.00269985
0.000272361
-0.00319318
0.000298846
-0.00354888
0.000304967
-0.00379328
0.000294832
-0.00396002
0.000273162
-0.00408009
0.000243916
-0.00417681
0.000209818
-0.00426515
0.000172466
-0.00435346
0.000132669
-0.00444586
9.0782e-05
-0.00454423
4.69303e-05
-0.00464948
1.16394e-06
-0.00476219
-4.63572e-05
-0.00488275
-9.56208e-05
-0.00501107
-0.000146579
-0.00514659
-0.000199503
-0.0052873
-0.00543114
-0.00025332
2.60712e-05
-0.000486517
8.11252e-05
-0.0013568
0.000144289
-0.00212549
0.000198802
-0.00275436
0.000234824
-0.0032292
0.000249502
-0.00356356
0.000244929
-0.00378871
0.000225495
-0.00394058
0.000195776
-0.00405037
0.000159386
-0.00414042
0.000118682
-0.00422445
7.49667e-05
-0.00430975
2.88561e-05
-0.00439975
-1.93951e-05
-0.00449598
-6.97047e-05
-0.00459917
-0.000122064
-0.00470983
-0.000176472
-0.00482834
-0.000232797
-0.00495475
-0.000291007
-0.00508838
-0.000350994
-0.00522731
-0.00536991
-0.000412224
2.44557e-05
-0.000510973
7.42367e-05
-0.00140658
0.000128713
-0.00217997
0.000172266
-0.00279791
0.000196547
-0.00325348
0.000199956
-0.00356697
0.000185284
-0.00377403
0.000157078
-0.00391238
0.000119711
-0.00401301
7.64494e-05
-0.00409716
2.92787e-05
-0.00417727
-2.07078e-05
-0.00425976
-7.30403e-05
-0.00434742
-0.000127592
-0.00444143
-0.000184356
-0.00454241
-0.000243345
-0.00465084
-0.000304561
-0.00476713
-0.000367919
-0.00489139
-0.000433293
-0.005023
-0.000500502
-0.0051601
-0.00530101
-0.000569399
2.26037e-05
-0.000533577
6.67307e-05
-0.0014507
0.00011229
-0.00222553
0.000144961
-0.00283058
0.000157869
-0.00326639
0.000150541
-0.00355964
0.000126322
-0.00374982
8.98159e-05
-0.00387587
4.51364e-05
-0.00396833
-4.8191e-06
-0.00404721
-5.82488e-05
-0.00412384
-0.000114392
-0.00420362
-0.000172914
-0.00428889
-0.000233728
-0.00438061
-0.000296875
-0.00447926
-0.000362425
-0.00458529
-0.000430404
-0.00469915
-0.000500749
-0.00482105
-0.000573297
-0.00495045
-0.000647852
-0.00508555
-0.00522452
-0.000724342
2.05401e-05
-0.000554117
5.87041e-05
-0.00148887
9.52105e-05
-0.00226204
0.000117152
-0.00285253
0.000119087
-0.00326832
0.000101536
-0.00354209
6.82819e-05
-0.00371656
2.38981e-05
-0.00383149
-2.77753e-05
-0.00391665
-8.41341e-05
-0.00399085
-0.000143785
-0.00406419
-0.00020603
-0.00414137
-0.000270656
-0.00422427
-0.000337652
-0.00431362
-0.000407104
-0.00440981
-0.000479127
-0.00451327
-0.000553794
-0.00462448
-0.000631065
-0.00474378
-0.000710763
-0.00487076
-0.000792661
-0.00500365
-0.00514051
-0.00087667
1.82927e-05
-0.000572409
5.02531e-05
-0.00152083
7.76532e-05
-0.00228944
8.90786e-05
-0.00286395
8.04527e-05
-0.0032597
5.31707e-05
-0.0035148
1.137e-05
-0.00367476
-4.05188e-05
-0.0037796
-9.89208e-05
-0.00385825
-0.000161568
-0.0039282
-0.000227268
-0.00399849
-0.000295509
-0.00407313
-0.000366152
-0.00415363
-0.000439238
-0.00424053
-0.000514894
-0.00433415
-0.000593282
-0.00443488
-0.000674527
-0.00454323
-0.000758637
-0.00465967
-0.000845437
-0.00478396
-0.000934639
-0.00491445
-0.00504906
-0.00102609
1.5894e-05
-0.000588303
4.14734e-05
-0.00154641
5.97882e-05
-0.00230775
6.09558e-05
-0.00286512
4.21785e-05
-0.00324092
5.75423e-06
-0.00347838
-4.42501e-05
-0.00362476
-0.000103321
-0.00372053
-0.000168219
-0.00379335
-0.000236976
-0.00385944
-0.000308609
-0.00392686
-0.00038274
-0.003999
-0.0004593
-0.00407707
-0.000538368
-0.00416146
-0.000620106
-0.00425242
-0.00070472
-0.00435027
-0.000792401
-0.00445555
-0.000883224
-0.00456884
-0.00097704
-0.00469014
-0.00107349
-0.004818
-0.00495025
-0.00117229
1.33833e-05
-0.000601687
3.2461e-05
-0.00156549
4.17713e-05
-0.00231706
3.29727e-05
-0.00285632
4.71971e-06
-0.00321267
-4.07736e-05
-0.00343289
-9.84982e-05
-0.00356703
-0.000164421
-0.00365461
-0.000235589
-0.00372218
-0.000310293
-0.00378474
-0.000387734
-0.00384942
-0.000467643
-0.00391909
-0.000550006
-0.0039947
-0.000634932
-0.00407654
-0.000722609
-0.00416474
-0.000813284
-0.00425959
-0.000907218
-0.00436162
-0.00100458
-0.00447148
-0.00110528
-0.00458944
-0.00120888
-0.0047144
-0.00484423
-0.0013149
1.07724e-05
-0.000612459
2.32978e-05
-0.00157801
2.37447e-05
-0.00231751
5.56813e-06
-0.00283814
-3.24781e-05
-0.00317462
-8.61829e-05
-0.00337918
-0.000151253
-0.00350196
-0.00022374
-0.00358212
-0.000300965
-0.00364496
-0.000381458
-0.00370425
-0.000464579
-0.0037663
-0.000550145
-0.00383352
-0.000638187
-0.00390666
-0.000728834
-0.00398589
-0.000822291
-0.00407128
-0.000918836
-0.00416305
-0.0010188
-0.00426166
-0.00112245
-0.00436783
-0.00122982
-0.00448207
-0.00134042
-0.00460381
-0.00473111
-0.00145354
8.08187e-06
-0.000620541
1.40632e-05
-0.00158399
5.99107e-06
-0.00230944
-2.20415e-05
-0.00281011
-6.87187e-05
-0.00312794
-0.000130355
-0.00331755
-0.000202428
-0.00342989
-0.000281213
-0.00350333