/*--------------------------------*- C++ -*----------------------------------*\
  =========                 |
  \\      /  F ield         | OpenFOAM: The Open Source CFD Toolbox
   \\    /   O peration     | Website:  https://openfoam.org
    \\  /    A nd           | Version:  7
     \\/     M anipulation  |
\*---------------------------------------------------------------------------*/
FoamFile
{
    version     2.0;
    format      ascii;
    class       volVectorField;
    location    "60";
    object      U;
}
// * * * * * * * * * * * * * * * * * * * * * * * * * * * * * * * * * * * * * //

dimensions      [0 1 -1 0 0 0 0];

internalField   nonuniform List<vector> 
8820
(
(-0.000763205 -0.00496429 -7.19607e-22)
(-0.00441404 -0.0181379 -1.58808e-20)
(-0.011588 -0.0328779 -7.38856e-21)
(-0.0207129 -0.0476782 -3.18934e-21)
(-0.0310463 -0.0616069 9.88328e-22)
(-0.0421074 -0.0742701 -5.8251e-21)
(-0.053467 -0.0856952 -1.25225e-20)
(-0.0647573 -0.0961928 -7.61744e-21)
(-0.0756599 -0.106213 1.75666e-20)
(-0.0858868 -0.116215 -3.13477e-21)
(-0.0951692 -0.126574 4.98877e-21)
(-0.103248 -0.137523 7.20429e-21)
(-0.109866 -0.149131 -1.03354e-20)
(-0.11477 -0.161306 -1.16523e-20)
(-0.117708 -0.173823 5.3892e-21)
(-0.118443 -0.186355 2.88387e-21)
(-0.116796 -0.198542 7.00324e-22)
(-0.112751 -0.210097 1.93597e-20)
(-0.106283 -0.220925 -6.09269e-21)
(-0.0964457 -0.231188 -3.96441e-20)
(-0.0838028 -0.241821 2.87803e-22)
(-0.00077459 -0.00278697 2.1591e-20)
(-0.00444208 -0.0128721 -2.35056e-20)
(-0.0118172 -0.0254583 4.55303e-21)
(-0.0212519 -0.0387915 2.54051e-20)
(-0.0319803 -0.0517849 -1.04554e-20)
(-0.0435073 -0.0639375 -1.27169e-20)
(-0.0553877 -0.0752011 -1.98189e-20)
(-0.0672412 -0.0858355 1.90806e-20)
(-0.0787421 -0.0962579 2.80137e-20)
(-0.0896002 -0.106911 -2.25921e-20)
(-0.0995469 -0.118163 -2.72587e-20)
(-0.108323 -0.130252 -4.32459e-20)
(-0.115669 -0.143257 -1.94083e-20)
(-0.121315 -0.157098 -3.71704e-20)
(-0.124987 -0.171544 1.90696e-20)
(-0.126413 -0.186249 -2.9195e-21)
(-0.125376 -0.200793 -1.41578e-20)
(-0.121824 -0.214789 -1.52617e-21)
(-0.115667 -0.227983 -3.87241e-20)
(-0.106038 -0.240355 -2.33622e-20)
(-0.0940179 -0.252784 2.42227e-20)
(-0.00094086 -0.000463597 6.29786e-20)
(-0.00478496 -0.00725332 -1.38736e-20)
(-0.0123718 -0.0175473 4.96649e-20)
(-0.0220343 -0.0293262 3.36412e-20)
(-0.0330092 -0.0413329 3.39345e-20)
(-0.0448035 -0.0529448 1.53642e-20)
(-0.0569673 -0.0640241 -2.52803e-20)
(-0.0691163 -0.0747677 4.37444e-20)
(-0.080924 -0.0855529 6.60466e-20)
(-0.0921035 -0.0968012 3.49088e-20)
(-0.102392 -0.108878 -5.20027e-20)
(-0.111538 -0.122033 8.72402e-20)
(-0.11928 -0.136366 -7.43495e-21)
(-0.125345 -0.151821 -1.59344e-19)
(-0.129439 -0.168185 -1.08142e-19)
(-0.131256 -0.1851 5.90597e-20)
(-0.13054 -0.202097 -3.23591e-20)
(-0.127184 -0.218676 -7.48287e-20)
(-0.12104 -0.23439 1.21397e-19)
(-0.111337 -0.248988 -5.21018e-20)
(-0.0994862 -0.26321 -6.01212e-20)
(-0.00126751 0.00193962 -1.96213e-20)
(-0.00544885 -0.00142663 1.32136e-19)
(-0.0132457 -0.00933194 -1.75996e-20)
(-0.0230347 -0.019489 -1.77757e-19)
(-0.0340848 -0.0304639 -1.83579e-20)
(-0.0459212 -0.0415021 -1.6502e-19)
(-0.0581015 -0.0523648 8.51373e-20)
(-0.0702449 -0.0631762 1.59613e-19)
(-0.0820296 -0.0742655 -1.45316e-19)
(-0.0931759 -0.0860296 -1.93234e-19)
(-0.103432 -0.098831 1.09994e-19)
(-0.112554 -0.112935 -1.03656e-19)
(-0.120293 -0.128474 1.26238e-19)
(-0.126375 -0.145433 1.78405e-19)
(-0.130497 -0.163633 3.45814e-20)
(-0.13233 -0.18273 -1.39121e-20)
(-0.131577 -0.20222 -1.34178e-19)
(-0.128073 -0.22149 -2.75348e-20)
(-0.121609 -0.239881 -3.00001e-20)
(-0.111501 -0.256854 -7.80096e-21)
(-0.0993514 -0.272909 -1.70292e-20)
(-0.00175129 0.00435036 -8.75856e-20)
(-0.00642358 0.00445003 -1.28384e-19)
(-0.0144168 -0.00101446 7.61503e-20)
(-0.0242155 -0.0095026 -1.01482e-19)
(-0.0351507 -0.0194067 1.1469e-19)
(-0.0467823 -0.0298358 5.93005e-20)
(-0.058686 -0.0404423 1.22904e-19)
(-0.0704915 -0.0512688 -9.90412e-21)
(-0.0818847 -0.0625891 -1.22637e-19)
(-0.0925948 -0.0747698 6.71887e-20)
(-0.102381 -0.0881684 1.43641e-20)
(-0.111014 -0.103068 2.58505e-20)
(-0.118257 -0.119642 -3.90394e-20)
(-0.123848 -0.137926 -3.80755e-20)
(-0.127486 -0.157798 2.30289e-20)
(-0.128833 -0.178953 -4.61896e-20)
(-0.127565 -0.200883 -7.8001e-21)
(-0.123463 -0.222882 7.55862e-20)
(-0.116259 -0.244076 3.82519e-20)
(-0.105333 -0.263589 -4.7071e-20)
(-0.0923625 -0.281555 1.38016e-19)
(-0.00237986 0.00669399 1.83112e-20)
(-0.00768251 0.0102133 4.02646e-19)
(-0.0158471 0.00719506 -2.6749e-20)
(-0.0255277 0.000400571 2.65712e-19)
(-0.0361451 -0.00840139 6.89793e-20)
(-0.0473087 -0.0181856 -6.96703e-20)
(-0.0586222 -0.0284921 -4.97799e-20)
(-0.0697301 -0.0392752 9.28427e-20)
(-0.0803272 -0.0507457 -3.13885e-20)
(-0.0901505 -0.0632334 2.9481e-19)
(-0.0989682 -0.0770857 -9.70667e-20)
(-0.106564 -0.092602 3.73779e-19)
(-0.112716 -0.109995 5.2031e-21)
(-0.117179 -0.129361 1.61102e-20)
(-0.11967 -0.15065 -1.56322e-19)
(-0.119861 -0.173624 -9.92685e-20)
(-0.117422 -0.197808 1.92147e-19)
(-0.1121 -0.22245 -1.69553e-19)
(-0.103588 -0.246486 -1.46055e-19)
(-0.0912942 -0.268683 -1.86355e-20)
(-0.076872 -0.288667 4.20742e-20)
(-0.00313244 0.00889784 9.24672e-20)
(-0.00918335 0.0157022 -1.30098e-19)
(-0.0174845 0.0150873 -7.22221e-20)
(-0.0269131 0.00998666 -2.72441e-19)
(-0.0370031 0.00230742 -9.09366e-20)
(-0.0474261 -0.0067996 2.88668e-19)
(-0.0578216 -0.0167628 5.3824e-20)
(-0.0678516 -0.0274445 1.23012e-19)
(-0.0772186 -0.0389859 -1.19724e-19)
(-0.0856631 -0.0516721 5.36456e-20)
(-0.0929573 -0.0658326 4.54328e-20)
(-0.0988912 -0.0817757 -1.50392e-19)
(-0.103256 -0.0997481 2.54867e-19)
(-0.105825 -0.119905 -3.95105e-20)
(-0.106343 -0.142274 2.64808e-19)
(-0.104513 -0.166705 1.09246e-19)
(-0.100026 -0.192798 -8.80144e-20)
(-0.0926352 -0.219814 -9.27635e-20)
(-0.0820362 -0.246571 -5.13114e-20)
(-0.0676468 -0.271508 -9.03713e-20)
(-0.0509676 -0.293631 9.3999e-20)
(-0.0039807 0.0108952 6.32497e-20)
(-0.0108706 0.0207658 9.66878e-20)
(-0.0192653 0.0224621 9.34866e-20)
(-0.0283063 0.019028 -1.51129e-20)
(-0.0376591 0.0124775 3.55678e-19)
(-0.0470665 0.00407177 -2.08244e-19)
(-0.0562096 -0.0055114 2.46471e-19)
(-0.0647694 -0.016041 -3.29195e-19)
(-0.0724527 -0.0275838 2.08567e-21)
(-0.0789974 -0.0403732 -1.74704e-19)
(-0.084171 -0.0547108 -2.15958e-20)
(-0.087761 -0.0709025 -4.49755e-20)
(-0.0895624 -0.0892169 -3.49755e-19)
(-0.0893647 -0.109855 9.0764e-20)
(-0.0869412 -0.132917 7.63052e-20)
(-0.0820422 -0.158343 2.02828e-19)
(-0.074414 -0.185835 -6.64786e-20)
(-0.0638581 -0.214734 2.79877e-20)
(-0.0501528 -0.243841 7.44748e-20)
(-0.0327519 -0.271384 -1.86407e-19)
(-0.0127783 -0.295711 -6.50236e-20)
(-0.004891 0.0126295 -1.7031e-19)
(-0.0126783 0.0252708 1.61362e-19)
(-0.0211165 0.0291373 -1.57679e-19)
(-0.0296376 0.0273117 -6.81911e-20)
(-0.0380487 0.0218767 4.25509e-21)
(-0.0461698 0.0141833 -2.37904e-20)
(-0.0537271 0.00500545 -2.20773e-19)
(-0.060421 -0.00533504 -5.11267e-19)
(-0.0659592 -0.016828 -1.51308e-19)
(-0.0700694 -0.0296485 -2.33863e-20)
(-0.0725045 -0.044061 -4.72049e-21)
(-0.0730382 -0.0603552 3.9313e-19)
(-0.0714578 -0.0788051 -1.71197e-20)
(-0.0675578 -0.0996381 5.28991e-21)
(-0.0611381 -0.123001 2.75282e-20)
(-0.0520022 -0.148913 8.13708e-20)
(-0.0399734 -0.177176 -3.50806e-20)
(-0.024952 -0.207246 -1.51177e-19)
(-0.00690453 -0.238022 -1.29219e-19)
(0.0145446 -0.267665 4.43733e-19)
(0.0390482 -0.293861 -2.50528e-21)
(-0.00582647 0.0140572 1.73817e-19)
(-0.0145341 0.0291083 1.31546e-20)
(-0.0229597 0.0349561 -4.18398e-19)
(-0.0308339 0.0346473 -1.21722e-19)
(-0.0381084 0.0302911 2.38439e-19)
(-0.0446822 0.0233036 -2.72297e-19)
(-0.0503281 0.0145405 1.20387e-19)
(-0.0547653 0.00440804 4.69056e-19)
(-0.0576993 -0.00700642 2.21177e-19)
(-0.0588417 -0.0198153 2.05414e-19)
(-0.057921 -0.0342382 -9.52266e-20)
(-0.0546868 -0.0505357 3.29324e-20)
(-0.0489062 -0.0689694 -2.14686e-19)
(-0.0403672 -0.0897683 2.86984e-19)
(-0.0288881 -0.113096 5.17959e-21)
(-0.0143218 -0.139014 -4.44676e-20)
(0.00342148 -0.167395 7.76323e-20)
(0.0243155 -0.197804 5.10488e-20)
(0.0481304 -0.229306 -1.04587e-19)
(0.0748521 -0.260077 -1.78819e-19)
(0.105052 -0.286824 -2.88431e-19)
(-0.0067498 0.0151503 -2.72503e-19)
(-0.0163634 0.0321983 4.75241e-19)
(-0.0247137 0.0397935 2.29502e-19)
(-0.0318206 0.040874 -5.68418e-20)
(-0.0377748 0.0375326 -7.1191e-20)
(-0.0425522 0.0312229 -1.61859e-19)
(-0.0459721 0.022865 -9.08968e-20)
(-0.0477717 0.0129403 1.53247e-19)
(-0.0476519 0.00160985 3.30979e-19)
(-0.0453041 -0.0111749 1.54653e-19)
(-0.0404265 -0.0255819 2.14071e-19)
(-0.0327367 -0.0418319 2.0771e-19)
(-0.0219737 -0.0601607 -3.37662e-19)
(-0.00790831 -0.0807748 1.52189e-19)
(0.00962559 -0.103821 -4.81875e-19)
(0.030733 -0.129369 -5.01923e-19)
(0.0554159 -0.157305 -3.91327e-19)
(0.0835083 -0.187271 1.5367e-19)
(0.114556 -0.218492 9.47228e-19)
(0.148286 -0.24914 -2.36202e-19)
(0.185662 -0.275293 2.43568e-19)
(-0.00762574 0.0158972 4.76406e-19)
(-0.0180934 0.0344929 -2.07439e-19)
(-0.0262973 0.0435612 7.04501e-20)
(-0.0325209 0.0458668 3.78161e-19)
(-0.0369809 0.0434458 -3.49615e-19)
(-0.0397239 0.0377615 1.29356e-19)
(-0.0406138 0.029779 -2.12043e-19)
(-0.0394047 0.0200432 -5.15411e-19)
(-0.0357919 0.00878257 7.32992e-19)
(-0.0294441 -0.00398863 -3.39166e-20)
(-0.0200262 -0.0183828 2.04044e-19)
(-0.00722505 -0.0345725 -9.27173e-20)
(0.00925193 -0.0527587 2.03281e-19)
(0.0296545 -0.0731024 -1.15149e-20)
(0.0541323 -0.0957249 2.57131e-19)
(0.0827334 -0.120646 -6.48815e-20)
(0.115369 -0.147727 2.60067e-19)
(0.151709 -0.176629 -4.85097e-19)
(0.191099 -0.206675 -5.08185e-19)
(0.232743 -0.236209 4.35565e-19)
(0.278958 -0.260917 -2.01288e-19)
(-0.00842362 0.0163025 -4.65303e-19)
(-0.0196563 0.0359769 2.90966e-19)
(-0.0276315 0.0462096 -2.31419e-19)
(-0.0328558 0.0495403 1.28242e-19)
(-0.035652 0.0479137 -1.10242e-19)
(-0.0361284 0.0427768 5.13087e-19)
(-0.034189 0.0351203 -4.22625e-20)
(-0.0296033 0.0255387 1.45928e-19)
(-0.0220608 0.0143208 -1.28819e-19)
(-0.0112081 0.0015407 3.36693e-19)
(0.00332398 -0.0128557 -6.75122e-19)
(0.0218779 -0.0289971 -8.21979e-20)
(0.0447641 -0.0470265 -7.23841e-20)
(0.0722376 -0.0670576 3.15055e-19)
(0.104431 -0.0891617 -4.1013e-19)
(0.141316 -0.113281 5.31998e-20)
(0.182666 -0.139226 3.52847e-19)
(0.22796 -0.166609 1.65341e-19)
(0.276366 -0.194754 1.07197e-20)
(0.326103 -0.222384 6.31961e-22)
(0.381965 -0.24408 -2.6916e-19)
(-0.00911896 0.0163859 4.18642e-19)
(-0.0209928 0.0366667 -3.3403e-19)
(-0.0286403 0.047728 2.12726e-19)
(-0.0327412 0.0518507 -6.03581e-20)
(-0.0337 0.0508618 -4.1995e-19)
(-0.0316734 0.0461694 -4.81016e-19)
(-0.0265992 0.0387712 5.44755e-19)
(-0.0182594 0.0292983 -9.02801e-20)
(-0.00633673 0.0180903 6.25838e-19)
(0.00954135 0.00527863 -3.95471e-20)
(0.0297678 -0.00913575 1.84493e-20)
(0.0547156 -0.0252292 2.66084e-19)
(0.0846996 -0.0430797 2.86994e-19)
(0.11995 -0.0627489 4.08097e-19)
(0.160542 -0.0842301 1.74306e-19)
(0.206336 -0.107397 -1.77388e-22)
(0.256913 -0.131972 -6.41102e-20)
(0.311484 -0.157495 1.18628e-19)
(0.369092 -0.183181 3.1761e-19)
(0.426493 -0.20844 -2.45024e-19)
(0.491834 -0.225628 3.03248e-19)
(-0.00969521 0.0161793 -8.31384e-20)
(-0.0220524 0.036605 -5.29905e-19)
(-0.0292503 0.0481423 -2.47432e-19)
(-0.0320853 0.0527964 2.45722e-19)
(-0.0310155 0.0522607 -5.97246e-20)
(-0.0262311 0.0478873 -2.44202e-20)
(-0.0176945 0.0406654 -3.97773e-19)
(-0.00519676 0.0312498 1.06084e-19)
(0.0115878 0.0200226 -5.23558e-19)
(0.0330482 0.007169 -4.55256e-19)
(0.0595937 -0.00725524 -2.86339e-19)
(0.0916048 -0.0232625 -2.98595e-19)
(0.129382 -0.0408736 3.61657e-20)
(0.173092 -0.0600793 2.45613e-19)
(0.222694 -0.0807936 4.89031e-19)
(0.277862 -0.102809 -7.54469e-20)
(0.337908 -0.125758 -3.57665e-19)
(0.401652 -0.149116 -2.99281e-19)
(0.468058 -0.17186 -3.30001e-20)
(0.532093 -0.19453 -1.72674e-19)
(0.605574 -0.206163 6.65105e-20)
(-0.0101433 0.0157219 3.9574e-19)
(-0.0227949 0.0358579 4.37199e-19)
(-0.0293884 0.0475111 2.89664e-19)
(-0.0307833 0.0524156 2.43747e-19)
(-0.0274609 0.0521265 9.75061e-20)
(-0.0196276 0.0479296 4.20474e-19)
(-0.00725944 0.0407931 5.90633e-19)
(0.00984961 0.0313857 -6.78181e-19)
(0.0320327 0.0201259 6.08222e-19)
(0.0596911 0.00724802 -2.76783e-20)
(0.0932361 -0.00713471 -2.63486e-19)
(0.133029 -0.0229697 4.28638e-20)
(0.179311 -0.0402109 3.48565e-19)
(0.232125 -0.0587735 2.4647e-19)
(0.29123 -0.0784908 -3.05342e-19)
(0.356007 -0.0990739 2.95089e-19)
(0.42539 -0.120076 -4.85526e-20)
(0.497688 -0.140961 -4.43696e-21)
(0.571734 -0.160345 7.26179e-20)
(0.640775 -0.180316 1.36802e-19)
(0.719786 -0.185975 -2.22296e-19)
(-0.0104594 0.015059 -8.84015e-19)
(-0.0231859 0.0345066 3.02753e-19)
(-0.0289796 0.0459186 -2.67295e-19)
(-0.0287125 0.0507826 -4.9923e-19)
(-0.0228616 0.0505207 -3.89575e-19)
(-0.0116311 0.0463487 -2.04656e-19)
(0.00500163 0.0392071 -6.19495e-19)
(0.0272462 0.0297707 6.96322e-20)
(0.0554415 0.0184907 3.52979e-19)
(0.0899894 0.00564814 2.76502e-20)
(0.131279 -0.00858447 3.28093e-19)
(0.179608 -0.024087 3.07001e-19)
(0.235089 -0.0407407 3.72204e-19)
(0.297548 -0.0583845 5.85505e-19)
(0.366423 -0.0767766 3.53676e-20)
(0.440668 -0.0955619 -3.14602e-19)
(0.51871 -0.114244 -1.62413e-19)
(0.598279 -0.132338 -7.32233e-19)
(0.677908 -0.148107 -6.03708e-20)
(0.749747 -0.165279 -1.60217e-19)
(0.830524 -0.165272 2.19207e-19)
(-0.0106454 0.0142366 2.4882e-19)
(-0.0231942 0.0326391 3.60173e-19)
(-0.0279401 0.0434686 -2.22932e-19)
(-0.0257254 0.0480035 1.76236e-19)
(-0.0169984 0.0475485 7.27356e-19)
(-0.00194392 0.0432526 2.14513e-19)
(0.0194718 0.0360268 2.89134e-19)
(0.0474669 0.0265497 2.83409e-19)
(0.0823796 0.015301 -6.17169e-19)
(0.124588 0.00260913 5.20431e-20)
(0.174417 -0.0112923 6.4875e-20)
(0.232027 -0.0262139 5.84253e-19)
(0.297302 -0.041965 -5.4527e-19)
(0.369717 -0.058315 8.83785e-20)
(0.448235 -0.0749658 -4.25369e-19)
(0.531239 -0.091528 2.5147e-19)
(0.616524 -0.107516 2.27812e-19)
(0.701283 -0.122522 -3.13074e-20)
(0.783507 -0.134727 -3.03376e-19)
(0.855452 -0.148987 -2.20684e-19)
(0.933466 -0.144397 7.53593e-20)
(-0.010705 0.0132967 -1.40264e-19)
(-0.0227865 0.0303443 4.61411e-20)
(-0.0261715 0.0402766 -9.59955e-20)
(-0.0216434 0.0442101 -3.43708e-19)
(-0.00960156 0.0433553 -6.93512e-20)
(0.00980314 0.0388044 2.57135e-19)
(0.0366251 0.0314421 3.87233e-19)
(0.0710887 0.021951 -7.30814e-20)
(0.113514 0.0108391 4.85706e-20)
(0.164216 -0.00151619 5.18731e-19)
(0.223379 -0.0148206 -5.03337e-19)
(0.290922 -0.0288191 -1.60619e-19)
(0.366353 -0.0432582 1.18295e-19)
(0.448634 -0.0578584 -6.20064e-20)
(0.536085 -0.0722997 3.82446e-19)
(0.626389 -0.0862076 -1.10961e-19)
(0.716646 -0.0991921 4.50828e-20)
(0.80367 -0.110889 3.45298e-19)
(0.884753 -0.119969 3.76e-19)
(0.953815 -0.131112 8.42415e-20)
(1.0243 -0.123756 1.30379e-19)
(-0.0106399 0.0122745 -5.35539e-20)
(-0.021921 0.0277051 -3.69761e-19)
(-0.0235549 0.0364627 -1.30898e-19)
(-0.0162513 0.0395536 -5.5783e-20)
(-0.00034814 0.0381224 1.42947e-19)
(0.0240484 0.0332194 -2.04965e-19)
(0.0570144 0.0257115 -2.79379e-19)
(0.0987683 0.0162882 -6.36464e-19)
(0.149574 0.0054883 1.87707e-19)
(0.209611 -0.00626323 -7.22521e-19)
(0.278816 -0.0186167 5.83005e-19)
(0.356716 -0.0312636 -8.53393e-20)
(0.442267 -0.0439113 -6.62978e-21)
(0.533733 -0.0562688 -2.20612e-19)
(0.628658 -0.0680464 -7.70795e-19)
(0.72397 -0.0789446 4.05714e-19)
(0.816149 -0.0887504 2.17656e-20)
(0.901851 -0.0970836 -1.54385e-20)
(0.977783 -0.103753 2.82405e-19)
(1.04087 -0.111186 1.25339e-19)
(1.09916 -0.103759 3.35188e-19)
(-0.0104463 0.0111964 -3.29714e-20)
(-0.0205407 0.0247933 -1.01331e-19)
(-0.0199446 0.0321453 -4.62356e-19)
(-0.00929553 0.0341986 -9.30845e-19)
(0.0111351 0.0320619 2.8504e-19)
(0.0412868 0.0267634 3.76048e-19)
(0.0812479 0.0191616 6.80445e-20)
(0.131196 0.00995865 4.98116e-19)
(0.191273 -0.000274426 -3.96968e-19)
(0.261413 -0.0110708 -6.19596e-19)
(0.341153 -0.02204 -7.26344e-19)
(0.429441 -0.0328471 1.21709e-19)
(0.524489 -0.0432024 3.53438e-19)
(0.623717 -0.0528599 -2.5425e-19)
(0.723838 -0.061624 3.34344e-19)
(0.821117 -0.0693314 -3.11179e-19)
(0.911681 -0.0759769 1.90219e-19)
(0.992304 -0.0811793 2.63499e-20)
(1.05967 -0.0860449 1.4797e-19)
(1.11388 -0.0887549 -5.52009e-19)
(1.1554 -0.0862588 -4.65205e-19)
(-0.0101112 0.0100783 -1.66225e-19)
(-0.0185676 0.0216669 -4.87587e-19)
(-0.0151648 0.0274371 7.302e-20)
(-0.000483878 0.0283176 8.3042e-20)
(0.0252635 0.0254112 1.88304e-19)
(0.0620507 0.0197429 7.91597e-19)
(0.109948 0.012175 -3.41553e-19)
(0.169031 0.00342817 1.7602e-19)
(0.239212 -0.00589901 3.36733e-19)
(0.320029 -0.0153126 -1.20949e-19)
(0.410426 -0.0244105 3.41927e-19)
(0.508568 -0.0328776 -7.37075e-19)
(0.61176 -0.0404886 4.27567e-19)
(0.716518 -0.0471117 2.94576e-20)
(0.818818 -0.0527091 -2.97364e-19)
(0.914537 -0.0572998 -1.25663e-19)
(0.99989 -0.0610543 1.45383e-19)
(1.07215 -0.0637032 -5.32449e-19)
(1.12897 -0.0668364 4.36452e-19)
(1.17224 -0.0651561 -5.70257e-19)
(1.19395 -0.0760765 -3.47171e-20)
(-0.00960965 0.00892629 6.81323e-19)
(-0.0158994 0.0183695 5.22391e-20)
(-0.00900868 0.0224424 -2.18144e-20)
(0.010507 0.0220864 -5.01999e-19)
(0.0424763 0.0184242 -2.2827e-19)
(0.086876 0.0124963 -3.71701e-19)
(0.1437 0.00517928 3.29787e-20)
(0.212821 -0.00278839 4.49598e-19)
(0.293772 -0.0107931 -1.16395e-19)
(0.3855 -0.0183434 1.66092e-20)
(0.486141 -0.0250736 -3.9143e-19)
(0.592901 -0.0307541 -6.50582e-19)
(0.7021 -0.0352983 1.40795e-19)
(0.809432 -0.0387567 -4.75711e-19)
(0.91042 -0.0412933 4.1981e-19)
(1.00098 -0.0431168 3.92128e-19)
(1.07793 -0.0445163 3.35705e-19)
(1.13949 -0.0453912 -1.95073e-20)
(1.18493 -0.0467857 -2.4646e-20)
(1.21578 -0.045034 5.57029e-19)
(1.2309 -0.0521358 -6.92002e-20)
(-0.00890323 0.00773817 -2.23133e-19)
(-0.0124078 0.0149326 -7.18046e-19)
(-0.00124233 0.0172577 -2.20656e-19)
(0.0240202 0.0156825 -1.35685e-19)
(0.0632125 0.011368 5.23114e-19)
(0.116259 0.00538485 -1.65034e-19)
(0.182983 -0.00137165 7.28025e-19)
(0.262909 -0.00815464 -7.49122e-20)
(0.354998 -0.0143629 -1.88111e-19)
(0.457385 -0.0195557 8.98109e-20)
(0.567201 -0.023472 6.03133e-19)
(0.680591 -0.0260459 -4.99909e-20)
(0.792954 -0.0274022 1.01446e-18)
(0.899435 -0.0278198 6.26716e-19)
(0.995546 -0.0276676 3.66216e-19)
(1.07777 -0.0273012 2.10032e-19)
(1.14397 -0.027059 3.43976e-19)
(1.19366 -0.0268629 1.55164e-19)
(1.22742 -0.0275141 -2.95612e-19)
(1.24783 -0.0259419 4.89952e-19)
(1.25553 -0.0323059 4.40374e-19)
(-0.0079399 0.00650645 -4.70803e-19)
(-0.00794059 0.0113802 5.3018e-19)
(0.00838882 0.0119755 3.55105e-19)
(0.040403 0.0092847 -2.92928e-19)
(0.0878823 0.00451698 2.83225e-19)
(0.150611 -0.00121935 -1.12839e-19)
(0.228105 -0.00701665 -3.89414e-19)
(0.319355 -0.0121436 6.20353e-19)
(0.422522 -0.0160578 -1.95068e-19)
(0.534712 -0.0184377 1.67959e-19)
(0.651923 -0.0192094 4.66826e-19)
(0.76927 -0.0185485 3.28652e-19)
(0.881484 -0.0168405 -4.49337e-19)
(0.983602 -0.0145964 -3.27316e-19)
(1.07165 -0.0123417 6.29418e-20)
(1.14318 -0.0104951 1.58376e-19)
(1.19739 -0.00934488 -3.35555e-19)
(1.23514 -0.00876953 1.578e-19)
(1.25819 -0.00926528 1.20059e-19)
(1.26972 -0.00825452 -3.26653e-19)
(1.2708 -0.013954 4.42438e-19)
(-0.00665538 0.00522218 2.89916e-19)
(-0.0023264 0.00773566 3.29266e-19)
(0.020149 0.00668926 1.9278e-19)
(0.0599874 0.00307594 2.42889e-19)
(0.116835 -0.00184825 -3.40292e-19)
(0.190212 -0.00694203 -3.54065e-19)
(0.279149 -0.0113062 6.44611e-20)
(0.381874 -0.0142684 -2.22877e-19)
(0.49552 -0.0154127 -7.18236e-20)
(0.615999 -0.0146223 4.89159e-19)
(0.738165 -0.012094 -5.69878e-19)
(0.856317 -0.00830135 2.24545e-19)
(0.964944 -0.00389745 -3.00714e-19)
(1.05952 0.000425024 -5.05176e-19)
(1.1371 0.00407582 5.98826e-19)
(1.1966 0.00667929 2.73292e-19)
(1.23869 0.00808365 -8.95594e-20)
(1.26535 0.00851531 -1.79095e-20)
(1.27923 0.0077716 9.23384e-20)
(1.28366 0.00802355 -2.23212e-19)
(1.28041 0.00265351 -9.61892e-20)
(-0.00497598 0.00387908 -2.7137e-20)
(0.00461793 0.00402924 -1.52216e-19)
(0.0342991 0.00150135 6.35015e-19)
(0.0830685 -0.00275136 2.23522e-19)
(0.150328 -0.00744142 -7.92011e-21)
(0.235172 -0.0114143 -7.67322e-20)
(0.335926 -0.0138196 2.24154e-19)
(0.449813 -0.01411 1.60698e-19)
(0.572739 -0.0120835 -5.38403e-19)
(0.699359 -0.0079184 -2.11613e-19)
(0.823544 -0.00214924 -5.24664e-19)
(0.939171 0.00443762 -7.6637e-19)
(1.04103 0.0109698 7.60226e-19)
(1.12556 0.01667 -7.06085e-19)
(1.19123 0.0209973 -3.83309e-19)
(1.23845 0.0237175 2.23253e-19)
(1.26916 0.0248717 -3.0555e-20)
(1.28621 0.0248153 -2.60692e-19)
(1.29269 0.0235958 1.02564e-19)
(1.29189 0.0230612 2.08585e-21)
(1.28541 0.017781 1.19566e-19)
(-0.00282213 0.00247753 -3.96951e-19)
(0.0130785 0.000305779 -9.22547e-20)
(0.0510825 -0.00346872 -2.46303e-19)
(0.109884 -0.00798972 9.63008e-20)
(0.188501 -0.0119694 4.27989e-19)
(0.285399 -0.0142791 1.58633e-19)
(0.397955 -0.014181 1.63868e-19)
(0.52216 -0.011341 -7.62745e-19)
(0.652569 -0.00586907 1.57872e-19)
(0.782673 0.00168053 1.22946e-19)
(0.9057 0.0104075 -3.0909e-19)
(1.01563 0.0192531 1.183e-19)
(1.10813 0.0272241 4.51888e-19)
(1.18102 0.0335815 1.50433e-19)
(1.23434 0.0379418 5.89509e-19)
(1.26987 0.0402801 3.6627e-19)
(1.29055 0.0408464 -7.87573e-20)
(1.29971 0.0401151 4.58897e-19)
(1.30056 0.038332 -7.84915e-20)
(1.29604 0.0370121 -1.14535e-20)
(1.28769 0.0317856 -7.02272e-20)
(-0.000112494 0.00102776 5.65313e-20)
(0.0232347 -0.00336862 2.84205e-19)
(0.0707098 -0.00807728 -1.07865e-19)
(0.140595 -0.0124114 -2.02386e-19)
(0.231351 -0.0151324 3.34296e-20)
(0.340582 -0.0151988 2.18902e-19)
(0.464471 -0.0120738 -8.3193e-20)
(0.597599 -0.00574176 2.0797e-20)
(0.733179 0.00327945 -1.72069e-19)
(0.863802 0.0140118 1.9167e-20)
(0.982549 0.0252143 1.66695e-19)
(1.08409 0.0356507 -4.01002e-19)
(1.16542 0.0443374 -1.08289e-19)
(1.226 0.0506947 1.78878e-19)
(1.26736 0.0545751 -7.35422e-19)
(1.29241 0.0561899 -5.34135e-20)
(1.30469 0.0559793 2.28752e-19)
(1.30769 0.054506 -2.431e-20)
(1.30445 0.0521455 2.25566e-19)
(1.29746 0.0501077 5.27924e-20)
(1.28799 0.0449031 -3.56221e-20)
(0.00323221 -0.000447937 -8.25179e-20)
(0.035249 -0.00690188 5.57328e-20)
(0.0933448 -0.0121515 3.03446e-19)
(0.175266 -0.0157664 2.56425e-19)
(0.278716 -0.0166264 -2.13719e-19)
(0.40019 -0.0138645 -1.87005e-19)
(0.534454 -0.00725462 3.17017e-19)
(0.674601 0.00278875 -1.36641e-19)
(0.812671 0.0152667 -9.85934e-20)
(0.940789 0.0287791 4.45642e-20)
(1.05247 0.0418277 1.04792e-19)
(1.1436 0.0531332 -4.75594e-19)
(1.21283 0.0618567 -1.75897e-19)
(1.26124 0.0676729 -8.79115e-20)
(1.29164 0.0707086 -3.56677e-19)
(1.30773 0.071401 3.48333e-19)
(1.31328 0.0703377 6.35335e-20)
(1.31167 0.068129 2.56019e-19)
(1.30559 0.065221 -6.28575e-20)
(1.29703 0.062532 7.3265e-20)
(1.28705 0.0573609 -1.88833e-19)
(0.00728536 -0.00191407 4.31654e-19)
(0.0492576 -0.0101738 1.03589e-20)
(0.11909 -0.0154882 -2.32571e-19)
(0.213854 -0.0177836 1.62807e-19)
(0.33027 -0.016151 -4.06958e-19)
(0.463481 -0.0100084 7.25611e-20)
(0.606681 0.000434545 -8.82021e-20)
(0.751532 0.0142326 7.02436e-19)
(0.889242 0.0298751 4.73277e-19)
(1.01202 0.0456011 3.91589e-19)
(1.1144 0.0597865 5.8101e-20)
(1.19388 0.0712582 3.37004e-19)
(1.25084 0.0794375 1.90724e-19)
(1.28785 0.0843094 -1.17528e-19)
(1.30867 0.0862738 -6.94191e-20)
(1.31738 0.0859562 -1.98304e-19)
(1.31775 0.0840385 1.27639e-19)
(1.31282 0.0811393 2.74603e-19)
(1.30485 0.0777236 6.22549e-20)
(1.29538 0.0744523 1.22556e-19)
(1.2852 0.0693118 1.4579e-19)
(0.0121111 -0.00332195 -4.62672e-19)
(0.0653609 -0.0130366 3.571e-19)
(0.147975 -0.0178562 -1.51002e-19)
(0.256192 -0.0181786 -6.52991e-20)
(0.385517 -0.0134208 -7.5306e-20)
(0.529531 -0.00341817 -1.03835e-19)
(0.679801 0.011058 -2.22903e-19)
(0.826779 0.0284619 -1.17246e-19)
(0.961327 0.0467978 -1.40603e-19)
(1.07635 0.0640615 -9.02203e-21)
(1.16785 0.0786624 -6.93246e-20)
(1.23517 0.0896715 4.25087e-19)
(1.28035 0.0968501 7.84361e-20)
(1.30712 0.100508 1.26093e-19)
(1.31985 0.101287 3.64076e-19)
(1.32272 0.0999482 -2.71918e-19)
(1.31922 0.0972142 -2.37525e-20)
(1.31198 0.0936802 -2.88488e-19)
(1.30282 0.0897928 -2.69146e-19)
(1.29285 0.0859922 -1.55512e-19)
(1.28268 0.080873 -1.98072e-19)
(0.0177613 -0.00461059 1.75796e-19)
(0.0836158 -0.0153181 -5.196e-20)
(0.179946 -0.0190031 2.89835e-20)
(0.301987 -0.016664 -5.4987e-20)
(0.443806 -0.00818094 1.47799e-19)
(0.597275 0.00604961 8.0244e-20)
(0.752419 0.0245849 -4.72544e-19)
(0.898858 0.0452582 2.42234e-19)
(1.02769 0.0656773 -8.3132e-20)
(1.13306 0.0837541 8.04402e-19)
(1.21281 0.0980926 -3.45722e-19)
(1.2681 0.108117 4.4216e-20)
(1.30242 0.113966 2.78524e-19)
(1.32034 0.116256 -1.88087e-19)
(1.32647 0.115816 -2.69505e-19)
(1.32483 0.113488 1.68245e-19)
(1.31853 0.10999 5.29152e-21)
(1.30974 0.105872 -1.0347e-19)
(1.29987 0.101536 -4.03209e-19)
(1.28968 0.097245 3.81062e-21)
(1.2796 0.0921217 -1.58942e-19)
(0.0242725 -0.0057082 4.51422e-20)
(0.104028 -0.0168268 -4.51247e-20)
(0.214856 -0.0186652 3.63117e-19)
(0.350818 -0.0129645 -1.60387e-20)
(0.504348 -0.000222697 -2.61136e-19)
(0.665567 0.01846 1.29544e-19)
(0.823188 0.0408955 -4.80819e-20)
(0.966511 0.0643378 -1.19182e-19)
(1.08748 0.0861416 1.96228e-19)
(1.18192 0.104314 -3.09065e-19)
(1.24965 0.117794 -2.54859e-19)
(1.29354 0.12643 2.1048e-20)
(1.3182 0.130737 -1.96466e-19)
(1.32867 0.13159 1.89152e-19)
(1.32956 0.12995 2.55856e-20)
(1.32454 0.126684 4.25303e-20)
(1.31627 0.122474 -6.03696e-20)
(1.30649 0.117808 1.07032e-19)
(1.29622 0.11303 2.38115e-19)
(1.28598 0.108274 -1.28185e-19)
(1.27602 0.10311 1.29411e-19)
(0.0316634 -0.0065343 -4.02345e-20)
(0.126547 -0.0173591 1.52404e-19)
(0.252465 -0.0165791 2.42731e-19)
(0.402144 -0.00683224 -8.20142e-20)
(0.566253 0.0106023 -1.74322e-19)
(0.733234 0.0337959 1.48786e-19)
(0.890878 0.0597949 -5.44867e-20)
(1.02875 0.0853798 -3.27595e-20)
(1.14019 0.107834 4.18551e-19)
(1.22302 0.125434 6.0447e-20)
(1.27899 0.137564 -1.08342e-19)
(1.31244 0.144521 -4.26976e-20)
(1.32874 0.147166 3.18147e-19)
(1.33312 0.146575 -6.49247e-20)
(1.32995 0.143781 1.83787e-19)
(1.32246 0.13963 -2.08995e-19)
(1.31285 0.134747 2.13546e-19)
(1.30245 0.129553 -1.12387e-19)
(1.292 0.12433 5.33914e-20)
(1.2818 0.119121 5.31599e-20)
(1.27196 0.113869 -6.12294e-20)
(0.0399325 -0.00700222 1.26686e-19)
(0.151062 -0.0167072 5.23453e-20)
(0.292439 -0.012495 -4.74299e-20)
(0.45532 0.00193825 1.92566e-19)
(0.628562 0.024372 2.43464e-19)
(0.799146 0.0519619 -3.31697e-19)
(0.954446 0.0810324 -1.19324e-19)
(1.0849 0.108053 2.59284e-19)
(1.18568 0.130434 -2.82671e-19)
(1.25673 0.146873 -8.86366e-20)
(1.3016 0.157267 -1.11635e-19)
(1.32575 0.162355 -7.11218e-20)
(1.33501 0.16329 -8.15065e-21)
(1.33451 0.161285 3.18707e-20)
(1.32825 0.157389 -4.95789e-20)
(1.319 0.1524 1.01779e-19)
(1.3085 0.146868 5.06233e-20)
(1.29776 0.141151 5.63592e-20)
(1.28726 0.135467 2.08196e-19)
(1.27715 0.129809 -4.34004e-21)
(1.26742 0.124416 -1.02228e-19)
(0.0490556 -0.00702199 -2.56591e-19)
(0.177398 -0.0146676 1.26553e-19)
(0.334354 -0.00618942 -2.14021e-19)
(0.509622 0.0134975 7.55683e-20)
(0.6903 0.0410899 1.29633e-19)
(0.862267 0.072793 1.00654e-19)
(1.01306 0.104321 -2.1176e-20)
(1.13455 0.132033 -1.53668e-19)
(1.22405 0.153663 2.29817e-19)
(1.28359 0.168447 2.07123e-20)
(1.31826 0.176822 -1.66687e-19)
(1.33434 0.179932 7.88132e-21)
(1.33778 0.179158 1.49177e-19)
(1.33347 0.175786 -7.03186e-20)
(1.32492 0.170838 8.72201e-20)
(1.31444 0.165043 -1.07161e-19)
(1.30339 0.158873 3.62808e-20)
(1.29249 0.152625 1.36538e-21)
(1.28202 0.146456 1.5618e-19)
(1.27204 0.140348 -6.86526e-20)
(1.26241 0.134755 2.92452e-20)
(0.0589853 -0.0065035 5.93235e-20)
(0.205322 -0.0110503 3.89884e-21)
(0.377711 0.00252298 1.19221e-19)
(0.564268 0.0279324 -7.41185e-20)
(0.750514 0.0606855 -7.58137e-20)
(0.921693 0.0960682 -2.56678e-20)
(1.06611 0.129356 -9.92752e-21)
(1.17755 0.157021 2.99246e-19)
(1.25559 0.177294 -3.47978e-20)
(1.30421 0.190026 -1.62426e-19)
(1.32976 0.196188 1.43067e-21)
(1.33896 0.197273 2.80409e-20)
(1.33771 0.194819 -9.92376e-20)
(1.33046 0.190131 -5.32412e-21)
(1.32026 0.184173 -1.07736e-19)
(1.30896 0.177588 -1.55614e-19)
(1.29759 0.170776 -9.17411e-20)
(1.28665 0.163979 -1.78858e-19)
(1.27628 0.157301 -4.53852e-20)
(1.26644 0.150735 3.33279e-20)
(1.25691 0.144884 1.47739e-20)
(0.0696495 -0.00535985 -6.71383e-20)
(0.234543 -0.00568721 -9.08939e-20)
(0.421948 0.0137797 -2.49563e-19)
(0.618458 0.045261 4.14577e-20)
(0.808314 0.0830205 1.56466e-19)
(0.976682 0.121525 7.29277e-20)
(1.11322 0.155831 -1.85108e-19)
(1.21394 0.182746 8.61058e-20)
(1.28071 0.201138 -2.06202e-20)
(1.31925 0.211516 -1.21123e-20)
(1.3368 0.215346 -6.2947e-20)
(1.34028 0.214401 8.24025e-20)
(1.33529 0.210313 -2.27421e-20)
(1.32584 0.204356 1.81087e-20)
(1.31447 0.197415 1.42127e-20)
(1.30265 0.190046 -2.03383e-21)
(1.29114 0.18258 -2.70997e-21)
(1.28025 0.175209 -8.24877e-20)
(1.27002 0.167993 -7.29586e-20)
(1.26034 0.16096 6.08259e-20)
(1.25091 0.154791 -4.83354e-20)
(0.0809527 -0.00351086 1.86381e-19)
(0.264717 0.00155971 8.45024e-20)
(0.46646 0.0276628 8.92901e-20)
(0.671396 0.0654321 -3.15026e-20)
(0.862903 0.107898 1.3726e-19)
(1.02666 0.148874 -1.31866e-19)
(1.15418 0.183446 6.93114e-20)
(1.24391 0.208968 5.10273e-20)
(1.29992 0.225046 5.56263e-21)
(1.32933 0.232851 -4.1625e-20)
(1.34 0.234288 -2.91495e-20)
(1.33879 0.231338 3.82355e-20)
(1.33091 0.225664 -7.06464e-21)
(1.31984 0.218478 2.88267e-20)
(1.30769 0.210569 -4.05507e-20)
(1.29557 0.202409 -7.3568e-20)
(1.28404 0.194268 -2.26997e-20)
(1.27327 0.186296 4.85639e-20)
(1.26322 0.178515 -5.36112e-20)
(1.25372 0.171003 3.19025e-20)
(1.24441 0.164461 7.48681e-21)
(0.0927768 -0.00088637 -5.35707e-20)
(0.295462 0.010792 -7.53337e-20)
(0.510618 0.0441944 -7.49542e-20)
(0.722325 0.0883282 -5.10442e-20)
(0.913594 0.13507 -2.26307e-20)
(1.07121 0.177809 5.73955e-20)
(1.18895 0.211916 -1.73777e-20)
(1.26776 0.235475 3.01798e-20)
(1.3137 0.248895 -8.21651e-20)
(1.33503 0.253979 5.34736e-20)
(1.33988 0.253007 1.5854e-20)
(1.33491 0.248093 2.80728e-20)
(1.32483 0.240882 -2.34759e-20)
(1.31262 0.232496 2.79425e-20)
(1.29997 0.223623 1.49822e-20)
(1.28773 0.214658 7.31965e-21)
(1.27628 0.205818 -6.82025e-21)
(1.26569 0.197215 -4.45001e-20)
(1.25586 0.188842 4.26846e-20)
(1.24657 0.180836 -1.28048e-20)