/*--------------------------------*- C++ -*----------------------------------*\
  =========                 |
  \\      /  F ield         | OpenFOAM: The Open Source CFD Toolbox
   \\    /   O peration     | Website:  https://openfoam.org
    \\  /    A nd           | Version:  7
     \\/     M anipulation  |
\*---------------------------------------------------------------------------*/
FoamFile
{
    version     2.0;
    format      ascii;
    class       volVectorField;
    location    "30";
    object      U;
}
// * * * * * * * * * * * * * * * * * * * * * * * * * * * * * * * * * * * * * //

dimensions      [0 1 -1 0 0 0 0];

internalField   nonuniform List<vector> 
928
(
(-0.0141442 0.00116198 1.20493e-23)
(-0.0161082 0.00115745 -7.37162e-22)
(-0.018083 0.00114008 8.47476e-22)
(-0.0200461 0.00111103 -2.44639e-21)
(-0.0219765 0.00107153 4.10393e-22)
(-0.0238545 0.00102287 -7.74786e-22)
(-0.025662 0.00096644 -4.49097e-21)
(-0.0141187 0.003471 -8.89271e-22)
(-0.0160547 0.00345687 -4.53669e-21)
(-0.0179975 0.00340435 4.57352e-21)
(-0.0199247 0.00331688 2.69359e-22)
(-0.0218154 0.00319812 -3.38056e-21)
(-0.0236498 0.00305199 6.04533e-21)
(-0.02541 0.0028826 4.07494e-21)
(-0.0140651 0.00573527 2.87889e-22)
(-0.015945 0.00570999 -1.20591e-20)
(-0.0178237 0.00562104 1.23919e-20)
(-0.0196791 0.00547414 -1.65719e-20)
(-0.0214903 0.00527539 1.71343e-20)
(-0.0232376 0.00503129 -2.37015e-20)
(-0.0249032 0.00474869 -1.34358e-21)
(-0.0139782 0.00792547 -1.40732e-20)
(-0.0157735 0.00788644 1.41268e-20)
(-0.017556 0.00775895 -1.07587e-20)
(-0.0193035 0.00755098 1.76945e-20)
(-0.0209953 0.00727104 -2.23793e-21)
(-0.0226118 0.00692816 1.1189e-20)
(-0.0241354 0.00653195 -1.54196e-20)
(-0.01385 0.010013 8.8585e-21)
(-0.0155322 0.00995665 1.53233e-20)
(-0.0171859 0.00978773 2.86726e-21)
(-0.0187893 0.00951643 8.1891e-21)
(-0.0203216 0.00915362 -1.22859e-20)
(-0.0217637 0.00871089 1.79362e-20)
(-0.0230979 0.0082005 -2.68926e-20)
(-0.0152101 0.0118921 3.88797e-21)
(-0.0167022 0.0116781 -2.91887e-20)
(-0.0181249 0.0113407 5.35808e-21)
(-0.0194576 0.0108929 8.29096e-21)
(-0.0206812 0.010349 -8.65913e-22)
(-0.0217785 0.00972377 8.18057e-21)
(-0.0147935 0.0136657 -4.83066e-21)
(-0.0160909 0.0134023 4.32481e-20)
(-0.017296 0.0129953 -1.57157e-20)
(-0.0183885 0.0124603 8.53462e-21)
(-0.0193496 0.0118136 -7.49005e-21)
(-0.0201623 0.0110728 -1.0502e-20)
(-0.0142661 0.015252 2.60175e-20)
(-0.015335 0.0149342 -1.4206e-20)
(-0.0162851 0.014454 5.22156e-21)
(-0.0170966 0.0138289 -7.43855e-23)
(-0.0177509 0.0130778 -4.00776e-20)
(-0.0182311 0.0122207 3.05876e-20)
(-0.013609 0.0166274 -4.0403e-20)
(-0.0144148 0.0162499 2.56951e-20)
(-0.0150722 0.0156923 5.0889e-20)
(-0.0155613 0.0149743 -7.50885e-21)
(-0.015864 0.014117 4.96884e-20)
(-0.0159638 0.0131429 -7.72421e-20)
(-0.0158461 0.0120761 9.8288e-21)
(-0.0128003 0.0177706 -7.71723e-21)
(-0.0133079 0.0173275 1.03597e-20)
(-0.0136339 0.0166883 -3.75133e-20)
(-0.013759 0.0158745 -1.68381e-20)
(-0.013665 0.0149093 -1.93796e-20)
(-0.013336 0.0138177 2.11809e-21)
(-0.0127576 0.0126264 -1.38941e-20)
(-0.011989 0.0181481 7.16789e-20)
(-0.0119444 0.0174228 1.5e-20)
(-0.0116628 0.0165103 4.78855e-20)
(-0.0111267 0.0154358 -2.67307e-20)
(-0.0103201 0.0142266 6.88201e-21)
(-0.00922922 0.0129116 -9.42021e-21)
(-0.01043 0.0186951 -2.07736e-20)
(-0.00997456 0.0178796 -2.58055e-20)
(-0.00924324 0.0168658 -1.75825e-20)
(-0.00821876 0.015681 9.39701e-21)
(-0.00688552 0.0143543 -3.81716e-20)
(-0.00523004 0.0129172 1.77266e-20)
(-0.00324142 0.0114038 -3.60228e-20)
(-0.00860023 0.0189554 -7.14666e-22)
(-0.00769271 0.0180457 -1.59391e-20)
(-0.00646757 0.0169286 -2.75611e-20)
(-0.00490788 0.0156329 5.47533e-21)
(-0.00299838 0.0141897 6.8504e-20)
(-0.000725877 0.0126327 1.58431e-20)
(0.00192023 0.0109985 2.35804e-20)
(-0.00506424 0.0179116 6.42271e-20)
(-0.00330024 0.0166897 -7.25541e-21)
(-0.00115771 0.0152835 -8.31209e-21)
(0.00137829 0.0137258 -2.2469e-21)
(0.00432066 0.012052 2.52904e-20)
(0.00767972 0.0103013 -5.87091e-20)
(-0.0020519 0.0174713 -4.84542e-20)
(0.000297143 0.0161443 3.03139e-20)
(0.0030711 0.014629 4.31535e-21)
(0.00628454 0.0129598 7.61307e-21)
(0.00995008 0.0111739 3.92717e-20)
(0.0140778 0.00931218 7.94414e-21)
(0.0186746 0.00741988 -3.77608e-20)
(0.00436567 0.0152913 5.90118e-20)
(0.00782068 0.0136699 -7.55027e-21)
(0.0117633 0.0118939 -1.81907e-19)
(0.0162059 0.010002 3.33172e-20)
(0.0211584 0.00803658 -8.8362e-20)
(0.0266273 0.00604516 -6.34038e-20)
(0.00894893 0.0141339 6.01938e-20)
(0.0131358 0.012411 -3.7947e-20)
(0.0178604 0.0105349 6.81716e-20)
(0.0231346 0.00854509 -1.76936e-20)
(0.0289682 0.00648544 4.15984e-20)
(0.0353676 0.00440502 4.84258e-20)
(0.0423352 0.00235942 -2.99753e-20)
(0.0190637 0.0108615 4.78748e-20)
(0.024624 0.0088942 8.8653e-20)
(0.0307852 0.00681734 -5.56769e-20)
(0.0375567 0.00467549 -2.88937e-20)
(0.044945 0.00251883 2.10887e-20)
(0.0529524 0.000404764 3.88102e-20)
(0.0256534 0.00903492 4.08521e-20)
(0.0321045 0.00698808 -1.07167e-19)
(0.039209 0.00483788 7.66105e-21)
(0.0469759 0.00262909 9.55362e-20)
(0.0554115 0.000412312 2.65277e-20)
(0.0645185 -0.00175413 7.2297e-21)
(0.0742936 -0.00380184 7.41819e-20)
(0.0403539 0.00483699 1.26645e-19)
(0.0484591 0.00263064 6.27069e-20)
(0.0572796 0.000373987 -7.71375e-20)
(0.0668214 -0.00188273 7.18306e-20)
(0.0770872 -0.00408128 -3.95732e-20)
(0.0880744 -0.00615252 -1.87788e-20)
(0.0585898 0.000223735 -6.84931e-20)
(0.068523 -0.00205737 -3.29902e-20)
(0.0792303 -0.004329 7.6439e-20)
(0.0907142 -0.00653415 -1.15185e-19)
(0.102973 -0.00860456 4.64433e-20)
(0.115997 -0.0104559 -4.5387e-20)
(0.0696557 -0.00235141 1.05471e-19)
(0.0807619 -0.00462878 -5.56698e-20)
(0.0926947 -0.00688474 -1.40046e-19)
(0.105456 -0.00906471 1.06271e-19)
(0.119045 -0.0111031 -1.18088e-19)
(0.133453 -0.0129178 4.33929e-20)
(0.0940514 -0.00730172 -1.40452e-19)
(0.107271 -0.00950543 1.14032e-19)
(0.121371 -0.0116212 -8.04731e-20)
(0.136347 -0.013588 6.78924e-20)
(0.152195 -0.0153289 -1.23616e-19)
(0.168902 -0.0167395 1.09525e-19)
(0.123014 -0.0121461 4.79389e-21)
(0.138513 -0.0141509 -1.43865e-20)
(0.154938 -0.0159968 -7.0293e-20)
(0.172283 -0.0176148 -3.25975e-20)
(0.190538 -0.01891 -5.68161e-20)
(0.209682 -0.0197467 -1.09272e-19)
(0.156937 -0.0166038 1.25136e-19)
(0.174872 -0.0182689 3.14964e-20)
(0.193772 -0.019701 6.64773e-20)
(0.213628 -0.0208198 -2.69564e-19)
(0.234429 -0.0215069 2.71514e-19)
(0.176691 -0.0189375 -8.58071e-20)
(0.196202 -0.0203527 9.46797e-20)
(0.216719 -0.021521 3.88696e-20)
(0.238235 -0.0223803 2.95162e-19)
(0.260742 -0.0228395 -1.37187e-19)
(0.284178 -0.0227815 9.25026e-20)
(0.218969 -0.0222131 1.47405e-20)
(0.241177 -0.0230277 -1.24462e-19)
(0.264421 -0.0235215 -1.27786e-19)
(0.288695 -0.0236368 1.82171e-19)
(0.313949 -0.0233171 -2.66157e-19)
(0.340153 -0.0223945 1.08505e-19)
(0.267182 -0.0242079 4.23981e-20)
(0.292243 -0.0242138 1.0318e-19)
(0.31837 -0.0238285 2.33866e-19)
(0.345514 -0.023066 1.27402e-19)
(0.373673 -0.0218895 2.47643e-21)
(0.403823 -0.0192201 -2.21947e-20)
(0.321738 -0.024499 3.45465e-20)
(0.349854 -0.0234336 -2.15193e-19)
(0.379032 -0.0219554 4.88703e-20)
(0.409248 -0.0201284 -3.95451e-20)
(0.441534 -0.0170401 -6.22246e-21)
(0.477163 -0.0114832 3.33787e-20)
(0.383217 -0.0226651 -2.18731e-19)
(0.414783 -0.0201998 1.38403e-19)
(0.447591 -0.017112 -2.28225e-19)
(0.482398 -0.0126637 2.01134e-19)
(0.520737 -0.00732243 1.53114e-19)
(0.452748 -0.0186237 8.81377e-20)
(0.489403 -0.0141968 1.41817e-19)
(0.529496 -0.00838934 -2.74356e-19)
(0.576014 -0.00427458 5.49208e-20)
(0.531261 -0.0138119 7.82446e-20)
(0.574756 -0.0092453 -1.25057e-19)
(0.622877 -0.00828431 2.56188e-19)
(0.616291 -0.0114235 1.48313e-19)
(0.663636 -0.0120341 -3.62661e-21)
(0.701241 -0.0139181 -6.76227e-20)
(0.701241 0.0139181 -4.0296e-20)
(0.616291 0.0114235 1.67997e-20)
(0.663636 0.0120341 -2.26029e-20)
(0.531261 0.0138119 -1.60672e-19)
(0.574756 0.00924528 1.44657e-19)
(0.622877 0.0082843 -6.1934e-20)
(0.452748 0.0186237 -1.19279e-19)
(0.489403 0.0141968 -4.33361e-20)
(0.529496 0.00838932 -7.33263e-20)
(0.576014 0.00427456 -2.99133e-19)
(0.383217 0.0226651 1.65171e-19)
(0.414783 0.0201998 -7.96296e-20)
(0.447591 0.017112 1.3376e-19)
(0.482398 0.0126637 1.29389e-19)
(0.520737 0.00732241 -1.55896e-19)
(0.321738 0.024499 -2.41751e-19)
(0.349854 0.0234336 1.48972e-19)
(0.379032 0.0219553 -1.85919e-19)
(0.409248 0.0201284 -3.96669e-20)
(0.441534 0.0170401 -1.68494e-20)
(0.477163 0.0114832 1.49438e-19)
(0.267182 0.0242079 7.65598e-20)
(0.292243 0.0242138 7.62195e-20)
(0.31837 0.0238285 1.29925e-19)
(0.345514 0.023066 -5.88569e-20)
(0.373673 0.0218895 4.64644e-20)
(0.403823 0.0192201 -1.22303e-19)
(0.218969 0.0222131 -9.93522e-20)
(0.241177 0.0230276 -6.96346e-20)
(0.264421 0.0235215 2.78264e-21)
(0.288695 0.0236368 -1.84128e-19)
(0.313949 0.0233171 1.02024e-19)
(0.340153 0.0223945 1.91787e-22)
(0.176691 0.0189374 7.98935e-20)
(0.196202 0.0203527 8.18628e-21)
(0.216719 0.021521 5.24936e-20)
(0.238235 0.0223802 7.68991e-20)
(0.260742 0.0228395 -2.74801e-19)
(0.284178 0.0227815 1.12513e-19)
(0.139975 0.014764 -4.71632e-20)
(0.156937 0.0166038 2.43567e-20)
(0.174872 0.0182689 7.72564e-20)
(0.193772 0.019701 1.82003e-20)
(0.213628 0.0208198 3.56588e-20)
(0.234429 0.0215068 -1.1348e-19)
(0.123014 0.0121461 1.17111e-19)
(0.138513 0.0141509 -2.89958e-20)
(0.154938 0.0159968 -2.67543e-20)
(0.172283 0.0176147 4.84633e-20)
(0.190538 0.01891 -9.41883e-21)
(0.209682 0.0197466 -2.04371e-20)
(0.0940514 0.00730171 2.02441e-19)
(0.107271 0.00950542 -3.08774e-21)
(0.121371 0.0116212 3.29124e-20)
(0.136347 0.013588 -4.87134e-20)
(0.152195 0.0153288 -1.0494e-19)
(0.168902 0.0167395 4.51899e-20)
(0.0696557 0.00235139 -4.84696e-21)
(0.0807619 0.00462877 -2.2203e-20)
(0.0926947 0.00688472 -7.10587e-20)
(0.105456 0.00906469 9.10203e-20)
(0.119045 0.0111031 6.22368e-21)
(0.133452 0.0129178 -8.594e-20)
(0.0585898 -0.000223752 -1.12618e-19)
(0.068523 0.00205735 6.72158e-20)
(0.0792303 0.00432898 -9.19268e-20)
(0.0907142 0.00653412 4.45988e-20)
(0.102973 0.00860454 -1.07738e-19)
(0.115997 0.0104559 1.24317e-19)
(0.0403539 -0.00483701 1.35482e-20)
(0.0484591 -0.00263066 1.02948e-19)
(0.0572796 -0.000374006 -1.03098e-20)
(0.0668214 0.00188271 -7.4588e-20)
(0.0770872 0.00408126 -5.39944e-20)
(0.0880744 0.0061525 -1.49421e-20)
(0.0256534 -0.00903493 -1.25528e-19)
(0.0321045 -0.00698809 -2.98883e-20)
(0.039209 -0.0048379 4.33355e-21)
(0.0469759 -0.00262911 -2.68333e-20)
(0.0554115 -0.000412334 9.92083e-20)
(0.0645185 0.00175411 7.70502e-20)
(0.0742936 0.00380182 5.0956e-21)
(0.0190637 -0.0108615 4.31059e-20)
(0.024624 -0.00889422 -9.95324e-20)
(0.0307852 -0.00681736 -2.35608e-20)
(0.0375567 -0.00467551 -4.39544e-20)
(0.044945 -0.00251886 1.97978e-20)
(0.0529524 -0.000404788 -2.48627e-20)
(0.00894892 -0.0141339 -4.35809e-20)
(0.0131358 -0.012411 3.59566e-20)
(0.0178604 -0.0105349 4.30633e-22)
(0.0231346 -0.00854511 4.66065e-20)
(0.0289682 -0.00648546 3.98771e-20)
(0.0353676 -0.00440504 7.15015e-20)
(0.0423352 -0.00235944 -6.31365e-20)
(0.00436567 -0.0152913 -1.54891e-20)
(0.00782068 -0.0136699 -2.71167e-20)
(0.0117633 -0.011894 4.67859e-20)
(0.0162059 -0.010002 -1.39425e-19)
(0.0211584 -0.0080366 5.01527e-20)
(0.0266273 -0.00604518 -1.43732e-19)
(-0.0020519 -0.0174714 4.55352e-21)
(0.00029714 -0.0161443 -4.64967e-20)
(0.00307109 -0.0146291 3.18309e-20)
(0.00628454 -0.0129599 7.82507e-21)
(0.00995008 -0.0111739 5.01066e-23)
(0.0140778 -0.00931221 1.78109e-20)
(0.0186746 -0.0074199 1.29987e-19)
(-0.00506424 -0.0179116 6.06815e-20)
(-0.00330024 -0.0166897 -4.34395e-20)
(-0.00115771 -0.0152835 -1.8728e-21)
(0.00137829 -0.0137258 3.14686e-20)
(0.00432066 -0.0120521 3.63672e-20)
(0.00767971 -0.0103013 -9.68745e-20)
(-0.00860023 -0.0189554 -4.23167e-22)
(-0.00769271 -0.0180457 -4.63506e-20)
(-0.00646757 -0.0169286 1.41656e-20)
(-0.00490789 -0.0156329 3.0128e-20)
(-0.00299839 -0.0141897 2.20521e-20)
(-0.000725879 -0.0126327 4.52389e-20)
(0.00192023 -0.0109985 8.55422e-20)
(-0.01043 -0.0186951 1.07569e-21)
(-0.00997456 -0.0178796 2.72775e-21)
(-0.00924324 -0.0168658 5.34789e-22)
(-0.00821876 -0.015681 1.35451e-20)
(-0.00688552 -0.0143543 -1.23465e-20)
(-0.00523004 -0.0129172 -5.81115e-20)
(-0.00324142 -0.0114039 4.56219e-20)
(-0.011989 -0.0181481 -5.14115e-20)
(-0.0119444 -0.0174228 1.4029e-20)
(-0.0116628 -0.0165103 1.38491e-20)
(-0.0111267 -0.0154359 1.48432e-20)
(-0.0103201 -0.0142266 -2.46387e-21)
(-0.00922922 -0.0129116 2.81885e-20)
(-0.0128003 -0.0177706 4.74495e-20)
(-0.0133079 -0.0173276 -2.69321e-20)
(-0.0136339 -0.0166883 6.47301e-21)
(-0.013759 -0.0158745 -3.82123e-20)
(-0.013665 -0.0149094 -6.91013e-20)
(-0.013336 -0.0138178 2.85375e-20)
(-0.0127576 -0.0126264 2.79554e-20)
(-0.013609 -0.0166274 -2.64847e-20)
(-0.0144148 -0.0162499 1.07195e-20)
(-0.0150722 -0.0156923 -1.81581e-20)
(-0.0155613 -0.0149743 6.07268e-20)
(-0.015864 -0.014117 2.87144e-20)
(-0.0159638 -0.013143 -2.47346e-20)
(-0.0158461 -0.0120762 -6.3315e-20)
(-0.0142661 -0.015252 6.73986e-22)
(-0.015335 -0.0149343 1.6447e-21)
(-0.0162851 -0.014454 -1.03627e-20)
(-0.0170966 -0.013829 -3.54481e-20)
(-0.0177509 -0.0130778 2.4025e-20)
(-0.0182311 -0.0122207 1.81045e-20)
(-0.0147935 -0.0136657 5.69862e-21)
(-0.0160909 -0.0134023 -9.53323e-21)
(-0.017296 -0.0129954 6.1708e-21)
(-0.0183885 -0.0124603 -1.24672e-21)
(-0.0193496 -0.0118136 5.64835e-21)
(-0.0201623 -0.0110728 -2.67433e-20)
(-0.01367 -0.0119704 -2.35742e-20)
(-0.0152101 -0.0118921 1.53163e-20)
(-0.0167022 -0.0116781 -1.06394e-20)
(-0.0181249 -0.0113407 -5.50019e-20)
(-0.0194576 -0.010893 3.66108e-20)
(-0.0206812 -0.010349 2.98162e-20)
(-0.0217785 -0.0097238 9.4123e-21)
(-0.01385 -0.010013 4.19643e-22)
(-0.0155322 -0.00995667 1.00882e-20)
(-0.0171859 -0.00978775 -1.04505e-20)
(-0.0187893 -0.00951645 1.92561e-20)
(-0.0203216 -0.00915365 -3.09743e-20)
(-0.0217637 -0.00871091 -1.56311e-20)
(-0.0230979 -0.00820053 1.60337e-20)
(-0.0139782 -0.00792549 1.13808e-20)
(-0.0157735 -0.00788646 -2.12691e-21)
(-0.017556 -0.00775897 2.00906e-21)
(-0.0193035 -0.007551 7.00188e-21)
(-0.0209953 -0.00727106 -1.96819e-21)
(-0.0226118 -0.00692819 2.01978e-20)
(-0.0241354 -0.00653198 -1.53249e-20)
(-0.0140651 -0.00573529 -1.6946e-22)
(-0.015945 -0.00571001 -5.62842e-21)
(-0.0178237 -0.00562106 3.32237e-21)
(-0.0196791 -0.00547416 1.0019e-20)
(-0.0214903 -0.00527542 -7.54461e-21)
(-0.0232376 -0.00503131 5.1264e-21)
(-0.0249032 -0.00474872 -1.09761e-20)
(-0.0141187 -0.00347101 1.38162e-23)
(-0.0160547 -0.00345689 3.75071e-21)
(-0.0179975 -0.00340437 -2.97623e-21)
(-0.0199247 -0.0033169 -5.68679e-21)
(-0.0218154 -0.00319815 3.83382e-21)
(-0.0236498 -0.00305201 2.00886e-21)
(-0.02541 -0.00288263 8.22691e-21)
(-0.0141442 -0.001162 1.489e-21)
(-0.0161082 -0.00115747 7.26445e-23)
(-0.018083 -0.0011401 -2.42547e-21)
(-0.0200461 -0.00111106 2.4466e-22)
(-0.0219765 -0.00107156 -2.37169e-21)
(-0.0238545 -0.0010229 -2.94089e-21)
(-0.025662 -0.000966469 1.53996e-21)
(1.20591 0.0654661 0)
(1.23603 0.0744422 0)
(1.25896 0.0820131 0)
(1.27564 0.0881302 0)
(1.28703 0.0928271 0)
(1.29408 0.0961989 0)
(1.29765 0.0983802 0)
(1.29851 0.0995268 0)
(1.29733 0.0997999 0)
(1.29465 0.0993544 0)
(1.2909 0.0983319 0)
(1.28645 0.0968561 0)
(1.28154 0.0950315 0)
(1.27637 0.0929441 0)
(1.27108 0.0906627 0)
(1.26578 0.0882413 0)
(1.26053 0.0857217 0)
(1.25538 0.0831359 0)
(1.25037 0.0805078 0)
(1.2455 0.0778556 0)
(1.2408 0.0751926 0)
(1.23627 0.0725289 0)
(1.23192 0.0698719 0)
(1.22773 0.067227 0)
(1.22373 0.0645983 0)
(1.21989 0.0619887 0)
(1.21623 0.0594003 0)
(1.21273 0.0568344 0)
(1.20939 0.054292 0)
(1.20622 0.0517735 0)
(1.20321 0.049279 0)
(1.20035 0.0468085 0)
(1.19765 0.0443615 0)
(1.19509 0.0419376 0)
(1.19269 0.039536 0)
(1.19043 0.037156 0)
(1.18831 0.0347966 0)
(1.18634 0.0324569 0)
(1.1845 0.0301358 0)
(1.1828 0.0278321 0)
(1.18124 0.0255448 0)
(1.17982 0.0232726 0)
(1.17853 0.0210141 0)
(1.17736 0.0187682 0)
(1.17634 0.0165334 0)
(1.17544 0.0143083 0)
(1.17467 0.0120917 0)
(1.17403 0.00988204 0)
(1.17353 0.00767824 0)
(1.17315 0.00547929 0)
(1.1729 0.00328449 0)
(1.17278 0.0010939 0)
(0.669443 -0.0118366 -2.24648e-20)
(0.771461 -0.00648221 -3.20323e-20)
(0.862453 0.00104438 -2.56523e-20)
(0.944715 0.0116492 -9.56815e-20)
(1.01757 0.0235759 1.23143e-20)
(1.08092 0.0360131 9.14024e-20)
(1.13479 0.0483065 -9.52665e-20)
(1.17944 0.0599072 1.04488e-19)
(1.21543 0.0704106 -1.78162e-23)
(1.24351 0.0795465 -6.81452e-20)
(1.26457 0.0871704 6.40782e-20)
(1.27959 0.0932468 8.12889e-21)
(1.28956 0.0978265 -1.83323e-20)
(1.29542 0.101023 -3.19039e-20)
(1.29802 0.102989 -1.10171e-20)
(1.29812 0.103897 1.74659e-20)
(1.29634 0.103919 -1.5016e-20)
(1.29322 0.103222 1.67588e-20)
(1.28916 0.101955 -6.83375e-21)
(1.28448 0.100244 8.00767e-21)
(1.27942 0.0981988 4.84565e-23)
(1.27417 0.0959049 -1.39157e-20)
(1.26884 0.0934318 6.29271e-21)
(1.26352 0.090833 2.40011e-22)
(1.25828 0.0881492 -7.52386e-21)
(1.25316 0.0854114 2.42191e-20)
(1.24818 0.0826424 -8.16695e-21)
(1.24336 0.0798592 -3.81987e-21)
(1.2387 0.0770743 6.21375e-21)
(1.23422 0.0742967 -1.37118e-20)
(1.22991 0.0715331 6.83924e-21)
(1.22578 0.0687882 3.75482e-21)
(1.22182 0.0660656 -2.99789e-22)
(1.21803 0.0633674 -8.2659e-21)
(1.21441 0.0606954 2.95881e-21)
(1.21096 0.0580505 -4.16238e-22)
(1.20767 0.0554331 8.72654e-21)
(1.20454 0.0528435 -4.61543e-21)
(1.20156 0.0502815 -9.25725e-22)
(1.19874 0.0477465 3.96302e-21)
(1.19607 0.0452381 3.73524e-22)
(1.19355 0.0427554 -2.84216e-21)
(1.19118 0.0402976 -7.68259e-22)
(1.18895 0.0378635 6.40909e-22)
(1.18686 0.0354522 -3.26191e-21)
(1.18491 0.0330623 1.63813e-21)
(1.1831 0.0306928 6.86452e-22)
(1.18143 0.0283424 -2.91821e-21)
(1.17989 0.0260096 3.57128e-21)
(1.17848 0.0236932 -2.94569e-21)
(1.1772 0.0213917 2.74733e-22)
(1.17606 0.0191037 2.09936e-21)
(1.17504 0.0168276 -1.00722e-21)
(1.17415 0.0145621 -3.40179e-22)
(1.1734 0.0123055 -6.61422e-23)
(1.17277 0.0100564 6.37614e-22)
(1.17226 0.00781346 -9.97157e-23)
(1.17189 0.00557549 -3.2488e-22)
(1.17165 0.00334171 1.80013e-22)
(1.17153 0.00111259 -1.13186e-22)
(0.706866 -0.0106471 -5.40871e-20)
(0.807544 -0.00292915 2.89078e-20)
(0.895533 0.00491418 7.87869e-20)
(0.97487 0.0162005 -6.69676e-20)
(1.04451 0.0287672 -5.35149e-20)
(1.10444 0.0416946 7.14896e-20)
(1.15481 0.0542996 -5.13384e-20)
(1.19605 0.0660242 -2.70944e-20)
(1.2288 0.07648 1.00021e-19)
(1.25391 0.0854266 -7.76095e-20)
(1.27234 0.0927551 1.6153e-20)
(1.2851 0.0984657 -1.88855e-20)
(1.29318 0.102642 3.79833e-20)
(1.29749 0.105424 -4.6104e-20)
(1.29888 0.106985 7.60623e-20)
(1.29803 0.10751 -8.21298e-20)
(1.29556 0.107182 3.61581e-20)
(1.29193 0.106169 1.45903e-20)
(1.28751 0.104622 -2.2924e-20)
(1.2826 0.102665 -1.57265e-20)
(1.2774 0.100403 2.30488e-20)
(1.27206 0.0979202 1.00603e-20)
(1.2667 0.0952811 -7.27575e-21)
(1.26138 0.092536 -6.13583e-21)
(1.25617 0.0897226 1.49198e-20)
(1.25108 0.086869 -1.28799e-20)
(1.24615 0.0839959 -8.10067e-22)
(1.24138 0.0811186 3.8204e-21)
(1.23678 0.078248 -7.96337e-21)
(1.23236 0.075392 2.16523e-21)
(1.22811 0.0725562 1.14243e-20)
(1.22403 0.0697447 -1.51399e-20)
(1.22013 0.0669601 2.80858e-21)
(1.2164 0.0642044 6.54453e-21)
(1.21283 0.0614787 -3.19499e-21)
(1.20943 0.0587835 -4.83293e-21)
(1.20619 0.0561189 3.98376e-21)
(1.2031 0.0534849 -1.44838e-21)
(1.20018 0.050881 -1.52053e-21)
(1.1974 0.0483064 2.5971e-21)
(1.19477 0.0457604 3.55392e-21)
(1.19229 0.043242 -4.03806e-21)
(1.18995 0.0407502 -1.19672e-21)
(1.18775 0.0382836 1.15628e-21)
(1.18569 0.0358412 2.1881e-22)
(1.18377 0.0334215 -1.25172e-21)
(1.18199 0.0310233 1.50385e-21)
(1.18034 0.0286451 1.62484e-22)
(1.17882 0.0262855 -1.8766e-21)
(1.17743 0.023943 -3.71419e-22)
(1.17617 0.0216161 6.08783e-22)
(1.17504 0.0193034 1.12967e-21)
(1.17404 0.0170031 3.10712e-22)
(1.17316 0.0147137 -4.85577e-22)
(1.17241 0.0124336 4.13709e-22)
(1.17179 0.0101612 -7.64595e-22)
(1.17129 0.00789509 2.5323e-22)
(1.17092 0.00563396 1.82493e-22)
(1.17068 0.00337689 -3.19483e-22)
(1.17056 0.00112467 1.06306e-22)
(0.741361 -0.0111118 -1.29163e-19)
(0.840749 0.000308077 -1.25929e-20)
(0.926109 0.00962187 4.5181e-20)
(1.00255 0.0220039 8.39385e-20)
(1.06902 0.0353419 -9.29071e-20)
(1.12561 0.0487312 1.68032e-20)
(1.17265 0.061526 3.80591e-20)
(1.21065 0.0731996 -3.89576e-20)
(1.24039 0.0834091 -2.38106e-20)
(1.26277 0.0919645 -3.25599e-20)
(1.27882 0.0988067 5.44921e-20)
(1.28955 0.103981 3.2669e-20)
(1.29594 0.107608 -8.01676e-21)
(1.2989 0.109857 2.057e-21)
(1.29922 0.11092 -8.22966e-21)
(1.29757 0.110994 -3.81888e-20)
(1.2945 0.110265 3.27449e-20)
(1.29044 0.108904 -3.04363e-21)
(1.28574 0.107056 -9.97074e-21)
(1.28063 0.104843 2.24128e-20)
(1.27532 0.102362 1.41992e-21)
(1.26992 0.0996927 -1.18e-20)
(1.26454 0.0968936 -3.61668e-21)
(1.25923 0.0940104 2.08267e-20)
(1.25405 0.0910769 -1.42263e-20)
(1.249 0.0881179 6.52581e-21)
(1.24412 0.0851514 2.71696e-21)
(1.23941 0.0821906 -8.77965e-21)
(1.23486 0.0792447 9.15966e-21)
(1.2305 0.0763203 -1.42614e-20)
(1.22631 0.0734221 8.50144e-21)
(1.22229 0.0705532 2.34042e-22)
(1.21844 0.0677157 -6.11509e-21)
(1.21476 0.0649108 3.66798e-21)
(1.21125 0.0621394 6.46639e-21)
(1.2079 0.0594015 -7.32263e-21)
(1.2047 0.0566971 6.79553e-21)
(1.20167 0.0540256 -1.78451e-21)
(1.19878 0.0513863 -4.93116e-21)
(1.19604 0.0487783 -5.83104e-22)
(1.19345 0.0462008 5.08544e-22)
(1.19101 0.0436524 3.50615e-21)
(1.1887 0.0411319 -4.01647e-23)
(1.18654 0.0386381 1.45327e-21)
(1.18451 0.0361695 -1.47363e-21)
(1.18262 0.0337248 2.54885e-21)
(1.18086 0.0313024 -1.59217e-22)
(1.17923 0.0289009 -2.55891e-21)
(1.17774 0.0265187 3.05156e-21)
(1.17637 0.0241543 -2.00374e-21)
(1.17513 0.0218061 1.64123e-22)
(1.17401 0.0194725 5.72901e-22)
(1.17302 0.0171518 -1.21273e-21)
(1.17216 0.0148423 7.99047e-22)
(1.17142 0.0125424 -4.06666e-22)
(1.1708 0.0102504 5.34216e-22)
(1.17031 0.00796472 3.80202e-22)
(1.16994 0.00568401 -1.84772e-22)
(1.1697 0.00340722 1.15101e-22)
(1.16958 0.00113533 7.67989e-23)
(0.774602 -0.0108487 1.31623e-19)
(0.87174 0.00387424 -9.51774e-20)
(0.954462 0.0150323 7.44244e-21)
(1.02802 0.0286601 1.65943e-20)
(1.09139 0.0427785 1.16447e-20)
(1.14477 0.0565505 -8.08373e-20)
(1.18861 0.0694088 1.13511e-19)
(1.22355 0.0808874 -1.00843e-19)
(1.25045 0.0907072 6.80991e-20)
(1.27031 0.0987402 -8.47837e-22)
(1.28416 0.104984 4.46562e-20)
(1.29305 0.10953 -1.41524e-20)
(1.29793 0.112538 -4.21221e-20)
(1.2997 0.114202 9.87762e-21)
(1.29909 0.114731 2.38274e-20)
(1.29674 0.11433 -3.53733e-20)
(1.29317 0.113189 3.54896e-20)
(1.28875 0.111473 -6.11605e-20)
(1.28381 0.109325 3.82883e-20)
(1.27856 0.106858 3.43127e-21)
(1.27316 0.104164 -9.4145e-22)
(1.26773 0.101314 -1.27989e-20)
(1.26235 0.0983621 1.98982e-20)
(1.25707 0.0953483 -1.55403e-21)
(1.25192 0.092302 -9.1325e-21)
(1.24692 0.0892448 1.19614e-20)
(1.24209 0.0861918 -7.85393e-21)
(1.23743 0.083154 -8.44431e-21)
(1.23295 0.080139 9.87323e-22)
(1.22864 0.0771522 1.39846e-20)
(1.22451 0.0741971 -1.29393e-20)
(1.22055 0.0712761 -2.66576e-21)
(1.21675 0.0683907 1.04796e-20)
(1.21313 0.0655416 -5.1699e-21)
(1.20966 0.062729 4.3584e-21)
(1.20636 0.0599528 -1.23554e-21)
(1.20321 0.0572126 -1.43889e-21)
(1.20022 0.0545074 5.30699e-21)
(1.19738 0.0518366 -4.94871e-21)
(1.19468 0.0491988 1.38906e-21)
(1.19213 0.046593 9.42103e-22)
(1.18972 0.0440179 1.07221e-21)
(1.18745 0.041472 -5.04034e-23)
(1.18532 0.0389539 -3.66389e-22)
(1.18332 0.036462 -2.7827e-21)
(1.18145 0.033995 1.63816e-21)
(1.17972 0.0315511 6.20451e-22)
(1.17812 0.0291289 9.72746e-22)
(1.17664 0.0267266 -1.01444e-21)
(1.17529 0.0243427 9.13967e-22)
(1.17407 0.0219756 -8.75991e-22)
(1.17297 0.0196234 -7.84952e-23)
(1.17199 0.0172845 9.25972e-22)
(1.17114 0.0149572 2.29296e-22)
(0.774602 0.0108487 -1.36435e-19)
(0.87174 -0.00387426 9.61034e-20)
(0.954462 -0.0150323 -1.23465e-20)
(1.02802 -0.0286601 -2.13171e-20)
(1.09139 -0.0427785 -1.61469e-20)
(1.14477 -0.0565506 8.16197e-20)
(1.18861 -0.0694088 -1.12768e-19)
(1.22355 -0.0808874 1.01545e-19)
(1.25045 -0.0907072 -6.74366e-20)
(1.27031 -0.0987403 1.47129e-21)
(1.28416 -0.104984 -4.40705e-20)
(1.29305 -0.10953 1.4702e-20)
(1.29793 -0.112538 3.92674e-20)
(1.2997 -0.114202 -9.3947e-21)
(1.29909 -0.114731 -2.33748e-20)
(1.29674 -0.11433 3.57976e-20)
(1.29317 -0.113189 -3.50917e-20)
(1.28875 -0.111473 6.15339e-20)
(1.28381 -0.109325 -3.79377e-20)
(1.27856 -0.106858 -5.25605e-21)
(1.27316 -0.104164 1.40618e-21)
(1.26773 -0.101314 1.30902e-20)
(1.26235 -0.0983621 -2.13789e-20)
(1.25707 -0.0953483 1.81238e-21)
(1.25192 -0.092302 9.37604e-21)
(1.24692 -0.0892448 -1.17316e-20)
(1.24209 -0.0861918 6.6524e-21)
(1.23743 -0.083154 8.64915e-21)
(1.23295 -0.080139 -7.93702e-22)
(1.22864 -0.0771522 -1.38014e-20)
(1.22451 -0.0741971 1.31127e-20)
(1.22055 -0.0712761 2.82994e-21)
(1.21675 -0.0683907 -1.03239e-20)
(1.21313 -0.0655416 5.31753e-21)
(1.20966 -0.062729 -5.13496e-21)
(1.20636 -0.0599528 1.36872e-21)
(1.20321 -0.0572126 1.62899e-21)
(1.20022 -0.0545074 -5.18641e-21)
(1.19738 -0.0518366 5.06362e-21)
(1.19468 -0.0491988 -1.2786e-21)
(1.19213 -0.046593 -8.37406e-22)
(1.18972 -0.0440179 -1.6277e-21)
(1.18745 -0.041472 1.46278e-22)
(1.18532 -0.0389539 4.59032e-22)
(1.18332 -0.036462 2.871e-21)
(1.18145 -0.033995 -1.55321e-21)
(1.17972 -0.0315511 -5.38583e-22)
(1.17812 -0.0291289 -8.937e-22)
(1.17664 -0.0267266 5.90726e-22)
(1.17529 -0.0243427 -8.39821e-22)
(1.17407 -0.0219756 9.4804e-22)
(1.17297 -0.0196234 1.48673e-22)
(1.17199 -0.0172845 -8.23123e-22)
(1.17114 -0.0149572 -1.6221e-22)
(1.17041 -0.0126397 3.60239e-22)
(1.1698 -0.0103302 1.34043e-22)
(1.16931 -0.00802714 -1.7569e-22)
(1.16895 -0.005729 -1.09135e-22)
(1.16871 -0.00343459 -6.4675e-23)
(1.16859 -0.00114504 8.709e-23)
(0.741361 0.0111118 1.35656e-19)
(0.840749 -0.000308091 7.16589e-21)
(0.926109 -0.00962188 -3.84507e-20)
(1.00255 -0.0220039 -8.33598e-20)
(1.06902 -0.0353419 9.88864e-20)
(1.12561 -0.0487312 -1.62228e-20)
(1.17265 -0.061526 -3.765e-20)
(1.21065 -0.0731996 4.03157e-20)
(1.24039 -0.0834091 2.49549e-20)
(1.26277 -0.0919645 3.35984e-20)
(1.27882 -0.0988068 -5.3482e-20)
(1.28955 -0.103981 -3.26888e-20)
(1.29594 -0.107608 1.16765e-20)
(1.2989 -0.109857 -7.53479e-22)
(1.29922 -0.11092 8.47678e-21)
(1.29757 -0.110994 3.8917e-20)
(1.2945 -0.110265 -3.20864e-20)
(1.29044 -0.108904 3.24682e-21)
(1.28574 -0.107056 1.0228e-20)
(1.28063 -0.104843 -1.94344e-20)
(1.27532 -0.102362 -1.58694e-21)
(1.26992 -0.0996927 1.22988e-20)
(1.26454 -0.0968936 5.82465e-21)
(1.25923 -0.0940104 -2.0316e-20)
(1.25405 -0.0910769 1.42171e-20)
(1.249 -0.0881179 -6.0728e-21)
(1.24412 -0.0851514 -1.1405e-21)
(1.23941 -0.0821906 8.89142e-21)
(1.23486 -0.0792447 -8.63823e-21)
(1.2305 -0.0763203 1.43615e-20)
(1.22631 -0.0734221 -8.50755e-21)
(1.22229 -0.0705532 3.69731e-22)
(1.21844 -0.0677156 6.10975e-21)
(1.21476 -0.0649108 -3.4139e-21)
(1.21125 -0.0621394 -5.2817e-21)
(1.2079 -0.0594015 7.39602e-21)
(1.2047 -0.0566971 -6.76477e-21)
(1.20167 -0.0540255 2.08786e-21)
(1.19878 -0.0513863 5.01671e-21)
(1.19604 -0.0487783 5.8492e-22)
(1.19345 -0.0462007 -3.05771e-22)
(1.19101 -0.0436523 -2.67908e-21)
(1.1887 -0.0411319 3.74789e-23)
(1.18654 -0.0386381 -1.11308e-21)
(1.18451 -0.0361695 1.47128e-21)
(1.18262 -0.0337248 -2.50116e-21)
(1.18086 -0.0313024 3.82628e-22)
(1.17923 -0.0289009 2.60346e-21)
(1.17774 -0.0265187 -2.4954e-21)
(1.17637 -0.0241543 2.19235e-21)
(1.17513 -0.0218061 -1.65723e-22)
(1.17401 -0.0194725 -4.49943e-22)
(1.17302 -0.0171518 1.2762e-21)
(1.17216 -0.0148423 -6.45377e-22)
(1.17142 -0.0125424 3.70064e-22)
(1.1708 -0.0102504 -3.68531e-22)
(1.17031 -0.00796472 8.55595e-23)
(1.16994 -0.00568401 2.21054e-22)
(1.1697 -0.00340722 5.81584e-23)
(1.16958 -0.00113533 -4.03593e-23)
(0.706866 0.0106471 5.01949e-20)
(0.807544 0.00292914 7.63121e-20)
(0.895533 -0.00491419 -1.79432e-19)
(0.97487 -0.0162005 7.03073e-20)
(1.04451 -0.0287672 5.30624e-20)
(1.10444 -0.0416946 -7.28618e-20)
(1.15481 -0.0542997 5.19438e-20)
(1.19605 -0.0660242 2.73942e-20)
(1.2288 -0.07648 -1.0377e-19)
(1.25391 -0.0854267 7.80411e-20)
(1.27234 -0.0927552 -1.94608e-20)
(1.2851 -0.0984657 2.01996e-20)
(1.29318 -0.102642 -3.87609e-20)
(1.29749 -0.105424 4.55964e-20)
(1.29888 -0.106985 -7.53402e-20)
(1.29803 -0.10751 7.97482e-20)
(1.29556 -0.107182 -7.79258e-20)
(1.29193 -0.106169 2.67553e-20)
(1.28751 -0.104622 2.13745e-20)
(1.2826 -0.102665 1.52315e-20)
(1.2774 -0.100403 -2.41771e-20)
(1.27206 -0.0979202 -1.08377e-20)
(1.2667 -0.0952811 7.46075e-21)
(1.26138 -0.092536 4.53432e-21)
(1.25617 -0.0897226 -1.58946e-20)
(1.25108 -0.086869 1.27253e-20)
(1.24615 -0.0839959 1.11333e-21)
(1.24138 -0.0811186 -4.71932e-21)
(1.23678 -0.078248 6.62449e-21)
(1.23236 -0.075392 -1.83736e-21)
(1.22811 -0.0725562 -1.21512e-20)
(1.22403 -0.0697447 1.48486e-20)
(1.22013 -0.0669601 -2.46949e-21)
(1.2164 -0.0642044 -7.42309e-21)
(1.21283 -0.0614787 2.3855e-21)
(1.20943 -0.0587835 5.04647e-21)
(1.20619 -0.0561189 -4.58951e-21)
(1.2031 -0.0534849 -5.02173e-21)
(1.20018 -0.050881 8.08347e-21)
(1.1974 -0.0483064 -2.36225e-21)
(1.19477 -0.0457604 -3.50785e-21)
(1.19229 -0.043242 3.50873e-21)
(1.18995 -0.0407502 -1.1461e-21)
(1.18775 -0.0382836 6.81745e-22)
(1.18569 -0.0358412 -6.30919e-23)
(1.18377 -0.0334215 1.40741e-21)
(1.18199 -0.0310233 -2.07655e-21)
(1.18034 -0.0286451 -1.70661e-23)
(1.17882 -0.0262855 -5.30228e-22)
(1.17743 -0.023943 2.43543e-21)
(1.17617 -0.0216161 -5.31329e-22)
(1.17504 -0.0193034 -1.48979e-21)
(1.17404 -0.0170031 -2.55913e-22)
(1.17316 -0.0147137 4.38704e-23)
(1.17241 -0.0124336 -2.17308e-22)
(1.17179 -0.0101612 3.32494e-22)
(1.17129 -0.00789509 -2.14174e-22)
(1.17092 -0.00563396 -7.71404e-23)
(1.17068 -0.00337689 -6.6965e-23)
(1.17056 -0.00112467 -5.15147e-25)
(0.669443 0.0118366 2.47421e-20)
(0.771461 0.0064822 3.16069e-20)
(0.862453 -0.00104439 2.45339e-20)
(0.944715 -0.0116492 9.65457e-20)
(1.01757 -0.0235759 -1.33455e-20)
(1.08092 -0.0360131 -9.14021e-20)
(1.13479 -0.0483065 9.34678e-20)
(1.17944 -0.0599072 -1.06904e-19)
(1.21543 -0.0704106 1.9897e-21)
(1.24351 -0.0795465 6.60022e-20)
(1.26457 -0.0871704 -6.23372e-20)
(1.27959 -0.0932468 -1.0015e-20)
(1.28956 -0.0978265 1.8309e-20)
(1.29542 -0.101023 3.05908e-20)
(1.29802 -0.102989 9.55924e-21)