/*--------------------------------*- C++ -*----------------------------------*\
  =========                 |
  \\      /  F ield         | OpenFOAM: The Open Source CFD Toolbox
   \\    /   O peration     | Website:  https://openfoam.org
    \\  /    A nd           | Version:  7
     \\/     M anipulation  |
\*---------------------------------------------------------------------------*/
FoamFile
{
    version     2.0;
    format      ascii;
    class       volScalarField;
    location    "55";
    object      p;
}
// * * * * * * * * * * * * * * * * * * * * * * * * * * * * * * * * * * * * * //

dimensions      [0 2 -2 0 0 0 0];

internalField   nonuniform List<scalar> 
928
(
-0.0766584
-0.0750335
-0.0734473
-0.0718989
-0.0703872
-0.0766822
-0.0750568
-0.0734701
-0.0719211
-0.0704089
-0.0767299
-0.0751034
-0.0735156
-0.0719656
-0.0704524
-0.0768013
-0.0751732
-0.0735838
-0.0720322
-0.0705175
-0.0768965
-0.0752662
-0.0736747
-0.0721211
-0.0706043
-0.0770154
-0.0753823
-0.0737882
-0.072232
-0.0707127
-0.0771578
-0.0755216
-0.0739243
-0.072365
-0.0708427
-0.0773238
-0.0756838
-0.0740829
-0.0725199
-0.0709942
-0.0775133
-0.075869
-0.0742638
-0.0726968
-0.071167
-0.0696735
-0.077726
-0.0760769
-0.074467
-0.0728954
-0.0713612
-0.0698633
-0.0779619
-0.0763075
-0.0746924
-0.0731157
-0.0715765
-0.0700737
-0.0782208
-0.0765606
-0.0749398
-0.0733576
-0.0718129
-0.0703048
-0.076836
-0.0752091
-0.0736208
-0.0720702
-0.0705564
-0.0771336
-0.0755
-0.0739052
-0.0723483
-0.0708282
-0.0774531
-0.0758125
-0.0742107
-0.072647
-0.0711202
-0.0777944
-0.0761462
-0.074537
-0.072966
-0.0714322
-0.0699346
-0.0781572
-0.076501
-0.074884
-0.0733053
-0.0717639
-0.070259
-0.0785413
-0.0768766
-0.0752513
-0.0736645
-0.0721151
-0.0706024
-0.0772727
-0.0756387
-0.0740434
-0.0724857
-0.0709648
-0.0776891
-0.076046
-0.0744418
-0.0728753
-0.0713459
-0.0781256
-0.0764729
-0.0748593
-0.0732838
-0.0717454
-0.0702431
-0.0785816
-0.0769191
-0.0752958
-0.0737107
-0.0721629
-0.0706516
-0.0773842
-0.0757508
-0.0741558
-0.0725983
-0.0710775
-0.077868
-0.0762242
-0.074619
-0.0730514
-0.0715207
-0.0783709
-0.0767162
-0.0751003
-0.0735224
-0.0719815
-0.0704766
-0.0772245
-0.0755977
-0.074009
-0.0724576
-0.0709424
-0.0777426
-0.0761047
-0.0745052
-0.072943
-0.0714173
-0.0782861
-0.0766365
-0.0750255
-0.0734521
-0.0719154
-0.0704146
-0.0772627
-0.0756384
-0.0740519
-0.0725023
-0.0709888
-0.0778692
-0.0762329
-0.0746346
-0.0730734
-0.0715484
-0.0779388
-0.0762999
-0.0746991
-0.0731356
-0.0716084
-0.0781855
-0.0765565
-0.0749648
-0.0734096
-0.0718902
-0.0783267
-0.0767094
-0.0751287
-0.0735837
-0.0720737
-0.0784539
-0.0768493
-0.0752805
-0.0737466
-0.072247
-0.0785675
-0.0769773
-0.0754221
-0.0739009
-0.0724132
-0.07866
-0.0770861
-0.0755461
-0.0740393
-0.072565
-0.0787299
-0.077174
-0.0756509
-0.07416
-0.0727006
-0.0787751
-0.0772389
-0.0757345
-0.0742611
-0.0728183
-0.0787937
-0.077279
-0.0757948
-0.0743406
-0.0729158
-0.0787838
-0.0772923
-0.0758301
-0.0743966
-0.0729913
-0.078744
-0.0772774
-0.0758387
-0.0744274
-0.0730432
-0.0786733
-0.077233
-0.0758193
-0.0744317
-0.07307
-0.0785709
-0.0771585
-0.0757711
-0.0744086
-0.0730706
-0.0784366
-0.0770533
-0.0756936
-0.0743574
-0.0730444
-0.0782705
-0.0769175
-0.0755867
-0.0742779
-0.0729909
-0.0780733
-0.0767516
-0.0754506
-0.0741702
-0.0729103
-0.0778459
-0.0765563
-0.075286
-0.0740349
-0.0728028
-0.0775896
-0.0763328
-0.0750939
-0.0738727
-0.0726692
-0.0773061
-0.0760826
-0.0748755
-0.0736848
-0.0725104
-0.076997
-0.0758073
-0.0746324
-0.0734726
-0.0723277
-0.0766646
-0.0755087
-0.0743663
-0.0732376
-0.0721225
-0.0763109
-0.0751889
-0.0740791
-0.0729815
-0.0718964
-0.0759381
-0.07485
-0.0737726
-0.0727063
-0.0716511
-0.0755486
-0.074494
-0.073449
-0.0724138
-0.0713885
-0.0751446
-0.0741233
-0.0731104
-0.072106
-0.0711103
-0.0747285
-0.07374
-0.0727587
-0.0717848
-0.0708184
-0.0743023
-0.0733462
-0.0723961
-0.0714522
-0.0705148
-0.0738684
-0.072944
-0.0720245
-0.0711102
-0.0702013
-0.0734288
-0.0725355
-0.0716459
-0.0707606
-0.0698796
-0.0729855
-0.0721225
-0.0712623
-0.0704052
-0.0695517
-0.0725404
-0.071707
-0.0708753
-0.0700459
-0.0692191
-0.0720954
-0.0712907
-0.0704869
-0.0696843
-0.0688835
-0.0716522
-0.0708753
-0.0700985
-0.0693221
-0.0685465
-0.0712125
-0.0704625
-0.0697118
-0.0689607
-0.0682097
-0.0707777
-0.0700538
-0.0693283
-0.0686017
-0.0678744
-0.0703494
-0.0696505
-0.0689494
-0.0682464
-0.067542
-0.0699288
-0.0692541
-0.0685764
-0.0678962
-0.0672138
-0.0695174
-0.0688658
-0.0682106
-0.0675522
-0.0668911
-0.0691163
-0.0684868
-0.0678531
-0.0672157
-0.0665748
-0.0687265
-0.0681182
-0.0675051
-0.0668877
-0.0662663
-0.0683493
-0.0677611
-0.0671676
-0.0665692
-0.0659664
-0.0679855
-0.0674164
-0.0668416
-0.0662613
-0.065676
-0.067636
-0.0670851
-0.0665278
-0.0659647
-0.0653962
-0.0673017
-0.0667679
-0.0662273
-0.0656804
-0.0651277
-0.0669834
-0.0664656
-0.0659407
-0.0654091
-0.0648712
-0.0666817
-0.0661791
-0.0656688
-0.0651515
-0.0646276
-0.0663974
-0.0659088
-0.0654122
-0.0649083
-0.0643974
-0.066131
-0.0656554
-0.0651716
-0.06468
-0.0641812
-0.0658831
-0.0654195
-0.0649474
-0.0644673
-0.0639796
-0.0656542
-0.0652016
-0.0647403
-0.0642706
-0.0637931
-0.0654447
-0.0650021
-0.0645505
-0.0640904
-0.0636222
-0.0652551
-0.0648215
-0.0643786
-0.0639271
-0.0634672
-0.0650856
-0.06466
-0.064225
-0.063781
-0.0633286
-0.0649367
-0.064518
-0.0640898
-0.0636525
-0.0632066
-0.0648085
-0.0643958
-0.0639735
-0.0635419
-0.0631015
-0.0647014
-0.0642937
-0.0638762
-0.0634493
-0.0630136
-0.0646154
-0.0642117
-0.0637981
-0.063375
-0.062943
-0.0625025
-0.0645508
-0.0641501
-0.0637394
-0.0633192
-0.06289
-0.0624522
-0.0645077
-0.0641089
-0.0637002
-0.0632819
-0.0628545
-0.0624185
-0.0644862
-0.0640884
-0.0636806
-0.0632632
-0.0628368
-0.0624017
-0.0779388
-0.0781855
-0.0783267
-0.0784539
-0.0785675
-0.07866
-0.0787299
-0.0787751
-0.0787937
-0.0787838
-0.078744
-0.0786733
-0.0785709
-0.0784366
-0.0782705
-0.0780733
-0.0778459
-0.0775896
-0.077306
-0.076997
-0.0766646
-0.0763109
-0.0759381
-0.0755486
-0.0751446
-0.0747285
-0.0743023
-0.0738684
-0.0734288
-0.0729855
-0.0725404
-0.0720954
-0.0716522
-0.0712125
-0.0707777
-0.0703494
-0.0699288
-0.0695174
-0.0691163
-0.0687265
-0.0683493
-0.0679855
-0.067636
-0.0673017
-0.0669834
-0.0666817
-0.0663974
-0.066131
-0.0658831
-0.0656542
-0.0654447
-0.0652551
-0.0650856
-0.0649367
-0.0648085
-0.0647014
-0.0646154
-0.0645508
-0.0645077
-0.0644862
-0.0762999
-0.0765565
-0.0767094
-0.0768493
-0.0769773
-0.0770861
-0.0771739
-0.0772389
-0.077279
-0.0772923
-0.0772774
-0.077233
-0.0771584
-0.0770533
-0.0769175
-0.0767516
-0.0765563
-0.0763328
-0.0760826
-0.0758073
-0.0755087
-0.0751889
-0.0748499
-0.074494
-0.0741233
-0.07374
-0.0733462
-0.072944
-0.0725355
-0.0721225
-0.071707
-0.0712907
-0.0708753
-0.0704625
-0.0700538
-0.0696505
-0.0692541
-0.0688658
-0.0684868
-0.0681182
-0.0677611
-0.0674164
-0.0670851
-0.0667679
-0.0664656
-0.0661791
-0.0659088
-0.0656554
-0.0654195
-0.0652016
-0.0650021
-0.0648215
-0.06466
-0.064518
-0.0643959
-0.0642937
-0.0642117
-0.0641501
-0.0641089
-0.0640884
-0.0746991
-0.0749648
-0.0751287
-0.0752804
-0.075422
-0.0755461
-0.0756509
-0.0757345
-0.0757948
-0.0758301
-0.0758387
-0.0758193
-0.0757711
-0.0756936
-0.0755867
-0.0754506
-0.075286
-0.0750939
-0.0748755
-0.0746324
-0.0743663
-0.0740791
-0.0737726
-0.073449
-0.0731104
-0.0727587
-0.0723961
-0.0720245
-0.0716459
-0.0712623
-0.0708753
-0.0704868
-0.0700985
-0.0697118
-0.0693283
-0.0689494
-0.0685764
-0.0682106
-0.0678531
-0.0675051
-0.0671676
-0.0668415
-0.0665278
-0.0662273
-0.0659407
-0.0656688
-0.0654122
-0.0651716
-0.0649474
-0.0647403
-0.0645505
-0.0643786
-0.064225
-0.0640898
-0.0639735
-0.0638762
-0.0637981
-0.0637394
-0.0637002
-0.0636806
-0.0731356
-0.0734096
-0.0735837
-0.0737466
-0.0739009
-0.0740393
-0.07416
-0.0742611
-0.0743406
-0.0743966
-0.0744274
-0.0744317
-0.0744086
-0.0743574
-0.0742779
-0.0741702
-0.0740349
-0.0738727
-0.0736848
-0.0734726
-0.0732376
-0.0729815
-0.0727063
-0.0724138
-0.0721059
-0.0717848
-0.0714522
-0.0711102
-0.0707606
-0.0704052
-0.0700459
-0.0696843
-0.0693221
-0.0689607
-0.0686017
-0.0682464
-0.0678962
-0.0675522
-0.0672157
-0.0668876
-0.0665692
-0.0662613
-0.0659647
-0.0656804
-0.0654091
-0.0651515
-0.0649083
-0.06468
-0.0644673
-0.0642706
-0.0640904
-0.0639271
-0.063781
-0.0636525
-0.0635419
-0.0634493
-0.063375
-0.0633192
-0.0632819
-0.0632632
-0.0716084
-0.0718902
-0.0720737
-0.072247
-0.0724132
-0.072565
-0.0727006
-0.0728182
-0.0729158
-0.0729913
-0.0730432
-0.0730699
-0.0730706
-0.0730444
-0.0729909
-0.0729103
-0.0728028
-0.0726692
-0.0725104
-0.0723277
-0.0721225
-0.0718964
-0.0716511
-0.0713885
-0.0711103
-0.0708184
-0.0705148
-0.0702013
-0.0698796
-0.0695517
-0.0692191
-0.0688835
-0.0685465
-0.0682097
-0.0678744
-0.067542
-0.0672138
-0.066891
-0.0665748
-0.0662663
-0.0659664
-0.065676
-0.0653962
-0.0651277
-0.0648712
-0.0646276
-0.0643974
-0.0641812
-0.0639796
-0.0637932
-0.0636222
-0.0634673
-0.0633286
-0.0632066
-0.0631015
-0.0630136
-0.062943
-0.06289
-0.0628545
-0.0628368
-0.0778692
-0.0762329
-0.0746346
-0.0730734
-0.0715484
-0.0789258
-0.0772627
-0.0756383
-0.0740518
-0.0725023
-0.0709888
-0.0782861
-0.0766365
-0.0750255
-0.0734521
-0.0719154
-0.0704146
-0.0777426
-0.0761047
-0.0745052
-0.072943
-0.0714173
-0.0772245
-0.0755977
-0.074009
-0.0724576
-0.0709424
-0.0783709
-0.0767162
-0.0751003
-0.0735224
-0.0719815
-0.0704766
-0.077868
-0.0762242
-0.074619
-0.0730514
-0.0715207
-0.0773842
-0.0757508
-0.0741558
-0.0725983
-0.0710775
-0.0785816
-0.0769191
-0.0752958
-0.0737107
-0.0721629
-0.0706516
-0.0781256
-0.0764729
-0.0748593
-0.0732838
-0.0717453
-0.0702431
-0.0776891
-0.076046
-0.0744418
-0.0728753
-0.0713459
-0.0772727
-0.0756387
-0.0740434
-0.0724857
-0.0709648
-0.0785413
-0.0768766
-0.0752513
-0.0736645
-0.0721151
-0.0706024
-0.0781572
-0.076501
-0.074884
-0.0733052
-0.0717639
-0.070259
-0.0777944
-0.0761462
-0.074537
-0.072966
-0.0714322
-0.0699346
-0.0774531
-0.0758125
-0.0742107
-0.072647
-0.0711202
-0.0771336
-0.0755
-0.0739052
-0.0723483
-0.0708282
-0.076836
-0.0752091
-0.0736208
-0.0720702
-0.0705564
-0.0782208
-0.0765606
-0.0749398
-0.0733576
-0.0718129
-0.0703048
-0.0779619
-0.0763075
-0.0746924
-0.0731157
-0.0715765
-0.0700737
-0.077726
-0.0760769
-0.074467
-0.0728954
-0.0713612
-0.0698633
-0.0775133
-0.075869
-0.0742638
-0.0726968
-0.071167
-0.0696735
-0.0773238
-0.0756838
-0.0740829
-0.0725199
-0.0709942
-0.0771578
-0.0755216
-0.0739243
-0.072365
-0.0708427
-0.0770154
-0.0753823
-0.0737882
-0.072232
-0.0707127
-0.0768965
-0.0752662
-0.0736747
-0.0721211
-0.0706043
-0.0768013
-0.0751732
-0.0735838
-0.0720322
-0.0705175
-0.0767299
-0.0751034
-0.0735156
-0.0719656
-0.0704524
-0.0766822
-0.0750568
-0.0734701
-0.0719211
-0.0704089
-0.0783229
-0.0766584
-0.0750335
-0.0734473
-0.0718989
-0.0703872
)
;

boundaryField
{
    inlet
    {
        type            zeroGradient;
    }
    outlet
    {
        type            fixedValue;
        value           nonuniform 0();
    }
    cylinder
    {
        type            zeroGradient;
    }
    top
    {
        type            symmetryPlane;
    }
    bottom
    {
        type            symmetryPlane;
    }
    defaultFaces
    {
        type            empty;
    }
    procBoundary31to30
    {
        type            processor;
        value           nonuniform List<scalar> 
192
(
-0.0783229
-0.0783229
-0.0783473
-0.0783961
-0.0784692
-0.0785666
-0.0786882
-0.078834
-0.0790039
-0.0791977
-0.0794153
-0.0796567
-0.0799215
-0.0785025
-0.0785025
-0.0788069
-0.0791337
-0.0794828
-0.0798537
-0.0802464
-0.0789463
-0.0789463
-0.079372
-0.0798181
-0.0802843
-0.079057
-0.079057
-0.0795515
-0.0800653
-0.0788903
-0.0788903
-0.0794197
-0.079975
-0.0789258
-0.0789258
-0.0795444
-0.0796168
-0.0798528
-0.0799815
-0.0800951
-0.0801932
-0.0802685
-0.0803193
-0.0803436
-0.0803394
-0.080305
-0.080239
-0.0801405
-0.0800088
-0.0798438
-0.079646
-0.0794159
-0.0791549
-0.0788642
-0.0785458
-0.0782017
-0.0778339
-0.0774449
-0.0770369
-0.0766125
-0.076174
-0.0757237
-0.0752641
-0.0747973
-0.0743256
-0.0738509
-0.0733754
-0.0729007
-0.0724288
-0.0719612
-0.0714996
-0.0710455
-0.0706001
-0.0701649
-0.069741
-0.0693295
-0.0689316
-0.0685481
-0.0681801
-0.0678282
-0.0674934
-0.0671763
-0.0668776
-0.0665979
-0.0663377
-0.0660975
-0.0658778
-0.0656789
-0.0655013
-0.0653452
-0.065211
-0.0650987
-0.0650087
-0.0649411
-0.0648959
-0.0648733
-0.0796168
-0.0798528
-0.0799815
-0.0800951
-0.0801932
-0.0802685
-0.0803193
-0.0803435
-0.0803394
-0.080305
-0.080239
-0.0801404
-0.0800088
-0.0798438
-0.079646
-0.0794159
-0.0791548
-0.0788642
-0.0785458
-0.0782017
-0.0778339
-0.0774449
-0.0770369
-0.0766125
-0.076174
-0.0757237
-0.0752641
-0.0747973
-0.0743256
-0.0738509
-0.0733754
-0.0729007
-0.0724288
-0.0719612
-0.0714996
-0.0710455
-0.0706001
-0.0701649
-0.069741
-0.0693295
-0.0689316
-0.0685481
-0.0681801
-0.0678282
-0.0674934
-0.0671763
-0.0668776
-0.0665979
-0.0663377
-0.0660975
-0.0658778
-0.0656789
-0.0655013
-0.0653452
-0.065211
-0.0650987
-0.0650087
-0.0649411
-0.0648959
-0.0648734
-0.0795444
-0.0795444
-0.0806285
-0.079975
-0.0794197
-0.0788903
-0.0788903
-0.0800653
-0.0795515
-0.079057
-0.079057
-0.0802843
-0.0798181
-0.079372
-0.0789463
-0.0789463
-0.0802464
-0.0798537
-0.0794828
-0.0791337
-0.0788069
-0.0785025
-0.0785025
-0.0799215
-0.0796567
-0.0794153
-0.0791977
-0.0790039
-0.078834
-0.0786882
-0.0785666
-0.0784692
-0.0783961
-0.0783473
-0.0783473
-0.0800281
)
;
    }
    procBoundary31to32
    {
        type            processor;
        value           nonuniform List<scalar> 
191
(
-0.0689114
-0.0689326
-0.0689751
-0.0690388
-0.0691236
-0.0692295
-0.0693565
-0.0695046
-0.0695046
-0.0682153
-0.0684008
-0.0686066
-0.0688324
-0.0690783
-0.0693441
-0.0696296
-0.0696296
-0.0684724
-0.0687895
-0.0691254
-0.0694798
-0.0698525
-0.0698525
-0.0687763
-0.0691758
-0.0695923
-0.0700259
-0.0700259
-0.069007
-0.0694627
-0.0699273
-0.0699273
-0.0689487
-0.0695105
-0.0700588
-0.0701168
-0.0704055
-0.0705979
-0.0707809
-0.0709582
-0.0711225
-0.0712722
-0.0714053
-0.0715199
-0.0716138
-0.0716856
-0.0717336
-0.0717567
-0.0717542
-0.0717255
-0.0716706
-0.0715897
-0.0714833
-0.0713524
-0.0711979
-0.0710212
-0.0708238
-0.0706073
-0.0703733
-0.0701236
-0.0698599
-0.0695842
-0.0692981
-0.0690035
-0.0687019
-0.0683951
-0.0680847
-0.0677722
-0.0674591
-0.0671468
-0.0668366
-0.0665298
-0.0662276
-0.0659311
-0.0656414
-0.0653595
-0.0650863
-0.0648227
-0.0645696
-0.0643276
-0.0640975
-0.06388
-0.0636756
-0.0634849
-0.0633083
-0.0631465
-0.0629996
-0.0628682
-0.0627526
-0.0626529
-0.0625695
-0.0625695
-0.0620541
-0.0620063
-0.0619745
-0.0619585
-0.0701167
-0.0704055
-0.0705979
-0.0707809
-0.0709582
-0.0711225
-0.0712722
-0.0714053
-0.0715198
-0.0716138
-0.0716855
-0.0717336
-0.0717567
-0.0717542
-0.0717255
-0.0716706
-0.0715897
-0.0714833
-0.0713524
-0.0711979
-0.0710212
-0.0708238
-0.0706073
-0.0703733
-0.0701236
-0.0698599
-0.0695842
-0.0692981
-0.0690034
-0.0687019
-0.0683951
-0.0680847
-0.0677722
-0.0674591
-0.0671468
-0.0668366
-0.0665298
-0.0662276
-0.0659311
-0.0656414
-0.0653595
-0.0650863
-0.0648227
-0.0645696
-0.0643276
-0.0640975
-0.06388
-0.0636756
-0.0634849
-0.0633083
-0.0631465
-0.0629996
-0.0628682
-0.0627526
-0.0626529
-0.0625695
-0.0625025
-0.0624522
-0.0624185
-0.0624017
-0.0700588
-0.0695105
-0.0689487
-0.0699273
-0.0699273
-0.0694626
-0.069007
-0.0700259
-0.0700259
-0.0695923
-0.0691757
-0.0687763
-0.0698525
-0.0698525
-0.0694798
-0.0691254
-0.0687895
-0.0684724
-0.0696296
-0.0696296
-0.0693441
-0.0690783
-0.0688324
-0.0686066
-0.0684008
-0.0682153
-0.0695046
-0.0695046
-0.0693565
-0.0692295
-0.0691236
-0.0690388
-0.0689751
-0.0689326
-0.0689114
)
;
    }
}


// ************************************************************************* //
