/*--------------------------------*- C++ -*----------------------------------*\
  =========                 |
  \\      /  F ield         | OpenFOAM: The Open Source CFD Toolbox
   \\    /   O peration     | Website:  https://openfoam.org
    \\  /    A nd           | Version:  7
     \\/     M anipulation  |
\*---------------------------------------------------------------------------*/
FoamFile
{
    version     2.0;
    format      ascii;
    class       surfaceScalarField;
    location    "15";
    object      phi;
}
// * * * * * * * * * * * * * * * * * * * * * * * * * * * * * * * * * * * * * //

dimensions      [0 3 -1 0 0 0 0];

internalField   nonuniform List<scalar> 
236
(
-6.76825e-05
2.13491e-05
5.0294e-07
2.39973e-05
6.209e-07
-6.68089e-05
4.29242e-05
4.83007e-05
-6.50566e-05
6.39427e-05
7.19709e-05
-6.24643e-05
-8.51904e-05
9.46969e-05
0.00010306
-8.05708e-05
0.000116179
0.000126379
-7.49551e-05
0.000136131
0.000147971
-6.84473e-05
0.000154283
0.000167514
-6.1165e-05
0.000170383
0.000184695
-5.32361e-05
-6.77539e-05
0.000199212
0.000209753
-5.6355e-05
0.000210775
0.000221015
-4.42856e-05
0.000219098
0.000228445
-3.1662e-05
-3.48565e-05
0.000231639
0.00023335
-1.70963e-05
0.000230176
0.000228611
1.59444e-06
0.000217587
3.94209e-05
0.000199536
0.000178538
6.84934e-05
0.000103505
0.000143527
0.000102117
0.000146725
4.24182e-05
0.000270932
-3.31045e-05
-0.000121901
0.000344377
0.00046086
-0.000238385
-0.000372127
0.000568531
-0.000542299
0.000887961
-0.000964645
0.0013103
-0.00150792
0.00181483
-0.00214265
0.00234319
-0.00280514
0.00281296
-0.00341935
0.00315545
0.00339257
-0.00416497
0.00352944
-0.00454431
0.00369191
0.00356156
0.00454425
0.00356526
0.00353304
0.00416439
0.00369581
0.00315823
0.00341798
0.00339579
0.00281493
0.00280321
0.00234422
0.00214036
0.00181503
0.00150561
0.00131001
0.000962601
0.000887531
0.000540681
0.000568215
0.00023721
0.000370576
0.000344288
3.22954e-05
0.000460711
0.000120786
0.000271054
-4.32099e-05
0.000147067
-0.000144109
-0.000102922
6.8965e-05
-0.000199996
0.00010404
-0.000179183
4.00349e-05
-0.000218145
2.20442e-06
-0.000230685
-0.000229287
-1.64189e-05
-0.000232277
-0.000234157
-3.10799e-05
-0.000219695
-3.41394e-05
-0.000229217
-4.36909e-05
-0.000211502
-0.000221923
-5.57674e-05
-0.000200066
-5.27923e-05
-0.000171157
-0.000185668
-6.07503e-05
-0.000155162
-0.000168596
-6.80714e-05
-0.000137103
-0.000149152
-7.4626e-05
-0.000117232
-0.000127644
-8.02944e-05
-9.5817e-05
-6.22982e-05
-6.48836e-05
-7.31439e-05
-6.49361e-05
-4.39011e-05
-4.95119e-05
-6.67359e-05
-2.23478e-05
-2.52314e-05
-6.76581e-05
0.00352218
-0.0242585
0.00329332
-0.0238355
0.00306506
-0.0234015
0.00284343
-0.0230563
0.0026336
-0.0227513
0.00243308
-0.0224957
0.00224042
-0.022277
0.00205451
-0.0220782
0.00187534
-0.0219036
0.00170218
0.00153334
0.00136831
0.00120718
0.00104963
0.000895018
0.000742737
0.000591839
0.000442748
0.000294508
0.000147372
0.00337161
0.003144
0.00292405
0.00271133
0.00251002
0.00231809
0.00213372
0.00195602
0.00337469
0.0242688
0.00314687
0.0238415
0.00292667
0.0234164
0.00271313
0.0230574
0.00251185
0.0227549
0.00231926
0.0224914
0.002134
0.0222654
0.00195613
0.0220577
0.00178462
0.0219015
0.00161749
0.0217281
0.00145605
0.0216006
0.0214631
0.00352543
0.00329632
0.00306776
0.00284525
0.00263536
0.0024342
0.00224063
0.00205457
0.00187502
0.00169999
0.0015307
0.00136526
0.00120433
0.00104678
0.000892096
0.000739697
0.000589316
0.000440757
0.000293456
0.000146651
)
;

boundaryField
{
    inlet
    {
        type            calculated;
        value           nonuniform 0();
    }
    outlet
    {
        type            calculated;
        value           nonuniform 0();
    }
    cylinder
    {
        type            calculated;
        value           nonuniform 0();
    }
    top
    {
        type            symmetryPlane;
        value           uniform 0;
    }
    bottom
    {
        type            symmetryPlane;
        value           uniform 0;
    }
    defaultFaces
    {
        type            empty;
        value           nonuniform 0();
    }
    procBoundary27to26
    {
        type            processor;
        value           nonuniform List<scalar> 
134
(
4.58304e-05
4.52338e-05
4.40382e-05
4.22732e-05
8.41338e-05
5.90887e-05
5.50031e-05
5.02953e-05
4.50653e-05
3.94217e-05
0.000184197
4.47926e-05
3.59625e-05
2.68574e-05
0.000223902
1.85593e-05
4.98451e-06
0.000223597
-2.13696e-05
-4.25454e-05
0.000173588
-0.000100514
9.73156e-05
-0.000195409
-0.000250857
-0.000126624
-0.000428099
-0.000378817
-0.000689111
-0.000741149
-0.00104881
-0.00122613
-0.00150202
-0.00182073
-0.00200959
-0.00247625
-0.00249958
-0.00311852
-0.00289429
-0.00368051
-0.0039349
-0.00334962
-0.00434479
-0.00342196
-0.00468391
-0.00468409
-0.00342542
-0.00434455
-0.0036796
-0.00335288
-0.00393414
-0.00289661
-0.00311707
-0.00250107
-0.00247436
-0.00201022
-0.00181865
-0.001502
-0.00122415
-0.00104846
-0.000739499
-0.000688713
-0.000377581
-0.000427844
-0.000125775
-0.000250808
-0.000195549
9.78654e-05
-0.000100823
0.000173974
-4.29433e-05
-2.18852e-05
0.000223988
4.49229e-06
1.80111e-05
0.00022437
2.64048e-05
3.5498e-05
4.43316e-05
0.000184858
3.90909e-05
4.47549e-05
5.00128e-05
5.47548e-05
5.88796e-05
8.50248e-05
4.21569e-05
4.39537e-05
4.51825e-05
4.58132e-05
-0.0217607
-0.021624
-0.0214915
-0.021369
-0.0212679
-0.0211804
-0.0211145
-0.021037
-0.0209886
-0.0209445
-0.0209318
-0.0209037
-0.0240686
-0.0236079
-0.0231816
-0.0228436
-0.02255
-0.0223038
-0.0220926
-0.0219005
0.00178495
-0.0217325
-0.0240782
-0.0236137
-0.0231962
-0.0228438
-0.0225536
-0.0222988
-0.0220802
-0.0218798
-0.02173
-0.021561
-0.0214391
-0.0213054
0.00129831
-0.0213579
-0.0212604
-0.0211778
-0.0210989
-0.0210302
-0.0209846
-0.020959
-0.020932
-0.0209083
)
;
    }
    procBoundary27to28
    {
        type            processor;
        value           nonuniform List<scalar> 
124
(
-9.23007e-05
-9.11123e-05
-8.87268e-05
-7.83443e-05
-0.000109906
-0.00010389
-9.6547e-05
-8.79897e-05
-7.83461e-05
-0.00019505
-8.24569e-05
-6.76171e-05
-5.17153e-05
-0.000232456
-3.57503e-05
-1.23578e-05
1.26188e-05
-0.000203725
6.46077e-05
-0.00014798
0.000149368
0.000206424
2.70868e-05
0.000365746
0.000229551
0.000603436
0.000738703
0.000731543
0.00112106
0.00121398
0.00160424
0.00180864
0.00214884
0.00246915
0.00267918
0.00312156
0.00311074
0.00369778
0.00395122
0.00360631
0.00438184
0.00438148
0.00369657
0.00360996
0.00395022
0.00311323
0.00311968
0.00268068
0.00246674
0.00214936
0.00180604
0.00160408
0.00121154
0.00112063
0.000729507
0.00073832
0.000603209
0.000228079
0.000365827
2.60131e-05
0.000206779
0.000149949
-0.000148831
6.53124e-05
-0.000204461
1.33464e-05
-1.15496e-05
-3.48957e-05
-0.0002334
-5.09851e-05
-6.68983e-05
-0.000210792
-6.71907e-05
-7.78219e-05
-8.75163e-05
-9.61338e-05
-0.000103544
-0.000104394
-8.49712e-05
-8.85681e-05
-9.10163e-05
-9.22686e-05
0.0244283
0.0240644
0.0236298
0.0232779
0.0229611
0.0226962
0.0224697
0.0222641
0.0220828
0.0219338
0.0217929
0.0216565
0.0215301
0.0214255
0.0213351
0.0212668
0.0211879
0.0211377
0.0210927
0.021079
0.021051
0.0244391
0.0240706
0.023645
0.0232799
0.0229648
0.0226925
0.022459
0.0222437
0.0220811
0.0219032
0.0217699
0.0216285
0.0215189
0.021418
0.0213325
0.0212513
0.0211806
0.0211332
0.0211063
0.0210789
0.0210549
)
;
    }
}


// ************************************************************************* //
