/*--------------------------------*- C++ -*----------------------------------*\
  =========                 |
  \\      /  F ield         | OpenFOAM: The Open Source CFD Toolbox
   \\    /   O peration     | Website:  https://openfoam.org
    \\  /    A nd           | Version:  7
     \\/     M anipulation  |
\*---------------------------------------------------------------------------*/
FoamFile
{
    version     2.0;
    format      ascii;
    class       surfaceScalarField;
    location    "60";
    object      phi;
}
// * * * * * * * * * * * * * * * * * * * * * * * * * * * * * * * * * * * * * //

dimensions      [0 3 -1 0 0 0 0];

internalField   nonuniform List<scalar> 
652
(
0.00197325
-4.69018e-06
2.98823e-11
0.00197781
-4.56361e-06
2.98785e-11
0.00198226
-4.4458e-06
2.97483e-11
-4.28583e-06
2.9488e-11
0.00197437
-9.38551e-06
0.00197894
-9.13299e-06
0.0019834
-8.89803e-06
-8.57885e-06
0.00197662
0.0019812
-1.37141e-05
0.00198566
-1.33633e-05
-1.28864e-05
0.00198457
-1.83131e-05
0.00198906
-1.78485e-05
-1.72161e-05
0.00198905
-2.29366e-05
0.00199357
-2.23608e-05
-2.15758e-05
0.00199463
-2.75918e-05
0.00199918
-2.69079e-05
-2.59738e-05
0.00200129
-3.22863e-05
0.00200588
-3.14983e-05
-3.04191e-05
0.00200902
-3.70288e-05
0.00201366
-3.6141e-05
-3.49212e-05
0.00201778
-4.18286e-05
0.00202248
-4.0846e-05
-3.94904e-05
0.00202755
-4.6696e-05
0.00203233
-4.56242e-05
-4.41376e-05
0.00203831
-5.16424e-05
0.00204318
-5.04876e-05
-4.88748e-05
0.00205003
-5.66805e-05
0.00205499
-5.54494e-05
-5.37149e-05
0.00206268
-6.18238e-05
0.00206775
-6.05239e-05
-5.86715e-05
0.00207621
-6.70875e-05
0.00208141
-6.57269e-05
-6.37594e-05
0.0020906
-7.24877e-05
0.00209595
-7.10757e-05
-6.89941e-05
0.0021058
-7.80419e-05
0.00211131
-7.65891e-05
-7.43922e-05
0.00212177
-8.37691e-05
0.00212747
-8.22877e-05
-7.99709e-05
0.00213848
-8.96894e-05
0.00214439
-8.81941e-05
-8.57481e-05
0.00215587
-9.58242e-05
0.00216201
-9.43328e-05
-9.17424e-05
0.00217391
-0.000102196
0.00218031
-0.000100731
-9.79724e-05
0.00219255
-0.00010883
0.00219924
-0.000107418
-0.000104457
0.00221174
-0.000115751
0.00221875
-0.000114426
-0.000111216
0.00223143
-0.000122985
0.0022388
-0.000121796
-0.000118263
0.0022516
-0.000130583
0.00225928
-0.000129478
-0.000125697
0.00642932
-0.0001393
0.00643735
-0.000137506
-0.000134932
0.00660886
-0.000146283
0.00661571
-0.000144354
-0.000142207
0.00679579
-0.000151635
0.00680113
-0.000149698
-0.000147759
0.00698739
-0.000155375
0.00699119
-0.000153497
-0.000151691
0.00718114
-0.000157558
0.00718342
-0.000155776
-0.000154083
0.00737463
-0.000158262
0.00737545
-0.0001566
-0.000155024
0.00756561
-0.00015759
0.00756508
-0.000156065
-0.000154617
0.00775204
-0.000155664
0.00775026
-0.000154286
-0.000152978
0.0079321
-0.000152619
0.00792921
-0.000151394
-0.000150235
0.00810423
-0.0001486
0.00810037
-0.00014753
-0.000146524
0.00826713
-0.000143757
0.00826244
-0.000142841
-0.000141989
0.0084198
-0.00013824
0.00841443
-0.000137473
-0.000136771
0.00856148
-0.000132195
0.00855558
-0.000131569
-0.000131011
0.00869171
-0.000125762
0.0086854
-0.000125266
-0.000124844
0.00881025
-0.00011907
0.00880367
-0.000118693
-0.000118394
0.0089171
-0.000112235
0.00891038
-0.000111964
-0.000111775
0.00901248
-0.00010536
0.0090057
-0.000105181
-0.000105088
0.00909676
-9.85331e-05
0.00909001
-9.84324e-05
-9.84209e-05
0.00917046
-9.18265e-05
0.00916382
-9.17907e-05
-9.18464e-05
0.00923422
-8.52976e-05
0.00922774
-8.53144e-05
-8.54233e-05
0.00928875
-7.89899e-05
0.00928248
-7.90473e-05
-7.91965e-05
0.00933484
-7.29335e-05
0.00932881
-7.3021e-05
-7.31986e-05
0.00937329
-6.71468e-05
0.00936753
-6.7255e-05
-6.74505e-05
0.00940493
-6.16378e-05
0.00939943
-6.17586e-05
-6.19634e-05
0.00943054
-5.64061e-05
0.00942532
-5.6533e-05
-5.67394e-05
0.00945092
-5.14444e-05
0.00944596
-5.15717e-05
-5.17738e-05
0.0094668
-4.67397e-05
0.00946209
-4.68633e-05
-4.70563e-05
0.00947887
-4.22752e-05
0.00947439
-4.2392e-05
-4.25725e-05
0.00948776
-3.80315e-05
0.00948351
-3.81392e-05
-3.83049e-05
0.00949407
-3.39871e-05
0.00949001
-3.40846e-05
-3.4234e-05
0.0094983
-3.01206e-05
0.00949442
-3.02069e-05
-3.03395e-05
0.00950091
-2.64099e-05
0.00949718
-2.64851e-05
-2.66005e-05
0.0095023
-2.28339e-05
0.00949871
-2.28979e-05
-2.29967e-05
0.00950282
-1.93722e-05
0.00949934
-1.94255e-05
-1.95082e-05
0.00950275
-1.60054e-05
0.00949938
-1.60485e-05
-1.61161e-05
0.00950235
-1.27154e-05
0.00949905
-1.27488e-05
-1.28024e-05
0.0095018
-9.48532e-06
0.00949856
-9.50916e-06
-9.55043e-06
0.00950126
-6.2986e-06
0.00949806
-6.31318e-06
-6.34502e-06
0.00950084
-3.1404e-06
0.00949766
-3.13962e-06
-3.17657e-06
0.00950061
0.00949747
-0.0001393
0.00642932
0.000130583
-0.000146283
0.00660886
-0.000151635
0.00679579
-0.000155375
0.00698739
-0.000157558
0.00718114
-0.000158262
0.00737463
-0.00015759
0.00756561
-0.000155664
0.00775204
-0.000152619
0.0079321
-0.0001486
0.00810423
-0.000143757
0.00826713
-0.00013824
0.0084198
-0.000132195
0.00856148
-0.000125762
0.00869171
-0.00011907
0.00881025
-0.000112235
0.0089171
-0.00010536
0.00901248
-9.85331e-05
0.00909676
-9.18264e-05
0.00917046
-8.52976e-05
0.00923422
-7.89899e-05
0.00928875
-7.29335e-05
0.00933484
-6.71468e-05
0.00937329
-6.16378e-05
0.00940493
-5.64062e-05
0.00943054
-5.14444e-05
0.00945092
-4.67397e-05
0.0094668
-4.22752e-05
0.00947887
-3.80313e-05
0.00948776
-3.39871e-05
0.00949407
-3.01206e-05
0.0094983
-2.64099e-05
0.00950091
-2.28338e-05
0.0095023
-1.93722e-05
0.00950282
-1.60054e-05
0.00950275
-1.27154e-05
0.00950235
-9.4852e-06
0.0095018
-6.2986e-06
0.00950126
-3.1404e-06
0.00950084
0.00950061
-0.000137506
0.00643735
0.000129478
-0.000144354
0.00661571
-0.000149698
0.00680113
-0.000153497
0.00699119
-0.000155776
0.00718342
-0.0001566
0.00737545
-0.000156065
0.00756508
-0.000154286
0.00775026
-0.000151394
0.00792921
-0.00014753
0.00810037
-0.000142841
0.00826244
-0.000137473
0.00841443
-0.000131569
0.00855558
-0.000125266
0.0086854
-0.000118693
0.00880367
-0.000111964
0.00891038
-0.000105181
0.0090057
-9.84324e-05
0.00909001
-9.17907e-05
0.00916382
-8.53143e-05
0.00922774
-7.90473e-05
0.00928248
-7.3021e-05
0.00932881
-6.7255e-05
0.00936753
-6.17586e-05
0.00939943
-5.65328e-05
0.00942531
-5.15717e-05
0.00944596
-4.68633e-05
0.00946209
-4.2392e-05
0.00947439
-3.81392e-05
0.00948351
-3.40846e-05
0.00949001
-3.02069e-05
0.00949442
-2.64851e-05
0.00949718
-2.28979e-05
0.00949871
-1.94255e-05
0.00949934
-1.60485e-05
0.00949938
-1.27488e-05
0.00949905
-9.50916e-06
0.00949856
-6.31318e-06
0.00949806
-3.13956e-06
0.00949766
0.00949747
-0.000134932
0.000125697
-0.000142207
-0.000147759
-0.000151691
-0.000154083
-0.000155024
-0.000154617
-0.000152978
-0.000150235
-0.000146524
-0.000141989
-0.000136771
-0.000131011
-0.000124844
-0.000118394
-0.000111775
-0.000105088
-9.84209e-05
-9.18465e-05
-8.54232e-05
-7.91965e-05
-7.31986e-05
-6.74505e-05
-6.19634e-05
-5.67393e-05
-5.17738e-05
-4.70563e-05
-4.25725e-05
-3.83049e-05
-3.4234e-05
-3.03394e-05
-2.66005e-05
-2.29967e-05
-1.95082e-05
-1.6116e-05
-1.28024e-05
-9.55066e-06
-6.34502e-06
-3.17657e-06
0.0022516
0.000122985
0.00225928
0.000121796
0.000118263
0.00223143
0.000115751
0.0022388
0.000114426
0.000111216
0.00221174
0.00010883
0.00221875
0.000107418
0.000104457
0.00219255
0.000102196
0.00219924
0.000100731
9.79724e-05
0.00217391
9.58241e-05
0.00218031
9.43327e-05
9.17424e-05
0.00215587
8.96893e-05
0.00216201
8.8194e-05
8.57481e-05
0.00213848
8.3769e-05
0.00214439
8.22877e-05
7.99708e-05
0.00212177
7.80418e-05
0.00212747
7.65891e-05
7.43921e-05
0.0021058
7.24876e-05
0.00211131
7.10756e-05
6.8994e-05
0.0020906
6.70874e-05
0.00209595
6.57268e-05
6.37593e-05
0.00207621
6.18238e-05
0.00208141
6.05238e-05
5.86714e-05
0.00206268
5.66804e-05
0.00206775
5.54493e-05
5.37148e-05
0.00205003
5.16424e-05
0.00205499
5.04876e-05
4.88748e-05
0.00203831
4.66959e-05
0.00204318
4.56242e-05
4.41375e-05
0.00202755
4.18285e-05
0.00203233
4.0846e-05
3.94903e-05
0.00201778
3.70287e-05
0.00202248
3.6141e-05
3.49212e-05
0.00200902
3.22863e-05
0.00201366
3.14983e-05
3.04191e-05
0.00200129
2.75917e-05
0.00200588
2.69079e-05
2.59738e-05
0.00199463
2.29366e-05
0.00199918
2.23607e-05
2.15757e-05
0.00198443
1.88132e-05
0.00198905
1.8313e-05
0.00199357
1.78484e-05
1.7216e-05
0.00197997
1.40913e-05
0.00198457
1.3714e-05
0.00198906
1.33633e-05
1.28864e-05
0.00197662
9.38545e-06
0.0019812
9.13293e-06
0.00198566
8.89797e-06
8.57879e-06
0.00197437
4.69012e-06
0.00197894
4.56355e-06
0.0019834
4.44574e-06
4.28577e-06
0.00197325
0.00197781
0.00198226
)
;

boundaryField
{
    inlet
    {
        type            calculated;
        value           nonuniform 0();
    }
    outlet
    {
        type            calculated;
        value           nonuniform List<scalar> 
128
(
0.00644658
0.00662298
0.00680668
0.00699512
0.00718581
0.00737639
0.00756467
0.00774862
0.00792647
0.00809666
0.00825791
0.00840921
0.00854982
0.00867924
0.00879722
0.00890376
0.00899901
0.00908334
0.00915724
0.00922132
0.00927626
0.00932282
0.00936178
0.00939394
0.00942009
0.00944099
0.00945737
0.00946991
0.00947924
0.00948594
0.00949052
0.00949345
0.00949511
0.00949586
0.00949598
0.00949573
0.00949531
0.00949486
0.00949449
0.0094943
0.00198655
0.00198769
0.00198997
0.00199339
0.00199793
0.00200358
0.00201033
0.00201816
0.00202705
0.00203698
0.00204791
0.00205983
0.00207271
0.0020865
0.00210118
0.00211671
0.00213305
0.00215016
0.00216801
0.00218654
0.00220572
0.00222551
0.00224585
0.00226671
0.00226671
0.00224585
0.00222551
0.00220572
0.00218654
0.00216801
0.00215016
0.00213305
0.00211671
0.00210118
0.0020865
0.00207271
0.00205983
0.00204791
0.00203698
0.00202705
0.00201816
0.00201033
0.00200358
0.00199793
0.00199339
0.00198997
0.00198769
0.00198655
0.00644658
0.00662298
0.00680668
0.00699512
0.00718581
0.00737639
0.00756467
0.00774862
0.00792647
0.00809666
0.00825791
0.00840921
0.00854982
0.00867924
0.00879722
0.00890376
0.00899901
0.00908334
0.00915724
0.00922132
0.00927626
0.00932282
0.00936178
0.00939394
0.00942009
0.00944099
0.00945737
0.00946991
0.00947924
0.00948594
0.00949052
0.00949345
0.00949511
0.00949586
0.00949598
0.00949573
0.00949531
0.00949486
0.00949449
0.0094943
)
;
    }
    cylinder
    {
        type            calculated;
        value           nonuniform 0();
    }
    top
    {
        type            symmetryPlane;
        value           uniform 0;
    }
    bottom
    {
        type            symmetryPlane;
        value           uniform 0;
    }
    defaultFaces
    {
        type            empty;
        value           nonuniform 0();
    }
    procBoundary63to62
    {
        type            processor;
        value           nonuniform List<scalar> 
130
(
-0.00196856
-0.00196968
-0.00197191
-1.40913e-05
-0.00197997
-0.00198443
-0.00198998
-0.0019966
-0.00200427
-0.00201298
-0.00202268
-0.00203337
-0.00204499
-0.00205753
-0.00207095
-0.0020852
-0.00210024
-0.00211604
-0.00213256
-0.00214974
-0.00216754
-0.00218592
-0.00220482
-0.0022242
-0.002244
-0.0064206
-0.00660188
-0.00679043
-0.00698365
-0.00717896
-0.00737392
-0.00756628
-0.00775397
-0.00793515
-0.00810825
-0.00827198
-0.00842531
-0.00856753
-0.00869814
-0.00881694
-0.00892394
-0.00901936
-0.00910359
-0.00917717
-0.00924074
-0.00929506
-0.0093409
-0.00937908
-0.00941043
-0.00943577
-0.00945588
-0.0094715
-0.00948333
-0.00949201
-0.00949811
-0.00950216
-0.00950462
-0.00950587
-0.00950628
-0.00950612
-0.00950564
-0.00950503
-0.00950444
-0.00950399
-0.00950375
-0.0064206
-0.00660188
-0.00679043
-0.00698365
-0.00717896
-0.00737392
-0.00756628
-0.00775397
-0.00793515
-0.00810825
-0.00827198
-0.00842531
-0.00856753
-0.00869814
-0.00881694
-0.00892394
-0.00901936
-0.00910359
-0.00917717
-0.00924074
-0.00929506
-0.0093409
-0.00937908
-0.00941043
-0.00943577
-0.00945588
-0.0094715
-0.00948333
-0.00949201
-0.00949811
-0.00950216
-0.00950462
-0.00950587
-0.00950628
-0.00950612
-0.00950564
-0.00950503
-0.00950444
-0.00950399
-0.00950375
-0.002244
-0.0022242
-0.00220482
-0.00218592
-0.00216754
-0.00214974
-0.00213256
-0.00211604
-0.00210024
-0.0020852
-0.00207095
-0.00205753
-0.00204499
-0.00203337
-0.00202268
-0.00201298
-0.00200427
-0.0019966
-0.00198998
-2.35572e-05
-0.00197969
-0.00197525
-0.00197191
-0.00196968
-0.00196856
)
;
    }
}


// ************************************************************************* //
