/*--------------------------------*- C++ -*----------------------------------*\
  =========                 |
  \\      /  F ield         | OpenFOAM: The Open Source CFD Toolbox
   \\    /   O peration     | Website:  https://openfoam.org
    \\  /    A nd           | Version:  7
     \\/     M anipulation  |
\*---------------------------------------------------------------------------*/
FoamFile
{
    version     2.0;
    format      ascii;
    class       surfaceScalarField;
    location    "5";
    object      phi;
}
// * * * * * * * * * * * * * * * * * * * * * * * * * * * * * * * * * * * * * //

dimensions      [0 3 -1 0 0 0 0];

internalField   nonuniform List<scalar> 
266
(
0.000461523
-0.00475103
0.000436498
-0.00487332
0.000409712
-0.00500351
0.000381202
-0.00514168
0.000350991
-0.00528742
0.000319173
-0.00543973
0.000285946
0.000469623
-0.00408017
0.00045899
-0.00419865
0.000441443
-0.00430193
0.00041939
-0.00440109
0.000394209
-0.00450223
0.00036659
-0.00460845
0.000336849
-0.00472129
0.000305126
0.000271484
0.000235934
0.00019837
0.000326698
-0.00308384
0.000371203
-0.00346901
0.000393793
-0.00374229
0.000397947
-0.00393288
0.000388443
-0.00407067
0.000369672
-0.00417988
0.000344878
-0.00427714
0.000316085
0.000284382
0.000250278
2.81877e-05
-0.000438932
9.04788e-05
-0.00125469
0.000165975
-0.0020033
0.000236491
-0.0026392
0.000290039
-0.00313739
0.0003218
-0.00350077
0.000332628
-0.00375312
0.000326495
-0.00392675
0.000308156
0.000281683
2.68989e-05
-0.000465831
8.44515e-05
-0.00131224
0.000151575
-0.00207042
0.000210974
-0.0026986
0.000252154
-0.00317857
0.000271726
0.000271474
2.53405e-05
-0.000491171
7.76724e-05
-0.00136457
0.00013606
-0.00212881
0.00018431
2.35348e-05
7.02403e-05
2.35346e-05
0.000491172
7.02397e-05
0.00136458
0.00212881
2.53403e-05
0.000465832
7.76719e-05
0.00131224
0.000136059
0.00207042
0.000184308
0.0026986
0.00317857
2.68988e-05
0.000438933
8.4451e-05
0.00125469
0.000151574
0.0020033
0.000210972
0.0026392
0.000252152
0.00313739
0.000271723
0.00350077
0.00027147
0.00375312
0.00392675
2.81875e-05
9.04783e-05
0.000165974
0.00023649
0.000290037
0.00308384
0.000321797
0.00346901
0.000332625
0.00374229
0.000326491
0.00393288
0.000308152
0.00407067
0.000281677
0.00417988
0.00427714
0.000326696
0.0003712
0.00039379
0.000397943
0.000388438
0.000369667
0.00419865
0.000344872
0.00430193
0.000316079
0.00440109
0.000284376
0.00450224
0.000250271
0.00460846
0.00472129
0.000458985
0.000441437
0.000419385
0.000394203
0.000366584
0.000336842
0.000305118
0.00487332
0.000271475
0.00500351
0.000235926
0.00514168
0.000198361
0.00528743
0.00543974
0.00043649
0.000409704
0.000381194
0.000350982
0.000319164
0.000285937
0.000140907
4.3248e-05
-3.06283e-05
-7.31344e-05
-0.000106359
-0.000127497
-0.000140843
-0.000147546
-0.000149068
-0.000146529
-0.0198022
-0.000140742
-0.0197078
-0.00013237
-0.0196242
-0.000121928
-0.0195509
-0.000109826
-0.0194873
-9.63925e-05
-0.0194328
-8.18918e-05
-0.0193871
-6.65532e-05
-0.0193497
-5.05431e-05
-0.0193204
-3.40314e-05
-0.0192987
-1.71429e-05
-0.0192846
-0.019278
-0.000236573
-0.000222488
-0.000205843
-0.000187155
-0.000166833
-0.000145204
-0.000122532
-9.90376e-05
-7.489e-05
-5.02536e-05
-2.52489e-05
-0.000237515
0.0204533
-0.000250842
0.0202993
-0.000255818
0.0201535
-0.000254237
0.0200257
-0.000247427
0.0199078
-0.00023657
0.0198022
-0.000222486
0.0197078
-0.000205841
0.0196243
-0.000187153
0.0195509
-0.000166832
0.0194873
-0.000145203
0.0194328
-0.00012253
0.0193871
-9.90364e-05
0.0193497
-7.48891e-05
0.0193204
-5.0253e-05
0.0192987
-2.52486e-05
0.0192846
0.019278
0.000140897
4.32395e-05
-3.06351e-05
-7.31393e-05
-0.000106361
-0.000127498
-0.000140842
-0.000147545
-0.000149066
-0.000146527
-0.00014074
-0.000132368
-0.000121926
-0.000109825
-9.63909e-05
-8.18905e-05
-6.65521e-05
-5.05422e-05
-3.40308e-05
-1.71426e-05
)
;

boundaryField
{
    inlet
    {
        type            calculated;
        value           nonuniform 0();
    }
    outlet
    {
        type            calculated;
        value           nonuniform 0();
    }
    cylinder
    {
        type            calculated;
        value           uniform 0;
    }
    top
    {
        type            symmetryPlane;
        value           uniform 0;
    }
    bottom
    {
        type            symmetryPlane;
        value           uniform 0;
    }
    defaultFaces
    {
        type            empty;
        value           nonuniform 0();
    }
    procBoundary15to14
    {
        type            processor;
        value           nonuniform List<scalar> 
98
(
-0.00559706
-0.0048416
-0.00496987
-0.00510613
-0.00524986
0.000158178
-0.00539954
-0.00437229
-0.00447053
-0.00457435
0.000213981
-0.00468499
-0.00405233
-0.00415341
0.000249921
-0.00424537
-0.00352034
-0.00375286
0.000255702
-0.00391097
-0.00274685
0.000213448
-0.0032077
-0.000514706
-0.00141128
0.000119637
-0.00217821
-0.000514707
-0.00141128
-0.00217821
0.000119636
-0.00274685
-0.00320771
0.000213446
-0.00352035
-0.00375286
-0.00391097
0.000255698
-0.00405233
-0.00415341
-0.00424537
0.000249915
-0.00437229
-0.00447053
-0.00457435
-0.00468499
0.000213973
-0.0048416
-0.00496987
-0.00510613
-0.00524986
-0.00539955
0.000158168
-0.00559706
-0.0213726
-0.0210175
-0.0208551
-0.0206419
-0.0204532
-0.0202992
-0.0201534
-0.0200257
-0.0199078
0.000247429
-0.019813
-0.0197219
-0.0196409
-0.0195696
-0.0195076
-0.0194544
-0.0194098
-0.0193732
-0.0193445
-0.0193233
-0.0193096
-0.0193032
-0.0204288
-0.020286
-0.0201485
-0.0200273
-0.0199146
-0.0198131
-0.0197219
-0.0196409
-0.0195696
-0.0195076
-0.0194544
-0.0194098
-0.0193732
-0.0193445
-0.0193234
-0.0193096
-0.0193032
-0.0213726
-0.0210176
-0.0208552
0.000213071
-0.0206419
)
;
    }
    procBoundary15to16
    {
        type            processor;
        value           nonuniform List<scalar> 
90
(
0.00477419
0.00489834
0.0050303
0.00517019
0.00531764
0.00547155
0.00563029
0.00408023
0.00420928
0.00431948
0.00442314
0.00452742
-0.000484681
0.00463607
0.00301767
0.00342451
0.0037197
-0.000469687
0.00392872
0.000410744
0.0011924
0.0019278
-0.000260528
0.00256869
0.000410746
0.0011924
0.00192781
0.00256869
-0.000260527
0.00301767
0.00342451
0.0037197
0.00392873
0.00408017
-0.000469618
0.00420928
0.00431948
0.00442314
0.00452742
0.00463607
0.00475103
-0.000461515
0.00489835
0.0050303
0.00517019
0.00531764
0.00547156
0.00563029
0.0215177
0.0211152
0.020929
0.0206844
0.0204864
0.0203204
0.0201668
0.0200324
0.0199093
0.0197996
0.019702
0.0196159
0.0195405
0.0194752
0.0194194
0.0193726
0.0193344
0.0193044
0.0192822
0.0192677
0.0192608
0.0215177
0.0211152
0.020929
0.0206844
0.0204865
0.0203204
0.0201668
0.0200324
0.0199093
0.0197997
0.0197021
0.0196159
0.0195405
0.0194752
0.0194194
0.0193726
0.0193344
0.0193044
0.0192822
0.0192678
0.0192608
)
;
    }
}


// ************************************************************************* //
