/*--------------------------------*- C++ -*----------------------------------*\
  =========                 |
  \\      /  F ield         | OpenFOAM: The Open Source CFD Toolbox
   \\    /   O peration     | Website:  https://openfoam.org
    \\  /    A nd           | Version:  7
     \\/     M anipulation  |
\*---------------------------------------------------------------------------*/
FoamFile
{
    version     2.0;
    format      ascii;
    class       surfaceScalarField;
    location    "80";
    object      phi;
}
// * * * * * * * * * * * * * * * * * * * * * * * * * * * * * * * * * * * * * //

dimensions      [0 3 -1 0 0 0 0];

internalField   nonuniform List<scalar> 
17388
(
-7.06302e-06
-2.70008e-05
3.40638e-05
-2.45699e-05
-0.000104305
0.000121812
-5.06669e-05
-0.000196707
0.000222804
-8.40985e-05
-0.000295613
0.000329044
-0.000123766
-0.000395471
0.000435139
-0.000168445
-0.000494252
0.000538931
-0.000216613
-0.000593046
0.000641215
-0.000266389
-0.000695142
0.000744917
-0.000315511
-0.000804827
0.000853949
-0.000361336
-0.000926194
0.000972019
-0.000400815
-0.00106215
0.00110163
-0.000430454
-0.00121369
0.00124333
-0.000446319
-0.00137923
0.00139509
-0.000444144
-0.00155398
0.00155181
-0.000419638
-0.00172939
0.00170489
-0.000369047
-0.00189267
0.00184208
-0.000289963
-0.00202702
0.00194794
-0.000182209
-0.00211304
0.00200529
-4.82871e-05
-0.00213165
0.00199773
0.000107457
-0.00206902
0.00191327
-0.00192047
0.00174683
0.000281099
-8.26132e-06
-1.87395e-05
-2.87185e-05
-8.38481e-05
-5.90815e-05
-0.000166344
-9.77366e-05
-0.000256957
-0.000143322
-0.000349885
-0.000194478
-0.000443096
-0.000249694
-0.00053783
-0.000307239
-0.000637597
-0.000365121
-0.000746945
-0.000421036
-0.000870278
-0.00047228
-0.00101091
-0.000515633
-0.00117034
-0.00054727
-0.00134759
-0.000562753
-0.0015385
-0.000557227
-0.00173492
-0.000525898
-0.001924
-0.000464888
-0.00208803
-0.000372379
-0.00220555
-0.000249632
-0.0022544
-0.000100837
-0.00221781
-0.00209217
7.08655e-05
-9.16439e-06
-9.5751e-06
-3.18841e-05
-6.11284e-05
-6.55198e-05
-0.000132708
-0.000108148
-0.00021433
-0.000158178
-0.000299855
-0.000214146
-0.000387128
-0.000274586
-0.00047739
-0.000337956
-0.000574227
-0.00040258
-0.000682321
-0.000466557
-0.000806301
-0.000527626
-0.000949842
-0.00058299
-0.00111497
-0.000629133
-0.00130145
-0.000661695
-0.00150594
-0.000675499
-0.00172111
-0.000664887
-0.00193461
-0.00062452
-0.0021284
-0.000550717
-0.00227935
-0.000442817
-0.0023623
-0.000303934
-0.0023567
-0.00225378
-0.000142329
-9.7093e-06
1.34192e-07
-3.38734e-05
-3.69643e-05
-6.96263e-05
-9.69555e-05
-0.000114804
-0.000169152
-0.000167627
-0.000247031
-0.000226552
-0.000328203
-0.000290167
-0.000413776
-0.000357126
-0.000507268
-0.000426077
-0.00061337
-0.000495553
-0.000736826
-0.000563802
-0.000881593
-0.000628579
-0.0010502
-0.000686901
-0.00124312
-0.000734803
-0.00145804
-0.000767195
-0.00168872
-0.000777961
-0.00192384
-0.000760586
-0.00214578
-0.000709457
-0.00233048
-0.000621705
-0.00245005
-0.000499738
-0.00247866
-0.00239924
-0.000354283
-9.85708e-06
9.99128e-06
-3.45656e-05
-1.22558e-05
-7.11807e-05
-6.03404e-05
-0.00011738
-0.000122953
-0.000171241
-0.00019317
-0.00023115
-0.000268295
-0.000295739
-0.000349187
-0.000363834
-0.000439173
-0.000434377
-0.000542826
-0.000506312
-0.000664891
-0.000578412
-0.000809492
-0.00064907
-0.00097954
-0.000716021
-0.00117617
-0.000776032
-0.00139803
-0.000824592
-0.00164016
-0.000855754
-0.00189268
-0.000862416
-0.00213911
-0.000837407
-0.00235549
-0.000775682
-0.00251178
-0.000678047
-0.0025763
-0.00252194
-0.000555339
-9.59635e-06
1.95876e-05
-3.39224e-05
1.20703e-05
-7.01121e-05
-2.41507e-05
-0.000115778
-7.72868e-05
-0.000168894
-0.000140055
-0.000227781
-0.000209407
-0.000291091
-0.000285877
-0.000357765
-0.000372498
-0.000426974
-0.000473617
-0.000498002
-0.000593863
-0.000570103
-0.000737391
-0.000642305
-0.000907337
-0.000713165
-0.00110531
-0.000780436
-0.00133075
-0.000840664
-0.00157993
-0.000888783
-0.00184456
-0.000917975
-0.00210992
-0.000920315
-0.00235315
-0.000888985
-0.00254311
-0.000822475
-0.00264281
-0.00261472
-0.000729699
-8.94376e-06
2.85314e-05
-3.19909e-05
3.51175e-05
-6.6503e-05
1.03614e-05
-0.000110126
-3.36641e-05
-0.000160769
-8.9411e-05
-0.000216692
-0.000153485
-0.000276523
-0.000226046
-0.000339255
-0.000309766
-0.000404191
-0.000408682
-0.000470851
-0.000527203
-0.000538858
-0.000669385
-0.000607787
-0.000838408
-0.000676981
-0.00103612
-0.000745269
-0.00126247
-0.000810553
-0.00151465
-0.000869258
-0.00178586
-0.000915775
-0.0020634
-0.000942495
-0.00232643
-0.000941585
-0.00254402
-0.00090886
-0.00267553
-0.00267493
-0.000848647
-7.94348e-06
3.64749e-05
-2.88916e-05
5.60655e-05
-6.0587e-05
4.20568e-05
-0.000100768
6.51721e-06
-0.000147344
-4.28348e-05
-0.000198506
-0.000102323
-0.000252824
-0.000171728
-0.000309269
-0.000253321
-0.000367176
-0.000350775
-0.000426174
-0.000468205
-0.000486101
-0.000609458
-0.000546913
-0.000777596
-0.000608568
-0.000974465
-0.000670845
-0.00120019
-0.000733016
-0.00145248
-0.000793279
-0.00172559
-0.000847935
-0.00200875
-0.000890735
-0.00228363
-0.000913728
-0.00252102
-0.000910001
-0.00267926
-0.00270809
-0.00087684
-6.66341e-06
4.31383e-05
-2.48277e-05
7.42298e-05
-5.27064e-05
6.99355e-05
-8.82394e-05
4.20502e-05
-0.000129349
-1.72528e-06
-0.000174175
-5.7497e-05
-0.000221201
-0.000124702
-0.00026931
-0.000205211
-0.000317778
-0.000302308
-0.000366216
-0.000419767
-0.00041452
-0.000561154
-0.000462816
-0.0007293
-0.000511421
-0.00092586
-0.000560761
-0.00115085
-0.000611188
-0.00140205
-0.00066254
-0.00167424
-0.000713277
-0.00195801
-0.000759285
-0.00223762
-0.000793416
-0.00248689
-0.000806472
-0.0026662
-0.00272665
-0.000787917
-5.18636e-06
4.83246e-05
-2.0042e-05
8.90854e-05
-4.33197e-05
9.32133e-05
-7.32099e-05
7.19404e-05
-0.000107705
3.27695e-05
-0.000144896
-2.03059e-05
-0.000183163
-8.64348e-05
-0.000221259
-0.000167116
-0.000258324
-0.000265243
-0.00029385
-0.00038424
-0.000327647
-0.000527357
-0.000359817
-0.00069713
-0.000390763
-0.000894915
-0.000421189
-0.00112042
-0.000452056
-0.00137118
-0.000484354
-0.00164194
-0.00051846
-0.0019239
-0.000552765
-0.00220332
-0.000582019
-0.00245764
-0.000596593
-0.00265163
-0.00274525
-0.000577988
-3.60417e-06
5.19288e-05
-1.48117e-05
0.000100293
-3.29341e-05
0.000111336
-5.64494e-05
9.54557e-05
-8.34541e-05
5.97742e-05
-0.00011201
8.24981e-06
-0.00014039
-5.80546e-05
-0.000167187
-0.000140319
-0.000191355
-0.000241074
-0.000212194
-0.000363402
-0.000229317
-0.000510234
-0.000242656
-0.000683792
-0.000252485
-0.000885085
-0.000259462
-0.00111344
-0.000264684
-0.00136596
-0.000269652
-0.00163697
-0.000276018
-0.00191754
-0.000284514
-0.00219482
-0.000290747
-0.00245141
-0.00029235
-0.00265003
-0.00277049
-0.000267115
-2.00974e-06
5.39385e-05
-9.42227e-06
0.000107705
-2.20789e-05
0.000123992
-3.87574e-05
0.000112134
-5.76803e-05
7.86971e-05
-7.69069e-05
2.74764e-05
-9.45965e-05
-4.03649e-05
-0.000109174
-0.000125742
-0.00011938
-0.000230868
-0.000124265
-0.000358516
-0.000123185
-0.000511314
-0.000115794
-0.000691183
-0.000102132
-0.000898747
-8.26131e-05
-0.00113296
-5.81529e-05
-0.00139042
-3.0219e-05
-0.00166491
-6.84601e-07
-0.00194707
2.87324e-05
-0.00222424
5.58859e-05
-0.00247856
0.000101014
-0.00269515
-0.00279489
0.000125413
-4.90467e-07
5.4429e-05
-4.14493e-06
0.00011136
-1.12646e-05
0.000131112
-2.09097e-05
0.000121779
-3.14384e-05
8.92258e-05
-4.09162e-05
3.69542e-05
-4.74059e-05
-3.38753e-05
-4.91488e-05
-0.000123999
-4.46656e-05
-0.000235351
-3.27246e-05
-0.000370457
-1.2397e-05
-0.000531642
1.69353e-05
-0.000720515
5.56391e-05
-0.000937451
0.000103533
-0.00118086
0.000159882
-0.00144677
0.000223354
-0.00172838
0.000292045
-0.00201576
0.000363959
-0.00229615
0.000440575
-0.00255518
0.000518038
-0.00277262
-0.00290477
0.000627924
8.87226e-07
5.35418e-05
7.84799e-07
0.000111462
-9.44868e-07
0.000132842
-3.60143e-06
0.000124436
-5.6702e-06
9.12946e-05
-5.22826e-06
3.65122e-05
-2.52056e-07
-3.88515e-05
1.11888e-05
-0.00013544
3.08859e-05
-0.000255048
6.03083e-05
-0.00039988
0.000100702
-0.000572035
0.000153008
-0.000772822
0.000217728
-0.00100217
0.000294877
-0.00125801
0.000383825
-0.00153572
0.000483227
-0.00182778
0.000591147
-0.00212368
0.000705514
-0.00241052
0.000824649
-0.00267431
0.000949077
-0.00289704
-0.00306256
0.00110686
2.05866e-06
5.14831e-05
5.17933e-06
0.000108342
8.51685e-06
0.000129504
1.26041e-05
0.000120349
1.88619e-05
8.50368e-05
2.92131e-05
2.61611e-05
4.57858e-05
-5.54243e-05
7.07063e-05
-0.00016036
0.000105954
-0.000290296
0.00015334
-0.000447266
0.000214391
-0.000633086
0.000290265
-0.000848696
0.000381602
-0.00109351
0.000488363
-0.00136477
0.000609673
-0.00165703
0.000743777
-0.00196189
0.000888245
-0.00226815
0.00104037
-0.00256265
0.00119756
-0.0028315
0.00136037
-0.00305986
-0.00324925
0.00154706
2.99805e-06
4.84851e-05
8.92002e-06
0.00010242
1.6874e-05
0.00012155
2.73173e-05
0.000109905
4.16258e-05
7.07283e-05
6.17484e-05
6.03845e-06
8.99272e-05
-8.3603e-05
0.000128478
-0.000198911
0.000179645
-0.000341463
0.000245495
-0.000513116
0.000327775
-0.000715366
0.000427746
-0.000948666
0.000545956
-0.00121172
0.000682011
-0.00150082
0.000834404
-0.00180942
0.00100053
-0.00212801
0.00117699
-0.00244461
0.0013602
-0.00274585
0.00154694
-0.00301823
0.00173632
-0.00324924
-0.00345074
0.00193781
3.69439e-06
4.47907e-05
1.19584e-05
9.41557e-05
2.40148e-05
0.000109494
4.03513e-05
9.35688e-05
6.23684e-05
4.87112e-05
9.20887e-05
-2.36818e-05
0.000131889
-0.000123403
0.000184292
-0.000251313
0.000251779
-0.000408951
0.000336624
-0.00059796
0.00044067
-0.000819413
0.00056507
-0.00107307
0.000709967
-0.00135662
0.000874221
-0.00166508
0.00105526
-0.00199047
0.00124924
-0.00232199
0.00145151
-0.00264688
0.00165743
-0.00295177
0.00186326
-0.00322407
0.00206726
-0.00345324
-0.00365542
0.00227194
4.16181e-06
4.06289e-05
1.43222e-05
8.39953e-05
2.99739e-05
9.38421e-05
5.17481e-05
7.17946e-05
8.11535e-05
1.93058e-05
0.00012034
-6.28685e-05
0.000171858
-0.000174921
0.000238435
-0.00031789
0.000322746
-0.000493262
0.00042716
-0.000702374
0.000553416
-0.000945668
0.000702247
-0.0012219
0.000872995
-0.00152736
0.00106333
-0.00185541
0.00126924
-0.00219637
0.00148536
-0.00253811
0.00170576
-0.00286728
0.0019249
-0.00317091
0.00213891
-0.00343807
0.00234608
-0.00366041
-0.003854
0.00254466
4.4365e-06
3.61924e-05
1.61118e-05
7.232e-05
3.49272e-05
7.50267e-05
6.17699e-05
4.4952e-05
9.83461e-05
-1.72705e-05
0.000146996
-0.000111519
0.000210472
-0.000238397
0.000291686
-0.000399104
0.000393415
-0.000594992
0.000517936
-0.000826895
0.000666586
-0.00109432
0.000839281
-0.00139459
0.00103411
-0.00172219
0.00124715
-0.00206846
0.00147268
-0.0024219
0.00170383
-0.00276926
0.00193365
-0.00309711
0.00215615
-0.00339342
0.00236799
-0.00364991
0.00256805
-0.00386047
-0.00403937
0.00275341
4.57299e-06
3.16194e-05
1.74898e-05
5.94032e-05
3.91746e-05
5.33418e-05
7.0874e-05
1.32526e-05
0.000114578
-6.09748e-05
0.000172874
-0.000169815
0.000248724
-0.000314247
0.000345164
-0.000495544
0.00046491
-0.000714738
0.000609872
-0.000971856
0.000780589
-0.00126504
0.000975705
-0.00158971
0.00119163
-0.00193812
0.00142259
-0.00229941
0.00166116
-0.00266048
0.00189932
-0.00300742
0.00212964
-0.00332743
0.00234637
-0.00361015
0.00254716
-0.0038507
0.00273129
-0.0040446
-0.0042067
0.00289863
4.63892e-06
2.69805e-05
1.86641e-05
4.5378e-05
4.31068e-05
2.88991e-05
7.96602e-05
-2.33008e-05
0.000130669
-0.000111983
0.000199001
-0.000238147
0.000287798
-0.000403044
0.000400094
-0.000607839
0.000538298
-0.000852942
0.00070358
-0.00113714
0.000895228
-0.00145668
0.00111017
-0.00180465
0.00134284
-0.00217079
0.00158561
-0.00254218
0.00182974
-0.00290461
0.0020667
-0.00324438
0.00228949
-0.00355022
0.00249346
-0.00381412
0.00267712
-0.00403436
0.00283802
-0.00420549
-0.00435152
0.00298283
4.70793e-06
2.22725e-05
1.98653e-05
3.02207e-05
4.71607e-05
1.60372e-06
8.87943e-05
-6.49344e-05
0.000147509
-0.000170697
0.000226448
-0.000317087
0.000328844
-0.00050544
0.000457518
-0.000736513
0.000614238
-0.00100966
0.000798992
-0.00132189
0.00100936
-0.00166706
0.00124023
-0.00203551
0.00148401
-0.00241457
0.00173156
-0.00278973
0.00197349
-0.00314654
0.00220169
-0.00347258
0.00241052
-0.00375904
0.0025974
-0.004001
0.00276255
-0.00419951
0.00290579
-0.00434874
-0.00448562
0.0030399
4.85179e-06
1.74207e-05
2.13198e-05
1.37527e-05
5.17663e-05
-2.88428e-05
9.89215e-05
-0.00011209
0.000165931
-0.000237707
0.000256153
-0.000407308
0.00037274
-0.000622027
0.000518011
-0.000881784
0.000692679
-0.00118433
0.0008951
-0.00152431
0.00112079
-0.00189274
0.00136246
-0.00227719
0.00161081
-0.00266291
0.0018558
-0.00303472
0.00208833
-0.00337907
0.0023016
-0.00368586
0.00249202
-0.00394946
0.00265944
-0.00416843
0.00280615
-0.00434622
0.00293978
-0.00448236
-0.00460988
0.00306403
5.13309e-06
1.22877e-05
2.3227e-05
-4.34128e-06
5.7292e-05
-6.29078e-05
0.000110579
-0.000165377
0.000186584
-0.000313711
0.000288745
-0.00050947
0.000419891
-0.000753173
0.000581468
-0.00104336
0.000772695
-0.00137556
0.000989906
-0.00174152
0.00122637
-0.00212921
0.00147286
-0.00252368
0.00171892
-0.00290897
0.00195453
-0.00327033
0.00217175
-0.00359629
0.00236585
-0.00387995
0.0025356
-0.00411921
0.00268308
-0.0043159
0.0028126
-0.00447574
0.00293142
-0.00460118
-0.00471865
0.00304019
5.59848e-06
6.68918e-06
2.57347e-05
-2.44775e-05
6.40075e-05
-0.000101181
0.000124129
-0.000225499
0.000209833
-0.000399415
0.000324433
-0.00062407
0.00047011
-0.00089885
0.000647025
-0.00122028
0.000852501
-0.00158103
0.00108061
-0.00196963
0.00132249
-0.00237109
0.00156747
-0.00276866
0.00180477
-0.00314628
0.00202535
-0.0034909
0.00222318
-0.00379413
0.00239593
-0.0040527
0.00254472
-0.004268
0.00267343
-0.00444461
0.00278748
-0.00458979
0.00289395
-0.00470765
-0.00482092
0.00299622
6.27589e-06
4.13288e-07
2.8929e-05
-4.71306e-05
7.20549e-05
-0.000144307
0.000139718
-0.000293161
0.000235713
-0.00049541
0.000362956
-0.000751312
0.000522602
-0.0010585
0.000713123
-0.0014108
0.000929648
-0.00179756
0.00116399
-0.00220397
0.00140554
-0.00261264
0.00164295
-0.00300607
0.00186608
-0.00336941
0.00206761
-0.00369243
0.0022439
-0.00397042
0.00239501
-0.00420382
0.00252402
-0.00439701
0.00263605
-0.00455664
0.00273695
-0.00469069
0.00283348
-0.00480418
-0.00491565
0.00292821
7.174e-06
-6.76072e-06
3.28331e-05
-7.27897e-05
8.14457e-05
-0.000192919
0.000157271
-0.000368987
0.000263933
-0.000602073
0.000403612
-0.00089099
0.00057605
-0.00123093
0.000777684
-0.00161243
0.00100134
-0.00202121
0.00123682
-0.00243946
0.00147246
-0.00284827
0.0016971
-0.00323072
0.00190207
-0.00357438
0.00208231
-0.00387266
0.00223663
-0.00412474
0.00236723
-0.00433441
0.00247858
-0.00450837
0.00257641
-0.00465446
0.00266652
-0.0047808
0.00275488
-0.00489254
-0.00500485
0.00284408
8.28487e-06
-1.50456e-05
3.74129e-05
-0.000101918
9.20731e-05
-0.000247579
0.000176519
-0.000453433
0.000293916
-0.00071947
0.000445345
-0.00104242
0.000628767
-0.00141436
0.000838374
-0.00182204
0.00106479
-0.00224763
0.00129635
-0.00267102
0.00152111
-0.00307303
0.001729
-0.00343861
0.00191341
-0.00375878
0.00207172
-0.00403097
0.00220503
-0.00425805
0.00231711
-0.0044465
0.00241328
-0.00460454
0.00249934
-0.00474052
0.00258063
-0.00486209
0.00266225
-0.00497416
-0.00508871
0.00274611
9.58857e-06
-2.46342e-05
4.25897e-05
-0.000134919
0.000103737
-0.000308727
0.000197037
-0.000546733
0.000324873
-0.000847306
0.000486861
-0.00120441
0.000678889
-0.00160638
0.000892865
-0.00203601
0.00111757
-0.00247234
0.00134056
-0.002894
0.00155047
-0.00328294
0.001739
-0.00362715
0.00190191
-0.00392169
0.00203896
-0.00416802
0.00215304
-0.00437213
0.002249
-0.00454246
0.00233243
-0.00468798
0.00240881
-0.0048169
0.00248281
-0.00493609
0.00255856
-0.00504992
-0.00516764
0.00263749
1.10576e-05
-3.56917e-05
4.82546e-05
-0.000172116
0.00011617
-0.000376642
0.000218292
-0.000648855
0.00035588
-0.000984893
0.000526751
-0.00137528
0.000724552
-0.00180419
0.000939074
-0.00225054
0.0011578
-0.00269107
0.0013683
-0.0031045
0.00156056
-0.00347519
0.00172846
-0.00379505
0.00187017
-0.0040634
0.00198746
-0.00428531
0.00208454
-0.00446921
0.00216677
-0.00462469
0.00223961
-0.00476082
0.00230794
-0.00488523
0.00237567
-0.00500383
0.00244606
-0.0051203
-0.00524157
0.00251998
1.26605e-05
-4.83522e-05
5.42802e-05
-0.000213736
0.000129065
-0.000451427
0.000239688
-0.000759479
0.00038595
-0.00113116
0.00056361
-0.00155294
0.000764063
-0.00200464
0.000975342
-0.00246182
0.00118433
-0.00290006
0.00137937
-0.00329954
0.00155233
-0.00364815
0.00169946
-0.00394218
0.00182111
-0.00418505
0.00192063
-0.00438482
0.002003
-0.00455158
0.00207366
-0.00469535
0.00213763
-0.00482479
0.00219909
-0.00494668
0.00226119
-0.00506593
0.00232639
-0.0051855
-0.00531035
0.00239517
1.43644e-05
-6.27166e-05
6.05286e-05
-0.0002599
0.000142089
-0.000532987
0.000260601
-0.000877991
0.000414102
-0.00128466
0.000596137
-0.00173497
0.000796014
-0.00220451
0.00100054
-0.00266634
0.00119671
-0.00309623
0.00137429
-0.00347713
0.00152736
-0.00380121
0.00165444
-0.00406927
0.00175772
-0.00428833
0.0018416
-0.00446871
0.0019114
-0.00462138
0.00197229
-0.00475624
0.00202869
-0.00488118
0.00208404
-0.00500203
0.00214081
-0.0051227
0.00220079
-0.00524549
-0.00537373
0.00226417
1.61355e-05
-7.8852e-05
6.68564e-05
-0.000310621
0.000154899
-0.00062103
0.000280406
-0.0010035
0.000439407
-0.00144366
0.000623212
-0.00191878
0.000819367
-0.00240067
0.00101408
-0.00286105
0.00119515
-0.0032773
0.00135423
-0.0036362
0.00148764
-0.00393463
0.00159598
-0.00417761
0.00168279
-0.00437513
0.00175309
-0.00453901
0.00181215
-0.00468045
0.00186467
-0.00480875
0.00191438
-0.0049309
0.00196406
-0.00505171
0.00201558
-0.00517421
0.00207021
-0.00530012
-0.00543143
0.00212791
1.79392e-05
-9.67912e-05
7.31167e-05
-0.000365798
0.000167154
-0.000715067
0.000298507
-0.00113485
0.00046104
-0.00160619
0.000643951
-0.00210169
0.000833492
-0.00259021
0.00101592
-0.00304348
0.00118041
-0.00344178
0.00132071
-0.0037765
0.00143533
-0.00404925
0.00152654
-0.00426881
0.0015988
-0.00444739
0.00165735
-0.00459756
0.00170716
-0.00473025
0.00175232
-0.00485391
0.00179593
-0.00497451
0.00184014
-0.00509592
0.00188634
-0.00522041
0.0019354
-0.00534918
-0.00548317
0.00198715
1.97397e-05
-0.000116531
7.91613e-05
-0.00042522
0.00017852
-0.000814426
0.000314356
-0.00127069
0.000478316
-0.00177015
0.000657749
-0.00228112
0.00083816
-0.00277062
0.00100647
-0.0032118
0.00115361
-0.00358892
0.00127549
-0.00389839
0.00137257
-0.00414633
0.00144835
-0.00434459
0.00150785
-0.00450689
0.0015562
-0.00464592
0.0015979
-0.00477195
0.00163641
-0.00489243
0.00167423
-0.00501233
0.00171299
-0.00513469
0.00175372
-0.00526114
0.00179699
-0.00539245
-0.00552872
0.00184254
2.14999e-05
-0.000138031
8.48426e-05
-0.000488563
0.000188682
-0.000918265
0.000327476
-0.00140948
0.000490716
-0.00193339
0.000664279
-0.00245468
0.000833503
-0.00293985
0.00098648
-0.00336477
0.00111611
-0.00371855
0.00122039
-0.00400267
0.00130135
-0.00422729
0.00136338
-0.00440663
0.00141168
-0.00455518
0.00145107
-0.00468531
0.00148548
-0.00480636
0.00151779
-0.00492474
0.00154995
-0.00504449
0.0015832
-0.00516794
0.00161827
-0.00529621
0.00165551
-0.00542969
-0.00556786
0.00169465
2.31815e-05
-0.000161212
9.00175e-05
-0.000555399
0.000197354
-0.0010256
0.000337479
-0.00154961
0.000497903
-0.00209381
0.00066349
-0.00262027
0.000819957
-0.00309631
0.00095694
-0.00350176
0.00106938
-0.00383099
0.00115713
-0.00409042
0.00122346
-0.00429362
0.00127328
-0.00445645
0.00131168
-0.00459358
0.00134306
-0.00471669
0.00137076
-0.00483406
0.00139711
-0.00495109
0.00142363
-0.00507101
0.00145123
-0.00519554
0.00148044
-0.00532541
0.00151145
-0.0054607
-0.0056004
0.001544
2.47462e-05
-0.000185959
9.45516e-05
-0.000625204
0.00020429
-0.00113534
0.000344078
-0.0016894
0.000499722
-0.00224946
0.000655567
-0.00277612
0.000798185
-0.00323893
0.00091899
-0.00362256
0.0010149
-0.0039269
0.00108735
-0.00416286
0.00114047
-0.00434674
0.00117941
-0.00449538
0.00120896
-0.00462314
0.00123303
-0.00474075
0.00125438
-0.00485542
0.00127488
-0.00497159
0.00129569
-0.00509181
0.00131748
-0.00521734
0.00134063
-0.00534856
0.00136522
-0.00548529
-0.00562622
0.00139103
2.61567e-05
-0.000212115
9.83238e-05
-0.000697371
0.000209293
-0.00124631
0.000347097
-0.0018272
0.000496192
-0.00239855
0.000640894
-0.00292082
0.000769004
-0.00336704
0.000873819
-0.00372738
0.000954073
-0.00400715
0.00101246
-0.00422125
0.00105369
-0.00438798
0.00108286
-0.00452455
0.00110439
-0.00464467
0.00112162
-0.00475798
0.00113684
-0.00487063
0.0011515
-0.00498625
0.00116649
-0.0051068
0.0011823
-0.00523315
0.0011992
-0.00536546
0.00121721
-0.0055033
-0.00564517
0.00123616
2.7378e-05
-0.000239493
0.000101231
-0.000771224
0.000212222
-0.0013573
0.000346469
-0.00196145
0.000487485
-0.00253957
0.000620002
-0.00305334
0.000733318
-0.00348036
0.000822605
-0.00381666
0.000888188
-0.00407274
0.000933718
-0.00426678
0.000964203
-0.00441846
0.000984521
-0.00454487
0.00099863
-0.00465878
0.00100935
-0.00476871
0.00101854
-0.00487982
0.00102731
-0.00499502
0.00103634
-0.00511583
0.001046
-0.00524281
0.00105647
-0.00537593
0.00106776
-0.00551459
-0.00565718
0.00107977
2.83787e-05
-0.000267872
0.000103191
-0.000846036
0.000212992
-0.0014671
0.000342231
-0.00209069
0.000473894
-0.00267123
0.000593519
-0.00317296
0.000692058
-0.0035789
0.000766462
-0.00389107
0.000818396
-0.00412467
0.000852184
-0.00430057
0.000872897
-0.00443917
0.000885085
-0.00455706
0.000892215
-0.00466591
0.000896632
-0.00477312
0.000899802
-0.00488299
0.000902596
-0.00499782
0.000905523
-0.00511876
0.000908868
-0.00524616
0.000912761
-0.00537982
0.000917201
-0.00551903
-0.00566216
0.000922177
2.91319e-05
-0.000297004
0.000104146
-0.000921051
0.000211577
-0.00157453
0.000334507
-0.00221361
0.000455809
-0.00279253
0.00056213
-0.00327928
0.000646141
-0.00366291
0.000706417
-0.00395134
0.000745702
-0.00416396
0.000768739
-0.0043236
0.000780492
-0.00445093
0.000785107
-0.00456167
0.000785564
-0.00466636
0.000783783
-0.00477134
0.000780914
-0.00488012
0.000777625
-0.00499453
0.000774308
-0.00511544
0.000771179
-0.00524303
0.000768341
-0.00537699
0.000765797
-0.00551649
-0.00565999
0.000763631
2.96166e-05
-0.00032662
0.000104064
-0.000995498
0.000208006
-0.00167847
0.000323498
-0.00232911
0.000433683
-0.00290272
0.000526537
-0.00337214
0.000596437
-0.00373281
0.000643391
-0.0039983
0.000670968
-0.00419153
0.000684118
-0.00433675
0.00068757
-0.00445438
0.000685029
-0.00455913
0.000679019
-0.00466035
0.000671086
-0.00476341
0.000662123
-0.00487116
0.00065264
-0.00498505
0.000642936
-0.00510573
0.000633184
-0.00523328
0.000623471
-0.00536727
0.000613808
-0.00550682
-0.00565051
0.000604321
2.98172e-05
-0.000356438
0.000102934
-0.00106861
0.000202354
-0.00177789
0.000309461
-0.00243621
0.000408003
-0.00300126
0.000487429
-0.00345156
0.000543748
-0.00378913
0.000578189
-0.00403274
0.000594918
-0.00420826
0.000598916
-0.00434075
0.000594595
-0.00445006
0.000585209
-0.00454974
0.000572863
-0.00464801
0.000558789
-0.00474934
0.000543667
-0.00485603
0.000527881
-0.00496926
0.000511656
-0.00508951
0.000495128
-0.00521675
0.000478387
-0.00535053
0.000461467
-0.0054899
-0.00563347
0.000444431
2.97248e-05
-0.000386162
0.000100771
-0.00113966
0.000194738
-0.00187186
0.000292693
-0.00253417
0.00037927
-0.00308784
0.000445466
-0.00351776
0.000488799
-0.00383246
0.00051151
-0.00405545
0.000518159
-0.00421491
0.000513624
-0.00433622
0.000501944
-0.00443838
0.000485939
-0.00453374
0.000467341
-0.00462941
0.000447115
-0.00472911
0.000425775
-0.00483469
0.000403601
-0.00494709
0.000380753
-0.00506666
0.00035732
-0.00519332
0.000333353
-0.00532656
0.000308927
-0.00546548
-0.00560881
0.000284262
2.93365e-05
-0.000415499
9.76109e-05
-0.00120794
0.000185303
-0.00195955
0.000273514
-0.00262238
0.000347978
-0.0031623
0.000401256
-0.00357104
0.00043223
-0.00386343
0.000443951
-0.00406717
0.000441195
-0.00421216
0.000428639
-0.00432366
0.000409925
-0.00441966
0.000387464
-0.00451128
0.000362663
-0.00460461
0.000336269
-0.00470272
0.000308662
-0.00480709
0.000280047
-0.00491847
0.000250536
-0.00503715
0.000220193
-0.00516297
0.000188945
-0.00529532
0.000156389
-0.00543292
-0.00557627
0.000123853
2.86549e-05
-0.000444154
9.35044e-05
-0.00127278
0.000174222
-0.00204027
0.000252253
-0.00270041
0.000314602
-0.00322465
0.000355356
-0.00361179
0.000374603
-0.00388268
0.000376013
-0.00406858
0.000364439
-0.00420058
0.000344284
-0.00430351
0.000318789
-0.00439417
0.000289991
-0.00448248
0.000259019
-0.00457364
0.000226439
-0.00467014
0.000192525
-0.00477317
0.000157423
-0.00488337
0.00012124
-0.00500097
8.40363e-05
-0.00512577
4.6022e-05
-0.0052573
7.27501e-06
-0.00539418
-0.00553188
-3.71143e-05
2.76882e-05
-0.000471842
8.85178e-05
-0.00133361
0.000161677
-0.00211343
0.000229239
-0.00276797
0.000279585
-0.003275
0.000308264
-0.00364047
0.000316401
-0.00389082
0.000308119
-0.0040603
0.000288231
-0.00418069
0.000260824
-0.0042761
0.000228747
-0.00436209
0.000193703
-0.00444744
0.000156582
-0.00453652
0.000117808
-0.00463136
7.75535e-05
-0.00473292
3.59144e-05
-0.00484173
-7.04897e-06
-0.004958
-5.11204e-05
-0.0050817
-9.63819e-05
-0.00521204
-0.000143423
-0.00534713
-0.00548486
-0.000190446
2.64487e-05
-0.000498291
8.27276e-05
-0.00138989
0.00014786
-0.00217856
0.000204788
-0.0028249
0.000243336
-0.00331355
0.000260417
-0.00365755
0.000258036
-0.00388844
0.000240618
-0.00404288
0.00021285
-0.00415293
0.000178476
-0.00424173
0.000139977
-0.00432359
9.87626e-05
-0.00440622
5.55006e-05
-0.00449325
1.05075e-05
-0.00458637
-3.607e-05
-0.00468634
-8.42048e-05
-0.00479359
-0.000133819
-0.00490839
-0.000184888
-0.00503063
-0.000237395
-0.00515953
-0.00029128
-0.00529325
-0.00543052
-0.00034562
2.4953e-05
-0.000523244
7.62175e-05
-0.00144116
0.000132963
-0.00223531
0.000179201
-0.00287114
0.000206222
-0.00334057
0.000212198
-0.00366353
0.000199856
-0.00387609
0.000173802
-0.00401682
0.000138526
-0.00411765
9.74249e-05
-0.00420062
5.26222e-05
-0.00427879
5.25881e-06
-0.00435886
-4.40667e-05
-0.00444393
-9.52131e-05
-0.00453522
-0.000148134
-0.00463342
-0.000202792
-0.00473894
-0.000259151
-0.00485203
-0.000317154
-0.00497263
-0.000376716
-0.00509997
-0.000437661
-0.0052323
-0.0053684
-0.000499781
2.32205e-05
-0.000546464
6.90752e-05
-0.00148701
0.000117172
-0.0022834
0.000152756
-0.00290672
0.000168574
-0.00335639
0.000163937
-0.00365889
0.000142154
-0.00385431
0.000107907
-0.00398258
6.54504e-05
-0.00407519
1.78075e-05
-0.00415298
-3.31611e-05
-0.00422782
-8.65311e-05
-0.00430549
-0.000141952
-0.00438851
-0.000199274
-0.0044779
-0.000258501
-0.00457419
-0.000319656
-0.00467778
-0.000382732
-0.00478895
-0.000447658
-0.0049077
-0.000514317
-0.00503331
-0.000582558
-0.00516406
-0.00529862
-0.000652336
2.12735e-05
-0.000567738
6.13905e-05
-0.00152713
0.000100668
-0.00232268
0.00012571
-0.00293176
0.000130684
-0.00336136
0.000115917
-0.00364412
8.51761e-05
-0.00382357
4.31283e-05
-0.00394053
-6.25851e-06
-0.00402581
-6.02135e-05
-0.00409903
-0.000117249
-0.00417079
-0.000176624
-0.00424612
-0.000238062
-0.00432707
-0.000301505
-0.00441446
-0.000366994
-0.0045087
-0.000434596
-0.00461018
-0.000504335
-0.00471921
-0.000576153
-0.00483588
-0.000649912
-0.00495955
-0.000725473
-0.0050885
-0.00522128
-0.000802814
1.91369e-05
-0.000586875
5.32532e-05
-0.00156125
8.36229e-05
-0.00235305
9.82959e-05
-0.00294644
9.28052e-05
-0.00335587
6.83761e-05
-0.00361969
2.91289e-05
-0.00378432
-2.03565e-05
-0.00389104
-7.63706e-05
-0.00396979
-0.000136543
-0.00403885
-0.000199561
-0.00410777
-0.000264861
-0.00418082
-0.000332259
-0.00425967
-0.000401759
-0.00434496
-0.000473443
-0.00443702
-0.000547418
-0.0045362
-0.000623751
-0.00464288
-0.000702407
-0.00475723
-0.000783246
-0.00487872
-0.000866098
-0.00500565
-0.00513646
-0.000950917
1.68399e-05
-0.000603715
4.47523e-05
-0.00158916
6.61987e-05
-0.0023745
7.07259e-05
-0.00295096
5.51586e-05
-0.0033403
2.15452e-05
-0.00358608
-2.5819e-05
-0.00373696
-8.24271e-05
-0.00383444
-0.000144884
-0.00390734
-0.000211097
-0.00397264
-0.000279992
-0.00403887
-0.000351136
-0.00410967
-0.000424422
-0.00418638
-0.000499898
-0.00426948
-0.000577686
-0.00435923
-0.000657935
-0.00445596
-0.00074076
-0.00456006
-0.000826168
-0.00467182
-0.000914023
-0.00479086
-0.0010041
-0.00491557
-0.00504424
-0.00109633
1.44189e-05
-0.000618134
3.59791e-05
-0.00161072
4.85492e-05
-0.00238707
4.31865e-05
-0.0029456
1.80073e-05
-0.00331512
-2.44497e-05
-0.00354362
-7.95424e-05
-0.00368187
-0.000142982
-0.003771
-0.000211671
-0.00383865
-0.000283787
-0.00390053
-0.000358454
-0.0039642
-0.000435352
-0.00403277
-0.000514437
-0.0041073
-0.000595792
-0.00418813
-0.000679571
-0.00427545
-0.000765966
-0.00436956
-0.000855149
-0.00447087
-0.000947188
-0.00457978
-0.00104197
-0.00469608
-0.0011392
-0.00481833
-0.00494471
-0.00123872
1.18879e-05
-0.000630022
2.70171e-05
-0.00162585
3.0811e-05
-0.00239086
1.59275e-05
-0.00293072
-1.86309e-05
-0.00328056
-6.94801e-05
-0.00349277
-0.000131934
-0.00361941
-0.000201932
-0.003701
-0.000276659
-0.00376392
-0.00035454
-0.00382264
-0.000434869
-0.00388388
-0.000517421
-0.00395022
-0.0006022
-0.00402252
-0.000689318
-0.00410101
-0.000778956
-0.00418581
-0.000871341
-0.00427718
-0.000966708
-0.00437551
-0.00106521
-0.00448128
-0.00116677
-0.00459452
-0.00127105
-0.00471405
-0.00483805
-0.00137772
9.27312e-06
-0.000639295
1.79483e-05
-0.00163452
1.31378e-05
-0.00238605
-1.10438e-05
-0.00290654
-5.46241e-05
-0.00323698
-0.000113424
-0.00343397
-0.000182904
-0.00354993
-0.000259205
-0.0036247
-0.000339785
-0.00368334
-0.000423294
-0.00373914
-0.000509168
-0.003798
-0.000597261
-0.00386213
-0.000687617
-0.00393216
-0.00078037
-0.00400826
-0.000875714
-0.00409047
-0.000973908
-0.00417898
-0.00107525
-0.00427417
-0.00117997
-0.00437655
-0.00128811
-0.00448638
-0.00139927
-0.00460289
-0.00472438
-0.00151293
6.60637e-06
-0.000645901
8.78645e-06
-0.0016367
-4.18472e-06
-0.00237308
-3.78375e-05
-0.00287288
-8.98101e-05
-0.00318501
-0.000156186
-0.0033676
-0.000232378
-0.00347374
-0.000314743
-0.00354233
-0.000400998
-0.00359708
-0.000489992
-0.00365014