/*--------------------------------*- C++ -*----------------------------------*\
  =========                 |
  \\      /  F ield         | OpenFOAM: The Open Source CFD Toolbox
   \\    /   O peration     | Website:  https://openfoam.org
    \\  /    A nd           | Version:  7
     \\/     M anipulation  |
\*---------------------------------------------------------------------------*/
FoamFile
{
    version     2.0;
    format      ascii;
    class       volVectorField;
    location    "80";
    object      U;
}
// * * * * * * * * * * * * * * * * * * * * * * * * * * * * * * * * * * * * * //

dimensions      [0 1 -1 0 0 0 0];

internalField   nonuniform List<vector> 
8820
(
(-0.00103972 -0.0133921 -8.05462e-22)
(-0.00594189 -0.047802 -1.78826e-20)
(-0.0156452 -0.0856295 -8.33581e-21)
(-0.0280762 -0.123142 -3.57982e-21)
(-0.0423126 -0.158172 1.13203e-21)
(-0.0576801 -0.190079 -6.57218e-21)
(-0.0734251 -0.21939 -1.4061e-20)
(-0.0887517 -0.247308 -8.6274e-21)
(-0.102848 -0.275207 1.98054e-20)
(-0.114904 -0.304209 -3.55046e-21)
(-0.124124 -0.334906 5.61857e-21)
(-0.129724 -0.367212 8.14349e-21)
(-0.130942 -0.400293 -1.15866e-20)
(-0.127055 -0.432539 -1.30551e-20)
(-0.117445 -0.461567 6.01995e-21)
(-0.101714 -0.484309 3.26553e-21)
(-0.0798458 -0.497247 8.1674e-22)
(-0.0523051 -0.49688 2.20584e-20)
(-0.0200719 -0.480404 -6.96637e-21)
(0.014789 -0.446592 -4.6422e-20)
(0.0492361 -0.396403 3.52884e-22)
(-0.000939805 -0.0100922 2.44982e-20)
(-0.00575761 -0.0400584 -2.66935e-20)
(-0.0159772 -0.0748303 5.09633e-21)
(-0.0292483 -0.110222 2.88935e-20)
(-0.0445295 -0.143872 -1.17604e-20)
(-0.0610708 -0.175075 -1.4557e-20)
(-0.0780586 -0.204349 -2.23938e-20)
(-0.094673 -0.232906 2.14783e-20)
(-0.110118 -0.262133 3.20857e-20)
(-0.123629 -0.293162 -2.56765e-20)
(-0.134474 -0.326605 -3.08898e-20)
(-0.141931 -0.362407 -4.90244e-20)
(-0.145279 -0.399762 -2.19358e-20)
(-0.143792 -0.437057 -4.20334e-20)
(-0.136793 -0.471825 2.1462e-20)
(-0.123757 -0.500777 -3.26441e-21)
(-0.104476 -0.519994 -1.60064e-20)
(-0.0791775 -0.525386 -2.05432e-21)
(-0.0486846 -0.513503 -4.36027e-20)
(-0.0150691 -0.482803 -2.672e-20)
(0.018802 -0.434673 2.83255e-20)
(-0.00107407 -0.00634275 7.18049e-20)
(-0.00598193 -0.0312518 -1.59803e-20)
(-0.0165988 -0.0625927 5.67613e-20)
(-0.0304169 -0.095665 3.87785e-20)
(-0.0463278 -0.127856 3.89294e-20)
(-0.0635357 -0.158333 1.75723e-20)
(-0.081192 -0.187544 -2.89881e-20)
(-0.0984734 -0.216666 5.01126e-20)
(-0.114618 -0.247065 7.57011e-20)
(-0.128927 -0.279876 3.9936e-20)
(-0.140751 -0.315746 -5.97358e-20)
(-0.149462 -0.354684 9.98808e-20)
(-0.154412 -0.39597 -8.76157e-21)
(-0.154921 -0.438065 -1.81567e-19)
(-0.150302 -0.478522 -1.23029e-19)
(-0.139942 -0.513941 6.69736e-20)
(-0.123445 -0.540079 -3.65385e-20)
(-0.100784 -0.55226 -8.45085e-20)
(-0.0726254 -0.546296 1.37978e-19)
(-0.041051 -0.520042 -5.91266e-20)
(-0.00846426 -0.474484 -6.89536e-20)
(-0.00146173 -0.00229775 -2.22065e-20)
(-0.00663622 -0.0217066 1.51752e-19)
(-0.0174916 -0.0493256 -2.01416e-20)
(-0.0315086 -0.0799169 -2.04259e-19)
(-0.0475745 -0.110575 -2.07233e-20)
(-0.0648816 -0.140284 -1.90381e-19)
(-0.0825707 -0.169373 9.86199e-20)
(-0.0998319 -0.198934 1.85024e-19)
(-0.115948 -0.230283 -1.67921e-19)
(-0.130296 -0.264549 -2.2442e-19)
(-0.142326 -0.302413 1.273e-19)
(-0.151521 -0.343973 -1.2004e-19)
(-0.15735 -0.38864 1.45993e-19)
(-0.159236 -0.435025 2.04776e-19)
(-0.156552 -0.480809 3.95322e-20)
(-0.148672 -0.522618 -1.58854e-20)
(-0.135075 -0.556019 -1.51448e-19)
(-0.115527 -0.575831 -3.00986e-20)
(-0.0905066 -0.577066 -3.35244e-20)
(-0.0618149 -0.556525 -8.72279e-21)
(-0.031694 -0.513939 -1.8387e-20)
(-0.00210156 0.00186721 -1.00884e-19)
(-0.00770972 -0.0117888 -1.48601e-19)
(-0.0186164 -0.0354823 8.78595e-20)
(-0.0324487 -0.063462 -1.17687e-19)
(-0.0481584 -0.0925112 1.3301e-19)
(-0.0649612 -0.121394 6.86144e-20)
(-0.0820095 -0.15027 1.43833e-19)
(-0.0985178 -0.180107 -1.0989e-20)
(-0.113817 -0.212143 -1.43984e-19)
(-0.127361 -0.247477 7.74002e-20)
(-0.138702 -0.286822 1.72145e-20)
(-0.147451 -0.330367 2.9319e-20)
(-0.153225 -0.377676 -4.47222e-20)
(-0.155606 -0.427568 -4.40493e-20)
(-0.154112 -0.477948 2.63845e-20)
(-0.148211 -0.525616 -5.2974e-20)
(-0.137374 -0.566141 -8.71193e-21)
(-0.121277 -0.594008 8.47739e-20)
(-0.100199 -0.603446 4.25621e-20)
(-0.075381 -0.589823 -5.20509e-20)
(-0.0493901 -0.55111 1.52367e-19)
(-0.00297102 0.00596748 2.16141e-20)
(-0.0091592 -0.00188268 4.69701e-19)
(-0.0199143 -0.0215374 -3.04963e-20)
(-0.0331655 -0.0468051 3.11836e-19)
(-0.0479971 -0.074168 8.15873e-20)
(-0.063682 -0.102147 -8.24684e-20)
(-0.0794046 -0.130698 -5.85326e-20)
(-0.09441 -0.160631 1.09629e-19)
(-0.108075 -0.193073 -3.81455e-20)
(-0.119921 -0.22907 3.49671e-19)
(-0.129595 -0.269347 -1.14933e-19)
(-0.136838 -0.314168 4.44164e-19)
(-0.141434 -0.363247 6.99651e-21)
(-0.143166 -0.415626 1.93325e-20)
(-0.141778 -0.469501 -1.82742e-19)
(-0.136944 -0.521982 -1.14117e-19)
(-0.12829 -0.568851 2.176e-19)
(-0.115569 -0.604527 -1.85992e-19)
(-0.0989165 -0.622578 -1.59964e-19)
(-0.0788111 -0.616746 -2.10009e-20)
(-0.0584561 -0.582932 4.52525e-20)
(-0.00402745 0.00982321 1.07794e-19)
(-0.010911 0.00763161 -1.52296e-19)
(-0.0213106 -0.00796172 -8.45895e-20)
(-0.0335938 -0.0304494 -3.20919e-19)
(-0.0470399 -0.0560492 -1.07587e-19)
(-0.0610108 -0.083036 3.42099e-19)
(-0.0747398 -0.111141 6.29525e-20)
(-0.0875071 -0.140988 1.47583e-19)
(-0.0987277 -0.173566 -1.4445e-19)
(-0.107976 -0.209841 6.63796e-20)
(-0.114981 -0.250516 5.4738e-20)
(-0.119598 -0.295902 -1.78388e-19)
(-0.121775 -0.345829 3.06358e-19)
(-0.121514 -0.399541 -4.67648e-20)
(-0.118833 -0.455532 3.09691e-19)
(-0.113711 -0.511305 1.23032e-19)
(-0.106077 -0.563056 -1.01583e-19)
(-0.0959498 -0.60544 -1.00813e-19)
(-0.0834602 -0.631633 -5.61034e-20)
(-0.0682252 -0.633815 -9.69892e-20)
(-0.0538727 -0.605786 9.96026e-20)
(-0.00521186 0.0132721 7.45756e-20)
(-0.0128654 0.016402 1.14605e-19)
(-0.0227165 0.00479672 1.11974e-19)
(-0.0336771 -0.0148776 -1.81614e-20)
(-0.0452683 -0.0386432 4.24096e-19)
(-0.0569708 -0.064545 -2.49608e-19)
(-0.0680829 -0.0920834 2.95991e-19)
(-0.077923 -0.121676 -3.97879e-19)
(-0.0859364 -0.154151 1.61227e-21)
(-0.0917361 -0.190368 -2.10494e-19)
(-0.0951094 -0.230976 -2.68621e-20)
(-0.0960039 -0.27629 -5.52793e-20)
(-0.0945076 -0.326202 -4.20799e-19)
(-0.090828 -0.380098 1.10144e-19)
(-0.0852609 -0.436729 9.14605e-20)
(-0.0781356 -0.493989 2.35011e-19)
(-0.0697776 -0.548613 -7.61365e-20)
(-0.06061 -0.595783 3.24314e-20)
(-0.0509562 -0.628694 8.02609e-20)
(-0.0396741 -0.638382 -1.90099e-19)
(-0.0297253 -0.6168 -6.77415e-20)
(-0.00645437 0.0161811 -2.03814e-19)
(-0.0149075 0.024125 1.93002e-19)
(-0.0240355 0.0163404 -1.8754e-19)
(-0.0333641 -0.000531567 -8.1866e-20)
(-0.0426908 -0.022406 4.76767e-21)
(-0.051633 -0.0471336 -2.91362e-20)
(-0.0595714 -0.0739916 -2.67871e-19)
(-0.0658668 -0.103184 -6.23696e-19)
(-0.0699898 -0.135363 -1.86327e-19)
(-0.0715777 -0.171255 -2.92175e-20)
(-0.0704554 -0.21143 -6.30791e-21)
(-0.0666348 -0.256161 4.81053e-19)
(-0.06031 -0.305348 -1.98408e-20)
(-0.0518527 -0.358444 8.48695e-21)
(-0.0417993 -0.414359 3.51948e-20)
(-0.03081 -0.47131 9.03059e-20)
(-0.0196226 -0.526567 -4.24599e-20)
(-0.00909861 -0.576035 -1.65068e-19)
(2.7565e-05 -0.613449 -1.34859e-19)
(0.00917703 -0.629551 4.38449e-19)
(0.0183594 -0.614904 -7.53773e-21)
(-0.00767968 0.0184551 2.08501e-19)
(-0.0169108 0.0305638 1.61209e-20)
(-0.0251696 0.0263405 -5.05154e-19)
(-0.0326139 0.0122061 -1.46787e-19)
(-0.0393347 -0.00774469 2.89879e-19)
(-0.0451019 -0.0312213 -3.31323e-19)
(-0.0493896 -0.0572987 1.47843e-19)
(-0.0516092 -0.0859714 5.75889e-19)
(-0.0512551 -0.117704 2.71351e-19)
(-0.0479801 -0.15308 2.53379e-19)
(-0.0416299 -0.192561 -1.17113e-19)
(-0.032256 -0.236351 4.08886e-20)
(-0.020123 -0.284308 -2.64292e-19)
(-0.00571887 -0.335879 3.47914e-19)
(0.01024 -0.390036 5.6872e-21)
(0.026824 -0.445179 -5.23417e-20)
(0.0429393 -0.498994 9.0913e-20)
(0.0573402 -0.548113 5.86318e-20)
(0.0687073 -0.587303 -1.01792e-19)
(0.0775519 -0.608132 -1.7185e-19)
(0.0904686 -0.600075 -2.53447e-19)
(-0.00881432 0.0200413 -3.30054e-19)
(-0.0187488 0.0355566 5.76715e-19)
(-0.0260194 0.0345457 2.78211e-19)
(-0.0313894 0.0230259 -7.01017e-20)
(-0.0352386 0.00499504 -8.57651e-20)
(-0.0374962 -0.0171738 -1.99531e-19)
(-0.0377407 -0.0423888 -1.11664e-19)
(-0.0354419 -0.0704459 1.91002e-19)
(-0.0301211 -0.101625 4.12108e-19)
(-0.0214429 -0.136354 1.93419e-19)
(-0.00926392 -0.174977 2.67513e-19)
(0.00634251 -0.217606 2.57783e-19)
(0.0250663 -0.264023 -4.16037e-19)
(0.0463433 -0.313626 1.85625e-19)
(0.0693339 -0.365365 -5.75916e-19)
(0.0929148 -0.41769 -5.86074e-19)
(0.115721 -0.468498 -4.38028e-19)
(0.136209 -0.514968 1.7441e-19)
(0.152588 -0.55312 9.54332e-19)
(0.162531 -0.576315 -2.31758e-19)
(0.181681 -0.570866 2.118e-19)
(-0.00979295 0.0209296 5.81157e-19)
(-0.0203038 0.0390237 -2.52194e-19)
(-0.0264908 0.0407945 8.68177e-20)
(-0.0296544 0.0316996 4.63851e-19)
(-0.0304381 0.0155403 -4.29274e-19)
(-0.0289292 -0.00529507 1.57318e-19)
(-0.0248165 -0.029587 -2.6289e-19)
(-0.017635 -0.0569556 -6.4062e-19)
(-0.00693989 -0.0875016 9.14291e-19)
(0.0075921 -0.121501 -4.22327e-20)
(0.026097 -0.159169 2.55717e-19)
(0.048489 -0.200515 -1.16057e-19)
(0.0744219 -0.245231 2.50198e-19)
(0.103274 -0.292646 -1.27348e-20)
(0.134115 -0.341644 3.04898e-19)
(0.165689 -0.390641 -8.59323e-20)
(0.196446 -0.437588 2.8396e-19)
(0.22456 -0.479993 -5.27209e-19)
(0.248205 -0.514621 -5.09626e-19)
(0.262895 -0.537839 3.91675e-19)
(0.287956 -0.528809 -1.53361e-19)
(-0.0105638 0.021151 -5.70487e-19)
(-0.0214748 0.0409652 3.57363e-19)
(-0.0264988 0.0450179 -2.84645e-19)
(-0.0273709 0.0380891 1.5901e-19)
(-0.0249569 0.0236979 -1.36009e-19)
(-0.0194887 0.00418382 6.35796e-19)
(-0.0107674 -0.0191511 -5.15455e-20)
(0.00160209 -0.0457788 1.82071e-19)
(0.0180233 -0.0756342 -1.61568e-19)
(0.0388037 -0.108847 4.22655e-19)
(0.0640698 -0.1455 -8.46314e-19)
(0.0937231 -0.185491 -1.03066e-19)
(0.127378 -0.228434 -8.99201e-20)
(0.164339 -0.273569 3.8558e-19)
(0.20358 -0.319701 -4.86428e-19)
(0.243709 -0.365202 6.85411e-20)
(0.283029 -0.408021 3.961e-19)
(0.319676 -0.445769 1.82537e-19)
(0.351246 -0.476007 2.55085e-20)
(0.374696 -0.496346 -4.64176e-21)
(0.409092 -0.484332 -2.27224e-19)
(-0.0110917 0.0207694 5.15201e-19)
(-0.0221832 0.0414556 -4.10868e-19)
(-0.0259686 0.0472367 2.62981e-19)
(-0.0244939 0.0421475 -7.43558e-20)
(-0.0187918 0.0293613 -5.21398e-19)
(-0.00921758 0.0111115 -5.97655e-19)
(0.00432251 -0.0112627 6.81266e-19)
(0.0221529 -0.0371161 -1.13778e-19)
(0.0446325 -0.0662437 7.86752e-19)
(0.0720405 -0.0986235 -4.99257e-20)
(0.10449 -0.134211 2.31437e-20)
(0.141844 -0.172799 3.32123e-19)
(0.183664 -0.213909 3.55481e-19)
(0.229154 -0.256688 4.94342e-19)
(0.27713 -0.299882 2.13172e-19)
(0.326011 -0.34183 4.98408e-21)
(0.373893 -0.380502 -6.83827e-20)
(0.41872 -0.413659 1.20827e-19)
(0.458327 -0.439241 3.01348e-19)
(0.488792 -0.455562 -2.17413e-19)
(0.532613 -0.444414 2.47389e-19)
(-0.0113593 0.019876 -1.02509e-19)
(-0.0223746 0.0406309 -6.55436e-19)
(-0.0248365 0.047553 -3.0615e-19)
(-0.0209666 0.0439166 3.05075e-19)
(-0.0119021 0.0325115 -7.47956e-20)
(0.00190901 0.0154197 -3.04978e-20)
(0.0204678 -0.00602498 -4.97793e-19)
(0.044026 -0.0310943 1.33276e-19)
(0.0729028 -0.0594593 -6.58778e-19)
(0.107341 -0.0909565 -5.7315e-19)
(0.147414 -0.125421 -3.60346e-19)
(0.192921 -0.162534 -3.72473e-19)
(0.243318 -0.201712 4.38343e-20)
(0.297639 -0.242026 2.93812e-19)
(0.354466 -0.282172 5.86169e-19)
(0.411936 -0.320482 -9.06788e-20)
(0.467853 -0.355008 -3.90618e-19)
(0.519907 -0.38369 -3.2209e-19)
(0.566202 -0.404467 -4.63824e-20)
(0.601729 -0.417182 -1.57034e-19)
(0.651038 -0.406737 5.15792e-20)
(-0.0113688 0.0185781 4.91864e-19)
(-0.0220197 0.0386722 5.42153e-19)
(-0.023046 0.0461373 3.59457e-19)
(-0.0167136 0.0435205 3.02552e-19)
(-0.00419787 0.0332175 1.21435e-19)
(0.0139959 0.0171288 5.26138e-19)
(0.0377959 -0.00345153 7.40584e-19)
(0.0673893 -0.027741 -8.51902e-19)
(0.103045 -0.0553018 7.65794e-19)
(0.144958 -0.0858509 -3.46767e-20)
(0.193131 -0.119099 -3.30912e-19)
(0.247247 -0.154612 5.34975e-20)
(0.306575 -0.191704 4.29034e-19)
(0.369883 -0.229373 3.00163e-19)
(0.435404 -0.266279 -3.59848e-19)
(0.500893 -0.300788 3.28997e-19)
(0.563793 -0.331079 -6.30139e-20)
(0.62152 -0.355338 -6.78837e-21)
(0.672338 -0.371567 6.45725e-20)
(0.710685 -0.380841 1.0917e-19)
(0.760907 -0.370695 -1.80941e-19)
(-0.0111367 0.0169878 -1.09928e-18)
(-0.0211094 0.0357888 3.75821e-19)
(-0.0205433 0.0432133 -3.31801e-19)
(-0.0116324 0.0411558 -6.21502e-19)
(0.00447273 0.0316351 -4.86458e-19)
(0.0272476 0.0163572 -2.5508e-19)
(0.0565707 -0.00344803 -7.77089e-19)
(0.0925732 -0.0269676 8.77857e-20)
(0.135464 -0.0536751 4.44236e-19)
(0.185362 -0.0831757 3.42787e-20)
(0.242143 -0.11506 4.11566e-19)
(0.305295 -0.148777 3.80722e-19)
(0.373787 -0.183543 4.57729e-19)
(0.445992 -0.218294 7.00483e-19)
(0.519671 -0.251685 3.813e-20)
(0.592111 -0.282157 -3.48668e-19)
(0.660365 -0.308082 -1.87746e-19)
(0.72166 -0.327928 -7.50337e-19)
(0.774278 -0.339998 -7.28675e-20)
(0.813076 -0.345912 -1.53359e-19)
(0.859865 -0.335738 1.65634e-19)
(-0.0106897 0.0152133 3.0953e-19)
(-0.0196467 0.0321995 4.48092e-19)
(-0.017268 0.039038 -2.77567e-19)
(-0.00558416 0.0370775 2.19253e-19)
(0.014334 0.0279994 9.08109e-19)
(0.0419789 0.0133183 2.68002e-19)
(0.0772028 -0.00581215 3.62813e-19)
(0.120085 -0.028565 3.56131e-19)
(0.170755 -0.054341 -7.76016e-19)
(0.229204 -0.0826414 6.55797e-20)
(0.295099 -0.112941 8.10512e-20)
(0.367612 -0.144579 7.25746e-19)
(0.445271 -0.176688 -6.63338e-19)
(0.525906 -0.208165 1.17352e-19)
(0.606703 -0.237706 -4.97986e-19)
(0.684443 -0.263888 2.85365e-19)
(0.755845 -0.285342 2.58246e-19)
(0.818137 -0.300826 -2.64179e-20)
(0.869576 -0.309216 -2.88087e-19)
(0.906469 -0.31198 -1.88772e-19)
(0.946281 -0.301804 6.90326e-20)
(-0.0100585 0.0133505 -1.74925e-19)
(-0.0176358 0.0281147 5.75883e-20)
(-0.0131431 0.0338831 -1.19414e-19)
(0.00161438 0.0315825 -4.28334e-19)
(0.0256878 0.022613 -8.65437e-20)
(0.0586167 0.00831699 3.21684e-19)
(0.100243 -0.0102283 4.85433e-19)
(0.150588 -0.0321912 -9.1692e-20)
(0.20966 -0.0569101 6.11654e-20)
(0.277244 -0.083791 6.5054e-19)
(0.352678 -0.112203 -6.29226e-19)
(0.43466 -0.141392 -1.98078e-19)
(0.521116 -0.170433 1.43743e-19)
(0.609203 -0.198235 -7.23051e-20)
(0.695478 -0.223593 4.43178e-19)
(0.776275 -0.245288 -1.23114e-19)
(0.848147 -0.26227 4.32761e-20)
(0.908578 -0.273565 3.62086e-19)
(0.955918 -0.278858 3.68726e-19)
(0.988733 -0.278783 7.70268e-20)
(1.01906 -0.268998 1.05864e-19)
(-0.0092706 0.0114761 -6.67655e-20)
(-0.0150704 0.023722 -4.605e-19)
(-0.00806414 0.0280159 -1.63021e-19)
(0.0101971 0.0249908 -6.96875e-20)
(0.0389123 0.0158321 1.78886e-19)
(0.0776872 0.00174063 -2.56096e-19)
(0.126355 -0.0162731 -3.4978e-19)
(0.18485 -0.037374 -7.97342e-19)
(0.25299 -0.0608456 2.35473e-19)
(0.330234 -0.0860107 -9.02476e-19)
(0.415429 -0.112152 7.22085e-19)
(0.506623 -0.138454 -1.00619e-19)
(0.600987 -0.163987 -6.20816e-21)
(0.694932 -0.187732 -2.65141e-19)
(0.784437 -0.208658 -8.91002e-19)
(0.865572 -0.225806 4.52178e-19)
(0.935003 -0.238472 2.33656e-20)
(0.990738 -0.245935 -1.93931e-20)
(1.03148 -0.248763 2.64e-19)
(1.05837 -0.245986 1.05771e-19)
(1.07761 -0.237473 2.82608e-19)
(-0.00834315 0.0096436 -4.11932e-20)
(-0.0119219 0.0191753 -1.26014e-19)
(-0.00189123 0.0216838 -5.7569e-19)
(0.0204484 0.0176281 -1.16002e-18)
(0.0544508 0.00804801 3.5542e-19)
(0.0997877 -0.00595934 4.69607e-19)
(0.156263 -0.0234322 8.52311e-20)
(0.223661 -0.0435295 6.23463e-19)
(0.3015 -0.0654876 -4.96037e-19)
(0.38875 -0.0885658 -7.72473e-19)
(0.483583 -0.111995 -8.99277e-19)
(0.58322 -0.134952 1.49077e-19)
(0.683977 -0.156569 4.20471e-19)
(0.781557 -0.175981 -3.12176e-19)
(0.871549 -0.192392 3.89063e-19)
(0.950072 -0.205143 -3.3921e-19)
(1.01427 -0.213849 1.9731e-19)
(1.06292 -0.218026 3.35171e-20)
(1.09543 -0.218884 1.4957e-19)
(1.11503 -0.213291 -4.91342e-19)
(1.12189 -0.208527 -3.7282e-19)
(-0.0072771 0.00788281 -2.06846e-19)
(-0.00813072 0.0145892 -6.06853e-19)
(0.00555498 0.0151031 9.11051e-20)
(0.0326966 0.00980915 1.03229e-19)
(0.0727876 -0.00033356 2.34348e-19)
(0.125541 -0.0142903 9.87414e-19)
(0.190675 -0.0311279 -4.26637e-19)
(0.267722 -0.049996 2.19574e-19)
(0.355746 -0.0700981 4.19279e-19)
(0.453034 -0.0906622 -1.50588e-19)
(0.556886 -0.110922 4.21935e-19)
(0.663573 -0.130117 -8.99367e-19)
(0.768568 -0.147528 5.07028e-19)
(0.86704 -0.162512 3.61893e-20)
(0.954524 -0.174558 -3.4164e-19)
(1.02758 -0.183301 -1.35833e-19)
(1.08423 -0.188602 1.58825e-19)
(1.12422 -0.190188 -5.32287e-19)
(1.14806 -0.189324 4.19541e-19)
(1.15985 -0.181519 -5.1789e-19)
(1.15376 -0.18525 -3.88065e-20)
(-0.0060534 0.00620139 8.47707e-19)
(-0.00360163 0.0100397 6.47916e-20)
(0.0144908 0.00845382 -2.71973e-20)
(0.0472989 0.00182545 -6.24622e-19)
(0.0944146 -0.00891091 -2.84031e-19)
(0.155535 -0.0227446 -4.633e-19)
(0.230196 -0.0387532 4.11878e-20)
(0.31753 -0.0560799 5.59878e-19)
(0.415947 -0.0739207 -1.45038e-19)
(0.522846 -0.091523 1.97759e-20)
(0.634501 -0.108195 -4.82888e-19)
(0.746207 -0.123328 -7.90732e-19)
(0.852745 -0.136426 1.68199e-19)
(0.949087 -0.147125 -5.5785e-19)
(1.03114 -0.155198 4.82224e-19)
(1.09633 -0.16053 4.32255e-19)
(1.1438 -0.163144 3.54944e-19)
(1.17443 -0.162901 -2.251e-20)
(1.18993 -0.160679 -2.27859e-20)
(1.19406 -0.153087 5.12663e-19)
(1.18545 -0.154851 -6.90316e-20)
(-0.00463172 0.00458977 -2.77343e-19)
(0.00179669 0.00556939 -8.91769e-19)
(0.0251623 0.00187933 -2.7367e-19)
(0.0646201 -0.00606197 -1.68774e-19)
(0.119791 -0.017302 6.50699e-19)
(0.190262 -0.0308245 -2.05267e-19)
(0.275241 -0.0457081 9.05791e-19)
(0.373268 -0.0611047 -9.31057e-20)
(0.48188 -0.0762455 -2.33498e-19)
(0.597405 -0.0904666 1.11004e-19)
(0.715021 -0.103237 7.34679e-19)
(0.829163 -0.114184 -5.98658e-20)
(0.934241 -0.123093 1.19655e-18)
(1.02547 -0.129888 7.35232e-19)
(1.09959 -0.134585 4.15282e-19)
(1.15519 -0.137239 2.31131e-19)
(1.19271 -0.137939 3.60705e-19)
(1.2141 -0.136575 1.60019e-19)
(1.22188 -0.133807 -2.9222e-19)
(1.22007 -0.12694 4.50045e-19)
(1.20839 -0.127811 3.86472e-19)
(-0.00295236 0.00302748 -5.83758e-19)
(0.0082253 0.00119733 6.57384e-19)
(0.0378325 -0.00450679 4.40743e-19)
(0.0850081 -0.0136218 -3.63448e-19)
(0.149304 -0.0251529 3.52078e-19)
(0.230058 -0.0380612 -1.39929e-19)
(0.325964 -0.0514313 -4.83772e-19)
(0.43474 -0.0644567 7.68792e-19)
(0.552842 -0.0764663 -2.42309e-19)
(0.67541 -0.0869692 2.05032e-19)
(0.796591 -0.0956841 5.69148e-19)
(0.910245 -0.102536 3.94832e-19)
(1.01085 -0.107611 -5.33181e-19)
(1.09436 -0.111082 -3.74633e-19)
(1.15871 -0.11313 6.47392e-20)
(1.20385 -0.113878 1.68837e-19)
(1.23145 -0.113394 -3.48184e-19)
(1.24432 -0.111539 1.63717e-19)
(1.24557 -0.108739 1.17584e-19)
(1.23906 -0.102729 -3.02409e-19)
(1.22495 -0.103375 4.02369e-19)
(-0.000940204 0.00149087 3.58947e-19)
(0.0158659 -0.00306762 4.08239e-19)
(0.0527642 -0.0106083 2.38409e-19)
(0.108768 -0.0206461 3.01719e-19)
(0.183231 -0.0321392 -4.21767e-19)
(0.275061 -0.0440262 -4.39331e-19)
(0.382212 -0.0554227 7.94388e-20)
(0.501351 -0.0656183 -2.75801e-19)
(0.627683 -0.0741207 -8.87674e-20)
(0.755162 -0.0807024 5.97654e-19)
(0.87713 -0.0854033 -6.8825e-19)
(0.987296 -0.0884722 2.66257e-19)
(1.08073 -0.090263 -3.52217e-19)
(1.15454 -0.0911183 -5.80378e-19)
(1.20808 -0.0912807 6.70375e-19)
(1.24269 -0.0908495 3.05247e-19)
(1.26106 -0.0898023 -9.07836e-20)
(1.26657 -0.0879325 -2.1133e-20)
(1.26258 -0.0854391 8.7379e-20)
(1.25262 -0.0804955 -2.14169e-19)
(1.23739 -0.0809628 -9.14033e-20)
(0.00148944 -3.9711e-05 -3.42235e-20)
(0.0249091 -0.00721298 -1.8767e-19)
(0.0702039 -0.016332 7.85006e-19)
(0.136142 -0.026939 2.76846e-19)
(0.221714 -0.0379604 -9.53938e-21)
(0.325186 -0.0483344 -9.47436e-20)
(0.443526 -0.0572564 2.77552e-19)
(0.572136 -0.0641891 1.9842e-19)
(0.704903 -0.0689116 -6.6122e-19)
(0.834739 -0.0715409 -2.59024e-19)
(0.954569 -0.0724752 -6.32008e-19)
(1.05847 -0.0722639 -9.11512e-19)
(1.14257 -0.0714506 8.87852e-19)
(1.20546 -0.0704425 -8.05918e-19)
(1.24798 -0.0694433 -4.32404e-19)
(1.27264 -0.0684528 2.46325e-19)
(1.28288 -0.0673223 -3.5543e-20)
(1.28238 -0.0657649 -2.69923e-19)
(1.27444 -0.0637919 1.06999e-19)
(1.26219 -0.0599002 -2.63402e-21)
(1.2463 -0.0605306 1.08603e-19)
(0.0044248 -0.00157395 -4.89644e-19)
(0.0355412 -0.01121 -1.1301e-19)
(0.0903651 -0.021573 -3.04761e-19)
(0.167288 -0.0323027 1.19123e-19)
(0.264746 -0.0423311 5.2884e-19)
(0.38012 -0.0506429 1.95592e-19)
(0.509152 -0.0565872 2.00692e-19)
(0.645835 -0.0598952 -9.37694e-19)
(0.782792 -0.0607091 1.91351e-19)
(0.912206 -0.0595443 1.49205e-19)
(1.02708 -0.0571473 -3.70182e-19)
(1.1224 -0.0542955 1.42936e-19)
(1.19573 -0.0516135 5.29027e-19)
(1.24725 -0.0494643 1.71083e-19)
(1.27917 -0.0479307 6.59002e-19)
(1.29492 -0.0468684 3.98457e-19)
(1.29836 -0.0459954 -8.06805e-20)
(1.29318 -0.0449526 4.77633e-19)
(1.28245 -0.0436033 -7.56089e-20)
(1.26877 -0.0407682 -1.00699e-20)
(1.25286 -0.0415842 -6.96381e-20)
(0.0079519 -0.00310731 6.95132e-20)
(0.0479326 -0.0150037 3.50291e-19)
(0.113414 -0.0262019 -1.32898e-19)
(0.202267 -0.0365261 -2.48786e-19)
(0.312158 -0.0449739 4.14239e-20)
(0.439331 -0.0506495 2.6896e-19)
(0.578095 -0.0531534 -1.03421e-19)
(0.720991 -0.0525893 2.51999e-20)
(0.85959 -0.0495372 -2.099e-19)
(0.985797 -0.0449212 2.28063e-20)
(1.09325 -0.0397748 1.98274e-19)
(1.17828 -0.0349935 -4.70873e-19)
(1.24013 -0.0311646 -1.23088e-19)
(1.2805 -0.0285133 2.07218e-19)
(1.30273 -0.0269488 -8.23041e-19)
(1.31085 -0.0261688 -5.60042e-20)
(1.30886 -0.0257742 2.46406e-19)
(1.30021 -0.0253539 -2.44927e-20)
(1.28763 -0.0246745 2.28291e-19)
(1.2732 -0.0228317 5.05069e-20)
(1.25753 -0.0239082 -3.24904e-20)
(0.0121497 -0.00461903 -1.01128e-19)
(0.0622274 -0.0185076 6.8401e-20)
(0.139458 -0.0300574 3.72791e-19)
(0.241035 -0.0393782 3.15905e-19)
(0.363624 -0.045616 -2.6256e-19)
(0.502091 -0.0480941 -2.30331e-19)
(0.649178 -0.0467791 3.87941e-19)
(0.796066 -0.0422453 -1.67214e-19)
(0.933636 -0.0355494 -1.1782e-19)
(1.05406 -0.0279832 5.54476e-20)
(1.15213 -0.0207613 1.23835e-19)
(1.22585 -0.0147693 -5.57144e-19)
(1.27616 -0.0104489 -2.02774e-19)
(1.30612 -0.00782178 -9.8984e-20)
(1.31986 -0.00660271 -3.96913e-19)
(1.32171 -0.006343 3.81698e-19)
(1.31553 -0.00655612 7.02523e-20)
(1.30445 -0.00680515 2.68433e-19)
(1.29074 -0.00680246 -6.45744e-20)
(1.27601 -0.00589324 7.23071e-20)
(1.26077 -0.00723537 -1.85766e-19)
(0.0170865 -0.00607196 5.27509e-19)
(0.0785335 -0.0216018 1.28334e-20)
(0.168533 -0.0329445 -2.84679e-19)
(0.283433 -0.0406081 2.00042e-19)
(0.418662 -0.043994 -4.98447e-19)
(0.567509 -0.0427657 8.87012e-20)
(0.721117 -0.0373768 -1.07244e-19)
(0.869549 -0.0289461 8.53716e-19)
(1.00349 -0.0189973 5.69209e-19)
(1.11594 -0.00909771 4.68845e-19)
(1.20328 -0.000508881 6.7217e-20)
(1.26531 0.00601906 3.92402e-19)
(1.30456 0.0102736 2.18168e-19)
(1.32516 0.0124701 -1.34282e-19)
(1.33173 0.0130817 -7.76616e-20)
(1.32859 0.0126749 -2.17562e-19)
(1.31933 0.0117878 1.3632e-19)
(1.30661 0.0108586 2.87692e-19)
(1.2923 0.010192 6.62999e-20)
(1.27757 0.0102331 1.24779e-19)
(1.26282 0.00860789 1.44747e-19)
(0.0228171 -0.00741383 -5.64526e-19)
(0.0969159 -0.0241363 4.35506e-19)
(0.200594 -0.0346387 -1.8438e-19)
(0.329183 -0.039953 -8.01776e-20)
(0.47665 -0.0398637 -9.21442e-20)
(0.634572 -0.0345117 -1.26643e-19)
(0.792596 -0.0249473 -2.69934e-19)
(0.940058 -0.0128668 -1.41729e-19)
(1.06801 -0.000196297 -1.68663e-19)
(1.17079 0.0113537 -1.11369e-20)
(1.24664 0.020617 -8.08333e-20)
(1.29716 0.0270855 4.96053e-19)
(1.32623 0.0308277 9.12947e-20)
(1.3387 0.0322992 1.43813e-19)
(1.33939 0.0321344 4.08334e-19)
(1.33243 0.0309798 -2.98164e-19)
(1.32096 0.0293911 -2.58463e-20)
(1.30723 0.027787 -3.06369e-19)
(1.29267 0.0264624 -2.81089e-19)
(1.27812 0.0256899 -1.57819e-19)
(1.26386 0.0237707 -2.013e-19)
(0.0293806 -0.00857941 2.13123e-19)
(0.11739 -0.0259356 -6.30125e-20)
(0.235514 -0.0348952 3.51779e-20)
(0.377892 -0.03715 -6.70677e-20)
(0.536841 -0.0330149 1.7978e-19)
(0.702194 -0.0232471 9.79625e-20)
(0.862346 -0.00957549 -5.72077e-19)
(1.00641 0.00574731 2.92773e-19)
(1.12638 0.0205081 -9.8087e-20)
(1.21835 0.0330077 9.5369e-19)
(1.28251 0.042308 -4.06269e-19)
(1.32213 0.0482195 5.21861e-20)
(1.34211 0.0511113 3.18615e-19)
(1.34773 0.0516584 -2.14044e-19)
(1.34375 0.0506174 -3.01466e-19)
(1.33392 0.0486758 1.85717e-19)
(1.32096 0.0463775 5.96672e-21)
(1.30665 0.0441078 -1.10621e-19)
(1.29208 0.0421328 -4.2389e-19)
(1.2778 0.0405924 3.41519e-21)
(1.26398 0.0383604 -1.59928e-19)
(0.0367984 -0.00949315 5.47681e-20)
(0.139917 -0.0268071 -5.40068e-20)
(0.273074 -0.0334607 4.39631e-19)
(0.429053 -0.031953 -1.96677e-20)
(0.598394 -0.0232861 -3.17123e-19)
(0.769271 -0.00896087 1.57081e-19)
(0.929213 0.00857948 -5.74139e-20)
(1.06769 0.0266046 -1.4239e-19)
(1.17814 0.0427684 2.33646e-19)
(1.25868 0.0555405 -3.63408e-19)
(1.31142 0.0643197 -2.98951e-19)
(1.34102 0.069279 2.35508e-20)
(1.35312 0.0710789 -2.25169e-19)
(1.35312 0.0705763 2.15524e-19)
(1.34551 0.0686063 2.91122e-20)
(1.33361 0.065862 4.62016e-20)
(1.31968 0.0628534 -6.68586e-20)
(1.3051 0.059924 1.15381e-19)
(1.29065 0.0573001 2.51019e-19)
(1.27668 0.055027 -1.35419e-19)
(1.26326 0.0524587 1.31486e-19)
(0.0450724 -0.0100721 -4.82072e-20)
(0.1644 -0.0265495 1.84559e-19)
(0.312966 -0.0300878 2.93563e-19)
(0.482063 -0.0241479 -9.88252e-20)
(0.660407 -0.0105769 -2.09596e-19)
(0.834733 0.00828413 1.78723e-19)
(0.992203 0.0292984 -6.47644e-20)
(1.12322 0.0493902 -3.86759e-20)
(1.2231 0.0662557 4.95717e-19)
(1.29207 0.078678 7.12269e-20)
(1.33401 0.0864694 -1.26536e-19)
(1.35467 0.0901774 -4.92338e-20)
(1.36009 0.0907234 3.63638e-19)
(1.35557 0.0890994 -7.42309e-20)
(1.34522 0.0861767 2.05134e-19)
(1.33188 0.0826241 -2.31446e-19)
(1.31736 0.0789041 2.34342e-19)
(1.30272 0.0753147 -1.21335e-19)
(1.28848 0.0720368 5.73689e-20)
(1.27483 0.0690579 5.45972e-20)
(1.26174 0.0661236 -6.20774e-20)
(0.0541835 -0.010229 1.51635e-19)
(0.190683 -0.0249616 6.30326e-20)
(0.354799 -0.0245483 -5.74438e-20)
(0.53624 -0.0135675 2.31861e-19)
(0.721957 0.00514476 2.92998e-19)
(0.897594 0.0283561 -3.9673e-19)
(1.05052 0.0523189 -1.41915e-19)
(1.1726 0.0737858 3.07559e-19)
(1.26131 0.0906732 -3.32651e-19)
(1.31897 0.102197 -1.04135e-19)
(1.35097 0.108627 -1.29937e-19)
(1.36382 0.110869 -8.25707e-20)
(1.36371 0.110061 -1.03475e-20)
(1.35565 0.107279 3.54034e-20)
(1.34328 0.103395 -5.51517e-20)
(1.32897 0.0990303 1.13707e-19)
(1.31415 0.0945934 5.53677e-20)
(1.29958 0.0903367 6.16019e-20)
(1.28559 0.0863947 2.23342e-19)
(1.27225 0.0827295 -5.30539e-21)
(1.25945 0.0793952 -1.0634e-19)
(0.0640903 -0.0098753 -3.06672e-19)
(0.218552 -0.0218521 1.51926e-19)
(0.398106 -0.0166458 -2.56609e-19)
(0.590848 -0.000101568 9.05371e-20)
(0.782135 0.0238405 1.55281e-19)
(0.956984 0.0510642 1.20537e-19)
(1.10355 0.0773523 -2.42747e-20)
(1.21564 0.099484 -1.80948e-19)
(1.29301 0.115762 2.70085e-19)
(1.33992 0.125923 2.32524e-20)
(1.36298 0.130704 -1.93821e-19)
(1.36917 0.131335 9.02763e-21)
(1.36457 0.129115 1.70475e-19)
(1.35379 0.125162 -7.95284e-20)
(1.33997 0.120312 9.82633e-20)
(1.32505 0.11513 -1.18987e-19)
(1.31012 0.109965 4.00294e-20)
(1.29571 0.105028 2.1108e-21)
(1.28201 0.100408 1.68604e-19)
(1.26897 0.0960704 -7.27775e-20)
(1.25642 0.0922987 3.10196e-20)
(0.0747284 -0.00892444 7.02573e-20)
(0.247739 -0.0170474 3.99149e-21)
(0.442359 -0.00622639 1.41998e-19)
(0.645124 0.0162956 -8.81168e-20)
(0.840086 0.0454041 -8.98262e-20)
(1.01218 0.0761708 -3.07998e-20)
(1.15092 0.104098 -1.12261e-20)
(1.25236 0.126198 3.5211e-19)
(1.31856 0.141301 -4.05919e-20)
(1.35549 0.149719 -1.88648e-19)
(1.37068 0.152642 2.02582e-21)
(1.37129 0.151571 3.17378e-20)
(1.36311 0.147913 -1.13568e-19)
(1.35029 0.142784 -6.20344e-21)
(1.33548 0.136965 -1.21211e-19)
(1.32023 0.130954 -1.733e-19)
(1.30533 0.125045 -1.00954e-19)
(1.29114 0.119409 -1.96152e-19)
(1.27773 0.114096 -4.92434e-20)
(1.26499 0.109095 3.56694e-20)
(1.25267 0.104847 1.56011e-20)
(0.0860107 -0.00729519 -7.94605e-20)
(0.277924 -0.0104005 -1.07859e-19)
(0.486986 0.00681288 -2.96138e-19)
(0.698306 0.0356031 4.91076e-20)
(0.895035 0.0696682 1.85723e-19)
(1.0626 0.103404 8.57572e-20)
(1.19239 0.132254 -2.17905e-19)
(1.28289 0.153664 1.01191e-19)
(1.33837 0.167105 -2.39283e-20)
(1.36625 0.17348 -1.38346e-20)
(1.37463 0.174399 -7.25735e-20)
(1.37065 0.171575 9.43914e-20)
(1.35969 0.166472 -2.61275e-20)
(1.34539 0.160167 2.04757e-20)
(1.32994 0.153372 1.59084e-20)
(1.31454 0.146516 -2.37459e-21)
(1.29977 0.139843 -2.76424e-21)
(1.28585 0.133487 -9.03656e-20)
(1.27275 0.127464 -7.93666e-20)
(1.26031 0.121806 6.55394e-20)
(1.24823 0.117041 -5.17583e-20)
(0.0978288 -0.00491487 2.19306e-19)
(0.308747 -0.00179703 9.97493e-20)
(0.531386 0.0225186 1.05491e-19)
(0.749661 0.0577341 -3.75558e-20)
(0.946305 0.0964132 1.61868e-19)
(1.10783 0.132469 -1.54941e-19)
(1.22788 0.161528 8.12802e-20)
(1.30748 0.181647 5.93097e-20)
(1.35291 0.193014 6.17736e-21)
(1.37271 0.197123 -4.8158e-20)
(1.37531 0.195944 -3.3396e-20)
(1.36763 0.191345 4.40643e-20)
(1.35456 0.184798 -7.94684e-21)
(1.33922 0.177317 3.26691e-20)
(1.3234 0.169536 -4.57745e-20)
(1.30801 0.161816 -8.24672e-20)
(1.29346 0.154356 -2.51328e-20)
(1.27984 0.147257 5.37152e-20)
(1.26706 0.140509 -5.90029e-20)
(1.25493 0.134195 3.47464e-20)
(1.24309 0.128875 8.03358e-21)
(0.110054 -0.00172235 -6.28218e-20)
(0.339816 0.00883827 -8.84687e-20)
(0.574952 0.0408779 -8.82057e-20)
(0.798503 0.0825401 -6.0081e-20)
(0.993332 0.125377 -2.65582e-20)
(1.14758 0.163058 6.72091e-20)
(1.25744 0.191636 -2.02419e-20)
(1.32644 0.209931 3.51335e-20)
(1.36261 0.218894 -9.51887e-20)
(1.37533 0.220575 6.16466e-20)
(1.37313 0.217247 1.82027e-20)
(1.36252 0.21087 3.2137e-20)
(1.34789 0.202885 -2.67385e-20)
(1.33188 0.194227 3.17404e-20)
(1.31591 0.185445 1.68698e-20)
(1.30065 0.176839 8.09915e-21)
(1.28637 0.168568 -7.62246e-21)
(1.27309 0.160704 -4.92198e-20)
(1.26066 0.153216 4.69009e-20)
(1.24886 0.146243 -1.40471e-20)
(1.23729 0.140332 -1.43771e-20)
(0.122542 0.00232916 -1.39442e-21)
(0.370717 0.0215379 -2.95919e-20)
(0.617085 0.0618182 9.52485e-21)