/*--------------------------------*- C++ -*----------------------------------*\
  =========                 |
  \\      /  F ield         | OpenFOAM: The Open Source CFD Toolbox
   \\    /   O peration     | Website:  https://openfoam.org
    \\  /    A nd           | Version:  7
     \\/     M anipulation  |
\*---------------------------------------------------------------------------*/
FoamFile
{
    version     2.0;
    format      ascii;
    class       surfaceScalarField;
    location    "55";
    object      phi;
}
// * * * * * * * * * * * * * * * * * * * * * * * * * * * * * * * * * * * * * //

dimensions      [0 3 -1 0 0 0 0];

internalField   nonuniform List<scalar> 
278
(
0.0036506
-0.0146507
0.0147884
-0.015154
0.0152257
0.00365687
-0.0145136
-0.0150797
0.00366267
-0.0143776
-0.0150028
0.00366802
-0.0142429
-0.0149234
0.0036729
-0.0141099
-0.0148416
0.00367732
-0.0139789
-0.0147576
0.00368127
-0.0138502
-0.0146715
0.00368476
-0.013724
-0.0145834
0.00368778
-0.0136005
-0.0144936
0.00369035
-0.01348
-0.0144022
0.00369248
-0.0133624
-0.0143094
0.00369418
-0.0132481
-0.0142154
0.00369546
-0.0131371
-0.0141205
0.00369635
-0.0130296
-0.0140248
0.00369687
-0.0129256
-0.0139287
0.00369704
-0.0128252
-0.0138323
0.0036969
-0.0127287
-0.0137357
0.00369644
-0.0126361
-0.0136393
0.00369568
-0.0125474
-0.0135431
0.00369464
-0.0124629
0.00359887
-0.0134474
-0.0150116
0.00369015
-0.0123796
0.00360028
-0.0133575
-0.0149877
0.0192126
-0.0119697
0.018597
-0.012742
-0.014471
0.0195928
-0.0115556
0.0188406
-0.0119898
-0.0139513
0.0199615
0.019111
-0.0111393
-0.0133776
0.0193752
-0.0102224
-0.0127348
0.0196088
-0.00923879
-0.012017
0.0197983
-0.00819478
-0.0112373
0.019937
-0.00709561
-0.0104127
0.0200439
-0.00597778
-0.00954485
0.020138
-0.00489977
-0.00861937
0.0202321
-0.00392731
-0.0076264
0.0203182
-0.0031025
-0.0065815
0.0203833
-0.0024279
-0.00551255
0.0204354
-0.00188609
-0.0044478
0.0204866
-0.00145452
-0.00342712
0.0205408
-0.00111033
-0.00250186
0.0205948
-0.0008335
-0.00172776
0.0206459
-0.000608151
-0.00112984
0.0206921
-0.000421881
-0.000697782
0.0207313
-0.000264823
-0.000394887
0.0207603
-0.00012761
-0.000176417
0.0207747
0.0177454
0.0162955
-0.0171673
0.0183621
0.0161298
0.0189581
0.0160342
0.0194276
0.0160402
0.0196545
0.0161835
0.0195429
0.0164741
0.0190282
0.0168979
0.0180581
0.0174306
0.0165805
0.0181044
0.014602
0.019014
0.012281
0.0201755
0.00992962
0.0213822
0.00783108
0.0222972
0.00610891
0.0227379
0.00473892
0.022794
0.00363709
0.0226662
0.00272408
0.0225003
0.00194205
0.0223575
0.00124886
0.0222525
0.000611133
0.022185
0.0221519
0.0163105
0.0162437
-0.0162587
0.0164136
0.0160268
0.0165351
0.0159126
0.0165526
0.0160227
0.0163595
0.0163766
0.0158713
0.0169623
0.0150325
0.0177367
0.0137977
0.0186654
0.0121597
0.0197423
0.0102261
0.00824246
0.0064765
0.005065
0.00398239
0.00313398
0.00243834
0.00184601
0.00132654
0.000857712
0.000420935
0.0143646
-0.0148204
0.0137751
0.0130158
0.012091
0.0110002
0.00975399
0.0083704
0.00688383
0.00343176
-0.0170942
0.00338849
-0.0162154
0.0034448
-0.0170165
-0.0161731
0.00345765
-0.0169339
-0.0161316
0.00347036
-0.0168467
-0.0160907
0.0034829
-0.0167547
-0.0160502
0.00349526
-0.016658
-0.0160097
0.00350742
-0.0165568
-0.0159689
0.00351935
-0.0164511
-0.0159276
0.00353102
-0.0163412
-0.0158854
0.00354242
-0.0162272
-0.015842
0.00355351
-0.0161093
-0.0157972
0.00356428
-0.0159877
-0.0157506
0.00357471
-0.0158629
-0.0157021
0.00358477
-0.0157351
-0.0156515
0.00359445
-0.0156046
-0.0155985
0.00360374
-0.0154719
-0.015543
0.00361262
-0.0153372
-0.015485
0.00362108
-0.0152012
-0.0154243
0.00362912
-0.015064
-0.0153608
0.00363672
-0.0149263
-0.0152946
0.00364388
)
;

boundaryField
{
    inlet
    {
        type            calculated;
        value           nonuniform 0();
    }
    outlet
    {
        type            calculated;
        value           nonuniform 0();
    }
    cylinder
    {
        type            calculated;
        value           nonuniform 0();
    }
    top
    {
        type            symmetryPlane;
        value           uniform 0;
    }
    bottom
    {
        type            symmetryPlane;
        value           uniform 0;
    }
    defaultFaces
    {
        type            empty;
        value           nonuniform 0();
    }
    procBoundary46to45
    {
        type            processor;
        value           nonuniform List<scalar> 
85
(
-0.0037883
-0.00379393
-0.00379873
-0.0038027
-0.00380588
-0.0038083
-0.00380998
-0.00381096
-0.00381126
-0.00381093
-0.00381
-0.0038085
-0.00380646
-0.0038039
-0.00380086
-0.00379736
-0.00379343
-0.00378907
-0.00378432
-0.00377917
-0.00377351
-0.0196224
-0.020007
-0.0204098
-0.0111072
-0.0202921
-0.0205924
-0.0208423
-0.0210362
-0.0211617
-0.021216
-0.0212045
-0.021143
-0.0210579
-0.0209772
-0.0209182
-0.020885
-0.0208716
-0.0208713
-0.0208784
-0.0208884
-0.0208976
-0.0209023
-0.0168736
-0.0167465
-0.0166302
-0.0165096
-0.0164104
-0.0163625
-0.0163831
-0.0164606
-0.0166268
-0.0170355
-0.0178544
-0.0190308
-0.0201987
-0.0210157
-0.021424
-0.0215644
-0.0215873
-0.0215754
-0.0215593
-0.0215473
-0.0215408
-0.0035049
-0.00352253
-0.00354018
-0.00355764
-0.0035749
-0.00359192
-0.00360864
-0.003625
-0.00364096
-0.00365645
-0.00367141
-0.00368579
-0.00369954
-0.0037126
-0.00372492
-0.00373648
-0.00374723
-0.00375716
-0.00376624
-0.00377445
-0.00378181
)
;
    }
    procBoundary46to47
    {
        type            processor;
        value           nonuniform List<scalar> 
87
(
0.00357894
0.00358255
0.00358577
0.00358863
0.00359114
0.00359331
0.00359515
0.00359669
0.00359795
0.00359893
0.00359968
0.0036002
0.00360054
0.00360071
0.00360072
0.0036006
0.00360036
0.00360001
0.00359952
0.015034
0.0035765
0.00357639
0.0180803
0.0183209
0.0185373
0.0187324
0.018891
0.0190186
0.0191124
0.0191761
0.0192125
0.0192391
0.0192733
0.0193143
0.0193706
0.0194659
0.0196155
0.0198207
0.020048
0.02026
0.0204284
0.0205419
0.0205983
0.0209476
0.0221591
0.0231481
0.0237087
0.0238205
0.0236424
0.0233619
0.0230926
0.0228769
0.0227214
0.0226218
0.0225728
0.0166995
0.0166163
0.0166719
0.0169475
0.0174674
0.0182085
0.0191203
0.0201519
0.00537314
0.021253
0.00344583
-0.0148777
0.00340245
0.00341616
0.00342948
0.00344236
0.00345477
0.00346667
0.00347802
0.00348882
0.00349904
0.00350868
0.00351773
0.00352621
0.00353412
0.00354147
0.00354828
0.00355457
0.00356036
0.00356567
0.00357052
0.00357494
)
;
    }
}


// ************************************************************************* //
