/*--------------------------------*- C++ -*----------------------------------*\
  =========                 |
  \\      /  F ield         | OpenFOAM: The Open Source CFD Toolbox
   \\    /   O peration     | Website:  https://openfoam.org
    \\  /    A nd           | Version:  7
     \\/     M anipulation  |
\*---------------------------------------------------------------------------*/
FoamFile
{
    version     2.0;
    format      ascii;
    class       surfaceScalarField;
    location    "70";
    object      phi;
}
// * * * * * * * * * * * * * * * * * * * * * * * * * * * * * * * * * * * * * //

dimensions      [0 3 -1 0 0 0 0];

internalField   nonuniform List<scalar> 
266
(
0.000302338
-0.00482259
0.000273149
-0.00493363
0.000243045
-0.00505186
0.000212085
-0.00517711
0.000180153
-0.00530872
0.000146644
-0.00544538
0.000113506
0.000361226
-0.00421764
0.000340531
-0.00431997
0.000314535
-0.00441021
0.000285253
-0.00449823
0.000253791
-0.00458913
0.000220709
-0.0046854
0.000186275
-0.00478815
0.000150637
0.000113899
7.61592e-05
3.77303e-05
0.000278805
-0.00329374
0.000306828
-0.00365917
0.000314299
-0.00390885
0.000305395
-0.00407751
0.00028495
-0.00419719
0.000257038
-0.00429206
0.00022449
-0.00437766
0.000188985
0.000151396
0.000112146
2.65356e-05
-0.000501922
8.28575e-05
-0.00139972
0.00014784
-0.00219303
0.000204387
-0.00284208
0.000242381
-0.00333174
0.000258829
-0.00367562
0.00025582
-0.00390584
0.000237824
-0.00405952
0.000209536
0.000174688
2.50179e-05
-0.000526939
7.62789e-05
-0.00145099
0.000132827
-0.00224958
0.000178659
-0.00288791
0.000205129
-0.00335821
0.000210498
0.000197566
2.3265e-05
-0.000550204
6.90755e-05
-0.0014968
0.000116938
-0.00229744
0.0001521
2.12994e-05
6.13374e-05
2.34851e-05
0.000522093
6.88695e-05
0.00144628
0.00224707
2.54628e-05
0.00049663
7.68079e-05
0.00139493
0.000132214
0.00219166
0.000175473
0.00284214
0.00332995
2.72062e-05
0.000469424
8.41556e-05
0.00133798
0.000148664
0.00212715
0.000203237
0.00278757
0.000237972
0.00329522
0.000250386
0.00365748
0.000243049
0.00390331
0.00406909
2.86907e-05
9.08112e-05
0.00016414
0.000230085
0.000277152
0.00324815
0.000301464
0.00363317
0.000304771
0.0039
0.000291608
0.00408225
0.000266926
0.00421238
0.00023473
0.00431555
0.00440826
0.00031543
0.000352224
0.000366835
0.00036344
0.000347114
0.00032223
0.00434044
0.000291852
0.00443863
0.000257803
0.0045339
0.000221025
0.00463181
0.000181952
0.004735
0.00484479
0.000411247
0.000387758
0.000360181
0.000329715
0.000296949
0.000262166
0.000225529
0.00499847
0.000187184
0.00512483
0.00014731
0.00525849
0.000105831
0.00539884
0.00554462
0.000355239
0.000323535
0.000290352
0.000255748
0.000219601
0.000183088
-7.9951e-06
-7.17678e-05
-0.000119519
-0.000146203
-0.000164134
-0.000171622
-0.000173839
-0.000174138
-0.000169787
-0.000160666
-0.0195522
-0.000149061
-0.0194724
-0.000137327
-0.0193861
-0.000124962
-0.0193159
-0.000111173
-0.0192738
-9.69841e-05
-0.0192054
-7.99912e-05
-0.0191982
-6.44649e-05
-0.0191261
-4.92883e-05
-0.0191048
-3.37514e-05
-0.0190721
-1.54692e-05
-0.0190933
-0.0190483
-0.000251124
-0.00023082
-0.000210637
-0.000190082
-0.000168122
-0.000145737
-0.000120316
-9.6571e-05
-7.34845e-05
-4.99179e-05
-2.33973e-05
-0.000314254
0.0205183
-0.000320636
0.0202847
-0.000320861
0.0200875
-0.000313399
0.0199354
-0.00030003
0.0198014
-0.000285516
0.0196382
-0.000265925
0.0195696
-0.00024642
0.0194301
-0.000222746
0.0193972
-0.000198459
0.0192887
-0.000170435
0.0192782
-0.000143879
0.0191874
-0.000116976
0.0191632
-8.89017e-05
0.0191291
-5.84722e-05
0.019129
-2.83086e-05
0.0191069
0.0190811
3.78358e-05
-5.26983e-05
-0.000119937
-0.000160765
-0.000185464
-0.000199968
-0.000208079
-0.000208538
-0.000203393
-0.000196844
-0.000185304
-0.000173696
-0.000158006
-0.000141814
-0.00012207
-0.000103614
-8.45752e-05
-6.45083e-05
-4.23623e-05
-2.04168e-05
)
;

boundaryField
{
    inlet
    {
        type            calculated;
        value           nonuniform 0();
    }
    outlet
    {
        type            calculated;
        value           nonuniform 0();
    }
    cylinder
    {
        type            calculated;
        value           uniform 0;
    }
    top
    {
        type            symmetryPlane;
        value           uniform 0;
    }
    bottom
    {
        type            symmetryPlane;
        value           uniform 0;
    }
    defaultFaces
    {
        type            empty;
        value           nonuniform 0();
    }
    procBoundary15to14
    {
        type            processor;
        value           nonuniform List<scalar> 
98
(
-0.00558864
-0.00489799
-0.00501512
-0.00513937
-0.00527029
-8.59701e-07
-0.00540679
-0.00446272
-0.00455154
-0.00464615
7.13961e-05
-0.0047474
-0.00416891
-0.00425721
0.000135742
-0.00433872
-0.00368099
-0.00389291
0.000170973
-0.00403292
-0.00292307
0.000167376
-0.00337348
-0.000571504
-0.00153683
0.000100353
-0.00233646
-0.000545578
-0.00149166
-0.0022932
0.000114996
-0.0028854
-0.00335274
0.000198259
-0.00366989
-0.00389598
-0.00404675
0.000220713
-0.0041877
-0.00428336
-0.0043712
0.000197677
-0.00449985
-0.00459503
-0.00469593
-0.00480361
0.000140779
-0.00496184
-0.00508648
-0.00521862
-0.00535736
-0.00550124
6.24498e-05
-0.00569531
-0.0212832
-0.0207658
-0.0205122
-0.0202797
-0.0200825
-0.0199631
-0.0198205
-0.0196936
-0.0196216
0.000268702
-0.0195698
-0.0194927
-0.0194063
-0.0193364
-0.0192958
-0.0192278
-0.0192236
-0.0191499
-0.0191279
-0.0190956
-0.0191198
-0.0190717
-0.020502
-0.0202783
-0.0200872
-0.0199428
-0.0198147
-0.0196527
-0.0195892
-0.0194496
-0.0194208
-0.019313
-0.0193062
-0.019214
-0.0191901
-0.0191572
-0.0191594
-0.0191371
-0.0191094
-0.021704
-0.0212432
-0.020996
0.000297885
-0.0207242
)
;
    }
    procBoundary15to16
    {
        type            processor;
        value           nonuniform List<scalar> 
90
(
0.00485074
0.00496282
0.00508197
0.00520808
0.00534065
0.00547889
0.00562178
0.00422981
0.00434066
0.00443621
0.00452751
0.00462059
-0.000330495
0.00471848
0.00324395
0.00363114
0.00390138
-0.000373402
0.00408642
0.000475386
0.0013434
0.00212805
-0.000229007
0.00278553
0.000440733
0.00127586
0.00205383
0.00272162
-0.0002557
0.00318842
0.00359637
0.00388539
0.00408565
0.00422871
-0.000428457
0.00435765
0.00446212
0.00456148
0.00466227
0.00476777
0.00487957
-0.000385361
0.0050286
0.00515653
0.00529168
0.00543344
0.00558077
0.00573183
0.0214047
0.0208295
0.02056
0.0203063
0.0201005
0.0199706
0.0198227
0.0196939
0.0196173
0.0195431
0.0194608
0.0193743
0.0193035
0.0192601
0.0191913
0.0191812
0.0191106
0.0190896
0.0190565
0.019075
0.0190329
0.0218492
0.0213337
0.0210632
0.020765
0.020543
0.0202992
0.0200956
0.0199358
0.0197962
0.0196316
0.0195581
0.0194185
0.0193815
0.0192725
0.0192585
0.019169
0.0191442
0.019109
0.0191068
0.019085
0.0190607
)
;
    }
}


// ************************************************************************* //
