/*--------------------------------*- C++ -*----------------------------------*\
  =========                 |
  \\      /  F ield         | OpenFOAM: The Open Source CFD Toolbox
   \\    /   O peration     | Website:  https://openfoam.org
    \\  /    A nd           | Version:  7
     \\/     M anipulation  |
\*---------------------------------------------------------------------------*/
FoamFile
{
    version     2.0;
    format      ascii;
    class       volScalarField;
    location    "45";
    object      p;
}
// * * * * * * * * * * * * * * * * * * * * * * * * * * * * * * * * * * * * * //

dimensions      [0 2 -2 0 0 0 0];

internalField   nonuniform List<scalar> 
392
(
-0.208572
-0.199883
-0.19144
-0.208673
-0.19998
-0.191532
-0.208875
-0.200173
-0.191718
-0.209175
-0.200461
-0.191994
-0.20957
-0.20084
-0.192359
-0.210058
-0.201309
-0.19281
-0.210633
-0.201863
-0.193344
-0.211291
-0.202499
-0.193958
-0.185688
-0.20321
-0.194647
-0.186355
-0.203994
-0.195407
-0.187093
-0.204843
-0.196234
-0.187897
-0.205753
-0.197123
-0.188763
-0.206718
-0.198069
-0.189688
-0.207733
-0.199066
-0.190666
-0.208791
-0.20011
-0.191694
-0.201197
-0.192766
-0.184608
-0.202321
-0.193879
-0.185706
-0.203479
-0.19503
-0.186844
-0.204666
-0.196214
-0.188019
-0.205868
-0.197417
-0.189217
-0.198629
-0.190428
-0.182481
-0.199928
-0.191727
-0.183774
-0.201432
-0.193238
-0.185283
-0.202518
-0.194349
-0.186411
-0.194631
-0.186682
-0.178976
-0.191843
-0.184236
-0.176843
-0.188534
-0.181295
-0.17424
-0.184892
-0.178045
-0.171349
-0.180762
-0.174344
-0.168044
-0.176173
-0.170216
-0.164342
-0.171196
-0.165721
-0.160293
-0.165905
-0.160922
-0.155953
-0.160383
-0.155892
-0.151385
-0.154718
-0.15071
-0.146658
-0.148991
-0.14545
-0.141839
-0.143276
-0.140181
-0.136993
-0.137637
-0.13496
-0.132173
-0.132122
-0.129837
-0.127425
-0.126772
-0.124849
-0.122787
-0.121615
-0.120026
-0.118287
-0.116672
-0.115388
-0.113947
-0.111955
-0.11095
-0.109782
-0.107474
-0.106722
-0.105804
-0.103231
-0.10271
-0.102019
-0.0992288
-0.0989159
-0.0984323
-0.0954654
-0.0953408
-0.0950449
-0.0919385
-0.0919834
-0.0918573
-0.0886443
-0.0888416
-0.0888688
-0.0855783
-0.0859123
-0.0860775
-0.0827356
-0.0831919
-0.0834811
-0.0801111
-0.0806765
-0.0810767
-0.0776997
-0.078362
-0.0788612
-0.075496
-0.0762442
-0.0768315
-0.0734953
-0.0743192
-0.0749844
-0.0716926
-0.0725829
-0.0733166
-0.0700836
-0.0710317
-0.0718251
-0.0686642
-0.0696621
-0.0705071
-0.0674305
-0.0684708
-0.0693599
-0.0663794
-0.0674552
-0.0683812
-0.0655079
-0.0666126
-0.0675689
-0.0648136
-0.0659411
-0.0669212
-0.0642946
-0.065439
-0.0664367
-0.0639493
-0.0651048
-0.0661142
-0.0637773
-0.0649383
-0.0659534
-0.0917091
-0.0882644
-0.0850641
-0.0821018
-0.079371
-0.0768655
-0.0745788
-0.0725051
-0.0706387
-0.0689745
-0.0675075
-0.0662335
-0.0651487
-0.0642498
-0.063534
-0.062999
-0.0626432
-0.0624659
-0.194631
-0.191843
-0.188534
-0.184892
-0.180762
-0.176173
-0.171196
-0.165905
-0.160383
-0.154718
-0.148991
-0.143276
-0.137637
-0.132122
-0.126772
-0.121615
-0.116672
-0.111955
-0.107474
-0.103231
-0.0992288
-0.0954654
-0.0919385
-0.0886443
-0.0855783
-0.0827356
-0.0801111
-0.0776997
-0.075496
-0.0734953
-0.0716926
-0.0700836
-0.0686642
-0.0674305
-0.0663794
-0.0655079
-0.0648136
-0.0642946
-0.0639493
-0.0637772
-0.186682
-0.184236
-0.181295
-0.178045
-0.174344
-0.170216
-0.165721
-0.160922
-0.155892
-0.15071
-0.14545
-0.140181
-0.13496
-0.129837
-0.124849
-0.120026
-0.115388
-0.11095
-0.106722
-0.10271
-0.0989159
-0.0953408
-0.0919834
-0.0888416
-0.0859123
-0.0831919
-0.0806765
-0.078362
-0.0762442
-0.0743192
-0.0725829
-0.0710317
-0.0696621
-0.0684708
-0.0674552
-0.0666126
-0.0659411
-0.065439
-0.0651048
-0.0649383
-0.178976
-0.176843
-0.17424
-0.171349
-0.168044
-0.164342
-0.160293
-0.155953
-0.151385
-0.146658
-0.141839
-0.136993
-0.132173
-0.127425
-0.122787
-0.118287
-0.113947
-0.109782
-0.105804
-0.102019
-0.0984323
-0.0950448
-0.0918573
-0.0888688
-0.0860775
-0.0834811
-0.0810767
-0.0788612
-0.202518
-0.194349
-0.186411
-0.201432
-0.193238
-0.185283
-0.199928
-0.191727
-0.183774
-0.198629
-0.190428
-0.182481
-0.205868
-0.197417
-0.189217
-0.204666
-0.196214
-0.188019
-0.203479
-0.19503
-0.186844
-0.202321
-0.193879
-0.185706
-0.201197
-0.192766
-0.184608
-0.208791
-0.20011
-0.191694
-0.207733
-0.199066
-0.190666
-0.206718
-0.198069
-0.189688
-0.205753
-0.197123
-0.188763
-0.204843
-0.196234
-0.187897
-0.203994
-0.195407
-0.187093
-0.20321
-0.194647
-0.186355
-0.211291
-0.202499
-0.193958
-0.185688
-0.210633
-0.201863
-0.193344
-0.210058
-0.201309
-0.19281
-0.20957
-0.20084
-0.192359
-0.209175
-0.200461
-0.191994
-0.208875
-0.200173
-0.191718
-0.208673
-0.19998
-0.191532
-0.208572
-0.199883
-0.19144
)
;

boundaryField
{
    inlet
    {
        type            zeroGradient;
    }
    outlet
    {
        type            fixedValue;
        value           nonuniform 0();
    }
    cylinder
    {
        type            zeroGradient;
    }
    top
    {
        type            symmetryPlane;
    }
    bottom
    {
        type            symmetryPlane;
    }
    defaultFaces
    {
        type            empty;
    }
    procBoundary29to28
    {
        type            processor;
        value           nonuniform List<scalar> 
137
(
-0.217476
-0.217582
-0.217793
-0.218107
-0.21852
-0.219028
-0.219627
-0.22031
-0.212027
-0.212027
-0.212834
-0.213706
-0.214637
-0.215621
-0.216651
-0.217721
-0.209888
-0.209888
-0.211019
-0.212178
-0.213363
-0.214557
-0.207075
-0.207075
-0.208365
-0.209853
-0.210904
-0.202812
-0.202812
-0.19965
-0.195941
-0.191875
-0.18728
-0.182194
-0.176698
-0.17088
-0.164833
-0.158654
-0.152435
-0.146254
-0.140177
-0.134257
-0.128533
-0.123034
-0.117779
-0.112779
-0.10804
-0.103566
-0.0993551
-0.0954042
-0.0917091
-0.0882644
-0.0850641
-0.0821018
-0.079371
-0.0768655
-0.0745788
-0.0725051
-0.0706387
-0.0689745
-0.0675075
-0.0662335
-0.0651487
-0.0642498
-0.063534
-0.062999
-0.0626432
-0.062466
-0.0912815
-0.0876895
-0.0843582
-0.0812799
-0.0784466
-0.0758507
-0.0734846
-0.0713415
-0.0694146
-0.0676981
-0.0661864
-0.0648745
-0.0637582
-0.0628336
-0.0620977
-0.061548
-0.0611824
-0.0610003
-0.202812
-0.202812
-0.19965
-0.195941
-0.191875
-0.18728
-0.182194
-0.176698
-0.17088
-0.164833
-0.158654
-0.152435
-0.146254
-0.140177
-0.134257
-0.128533
-0.123034
-0.117779
-0.112779
-0.10804
-0.103566
-0.0993551
-0.0954042
-0.0954042
-0.210904
-0.209853
-0.208365
-0.207075
-0.207075
-0.214557
-0.213363
-0.212178
-0.211019
-0.209888
-0.209888
-0.217721
-0.216651
-0.215621
-0.214637
-0.213706
-0.212834
-0.212027
-0.212027
-0.22031
-0.219627
-0.219028
-0.21852
-0.218107
-0.217793
-0.217582
-0.217476
)
;
    }
    procBoundary29to30
    {
        type            processor;
        value           nonuniform List<scalar> 
137
(
-0.183263
-0.183352
-0.183529
-0.183795
-0.184145
-0.18458
-0.185095
-0.185095
-0.177702
-0.178347
-0.179062
-0.179843
-0.180686
-0.181588
-0.182545
-0.183553
-0.183553
-0.176731
-0.17781
-0.178932
-0.180092
-0.181279
-0.181279
-0.174799
-0.176079
-0.177577
-0.178714
-0.178714
-0.171521
-0.169673
-0.16738
-0.164819
-0.161878
-0.158569
-0.154934
-0.15102
-0.146882
-0.142582
-0.13818
-0.133735
-0.129296
-0.124908
-0.120606
-0.116419
-0.112368
-0.10847
-0.104736
-0.101176
-0.097793
-0.0945917
-0.0915733
-0.088738
-0.0860852
-0.0836136
-0.0813213
-0.0792062
-0.077266
-0.0754983
-0.0739005
-0.0724703
-0.0712054
-0.0701036
-0.069163
-0.0683819
-0.0677588
-0.0672926
-0.0669821
-0.0668274
-0.0768315
-0.0749844
-0.0733166
-0.0718251
-0.0705071
-0.0693599
-0.0683812
-0.0675689
-0.0669212
-0.0664367
-0.0661142
-0.0659534
-0.171521
-0.178714
-0.169673
-0.16738
-0.164819
-0.161878
-0.158569
-0.154934
-0.15102
-0.146882
-0.142582
-0.13818
-0.133735
-0.129296
-0.124908
-0.120606
-0.116419
-0.112368
-0.10847
-0.104736
-0.101176
-0.097793
-0.0945917
-0.0915733
-0.088738
-0.0860852
-0.0836136
-0.0813213
-0.0768315
-0.0792062
-0.178714
-0.177577
-0.176079
-0.174799
-0.181279
-0.181279
-0.180092
-0.178932
-0.17781
-0.176731
-0.183553
-0.183553
-0.182545
-0.181588
-0.180686
-0.179843
-0.179062
-0.178347
-0.177702
-0.185095
-0.185095
-0.18458
-0.184145
-0.183795
-0.183529
-0.183352
-0.183263
)
;
    }
}


// ************************************************************************* //
