/*--------------------------------*- C++ -*----------------------------------*\
  =========                 |
  \\      /  F ield         | OpenFOAM: The Open Source CFD Toolbox
   \\    /   O peration     | Website:  https://openfoam.org
    \\  /    A nd           | Version:  7
     \\/     M anipulation  |
\*---------------------------------------------------------------------------*/
FoamFile
{
    version     2.0;
    format      ascii;
    class       volVectorField;
    location    "80";
    object      U;
}
// * * * * * * * * * * * * * * * * * * * * * * * * * * * * * * * * * * * * * //

dimensions      [0 1 -1 0 0 0 0];

internalField   nonuniform List<vector> 
183
(
(1.04883 0.150752 -4.13601e-22)
(1.06704 -0.14089 4.347e-23)
(1.04825 -0.351024 -4.17364e-23)
(1.06984 -0.140173 1.28156e-21)
(1.05494 -0.347739 -5.49933e-23)
(1.07198 -0.139175 4.04452e-22)
(1.06085 -0.344132 8.86424e-22)
(1.07357 -0.137921 9.13046e-22)
(1.06602 -0.340229 -4.2222e-23)
(1.07472 -0.13643 6.3479e-22)
(1.07049 -0.336049 4.75715e-22)
(1.07553 -0.13472 -3.15458e-21)
(1.07431 -0.331608 -2.73322e-21)
(1.07606 -0.13281 -2.4796e-21)
(1.07755 -0.326919 5.99256e-21)
(1.07639 -0.130714 4.84207e-21)
(1.08029 -0.32199 -4.36052e-21)
(1.07654 -0.12845 -1.3902e-21)
(1.08261 -0.316831 3.50628e-21)
(1.07656 -0.126038 -3.97766e-21)
(1.0846 -0.311448 4.87569e-21)
(1.07646 -0.123498 1.07689e-21)
(1.08634 -0.305849 5.8251e-21)
(1.07627 -0.120852 1.33338e-21)
(1.08791 -0.300042 -7.2201e-21)
(1.07599 -0.118122 -4.46419e-21)
(1.08935 -0.29404 3.07758e-21)
(1.07564 -0.115331 -2.92927e-21)
(1.09073 -0.287856 1.06709e-21)
(1.07525 -0.112496 3.24827e-21)
(1.09208 -0.281508 -2.66309e-22)
(1.07486 -0.109639 1.48288e-21)
(1.09342 -0.275016 8.25272e-22)
(1.07449 -0.106795 1.1533e-21)
(1.0948 -0.268398 -6.08239e-22)
(1.07419 -0.103986 2.82278e-21)
(1.09621 -0.261669 -7.17126e-21)
(1.07402 -0.101061 2.87956e-21)
(1.09767 -0.254832 -3.67267e-21)
(1.07403 -0.0977112 1.60041e-22)
(1.09919 -0.24793 1.54255e-21)
(1.07428 -0.0948063 -5.85507e-22)
(1.10074 -0.241223 1.70198e-22)
(1.07601 -0.0971106 0)
(1.10553 -0.22368 0)
(1.09824 -0.142583 0)
(1.11042 -0.238235 0)
(1.10963 -0.151677 0)
(1.11344 -0.208275 0)
(1.12497 -0.163862 0)
(1.10414 -0.20235 0)
(1.13153 -0.151649 0)
(1.09448 -0.174967 0)
(1.12952 -0.135641 0)
(1.07689 -0.1569 0)
(1.12402 -0.112538 0)
(1.06454 -0.13185 0)
(1.11428 -0.0915328 0)
(1.05595 -0.109877 0)
(1.10376 -0.0731406 0)
(1.05222 -0.087949 0)
(1.09262 -0.0582869 0)
(1.05055 -0.0690258 0)
(1.02422 -0.070041 0)
(1.08222 -0.0464595 0)
(1.04955 -0.0531451 0)
(1.02591 -0.0547 0)
(1.0732 -0.036936 0)
(1.04854 -0.0405088 0)
(1.02855 -0.0421172 0)
(1.06588 -0.0292821 0)
(1.04753 -0.0307324 0)
(1.03119 -0.0321008 0)
(1.0602 -0.0230742 0)
(1.04657 -0.0232521 0)
(1.03342 -0.0242788 0)
(1.0559 -0.0180313 0)
(1.04569 -0.0175309 0)
(1.03512 -0.0182253 0)
(1.05268 -0.0139045 0)
(1.04488 -0.0131144 0)
(1.03635 -0.0135428 0)
(1.05026 -0.010498 0)
(1.04416 -0.00965475 0)
(1.03719 -0.0098964 0)
(1.04848 -0.00764297 0)
(1.04358 -0.00688638 0)
(1.03776 -0.00701066 0)
(1.04725 -0.00518888 0)
(1.04316 -0.00460174 0)
(1.03814 -0.00466027 0)
(1.04647 -0.00300936 0)
(1.04288 -0.00263702 0)
(1.03837 -0.00266546 0)
(1.04608 -0.000984338 0)
(1.04273 -0.000856262 0)
(1.03846 -0.000867155 0)
(0.757561 -0.0195773 0)
(0.702518 -0.0524558 0)
(0.657904 -0.056858 0)
(0.619418 -0.078512 0)
(0.629562 -0.093055 0)
(0.696918 -0.107237 0)
(0.801981 -0.112217 0)
(0.901208 -0.106272 0)
(0.96891 -0.09071 0)
(1.00519 -0.0727888 0)
(1.02226 -0.0567286 0)
(1.03032 -0.0437483 0)
(1.03458 -0.0335798 0)
(1.03704 -0.0256893 0)
(1.03847 -0.019545 0)
(1.03925 -0.0147278 0)
(1.03965 -0.0108959 0)
(1.03985 -0.00779986 0)
(1.03993 -0.00522492 0)
(1.03992 -0.00300368 0)
(1.03988 -0.000978851 0)
(0.74625 -0.280156 0)
(0.697308 -0.276148 0)
(0.653176 -0.259967 0)
(0.625337 -0.245146 0)
(0.652004 -0.219885 0)
(0.739889 -0.184885 0)
(0.860431 -0.148282 0)
(0.966273 -0.115198 0)
(1.03018 -0.0872834 0)
(1.05641 -0.065711 0)
(1.06231 -0.0496552 0)
(1.06072 -0.0376052 0)
(1.05745 -0.0284817 0)
(1.05432 -0.0215466 0)
(1.05173 -0.016245 0)
(1.04966 -0.0121584 0)
(1.04804 -0.00895618 0)
(1.04683 -0.00639555 0)
(1.04595 -0.00427981 0)
(1.04536 -0.00245946 0)
(1.04504 -0.000801226 0)
(0.796794 -0.0318709 2.42855e-21)
(0.779284 -0.2887 -7.37655e-22)
(0.811728 -0.0427825 1.20278e-21)
(0.792897 -0.299517 5.01803e-21)
(0.827945 -0.0539909 3.42288e-21)
(0.807062 -0.308749 9.03512e-21)
(0.845072 -0.0642349 -6.34373e-21)
(0.821605 -0.31707 7.26642e-21)
(0.862747 -0.0739533 -1.91672e-21)
(0.836429 -0.324784 1.90363e-20)
(0.880691 -0.0831693 -1.21183e-20)
(0.851443 -0.331816 -7.65573e-21)
(0.898663 -0.0917791 8.50657e-21)
(0.866548 -0.33813 7.82725e-21)
(0.916436 -0.0997187 1.01884e-20)
(0.881647 -0.343708 -1.74652e-20)
(0.933795 -0.106949 -4.83982e-21)
(0.896645 -0.348539 5.91118e-21)
(0.950543 -0.113447 1.48593e-21)
(0.911452 -0.352619 2.89437e-21)
(0.966504 -0.119201 -2.23886e-21)
(0.925977 -0.355955 -7.01935e-22)
(0.981521 -0.124214 3.21733e-21)
(0.940137 -0.358559 -6.44019e-21)
(0.99547 -0.128503 9.39759e-21)
(0.953855 -0.360451 -7.58488e-21)
(1.00825 -0.132094 -2.08368e-21)
(0.96706 -0.361658 -3.5944e-21)
(1.0198 -0.135023 2.30741e-21)
(0.979688 -0.362211 7.09288e-21)
(1.03009 -0.137334 -3.64246e-21)
(0.991683 -0.362147 -5.52519e-21)
(1.03911 -0.139075 3.55845e-22)
(1.003 -0.361504 7.54983e-22)
(1.04689 -0.140293 -4.05823e-21)
(1.01359 -0.360323 -5.63568e-22)
(1.05349 -0.141039 1.26152e-21)
(1.02343 -0.358645 -7.84562e-22)
(1.04332 0.158549 -1.41274e-21)
(1.05898 -0.141359 4.81872e-22)
(1.0325 -0.356511 1.82047e-21)
(1.04666 0.154386 -5.73826e-23)
(1.06346 -0.141296 -4.62914e-23)
(1.04077 -0.353958 -4.52283e-22)
)
;

boundaryField
{
    inlet
    {
        type            uniformFixedValue;
        uniformValue    constant (1 0 0);
        value           nonuniform 0();
    }
    outlet
    {
        type            pressureInletOutletVelocity;
        value           nonuniform 0();
    }
    cylinder
    {
        type            fixedValue;
        value           nonuniform 0();
    }
    top
    {
        type            symmetryPlane;
    }
    bottom
    {
        type            symmetryPlane;
    }
    defaultFaces
    {
        type            empty;
    }
    procBoundary39to38
    {
        type            processor;
        value           nonuniform List<vector> 
86
(
(0.995304 0.420554 -3.00238e-22)
(1.04994 0.147622 2.54506e-22)
(1.04994 0.147622 2.54506e-22)
(1.0501 0.144967 2.09823e-22)
(1.04943 0.142754 1.96373e-21)
(1.04802 0.140945 2.79253e-22)
(1.04597 0.139499 -1.57587e-21)
(1.04335 0.138372 -1.10846e-21)
(1.04022 0.137522 3.63739e-21)
(1.03664 0.136918 -1.89759e-21)
(1.03266 0.136523 1.3113e-21)
(1.02832 0.136292 2.05182e-21)
(1.02367 0.136199 -2.68747e-21)
(1.01876 0.136221 -2.84702e-22)
(1.01365 0.13633 -5.08634e-22)
(1.00839 0.136509 -4.44933e-21)
(1.00307 0.136747 6.09766e-21)
(0.997776 0.137021 -1.4446e-21)
(0.992625 0.137279 -2.05988e-21)
(0.987801 0.137596 -3.60314e-21)
(0.983635 0.138527 5.07249e-22)
(0.980791 0.13942 -1.2792e-21)
(0.980272 0.121342 0)
(1.00831 0.0439946 0)
(1.05541 -0.00667173 0)
(1.11214 -0.0444066 0)
(1.15012 -0.0589912 0)
(1.16547 -0.0556997 0)
(1.15897 -0.046953 0)
(1.1422 -0.0367474 0)
(1.1243 -0.0293292 0)
(1.10858 -0.023583 0)
(1.0958 -0.019323 0)
(1.0855 -0.015762 0)
(1.07716 -0.0127994 0)
(1.0704 -0.0102798 0)
(1.06492 -0.00815696 0)
(1.06052 -0.00636372 0)
(1.05701 -0.00484682 0)
(1.05434 -0.00355276 0)
(1.05244 -0.00242351 0)
(1.05122 -0.00141 0)
(1.05061 -0.000459702 0)
(0.785757 0.305948 0)
(0.739519 0.230883 0)
(0.705911 0.205209 0)
(0.687906 0.138622 0)
(0.716885 0.083787 0)
(0.780102 0.0218219 0)
(0.85482 -0.0182589 0)
(0.916298 -0.0385302 0)
(0.958195 -0.0411526 0)
(0.984435 -0.0358725 0)
(1.00086 -0.0284746 0)
(1.01165 -0.0217894 0)
(1.01921 -0.0163939 0)
(1.02468 -0.0122281 0)
(1.02868 -0.00904243 0)
(1.03157 -0.00661849 0)
(1.03366 -0.00475487 0)
(1.03515 -0.00331617 0)
(1.03616 -0.00217285 0)
(1.03675 -0.00123425 0)
(1.03699 -0.000399121 0)
(0.81112 0.296199 4.02275e-21)
(0.820536 0.291441 -2.9105e-21)
(0.831213 0.284574 3.98297e-21)
(0.843375 0.276909 -8.8079e-21)
(0.856993 0.269118 6.89375e-21)
(0.871813 0.261119 -1.18211e-20)
(0.887496 0.252853 1.65459e-20)
(0.903696 0.244395 1.77671e-21)
(0.920076 0.235844 -4.67309e-21)
(0.936316 0.227287 2.0108e-21)
(0.952117 0.218815 9.10995e-22)
(0.967208 0.210519 3.11074e-21)
(0.981355 0.202484 1.26418e-21)
(0.994362 0.194786 -3.95559e-21)
(1.00608 0.187493 2.92258e-21)
(1.01641 0.180657 -4.57994e-21)
(1.02528 0.174321 1.57557e-21)
(1.03271 0.168515 -1.96404e-21)
(1.0387 0.163256 -1.58687e-21)
(1.0387 0.163256 -1.58687e-21)
(0.992824 0.431527 -9.78046e-22)
(0.994621 0.425952 -9.35746e-23)
)
;
    }
    procBoundary39to40
    {
        type            processor;
        value           nonuniform List<vector> 
85
(
(1.01063 -0.532132 7.98994e-23)
(1.01586 -0.529478 -5.30991e-23)
(1.02072 -0.526211 -1.1881e-21)
(1.02521 -0.522348 1.9282e-21)
(1.02933 -0.517907 1.84754e-22)
(1.03307 -0.512912 2.75617e-22)
(1.03642 -0.50739 -1.22793e-21)
(1.03937 -0.501368 -2.23645e-21)
(1.04192 -0.494875 6.87251e-21)
(1.04408 -0.487941 -1.15016e-21)
(1.04586 -0.480596 5.13681e-21)
(1.04732 -0.472866 -4.23989e-21)
(1.04848 -0.464779 -4.10213e-21)
(1.04943 -0.456356 3.69552e-21)
(1.05022 -0.447627 6.28703e-22)
(1.05093 -0.43863 6.56677e-21)
(1.05161 -0.429395 -3.8173e-22)
(1.05231 -0.419904 -2.91144e-21)
(1.05308 -0.41007 1.83489e-21)
(1.05397 -0.399905 2.38461e-21)
(1.05506 -0.389873 1.9955e-22)
(1.05894 -0.361427 0)
(1.04212 -0.339204 0)
(1.04931 -0.285038 0)
(1.04437 -0.245631 0)
(1.0459 -0.199732 0)
(1.04038 -0.164421 0)
(1.03475 -0.132941 0)
(1.02865 -0.108916 0)
(1.02481 -0.0878798 0)
(1.02481 -0.0878798 0)
(0.98181 -0.0264179 0)
(0.992187 -0.0175212 0)
(1.00235 -0.011814 0)
(1.0113 -0.00810684 0)
(1.01855 -0.00562707 0)
(1.02412 -0.00395526 0)
(1.02824 -0.00280243 0)
(1.03118 -0.00198657 0)
(1.03324 -0.00138502 0)
(1.03462 -0.000913077 0)
(1.03547 -0.000516701 0)
(1.03586 -0.000165472 0)
(0.795388 -0.445317 0)
(0.748977 -0.415845 0)
(0.707775 -0.375493 0)
(0.698709 -0.329542 0)
(0.745855 -0.2702 0)
(0.841156 -0.20396 0)
(0.948326 -0.145015 0)
(1.02951 -0.101494 0)
(1.07051 -0.0730753 0)
(1.08189 -0.0551719 0)
(1.07967 -0.0431815 0)
(1.07363 -0.0342635 0)
(1.06749 -0.0272035 0)
(1.06219 -0.0214519 0)
(1.05786 -0.0167252 0)
(1.0544 -0.0128364 0)
(1.05171 -0.00962417 0)
(1.0497 -0.00695128 0)
(1.04828 -0.00468456 0)
(1.04735 -0.0027029 0)
(1.04687 -0.000882945 0)
(0.820487 -0.458007 4.30559e-22)
(0.83184 -0.466836 -1.03373e-20)
(0.842909 -0.474191 -1.18683e-21)
(0.854001 -0.481364 -1.57392e-21)
(0.86506 -0.488205 4.77372e-21)
(0.876031 -0.494693 -5.70184e-21)
(0.886862 -0.500802 1.01033e-21)
(0.897502 -0.50651 -3.50742e-21)
(0.907905 -0.511792 -1.7266e-21)
(0.918031 -0.516624 4.08974e-21)
(0.927843 -0.520983 -2.91692e-21)
(0.937311 -0.524847 -4.72984e-21)
(0.946412 -0.528194 -1.54376e-21)
(0.955129 -0.531003 3.32941e-21)
(0.96345 -0.533254 -1.90734e-21)
(0.97137 -0.534927 6.45454e-22)
(0.978888 -0.536008 -2.60492e-22)
(0.986007 -0.536481 -4.75124e-22)
(0.992734 -0.536336 -1.11584e-21)
(0.999076 -0.535564 5.64849e-22)
(1.00504 -0.534162 -4.63938e-22)
)
;
    }
}


// ************************************************************************* //
