/*--------------------------------*- C++ -*----------------------------------*\
  =========                 |
  \\      /  F ield         | OpenFOAM: The Open Source CFD Toolbox
   \\    /   O peration     | Website:  https://openfoam.org
    \\  /    A nd           | Version:  7
     \\/     M anipulation  |
\*---------------------------------------------------------------------------*/
FoamFile
{
    version     2.0;
    format      ascii;
    class       volVectorField;
    location    "88";
    object      U;
}
// * * * * * * * * * * * * * * * * * * * * * * * * * * * * * * * * * * * * * //

dimensions      [0 1 -1 0 0 0 0];

internalField   nonuniform List<vector> 
40000
(
(-1.53559e-05 -0.0159047 -2.77109e-21)
(-0.00087046 -0.0420903 8.5449e-21)
(-0.00317856 -0.0636342 -5.47332e-21)
(-0.00663607 -0.0808283 -4.4737e-24)
(-0.0110757 -0.0940129 2.76513e-23)
(-0.016383 -0.103575 3.10955e-24)
(-0.0224369 -0.109935 -9.05423e-21)
(-0.0291181 -0.113531 2.15878e-21)
(-0.0363158 -0.114805 -6.11239e-21)
(-0.0439284 -0.114181 -1.94943e-21)
(-0.0518642 -0.112054 0)
(-0.0600418 -0.108771 -6.98099e-21)
(-0.0683901 -0.10462 0)
(-0.0768474 -0.0998231 0)
(-0.0853604 -0.0945341 -5.92732e-21)
(-0.0938829 -0.0888386 5.60499e-21)
(-0.102374 -0.0827619 -2.67178e-21)
(-0.110797 -0.0762778 -6.04551e-24)
(-0.119119 -0.0693199 2.37752e-21)
(-0.127309 -0.0617925 0)
(-0.135338 -0.0535807 -2.12034e-21)
(-0.14318 -0.044558 -5.90593e-21)
(-0.150814 -0.0345916 7.43208e-21)
(-0.158221 -0.0235448 -3.53906e-21)
(-0.165392 -0.0112772 9.8836e-21)
(-0.172327 0.00235681 6.15826e-21)
(-0.179039 0.0175075 -1.1547e-20)
(-0.185545 0.0343253 1.0814e-20)
(-0.191852 0.0529915 -2.57255e-21)
(-0.198085 0.0737616 -4.64749e-21)
(0.000353213 -0.0151202 0)
(5.09443e-05 -0.0399558 5.55418e-21)
(-0.0018939 -0.0603373 1.08344e-20)
(-0.00513745 -0.0765384 -1.03397e-20)
(-0.00948296 -0.0888868 -4.9202e-21)
(-0.0147918 -0.0977581 1.87919e-20)
(-0.0209204 -0.10356 -4.46821e-21)
(-0.0277292 -0.106719 -8.504e-21)
(-0.03509 -0.107661 1.3463e-22)
(-0.0428867 -0.106799 -2.30503e-20)
(-0.0510156 -0.104514 7.31325e-21)
(-0.0593862 -0.101141 2.77142e-20)
(-0.0679206 -0.0969574 -1.31455e-20)
(-0.0765524 -0.0921765 -8.5774e-24)
(-0.0852255 -0.0869438 -5.77264e-21)
(-0.093892 -0.0813398 -4.51126e-23)
(-0.102511 -0.0753853 0)
(-0.111045 -0.069051 0)
(-0.119462 -0.0622681 1.8557e-20)
(-0.127731 -0.0549388 0)
(-0.135825 -0.0469459 8.31019e-21)
(-0.143718 -0.03816 -7.73124e-21)
(-0.15139 -0.0284444 -8.68399e-23)
(-0.158822 -0.017657 0)
(-0.166006 -0.00565071 1.26982e-20)
(-0.172941 0.00772783 -1.22315e-20)
(-0.179641 0.0226351 1.1547e-20)
(-0.186111 0.0392299 -1.0814e-20)
(-0.19231 0.0576937 9.92597e-21)
(-0.198408 0.0782913 -2.73628e-20)
(0.000680588 -0.0142802 -1.07687e-20)
(0.00087001 -0.0376862 -1.12376e-20)
(-0.000747129 -0.0568528 0)
(-0.0037921 -0.0720312 0)
(-0.00804179 -0.0835325 0)
(-0.0133355 -0.0917169 9.16946e-21)
(-0.019509 -0.0969762 0)
(-0.026404 -0.0997195 8.49485e-21)
(-0.0338761 -0.100358 1.61485e-20)
(-0.0417953 -0.0992877 1.53344e-20)
(-0.0500467 -0.0968751 0)
(-0.0585308 -0.0934417 -1.6613e-22)
(-0.0671629 -0.0892537 -2.57995e-20)
(-0.0758718 -0.0845149 2.44048e-20)
(-0.0845979 -0.0793636 1.16916e-20)
(-0.0932912 -0.0738748 1.09717e-20)
(-0.101909 -0.0680657 -1.03485e-20)
(-0.110414 -0.0619046 1.93702e-20)
(-0.118772 -0.0553206 -3.67989e-20)
(-0.126952 -0.0482143 1.55209e-22)
(-0.134925 -0.0404666 -3.24212e-20)
(-0.142664 -0.0319456 3.0293e-20)
(-0.150147 -0.0225107 0)
(-0.157353 -0.0120148 0)
(-0.164269 -0.000304902 1.21227e-20)
(-0.170892 0.0127783 0)
(-0.177233 0.0273992 0)
(-0.183288 0.0437195 0)
(-0.188956 0.0619195 -1.88527e-20)
(-0.19445 0.0822594 1.82422e-20)
(0.000963664 -0.0133959 1.07687e-20)
(0.00157888 -0.0353093 1.46378e-22)
(0.000250022 -0.053221 5.13405e-23)
(-0.0026149 -0.0673564 -2.01076e-20)
(-0.00676979 -0.0780063 -1.93222e-20)
(-0.0120342 -0.0855121 -9.03924e-23)
(-0.0182251 -0.0902464 -3.5029e-20)
(-0.0251674 -0.092599 1.66216e-20)
(-0.0327015 -0.092962 -3.1587e-20)
(-0.0406847 -0.091714 2.99813e-20)
(-0.0489913 -0.0892045 -1.4298e-20)
(-0.0575132 -0.085741 2.68442e-20)
(-0.0661588 -0.0815775 2.57995e-20)
(-0.0748518 -0.0769081 -3.1032e-22)
(-0.0835289 -0.0718642 -2.27584e-20)
(-0.0921372 -0.0665159 0)
(-0.100632 -0.0608771 -1.45727e-22)
(-0.108973 -0.0549143 1.90579e-20)
(-0.117126 -0.0485555 1.49308e-22)
(-0.125056 -0.0417003 1.67817e-22)
(-0.132732 -0.0342281 3.21172e-20)
(-0.140123 -0.0260049 -3.02929e-20)
(-0.147201 -0.016887 0)
(-0.153942 -0.00672291 2.5983e-20)
(-0.160326 0.00464584 -3.81327e-22)
(-0.166342 0.0173853 -6.85253e-20)
(-0.171998 0.0316658 2.1457e-20)
(-0.177281 0.0476523 3.92041e-20)
(-0.182026 0.0655239 1.88525e-20)
(-0.186474 0.0855256 1.71851e-20)
(0.00120024 -0.0124778 4.23113e-20)
(0.00217178 -0.0328521 -2.17399e-20)
(0.0010884 -0.0494812 2.09242e-20)
(-0.00161815 -0.0625619 2.01457e-20)
(-0.00568222 -0.0723621 0)
(-0.010906 -0.0792019 -3.63176e-20)
(-0.0170899 -0.0834318 -1.71134e-20)
(-0.0240436 -0.0854197 -3.2981e-20)
(-0.031594 -0.0855368 1.58835e-20)
(-0.0395863 -0.084142 -3.23659e-22)
(-0.0478849 -0.0815672 2.81134e-20)
(-0.0563733 -0.0781043 2.64636e-20)
(-0.0649532 -0.073995 -5.06583e-20)
(-0.073543 -0.0694235 2.36468e-20)
(-0.0820749 -0.0645143 2.9498e-22)
(-0.090493 -0.0593329 0)
(-0.0987493 -0.0538909 -2.02451e-20)
(-0.106802 -0.0481535 -3.75468e-20)
(-0.114611 -0.0420486 5.30544e-20)
(-0.122141 -0.0354753 1.63981e-20)
(-0.129354 -0.0283126 0)
(-0.136215 -0.0204251 -2.90703e-20)
(-0.142689 -0.0116665 0)
(-0.148744 -0.00188175 -7.69546e-20)
(-0.154351 0.00909308 4.78964e-20)
(-0.159488 0.0214305 2.40658e-22)
(-0.164158 0.0353075 4.09082e-20)
(-0.168342 0.050894 -5.83896e-20)
(-0.171814 0.0683704 3.53211e-20)
(-0.174812 0.0879609 1.66737e-20)
(0.00138893 -0.0115359 -2.11233e-20)
(0.00264484 -0.0303401 2.16043e-20)
(0.00176126 -0.0456701 1.2097e-22)
(-0.000811608 -0.0576927 -5.93078e-20)
(-0.00479197 -0.0666509 0)
(-0.00996711 -0.072841 3.63176e-20)
(-0.0161231 -0.0765893 -3.40797e-20)
(-0.023056 -0.0782402 6.5614e-20)
(-0.0305807 -0.0781419 0)
(-0.0385317 -0.0766322 -2.96577e-20)
(-0.0467639 -0.0740242 -2.81134e-20)
(-0.0551527 -0.0705936 -2.66214e-20)
(-0.0635932 -0.066569 -7.48144e-20)
(-0.0719983 -0.0621249 -1.37021e-22)
(-0.080296 -0.0573789 1.58879e-22)
(-0.0884262 -0.0523924 3.22294e-23)
(-0.0963375 -0.0471753 5.9174e-20)
(-0.103984 -0.0416923 5.58851e-22)
(-0.111324 -0.0358719 -5.60675e-22)
(-0.118314 -0.0296139 -3.33325e-20)
(-0.124913 -0.0227979 3.40191e-22)
(-0.131078 -0.0152879 5.77676e-20)
(-0.136766 -0.00693618 -8.01617e-20)
(-0.141934 0.0024154 2.53722e-20)
(-0.146542 0.0129358 0)
(-0.150556 0.0248044 0)
(-0.153972 0.0382062 -4.09076e-20)
(-0.156768 0.0533201 3.67621e-20)
(-0.158659 0.0703332 -3.51364e-20)
(-0.159847 0.0894486 0)
(0.0015291 -0.0105795 -2.06745e-20)
(0.00299589 -0.0277966 0)
(0.00226406 -0.0418217 2.06451e-20)
(-0.000202678 -0.0527904 1.17945e-19)
(-0.00410961 -0.0609194 -3.74975e-20)
(-0.00923153 -0.0664797 0)
(-0.0153423 -0.0697718 3.23211e-22)
(-0.0222264 -0.0711146 3.24112e-20)
(-0.0296879 -0.0708323 -3.07764e-20)
(-0.0375517 -0.0692404 0)
(-0.0456639 -0.0666321 0)
(-0.0538925 -0.0632664 -5.21002e-20)
(-0.0621262 -0.0593582 7.45273e-20)
(-0.0702721 -0.0550722 -2.33882e-20)
(-0.0782536 -0.0505193 0)
(-0.0860063 -0.0457572 4.14807e-20)
(-0.093475 -0.0407945 -3.94557e-20)
(-0.10061 -0.0355965 3.68628e-20)
(-0.107364 -0.0300929 -6.92429e-20)
(-0.113689 -0.0241857 -9.66024e-20)
(-0.119537 -0.0177557 3.04825e-20)
(-0.124858 -0.010668 2.81189e-20)
(-0.129597 -0.00277471 2.6784e-20)
(-0.133702 0.00608469 0)
(-0.137118 0.0160836 -4.50132e-20)
(-0.139796 0.0274087 0)
(-0.141724 0.0402558 0)
(-0.142884 0.054818 -7.24014e-20)
(-0.142938 0.0712977 2.87033e-22)
(-0.142003 0.0898841 -9.15579e-20)
(0.0016207 -0.00961698 2.06745e-20)
(0.00322423 -0.0252428 4.23144e-20)
(0.00259421 -0.0379665 4.05466e-20)
(0.000203458 -0.0478924 -3.91223e-20)
(-0.00364341 -0.05521 0)
(-0.00871102 -0.0601635 0)
(-0.0147631 -0.0630268 3.39212e-20)
(-0.0215744 -0.0640921 -3.21068e-20)
(-0.0289396 -0.0636583 1.3524e-22)
(-0.0366751 -0.0620176 5.75678e-20)
(-0.0446192 -0.0594428 0)
(-0.0526328 -0.0561753 5.21001e-20)
(-0.0605982 -0.0524164 0)
(-0.0684172 -0.0483204 0)
(-0.0760082 -0.0439918 -1.86573e-22)
(-0.0833024 -0.039485 4.10717e-20)
(-0.0902403 -0.0348077 -3.84842e-20)
(-0.0967675 -0.0299264 7.22279e-20)
(-0.102832 -0.0247733 -3.38416e-20)
(-0.10838 -0.0192533 9.58966e-20)
(-0.113357 -0.0132503 0)
(-0.117703 -0.00663172 0)
(-0.121354 0.000749374 5.10714e-20)
(-0.124243 0.00905405 0)
(-0.126302 0.0184594 4.52416e-20)
(-0.127468 0.0291601 -4.14497e-20)
(-0.127712 0.0413654 3.77616e-20)
(-0.12703 0.05529 -3.45356e-20)
(-0.12505 0.0711622 6.54132e-20)
(-0.121722 0.0891733 9.01163e-20)
(0.00166419 -0.00865544 0)
(0.00333037 -0.0226971 -4.23144e-20)
(0.00275083 -0.0341315 -3.32513e-22)
(0.000403665 -0.0430319 0)
(-0.00339933 -0.04956 -7.36186e-20)
(-0.00841481 -0.053933 -3.32557e-23)
(-0.0143984 -0.0563968 3.34596e-20)
(-0.0211168 -0.0572162 0)
(-0.028357 -0.0566643 3.0352e-20)
(-0.0359278 -0.0550092 -5.75677e-20)
(-0.0436605 -0.0525023 0)
(-0.0514097 -0.0493674 0)
(-0.0590517 -0.0457915 -4.84272e-20)
(-0.0664829 -0.0419188 4.57829e-20)
(-0.0736167 -0.037847 -4.33255e-20)
(-0.0803797 -0.0336274 0)
(-0.0867079 -0.0292675 -3.77094e-20)
(-0.0925423 -0.0247357 -1.0737e-19)
(-0.0978258 -0.0199674 2.05781e-22)
(-0.102499 -0.0148718 2.24635e-22)
(-0.1065 -0.00933695 2.93035e-20)
(-0.109759 -0.00323436 5.41135e-20)
(-0.112202 0.00357993 -1.01908e-19)
(-0.113749 0.0112659 4.64576e-20)
(-0.114318 0.020003 8.19622e-22)
(-0.113826 0.0299938 6.26783e-22)
(-0.112231 0.0414644 6.34559e-22)
(-0.109546 0.0546584 3.43961e-20)
(-0.105395 0.0698427 0)
(-0.099448 0.0872347 0)
(0.00166036 -0.00770101 4.05715e-20)
(0.00331576 -0.0201751 -5.95038e-23)
(0.00273449 -0.0303395 -3.05238e-22)
(0.000396726 -0.0382372 -7.65047e-20)
(-0.00338101 -0.0440017 7.32739e-20)
(-0.00834941 -0.0478229 0)
(-0.0142579 -0.0499184 0)
(-0.020867 -0.050525 6.31159e-20)
(-0.0279572 -0.049889 -5.99323e-20)
(-0.035331 -0.0482544 -1.95675e-22)
(-0.0428138 -0.0458507 1.07381e-19)
(-0.0502542 -0.0428835 5.08012e-20)
(-0.0575231 -0.0395254 -9.60199e-20)
(-0.0645116 -0.03591 4.53346e-20)
(-0.0711283 -0.0321285 4.25438e-20)
(-0.0772952 -0.0282291 -4.01574e-20)
(-0.0829437 -0.0242194 7.5693e-20)
(-0.0880101 -0.0200701 1.0524e-19)
(-0.0924322 -0.0157209 6.53203e-20)
(-0.0961451 -0.0110862 3.04239e-20)
(-0.0990789 -0.00605976 -5.77145e-20)
(-0.101156 -0.000518794 0)
(-0.102293 0.00567557 -1.14356e-22)
(-0.102395 0.01268 4.53943e-20)
(-0.101367 0.0206742 4.21665e-20)
(-0.0991066 0.0298683 -7.82283e-20)
(-0.0955533 0.0405076 -3.64265e-20)
(-0.090743 0.052873 6.54055e-20)
(-0.084351 0.0672867 0)
(-0.0756009 0.0840307 -5.46744e-20)
(0.00161027 -0.00675869 4.01925e-20)
(0.00318258 -0.0176899 -8.32071e-20)
(0.00254705 -0.02661 -2.05753e-22)
(0.000183272 -0.0335323 2.66492e-22)
(-0.00358964 -0.0385626 0)
(-0.00851828 -0.0418631 0)
(-0.0143477 -0.0436227 0)
(-0.0208338 -0.0440503 -6.263e-20)
(-0.0277521 -0.0433652 5.94709e-20)
(-0.0349001 -0.0417863 -5.65836e-20)
(-0.0420981 -0.0395215 -1.06857e-19)
(-0.0491894 -0.0367576 1.10179e-22)
(-0.0560399 -0.0336525 9.50365e-20)
(-0.062536 -0.0303291 4.46533e-20)
(-0.0685815 -0.0268719 0)
(-0.0740937 -0.0233262 -7.89219e-20)
(-0.0789995 -0.0196996 1.11093e-19)
(-0.0832308 -0.0159657 -1.05045e-19)
(-0.0867202 -0.0120691 -6.54391e-20)
(-0.0893976 -0.00793012 -1.81899e-19)
(-0.0911865 -0.0034499 6.07518e-22)
(-0.0920019 0.00148706 6.44914e-22)
(-0.0917489 0.00701234 -1.05344e-22)
(-0.0903233 0.0132766 -9.02975e-20)
(-0.0876128 0.0204569 1.24453e-19)
(-0.0834993 0.028769 1.68419e-21)
(-0.0778972 0.0384796 0)
(-0.0708651 0.0499114 -6.54038e-20)
(-0.0622138 0.0634717 5.8212e-20)
(-0.0505538 0.0796421 5.53777e-20)
(0.00151513 -0.00583252 0)
(0.00293358 -0.015252 -4.12832e-20)
(0.00219153 -0.0229588 3.94408e-20)
(-0.000234225 -0.028937 7.5703e-20)
(-0.00402378 -0.0332653 3.61288e-20)
(-0.00892138 -0.0360779 -6.87289e-20)
(-0.0146694 -0.0375355 2.01108e-22)
(-0.0210206 -0.0378185 -6.22068e-20)
(-0.0277472 -0.0371192 0)
(-0.0346427 -0.0356316 5.57557e-20)
(-0.0415232 -0.0335412 0)
(-0.0482278 -0.0310162 0)
(-0.0546178 -0.0281994 -9.44037e-20)
(-0.060575 -0.0252028 -8.90177e-20)
(-0.0659988 -0.022104 1.25187e-19)
(-0.0708019 -0.0189451 7.89213e-20)
(-0.074907 -0.015734 -6.44643e-22)
(-0.0782413 -0.0124473 -6.91472e-20)
(-0.0807329 -0.00903473 1.28786e-19)
(-0.0823065 -0.00542362 5.79465e-23)
(-0.0828799 -0.00152323 1.11556e-19)
(-0.082361 0.00277282 0)
(-0.0806464 0.00758661 0)
(-0.0776207 0.0130597 8.78781e-20)
(-0.0731579 0.0193626 -1.22887e-19)
(-0.0671225 0.0267128 1.13768e-19)
(-0.0594017 0.0353955 -6.80668e-20)
(-0.0500521 0.0457705 6.2214e-20)
(-0.0390692 0.0583677 -1.14935e-19)
(-0.0245718 0.0742566 5.36294e-20)
(0.00137621 -0.00492565 -3.95918e-20)
(0.00257199 -0.01287 0)
(0.00167202 -0.0193986 0)
(-0.000851356 -0.0244674 -7.48978e-20)
(-0.0046791 -0.028128 1.43234e-19)
(-0.00955469 -0.0304871 -6.83113e-20)
(-0.0152194 -0.0316771 2.09041e-22)
(-0.0214246 -0.0318502 6.18168e-20)
(-0.0279402 -0.0311716 0)
(-0.0345571 -0.0298102 -2.37753e-22)
(-0.0410882 -0.0279294 -1.1479e-22)
(-0.0473691 -0.0256782 -9.9303e-20)
(-0.0532571 -0.0231844 5.76466e-22)
(-0.0586299 -0.0205486 -4.4e-20)
(-0.0633824 -0.0178414 -1.24318e-19)
(-0.0674233 -0.0151015 7.75703e-20)
(-0.0706706 -0.0123368 -7.3164e-20)
(-0.0730473 -0.00952671 1.35734e-19)
(-0.0744769 -0.00662649 -1.27236e-19)
(-0.0748795 -0.00357082 -1.18559e-19)
(-0.0741677 -0.000277871 -7.30194e-22)
(-0.0722434 0.00334841 -5.1425e-20)
(-0.0689956 0.00741854 4.68267e-20)
(-0.0642994 0.0120618 -2.21144e-21)
(-0.0580161 0.0174374 -1.2001e-19)
(-0.0499941 0.0237579 -7.29091e-20)
(-0.0400988 0.0313191 1.34739e-19)
(-0.0283501 0.0405187 -1.23047e-19)
(-0.0147398 0.0520309 5.6723e-20)
(0.00237831 0.0675833 1.28236e-21)
(0.00119489 -0.00404055 1.18652e-19)
(0.00210145 -0.0105506 -4.06803e-20)
(0.000993815 -0.0159397 -7.81943e-20)
(-0.00166159 -0.0201364 2.24051e-19)
(-0.00554803 -0.0231654 -3.57182e-22)
(-0.0104097 -0.0251064 0)
(-0.0159884 -0.0260635 0)
(-0.0220351 -0.0261609 6.14351e-20)
(-0.0283193 -0.0255371 -5.84429e-20)
(-0.0346302 -0.024336 5.5277e-20)
(-0.0407785 -0.0226985 -5.2171e-20)
(-0.046597 -0.0207547 -9.8227e-20)
(-0.0519396 -0.0186169 1.86363e-19)
(-0.0566802 -0.0163744 -4.38808e-20)
(-0.0607095 -0.0140901 8.26386e-20)
(-0.0639318 -0.011799 -1.54342e-19)
(-0.0662606 -0.00950856 5.73086e-22)
(-0.0676146 -0.00720109 -2.59163e-23)
(-0.0679127 -0.00483687 1.25938e-19)
(-0.0670703 -0.00235795 -1.61346e-23)
(-0.0649952 0.000308279 0)
(-0.0615841 0.00324681 0)
(-0.0567195 0.00655511 -4.63904e-20)
(-0.0502685 0.0103474 -1.72262e-19)
(-0.0420812 0.014767 1.19363e-19)
(-0.0319902 0.0200129 1.25612e-21)
(-0.0198434 0.0263808 -1.32097e-19)
(-0.00564348 0.0343021 1.20157e-19)
(0.010753 0.0446136 -5.5557e-20)
(0.0307407 0.0594667 5.01879e-20)
(0.000972595 -0.00317926 0)
(0.00152613 -0.00829942 0)
(0.000163534 -0.0125907 7.76198e-20)
(-0.00265598 -0.0159546 -1.48935e-19)
(-0.00661932 -0.0183894 -2.13712e-22)
(-0.0114728 -0.0199479 -6.7656e-20)
(-0.0169599 -0.0207066 1.92967e-19)
(-0.0228332 -0.0207619 -1.83325e-19)
(-0.0288623 -0.0202255 -3.78653e-23)
(-0.0348362 -0.0192168 -5.49894e-20)
(-0.0405643 -0.0178543 -1.55533e-19)
(-0.045877 -0.016249 1.47508e-19)
(-0.0506255 -0.0144977 0)
(-0.0546799 -0.0126779 0)
(-0.0579268 -0.0108446 8.19994e-20)
(-0.0602659 -0.00902844 1.5268e-19)
(-0.0616059 -0.00723606 -7.19834e-20)
(-0.0618605 -0.00545184 0)
(-0.0609437 -0.00364067 -6.20283e-20)
(-0.0587659 -0.00175148 7.5261e-22)
(-0.0552297 0.000279484 -5.29145e-20)
(-0.0502265 0.00252617 0)
(-0.0436333 0.00507247 -4.44017e-20)
(-0.0353097 0.00801583 4.27426e-20)
(-0.0250966 0.0114791 -7.67315e-20)
(-0.0128121 0.0156397 2.13749e-19)
(0.00171573 0.0207788 -3.20702e-22)
(0.0184994 0.0273495 5.85071e-20)
(0.0377634 0.0363559 0)
(0.0609626 0.0503293 -4.84653e-20)
(0.000710886 -0.00234359 -7.85002e-20)
(0.000850862 -0.00612148 8.07008e-20)
(-0.000810631 -0.00935904 -7.69275e-23)
(-0.00382281 -0.0119311 -7.40026e-20)
(-0.00787752 -0.0138098 0)
(-0.0127244 -0.0150216 -1.34652e-19)
(-0.0181103 -0.0156153 -1.33664e-22)
(-0.0237901 -0.0156603 6.10989e-20)
(-0.0295352 -0.0152419 3.84956e-23)
(-0.0351349 -0.014455 1.2044e-22)
(-0.0403983 -0.013396 1.55429e-19)
(-0.0451539 -0.0121569 4.87007e-20)
(-0.0492503 -0.0108188 4.56715e-20)
(-0.0525539 -0.00944696 -8.62433e-20)
(-0.0549469 -0.00808802 8.14682e-20)
(-0.0563237 -0.00676773 -7.63606e-20)
(-0.0565876 -0.00549108 7.08472e-20)
(-0.0556463 -0.00424365 -6.67742e-20)
(-0.0534077 -0.00299403 0)
(-0.049776 -0.00169696 -5.74531e-20)
(-0.0446476 -0.000296589 1.06291e-19)
(-0.0379078 0.00127099 4.84009e-20)
(-0.029427 0.00307672 -4.39977e-20)
(-0.0190583 0.00520103 1.66648e-19)
(-0.00663418 0.00774422 -3.87651e-20)
(0.0080402 0.0108546 6.95686e-20)
(0.0251578 0.0147832 -6.28744e-20)
(0.044746 0.0199756 4.04117e-22)
(0.0670594 0.0275531 0)
(0.0939051 0.0406153 -9.40331e-20)
(0.00041155 -0.00153533 2.36241e-22)
(8.13429e-05 -0.00402168 -8.04653e-20)
(-0.00191857 -0.00625182 0)
(-0.00514721 -0.00807421 -7.37574e-20)
(-0.00930256 -0.00943532 7.04997e-20)
(-0.0141389 -0.0103354 1.29314e-22)
(-0.0194075 -0.0107964 0)
(-0.0248669 -0.0108607 1.46881e-22)
(-0.030291 -0.0105879 -5.75539e-20)
(-0.0354706 -0.0100486 5.45372e-20)
(-0.0402144 -0.00931763 0)
(-0.04435 -0.00846774 -9.69676e-20)
(-0.0477228 -0.00756417 9.1362e-20)
(-0.0501953 -0.00665992 0)
(-0.0516446 -0.00579249 0)
(-0.0519589 -0.00498199 0)
(-0.0510346 -0.00423082 0)
(-0.0487718 -0.00352459 6.56184e-20)
(-0.0450705 -0.00283429 -6.18026e-20)
(-0.0398263 -0.00211897 1.71165e-19)
(-0.0329275 -0.00132889 -1.0566e-19)
(-0.0242509 -0.000408337 -9.72041e-20)
(-0.0136588 0.000702734 1.35854e-19)
(-0.000996499 0.00206961 -8.38106e-22)
(0.0139115 0.00377022 -7.53212e-20)
(0.0312701 0.00591987 -6.95668e-20)
(0.0512934 0.00872539 -6.25485e-20)
(0.0740196 0.0125878 1.13516e-19)
(0.0996802 0.0186675 -1.02672e-19)
(0.130796 0.0308052 1.86365e-19)
(7.67126e-05 -0.000756538 1.55938e-19)
(-0.000775549 -0.00200538 1.5778e-22)
(-0.0031479 -0.00327659 -1.53972e-19)
(-0.00661065 -0.00439265 1.47371e-19)
(-0.0108692 -0.00527464 -7.02511e-20)
(-0.0156837 -0.00589708 -6.69844e-20)
(-0.0208107 -0.00625541 6.37287e-20)
(-0.0260136 -0.00636576 6.04712e-20)
(-0.0310694 -0.00626247 -1.14734e-19)
(-0.0357709 -0.00599235 -1.62724e-19)
(-0.0399271 -0.00560861 -5.10534e-20)
(-0.0433638 -0.00516512 1.93633e-19)
(-0.0459236 -0.00471113 -2.73709e-19)
(-0.0474639 -0.00428685 8.59693e-20)
(-0.0478555 -0.00392016 0)
(-0.046979 -0.0036246 0)
(-0.0447217 -0.00339881 0)
(-0.0409736 -0.00322709 1.30692e-19)
(-0.0356241 -0.0030811 -6.14344e-20)
(-0.0285574 -0.00292225 -5.67789e-20)
(-0.0196501 -0.00270462 -1.04885e-19)
(-0.00876749 -0.00237787 9.68438e-20)
(0.00423918 -0.00188954 -4.50584e-20)
(0.0195347 -0.00118587 -8.29358e-20)
(0.0373026 -0.000207926 -5.91093e-22)
(0.0577542 0.00112742 -1.35444e-19)
(0.0811217 0.00297536 1.86911e-19)
(0.107449 0.00565553 -1.7086e-19)
(0.136856 0.0102595 5.27242e-20)
(0.173072 0.0214972 -4.55454e-20)
(-0.000291019 -9.65094e-06 -7.79027e-20)
(-0.00171145 -7.87816e-05 8.04005e-20)
(-0.00448352 -0.000441889 7.70086e-20)
(-0.00819059 -0.000895921 -2.20732e-19)
(-0.0125467 -0.00133702 7.02039e-20)
(-0.0173188 -0.00171448 6.68595e-20)
(-0.02227 -0.00199785 0)
(-0.0271689 -0.0021776 0)
(-0.0317964 -0.00226333 5.73134e-20)
(-0.0359473 -0.00227858 1.08492e-19)
(-0.0394307 -0.0022553 -2.0447e-19)
(-0.0420706 -0.00222854 2.97418e-22)
(-0.0437054 -0.00223145 0)
(-0.0441865 -0.00229105 0)
(-0.0433764 -0.00242488 -7.9808e-20)
(-0.0411459 -0.00263897 6.72833e-22)
(-0.0373706 -0.00292689 7.04162e-20)
(-0.0319275 -0.00327001 -6.54634e-20)
(-0.0246914 -0.00363873 -1.21221e-19)
(-0.0155317 -0.00399452 1.13001e-19)
(-0.00430923 -0.00429257 5.16713e-20)
(0.00912602 -0.00448451 -1.44548e-19)
(0.024937 -0.00452139 -8.75709e-20)
(0.0433005 -0.0043559 8.35332e-20)
(0.0644079 -0.00394182 7.53068e-20)
(0.0884722 -0.00322227 6.80668e-20)
(0.115735 -0.00209263 0)
(0.146245 -0.000338395 0)
(0.179857 0.00292082 1.00407e-19)
(0.222165 0.013371 0)
(-0.000688413 0.000702353 7.78296e-20)
(-0.00271621 0.00175068 -8.03922e-20)
(-0.00590734 0.00224226 1.53707e-19)
(-0.00986013 0.00240491 2.99168e-23)
(-0.0142986 0.00236679 0)
(-0.0189972 0.00220327 0)
(-0.0237264 0.00196996 0)
(-0.0282604 0.00170137 -6.02603e-20)
(-0.0323844 0.00141201 5.72203e-20)
(-0.035895 0.00110109 0)
(-0.0386008 0.000757536 1.02289e-19)
(-0.040323 0.000365013 9.66478e-20)
(-0.0408945 -9.34091e-05 -9.01235e-20)
(-0.0401589 -0.00063109 8.5493e-20)
(-0.0379682 -0.00125454 -2.57784e-22)
(-0.0341806 -0.00196116 -7.51108e-20)
(-0.0286566 -0.00273805 -6.97462e-20)
(-0.0212567 -0.0035619 1.9461e-19)
(-0.0118376 -0.00439979 6.03249e-20)
(-0.000249428 -0.0052108 -1.11999e-19)
(0.0136661 -0.00594823 -5.14115e-20)
(0.0300775 -0.00656227 4.87633e-20)
(0.0491639 -0.0070032 0)
(0.0711143 -0.00722446 -8.05817e-20)
(0.0961252 -0.00718499 -7.36697e-20)
(0.124402 -0.00684457 0)
(0.156179 -0.00613868 6.01373e-20)
(0.191521 -0.00495642 -1.12364e-19)
(0.229783 -0.00280323 -1.51346e-19)
(0.279222 0.00709782 0)
(-0.00111148 0.0013759 -1.55673e-19)
(-0.0037776 0.00347425 8.0357e-20)
(-0.00739788 0.00476407 -1.53843e-19)
(-0.0115878 0.00549681 -2.66984e-23)
(-0.0160823 0.00582406 0)
(-0.0206644 0.00584512 0)
(-0.0251119 0.00563998 6.35111e-20)
(-0.0292053 0.00526729 1.20568e-19)
(-0.0327335 0.00476498 0)
(-0.0354944 0.00415441 0)
(-0.0372953 0.00344506 -2.03934e-19)
(-0.0379532 0.00263915 9.61502e-20)
(-0.0372937 0.00173612 -1.8459e-22)
(-0.0351503 0.000736705 0)
(-0.0313618 -0.000353761 4.20314e-22)
(-0.0257703 -0.00152293 7.49563e-20)
(-0.0182185 -0.00274998 -2.05448e-22)
(-0.0085462 -0.00400511 -2.60431e-19)
(0.00341137 -0.00524998 -6.07192e-20)
(0.0178262 -0.0064388 1.11997e-19)
(0.034878 -0.00752021 1.02438e-19)
(0.0547548 -0.00843984 -7.56592e-22)
(0.0776504 -0.0091433 8.75636e-20)
(0.103762 -0.00957993 1.60861e-19)
(0.133283 -0.00970679 7.36667e-20)
(0.166395 -0.00948988 6.68613e-20)
(0.203298 -0.00888916 5.98102e-20)
(0.244097 -0.00785972 1.08472e-19)
(0.287335 -0.00649467 -2.26821e-21)
(0.344815 0.00322813 4.23647e-20)
(-0.00155535 0.00200684 1.56083e-19)
(-0.00488108 0.00508177 -2.41085e-19)
(-0.00893021 0.0071099 1.53979e-19)
(-0.0133374 0.0083646 1.4713e-19)
(-0.0178497 0.00901975 7.0159e-20)
(-0.0222589 0.00919768 -2.54746e-23)
(-0.0263506 0.00900178 -6.3502e-20)
(-0.029911 0.00851399 -1.20568e-19)
(-0.0327324 0.00779484 2.01339e-22)
(-0.0346131 0.00688726 2.16108e-19)
(-0.0353577 0.00582085 -1.02247e-19)
(-0.034777 0.00461626 1.92137e-19)
(-0.0326875 0.00328945 -5.52448e-22)
(-0.0289095 0.00185574 -1.69963e-19)
(-0.023266 0.000333085 3.32158e-22)
(-0.0155801 -0.00125526 0)
(-0.00567292 -0.00287909 3.4742e-19)
(0.00663858 -0.00450041 6.44888e-20)
(0.0215432 -0.00607338 0)
(0.039236 -0.00754515 5.53168e-20)
(0.0599176 -0.00885743 -5.20305e-20)
(0.0837917 -0.00994868 1.89143e-19)
(0.11106 -0.0107572 -2.62405e-19)
(0.141917 -0.011225 8.09699e-20)
(0.176536 -0.0113025 0)
(0.215053 -0.0109543 6.65409e-20)
(0.257587 -0.0101519 -1.21138e-19)
(0.304322 -0.00883921 1.09605e-19)
(0.352641 -0.00791567 -9.91534e-20)
(0.418686 0.00209024 -8.76869e-20)
(-0.00201424 0.00259054 -1.56222e-19)
(-0.00600977 0.00656194 -1.79548e-22)
(-0.0104758 0.00926444 -7.70386e-20)
(-0.0150683 0.010991 -7.36062e-20)
(-0.0195471 0.0119364 -1.40576e-19)
(-0.0237129 0.0122449 6.69007e-20)
(-0.0273589 0.0120422 -1.63837e-23)
(-0.0302766 0.0114324 -1.20662e-19)
(-0.0322606 0.0104979 -1.71216e-19)
(-0.0331083 0.00930246 3.74643e-22)
(-0.0326199 0.00789547 1.02219e-19)
(-0.0305981 0.00631581 -1.92146e-19)
(-0.0268474 0.00459612 9.07776e-20)
(-0.0211728 0.00276674 8.50092e-20)
(-0.0133785 0.000859091 3.70204e-22)
(-0.00326592 -0.00109161 7.48338e-20)
(0.00936723 -0.00304441 -1.39056e-19)
(0.0247284 -0.00495146 0)
(0.0430301 -0.00675774 -1.20239e-19)
(0.0644882 -0.00840159 1.11422e-19)
(0.0893186 -0.00981603 -1.0299e-19)
(0.117732 -0.0109309 -9.5028e-20)
(0.149923 -0.0116759 0)
(0.186062 -0.0119849 -2.39122e-19)
(0.226278 -0.0118004 1.01335e-21)
(0.270629 -0.0110823 -3.32286e-19)
(0.319092 -0.00981269 1.82649e-19)
(0.371968 -0.00781698 -2.19083e-19)
(0.425185 -0.00700999 9.91465e-20)
(0.499687 0.00376102 -8.68128e-20)
(-0.00248143 0.00312205 7.82062e-20)
(-0.00714441 0.00790263 8.06515e-20)
(-0.0120028 0.0112111 7.74134e-20)
(-0.0167356 0.0133571 -1.00641e-22)
(-0.0211159 0.0145546 -6.34057e-23)
(-0.0249531 0.0149683 0)
(-0.0280474 0.0147451 0)
(-0.0301946 0.0140103 0)
(-0.0311905 0.0128669 0)
(-0.0308299 0.0113992 0)
(-0.0289067 0.00967559 1.0214e-19)
(-0.0252132 0.00775315 -9.60192e-20)
(-0.0195396 0.00568133 9.08497e-20)
(-0.0116732 0.00350593 -3.11557e-22)
(-0.00139718 0.00127257 -7.95982e-20)
(0.0115098 -0.000970613 3.22973e-22)
(0.0272741 -0.00317066 -1.39089e-19)
(0.0461263 -0.00526857 1.29488e-19)
(0.0682986 -0.00719883 1.20235e-19)
(0.0940206 -0.00888982 -1.10441e-19)
(0.123513 -0.0102651 2.06886e-19)
(0.156974 -0.0112455 0)
(0.194573 -0.0117529 -1.73544e-19)
(0.236423 -0.0117141 1.99746e-21)
(0.282572 -0.0110663 2.00101e-21)
(0.332962 -0.00976629 1.97105e-21)
(0.387368 -0.00782141 -5.95826e-20)
(0.446198 -0.00482802 1.09477e-19)
(0.50383 -0.00386719 9.93669e-20)
(0.585862 0.00807538 4.47257e-20)
(-0.00294933 0.00359632 0)
(-0.00826353 0.00909137 8.10942e-20)
(-0.0134762 0.0129325 -7.71999e-20)
(-0.0182907 0.0154428 -1.12095e-22)
(-0.0224934 0.0168531 1.4117e-19)
(-0.0259017 0.0173474 -6.72127e-20)
(-0.0283217 0.017092 0)
(-0.0295528 0.0162324 0)
(-0.0293899 0.0148915 -1.14526e-19)
(-0.0276238 0.0131727 1.08646e-19)
(-0.0240397 0.0111636 1.0248e-19)
(-0.0184176 0.00893899 0)
(-0.0105315 0.00656526 9.07871e-20)
(-0.00014921 0.00410411 0)
(0.0129678 0.00161581 -1.59106e-19)
(0.0290634 -0.000837568 2.23647e-19)
(0.0483859 -0.00319015 2.08374e-19)
(0.0711838 -0.00537088 -6.51544e-20)
(0.097701 -0.00730304 -8.89473e-22)
(0.128168 -0.00890465 -1.67623e-19)
(0.162791 -0.01009 0)
(0.201735 -0.0107724 0)
(0.245106 -0.0108678 8.72823e-20)
(0.292929 -0.0103003 1.59038e-19)
(0.345122 -0.00900675 -1.02038e-21)
(0.401468 -0.00694698 1.33285e-19)
(0.461491 -0.00417681 1.21077e-19)
(0.525619 2.7663e-06 0)
(0.586932 0.00132696 -9.93593e-20)
(0.674641 0.014687 1.31542e-19)
(-0.00340958 0.00400848 7.91668e-20)
(-0.00934377 0.010116 0)
(-0.0148584 0.0144115 1.6945e-22)
(-0.0196818 0.0172279 -7.43028e-20)
(-0.0236133 0.0188103 7.09856e-20)
(-0.0264771 0.0193603 6.73613e-20)
(-0.0280843 0.0190627 -1.14956e-22)
(-0.0282357 0.0180813 6.08761e-20)
(-0.0267243 0.016558 0)
(-0.0233345 0.0146151 -2.17372e-19)
(-0.0178413 0.0123581 3.47119e-22)
(-0.0100105 0.00987976 0)
(0.000401296 0.00726333 9.07573e-20)
(0.0136462 0.00458659 -2.55942e-19)
(0.0299834 0.00192517 8.02382e-20)
(0.0496768 -0.000644392 -7.42911e-20)
(0.0729905 -0.0030428 -1.39416e-19)
(0.100182 -0.00518654 -1.95115e-19)
(0.131494 -0.00698763 0)
(0.167137 -0.00835441 0)
(0.207278 -0.00919356 1.03246e-19)
(0.252017 -0.00941341 9.40927e-20)
(0.30136 -0.00892858 -8.83924e-20)
(0.355195 -0.00766621 0)
(0.413268 -0.00557105 0)
(0.475154 -0.00261534 0)
(0.540113 0.00108223 1.21499e-19)
(0.608395 0.00647996 -5.40952e-20)
(0.672492 0.00833354 1.02341e-19)
(0.763096 0.0231521 8.76242e-20)
(-0.00385326 0.00435417 -1.58623e-19)
(-0.0103603 0.0109652 8.16834e-20)
(-0.0161096 0.015632 -7.84083e-20)
(-0.0208548 0.0186927 7.48323e-20)
(-0.0244068 0.0204046 -7.09854e-20)
(-0.0265954 0.0209853 6.76136e-20)
(-0.027235 0.0206362 -6.43268e-20)
(-0.0261265 0.0195385 -1.21678e-19)
(-0.0230587 0.0178518 1.15597e-19)
(-0.0178082 0.0157163 2.18118e-19)
(-0.0101382 0.0132554 1.0261e-19)
(0.000200704 0.010579 -9.7168e-20)
(0.0134695 0.00778763 2.48321e-22)
(0.0299388 0.00497518 2.523e-22)
(0.0498852 0.00223301 8.04208e-20)
(0.0735866 -0.000347765 0)
(0.101313 -0.00267423 1.39489e-19)
(0.133318 -0.00465068 3.24497e-19)
(0.16982 -0.00617878 -6.07842e-20)
(0.210989 -0.00715905 0)
(0.256918 -0.00749364 -2.06691e-19)
(0.307602 -0.00709061 -9.5359e-20)
(0.362906 -0.00586956 -8.65673e-20)
(0.422536 -0.00376887 8.12755e-20)
(0.486021 -0.0007507 -7.23977e-20)
(0.552681 0.00318635 6.78981e-20)
(0.621545 0.00787744 3.009e-22)
(0.692395 0.0143543 1.10232e-19)
(0.758298 0.0169131 -9.99062e-20)
(0.848131 0.0330326 -1.75265e-19)
(-0.0042711 0.00462972 8.01215e-20)
(-0.0112871 0.0116295 8.22594e-20)
(-0.0171887 0.0165798 -1.79821e-22)
(-0.0217537 0.0198197 3.99406e-22)
(-0.0248034 0.0216166 0)
(-0.0261712 0.0222022 -2.36143e-22)
(-0.025673 0.021793 -1.93992e-19)
(-0.023108 0.0205862 0)
(-0.0182595 0.0187583 -1.16064e-19)
(-0.0108945 0.0164665 -4.37698e-19)
(-0.000763683 0.0138514 1.03472e-19)
(0.0123975 0.0110401 -9.73711e-20)
(0.0288662 0.00814994 -1.82266e-19)
(0.048928 0.00529118 1.71925e-19)
(0.0728711 0.00257075 0)
(0.100977 9.43212e-05 7.46305e-20)
(0.133509 -0.00203205 -2.1056e-19)
(0.170694 -0.00370159 -6.54261e-20)
(0.212704 -0.00480772 -1.82053e-19)
(0.259634 -0.00524643 0)
(0.311468 -0.00492029 2.07134e-19)
(0.368052 -0.0037438 9.53528e-20)
(0.429066 -0.00165015 0)
(0.493994 0.00140087 8.05584e-20)
(0.562111 0.00541935 0)
(0.632457 0.0103632 -6.60826e-20)
(0.70388 0.0160758 -1.81949e-19)
(0.775407 0.0233331 -2.20839e-19)
(0.842067 0.0269171 -1.00308e-19)
(0.926556 0.0440043 -2.60762e-21)
(-0.00465368 0.00483248 -8.01215e-20)
(-0.0120979 0.0121015 2.74818e-22)
(-0.0180537 0.0172434 7.90712e-20)
(-0.0223215 0.0205946 -7.52314e-20)
(-0.0247311 0.02243 -7.17915e-20)
(-0.0251177 0.0229938 1.36247e-19)
(-0.0232967 0.0225164 6.49876e-20)
(-0.0190637 0.0212097 1.23092e-19)
(-0.0121951 0.019266 1.16052e-19)
(-0.00244761 0.0168587 1.10148e-19)
(0.0104407 0.0141452 2.07687e-19)
(0.0267481 0.0112695 -3.62842e-22)
(0.0467643 0.00836532 0)
(0.0707842 0.00555922 -8.5863e-20)
(0.0990977 0.00297336 -5.24803e-22)
(0.131976 0.000727346 2.68142e-22)
(0.169656 -0.00106096 2.10754e-19)
(0.212315 -0.00227591 0)
(0.260047 -0.00280614 1.21121e-19)
(0.312833 -0.00254829 0)