/*--------------------------------*- C++ -*----------------------------------*\
  =========                 |
  \\      /  F ield         | OpenFOAM: The Open Source CFD Toolbox
   \\    /   O peration     | Website:  https://openfoam.org
    \\  /    A nd           | Version:  7
     \\/     M anipulation  |
\*---------------------------------------------------------------------------*/
FoamFile
{
    version     2.0;
    format      ascii;
    class       volScalarField;
    location    "60";
    object      p;
}
// * * * * * * * * * * * * * * * * * * * * * * * * * * * * * * * * * * * * * //

dimensions      [0 2 -2 0 0 0 0];

internalField   nonuniform List<scalar> 
392
(
-0.263378
-0.254257
-0.245019
-0.263524
-0.254391
-0.245144
-0.263812
-0.254658
-0.245393
-0.26424
-0.255053
-0.245762
-0.2648
-0.255571
-0.246246
-0.265485
-0.256204
-0.246838
-0.266282
-0.256945
-0.24753
-0.267183
-0.257781
-0.248314
-0.268173
-0.258702
-0.24918
-0.26924
-0.259695
-0.250116
-0.24059
-0.260748
-0.251113
-0.241545
-0.261848
-0.252157
-0.242551
-0.262982
-0.253239
-0.243599
-0.264136
-0.254348
-0.244678
-0.265298
-0.255472
-0.245781
-0.266458
-0.256602
-0.246898
-0.237352
-0.257729
-0.248021
-0.238479
-0.258846
-0.249146
-0.239615
-0.259947
-0.250265
-0.240756
-0.261016
-0.251364
-0.241886
-0.252435
-0.242997
-0.233729
-0.253556
-0.244166
-0.234941
-0.254809
-0.245484
-0.236316
-0.255534
-0.246297
-0.237204
-0.246613
-0.237533
-0.228592
-0.24103
-0.232517
-0.224098
-0.234763
-0.226845
-0.218977
-0.227995
-0.220706
-0.213418
-0.22046
-0.213849
-0.207191
-0.212263
-0.206364
-0.200371
-0.203572
-0.198398
-0.193085
-0.19455
-0.190097
-0.185463
-0.185368
-0.18161
-0.177638
-0.176183
-0.173085
-0.169744
-0.167129
-0.164645
-0.161895
-0.158313
-0.156393
-0.154189
-0.149815
-0.148406
-0.146702
-0.141691
-0.140741
-0.139489
-0.133975
-0.133434
-0.132587
-0.126686
-0.126507
-0.126022
-0.119829
-0.119969
-0.119807
-0.113403
-0.113822
-0.113945
-0.107397
-0.108061
-0.108435
-0.1018
-0.102677
-0.103272
-0.0965963
-0.0976592
-0.0984482
-0.0917699
-0.0929937
-0.0939527
-0.0873039
-0.0886671
-0.0897747
-0.0831819
-0.0846655
-0.0859027
-0.0793875
-0.080975
-0.082325
-0.0759052
-0.0775821
-0.0790302
-0.0727204
-0.074474
-0.0760071
-0.0698192
-0.0716386
-0.0732452
-0.067189
-0.0690646
-0.0707346
-0.064818
-0.0667415
-0.0684659
-0.0626956
-0.0646596
-0.0664306
-0.0608122
-0.0628104
-0.064621
-0.0591592
-0.061186
-0.0630301
-0.057729
-0.0597795
-0.0616515
-0.0565151
-0.0585849
-0.0604799
-0.0555119
-0.0575972
-0.0595107
-0.0547149
-0.0568121
-0.0587399
-0.0541202
-0.0562262
-0.0581645
-0.0537252
-0.0558369
-0.0577821
-0.0535285
-0.055643
-0.0575916
-0.15089
-0.142303
-0.134178
-0.12653
-0.11936
-0.112661
-0.10642
-0.10062
-0.0952421
-0.0902659
-0.0856717
-0.0814401
-0.0775524
-0.0739907
-0.0707385
-0.0677804
-0.0651021
-0.0626907
-0.0605345
-0.0586229
-0.0569466
-0.0554974
-0.0542681
-0.0532527
-0.0524463
-0.0518449
-0.0514455
-0.0512466
-0.246613
-0.24103
-0.234763
-0.227995
-0.22046
-0.212263
-0.203572
-0.19455
-0.185368
-0.176183
-0.167129
-0.158313
-0.149815
-0.141691
-0.133975
-0.126686
-0.119829
-0.113403
-0.107397
-0.1018
-0.0965963
-0.0917699
-0.0873039
-0.0831819
-0.0793875
-0.0759052
-0.0727204
-0.0698192
-0.067189
-0.064818
-0.0626956
-0.0608122
-0.0591592
-0.057729
-0.0565151
-0.0555119
-0.0547149
-0.0541202
-0.0537252
-0.0535285
-0.237533
-0.232517
-0.226845
-0.220706
-0.213849
-0.206364
-0.198398
-0.190097
-0.18161
-0.173085
-0.164645
-0.156393
-0.148406
-0.140741
-0.133434
-0.126507
-0.119969
-0.113822
-0.108061
-0.102677
-0.0976592
-0.0929937
-0.0886671
-0.0846655
-0.080975
-0.0775821
-0.074474
-0.0716386
-0.0690646
-0.0667415
-0.0646596
-0.0628104
-0.061186
-0.0597795
-0.0585849
-0.0575972
-0.0568121
-0.0562262
-0.0558369
-0.055643
-0.228592
-0.224098
-0.218977
-0.213418
-0.207191
-0.200371
-0.193085
-0.185463
-0.177638
-0.169744
-0.161895
-0.154189
-0.146702
-0.139489
-0.132587
-0.126022
-0.255534
-0.246297
-0.237204
-0.254809
-0.245484
-0.236316
-0.253556
-0.244166
-0.234941
-0.252435
-0.242997
-0.233729
-0.261016
-0.251364
-0.241886
-0.259947
-0.250265
-0.240756
-0.258846
-0.249146
-0.239615
-0.257729
-0.248021
-0.238479
-0.266458
-0.256602
-0.246898
-0.237352
-0.265298
-0.255472
-0.245781
-0.264136
-0.254348
-0.244678
-0.262982
-0.253239
-0.243599
-0.261848
-0.252157
-0.242551
-0.260748
-0.251113
-0.241545
-0.26924
-0.259695
-0.250116
-0.24059
-0.268173
-0.258702
-0.24918
-0.267183
-0.257781
-0.248314
-0.266282
-0.256945
-0.24753
-0.265485
-0.256204
-0.246838
-0.2648
-0.255571
-0.246246
-0.26424
-0.255053
-0.245762
-0.263812
-0.254658
-0.245393
-0.263524
-0.254391
-0.245144
-0.263378
-0.254257
-0.245019
)
;

boundaryField
{
    inlet
    {
        type            zeroGradient;
    }
    outlet
    {
        type            fixedValue;
        value           nonuniform 0();
    }
    cylinder
    {
        type            zeroGradient;
    }
    top
    {
        type            symmetryPlane;
    }
    bottom
    {
        type            symmetryPlane;
    }
    defaultFaces
    {
        type            empty;
    }
    procBoundary27to26
    {
        type            processor;
        value           nonuniform List<scalar> 
137
(
-0.272253
-0.272411
-0.272726
-0.273192
-0.273802
-0.274549
-0.275424
-0.276413
-0.277505
-0.278682
-0.270368
-0.270368
-0.271543
-0.272749
-0.273973
-0.275198
-0.27641
-0.267603
-0.267603
-0.268725
-0.269815
-0.270856
-0.262046
-0.262046
-0.263115
-0.264292
-0.264906
-0.25581
-0.25581
-0.249607
-0.24269
-0.235241
-0.226977
-0.218019
-0.208557
-0.198777
-0.188866
-0.178994
-0.169304
-0.159909
-0.15089
-0.142303
-0.134178
-0.12653
-0.11936
-0.112661
-0.10642
-0.10062
-0.0952421
-0.0902659
-0.0856717
-0.0814401
-0.0775524
-0.0739907
-0.0707385
-0.0677804
-0.0651021
-0.0626907
-0.0605345
-0.0586229
-0.0569466
-0.0554974
-0.0542681
-0.0532527
-0.0524463
-0.0518449
-0.0514455
-0.0512466
-0.151595
-0.142542
-0.13401
-0.126009
-0.118535
-0.111575
-0.105111
-0.0991206
-0.093581
-0.0884681
-0.0837587
-0.0794301
-0.075461
-0.0718313
-0.0685223
-0.065517
-0.0627996
-0.060356
-0.0581733
-0.0562401
-0.0545462
-0.0530829
-0.0518425
-0.0508184
-0.0500055
-0.0493994
-0.0489969
-0.0487966
-0.25581
-0.25581
-0.249607
-0.24269
-0.235241
-0.226977
-0.218019
-0.208557
-0.198777
-0.188866
-0.178994
-0.169304
-0.159909
-0.159909
-0.264906
-0.264292
-0.263115
-0.262046
-0.262046
-0.270856
-0.269815
-0.268725
-0.267603
-0.267603
-0.27641
-0.275198
-0.273973
-0.272749
-0.271543
-0.270368
-0.270368
-0.278682
-0.277505
-0.276413
-0.275424
-0.274549
-0.273802
-0.273192
-0.272726
-0.272411
-0.272253
)
;
    }
    procBoundary27to28
    {
        type            processor;
        value           nonuniform List<scalar> 
137
(
-0.235759
-0.235877
-0.23611
-0.236458
-0.236914
-0.237473
-0.238128
-0.238872
-0.239696
-0.239696
-0.231168
-0.232091
-0.233068
-0.234091
-0.235151
-0.23624
-0.23624
-0.227986
-0.229117
-0.230265
-0.231425
-0.232583
-0.232583
-0.224642
-0.225889
-0.227312
-0.228265
-0.228265
-0.219811
-0.215798
-0.211186
-0.206164
-0.200522
-0.194322
-0.187674
-0.180691
-0.173493
-0.1662
-0.158919
-0.151742
-0.14474
-0.137969
-0.131468
-0.125263
-0.11937
-0.113795
-0.108542
-0.103605
-0.0989819
-0.0946634
-0.0906413
-0.0869063
-0.0834488
-0.0802593
-0.0773282
-0.0746465
-0.0722054
-0.069997
-0.0680137
-0.0662486
-0.0646953
-0.0633485
-0.0622031
-0.061255
-0.0605007
-0.0599374
-0.0595629
-0.0593764
-0.119807
-0.113945
-0.108435
-0.103272
-0.0984482
-0.0939527
-0.0897747
-0.0859027
-0.082325
-0.0790302
-0.0760071
-0.0732452
-0.0707346
-0.0684659
-0.0664306
-0.064621
-0.0630301
-0.0616515
-0.0604799
-0.0595107
-0.0587399
-0.0581645
-0.0577821
-0.0575916
-0.219811
-0.228265
-0.215798
-0.211186
-0.206164
-0.200522
-0.194322
-0.187674
-0.180691
-0.173493
-0.1662
-0.158919
-0.151742
-0.14474
-0.137969
-0.131468
-0.119807
-0.125263
-0.228265
-0.227312
-0.225889
-0.224642
-0.232583
-0.232583
-0.231425
-0.230265
-0.229117
-0.227986
-0.23624
-0.23624
-0.235151
-0.234091
-0.233068
-0.232091
-0.231168
-0.239696
-0.239696
-0.238872
-0.238128
-0.237473
-0.236914
-0.236458
-0.23611
-0.235877
-0.235759
)
;
    }
}


// ************************************************************************* //
