/*--------------------------------*- C++ -*----------------------------------*\
  =========                 |
  \\      /  F ield         | OpenFOAM: The Open Source CFD Toolbox
   \\    /   O peration     | Website:  https://openfoam.org
    \\  /    A nd           | Version:  7
     \\/     M anipulation  |
\*---------------------------------------------------------------------------*/
FoamFile
{
    version     2.0;
    format      ascii;
    class       surfaceScalarField;
    location    "37";
    object      phi;
}
// * * * * * * * * * * * * * * * * * * * * * * * * * * * * * * * * * * * * * //

dimensions      [0 3 -1 0 0 0 0];

internalField   nonuniform List<scalar> 
79480
(
-7.46597e-07
7.42091e-07
4.50636e-09
-2.87539e-06
2.11485e-06
1.39415e-08
-6.33524e-06
3.43571e-06
2.41382e-08
-1.10731e-05
4.70283e-06
3.50403e-08
-1.70336e-05
5.91392e-06
4.65751e-08
-2.41595e-05
7.06723e-06
5.86684e-08
-3.23922e-05
8.16143e-06
7.12505e-08
-4.16721e-05
9.19568e-06
8.42629e-08
-5.19394e-05
1.01696e-05
9.76664e-08
-6.3134e-05
1.10832e-05
1.11449e-07
-7.51966e-05
1.1937e-05
1.25634e-07
-8.80689e-05
1.2732e-05
1.40281e-07
-0.000101694
1.34694e-05
1.55491e-07
-0.000116016
1.41508e-05
1.71408e-07
-0.000130982
1.47779e-05
1.88212e-07
-0.000146541
1.53529e-05
2.06114e-07
-0.000162645
1.58784e-05
2.25351e-07
-0.000179249
1.63578e-05
2.46173e-07
-0.000196313
1.67955e-05
2.68838e-07
-0.000213805
1.71982e-05
2.93599e-07
-0.000231701
1.75749e-05
3.20697e-07
-0.00024999
1.79386e-05
3.50357e-07
-0.000268679
1.83069e-05
3.82787e-07
-0.0002878
1.87029e-05
4.18172e-07
-0.000307413
1.91558e-05
4.56682e-07
-0.000327611
1.97002e-05
4.98471e-07
-0.000348529
2.03737e-05
5.43683e-07
-0.000370333
2.12116e-05
5.92446e-07
-0.000393222
2.22446e-05
6.44856e-07
2.3524e-05
7.00999e-07
-0.000417447
-7.41212e-07
1.4833e-06
-2.85516e-06
4.2288e-06
-6.29144e-06
6.872e-06
-1.09976e-05
9.40902e-06
-1.69189e-05
1.18352e-05
-2.39984e-05
1.41467e-05
-3.21777e-05
1.63408e-05
-4.13977e-05
1.84156e-05
-5.15982e-05
2.03701e-05
-6.27194e-05
2.22044e-05
-7.47018e-05
2.39193e-05
-8.74866e-05
2.55168e-05
-0.000101016
2.69991e-05
-0.000115235
2.83695e-05
-0.000130088
2.96314e-05
-0.000145525
3.07891e-05
-0.000161494
3.18477e-05
-0.00017795
3.28138e-05
-0.000194851
3.36963e-05
-0.00021216
3.45079e-05
-0.000229852
3.52665e-05
-0.000247911
3.59973e-05
-0.000266339
3.67352e-05
-0.000285162
3.75262e-05
-0.000304435
3.84286e-05
-0.000324247
3.9512e-05
-0.000344727
4.08535e-05
-0.000366041
4.25255e-05
-0.000388388
4.45916e-05
4.71567e-05
-0.000412021
-7.30476e-07
2.21378e-06
-2.8148e-06
6.31313e-06
-6.20405e-06
1.02612e-05
-1.0847e-05
1.4052e-05
-1.66899e-05
1.7678e-05
-2.36766e-05
2.11334e-05
-3.17493e-05
2.44136e-05
-4.08491e-05
2.75154e-05
-5.09162e-05
3.04372e-05
-6.18904e-05
3.31785e-05
-7.37117e-05
3.57407e-05
-8.6321e-05
3.8126e-05
-9.96597e-05
4.03378e-05
-0.000113671
4.23804e-05
-0.000128298
4.42587e-05
-0.000143487
4.59785e-05
-0.000159187
4.75469e-05
-0.000175346
4.8973e-05
-0.000191918
5.0269e-05
-0.000208863
5.14525e-05
-0.000226146
5.2549e-05
-0.000243743
5.35946e-05
-0.000261648
5.464e-05
-0.000279874
5.57529e-05
-0.000298466
5.70205e-05
-0.000317503
5.85485e-05
-0.000337105
6.04556e-05
-0.000357435
6.28556e-05
-0.000378693
6.58492e-05
6.96e-05
-0.000401136
-7.14574e-07
2.92835e-06
-2.755e-06
8.35355e-06
-6.07445e-06
1.35807e-05
-1.06235e-05
1.86011e-05
-1.63498e-05
2.34043e-05
-2.31985e-05
2.7982e-05
-3.11124e-05
3.23276e-05
-4.00332e-05
3.64361e-05
-4.99009e-05
4.03049e-05
-6.06554e-05
4.3933e-05
-7.2236e-05
4.73213e-05
-8.45824e-05
5.04725e-05
-9.76349e-05
5.33903e-05
-0.000111334
5.60798e-05
-0.000125622
5.85467e-05
-0.000140442
6.07977e-05
-0.000155736
6.28409e-05
-0.000171449
6.46868e-05
-0.00018753
6.63495e-05
-0.000203927
6.785e-05
-0.000220597
6.92189e-05
-0.000237504
7.05014e-05
-0.000254625
7.17614e-05
-0.000271959
7.3087e-05
-0.000289532
7.45932e-05
-0.000307407
7.6423e-05
-0.000325691
7.87404e-05
-0.000344543
8.17072e-05
-0.000364162
8.54682e-05
9.02547e-05
-0.000384817
-6.93782e-07
3.62213e-06
-2.67673e-06
1.03365e-05
-5.9047e-06
1.68087e-05
-1.03305e-05
2.30269e-05
-1.59037e-05
2.89775e-05
-2.25706e-05
3.46489e-05
-3.02752e-05
4.00322e-05
-3.89595e-05
4.51204e-05
-4.85637e-05
4.99092e-05
-5.90272e-05
5.43965e-05
-7.02886e-05
5.85827e-05
-8.22861e-05
6.247e-05
-9.49582e-05
6.60624e-05
-0.000108243
6.93647e-05
-0.000122079
7.23829e-05
-0.000136405
7.51237e-05
-0.000151159
7.75951e-05
-0.00016628
7.98072e-05
-0.000181705
8.17747e-05
-0.000197374
8.35193e-05
-0.00021323
8.50744e-05
-0.000229219
8.64908e-05
-0.000245301
8.7843e-05
-0.00026145
8.92361e-05
-0.000277669
9.0812e-05
-0.000293997
9.27515e-05
-0.000310526
9.52692e-05
-0.000327403
9.85837e-05
-0.00034483
0.000102895
0.000108517
-0.000363092
-6.6846e-07
4.29059e-06
-2.58129e-06
1.22493e-05
-5.6975e-06
1.99249e-05
-9.97251e-06
2.73019e-05
-1.53578e-05
3.43628e-05
-2.18015e-05
4.10926e-05
-2.92485e-05
4.74792e-05
-3.76411e-05
5.3513e-05
-4.69197e-05
5.91877e-05
-5.70229e-05
6.44997e-05
-6.78881e-05
6.9448e-05
-7.94521e-05
7.4034e-05
-9.16506e-05
7.82609e-05
-0.000104419
8.2133e-05
-0.000117691
8.56555e-05
-0.000131402
8.8834e-05
-0.000145482
9.16749e-05
-0.000159861
9.41867e-05
-0.000174468
9.63819e-05
-0.00018923
9.82806e-05
-0.000204071
9.99155e-05
-0.000218919
0.000101339
-0.000233707
0.000102632
-0.000248384
0.000103912
-0.000262918
0.000105347
-0.00027732
0.000107154
-0.000291655
0.000109604
-0.000306057
0.000112986
-0.000320731
0.000117569
0.000123772
-0.000335986
-6.39051e-07
4.92965e-06
-2.47027e-06
1.40805e-05
-5.45613e-06
2.29107e-05
-9.55486e-06
3.14007e-05
-1.47202e-05
3.95281e-05
-2.09017e-05
4.72741e-05
-2.80453e-05
5.46228e-05
-3.60937e-05
6.15615e-05
-4.4987e-05
6.8081e-05
-5.46629e-05
7.41756e-05
-6.50574e-05
7.98424e-05
-7.61047e-05
8.50813e-05
-8.7738e-05
8.98941e-05
-9.98886e-05
9.42836e-05
-0.000112486
9.82532e-05
-0.000125458
0.000101806
-0.000138729
0.000104946
-0.00015222
0.000107677
-0.000165847
0.000110009
-0.000179521
0.000111954
-0.000193148
0.000113543
-0.000206633
0.000114824
-0.000219879
0.000115878
-0.000232798
0.000116832
-0.000245322
0.000117871
-0.000257421
0.000119252
-0.000269123
0.000121306
-0.000280546
0.000124408
-0.000291894
0.000128917
0.000135387
-0.000303509
-6.06066e-07
5.53571e-06
-2.34552e-06
1.582e-05
-5.18445e-06
2.57497e-05
-9.08394e-06
3.53001e-05
-1.39999e-05
4.44441e-05
-1.98834e-05
5.31576e-05
-2.66811e-05
6.14205e-05
-3.43359e-05
6.92163e-05
-4.27872e-05
7.65324e-05
-5.19716e-05
8.33599e-05
-6.18228e-05
8.96936e-05
-7.22726e-05
9.55312e-05
-8.32504e-05
0.000100872
-9.46832e-05
0.000105716
-0.000106495
0.000110065
-0.000118607
0.000113918
-0.000130934
0.000117273
-0.000143387
0.000120131
-0.000155869
0.000122491
-0.000168274
0.00012436
-0.000180489
0.000125757
-0.000192388
0.000126723
-0.000203843
0.000127333
-0.000214725
0.000127713
-0.000224917
0.000128063
-0.000234337
0.000128672
-0.000242969
0.000129938
-0.0002509
0.000132339
-0.000258333
0.00013635
0.000142696
-0.000265642
-5.70086e-07
6.1058e-06
-2.20912e-06
1.7459e-05
-4.88677e-06
2.84273e-05
-8.56687e-06
3.89802e-05
-1.32073e-05
4.90845e-05
-1.87604e-05
5.87106e-05
-2.51733e-05
6.78334e-05
-3.23885e-05
7.64316e-05
-4.03446e-05
8.44884e-05
-4.89761e-05
9.19914e-05
-5.82145e-05
9.8932e-05
-6.79879e-05
0.000105305
-7.82216e-05
0.000111106
-8.88372e-05
0.000116332
-9.97525e-05
0.00012098
-0.00011088
0.000125045
-0.000122127
0.00012852
-0.000133392
0.000131395
-0.000144562
0.000133661
-0.000155515
0.000135313
-0.000166113
0.000136355
-0.000176203
0.000136813
-0.000185618
0.000136747
-0.000194181
0.000136277
-0.000201721
0.000135603
-0.00020809
0.000135042
-0.000213211
0.000135059
-0.000217128
0.000136256
-0.000220035
0.000139257
0.000144982
-0.000222322
-5.31743e-07
6.63754e-06
-2.06335e-06
1.89906e-05
-4.56783e-06
3.09318e-05
-8.01147e-06
4.24239e-05
-1.23538e-05
5.34268e-05
-1.75478e-05
6.39047e-05
-2.35408e-05
7.38264e-05
-3.02745e-05
8.31653e-05
-3.76856e-05
9.18995e-05
-4.57065e-05
0.000100012
-5.42652e-05
0.000107491
-6.32858e-05
0.000114325
-7.26883e-05
0.000120508
-8.23882e-05
0.000126032
-9.22958e-05
0.000130888
-0.000102315
0.000135065
-0.000112342
0.000138547
-0.000122263
0.000141316
-0.00013195
0.000143348
-0.000141261
0.000144624
-0.000150033
0.000145127
-0.000158082
0.000144862
-0.0001652
0.000143865
-0.000171159
0.000142236
-0.000175723
0.000140166
-0.000178667
0.000137987
-0.000179832
0.000136224
-0.000179204
0.000135628
-0.000176951
0.000137004
0.000141465
-0.000173434
-4.91713e-07
7.12925e-06
-1.91062e-06
2.04095e-05
-4.23268e-06
3.32538e-05
-7.42607e-06
4.56173e-05
-1.14514e-05
5.74521e-05
-1.62618e-05
6.87152e-05
-2.1804e-05
7.93686e-05
-2.80182e-05
8.93794e-05
-3.48387e-05
9.87201e-05
-4.21947e-05
0.000107368
-5.001e-05
0.000115306
-5.82036e-05
0.000122519
-6.66893e-05
0.000128994
-7.53754e-05
0.000134718
-8.41635e-05
0.000139676
-9.29475e-05
0.000143849
-0.000101612
0.000147211
-0.000110027
0.000149732
-0.000118051
0.000151372
-0.000125519
0.000152092
-0.000132244
0.000151851
-0.000138007
0.000150625
-0.000142559
0.000148418
-0.000145617
0.000145294
-0.000146871
0.00014142
-0.000146008
0.000137124
-0.000142764
0.00013298
-0.000137042
0.000129906
-0.000128992
0.000128955
0.000131284
-0.000118812
-4.507e-07
7.57995e-06
-1.75349e-06
2.17123e-05
-3.88657e-06
3.53869e-05
-6.81935e-06
4.855e-05
-1.05127e-05
6.11454e-05
-1.49193e-05
7.31218e-05
-1.99842e-05
8.44335e-05
-2.56452e-05
9.50404e-05
-3.18335e-05
0.000104908
-3.84739e-05
0.000114009
-4.54852e-05
0.000122317
-5.278e-05
0.000129814
-6.02648e-05
0.000136479
-6.78389e-05
0.000142292
-7.5394e-05
0.000147231
-8.28123e-05
0.000151267
-8.99644e-05
0.000154363
-9.67062e-05
0.000156473
-0.000102875
0.000157541
-0.000108286
0.000157503
-0.000112724
0.000156289
-0.000115937
0.000153838
-0.000117632
0.000150112
-0.000117466
0.000145128
-0.000115053
0.000139008
-0.00010998
0.000132051
-0.000101857
0.000124857
-9.04496e-05
0.000118498
-7.59844e-05
0.000114489
0.000113685
-5.83859e-05
-4.09423e-07
7.98938e-06
-1.5945e-06
2.28974e-05
-3.53484e-06
3.73273e-05
-6.20013e-06
5.12153e-05
-9.55055e-06
6.44958e-05
-1.35372e-05
7.71084e-05
-1.81027e-05
8.89989e-05
-2.31813e-05
0.000100119
-2.86999e-05
0.000110427
-3.4578e-05
0.000119887
-4.07277e-05
0.000128467
-4.70541e-05
0.00013614
-5.34545e-05
0.000142879
-5.98182e-05
0.000148656
-6.60247e-05
0.000153438
-7.19423e-05
0.000157185
-7.74261e-05
0.000159847
-8.23139e-05
0.000161361
-8.64227e-05
0.00016165
-8.95425e-05
0.000160623
-9.14298e-05
0.000158176
-9.1798e-05
0.000154206
-9.03085e-05
0.000148623
-8.65605e-05
0.00014138
-8.00865e-05
0.000132534
-7.03643e-05
0.000122328
-5.68606e-05
0.000111353
-3.9096e-05
0.000100734
-1.69207e-05
9.2314e-05
8.99756e-05
6.7892e-06
-3.68596e-07
8.35797e-06
-1.43623e-06
2.3965e-05
-3.18278e-06
3.90738e-05
-5.57709e-06
5.36096e-05
-8.57753e-06
6.74963e-05
-1.21324e-05
8.06634e-05
-1.61806e-05
9.30471e-05
-2.06519e-05
0.00010459
-2.54674e-05
0.000115242
-3.05396e-05
0.000124959
-3.5773e-05
0.0001337
-4.10632e-05
0.00014143
-4.62968e-05
0.000148113
-5.13504e-05
0.000153709
-5.60894e-05
0.000158177
-6.03657e-05
0.000161461
-6.40157e-05
0.000163497
-6.68563e-05
0.000164202
-6.86805e-05
0.000163474
-6.92511e-05
0.000161193
-6.8293e-05
0.000157218
-6.54828e-05
0.000151396
-6.0436e-05
0.000143576
-5.26929e-05
0.000133637
-4.17055e-05
0.000121546
-2.68364e-05
0.000107459
-7.39616e-06
9.19131e-05
1.72437e-05
7.60938e-05
4.73506e-05
6.2207e-05
5.52516e-05
8.20746e-05
-3.28909e-07
8.68688e-06
-1.28112e-06
2.49173e-05
-2.83546e-06
4.06282e-05
-4.95858e-06
5.57328e-05
-7.60568e-06
7.01434e-05
-1.0721e-05
8.37787e-05
-1.42382e-05
9.65644e-05
-1.80811e-05
0.000108433
-2.21635e-05
0.000119325
-2.63898e-05
0.000129185
-3.06545e-05
0.000137965
-3.48421e-05
0.000145618
-3.8826e-05
0.000152097
-4.24681e-05
0.000157351
-4.56164e-05
0.000161325
-4.81034e-05
0.000163948
-4.97431e-05
0.000165137
-5.03274e-05
0.000164786
-4.9621e-05
0.000162768
-4.7355e-05
0.000158927
-4.32186e-05
0.000153082
-3.68479e-05
0.000145025
-2.78106e-05
0.000134539
-1.5588e-05
0.000121414
4.46605e-07
0.000105512
2.10425e-05
8.68634e-05
4.70635e-05
6.58921e-05
7.93577e-05
4.37995e-05
0.00011839
2.31746e-05
9.81983e-06
0.000163822
-2.91005e-07
8.97789e-06
-1.13144e-06
2.57577e-05
-2.49754e-06
4.19943e-05
-4.35223e-06
5.75875e-05
-6.64601e-06
7.24371e-05
-9.31742e-06
8.64501e-05
-1.22936e-05
9.95405e-05
-1.54905e-05
0.00011163
-1.88131e-05
0.000122648
-2.21557e-05
0.000132528
-2.5401e-05
0.00014121
-2.84199e-05
0.000148637
-3.10705e-05
0.000154747
-3.31964e-05
0.000159477
-3.46252e-05
0.000162754
-3.51659e-05
0.000164489
-3.46057e-05
0.000164577
-3.27061e-05
0.000162887
-2.91979e-05
0.00015926
-2.37743e-05
0.000153504
-1.60829e-05
0.00014539
-5.71302e-06
0.000134656
7.81902e-06
0.000121007
2.5092e-05
0.000104141
4.68073e-05
8.37963e-05
7.38219e-05
5.98488e-05
0.000107164
3.25495e-05
0.00014794
3.02409e-06
0.000197002
-2.58874e-05
-4.74044e-05
0.000254226
-2.55458e-07
9.23334e-06
-9.89191e-07
2.64914e-05
-2.17311e-06
4.31782e-05
-3.76467e-06
5.9179e-05
-5.70797e-06
7.43804e-05
-7.93418e-06
8.86763e-05
-1.0362e-05
0.000101968
-1.2898e-05
0.000114166
-1.54364e-05
0.000125186
-1.78591e-05
0.000134951
-2.00348e-05
0.000143386
-2.18184e-05
0.00015042
-2.30492e-05
0.000155978
-2.35497e-05
0.000159978
-2.31227e-05
0.000162327
-2.15491e-05
0.000162915
-1.85836e-05
0.000161611
-1.39514e-05
0.000158254
-7.34184e-06
0.00015265
1.59737e-06
0.000144564
1.32694e-05
0.000133718
2.81392e-05
0.000119786
4.67494e-05
0.000102396
6.97422e-05
8.11485e-05
9.78917e-05
5.56467e-05
0.000132148
2.55924e-05
0.000173688
-8.99072e-06
0.000223881
-4.71683e-05
0.000283983
-8.59894e-05
-0.000117769
0.000354347
-2.22746e-07
9.45609e-06
-8.56023e-07
2.71247e-05
-1.86546e-06
4.41876e-05
-3.20117e-06
6.05147e-05
-4.79897e-06
7.59782e-05
-6.58077e-06
9.04581e-05
-8.45503e-06
0.000103843
-1.03168e-05
0.000116028
-1.20474e-05
0.000126917
-1.35141e-05
0.000136417
-1.45692e-05
0.000144441
-1.50482e-05
0.000150899
-1.47687e-05
0.000155699
-1.35277e-05
0.000158737
-1.10988e-05
0.000159898
-7.22896e-06
0.000159045
-1.63457e-06
0.000156017
6.00351e-06
0.000150616
1.60454e-05
0.000142608
2.88991e-05
0.000131711
4.50286e-05
0.000117589
6.49645e-05
9.98499e-05
8.93183e-05
7.80426e-05
0.000118803
5.16637e-05
0.000154265
2.0185e-05
0.000196733
-1.68755e-05
0.0002475
-5.97575e-05
0.000308164
-0.000107833
0.000380386
-0.000158211
-0.000202676
0.000465293
-1.93224e-07
9.64931e-06
-7.33105e-07
2.76646e-05
-1.57687e-06
4.50314e-05
-2.66526e-06
6.16031e-05
-3.92375e-06
7.72367e-05
-5.26303e-06
9.17974e-05
-6.57916e-06
0.000105159
-7.75351e-06
0.000117202
-8.65226e-06
0.000127815
-9.12549e-06
0.00013689
-9.00579e-06
0.000144321
-8.10645e-06
0.00015
-6.21911e-06
0.000153811
-3.11085e-06
0.000155628
1.47924e-06
0.000155308
7.84406e-06
0.000152681
1.63132e-05
0.000147548
2.72582e-05
0.000139671
4.10987e-05
0.000128768
5.83089e-05
0.0001145
7.94262e-05
9.64716e-05
0.00010506
7.42165e-05
0.000135902
4.71998e-05
0.000172748
1.48176e-05
0.000216519
-2.3586e-05
0.000268311
-6.86669e-05
0.000329489
-0.000120935
0.000401816
-0.00018016
0.000487294
-0.00024369
-0.0003035
0.000588118
-1.67097e-07
9.81641e-06
-6.21051e-07
2.81185e-05
-1.30842e-06
4.57187e-05
-2.15837e-06
6.24531e-05
-3.08392e-06
7.81623e-05
-3.9823e-06
9.26958e-05
-4.73498e-06
0.000105911
-5.2073e-06
0.000117674
-5.24759e-06
0.000127856
-4.68589e-06
0.000136329
-3.33193e-06
0.000142967
-9.7285e-07
0.000147641
2.62994e-06
0.000150208
7.74432e-06
0.000150514
1.46717e-05
0.00014838
2.37517e-05
0.0001436
3.53679e-05
0.000135931
4.99533e-05
0.000125086
6.79974e-05
0.000110724
9.00526e-05
9.24453e-05
0.000116742
6.97823e-05
0.000148767
4.21917e-05
0.000186915
9.05117e-06
0.000232075
-3.03418e-05
0.000285247
-7.67588e-05
0.000347586
-0.000131006
0.000420485
-0.000193834
0.000505777
-0.000265452
0.000605673
-0.000343586
-0.000421479
0.000723653
-1.44397e-07
9.96081e-06
-5.19823e-07
2.8494e-05
-1.05976e-06
4.62587e-05
-1.67951e-06
6.30728e-05
-2.27734e-06
7.87601e-05
-2.73472e-06
9.31531e-05
-2.91609e-06
0.000106093
-2.66816e-06
0.000117427
-1.81854e-06
0.000127006
-1.73989e-07
0.000134684
2.48216e-06
0.000140311
6.39327e-06
0.00014373
1.1833e-05
0.000144769
1.91098e-05
0.000143237
2.85722e-05
0.000138918
4.0614e-05
0.000131559
5.56811e-05
0.000120864
7.42777e-05
0.000106489
9.69736e-05
8.80279e-05
0.000124411
6.50082e-05
0.00015731
3.6883e-05
0.000196477
3.02481e-06
0.000242807
-3.72785e-05
0.000297288
-8.48231e-05
0.000361009
-0.00014048
0.000435173
-0.00020517
0.000521157
-0.000279817
0.000620754
-0.00036505
0.000736189
-0.000459021
-0.000557577
0.000872287
-1.24959e-07
1.00858e-05
-4.28652e-07
2.87977e-05
-8.28992e-07
4.6659e-05
-1.22499e-06
6.34688e-05
-1.49778e-06
7.90329e-05
-1.51058e-06
9.31659e-05
-1.10821e-06
0.00010569
-1.15865e-07
0.000116434
1.66253e-06
0.000125228
4.44724e-06
0.0001319
8.48554e-06
0.000136273
1.40558e-05
0.000138159
2.14723e-05
0.000137352
3.10902e-05
0.000133619
4.3312e-05
0.000126696
5.85939e-05
0.000116277
7.74529e-05
0.000102005
0.000100474
8.34681e-05
0.000128317
6.01849e-05
0.000161723
3.16018e-05
0.000201521
-2.91501e-06
0.000248629
-4.40828e-05
0.000304053
-9.27031e-05
0.000368888
-0.000149657
0.000444303
-0.000215895
0.000531537
-0.000292404
0.000631912
-0.000380192
0.000747059
-0.000480196
0.000879
-0.000590963
-0.000712302
0.00103373
-1.08404e-07
1.01942e-05
-3.45975e-07
2.90352e-05
-6.1248e-07
4.69255e-05
-7.88162e-07
6.36445e-05
-7.34524e-07
7.89792e-05
-2.93854e-07
9.27253e-05
7.11356e-07
0.000104685
2.4805e-06
0.000114665
5.23719e-06
0.000122471
9.23231e-06
0.000127904
1.47483e-05
0.000130757
2.21039e-05
0.000130804
3.16598e-05
0.000127796
4.38247e-05
0.000121454
5.90627e-05
0.000111458
7.79003e-05
9.74391e-05
0.000100934
7.89713e-05
0.000128839
5.55633e-05
0.000162373
2.66507e-05
0.000202385
-8.41019e-06
0.000249816
-5.03452e-05
0.000305695
-9.99627e-05
0.000371141
-0.000158148
0.000447337
-0.000225854
0.000535517
-0.000304076
0.00063693
-0.000393817
0.000752796
-0.000496058
0.000884453
-0.000611853
0.00103356
-0.000740068
-0.000885482
0.00120674
-9.41303e-08
1.02883e-05
-2.69406e-07
2.92105e-05
-4.04841e-07
4.7061e-05
-3.59329e-07
6.3599e-05
2.79821e-08
7.85919e-05
9.3803e-07
9.18152e-05
2.57421e-06
0.000103049
5.16382e-06
0.000112075
8.96154e-06
0.000118673
1.42536e-05
0.000122612
2.13624e-05
0.000123648
3.06528e-05
0.000121513
4.25383e-05
0.000115911
5.74884e-05
0.000106504
7.60362e-05
9.29104e-05
9.87867e-05
7.46886e-05
0.000126424
5.13336e-05
0.00015972
2.22674e-05
0.000199538
-1.31665e-05
0.000246834
-5.57064e-05
0.00030266
-0.000106171
0.000368153
-0.000165455
0.000444518
-0.000234514
0.000533006
-0.000314341
0.000634868
-0.000405938
0.000751308
-0.000510256
0.000883396
-0.000628146
0.00103203
-0.000760483
0.00119844
-0.000906485
-0.001076
0.00138896
-8.13082e-08
1.03696e-05
-1.95729e-07
2.93249e-05
-1.98946e-07
4.70642e-05
7.41845e-08
6.33259e-05
8.0922e-07
7.78569e-05
2.21416e-06
9.04103e-05
4.52076e-06
0.000100742
7.98802e-06
0.000108608
1.2906e-05
0.000113755
1.9601e-05
0.000115917
2.8441e-05
0.000114808
3.9843e-05
0.000110111
5.42799e-05
0.000101474
7.22892e-05
8.84951e-05
9.44807e-05
7.07189e-05
0.000121545
4.76243e-05
0.000154261
1.8618e-05
0.0001935
-1.69717e-05
0.000240231
-5.98977e-05
0.000295517
-0.000110993
0.000360509
-0.000171163
0.000436426
-0.000241373
0.000524531
-0.000322619
0.000626085
-0.000415895
0.000742292
-0.000522145
0.000874222
-0.000642187
0.00102272
-0.000776646
0.00118808
-0.000925845
0.00137126
-0.00108966
-0.00128149
0.00157675
-6.88922e-08
1.04385e-05
-1.20908e-07
2.93769e-05
1.4365e-08
4.69289e-05
5.27994e-07
6.28122e-05
1.63405e-06
7.67508e-05
3.56993e-06
8.84744e-05
6.59967e-06
9.77127e-05
1.10179e-05
0.00010419
1.71546e-05
0.000107618
2.53811e-05
0.000107691
3.61169e-05
0.000104072
4.98373e-05
9.6391e-05
6.7082e-05
8.42293e-05
8.84628e-05
6.71143e-05
0.000114673
4.45086e-05
0.000146495
1.58028e-05
0.000184803
-1.96907e-05
0.000230572
-6.27409e-05
0.000284871
-0.000114196
0.000348854
-0.000174976
0.000423747
-0.000246056
0.000510816
-0.000328442
0.000611325
-0.000423127
0.000726474
-0.000531044
0.000857322
-0.000652993
0.00100469
-0.000789555
0.00116909
-0.000941049
0.0013501
-0.00110685
0.0015486
-0.00128817
-0.00149807
0.00176518
-5.56671e-08
1.04942e-05
-4.03543e-08
2.93616e-05
2.44617e-07
4.66439e-05
1.02019e-06
6.20367e-05
2.53055e-06
7.52405e-05
5.04611e-06
8.59588e-05
8.86693e-06
9.38919e-05
1.43275e-05
9.87294e-05
2.18025e-05
0.000100143
3.1714e-05
9.77795e-05
4.45387e-05
9.12477e-05
6.08168e-05
8.01129e-05
8.11607e-05
6.38855e-05
0.000106263
4.20117e-05
0.000136906
1.3866e-05
0.000173964
-2.12555e-05
0.000218411
-6.41375e-05
0.000271314
-0.000115644
0.000333828
-0.00017671
0.000407175
-0.000248323
0.000492617
-0.000331498
0.00059141
-0.000427235
0.000704744
-0.000536461
0.000833661
-0.000659962
0.000978962
-0.000798294
0.00114108
-0.000951676
0.00132005
-0.00112002
0.00151468
-0.00130147
0.00172602
-0.00149951
-0.00172026
0.00194821
-4.02217e-08
1.05344e-05
5.12876e-08
2.92701e-05
5.04209e-07
4.6191e-05
1.57117e-06
6.09697e-05
3.53018e-06
7.32815e-05
6.68794e-06
8.28011e-05
1.13844e-05
8.91955e-05
1.79982e-05
9.21156e-05
2.69541e-05
9.11876e-05
3.873e-05
8.60036e-05
5.3866e-05
7.61117e-05
7.2973e-05
6.10059e-05
9.67416e-05
4.01168e-05
0.00012595
1.28033e-05
0.00016147
-2.16538e-05
0.000204269
-6.40547e-05
0.00025541
-0.000115278
0.00031604
-0.000176274
0.000387373
-0.000248043
0.000470659
-0.000331609
0.00056714
-0.000427979
0.000677987
-0.000538082
0.000804221
-0.000662695
0.000946616
-0.000802358
0.00110559
-0.000957267
0.00128107
-0.00112716
0.00147242
-0.00131137
0.00167781
-0.00150686
0.00189809
-0.00171979
-0.00194112
0.00211894
-2.10392e-08
1.05554e-05
1.5973e-07
2.90893e-05
8.05288e-07
4.55455e-05
2.20267e-06
5.95723e-05
4.66663e-06
7.08175e-05
8.54369e-06
7.8924e-05
1.42176e-05
8.35215e-05
2.21162e-05
8.4217e-05
3.27186e-05
8.05851e-05
4.65646e-05
7.21577e-05
6.42626e-05
5.84137e-05
8.64994e-05
3.87691e-05
0.000114048
1.25685e-05
0.000147773
-2.09214e-05
0.000188634
-6.25149e-05
0.000237684
-0.000113105
0.00029606
-0.000173654
0.000364962
-0.000245176
0.000445624
-0.000328705
0.00053927
-0.000425254
0.000647044
-0.000535754
0.000769941
-0.000660978
0.000908703
-0.000801457
0.00106372
-0.000957372
0.00123491
-0.00112846
0.00142162
-0.00131387
0.00162248
-0.00151223
0.00183533
-0.0017197
0.00205898
-0.00194344
-0.00215229
0.00227014
3.46363e-09
1.0552e-05
2.9094e-07
2.88019e-05
1.16084e-06
4.46756e-05
2.93726e-06
5.77959e-05
5.97469e-06
6.77801e-05
1.0663e-05
7.42357e-05
1.7434e-05
7.67505e-05
2.67688e-05
7.48823e-05
3.92062e-05
6.81477e-05
5.53523e-05
5.60116e-05
7.58887e-05
3.78772e-05
0.000101581
1.30765e-05
0.000133286
-1.91362e-05
0.000171952
-5.95876e-05
0.00021862
-0.000109183
0.000274413
-0.000168898
0.000340515
-0.000239756
0.000418143
-0.000322803
0.000508496
-0.000419058
0.000612695
-0.000529454
0.000731704
-0.000654762
0.000866228
-0.000795503
0.00101662
-0.000951845
0.00118275
-0.00112351
0.00136397
-0.00130967
0.00155901
-0.00150891
0.00176589
-0.00171911
0.00198279
-0.0019366
0.00220428
-0.00216493
-0.00234531
0.0023973
3.48718e-08
1.05171e-05
4.50857e-07
2.83859e-05
1.58386e-06
4.35426e-05
3.79751e-06
5.55822e-05
7.48905e-06
6.40885e-05
1.30953e-05
6.86294e-05
2.10998e-05
6.8746e-05
3.20414e-05
6.39407e-05
4.6523e-05
5.3666e-05
6.52208e-05
3.73138e-05
8.88925e-05
1.42055e-05
0.000118384
-1.64148e-05
0.000154632
-5.53842e-05
0.000198663
-0.000103619
0.000251583
-0.000162104
0.000314561
-0.000231875
0.000388792
-0.000313987
0.000475456
-0.000409467
0.00057565
-0.000519252
0.000690309
-0.000644113
0.000820107
-0.000784561
0.000965355
-0.000940751
0.00112589
-0.00111238
0.00130101
-0.00129862
0.00148937
-0.00149804
0.00168909
-0.00170863
0.00189764
-0.00192767
0.00211347
-0.00215243
0.00233093
-0.00238239
-0.00258861
0.00257423
7.47334e-08
1.04424e-05
6.45283e-07
2.78153e-05
2.08692e-06
4.21009e-05
4.80522e-06
5.28639e-05
9.24307e-06
5.96507e-05
1.58875e-05
6.1985e-05
2.52775e-05
5.93559e-05
3.80136e-05
5.12047e-05
5.47659e-05
3.69137e-05
7.62836e-05
1.57961e-05
0.000103401
-1.29119e-05
0.000137041
-5.00552e-05
0.000178216
-9.65583e-05
0.000228013
-0.000153416
0.000287583
-0.000221674
0.000358104
-0.000302396
0.000440735
-0.000396619
0.000536555
-0.000505287
0.000646476
-0.000629173
0.000771151
-0.000768788
0.000910864
-0.000924274
0.00106543
-0.00109531
0.00123409
-0.00128104
0.00141547
-0.00148
0.00160758
-0.00169015
0.00180791
-0.00190895
0.00201355
-0.00213332
0.00222205
-0.00236092
0.00242868
-0.00258902
-0.00280452
0.00264459
1.24492e-07
1.03179e-05
8.79633e-07
2.70602e-05
2.68177e-06
4.02988e-05
5.98065e-06
4.95651e-05
1.12675e-05
5.43639e-05
1.90825e-05
5.417e-05
3.00237e-05
4.84148e-05
4.47556e-05
3.64728e-05
6.40183e-05
1.7651e-05
8.86341e-05
-8.81966e-06
0.000119512
-4.37895e-05
0.000157645
-8.81889e-05
0.000204107
-0.00014302
0.000260028
-0.000209337
0.000326568
-0.000288214
0.000404871
-0.000380699
0.000496
-0.000487747
0.000600855
-0.000610142
0.000720077
-0.000748396
0.000853941
-0.000902652
0.00100225
-0.00107258
0.00116423
-0.0012573
0.0013385
-0.00145531
0.00152302
-0.00166453
0.00171522
-0.00188235
0.00191209
-0.00210582
0.00211046
-0.00233169
0.00230725
-0.00255772
0.00249883
-0.00278059
-0.00299449
0.00268879
1.8545e-07
1.01324e-05
1.15879e-06
2.60869e-05
3.37893e-06
3.80786e-05
7.34182e-06
4.56022e-05
1.35894e-05
4.81163e-05
2.27178e-05
4.50416e-05
3.5386e-05
3.57465e-05
5.23251e-05
1.95337e-05
7.43449e-05
-4.36878e-06
0.000102339
-3.68138e-05
0.000137285
-7.8735e-05
0.000180235
-0.00013114
0.000232304
-0.000195089
0.000294636
-0.000271668
0.00036836
-0.000361938
0.000454528
-0.000466868
0.000554038
-0.000587257
0.000667531
-0.000723635
0.000795288
-0.000876153
0.00093712
-0.00104448
0.00109227
-0.00122773
0.00125937
-0.00142439
0.00143638
-0.00163233
0.00162074
-0.00184888
0.00180939
-0.002071
0.00199909
-0.00229552
0.00218663
-0.00251923
0.002369
-0.00274009
0.00254329
-0.00295488
-0.00316247
0.00271127
2.58737e-07
9.87368e-06
1.48695e-06
2.48586e-05
4.18744e-06
3.53781e-05
8.90403e-06
4.08856e-05
1.62314e-05
4.0789e-05
2.68234e-05
3.44496e-05
4.14019e-05
2.1168e-05
6.07641e-05
1.71437e-07
8.57883e-05
-2.93929e-05
0.000117434
-6.84593e-05
0.000156736
-0.000118037
0.00020479
-0.000179194
0.000262726
-0.000253024
0.00033166
-0.000340603
0.000412643
-0.00044292
0.000506573
-0.000560797
0.000614104
-0.000694788
0.000735538
-0.000845069
0.000870716
-0.00101133
0.00101892
-0.00119269
0.00117881
-0.00138762
0.00134841
-0.00159399
0.00152515
-0.00180907
0.00170604
-0.00202977
0.00188783
-0.00225279
0.00206727
-0.00247496
0.00224145
-0.0026934
0.00240782
-0.00290647
0.00256446
-0.00311152
-0.00331038
0.00271237
3.45289e-07
9.52839e-06
1.8676e-06
2.33363e-05
5.11461e-06
3.21311e-05
1.06794e-05
3.53208e-05
1.92108e-05
3.22576e-05
3.14215e-05
2.22389e-05
4.80962e-05
4.49328e-06
7.00971e-05
-2.18295e-05
9.83657e-05
-5.76615e-05
0.000133918
-0.000104012
0.000177833
-0.000161952
0.000231224
-0.000232585
0.000295202
-0.000317001
0.000370812
-0.000416214
0.000458966
-0.000531074
0.000560339
-0.00066217
0.000675269
-0.000809717
0.000803642
-0.000973442
0.000944799
-0.00115249
0.00109746
-0.00134535
0.00125972
-0.00154988
0.00142907
-0.00176334
0.00160256
-0.00198256
0.00177697
-0.00220419
0.0019491
-0.00242492
0.00211601
-0.00264187
0.00227531
-0.0028527
0.0024252
-0.00305637
0.00256476
-0.00325107
-0.00344054
0.00269493
4.45848e-07
9.08255e-06
2.30341e-06
2.14788e-05
6.16595e-06
2.82686e-05
1.26767e-05
2.88101e-05
2.25393e-05
2.2395e-05
3.65253e-05
8.25281e-06
5.54809e-05
-1.44623e-05
8.0329e-05
-4.66776e-05
0.000112067
-8.93994e-05
0.000151754
-0.0001437
0.000200492
-0.000210689
0.000259382
-0.000291475
0.000329474
-0.000387093
0.000411692
-0.000498433
0.000506745
-0.000626127
0.000615016
-0.000770441
0.000736455
-0.000931156
0.000870478
-0.00110747
0.00101589
-0.0012979
0.00117087
-0.00150033
0.001333
-0.00171201
0.00149938
-0.00192972
0.00166686
-0.00215004
0.00183225
-0.00236958
0.00199264
-0.0025853
0.0021456
-0.00279483
0.00228947
-0.00299657
0.00242329
-0.00319018
0.00254703
-0.00337482
-0.0035553
0.0026618
5.60961e-07
8.52159e-06
2.79628e-06
1.92434e-05
7.34511e-06
2.37198e-05
1.49011e-05
2.1254e-05
2.62225e-05
1.10736e-05
4.21386e-05
-7.6633e-06
6.35534e-05
-3.5877e-05
9.1444e-05
-7.45682e-05
0.000126852
-0.000124807
0.000170863
-0.000187711
0.000224573
-0.000264399
0.000289036
-0.000355938
0.000365195
-0.000463253
0.000453796
-0.000587033
0.000555278
-0.000727609
0.000669668
-0.000884831
0.000796476
-0.00105796
0.000934613
-0.0012456
0.00108236
-0.00144565
0.00123739
-0.00165537
0.00139692
-0.00187153
0.00155782
-0.00209062
0.00171694
-0.00230917
0.00187137
-0.00252401
0.00201868
-0.00273261
0.00215714
-0.00293329
0.00228584
-0.00312528
0.00240463
-0.00330897
0.00251424
-0.00348442
-0.00365699
0.00261592
6.91003e-07
7.83058e-06
3.34734e-06
1.65871e-05
8.6539e-06
1.84132e-05
1.73543e-05
1.25536e-05
3.02602e-05
-1.8323e-06
4.82556e-05
-2.56586e-05
7.22966e-05
-5.99181e-05
0.000103405
-0.000105677
0.000142652
-0.000164054
0.000191124
-0.000236183
0.000249883
-0.000323157
0.000319892
-0.000425947
0.000401937
-0.000545298
0.000496524
-0.00068162
0.000603765
-0.00083485
0.000723278
-0.00100434
0.000854096
-0.00118878
0.000994624
-0.00138613
0.00114266
-0.00159369
0.00129551
-0.00180821
0.00145011
-0.00202614
0.00160336
-0.00224387
0.00175233
-0.00245813
0.00189453
-0.00266621
0.00202819
-0.00286626
0.00215231
-0.00305741
0.00226672
-0.00323969
0.00237194
-0.0034142
0.00246924
-0.00358172
-0.00374774
0.00255999
8.36184e-07
6.9944e-06
3.95702e-06
1.34663e-05
1.00923e-05
1.22779e-05
2.00345e-05
2.61148e-06
3.46459e-05
-1.64437e-05
5.48604e-05
-4.58732e-05
8.16786e-05
-8.67363e-05
0.000116154
-0.000140152
0.000159366
-0.000207266
0.000212378
-0.000289195
0.000276177
-0.000386956
0.000351592
-0.000501362
0.000439197
-0.000632903
0.000539201
-0.000781624
0.000651341
-0.00094699
0.000774785
-0.00112779
0.000908085
-0.00132208
0.00104918
-0.00152722
0.00119547
-0.00173998
0.001344
-0.00195674