/*--------------------------------*- C++ -*----------------------------------*\
  =========                 |
  \\      /  F ield         | OpenFOAM: The Open Source CFD Toolbox
   \\    /   O peration     | Website:  https://openfoam.org
    \\  /    A nd           | Version:  7
     \\/     M anipulation  |
\*---------------------------------------------------------------------------*/
FoamFile
{
    version     2.0;
    format      ascii;
    class       volVectorField;
    location    "95";
    object      U;
}
// * * * * * * * * * * * * * * * * * * * * * * * * * * * * * * * * * * * * * //

dimensions      [0 1 -1 0 0 0 0];

internalField   nonuniform List<vector> 
40000
(
(-0.000197992 -0.00475624 -2.82192e-21)
(-0.00140803 -0.015713 8.75177e-21)
(-0.00411847 -0.0279607 -5.57657e-21)
(-0.00797213 -0.0410897 -4.91564e-24)
(-0.0127856 -0.0546991 -1.40944e-23)
(-0.0184491 -0.0684269 3.22532e-24)
(-0.0248532 -0.0819647 -9.26738e-21)
(-0.0318929 -0.0950721 2.20012e-21)
(-0.0394688 -0.107588 -6.30233e-21)
(-0.0474838 -0.119436 -1.98602e-21)
(-0.0558404 -0.130622 0)
(-0.06444 -0.141227 -7.17419e-21)
(-0.0731824 -0.151389 0)
(-0.0819673 -0.161286 0)
(-0.0906961 -0.171109 -6.08895e-21)
(-0.0992731 -0.181044 5.75744e-21)
(-0.107608 -0.191252 -2.71243e-21)
(-0.115618 -0.201854 -5.36641e-24)
(-0.123225 -0.212922 2.41295e-21)
(-0.130364 -0.224477 0)
(-0.136973 -0.236491 -2.15272e-21)
(-0.143003 -0.248888 -6.11211e-21)
(-0.148409 -0.26155 7.66687e-21)
(-0.153158 -0.274326 -3.60912e-21)
(-0.157221 -0.287033 1.01919e-20)
(-0.160577 -0.299462 6.41139e-21)
(-0.163207 -0.311381 -1.20837e-20)
(-0.165086 -0.322528 1.1392e-20)
(-0.166175 -0.332605 -2.70363e-21)
(-0.166489 -0.341289 -5.06617e-21)
(-0.000137286 -0.00385439 0)
(-0.0012642 -0.0133053 5.89415e-21)
(-0.0040052 -0.0242882 1.12222e-20)
(-0.00797122 -0.0363536 -1.07099e-20)
(-0.0129647 -0.049072 -5.14248e-21)
(-0.0188687 -0.0620593 1.95599e-20)
(-0.025566 -0.0749893 -4.67323e-21)
(-0.0329438 -0.0876081 -8.89806e-21)
(-0.0408956 -0.0997448 -8.74095e-23)
(-0.0493179 -0.111316 -2.40585e-20)
(-0.0581074 -0.122323 7.58681e-21)
(-0.0671606 -0.132842 2.88291e-20)
(-0.0763746 -0.143009 -1.3643e-20)
(-0.0856473 -0.152994 -1.05141e-23)
(-0.0948803 -0.162986 -6.19408e-21)
(-0.10398 -0.173164 1.66625e-23)
(-0.11286 -0.18368 0)
(-0.12144 -0.19465 0)
(-0.129652 -0.206139 1.95581e-20)
(-0.137432 -0.218161 0)
(-0.144728 -0.23068 8.67408e-21)
(-0.151498 -0.243612 -8.19399e-21)
(-0.157708 -0.256833 1.40354e-23)
(-0.163337 -0.270184 0)
(-0.168374 -0.283478 1.37069e-20)
(-0.172817 -0.296502 -1.28215e-20)
(-0.176676 -0.309023 1.2084e-20)
(-0.179952 -0.320785 -1.13924e-20)
(-0.182633 -0.331496 1.0771e-20)
(-0.184767 -0.340811 -3.03291e-20)
(-0.000126064 -0.00286633 -1.1423e-20)
(-0.00124139 -0.0106712 -1.17307e-20)
(-0.00405268 -0.0202779 0)
(-0.00814605 -0.0311933 0)
(-0.0133138 -0.0429563 0)
(-0.0194344 -0.0551578 9.92156e-21)
(-0.0263851 -0.067451 0)
(-0.0340473 -0.0795656 8.8869e-21)
(-0.0423089 -0.0913176 1.69e-20)
(-0.051061 -0.102613 1.60542e-20)
(-0.0601958 -0.113447 0)
(-0.0696062 -0.123886 1.09202e-22)
(-0.0791865 -0.134061 -2.76022e-20)
(-0.0888339 -0.144136 2.61445e-20)
(-0.0984505 -0.154291 1.22726e-20)
(-0.107945 -0.164701 1.1665e-20)
(-0.117232 -0.17551 -1.10025e-20)
(-0.126239 -0.186827 2.08978e-20)
(-0.134897 -0.198711 -3.92841e-20)
(-0.143151 -0.211169 -6.05603e-23)
(-0.150951 -0.22416 -3.49828e-20)
(-0.158262 -0.237591 3.30401e-20)
(-0.165055 -0.251332 0)
(-0.171318 -0.265215 0)
(-0.177054 -0.279042 1.38244e-20)
(-0.182281 -0.292594 0)
(-0.187032 -0.305636 0)
(-0.191337 -0.31792 0)
(-0.1952 -0.32916 -2.13782e-20)
(-0.198719 -0.339002 2.02165e-20)
(-0.000169215 -0.00180641 1.1423e-20)
(-0.00135045 -0.00784721 -3.76028e-23)
(-0.00427302 -0.0159829 6.66213e-23)
(-0.00850667 -0.0256739 -2.17173e-20)
(-0.0138385 -0.0364256 -2.07081e-20)
(-0.0201456 -0.047802 8.14722e-23)
(-0.0273027 -0.0594332 -3.77643e-20)
(-0.0351874 -0.0710296 1.80197e-20)
(-0.0436841 -0.0823916 -3.42821e-20)
(-0.05268 -0.0934125 3.25806e-20)
(-0.0620641 -0.104075 -1.54206e-20)
(-0.0717264 -0.114438 2.93965e-20)
(-0.0815595 -0.124621 2.76025e-20)
(-0.0914601 -0.134782 2.21078e-22)
(-0.101331 -0.145093 -2.49608e-20)
(-0.111082 -0.15572 0)
(-0.120631 -0.166802 7.85599e-23)
(-0.129908 -0.178442 2.10798e-20)
(-0.138847 -0.190692 -6.44347e-23)
(-0.147395 -0.203557 -9.8718e-23)
(-0.155506 -0.216988 3.51332e-20)
(-0.163143 -0.230888 -3.30406e-20)
(-0.170284 -0.245115 0)
(-0.176921 -0.259491 2.94597e-20)
(-0.183064 -0.273806 9.05378e-23)
(-0.188747 -0.287831 -7.77398e-20)
(-0.194027 -0.301324 2.42842e-20)
(-0.19896 -0.314039 4.55743e-20)
(-0.203557 -0.325701 2.13786e-20)
(-0.207983 -0.335957 2.00561e-20)
(-0.000270116 -0.000691154 4.62346e-20)
(-0.0015987 -0.004875 -2.38676e-20)
(-0.00467374 -0.0114629 2.27852e-20)
(-0.0090582 -0.0198683 2.177e-20)
(-0.0145396 -0.0295618 0)
(-0.0209976 -0.0400794 -3.99942e-20)
(-0.0283073 -0.0510264 -1.92048e-20)
(-0.0363455 -0.0620918 -3.62305e-20)
(-0.0449951 -0.0730577 1.7093e-20)
(-0.0541412 -0.0838021 2.60646e-22)
(-0.0636706 -0.0942936 3.1192e-20)
(-0.0734718 -0.10458 2.9753e-20)
(-0.0834361 -0.114769 -5.58945e-20)
(-0.0934599 -0.125008 2.66851e-20)
(-0.103447 -0.135461 -2.2785e-22)
(-0.113308 -0.146287 0)
(-0.122964 -0.157619 -2.23233e-20)
(-0.132344 -0.169554 -4.25783e-20)
(-0.141387 -0.182142 6.02082e-20)
(-0.150039 -0.195382 1.90638e-20)
(-0.158253 -0.209223 0)
(-0.165993 -0.22356 -3.36152e-20)
(-0.173235 -0.238245 0)
(-0.179971 -0.253086 -8.87106e-20)
(-0.186214 -0.267857 5.54901e-20)
(-0.192009 -0.282312 -6.57907e-23)
(-0.197435 -0.296196 4.88098e-20)
(-0.202571 -0.309261 -6.83433e-20)
(-0.207424 -0.321238 4.26061e-20)
(-0.212245 -0.331785 1.99495e-20)
(-0.000430437 0.000461144 -2.31854e-20)
(-0.00198946 -0.00180038 2.39169e-20)
(-0.00525722 -0.00678365 -5.64095e-23)
(-0.00980032 -0.0138558 -6.61389e-20)
(-0.0154129 -0.0224535 0)
(-0.0219811 -0.032084 3.99942e-20)
(-0.0293839 -0.042327 -3.86133e-20)
(-0.0375005 -0.0528488 7.27289e-20)
(-0.0462141 -0.0634116 0)
(-0.05541 -0.0738755 -3.28416e-20)
(-0.064974 -0.0841932 -3.11922e-20)
(-0.0747937 -0.094398 -2.96022e-20)
(-0.08476 -0.104585 -8.48868e-20)
(-0.0947692 -0.114891 8.77066e-23)
(-0.104725 -0.125471 -1.48512e-22)
(-0.11454 -0.136473 -5.99853e-23)
(-0.124136 -0.148027 6.81324e-20)
(-0.133444 -0.160226 -4.28143e-22)
(-0.142402 -0.173118 4.05806e-22)
(-0.150954 -0.186701 -3.77379e-20)
(-0.159053 -0.20092 -2.10876e-22)
(-0.166659 -0.215668 6.73939e-20)
(-0.173742 -0.230787 -9.55127e-20)
(-0.180291 -0.246071 2.96826e-20)
(-0.186317 -0.261276 0)
(-0.191868 -0.276132 0)
(-0.197041 -0.290361 -4.88102e-20)
(-0.201938 -0.303706 4.56709e-20)
(-0.20655 -0.315896 -4.25567e-20)
(-0.21123 -0.326606 0)
(-0.000650003 0.00163093 -2.34816e-20)
(-0.0025218 0.00132774 0)
(-0.0060205 -0.00201493 2.30756e-20)
(-0.0107271 -0.00772078 1.33092e-19)
(-0.0164487 -0.0151941 -4.23265e-20)
(-0.0230821 -0.0239145 0)
(-0.030514 -0.0334361 -3.19431e-22)
(-0.0386286 -0.0434018 3.67959e-20)
(-0.0473123 -0.0535526 -3.49401e-20)
(-0.0564518 -0.0637293 0)
(-0.0659335 -0.0738668 0)
(-0.0756449 -0.0839822 -6.02868e-20)
(-0.0854769 -0.0941566 8.5154e-20)
(-0.0953258 -0.104514 -2.69414e-20)
(-0.105096 -0.115198 0)
(-0.114699 -0.126351 4.84367e-20)
(-0.124059 -0.138097 -4.53995e-20)
(-0.133104 -0.150526 4.31101e-20)
(-0.141774 -0.163685 -8.13567e-20)
(-0.150011 -0.177574 -1.15664e-19)
(-0.157762 -0.192137 3.60661e-20)
(-0.164983 -0.207266 3.41008e-20)
(-0.171636 -0.222796 3.17424e-20)
(-0.177701 -0.238508 0)
(-0.183181 -0.254136 -5.65091e-20)
(-0.188122 -0.269377 0)
(-0.192635 -0.283924 0)
(-0.196839 -0.297494 -9.14332e-20)
(-0.2007 -0.309801 -1.78749e-22)
(-0.204678 -0.320539 -1.18353e-19)
(-0.000926727 0.00279792 2.34816e-20)
(-0.00319039 0.00445862 4.8928e-20)
(-0.0069551 0.00277088 4.69118e-20)
(-0.011827 -0.00155034 -4.45238e-20)
(-0.0176323 -0.00788024 0)
(-0.0242826 -0.0156729 0)
(-0.0316758 -0.0244578 3.8749e-20)
(-0.0397042 -0.0338547 -3.71184e-20)
(-0.0482596 -0.043583 -2.06231e-22)
(-0.0572319 -0.0534629 6.74409e-20)
(-0.0665093 -0.0634104 0)
(-0.07598 -0.0734248 6.02868e-20)
(-0.085535 -0.0835716 0)
(-0.0950703 -0.0939608 0)
(-0.10449 -0.104725 1.97872e-22)
(-0.113706 -0.116 4.88042e-20)
(-0.122641 -0.127903 -4.62924e-20)
(-0.131223 -0.140523 8.7565e-20)
(-0.139389 -0.153909 -4.12852e-20)
(-0.147078 -0.168062 1.16237e-19)
(-0.154233 -0.182932 0)
(-0.160801 -0.198409 0)
(-0.166736 -0.214326 6.50385e-20)
(-0.172007 -0.230451 0)
(-0.176604 -0.246495 5.6133e-20)
(-0.180561 -0.262121 -5.30878e-20)
(-0.183997 -0.276977 4.91142e-20)
(-0.187049 -0.290735 -4.58219e-20)
(-0.189639 -0.303074 8.51157e-20)
(-0.192333 -0.3137 1.17808e-19)
(-0.00125662 0.00394165 0)
(-0.00398557 0.00754102 -4.8928e-20)
(-0.00804713 0.00750053 4.19777e-22)
(-0.0130828 0.00456708 0)
(-0.0189437 -0.000610166 -8.64708e-20)
(-0.0255601 -0.00746285 -1.04956e-22)
(-0.0328445 -0.0154981 3.92102e-20)
(-0.0406999 -0.0243136 0)
(-0.0490257 -0.0336071 3.54525e-20)
(-0.0577166 -0.0431782 -6.74408e-20)
(-0.0666637 -0.0529227 0)
(-0.0757564 -0.0628213 0)
(-0.0848858 -0.0729224 -5.81415e-20)
(-0.0939476 -0.0833215 5.49672e-20)
(-0.102845 -0.0941397 -5.19017e-20)
(-0.111488 -0.105503 0)
(-0.119798 -0.117526 -4.71982e-20)
(-0.127702 -0.130296 -1.32273e-19)
(-0.135132 -0.143864 -9.02666e-23)
(-0.142024 -0.158235 -6.04694e-23)
(-0.148315 -0.173365 3.70172e-20)
(-0.153946 -0.18915 6.96194e-20)
(-0.158859 -0.205422 -1.30443e-19)
(-0.163008 -0.221941 6.15415e-20)
(-0.166369 -0.238399 -7.27195e-23)
(-0.16896 -0.254417 3.85752e-22)
(-0.170897 -0.269589 4.75877e-22)
(-0.172332 -0.283521 4.62127e-20)
(-0.173129 -0.295823 0)
(-0.173927 -0.306194 0)
(-0.00163389 0.00504212 4.81311e-20)
(-0.00489349 0.0105246 3.572e-22)
(-0.00927761 0.0121017 4.436e-22)
(-0.0144722 0.0105438 -9.12934e-20)
(-0.0203586 0.00651846 8.67495e-20)
(-0.0268888 0.000612083 0)
(-0.0339928 -0.00666311 0)
(-0.041587 -0.0148848 7.56221e-20)
(-0.0495803 -0.0237303 -7.18081e-20)
(-0.0578735 -0.0329784 2.38632e-22)
(-0.0663614 -0.0425046 1.30305e-19)
(-0.074935 -0.05227 6.18836e-20)
(-0.0834856 -0.0623052 -1.17301e-19)
(-0.0919077 -0.07269 5.55406e-20)
(-0.100102 -0.0835331 5.28228e-20)
(-0.107978 -0.0949518 -4.98602e-20)
(-0.115452 -0.107055 9.39996e-20)
(-0.122448 -0.11993 1.34602e-19)
(-0.128895 -0.13363 8.49582e-20)
(-0.134723 -0.148167 3.98648e-20)
(-0.139865 -0.163505 -7.48821e-20)
(-0.14425 -0.179547 0)
(-0.147814 -0.196131 4.64237e-22)
(-0.150496 -0.213017 6.25797e-20)
(-0.152253 -0.229876 5.7533e-20)
(-0.153082 -0.246297 -1.0842e-19)
(-0.15309 -0.261807 -5.01407e-20)
(-0.152442 -0.27592 9.24461e-20)
(-0.15093 -0.288143 0)
(-0.14918 -0.298117 -7.79491e-20)
(-0.00205109 0.00608033 4.85006e-20)
(-0.00589659 0.0133611 -9.99973e-20)
(-0.0106229 0.0165046 1.46139e-22)
(-0.0159683 0.0162948 -4.40647e-22)
(-0.0218483 0.0134103 0)
(-0.0282394 0.00845025 0)
(-0.0350915 0.00194218 0)
(-0.0423364 -0.00567436 -7.63545e-20)
(-0.0498938 -0.014058 7.25035e-20)
(-0.0576721 -0.0229675 -6.87514e-20)
(-0.0655703 -0.0322582 -1.31167e-19)
(-0.0734812 -0.0418715 -2.13082e-22)
(-0.0812959 -0.051819 1.18742e-19)
(-0.0889071 -0.0621644 5.65358e-20)
(-0.096213 -0.073003 0)
(-0.103118 -0.0844424 -1.01572e-19)
(-0.109535 -0.0965863 1.44011e-19)
(-0.115382 -0.10952 -1.34987e-19)
(-0.120583 -0.1233 -8.52791e-20)
(-0.125063 -0.137946 -2.41918e-19)
(-0.128746 -0.153431 -3.27339e-23)
(-0.131557 -0.169669 6.79567e-23)
(-0.133421 -0.186508 4.25208e-22)
(-0.134265 -0.203713 -1.24483e-19)
(-0.13403 -0.220949 1.75626e-19)
(-0.132689 -0.237773 -9.04374e-22)
(-0.130329 -0.253646 0)
(-0.127136 -0.267973 -9.24437e-20)
(-0.122816 -0.280104 8.51109e-20)
(-0.117816 -0.289557 7.75085e-20)
(-0.00249939 0.00703889 0)
(-0.00697403 0.0160059 -5.06603e-20)
(-0.0120555 0.0206441 4.83995e-20)
(-0.0175402 0.0217397 9.26142e-20)
(-0.023381 0.0199742 4.45156e-20)
(-0.0295805 0.0159536 -8.45675e-20)
(-0.0361101 0.0102157 -2.87937e-22)
(-0.0429185 0.00321378 -7.68857e-20)
(-0.0499378 -0.00469441 0)
(-0.0570844 -0.0132494 7.01358e-20)
(-0.0642621 -0.0222867 0)
(-0.0713655 -0.0317279 0)
(-0.078285 -0.0415658 -1.19789e-19)
(-0.0849107 -0.0518468 -1.1348e-19)
(-0.0911364 -0.0626521 1.62178e-19)
(-0.0968613 -0.0740789 1.0157e-19)
(-0.101991 -0.0862241 6.99365e-22)
(-0.106438 -0.0991713 -9.12721e-20)
(-0.110117 -0.112979 1.72284e-19)
(-0.112948 -0.127674 4.46712e-23)
(-0.114847 -0.143237 1.53759e-19)
(-0.115733 -0.159598 0)
(-0.115521 -0.176619 0)
(-0.114133 -0.194075 1.26978e-19)
(-0.111495 -0.211637 -1.75723e-19)
(-0.107558 -0.228843 1.63782e-19)
(-0.102386 -0.245099 -1.01446e-19)
(-0.0961884 -0.259687 9.33082e-20)
(-0.0886092 -0.271761 -1.70401e-19)
(-0.0795959 -0.280611 7.73369e-20)
(-0.00296884 0.00790251 -4.97984e-20)
(-0.00810245 0.0184191 0)
(-0.0135446 0.0244608 0)
(-0.019154 0.0268041 -9.41794e-20)
(-0.0249222 0.026125 1.79683e-19)
(-0.0308785 0.0230294 -8.54024e-20)
(-0.0370172 0.0180599 -5.11215e-22)
(-0.0433045 0.0116791 7.76448e-20)
(-0.0496855 0.00425837 0)
(-0.0560854 -0.00392657 4.71623e-22)
(-0.0624129 -0.0126928 2.39422e-22)
(-0.0685642 -0.0219424 -1.27443e-19)
(-0.0744285 -0.0316492 -1.06579e-21)
(-0.0798921 -0.0418422 -5.75609e-20)
(-0.0848433 -0.0525875 -1.63567e-19)
(-0.0891739 -0.0639706 1.0346e-19)
(-0.0927813 -0.076081 -9.75835e-20)
(-0.0955682 -0.0889987 1.85582e-19)
(-0.0974413 -0.102783 -1.75048e-19)
(-0.09831 -0.117466 -1.64751e-19)
(-0.0980848 -0.133037 4.23404e-22)
(-0.0966763 -0.149441 -7.28912e-20)
(-0.093996 -0.166554 6.81386e-20)
(-0.0899588 -0.184171 9.3052e-22)
(-0.084486 -0.201977 -1.79098e-19)
(-0.0775141 -0.219511 -1.10714e-19)
(-0.0690761 -0.236139 2.03591e-19)
(-0.0594239 -0.251031 -1.87074e-19)
(-0.0482248 -0.263132 8.52897e-20)
(-0.0343681 -0.271377 1.74416e-22)
(-0.00344877 0.00865844 1.50018e-19)
(-0.00925668 0.0205665 -5.15567e-20)
(-0.0150575 0.0279028 -9.90594e-20)
(-0.0207736 0.031422 2.8385e-19)
(-0.0264356 0.0317855 9.00295e-22)
(-0.0320992 0.0295918 0)
(-0.0377813 0.0253829 0)
(-0.0434662 0.019626 7.86457e-20)
(-0.0491121 0.0127021 -7.44321e-20)
(-0.0546533 0.00490092 7.10733e-20)
(-0.0600031 -0.0035778 -6.7847e-20)
(-0.0650594 -0.0126176 -1.2965e-19)
(-0.0697092 -0.0221737 2.43986e-19)
(-0.0738344 -0.0322572 -5.7932e-20)
(-0.0773158 -0.0429186 1.09204e-19)
(-0.0800365 -0.0542311 -2.08763e-19)
(-0.0818834 -0.0662749 -3.69446e-22)
(-0.0827479 -0.079125 3.46352e-22)
(-0.0825253 -0.0928401 1.76244e-19)
(-0.0811146 -0.107454 -3.75232e-22)
(-0.0784171 -0.122964 0)
(-0.0743368 -0.139326 0)
(-0.0687815 -0.156432 -6.99133e-20)
(-0.0616652 -0.1741 -2.57154e-19)
(-0.0529118 -0.192036 1.79683e-19)
(-0.0424538 -0.209798 -9.14338e-22)
(-0.0302931 -0.22674 -2.04979e-19)
(-0.0167396 -0.241956 1.86511e-19)
(-0.00171606 -0.254193 -8.68577e-20)
(0.0178119 -0.261798 7.74105e-20)
(-0.00392819 0.00929688 0)
(-0.0104107 0.0224208 0)
(-0.01656 0.030927 1.00484e-19)
(-0.0223619 0.0355365 -1.90854e-19)
(-0.0278842 0.0368874 3.45995e-22)
(-0.0332078 0.0355639 -8.73299e-20)
(-0.0383713 0.0321008 2.49998e-19)
(-0.0433765 0.0269651 -2.38287e-19)
(-0.0481949 0.0205436 8.80423e-24)
(-0.0527692 0.013137 -7.17745e-20)
(-0.0570176 0.00495985 -2.05981e-19)
(-0.0608388 -0.00385432 1.9429e-19)
(-0.0641174 -0.0132425 0)
(-0.0667295 -0.0231982 0)
(-0.0685475 -0.0337561 1.10711e-19)
(-0.0694438 -0.0449755 2.11715e-19)
(-0.0692931 -0.0569267 -9.96926e-20)
(-0.0679736 -0.0696777 0)
(-0.0653673 -0.0832838 -8.9363e-20)
(-0.0613607 -0.0977785 -1.24508e-22)
(-0.0558449 -0.113164 -8.00925e-20)
(-0.0487166 -0.129403 0)
(-0.0398812 -0.146403 -7.09074e-20)
(-0.0292558 -0.163998 6.52926e-20)
(-0.0167745 -0.181926 -1.20301e-19)
(-0.00238053 -0.199773 3.35531e-19)
(0.0139508 -0.216913 -1.30239e-21)
(0.0318869 -0.232433 9.4605e-20)
(0.0508741 -0.244928 0)
(0.0764604 -0.25137 -7.68756e-20)
(-0.00439616 0.00981114 -1.02492e-19)
(-0.0115383 0.0239618 1.05365e-19)
(-0.0180183 0.0334999 6.14975e-22)
(-0.0238818 0.0391016 -9.6483e-20)
(-0.0292311 0.0413734 0)
(-0.0341698 0.0408784 -1.76683e-19)
(-0.0387565 0.0381383 2.9688e-22)
(-0.0430097 0.0336147 7.94248e-20)
(-0.0469129 0.0276961 -1.31428e-23)
(-0.050417 0.020691 -2.56089e-22)
(-0.0534447 0.012826 2.06381e-19)
(-0.0558949 0.00425028 6.57895e-20)
(-0.057649 -0.00495615 6.30986e-20)
(-0.0585768 -0.0147696 -1.18714e-19)
(-0.058541 -0.0252083 1.12141e-19)
(-0.0574021 -0.0363179 -1.06016e-19)
(-0.0550211 -0.0481567 1.01086e-19)
(-0.0512613 -0.0607844 -9.52753e-20)
(-0.0459899 -0.0742506 0)
(-0.0390796 -0.0885859 -8.58071e-20)
(-0.0304101 -0.103793 1.59308e-19)
(-0.019871 -0.119838 7.58013e-20)
(-0.00736644 -0.136635 -7.14365e-20)
(0.00718044 -0.154037 2.63155e-19)
(0.0238187 -0.171804 -6.13445e-20)
(0.0425765 -0.18956 1.13245e-19)
(0.0634694 -0.206718 -1.02493e-19)
(0.0862326 -0.222399 1.43108e-21)
(0.109824 -0.235401 0)
(0.141077 -0.240123 -1.53474e-19)
(-0.00484226 0.0101979 -4.60008e-22)
(-0.0126146 0.0251772 -1.06503e-19)
(-0.0193994 0.0355981 0)
(-0.0252971 0.0420826 -9.80259e-20)
(-0.0304403 0.0451978 9.3271e-20)
(-0.0349517 0.0454796 -3.27912e-22)
(-0.0389076 0.0434308 0)
(-0.0423409 0.0395027 -4.97482e-22)
(-0.0452464 0.0340813 -7.68639e-20)
(-0.0475824 0.0274792 7.31455e-20)
(-0.0492749 0.0199327 0)
(-0.0502228 0.0116043 -1.32808e-19)
(-0.0503039 0.00258973 1.26801e-19)
(-0.0493806 -0.0070707 0)
(-0.0473054 -0.0173793 0)
(-0.043926 -0.0283671 0)
(-0.0390884 -0.0400799 0)
(-0.0326405 -0.0525673 9.64904e-20)
(-0.0244335 -0.065871 -9.08797e-20)
(-0.0143261 -0.080016 2.56736e-19)
(-0.0021865 -0.0950023 -1.61488e-19)
(0.0121027 -0.110794 -1.50825e-19)
(0.0286357 -0.127307 2.12491e-19)
(0.0474802 -0.144403 9.71649e-22)
(0.0686645 -0.161859 -1.23332e-19)
(0.0921823 -0.179333 -1.13238e-19)
(0.11801 -0.196289 -1.04529e-19)
(0.145749 -0.212009 1.9059e-19)
(0.174566 -0.225312 -1.72443e-19)
(0.211848 -0.228723 3.06616e-19)
(-0.00525696 0.010457 2.09236e-19)
(-0.013616 0.0260624 -4.72177e-22)
(-0.0206721 0.0372093 -2.06556e-19)
(-0.0265736 0.0444571 1.97002e-19)
(-0.0314773 0.0483277 -9.45069e-20)
(-0.0355212 0.0493241 -8.98592e-20)
(-0.0387956 0.0479253 8.54916e-20)
(-0.0413461 0.0445676 8.16762e-20)
(-0.0431764 0.0396304 -1.55563e-19)
(-0.0442512 0.0334268 -2.22541e-19)
(-0.0444992 0.0261998 -7.07214e-20)
(-0.0438186 0.0181232 2.67424e-19)
(-0.0420828 0.00930676 -3.80559e-19)
(-0.0391466 -0.000193802 1.20355e-19)
(-0.0348516 -0.0103652 0)
(-0.0290322 -0.0212234 0)
(-0.0215198 -0.0328011 0)
(-0.0121456 -0.0451369 1.94859e-19)
(-0.000745599 -0.0582626 -9.16519e-20)
(0.0128346 -0.0721946 -8.71544e-20)
(0.0287371 -0.0869271 -1.62779e-19)
(0.0470843 -0.102417 1.52752e-19)
(0.0679658 -0.11858 -7.16504e-20)
(0.0914329 -0.135276 -1.33928e-19)
(0.117487 -0.152289 -1.08191e-21)
(0.146074 -0.169304 -2.27378e-19)
(0.177109 -0.185851 3.13755e-19)
(0.21013 -0.20135 -2.87383e-19)
(0.244063 -0.214563 8.84356e-20)
(0.288005 -0.217334 -7.44576e-20)
(-0.00563196 0.0105916 -1.05177e-19)
(-0.0145217 0.0266207 1.0827e-19)
(-0.0218087 0.0383316 1.0357e-19)
(-0.0276797 0.046215 -2.98403e-19)
(-0.0323101 0.0507431 9.43544e-20)
(-0.0358475 0.0523817 9.04985e-20)
(-0.0383928 0.0515816 0)
(-0.040001 0.0487599 0)
(-0.0406831 0.0442856 7.80066e-20)
(-0.0404082 0.0384692 1.48482e-19)
(-0.0391069 0.0315572 -2.84473e-19)
(-0.0366757 0.0237322 -7.82635e-22)
(-0.0329835 0.0151162 0)
(-0.0278768 0.00577914 0)
(-0.0211866 -0.00425069 -1.15595e-19)
(-0.0127334 -0.0149744 -4.43189e-22)
(-0.00233454 -0.0264111 1.03329e-19)
(0.0101941 -0.0385871 -9.75448e-20)
(0.0250315 -0.0515223 -1.85525e-19)
(0.042343 -0.0652241 1.73703e-19)
(0.0622767 -0.0796756 8.19069e-20)
(0.084955 -0.0948256 -2.31222e-19)
(0.110459 -0.110582 -1.43303e-19)
(0.138815 -0.126796 1.34961e-19)
(0.169986 -0.143252 1.25024e-19)
(0.203856 -0.15965 1.14386e-19)
(0.240256 -0.175567 0)
(0.278721 -0.19051 0)
(0.317554 -0.203569 1.72305e-19)
(0.368325 -0.205642 0)
(-0.00596046 0.0106078 1.07358e-19)
(-0.015314 0.0268625 -1.09936e-19)
(-0.0227845 0.0389732 2.10586e-19)
(-0.0285873 0.0473585 -9.10979e-22)
(-0.0329087 0.0524374 0)
(-0.0359011 0.0546358 0)
(-0.0376714 0.054373 0)
(-0.0382804 0.0520434 -8.30685e-20)
(-0.0377441 0.0480023 7.88776e-20)
(-0.0360343 0.0425542 0)
(-0.033082 0.0359466 1.42381e-19)
(-0.0287814 0.0283681 1.35556e-19)
(-0.0229962 0.0199515 -1.30006e-19)
(-0.0155645 0.010779 1.22242e-19)
(-0.00630644 0.000893544 -1.45524e-22)
(0.00497043 -0.00969153 -1.09889e-19)
(0.0184626 -0.0209818 -1.04555e-19)
(0.0343669 -0.0329895 2.96369e-19)
(0.0528745 -0.0457219 9.25758e-20)
(0.0741595 -0.059175 -1.75807e-19)
(0.0983707 -0.0733186 -8.23487e-20)
(0.125622 -0.0880905 7.6711e-20)
(0.155975 -0.103386 0)
(0.189423 -0.119045 -1.34689e-19)
(0.225874 -0.134845 -1.24739e-19)
(0.265132 -0.150486 0)
(0.306918 -0.165574 1.03559e-19)
(0.350818 -0.179648 -1.94086e-19)
(0.394194 -0.192441 -2.60095e-19)
(0.451601 -0.193562 0)
(-0.00623748 0.0105141 -2.15249e-19)
(-0.0159789 0.0268048 1.11456e-19)
(-0.0235792 0.0391521 -2.1207e-19)
(-0.0292718 0.0479012 -8.85259e-22)
(-0.0332462 0.0534171 0)
(-0.0356537 0.0560838 0)
(-0.0366028 0.056287 8.8146e-20)
(-0.0361566 0.054396 1.67867e-19)
(-0.0343329 0.0507496 0)
(-0.0311043 0.0456435 0)
(-0.0264007 0.0393236 -2.88677e-19)
(-0.0201126 0.0319825 1.37301e-19)
(-0.0120981 0.0237607 -1.96458e-22)
(-0.00218722 0.0147525 0)
(0.00981086 0.00501421 -5.90109e-22)
(0.0241001 -0.00542698 1.1058e-19)
(0.0408901 -0.0165625 -6.8139e-22)
(0.0603882 -0.0283891 -3.96126e-19)
(0.082793 -0.0409011 -9.34456e-20)
(0.108281 -0.0540798 1.75798e-19)
(0.136995 -0.0678814 1.6537e-19)
(0.169031 -0.0822295 -5.3926e-22)
(0.204416 -0.0970039 1.45088e-19)
(0.243094 -0.112031 2.69585e-19)
(0.284898 -0.127076 1.24731e-19)
(0.329533 -0.141835 1.14839e-19)
(0.376571 -0.155928 1.03433e-19)
(0.425695 -0.168845 1.87441e-19)
(0.473104 -0.181191 -4.30222e-21)
(0.536598 -0.181105 7.25262e-20)
(-0.0064599 0.0103212 2.18347e-19)
(-0.0165062 0.0264702 -3.3589e-19)
(-0.0241768 0.0388947 2.13955e-19)
(-0.0297121 0.0478677 2.04266e-19)
(-0.0332975 0.053701 9.74836e-20)
(-0.0350775 0.0567367 1.06233e-22)
(-0.035157 0.0573256 -8.77603e-20)
(-0.0335978 0.0558108 -1.67865e-19)
(-0.0304164 0.0525122 3.42601e-22)
(-0.0255837 0.0477147 3.04976e-19)
(-0.0190266 0.0416601 -1.45645e-19)
(-0.0106315 0.0345427 2.76008e-19)
(-0.000249161 0.0265096 4.60668e-22)
(0.0122985 0.0176655 -2.48055e-19)
(0.0272121 0.00807881 -4.98374e-22)
(0.0447062 -0.00220916 0)
(0.0650006 -0.0131747 5.26919e-19)
(0.0883103 -0.0247997 9.92423e-20)
(0.114836 -0.0370633 0)
(0.144747 -0.0499305 8.83736e-20)
(0.178172 -0.063342 -8.31231e-20)
(0.215173 -0.0772049 3.10766e-19)
(0.255726 -0.0913828 -4.35267e-19)
(0.299701 -0.105687 1.35688e-19)
(0.346834 -0.11987 0)
(0.396707 -0.13362 1.14409e-19)
(0.448696 -0.14658 -2.09269e-19)
(0.502608 -0.158092 1.89491e-19)
(0.553385 -0.16978 -1.70637e-19)
(0.622011 -0.168265 -1.50542e-19)
(-0.00662611 0.0100415 -2.19837e-19)
(-0.0168893 0.0258858 -9.73526e-22)
(-0.0245653 0.0382344 -1.07442e-19)
(-0.0298908 0.0472919 -1.02561e-19)
(-0.0330397 0.0533195 -1.9683e-19)
(-0.034144 0.0566184 9.35626e-20)
(-0.0333008 0.0575055 3.86044e-22)
(-0.0305663 0.0562963 -1.69689e-19)
(-0.0259523 0.0532911 -2.41814e-19)
(-0.0194255 0.0487623 -3.64166e-22)
(-0.0109079 0.0429457 1.44781e-19)
(-0.000280003 0.0360357 -2.76777e-19)
(0.0126148 0.0281846 1.31226e-19)
(0.0279634 0.0195059 1.24937e-19)
(0.0459755 0.0100797 -4.60552e-22)
(0.0668743 -3.88001e-05 1.11685e-19)
(0.0908863 -0.0108103 -2.11169e-19)
(0.118229 -0.022201 0)
(0.149097 -0.034173 -1.88621e-19)
(0.183645 -0.0466741 1.77433e-19)
(0.221969 -0.0596276 -1.66492e-19)
(0.264079 -0.0729228 -1.55668e-19)
(0.30988 -0.0864068 0)
(0.359137 -0.0998766 -4.0352e-19)
(0.411459 -0.113074 1.18462e-21)
(0.466277 -0.125681 -5.70647e-19)
(0.522739 -0.137382 3.15153e-19)
(0.58075 -0.1473 -3.77885e-19)
(0.634084 -0.158119 1.70624e-19)
(0.706456 -0.15501 -1.48522e-19)
(-0.00673653 0.00968814 1.1041e-19)
(-0.0171253 0.0250817 1.13435e-19)
(-0.0247364 0.03721 1.09209e-19)
(-0.0297928 0.0462156 -3.89878e-22)
(-0.0324502 0.0523129 -3.69861e-22)
(-0.0328234 0.0557654 0)
(-0.0309964 0.056857 0)
(-0.0270162 0.0558767 0)
(-0.0208866 0.0531045 0)
(-0.0125672 0.0487995 0)
(-0.00197287 0.0431904 1.46216e-19)
(0.0110234 0.0364703 -1.39379e-19)
(0.0265864 0.0287953 1.31874e-19)
(0.0449116 0.0202869 4.49587e-22)
(0.0662167 0.0110367 -1.18401e-19)
(0.090731 0.00111376 -3.0976e-22)
(0.118683 -0.00942687 -2.12478e-19)
(0.150285 -0.0205344 2.00521e-19)
(0.185716 -0.032153 1.88612e-19)
(0.2251 -0.0442117 -1.77153e-19)
(0.268482 -0.0566154 3.3326e-19)
(0.315799 -0.0692358 0)
(0.366849 -0.0819041 -2.89198e-19)
(0.421268 -0.0944059 2.26356e-21)
(0.478498 -0.106478 2.83754e-21)
(0.537792 -0.117803 3.93418e-21)
(0.598052 -0.128128 -1.01686e-19)
(0.659205 -0.136332 1.88395e-19)
(0.71416 -0.146091 1.68346e-19)
(0.788469 -0.141309 7.51406e-20)
(-0.00679295 0.00927489 0)
(-0.0172142 0.0240899 1.148e-19)
(-0.0246847 0.0358643 -1.08834e-19)
(-0.0294049 0.0446866 -3.80831e-22)
(-0.0315065 0.0507303 1.99367e-19)
(-0.0310822 0.054225 -9.49274e-20)
(-0.0281995 0.0554243 0)
(-0.0228914 0.0545919 0)
(-0.015151 0.0519885 -1.63466e-19)
(-0.00492751 0.0478594 1.55073e-19)
(0.00787341 0.0424258 1.47682e-19)
(0.0233881 0.0358786 0)
(0.0417903 0.0283772 1.32843e-19)
(0.0632834 0.0200505 0)
(0.0880911 0.0110011 -2.37925e-19)
(0.116445 0.00131228 3.37508e-19)
(0.148568 -0.00894459 3.19079e-19)
(0.184659 -0.0197009 -1.00174e-19)
(0.224866 -0.0308819 -7.31501e-23)
(0.269263 -0.0423977 -2.66449e-19)
(0.317819 -0.0541347 0)
(0.370366 -0.0659482 0)
(0.426568 -0.077657 1.44933e-19)
(0.485887 -0.0890406 2.67388e-19)
(0.547572 -0.0998384 -8.59432e-22)
(0.610665 -0.109747 2.27321e-19)
(0.673843 -0.118588 2.07073e-19)
(0.736916 -0.125045 0)
(0.792465 -0.133589 -1.68334e-19)
(0.866548 -0.127166 2.20689e-19)
(-0.0067983 0.00881511 1.13164e-19)
(-0.0171582 0.0229423 0)
(-0.0244066 0.0342418 3.75296e-22)
(-0.0287142 0.042757 -1.05383e-19)
(-0.030184 0.0486276 1.00708e-19)
(-0.0288827 0.0520542 9.55541e-20)
(-0.0248572 0.0532637 1.06729e-23)
(-0.0181239 0.052497 8.69167e-20)
(-0.00866071 0.0499968 0)
(0.00359566 0.0459954 -3.12375e-19)
(0.0187514 0.0407064 2.31747e-22)
(0.0369536 0.0343187 0)
(0.0583851 0.0269942 1.3365e-19)
(0.0832562 0.0188693 -3.78315e-19)
(0.111794 0.0100578 1.19183e-19)
(0.144224 0.000657306 -1.12858e-19)
(0.180758 -0.00924407 -2.1299e-19)
(0.221562 -0.0195595 -3.01265e-19)
(0.266737 -0.0301952 0)
(0.316282 -0.0410428 0)
(0.370059 -0.051972 1.66033e-19)
(0.427762 -0.0628256 1.54391e-19)
(0.488877 -0.0734157 -1.45038e-19)
(0.552663 -0.0835243 0)
(0.618147 -0.092905 0)
(0.684139 -0.101284 0)
(0.749143 -0.108549 2.03804e-19)
(0.812687 -0.113333 -9.05491e-20)
(0.867771 -0.120545 1.6957e-19)
(0.939213 -0.112657 1.47534e-19)
(-0.00675617 0.00832137 -2.26682e-19)
(-0.0169606 0.0216703 1.16699e-19)
(-0.0238989 0.0323871 -1.11668e-19)
(-0.0277067 0.040481 1.06448e-19)
(-0.0284544 0.0460654 -1.00708e-19)
(-0.0261803 0.0493175 9.61422e-20)
(-0.0209072 0.0504424 -9.14676e-20)
(-0.0126312 0.0496612 -1.73329e-19)
(-0.00131279 0.0472006 1.65464e-19)
(0.0131271 0.0432815 3.13326e-19)
(0.0308084 0.0381106 1.48703e-19)
(0.0518899 0.0318751 -1.40815e-19)
(0.0765632 0.0247399 3.8882e-22)
(0.105043 0.0168488 -2.46849e-22)
(0.137553 0.00832732 1.19454e-19)
(0.174308 -0.000712646 0)
(0.215488 -0.0101661 2.13097e-19)
(0.261215 -0.0199282 5.02039e-19)
(0.311511 -0.0298874 -9.45232e-20)
(0.366272 -0.0399192 0)
(0.425217 -0.049881 -3.31596e-19)
(0.487862 -0.0596088 -1.54312e-19)
(0.55348 -0.0689171 -1.42561e-19)
(0.621097 -0.0776022 1.33847e-19)
(0.689501 -0.0854444 -1.2063e-19)
(0.75727 -0.0922233 1.13134e-19)
(0.822816 -0.0978535 -1.97843e-21)
(0.885233 -0.101153 1.81845e-19)
(0.938808 -0.106919 -1.65168e-19)
(1.00504 -0.0979029 -2.88148e-19)
(-0.00667033 0.00780491 1.14876e-19)
(-0.0166247 0.0203027 1.17384e-19)
(-0.0231572 0.0303434 -4.76128e-22)
(-0.0263653 0.037913 7.20911e-22)
(-0.0262846 0.0431071 0)
(-0.0229224 0.0460858 -3.30314e-22)
(-0.0162752 0.0470371 -2.76467e-19)
(-0.00631618 0.0461665 0)
(0.00701462 0.0436876 -1.65844e-19)
(0.0238142 0.0398117 -6.29403e-19)
(0.0442176 0.0347401 1.49158e-19)
(0.0683955 0.0286592 -1.41569e-19)
(0.0965464 0.0217378 -2.67572e-19)
(0.128885 0.0141275 2.53349e-19)
(0.165623 0.00596538 0)
(0.20695 -0.00262205 1.13048e-19)
(0.252999 -0.0115137 -3.19836e-19)
(0.303818 -0.0205885 -1.00541e-19)
(0.359325 -0.0297198 -2.82923e-19)
(0.419271 -0.0387716 0)
(0.483196 -0.0475958 3.30548e-19)
(0.550396 -0.0560316 1.54303e-19)
(0.619905 -0.0639075 0)
(0.690495 -0.0710474 1.31411e-19)
(0.760725 -0.0772714 0)
(0.828969 -0.0824324 -1.08904e-19)
(0.893631 -0.0864213 -2.99357e-19)
(0.953294 -0.0885296 -3.61616e-19)
(1.00435 -0.0926186 -1.61095e-19)
(1.06263 -0.0830011 1.4254e-21)
(-0.00654416 0.0072752 -1.14876e-19)
(-0.0161525 0.0188649 5.1432e-22)
(-0.0221747 0.0281506 1.12939e-19)
(-0.0246687 0.0351061 -1.07168e-19)
(-0.0236344 0.039817 -1.0228e-19)
(-0.0190471 0.0424335 1.941e-19)
(-0.0108751 0.0431318 9.25139e-20)
(0.000933798 0.0421061 1.75713e-19)
(0.0164618 0.0395602 1.66243e-19)
(0.0358253 0.0356985 1.58002e-19)
(0.0591752 0.0307189 2.99703e-19)
(0.0866924 0.0248083 -4.16762e-22)
(0.118578 0.0181402 0)
(0.155039 0.0108748 -1.26757e-19)
(0.196265 0.0031607 -6.95104e-23)
(0.242399 -0.00486202 6.26665e-23)
(0.293504 -0.013058 3.19843e-19)
(0.349523 -0.0212929 0)
(0.410232 -0.0294304 1.88475e-19)
(0.4752 -0.0373307 0)
(0.543744 -0.04485 -6.86084e-22)
(0.614913 -0.0518431 -1.52176e-19)
(0.687481 -0.0581664 2.83676e-19)
(0.759975 -0.063686 -1.3316e-19)
(0.830756 -0.0682733 -2.3902e-19)
(0.898066 -0.0718632 1.10124e-19)
(0.960376 -0.0742886 3.97998e-19)
(1.01584 -0.0755364 8.855e-20)
(1.06339 -0.0774216 3.97468e-19)
(1.11075 -0.0682631 6.73526e-20)
(-0.00638005 0.00673962 1.16021e-19)
(-0.0155433 0.0173783 -2.38003e-19)
(-0.02094 0.0258445 0)
(-0.0225893 0.0321099 0)
(-0.0204558 0.0362586 1.02907e-19)
(-0.0144824 0.0384372 -3.79339e-22)
(-0.00460801 0.038816 -1.85477e-19)
(0.00924596 0.0375822 -1.76394e-19)
(0.0271854 0.0349338 1.91013e-22)
(0.0493464 0.0310711 3.98132e-22)
(0.0758945 0.0261911 -1.49971e-19)
(0.107017 0.0204828 2.84137e-19)