/*--------------------------------*- C++ -*----------------------------------*\
  =========                 |
  \\      /  F ield         | OpenFOAM: The Open Source CFD Toolbox
   \\    /   O peration     | Website:  https://openfoam.org
    \\  /    A nd           | Version:  7
     \\/     M anipulation  |
\*---------------------------------------------------------------------------*/
FoamFile
{
    version     2.0;
    format      ascii;
    class       volScalarField;
    location    "25";
    object      p;
}
// * * * * * * * * * * * * * * * * * * * * * * * * * * * * * * * * * * * * * //

dimensions      [0 2 -2 0 0 0 0];

internalField   nonuniform List<scalar> 
59400
(
-0.313734
-0.31546
-0.316933
-0.318136
-0.319197
-0.320125
-0.320908
-0.321545
-0.322034
-0.322376
-0.322571
-0.322619
-0.32252
-0.322275
-0.321885
-0.321352
-0.320676
-0.31986
-0.318906
-0.317816
-0.316594
-0.315242
-0.313764
-0.312165
-0.310447
-0.308617
-0.306678
-0.304633
-0.30248
-0.300256
-0.314083
-0.315794
-0.317254
-0.318444
-0.319493
-0.32041
-0.321181
-0.321806
-0.322284
-0.322615
-0.322799
-0.322836
-0.322727
-0.322472
-0.322072
-0.321528
-0.320843
-0.320017
-0.319053
-0.317954
-0.316722
-0.315361
-0.313875
-0.312267
-0.310541
-0.308703
-0.306759
-0.304708
-0.30254
-0.300314
-0.314779
-0.316461
-0.317894
-0.31906
-0.320085
-0.320978
-0.321727
-0.322329
-0.322784
-0.323093
-0.323255
-0.323271
-0.323141
-0.322864
-0.322444
-0.32188
-0.321175
-0.320329
-0.319346
-0.318228
-0.316977
-0.315598
-0.314094
-0.312469
-0.310728
-0.308875
-0.306918
-0.304854
-0.30266
-0.300427
-0.315819
-0.317458
-0.318851
-0.319981
-0.320971
-0.321828
-0.322542
-0.32311
-0.323532
-0.323808
-0.323938
-0.323921
-0.323759
-0.323452
-0.323
-0.322406
-0.321671
-0.320796
-0.319783
-0.318637
-0.317358
-0.315952
-0.314421
-0.312771
-0.311005
-0.309129
-0.307153
-0.305071
-0.302835
-0.300594
-0.317202
-0.318783
-0.320123
-0.321205
-0.322148
-0.322958
-0.323626
-0.324149
-0.324526
-0.324758
-0.324844
-0.324785
-0.32458
-0.324231
-0.323739
-0.323104
-0.322328
-0.321414
-0.320363
-0.319178
-0.317862
-0.316418
-0.314852
-0.313167
-0.311369
-0.309463
-0.307461
-0.305355
-0.303063
-0.300809
-0.318922
-0.320431
-0.321706
-0.322729
-0.323612
-0.324365
-0.324975
-0.325442
-0.325763
-0.32594
-0.325972
-0.325859
-0.325602
-0.325201
-0.324656
-0.323971
-0.323145
-0.322181
-0.321081
-0.319848
-0.318484
-0.316995
-0.315384
-0.313656
-0.311816
-0.309871
-0.307837
-0.305699
-0.303337
-0.301067
-0.320974
-0.322399
-0.323596
-0.324547
-0.325361
-0.326044
-0.326586
-0.326985
-0.327239
-0.327351
-0.327317
-0.32714
-0.32682
-0.326356
-0.32575
-0.325003
-0.324117
-0.323093
-0.321934
-0.320643
-0.319222
-0.317677
-0.316011
-0.314231
-0.31234
-0.310348
-0.308274
-0.306098
-0.303652
-0.301358
-0.323353
-0.32468
-0.325786
-0.326656
-0.327389
-0.327991
-0.328454
-0.328774
-0.328951
-0.328986
-0.328877
-0.328625
-0.32823
-0.327694
-0.327015
-0.326197
-0.32524
-0.324146
-0.322918
-0.321559
-0.320071
-0.31846
-0.31673
-0.314887
-0.312936
-0.310888
-0.308766
-0.306546
-0.304007
-0.301656
-0.326051
-0.327268
-0.328273
-0.32905
-0.329691
-0.330202
-0.330574
-0.330805
-0.330894
-0.330841
-0.330646
-0.330309
-0.32983
-0.32921
-0.328449
-0.327549
-0.326511
-0.325337
-0.324029
-0.322591
-0.321026
-0.319338
-0.317533
-0.315618
-0.313598
-0.311484
-0.309306
-0.30704
-0.30442
-0.301914
-0.329063
-0.330157
-0.331049
-0.331722
-0.332261
-0.33267
-0.332941
-0.333072
-0.333062
-0.332912
-0.33262
-0.332187
-0.331613
-0.330899
-0.330045
-0.329053
-0.327924
-0.326659
-0.325262
-0.323734
-0.322081
-0.320307
-0.318417
-0.316418
-0.314317
-0.312128
-0.309886
-0.307551
-0.304764
-0.302344
-0.332381
-0.333341
-0.334108
-0.334668
-0.335094
-0.335391
-0.33555
-0.335571
-0.335452
-0.335193
-0.334794
-0.334255
-0.333576
-0.332758
-0.331801
-0.330706
-0.329475
-0.328109
-0.326612
-0.324985
-0.323232
-0.32136
-0.319374
-0.317281
-0.315089
-0.312813
-0.310498
-0.308091
-0.305147
-0.302713
-0.335997
-0.336812
-0.337444
-0.33788
-0.338183
-0.338357
-0.338395
-0.338295
-0.338057
-0.33768
-0.337163
-0.336508
-0.335714
-0.334781
-0.333711
-0.332503
-0.33116
-0.329683
-0.328074
-0.326337
-0.324475
-0.322493
-0.320399
-0.318201
-0.315905
-0.313532
-0.311133
-0.308645
-0.305531
-0.303049
-0.339904
-0.340563
-0.34105
-0.341353
-0.341523
-0.341564
-0.34147
-0.34124
-0.340872
-0.340366
-0.339722
-0.338941
-0.338021
-0.336964
-0.33577
-0.33444
-0.332975
-0.331376
-0.329646
-0.327787
-0.325804
-0.323702
-0.321489
-0.319172
-0.316761
-0.314276
-0.311782
-0.309201
-0.305896
-0.303357
-0.344095
-0.344587
-0.344919
-0.345078
-0.345106
-0.345005
-0.344769
-0.344398
-0.343891
-0.343247
-0.342466
-0.341549
-0.340494
-0.339303
-0.337976
-0.336513
-0.334916
-0.333185
-0.331323
-0.329333
-0.327218
-0.324983
-0.322638
-0.32019
-0.317649
-0.31504
-0.312436
-0.309749
-0.306233
-0.303636
-0.348563
-0.348877
-0.349044
-0.34905
-0.348927
-0.348673
-0.348287
-0.347765
-0.347109
-0.346317
-0.34539
-0.344327
-0.343128
-0.341793
-0.340323
-0.338719
-0.33698
-0.335107
-0.333103
-0.330971
-0.328712
-0.326334
-0.323844
-0.321252
-0.318567
-0.315817
-0.313088
-0.31028
-0.306527
-0.303819
-0.353299
-0.353426
-0.353417
-0.353263
-0.352978
-0.352563
-0.352016
-0.351335
-0.350521
-0.349572
-0.348488
-0.34727
-0.345918
-0.344431
-0.342809
-0.341053
-0.339164
-0.33714
-0.334985
-0.332699
-0.330287
-0.327753
-0.325106
-0.322355
-0.319511
-0.316604
-0.313734
-0.310789
-0.306773
-0.303965
-0.358298
-0.358227
-0.358034
-0.357708
-0.357253
-0.356668
-0.355951
-0.355102
-0.35412
-0.353005
-0.351756
-0.350375
-0.34886
-0.347212
-0.345431
-0.343515
-0.341466
-0.339283
-0.336967
-0.33452
-0.331943
-0.329242
-0.326424
-0.3235
-0.32048
-0.317398
-0.314367
-0.311265
-0.306951
-0.304015
-0.363552
-0.363272
-0.362885
-0.36238
-0.361746
-0.360981
-0.360085
-0.359059
-0.357901
-0.356611
-0.35519
-0.353637
-0.351952
-0.350135
-0.348185
-0.346102
-0.343886
-0.341535
-0.339051
-0.336432
-0.333681
-0.330803
-0.327802
-0.32469
-0.321477
-0.318199
-0.314986
-0.311702
-0.307049
-0.303949
-0.369054
-0.368556
-0.367964
-0.367271
-0.366449
-0.365496
-0.364413
-0.363201
-0.361858
-0.360386
-0.358783
-0.357051
-0.355188
-0.353195
-0.351071
-0.348814
-0.346423
-0.343898
-0.341237
-0.33844
-0.335507
-0.33244
-0.329245
-0.325931
-0.322507
-0.319011
-0.315589
-0.312095
-0.307058
-0.303753
-0.374796
-0.374069
-0.373264
-0.372374
-0.371356
-0.370206
-0.368927
-0.367521
-0.365986
-0.364324
-0.362533
-0.360614
-0.358567
-0.356391
-0.354085
-0.351648
-0.349078
-0.346373
-0.34353
-0.340548
-0.337425
-0.334162
-0.330762
-0.327232
-0.323578
-0.319841
-0.316182
-0.312442
-0.306966
-0.303404
-0.38077
-0.379804
-0.378777
-0.377681
-0.376458
-0.375103
-0.373622
-0.372014
-0.37028
-0.36842
-0.366434
-0.364322
-0.362084
-0.35972
-0.357228
-0.354605
-0.351851
-0.348961
-0.345933
-0.342762
-0.339445
-0.335979
-0.332366
-0.328607
-0.324706
-0.320703
-0.316773
-0.312746
-0.306762
-0.302874
-0.386968
-0.385753
-0.384494
-0.383185
-0.381749
-0.380182
-0.378489
-0.376672
-0.374732
-0.372668
-0.370481
-0.36817
-0.365737
-0.36318
-0.360497
-0.357686
-0.354744
-0.351668
-0.348452
-0.34509
-0.341576
-0.337904
-0.334071
-0.330075
-0.325911
-0.321616
-0.317379
-0.313013
-0.306436
-0.302128
-0.393379
-0.391906
-0.390406
-0.388875
-0.387219
-0.385432
-0.383522
-0.38149
-0.379337
-0.377063
-0.374669
-0.372155
-0.369522
-0.366768
-0.363891
-0.36089
-0.357759
-0.354495
-0.351091
-0.347539
-0.343829
-0.339953
-0.335899
-0.33166
-0.327221
-0.32261
-0.318028
-0.313263
-0.305985
-0.301125
-0.399994
-0.398253
-0.396504
-0.394744
-0.392861
-0.390847
-0.388712
-0.386459
-0.384087
-0.381598
-0.378993
-0.376272
-0.373435
-0.370481
-0.367409
-0.364216
-0.360897
-0.357447
-0.353858
-0.35012
-0.346219
-0.342143
-0.337874
-0.333394
-0.328675
-0.32373
-0.318763
-0.313529
-0.305409
-0.299812
-0.406801
-0.404782
-0.402775
-0.40078
-0.398663
-0.396416
-0.394051
-0.391571
-0.388976
-0.386268
-0.383447
-0.380516
-0.377473
-0.374318
-0.371049
-0.367665
-0.364159
-0.360527
-0.356758
-0.35284
-0.34876
-0.344495
-0.340024
-0.335315
-0.330322
-0.325037
-0.319652
-0.31387
-0.304732
-0.298128
-0.413785
-0.411481
-0.40921
-0.406972
-0.404615
-0.40213
-0.39953
-0.396818
-0.393996
-0.391065
-0.388026
-0.384881
-0.38163
-0.378273
-0.374809
-0.371234
-0.367545
-0.363735
-0.359794
-0.35571
-0.351463
-0.34703
-0.34238
-0.337468
-0.332228
-0.326617
-0.320802
-0.314407
-0.304048
-0.29604
-0.420934
-0.418336
-0.415794
-0.413309
-0.410707
-0.407978
-0.405139
-0.402192
-0.399139
-0.395981
-0.392721
-0.389361
-0.385901
-0.382342
-0.378683
-0.374921
-0.371053
-0.367073
-0.36297
-0.358733
-0.35434
-0.349766
-0.344973
-0.339905
-0.334468
-0.328582
-0.322373
-0.315347
-0.303569
-0.293567
-0.42823
-0.425333
-0.422514
-0.419776
-0.416925
-0.413949
-0.410867
-0.407681
-0.404394
-0.401009
-0.397527
-0.39395
-0.390281
-0.38652
-0.382667
-0.378722
-0.37468
-0.370537
-0.366285
-0.361911
-0.357398
-0.352717
-0.34783
-0.342672
-0.337126
-0.331068
-0.324557
-0.316903
-0.303369
-0.290366
-0.435657
-0.432455
-0.429354
-0.42636
-0.423257
-0.420031
-0.416702
-0.413276
-0.409754
-0.406138
-0.402433
-0.39864
-0.394761
-0.3908
-0.386756
-0.382629
-0.378419
-0.374121
-0.369731
-0.36524
-0.360632
-0.355887
-0.350968
-0.345814
-0.340301
-0.334273
-0.327681
-0.319446
-0.30366
-0.285985
-0.443196
-0.439685
-0.436299
-0.433046
-0.429687
-0.426209
-0.422633
-0.418965
-0.415206
-0.41136
-0.407431
-0.403421
-0.399334
-0.395173
-0.390939
-0.386635
-0.382261
-0.377816
-0.373298
-0.368705
-0.364029
-0.35926
-0.35438
-0.34935
-0.344092
-0.338505
-0.332495
-0.324806
-0.309741
-0.29056
-0.450828
-0.447004
-0.443332
-0.439817
-0.436203
-0.432471
-0.428647
-0.424736
-0.42074
-0.416664
-0.41251
-0.408285
-0.40399
-0.39963
-0.395209
-0.390729
-0.386194
-0.381606
-0.376968
-0.372282
-0.367554
-0.362789
-0.357994
-0.353181
-0.348376
-0.343662
-0.33917
-0.334822
-0.332137
-0.342093
-0.458532
-0.454394
-0.450433
-0.446657
-0.442786
-0.438801
-0.434728
-0.430575
-0.426343
-0.422037
-0.417661
-0.41322
-0.408719
-0.404162
-0.399554
-0.3949
-0.390204
-0.385474
-0.380716
-0.375939
-0.371158
-0.366392
-0.361674
-0.357052
-0.352623
-0.348567
-0.34507
-0.342435
-0.344086
-0.356531
-0.466287
-0.461835
-0.457585
-0.453548
-0.449421
-0.445183
-0.440863
-0.436469
-0.432002
-0.427467
-0.42287
-0.418216
-0.413509
-0.408756
-0.403961
-0.399133
-0.394277
-0.389402
-0.384519
-0.379643
-0.374794
-0.370004
-0.365316
-0.3608
-0.356577
-0.352841
-0.349725
-0.347513
-0.349603
-0.359192
-0.47407
-0.469305
-0.464768
-0.460471
-0.456089
-0.4516
-0.447035
-0.442402
-0.437702
-0.432942
-0.428125
-0.423259
-0.418348
-0.413399
-0.408419
-0.403414
-0.398395
-0.39337
-0.388354
-0.383365
-0.378427
-0.373576
-0.368863
-0.364361
-0.360192
-0.356527
-0.353441
-0.35114
-0.3527
-0.359691
-0.48186
-0.476783
-0.47196
-0.467405
-0.462771
-0.458035
-0.453227
-0.448358
-0.443429
-0.438445
-0.433411
-0.428335
-0.423222
-0.418078
-0.412912
-0.40773
-0.402543
-0.397361
-0.392201
-0.387081
-0.382028
-0.377079
-0.372282
-0.367708
-0.363464
-0.35969
-0.356399
-0.353722
-0.354406
-0.359038
-0.489632
-0.484245
-0.47914
-0.474331
-0.469448
-0.464467
-0.459421
-0.454319
-0.449164
-0.44396
-0.438713
-0.43343
-0.428116
-0.422778
-0.417425
-0.412063
-0.406703
-0.401357
-0.396039
-0.39077
-0.385575
-0.380488
-0.375553
-0.370831
-0.36641
-0.362392
-0.358739
-0.35552
-0.355218
-0.357793
-0.497362
-0.49167
-0.486285
-0.481225
-0.476097
-0.470876
-0.465597
-0.460267
-0.45489
-0.44947
-0.444014
-0.438526
-0.433013
-0.427483
-0.421941
-0.416396
-0.410858
-0.405338
-0.39985
-0.394412
-0.389047
-0.383786
-0.378664
-0.37373
-0.369052
-0.364697
-0.360589
-0.356753
-0.355468
-0.356285
-0.505024
-0.49903
-0.493371
-0.488064
-0.482697
-0.477241
-0.471732
-0.46618
-0.460587
-0.454956
-0.449294
-0.443605
-0.437896
-0.432173
-0.426442
-0.420711
-0.414989
-0.409285
-0.403613
-0.397987
-0.392427
-0.386957
-0.381606
-0.376408
-0.371412
-0.366658
-0.362041
-0.357563
-0.355333
-0.35461
-0.512591
-0.506299
-0.50037
-0.494823
-0.489222
-0.483537
-0.477806
-0.472037
-0.466233
-0.460396
-0.454532
-0.448646
-0.442743
-0.436828
-0.430907
-0.424986
-0.419073
-0.413177
-0.407306
-0.401474
-0.395695
-0.389986
-0.384369
-0.378866
-0.373507
-0.368311
-0.363156
-0.358032
-0.354901
-0.352796
-0.520034
-0.51345
-0.507257
-0.501475
-0.495646
-0.489738
-0.483791
-0.477813
-0.471803
-0.465766
-0.459706
-0.453626
-0.447531
-0.441425
-0.435313
-0.429199
-0.423089
-0.41699
-0.410907
-0.404851
-0.39883
-0.392857
-0.386943
-0.3811
-0.375345
-0.36968
-0.363971
-0.35821
-0.354218
-0.350854
-0.527322
-0.520452
-0.514001
-0.50799
-0.50194
-0.495818
-0.489662
-0.483481
-0.477273
-0.471042
-0.46479
-0.45852
-0.452236
-0.44594
-0.439635
-0.433324
-0.427011
-0.420699
-0.414392
-0.408095
-0.401812
-0.395551
-0.389313
-0.383104
-0.376928
-0.370774
-0.364507
-0.358121
-0.353305
-0.348782
-0.534422
-0.527272
-0.52057
-0.514338
-0.508075
-0.501745
-0.495389
-0.489012
-0.482614
-0.476195
-0.469757
-0.463302
-0.456831
-0.450345
-0.443846
-0.437334
-0.430811
-0.424277
-0.417732
-0.411179
-0.404617
-0.398045
-0.391463
-0.384866
-0.37825
-0.371596
-0.364771
-0.357774
-0.352168
-0.346573
-0.541299
-0.533875
-0.52693
-0.520485
-0.514018
-0.507489
-0.500941
-0.494377
-0.487796
-0.481196
-0.474577
-0.467941
-0.461285
-0.454611
-0.447916
-0.441199
-0.434459
-0.427694
-0.4209
-0.414076
-0.407217
-0.400318
-0.393373
-0.38637
-0.379301
-0.372141
-0.364761
-0.35717
-0.350804
-0.344217
-0.547913
-0.540225
-0.533045
-0.526395
-0.519733
-0.513016
-0.506284
-0.499542
-0.492786
-0.486011
-0.479218
-0.472405
-0.465568
-0.458705
-0.451812
-0.444887
-0.437924
-0.430918
-0.423864
-0.416756
-0.409585
-0.402343
-0.395019
-0.387597
-0.380066
-0.372396
-0.364468
-0.356299
-0.349205
-0.341698
-0.554226
-0.546282
-0.538876
-0.532032
-0.525184
-0.518288
-0.511383
-0.504472
-0.497548
-0.490608
-0.483646
-0.47666
-0.469643
-0.462593
-0.455501
-0.448363
-0.441171
-0.433916
-0.426591
-0.419186
-0.41169
-0.404092
-0.396375
-0.388525
-0.380525
-0.372347
-0.363879
-0.355148
-0.347354
-0.338996
-0.560192
-0.552003
-0.544383
-0.537354
-0.530332
-0.523267
-0.516199
-0.509129
-0.502047
-0.494947
-0.487823
-0.480669
-0.473476
-0.466238
-0.458946
-0.451591
-0.444163
-0.436652
-0.429046
-0.421333
-0.4135
-0.405533
-0.397415
-0.389128
-0.380656
-0.371971
-0.362973
-0.353698
-0.345236
-0.336092
-0.565767
-0.557345
-0.549522
-0.54232
-0.535134
-0.527912
-0.520693
-0.513474
-0.506243
-0.498992
-0.491712
-0.484393
-0.477026
-0.469601
-0.462107
-0.454531
-0.446862
-0.439087
-0.431191
-0.423161
-0.414981
-0.406635
-0.398107
-0.389378
-0.380433
-0.371247
-0.361731
-0.35193
-0.342827
-0.332961
-0.570903
-0.56226
-0.554247
-0.546884
-0.539548
-0.532181
-0.524821
-0.517464
-0.510094
-0.5027
-0.49527
-0.487792
-0.480254
-0.472643
-0.464944
-0.457145
-0.449229
-0.441182
-0.432988
-0.424631
-0.416095
-0.407363
-0.398419
-0.389245
-0.379829
-0.370148
-0.360128
-0.349819
-0.340106
-0.329577
-0.575549
-0.5667
-0.558511
-0.551001
-0.543528
-0.536029
-0.528541
-0.521057
-0.513557
-0.506028
-0.498455
-0.490823
-0.483116
-0.475319
-0.467415
-0.459388
-0.451221
-0.442896
-0.434397
-0.425705
-0.416806
-0.407682
-0.398318
-0.388699
-0.378815
-0.368648
-0.358137
-0.34734
-0.337048
-0.325914
-0.579654
-0.570614
-0.562264
-0.554622
-0.547026
-0.539409
-0.531806
-0.524206
-0.516588
-0.508933
-0.501223
-0.493441
-0.485568
-0.477587
-0.469476
-0.461219
-0.452795
-0.444187
-0.435376
-0.426344
-0.417076
-0.407555
-0.397769
-0.387707
-0.37736
-0.366719
-0.355733
-0.344468
-0.333626
-0.321942
-0.583162
-0.573951
-0.565457
-0.557698
-0.549994
-0.542274
-0.53457
-0.526866
-0.519139
-0.511367
-0.503528
-0.495601
-0.487566
-0.4794
-0.471082
-0.462592
-0.453908
-0.445011
-0.435883
-0.426506
-0.416864
-0.406946
-0.396738
-0.386235
-0.375434
-0.36433
-0.352887
-0.341176
-0.329815
-0.317634
-0.586021
-0.576656
-0.568037
-0.560177
-0.552382
-0.544574
-0.536782
-0.528988
-0.521164
-0.513283
-0.505322
-0.497256
-0.489061
-0.480712
-0.472186
-0.463461
-0.454514
-0.445325
-0.435876
-0.42615
-0.416133
-0.405816
-0.39519
-0.384252
-0.373006
-0.361454
-0.349573
-0.337437
-0.325589
-0.312963
-0.588173
-0.578676
-0.569951
-0.562009
-0.554139
-0.546259
-0.538395
-0.530524
-0.522613
-0.514634
-0.506558
-0.498358
-0.490006
-0.481476
-0.472742
-0.46378
-0.454568
-0.445084
-0.435312
-0.425235
-0.414843
-0.404128
-0.393088
-0.381724
-0.370046
-0.358062
-0.345763
-0.333227
-0.320923
-0.3079
-0.589563
-0.579956
-0.571147
-0.563141
-0.555214
-0.547279
-0.539358
-0.531423
-0.523438
-0.51537
-0.507186
-0.498858
-0.490353
-0.481644
-0.472702
-0.463504
-0.454025
-0.444245
-0.434148
-0.42372
-0.412955
-0.401847
-0.3904
-0.37862
-0.366523
-0.354126
-0.341431
-0.328519
-0.315792
-0.30242
-0.590134
-0.580442
-0.57157
-0.56352
-0.555555
-0.547583
-0.53962
-0.531635
-0.523588
-0.515441
-0.507159
-0.498707
-0.490054
-0.481168
-0.472021
-0.462585
-0.452839
-0.442763
-0.432342
-0.421566
-0.41043
-0.398936
-0.387091
-0.374908
-0.362409
-0.349619
-0.336552
-0.32329
-0.310174
-0.296498
-0.58983
-0.580079
-0.571168
-0.563095
-0.555111
-0.547119
-0.539131
-0.531111
-0.523014
-0.514799
-0.506426
-0.497858
-0.489061
-0.480002
-0.47065
-0.460979
-0.450967
-0.440596
-0.429854
-0.418733
-0.407233
-0.395361
-0.38313
-0.370559
-0.357677
-0.344517
-0.331103
-0.31752
-0.304046
-0.290112
-0.588597
-0.578814
-0.569887
-0.561813
-0.553831
-0.545838
-0.537842
-0.529802
-0.521667
-0.513394
-0.504939
-0.496262
-0.487326
-0.478097
-0.468544
-0.45864
-0.448365
-0.437703
-0.426643
-0.415184
-0.403329
-0.39109
-0.378487
-0.365546
-0.352302
-0.338795
-0.325062
-0.311186
-0.297391
-0.283241
-0.586382
-0.576594
-0.567678
-0.559624
-0.551665
-0.54369
-0.535703
-0.527657
-0.519499
-0.511178
-0.50265
-0.493871
-0.484803
-0.475409
-0.465658
-0.455526
-0.444992
-0.434042
-0.422672
-0.410883
-0.398683
-0.386092
-0.373133
-0.359842
-0.34626
-0.332433
-0.31841
-0.304272
-0.29019
-0.275868
-0.583131
-0.573368
-0.56449
-0.556479
-0.548563
-0.540627
-0.532666
-0.52463
-0.516461
-0.508105
-0.499514
-0.490641
-0.481446
-0.471893
-0.46195
-0.451594
-0.440807
-0.429578
-0.417906
-0.405797
-0.393266
-0.380338
-0.367044
-0.353425
-0.33953
-0.325412
-0.31113
-0.296762
-0.282428
-0.267976
-0.578797
-0.569089
-0.560275
-0.552331
-0.544481
-0.536602
-0.528685
-0.520675
-0.512509
-0.504129
-0.495484
-0.486526
-0.477212
-0.467507
-0.457379
-0.446806
-0.435773
-0.424273
-0.41231
-0.399895
-0.387049
-0.373803
-0.360195
-0.346274
-0.332094
-0.317716
-0.303207
-0.288642
-0.274093
-0.259552
-0.573331
-0.563711
-0.554989
-0.547135
-0.539372
-0.53157
-0.523716
-0.515748
-0.507599
-0.499207
-0.490519
-0.481485
-0.47206
-0.46221
-0.451905
-0.441123
-0.429854
-0.418096
-0.405855
-0.393149
-0.380007
-0.366464
-0.352568
-0.338372
-0.323937
-0.309331
-0.294629
-0.279903
-0.265176
-0.250585
-0.566691
-0.55719
-0.548588
-0.540849
-0.533195
-0.525491
-0.517717
-0.509807
-0.501689
-0.493298
-0.484578
-0.475477
-0.465952
-0.455966
-0.445493
-0.434513
-0.42302
-0.411015
-0.398512
-0.385535
-0.372116
-0.358302
-0.344143
-0.329702
-0.315045
-0.300245
-0.285386
-0.270534
-0.255667
-0.241067
-0.558838
-0.549487
-0.541033
-0.533434
-0.525911
-0.518326
-0.51065
-0.502814
-0.494741
-0.486365
-0.477624
-0.468468
-0.458852
-0.448741
-0.43811
-0.426945
-0.415241
-0.403006
-0.390259
-0.37703
-0.363359
-0.349299
-0.334908
-0.320254
-0.305409
-0.290451
-0.275472
-0.260532
-0.245562
-0.230993
-0.549734
-0.540567
-0.53229
-0.524854
-0.517484
-0.510038
-0.502479
-0.494734
-0.486721
-0.478371
-0.469623
-0.460423
-0.450727
-0.440503
-0.429728
-0.418391
-0.406492
-0.394044
-0.381074
-0.367616
-0.35372
-0.339443
-0.324851
-0.310018
-0.295021
-0.279943
-0.264882
-0.249891
-0.234859
-0.220358
-0.539349
-0.530398
-0.522328
-0.515078
-0.507884
-0.500596
-0.493172
-0.485534
-0.477597
-0.469287
-0.460544
-0.451312
-0.441551
-0.431227
-0.420321
-0.408828
-0.396752
-0.384112
-0.370941
-0.357281
-0.343187
-0.328725
-0.313966
-0.298989
-0.283877
-0.268718
-0.253614
-0.238613
-0.223556
-0.209161
-0.527657
-0.518954
-0.511118
-0.504079
-0.497082
-0.489973
-0.482703
-0.475188
-0.46734
-0.459086
-0.450361
-0.441112
-0.431297
-0.420888
-0.409869
-0.398236
-0.386003
-0.373194
-0.359847
-0.346012
-0.331752
-0.317137
-0.302246
-0.287164
-0.271976
-0.256775
-0.24167
-0.226697
-0.211656
-0.197404
-0.514636
-0.506215
-0.49864
-0.491835
-0.485057
-0.478145
-0.471046
-0.463671
-0.45593
-0.447745
-0.439053
-0.4298
-0.419948
-0.409469
-0.398353
-0.386603
-0.374234
-0.36128
-0.347784
-0.333805
-0.31941
-0.304678
-0.289693
-0.274544
-0.25932
-0.244119
-0.229052
-0.214148
-0.199162
-0.185089
-0.500272
-0.492162
-0.484876
-0.478328
-0.471789
-0.465096
-0.458185
-0.450966
-0.443346
-0.435246
-0.426601
-0.417361
-0.407487
-0.396957
-0.385764
-0.373916
-0.361436
-0.348363
-0.334748
-0.320656
-0.306162
-0.29135
-0.276308
-0.261132
-0.245914
-0.230753
-0.215766
-0.200972
-0.18608
-0.17222
-0.484553
-0.476786
-0.469816
-0.463547
-0.457268
-0.45081
-0.444106
-0.43706
-0.429576
-0.421576
-0.412995
-0.403783
-0.393905
-0.383342
-0.372093
-0.360171
-0.347606
-0.334442
-0.32074
-0.306568
-0.292011
-0.277156
-0.262098
-0.246936
-0.231765
-0.216687
-0.20182
-0.187177
-0.172417
-0.158804
-0.467477
-0.460082
-0.453453
-0.447485
-0.441485
-0.435281
-0.428801
-0.421943
-0.414612
-0.406727
-0.398226
-0.38906
-0.379196
-0.368622
-0.357339
-0.345368
-0.332745
-0.319521
-0.305763
-0.291548
-0.276964
-0.262105
-0.247073
-0.231966
-0.216884
-0.201929
-0.187225
-0.172773
-0.158185
-0.14485
-0.449045
-0.442052
-0.435788
-0.430141
-0.424438
-0.418507
-0.412266
-0.405613
-0.398451
-0.390698
-0.382294
-0.373191
-0.363362
-0.352798
-0.341506
-0.329512
-0.31686
-0.303608
-0.289828
-0.275606
-0.261033
-0.246212
-0.231244
-0.216235
-0.201283
-0.186493
-0.171992
-0.157772
-0.143395
-0.130365
-0.429266
-0.422701
-0.416827
-0.411519
-0.406133
-0.40049
-0.394506
-0.388074
-0.381096
-0.373492
-0.365202
-0.356182
-0.346409
-0.335877
-0.324601
-0.312613
-0.299963
-0.286715
-0.272949
-0.258756
-0.244235
-0.22949
-0.214629
-0.199758
-0.184978
-0.170394
-0.156135
-0.142185
-0.128053
-0.11533
-0.408155
-0.402045
-0.396581
-0.391632
-0.386578
-0.381241
-0.375528
-0.369333
-0.362555
-0.355117
-0.34696
-0.338043
-0.328347
-0.317873
-0.30664
-0.294686
-0.282069
-0.26886
-0.255145
-0.24102
-0.226589
-0.211961
-0.197248
-0.182556
-0.167988
-0.153649
-0.13967
-0.126027
-0.112161
-0.0997004
-0.385733
-0.380101
-0.375069
-0.370495
-0.36579
-0.360774
-0.355348
-0.349405
-0.342844
-0.335589
-0.327583
-0.31879
-0.309195
-0.298803
-0.287641
-0.275753
-0.263202
-0.250067
-0.236439
-0.22242
-0.20812
-0.193649
-0.179123
-0.164651
-0.150335
-0.136279
-0.12262
-0.10932
-0.0957762
-0.0837351
-0.362027
-0.356896
-0.352314
-0.348132
-0.343791
-0.33911
-0.333986
-0.32831
-0.321982
-0.314928
-0.307093
-0.298445
-0.288975
-0.278692
-0.267629
-0.255838
-0.243388
-0.230363
-0.21686
-0.202986
-0.188855
-0.174582
-0.160283
-0.146069
-0.132042
-0.118307
-0.105001
-0.0920752
-0.0788783
-0.0673135
-0.337071
-0.332461
-0.328347
-0.324571
-0.320607
-0.316276
-0.311468
-0.306074
-0.299996
-0.29316
-0.285516
-0.277036
-0.267715
-0.257569
-0.246636
-0.234975
-0.222659
-0.20978
-0.196441
-0.182751
-0.168828
-0.154792
-0.140758
-0.126839
-0.113137
-0.0997569
-0.086837
-0.0743177
-0.0614983
-0.0503892
-0.310903
-0.306833
-0.303202
-0.299846
-0.296273
-0.292304
-0.287827
-0.282729
-0.276917
-0.270318
-0.262885
-0.254596
-0.24545
-0.235469
-0.224697
-0.213199
-0.201054
-0.188359
-0.17522
-0.161753
-0.148077
-0.134314
-0.120583
-0.106994
-0.0936499
-0.0806546
-0.0681497
-0.0560665
-0.043651
-0.0329969
-0.283569
-0.280055
-0.276922
-0.273998
-0.270827
-0.267233
-0.263098
-0.258313
-0.252782
-0.246438
-0.239238
-0.231164
-0.222219
-0.212432
-0.201853
-0.190552
-0.178614
-0.16614
-0.153241
-0.140034
-0.126644
-0.113192
-0.0997965
-0.0865705
-0.0736137
-0.0610305
-0.048965
-0.0373413
-0.0253509
-0.0151553
-0.255118
-0.252175
-0.249553
-0.247071
-0.244314
-0.241105
-0.237327
-0.232867
-0.227634
-0.221565
-0.214619
-0.206783
-0.198067
-0.188504
-0.178151
-0.167082
-0.155388
-0.143173
-0.130551
-0.117645
-0.104577
-0.09147
-0.0784439
-0.06561
-0.0530668
-0.040918
-0.0293108
-0.0181641
-0.00661314
0.00312516
-0.225605
-0.223246
-0.221146
-0.219116
-0.216782
-0.213971
-0.21056
-0.20644
-0.201522
-0.195745
-0.189075
-0.181502
-0.173043
-0.163736
-0.153642
-0.142841
-0.131427
-0.11951
-0.107205
-0.0946364
-0.0819273
-0.0692006
-0.0565749
-0.04416
-0.0320526
-0.0203553
-0.00921893
0.00144154
0.0125473
0.0218389
-0.19509
-0.193326
-0.191758
-0.190188
-0.188287
-0.185883
-0.182851
-0.179084
-0.174497
-0.169033
-0.16266
-0.155377
-0.147202
-0.138182
-0.128381
-0.117884
-0.10679
-0.095209
-0.0832606
-0.0710677
-0.0587542
-0.0464414
-0.0342456
-0.0222743
-0.0106212
0.00061313
0.0112741
0.0214489
0.0321163
0.0409868
-0.163637
-0.162479
-0.161449
-0.160348
-0.158887
-0.156899
-0.154258
-0.150858
-0.146618
-0.141485
-0.135433
-0.128464
-0.120603
-0.111902
-0.102429
-0.0922732
-0.0815366
-0.0703322
-0.0587798
-0.047002
-0.0351213
-0.0232562
-0.0115197
-1.49497e-05
0.0111687
0.021934
0.0321237
0.0418261
0.0520791
0.0605771
-0.131315
-0.13077
-0.130287
-0.12966
-0.128646
-0.127083
-0.124844
-0.121824
-0.117946
-0.113163
-0.107454
-0.100825
-0.0933084
-0.0849579
-0.0758484
-0.0660716
-0.0557324
-0.0449451
-0.0338296
-0.0225073
-0.0110977
0.000284442
0.0115316
0.0225466
0.0332472
0.0435421
0.0532738
0.062532
0.0724181
0.0806266
-0.0981954
-0.0982696
-0.0983392
-0.0981921
-0.0976324
-0.0965026
-0.0946743
-0.0920469
-0.088548
-0.0841342
-0.0787904
-0.0725279
-0.0653837
-0.0574168
-0.0487061
-0.0393464
-0.0294447
-0.019116
-0.00847975
0.00234501
0.0132426
0.0241039
0.0348284
0.0453278
0.0555301
0.065355
0.0746496
0.0835084
0.0931072
0.101169
-0.064354
-0.0650544
-0.0656799
-0.0660173
-0.0659171
-0.0652276
-0.0638204
-0.0615979
-0.058493
-0.0544673
-0.0495108
-0.0436405
-0.0368981
-0.0293473
-0.0210709
-0.0121665
-0.00274281
0.00708471
0.0171981
0.0274809
0.0378224
0.0481202
0.058283
0.0682338
0.0779158
0.0872665
0.0961463
0.104663
0.114094
0.122257
-0.0298709
-0.0312007
-0.0323863
-0.0332118
-0.0335759
-0.0333335
-0.0323562
-0.0305505
-0.0278544
-0.024235
-0.0196877
-0.0142347
-0.00792281
-0.000820256
0.00698675
0.0153979
0.024303
0.0335866
0.0431321
0.0528263
0.0625635
0.072249
0.0818018
0.0911591
0.100283
0.109139
0.117612
0.125838
0.135247
0.143873
0.00517181
0.00320956
0.00146101
0.000144582
-0.000687898
-0.000898535
-0.000359469
0.00101834
0.00329138
0.00648698
0.0106042
0.0156153
0.0214689
0.0280922
0.0353957
0.0432765
0.0516232
0.0603202
0.0692523
0.0783093
0.0873902
0.0964075
0.105291
0.113992
0.122497
0.130805
0.138847
0.146807
0.156321
0.165824
0.0406883
0.0380915
0.0357784
0.0339689
0.0326647
0.0319959
0.0320891
0.0330287
0.0348653
0.0376204
0.0412875
0.0458336
0.0512023
0.0573169
0.0640843
0.0713995
0.0791497
0.0872189
0.0954929
0.103864
0.112234
0.12052
0.128662
0.136623
0.144413
0.152076
0.15962
0.167313
0.177074
0.188307
0.0765898
0.0733573
0.0704788
0.0681752
0.0663967
0.0652652
0.0649058
0.0653978
0.0667855
0.0690846
0.072283
0.0763424
0.0812016
0.08678
0.0929814
0.0996983
0.106817
0.11422
0.121794
0.129432
0.137037
0.144527
0.151844
0.158955
0.165878
0.172695
0.179516
0.186731
0.196685
0.211584
0.112784
0.108916
0.105473
0.102674
0.10042
0.0988222
0.0980045
0.0980404
0.098968
0.100797
0.10351
0.107063
0.11139
0.116407
0.122016
0.128105
0.134561
0.141265
0.148104
0.154968
0.16176
0.168395
0.174804
0.180938
0.186781
0.192373
0.197814
0.203258
0.21048
0.226024
0.149177
0.144675
0.140667
0.137375
0.134643
0.132577
0.131296
0.130869
0.131327
0.132673
0.134885
0.137914
0.141689
0.146124
0.151116
0.156554
0.162322
0.168301
0.174376
0.180438
0.186386
0.192129
0.197583
0.20267
0.207301
0.211393
0.214803
0.216561
0.213787
0.209491
0.185671
0.180537
0.175967
0.172182
0.168975
0.166438
0.16469
0.163794
0.163773
0.164626
0.166324
0.168814
0.172021
0.175855
0.180212
0.184978
0.190038
0.195273
0.200567
0.205812
0.210905
0.215751
0.220263
0.22435
0.227907
0.230837
0.233022
0.23364
0.230611
0.228578
0.222167
0.216404
0.211276
0.207001
0.203318
0.200311
0.198094
0.196724
0.196218
0.196569
0.197742
0.19968
0.202305
0.205523
0.209229
0.213309
0.217647
0.222125
0.226629
0.231051
0.235291
0.239254
0.242854
0.246003
0.248606
0.250591
0.251876
0.251862
0.249549
0.250271
0.258562
0.252176
0.246494
0.241732
0.237577
0.2341
0.231413
0.229566
0.22857
0.228412
0.229052
0.230428
0.232459
0.23505
0.238094
0.241478
0.245084
0.248799
0.252509
0.25611
0.259505
0.262603
0.265323
0.267585
0.269311
0.270451
0.270949
0.270313
0.268025
0.26943
0.294754
0.28775
0.281521
0.276278
0.271653
0.267708
0.264552
0.262226
0.260737
0.260065
0.260165
0.260971
0.262401
0.264357
0.266731
0.269411
0.272281
0.27523
0.278147
0.280933
0.283494
0.285747
0.287617
0.289034
0.289937
0.290297
0.290083
0.288876
0.286366
0.287616
0.330636
0.323024
0.316255
0.310536
0.305447
0.301038
0.297413
0.29461
0.292626
0.291436
0.290992
0.291225
0.292048
0.293363
0.295062
0.297035
0.299168
0.301351
0.30348
0.305458
0.307199
0.308625
0.309669
0.310274
0.31039
0.310007
0.309113
0.307343
0.304493
0.305296
0.366104
0.357894
0.350593
0.344406
0.338859
0.33399
0.329901
0.326621
0.324143
0.322435
0.321445
0.321101
0.321314
0.321986
0.32301
0.324275
0.325671
0.327093
0.328439
0.32962
0.330553
0.331169
0.331409
0.331224
0.330578
0.329471
0.327903
0.325548
0.322265
0.322473
0.401051
0.392255
0.384434
0.377786
0.371788
0.366467
0.361917
0.358164
0.355194
0.352969
0.351434
0.350513
0.350117
0.350146
0.350495
0.351054
0.351718
0.352384
0.352956
0.353349
0.353488
0.35331
0.352763
0.351807
0.350414
0.348594
0.346352
0.343392
0.339616
0.339144
0.435373
0.426003
0.417673
0.410576
0.404136
0.398369
0.393366
0.389145
0.385686
0.382947
0.380869
0.379374
0.378371
0.377761
0.377438
0.377297
0.377235
0.377153
0.376961
0.376579
0.375937
0.37498
0.373662
0.371949
0.369824
0.367299
0.364384
0.360808
0.356504
0.355305
0.468962
0.459035
0.450209
0.442674
0.435803
0.429598
0.42415
0.419468
0.415526
0.412279
0.409663
0.407599
0.405994
0.404749