/*--------------------------------*- C++ -*----------------------------------*\
  =========                 |
  \\      /  F ield         | OpenFOAM: The Open Source CFD Toolbox
   \\    /   O peration     | Website:  https://openfoam.org
    \\  /    A nd           | Version:  7
     \\/     M anipulation  |
\*---------------------------------------------------------------------------*/
FoamFile
{
    version     2.0;
    format      ascii;
    class       volScalarField;
    location    "68";
    object      p;
}
// * * * * * * * * * * * * * * * * * * * * * * * * * * * * * * * * * * * * * //

dimensions      [0 2 -2 0 0 0 0];

internalField   nonuniform List<scalar> 
40000
(
-0.234407
-0.235274
-0.235927
-0.236462
-0.236944
-0.237375
-0.237761
-0.238112
-0.238437
-0.238741
-0.23903
-0.239309
-0.239579
-0.239842
-0.240099
-0.240347
-0.240586
-0.240812
-0.241023
-0.241215
-0.241386
-0.241534
-0.241655
-0.241751
-0.24182
-0.241866
-0.241891
-0.2419
-0.241897
-0.241897
-0.234965
-0.235813
-0.236452
-0.236977
-0.23745
-0.237875
-0.238257
-0.238605
-0.238929
-0.239235
-0.239529
-0.239814
-0.240094
-0.24037
-0.240642
-0.24091
-0.241172
-0.241426
-0.241669
-0.241899
-0.242113
-0.242308
-0.242485
-0.242641
-0.242779
-0.242902
-0.243013
-0.243118
-0.243222
-0.243339
-0.235621
-0.236443
-0.237064
-0.237575
-0.238037
-0.238452
-0.238827
-0.239171
-0.239492
-0.239797
-0.240093
-0.240383
-0.24067
-0.240957
-0.241243
-0.241529
-0.241812
-0.242091
-0.242364
-0.242629
-0.242882
-0.243123
-0.24335
-0.243564
-0.243765
-0.243959
-0.24415
-0.244345
-0.244548
-0.244777
-0.236369
-0.23716
-0.237759
-0.238253
-0.2387
-0.239103
-0.239468
-0.239804
-0.24012
-0.240422
-0.240718
-0.24101
-0.241303
-0.241598
-0.241896
-0.242196
-0.242499
-0.242801
-0.243102
-0.243398
-0.243688
-0.24397
-0.244243
-0.244509
-0.244769
-0.245028
-0.245292
-0.24557
-0.245861
-0.246195
-0.237204
-0.237959
-0.238531
-0.239005
-0.239434
-0.239822
-0.240175
-0.2405
-0.240809
-0.241106
-0.241398
-0.24169
-0.241986
-0.242287
-0.242594
-0.242908
-0.243227
-0.243549
-0.243874
-0.244199
-0.244522
-0.244841
-0.245157
-0.245469
-0.245781
-0.246097
-0.246427
-0.246779
-0.247147
-0.247576
-0.238119
-0.238832
-0.239375
-0.239825
-0.240233
-0.240604
-0.240941
-0.241254
-0.241552
-0.241841
-0.242128
-0.242418
-0.242714
-0.243018
-0.243332
-0.243656
-0.243988
-0.244328
-0.244674
-0.245024
-0.245376
-0.245729
-0.246081
-0.246434
-0.246791
-0.247156
-0.247542
-0.247958
-0.248391
-0.248904
-0.239106
-0.239774
-0.240284
-0.240707
-0.241092
-0.241442
-0.241761
-0.242059
-0.242344
-0.242623
-0.242902
-0.243186
-0.24348
-0.243784
-0.244102
-0.244433
-0.244776
-0.24513
-0.245494
-0.245865
-0.246242
-0.246623
-0.247007
-0.247394
-0.247787
-0.248193
-0.248624
-0.249095
-0.249576
-0.250155
-0.240158
-0.240776
-0.24125
-0.241645
-0.242004
-0.242331
-0.242629
-0.242909
-0.243178
-0.243444
-0.243712
-0.243988
-0.244276
-0.244578
-0.244896
-0.24523
-0.245581
-0.245946
-0.246324
-0.246713
-0.24711
-0.247514
-0.247923
-0.248338
-0.24876
-0.249196
-0.249662
-0.250173
-0.250687
-0.251309
-0.241266
-0.241832
-0.242268
-0.242631
-0.242962
-0.243263
-0.243539
-0.243798
-0.244048
-0.244297
-0.244551
-0.244816
-0.245094
-0.245391
-0.245706
-0.246041
-0.246395
-0.246767
-0.247155
-0.247557
-0.24797
-0.248392
-0.248821
-0.249256
-0.249698
-0.250154
-0.250641
-0.25118
-0.251711
-0.252338
-0.242421
-0.242934
-0.243329
-0.243659
-0.24396
-0.244233
-0.244483
-0.244718
-0.244947
-0.245176
-0.245413
-0.245662
-0.245929
-0.246215
-0.246523
-0.246854
-0.247208
-0.247583
-0.247977
-0.248388
-0.248812
-0.249247
-0.249689
-0.250137
-0.250591
-0.251055
-0.251549
-0.252102
-0.252639
-0.253204
-0.243617
-0.244074
-0.244427
-0.244723
-0.244991
-0.245233
-0.245455
-0.245664
-0.245868
-0.246074
-0.24629
-0.24652
-0.24677
-0.247043
-0.24734
-0.247663
-0.248012
-0.248385
-0.248781
-0.249196
-0.249626
-0.250068
-0.250518
-0.250972
-0.251429
-0.25189
-0.252375
-0.25293
-0.253472
-0.253828
-0.244843
-0.245245
-0.245556
-0.245815
-0.246049
-0.246259
-0.24645
-0.24663
-0.246805
-0.246985
-0.247176
-0.247383
-0.247612
-0.247866
-0.248148
-0.248459
-0.248798
-0.249165
-0.249557
-0.249971
-0.250402
-0.250846
-0.251297
-0.251751
-0.252202
-0.25265
-0.25311
-0.253652
-0.254213
-0.25417
-0.246094
-0.246441
-0.246709
-0.246931
-0.247129
-0.247305
-0.247462
-0.247609
-0.247753
-0.247902
-0.248063
-0.248243
-0.248446
-0.248677
-0.248938
-0.249231
-0.249556
-0.249912
-0.250295
-0.250703
-0.25113
-0.251571
-0.252018
-0.252463
-0.252901
-0.253325
-0.253748
-0.254243
-0.254706
-0.254701
-0.247362
-0.247655
-0.247881
-0.248065
-0.248226
-0.248365
-0.248487
-0.248598
-0.248706
-0.24882
-0.248947
-0.249094
-0.249267
-0.249469
-0.249704
-0.249974
-0.250279
-0.250617
-0.250987
-0.251383
-0.251801
-0.252232
-0.252669
-0.253101
-0.253518
-0.25391
-0.254288
-0.254712
-0.255044
-0.254999
-0.248643
-0.248884
-0.249068
-0.249214
-0.249337
-0.249437
-0.249519
-0.249591
-0.24966
-0.249735
-0.249823
-0.249932
-0.250068
-0.250236
-0.250439
-0.25068
-0.250958
-0.251273
-0.251623
-0.252002
-0.252404
-0.252821
-0.253243
-0.253656
-0.254046
-0.254398
-0.254717
-0.255062
-0.255258
-0.255018
-0.24993
-0.250123
-0.250266
-0.250374
-0.250457
-0.250517
-0.250557
-0.250586
-0.250612
-0.250642
-0.250686
-0.250752
-0.250845
-0.250972
-0.251137
-0.251342
-0.251587
-0.251873
-0.252196
-0.252551
-0.252933
-0.25333
-0.25373
-0.254119
-0.254477
-0.254783
-0.255033
-0.255285
-0.255338
-0.254778
-0.251223
-0.251371
-0.251475
-0.251544
-0.251587
-0.251604
-0.251599
-0.251581
-0.251558
-0.251539
-0.251534
-0.251549
-0.251594
-0.251674
-0.251794
-0.251956
-0.252162
-0.252411
-0.2527
-0.253026
-0.253379
-0.25375
-0.254124
-0.254482
-0.254803
-0.255058
-0.255231
-0.255378
-0.255284
-0.254284
-0.252519
-0.252626
-0.252692
-0.252724
-0.252724
-0.252696
-0.252644
-0.252576
-0.2525
-0.252426
-0.252364
-0.252324
-0.252313
-0.252339
-0.252406
-0.252518
-0.252677
-0.252882
-0.253132
-0.25342
-0.253738
-0.254076
-0.254417
-0.25474
-0.255019
-0.255218
-0.255308
-0.255339
-0.255104
-0.253534
-0.25382
-0.25389
-0.253921
-0.253914
-0.253872
-0.253796
-0.253693
-0.25357
-0.253436
-0.253301
-0.253178
-0.253075
-0.253002
-0.252966
-0.252973
-0.253028
-0.253132
-0.253287
-0.253488
-0.253731
-0.254008
-0.254306
-0.254607
-0.254888
-0.255119
-0.255258
-0.255259
-0.255163
-0.254808
-0.252531
-0.255128
-0.255165
-0.255162
-0.255117
-0.255031
-0.254906
-0.254748
-0.254565
-0.254368
-0.254168
-0.253976
-0.253804
-0.253661
-0.253557
-0.253497
-0.253487
-0.253529
-0.253624
-0.25377
-0.253961
-0.254188
-0.254438
-0.254692
-0.254924
-0.2551
-0.255173
-0.255082
-0.254846
-0.254406
-0.251288
-0.256448
-0.256457
-0.256422
-0.256338
-0.256207
-0.25603
-0.255813
-0.255566
-0.255301
-0.255029
-0.254762
-0.254514
-0.254295
-0.254114
-0.25398
-0.253897
-0.25387
-0.253898
-0.253981
-0.254112
-0.254281
-0.254476
-0.254674
-0.254849
-0.254961
-0.254961
-0.254773
-0.25438
-0.253905
-0.249829
-0.257788
-0.257773
-0.257706
-0.257584
-0.257405
-0.257172
-0.256893
-0.256578
-0.256238
-0.255889
-0.255542
-0.255211
-0.254908
-0.254645
-0.254428
-0.254266
-0.254162
-0.254117
-0.254128
-0.254191
-0.254296
-0.254426
-0.254561
-0.254668
-0.254707
-0.254624
-0.254334
-0.25376
-0.253305
-0.248192
-0.259158
-0.259121
-0.259024
-0.258861
-0.258632
-0.258341
-0.257995
-0.257607
-0.257188
-0.256754
-0.256321
-0.255901
-0.255508
-0.255155
-0.254851
-0.254602
-0.254414
-0.254288
-0.254222
-0.254211
-0.254242
-0.254301
-0.254362
-0.254392
-0.254347
-0.254167
-0.253767
-0.252986
-0.252596
-0.246432
-0.260568
-0.260512
-0.260384
-0.26018
-0.259898
-0.259545
-0.259128
-0.258661
-0.258158
-0.257635
-0.257108
-0.256593
-0.256105
-0.255656
-0.255257
-0.254917
-0.254639
-0.254426
-0.254276
-0.254183
-0.254134
-0.254112
-0.254091
-0.254034
-0.253891
-0.253601
-0.25308
-0.252067
-0.251758
-0.244616
-0.262034
-0.261959
-0.2618
-0.261551
-0.261213
-0.260793
-0.260301
-0.25975
-0.259158
-0.25854
-0.257915
-0.257299
-0.25671
-0.25616
-0.255661
-0.255223
-0.25485
-0.254545
-0.254305
-0.254124
-0.253988
-0.253878
-0.253764
-0.253607
-0.253353
-0.252936
-0.25228
-0.251023
-0.250767
-0.24283
-0.263571
-0.263476
-0.263283
-0.262987
-0.262589
-0.262098
-0.261525
-0.260886
-0.260198
-0.259481
-0.258752
-0.258031
-0.257336
-0.25668
-0.256077
-0.255537
-0.255064
-0.254662
-0.254327
-0.254051
-0.253821
-0.253613
-0.253396
-0.253127
-0.252747
-0.252186
-0.251373
-0.249881
-0.249588
-0.241159
-0.265196
-0.265079
-0.264849
-0.264501
-0.264039
-0.263472
-0.262814
-0.262081
-0.261293
-0.26047
-0.259634
-0.258803
-0.257997
-0.257232
-0.256521
-0.255874
-0.255298
-0.254794
-0.254359
-0.253983
-0.25365
-0.253335
-0.253002
-0.252606
-0.252083
-0.25136
-0.250357
-0.248665
-0.248155
-0.239633
-0.266929
-0.266785
-0.266513
-0.266109
-0.265577
-0.264928
-0.264179
-0.263347
-0.262454
-0.261522
-0.260573
-0.259629
-0.25871
-0.257832
-0.257009
-0.256253
-0.255569
-0.254959
-0.254418
-0.253934
-0.253489
-0.253055
-0.252593
-0.252052
-0.251368
-0.250469
-0.249242
-0.247405
-0.24636
-0.238133
-0.26879
-0.268612
-0.268293
-0.267826
-0.267217
-0.266481
-0.265635
-0.264699
-0.263696
-0.262651
-0.261586
-0.260525
-0.259489
-0.258495
-0.257559
-0.256691
-0.255896
-0.255175
-0.254521
-0.253921
-0.253352
-0.252784
-0.252174
-0.25147
-0.250606
-0.24952
-0.248064
-0.24618
-0.244211
-0.236842
-0.270798
-0.270579
-0.270203
-0.269667
-0.268976
-0.268146
-0.267197
-0.266151
-0.265034
-0.263871
-0.262688
-0.261507
-0.260352
-0.25924
-0.258187
-0.257203
-0.256293
-0.255455
-0.25468
-0.253952
-0.253245
-0.252524
-0.251744
-0.250852
-0.249785
-0.248498
-0.246836
-0.245029
-0.242165
-0.237682
-0.272976
-0.272703
-0.272263
-0.271649
-0.270867
-0.269936
-0.268879
-0.267719
-0.266483
-0.265199
-0.263893
-0.26259
-0.261314
-0.260082
-0.258909
-0.257806
-0.256775
-0.255812
-0.254906
-0.254035
-0.253171
-0.252273
-0.251295
-0.250184
-0.248882
-0.24736
-0.245491
-0.243706
-0.240737
-0.242758
-0.275342
-0.275004
-0.274489
-0.273789
-0.272908
-0.271869
-0.270696
-0.269416
-0.268057
-0.266648
-0.265217
-0.26379
-0.262389
-0.261035
-0.25974
-0.258512
-0.257353
-0.256255
-0.255203
-0.254171
-0.253126
-0.252023
-0.250813
-0.249446
-0.247868
-0.246063
-0.243945
-0.241924
-0.239005
-0.240053
-0.277916
-0.277498
-0.276898
-0.276101
-0.275113
-0.273958
-0.272663
-0.271257
-0.269771
-0.268233
-0.266674
-0.26512
-0.263593
-0.262113
-0.26069
-0.259332
-0.258035
-0.256789
-0.255573
-0.254357
-0.253102
-0.25176
-0.250281
-0.248615
-0.246716
-0.244573
-0.24213
-0.239704
-0.236522
-0.235944
-0.280718
-0.280205
-0.279506
-0.278603
-0.277497
-0.276218
-0.274794
-0.273257
-0.271638
-0.269969
-0.268279
-0.266595
-0.264939
-0.263327
-0.261771
-0.260273
-0.258826
-0.257415
-0.256013
-0.254584
-0.253085
-0.251467
-0.249677
-0.24767
-0.245406
-0.242878
-0.240046
-0.23714
-0.233561
-0.231645
-0.283764
-0.283138
-0.282329
-0.281307
-0.280075
-0.278663
-0.277104
-0.27543
-0.273674
-0.271869
-0.270044
-0.268226
-0.266436
-0.264689
-0.262991
-0.261341
-0.259727
-0.258128
-0.256512
-0.254839
-0.253059
-0.251124
-0.248983
-0.246595
-0.243929
-0.24098
-0.237723
-0.234321
-0.230322
-0.227325
-0.28707
-0.286314
-0.28538
-0.284229
-0.28286
-0.281307
-0.279605
-0.277787
-0.27589
-0.273945
-0.271982
-0.270026
-0.268096
-0.266204
-0.264353
-0.262535
-0.260734
-0.258922
-0.25706
-0.255104
-0.253005
-0.250712
-0.248181
-0.245378
-0.24228
-0.238893
-0.2352
-0.231324
-0.226922
-0.223146
-0.290651
-0.289747
-0.288673
-0.287382
-0.285866
-0.284163
-0.28231
-0.280344
-0.278299
-0.27621
-0.274104
-0.272004
-0.269927
-0.267879
-0.26586
-0.263855
-0.26184
-0.259782
-0.257638
-0.255361
-0.2529
-0.25021
-0.247255
-0.24401
-0.240466
-0.236635
-0.232512
-0.228201
-0.223438
-0.219097
-0.294519
-0.293447
-0.29222
-0.290777
-0.289104
-0.287242
-0.285232
-0.283111
-0.280914
-0.278675
-0.276419
-0.274168
-0.271933
-0.269716
-0.267509
-0.265291
-0.263033
-0.260693
-0.258227
-0.255586
-0.252723
-0.249601
-0.246194
-0.24249
-0.238493
-0.234224
-0.229693
-0.224991
-0.21991
-0.21516
-0.298685
-0.297427
-0.296032
-0.294425
-0.292585
-0.290556
-0.288382
-0.2861
-0.283746
-0.28135
-0.278938
-0.276525
-0.274119
-0.271714
-0.269295
-0.266835
-0.264296
-0.261635
-0.258803
-0.255756
-0.252454
-0.24887
-0.24499
-0.240818
-0.236371
-0.23168
-0.226765
-0.221712
-0.216354
-0.211299
-0.303158
-0.301695
-0.300118
-0.298337
-0.296321
-0.294117
-0.291771
-0.289322
-0.286804
-0.284245
-0.281667
-0.27908
-0.276484
-0.273868
-0.271208
-0.268469
-0.26561
-0.262583
-0.259342
-0.255849
-0.252073
-0.248002
-0.243637
-0.238996
-0.234109
-0.229017
-0.223745
-0.218377
-0.212774
-0.207479
-0.307944
-0.306258
-0.304487
-0.302521
-0.300319
-0.297933
-0.295409
-0.292787
-0.290097
-0.287366
-0.28461
-0.281832
-0.279025
-0.276169
-0.273232
-0.270174
-0.266949
-0.26351
-0.259817
-0.25584
-0.251563
-0.246988
-0.242133
-0.23703
-0.231718
-0.226245
-0.220643
-0.21499
-0.209167
-0.20367
-0.313048
-0.311122
-0.309143
-0.306983
-0.304588
-0.302012
-0.299304
-0.296502
-0.293633
-0.290718
-0.287768
-0.284778
-0.281732
-0.278602
-0.275348
-0.271925
-0.268286
-0.264389
-0.260202
-0.255709
-0.250909
-0.24582
-0.240477
-0.234922
-0.229204
-0.223372
-0.217463
-0.211548
-0.205523
-0.199846
-0.318472
-0.316288
-0.314091
-0.311728
-0.309132
-0.306361
-0.303463
-0.300472
-0.297414
-0.294302
-0.291138
-0.287911
-0.284593
-0.281148
-0.27753
-0.273692
-0.269591
-0.26519
-0.260472
-0.255435
-0.250097
-0.244492
-0.238667
-0.232676
-0.22657
-0.220402
-0.214207
-0.208048
-0.201835
-0.195988
-0.324214
-0.321757
-0.319332
-0.316758
-0.313955
-0.310983
-0.307888
-0.304701
-0.301441
-0.298114
-0.294713
-0.291216
-0.287586
-0.28378
-0.279748
-0.275444
-0.27083
-0.265884
-0.260602
-0.255001
-0.249117
-0.242999
-0.236704
-0.230293
-0.223819
-0.217333
-0.21087
-0.204481
-0.19809
-0.192079
-0.330269
-0.327526
-0.324862
-0.322073
-0.319058
-0.315878
-0.312579
-0.309186
-0.305709
-0.302146
-0.298478
-0.294673
-0.290687
-0.286468
-0.281968
-0.277145
-0.271971
-0.266441
-0.260569
-0.254391
-0.247959
-0.241336
-0.234586
-0.227772
-0.22095
-0.214164
-0.207447
-0.200841
-0.19428
-0.188107
-0.336628
-0.333586
-0.330677
-0.327667
-0.324436
-0.321044
-0.317533
-0.313921
-0.310208
-0.306382
-0.302413
-0.298256
-0.293862
-0.289176
-0.284151
-0.278757
-0.27298
-0.266833
-0.260352
-0.25359
-0.246614
-0.239497
-0.232309
-0.225112
-0.217958
-0.210889
-0.203931
-0.197117
-0.190392
-0.184058
-0.343278
-0.339926
-0.336766
-0.333532
-0.330081
-0.326472
-0.32274
-0.318893
-0.314922
-0.310801
-0.306488
-0.301931
-0.297072
-0.29186
-0.286256
-0.280241
-0.273822
-0.267033
-0.25993
-0.252584
-0.245074
-0.237479
-0.229869
-0.222307
-0.214839
-0.207499
-0.200312
-0.193298
-0.186415
-0.179924
-0.3502
-0.346529
-0.343115
-0.339654
-0.33598
-0.332147
-0.328184
-0.324084
-0.319827
-0.315374
-0.31067
-0.305657
-0.300275
-0.294477
-0.288238
-0.281558
-0.274466
-0.267017
-0.259287
-0.251361
-0.243329
-0.235272
-0.22726
-0.21935
-0.211582
-0.203986
-0.196579
-0.189375
-0.18234
-0.175692
-0.357368
-0.353372
-0.349701
-0.346013
-0.342115
-0.338051
-0.333842
-0.329467
-0.324891
-0.320062
-0.314915
-0.309386
-0.303419
-0.296978
-0.290054
-0.28267
-0.274879
-0.266759
-0.258403
-0.249909
-0.24137
-0.23287
-0.224473
-0.216231
-0.208179
-0.200338
-0.192722
-0.185335
-0.178154
-0.171355
-0.36475
-0.360427
-0.3565
-0.352585
-0.348459
-0.344156
-0.339684
-0.335008
-0.330075
-0.32482
-0.319173
-0.313066
-0.306453
-0.299313
-0.291658
-0.283538
-0.275031
-0.266236
-0.257261
-0.248213
-0.239186
-0.230261
-0.221498
-0.212941
-0.204618
-0.196544
-0.188728
-0.181168
-0.173848
-0.166902
-0.37231
-0.367657
-0.363476
-0.359336
-0.354979
-0.350427
-0.345673
-0.340663
-0.33533
-0.329596
-0.323387
-0.31664
-0.30932
-0.301429
-0.293006
-0.284127
-0.274895
-0.265428
-0.255846
-0.24626
-0.236765
-0.227435
-0.218323
-0.209467
-0.200887
-0.192592
-0.184586
-0.176861
-0.16941
-0.162323
-0.38
-0.375022
-0.370591
-0.366227
-0.361636
-0.356822
-0.351761
-0.346382
-0.3406
-0.334329
-0.327495
-0.320044
-0.311962
-0.303275
-0.294053
-0.284399
-0.274441
-0.264312
-0.254139
-0.244037
-0.234093
-0.224378
-0.214936
-0.205796
-0.196972
-0.188469
-0.180283
-0.172404
-0.164829
-0.157609
-0.387769
-0.382471
-0.377795
-0.373211
-0.36838
-0.36329
-0.357895
-0.352104
-0.345821
-0.338953
-0.33143
-0.323216
-0.31432
-0.3048
-0.294756
-0.284322
-0.273643
-0.262866
-0.252124
-0.241526
-0.231157
-0.221076
-0.211322
-0.201914
-0.192861
-0.184161
-0.175806
-0.167785
-0.160095
-0.152752
-0.395556
-0.389947
-0.385035
-0.380233
-0.375157
-0.369772
-0.364011
-0.357764
-0.350923
-0.343396
-0.335123
-0.326089
-0.316335
-0.305953
-0.295076
-0.283862
-0.272476
-0.261071
-0.249782
-0.238713
-0.227941
-0.217515
-0.207467
-0.197808
-0.188539
-0.179656
-0.171145
-0.162992
-0.155198
-0.147742
-0.403293
-0.397386
-0.392247
-0.38723
-0.381901
-0.3762
-0.370037
-0.363287
-0.355831
-0.347582
-0.338499
-0.328597
-0.31795
-0.306687
-0.294973
-0.282989
-0.270914
-0.258906
-0.247095
-0.23558
-0.224428
-0.213679
-0.203355
-0.193461
-0.183993
-0.17494
-0.166287
-0.158016
-0.150127
-0.14257
-0.410906
-0.404716
-0.399362
-0.394132
-0.38854
-0.382499
-0.375897
-0.368591
-0.360462
-0.351432
-0.341487
-0.330674
-0.319108
-0.306955
-0.29441
-0.281673
-0.268933
-0.256349
-0.244045
-0.23211
-0.220602
-0.209551
-0.198971
-0.18886
-0.179209
-0.170002
-0.16122
-0.152845
-0.144873
-0.137229
-0.418313
-0.411861
-0.406302
-0.400862
-0.394996
-0.388589
-0.381506
-0.373592
-0.364732
-0.354866
-0.344011
-0.332256
-0.319756
-0.306713
-0.293351
-0.279885
-0.266509
-0.253379
-0.240611
-0.228285
-0.216446
-0.205116
-0.1943
-0.183991
-0.174173
-0.164828
-0.155933
-0.14747
-0.139428
-0.131711
-0.425428
-0.418735
-0.412986
-0.407336
-0.401183
-0.39438
-0.386773
-0.378201
-0.368554
-0.357803
-0.346001
-0.333281
-0.319841
-0.30592
-0.291762
-0.277597
-0.263618
-0.249975
-0.236776
-0.224086
-0.211942
-0.200356
-0.189326
-0.178838
-0.168872
-0.159407
-0.150416
-0.141881
-0.133783
-0.126011
-0.432159
-0.425249
-0.419324
-0.413465
-0.407009
-0.399781
-0.391607
-0.382324
-0.371843
-0.360164
-0.347386
-0.333689
-0.319316
-0.304535
-0.289612
-0.274782
-0.260237
-0.246118
-0.232519
-0.219496
-0.207074
-0.195257
-0.184035
-0.173388
-0.163295
-0.153728
-0.144659
-0.136069
-0.127931
-0.120122
-0.438408
-0.43131
-0.425224
-0.419154
-0.41238
-0.404694
-0.39591
-0.385871
-0.37451
-0.36187
-0.348099
-0.333426
-0.318135
-0.302523
-0.286871
-0.271416
-0.256344
-0.241786
-0.227823
-0.214498
-0.201826
-0.189803
-0.178412
-0.16763
-0.157429
-0.14778
-0.138653
-0.130027
-0.121863
-0.11404
-0.444076
-0.43682
-0.430586
-0.424306
-0.417196
-0.409021
-0.399587
-0.388748
-0.376472
-0.362848
-0.348077
-0.332439
-0.316256
-0.29985
-0.28351
-0.267475
-0.251919
-0.23696
-0.222668
-0.209073
-0.19618
-0.183978
-0.172444
-0.161549
-0.151263
-0.141553
-0.132387
-0.123745
-0.115575
-0.107758
-0.449062
-0.441679
-0.435313
-0.428819
-0.421356
-0.412662
-0.40254
-0.390866
-0.377646
-0.363026
-0.347261
-0.33068
-0.31364
-0.296483
-0.279504
-0.262934
-0.246939
-0.231622
-0.217038
-0.203206
-0.190124
-0.17777
-0.166118
-0.155135
-0.144786
-0.135038
-0.125855
-0.117216
-0.109058
-0.10127
-0.453263
-0.445785
-0.439303
-0.432594
-0.424759
-0.415518
-0.404675
-0.392136
-0.377957
-0.36234
-0.345598
-0.328106
-0.310253
-0.292395
-0.274828
-0.257775
-0.241387
-0.225753
-0.210916
-0.196883
-0.183642
-0.171166
-0.159424
-0.148377
-0.137991
-0.128226
-0.119048
-0.110434
-0.102307
-0.0945715
-0.456578
-0.449039
-0.442455
-0.435528
-0.427306
-0.417491
-0.405901
-0.392478
-0.377333
-0.360729
-0.343038
-0.324677
-0.306062
-0.287559
-0.26946
-0.251976
-0.235244
-0.219339
-0.204288
-0.190089
-0.176723
-0.164155
-0.15235
-0.141267
-0.130867
-0.12111
-0.111959
-0.103391
-0.0953163
-0.0876583
-0.458906
-0.451341
-0.44467
-0.437521
-0.428898
-0.418488
-0.40613
-0.391812
-0.375706
-0.358139
-0.339537
-0.320359
-0.301041
-0.281953
-0.26338
-0.245521
-0.228496
-0.212363
-0.19714
-0.182813
-0.169355
-0.156728
-0.144889
-0.133797
-0.123409
-0.113683
-0.104581
-0.0960815
-0.0880835
-0.0805291
-0.460151
-0.452594
-0.445851
-0.438479
-0.429441
-0.418419
-0.405282
-0.390069
-0.373018
-0.354521
-0.335058
-0.315122
-0.295164
-0.275556
-0.256573
-0.238395
-0.221127
-0.204815
-0.189461
-0.175044
-0.16153
-0.148875
-0.137033
-0.12596
-0.11561
-0.105938
-0.0969084
-0.0884976
-0.080602
-0.0731746
-0.46022
-0.452705
-0.445904
-0.438309
-0.428846
-0.417203
-0.403283
-0.387185
-0.369217
-0.349835
-0.329568
-0.30894
-0.288413
-0.268353
-0.249022
-0.230584
-0.213128
-0.196683
-0.181242
-0.166775
-0.153241
-0.140591
-0.128778
-0.117752
-0.107466
-0.0978723
-0.0889334
-0.0806298
-0.072853
-0.0655526
-0.459026
-0.451587
-0.444744
-0.436925
-0.427032
-0.414763
-0.400065
-0.383104
-0.364256
-0.344044
-0.323041
-0.301794
-0.280771
-0.26033
-0.240717
-0.222079
-0.204488
-0.187959
-0.172475
-0.157998
-0.144482
-0.131873
-0.12012
-0.109171
-0.0989756
-0.0894841
-0.0806569
-0.0724762
-0.0648122
-0.0575721
-0.45649
-0.44916
-0.442288
-0.434248
-0.423924
-0.411032
-0.395572
-0.377778
-0.358101
-0.337122
-0.315456
-0.293668
-0.272226
-0.251477
-0.231649
-0.212872
-0.1952
-0.178637
-0.163156
-0.148711
-0.135251
-0.122718
-0.111058
-0.100216
-0.0901401
-0.0807763
-0.072086
-0.0640511
-0.0564936
-0.049192
-0.452538
-0.44535
-0.438465
-0.430207
-0.419455
-0.405951
-0.389752
-0.371168
-0.35072
-0.329047
-0.306798
-0.284551
-0.26277
-0.241787
-0.221813
-0.202958
-0.185262
-0.168716
-0.153283
-0.138912
-0.125546
-0.113126
-0.101593
-0.0908896
-0.0809617
-0.0717534
-0.0632275
-0.0553623
-0.0479424
-0.0406976
-0.447108
-0.440092
-0.433208
-0.424741
-0.413569
-0.399471
-0.382567
-0.363244
-0.342093
-0.319806
-0.297058
-0.274437
-0.252399
-0.231259
-0.211207
-0.192337
-0.174672
-0.158193
-0.142856
-0.128602
-0.115371
-0.103099
-0.0917268
-0.081195
-0.0714449
-0.062421
-0.0540893
-0.0464156
-0.0391103
-0.0321722
-0.440145
-0.433332
-0.426464
-0.417795
-0.406219
-0.391552
-0.373987
-0.353984
-0.332207
-0.309389
-0.286233
-0.263327
-0.241115
-0.219893
-0.199833
-0.181009
-0.163433
-0.147072
-0.131877
-0.117784
-0.104727
-0.092642
-0.0814641
-0.0711386
-0.061596
-0.0527848
-0.0446738
-0.0372095
-0.0300751
-0.0234679
-0.431606
-0.425023
-0.418187
-0.40933
-0.397368
-0.382166
-0.36399
-0.343378
-0.321055
-0.297798
-0.274326
-0.251224
-0.228921
-0.207694
-0.187695
-0.168981
-0.151549
-0.135358
-0.120352
-0.106463
-0.093622
-0.0817617
-0.0708153
-0.0607232
-0.0514204
-0.0428512
-0.0349864
-0.0277579
-0.0208337
-0.0145493
-0.421457
-0.41513
-0.408343
-0.399313
-0.38699
-0.371295
-0.352566
-0.33142
-0.30864
-0.285039
-0.261344
-0.238137
-0.215828
-0.194673
-0.174802
-0.156259
-0.139028
-0.12306
-0.10829
-0.0946503
-0.0820648
-0.0704656
-0.0597853
-0.0499605
-0.0409269
-0.0326277
-0.0250351
-0.0180689
-0.0113802
-0.00541768
-0.409675
-0.40363
-0.396908
-0.387724
-0.375071
-0.358929
-0.339715
-0.318116
-0.294972
-0.271123
-0.247303
-0.224081
-0.201848
-0.18084
-0.161167
-0.142857
-0.12588
-0.11019
-0.0957036
-0.082354
-0.0700651
-0.058765
-0.0483852
-0.0388603
-0.0301255
-0.022124
-0.0148295
-0.00814977
-0.00171553
0.00391606
-0.396249
-0.39051
-0.383871
-0.374554
-0.361606
-0.345072
-0.325444
-0.303481
-0.280068
-0.25607
-0.232221
-0.209074
-0.187001
-0.166214
-0.146806
-0.128789
-0.112127
-0.0967575
-0.0826035
-0.0695886
-0.0576363
-0.0466725
-0.0366276
-0.0274348
-0.0190282
-0.0113515
-0.00438034
0.00199079
0.00815308
0.0134402
-0.38118
-0.375767
-0.369229
-0.359805
-0.346603
-0.329737
-0.309772
-0.287535
-0.263953
-0.239905
-0.216123
-0.193141
-0.171308
-0.150815
-0.131738
-0.114075
-0.0977797
-0.0827835
-0.069007
-0.0563699
-0.0447937
-0.0342031
-0.0245271
-0.0156979
-0.00764848
-0.000323428
0.0063
0.0123415
0.0182146
0.0231422
-0.364478
-0.359412
-0.352994
-0.34349
-0.33008
-0.312945
-0.292726
-0.270309
-0.246656
-0.22266
-0.199039
-0.176309
-0.154796
-0.134669
-0.115987
-0.0987356
-0.0828605
-0.0682872
-0.0549333
-0.042716
-0.0315549
-0.0213737
-0.0121002
-0.00366557
0.00399813
0.0109453
0.0171971
0.0228887
0.0284552
0.033008
-0.346167
-0.341465
-0.335187
-0.325633
-0.312064
-0.294729
-0.274341
-0.251839
-0.228218
-0.204372
-0.181003
-0.158611
-0.137495
-0.117803
-0.0995791
-0.0827964
-0.0673935
-0.053291
-0.040404
-0.0286475
-0.0179398
-0.00820331
0.000634854
0.0086445
0.0158944
0.0224379
0.0282947
0.0336162
0.0388583
0.0430218
-0.326279
-0.321958
-0.315839
-0.30627
-0.292593
-0.275129
-0.25466
-0.232172
-0.208684
-0.185086
-0.162052
-0.140084
-0.11944
-0.100251
-0.0825446
-0.0662856
-0.0514053
-0.0378203
-0.0254431
-0.0141872
-0.00396992
0.00528729
0.013658
0.0212129
0.0280215
0.0341357
0.0395745
0.0445059
0.0494052
0.0531658
-0.304858
-0.300932
-0.294994
-0.285444
-0.271714
-0.254197
-0.233736
-0.211361
-0.188101
-0.164831
-0.142241
-0.120771
-0.100669
-0.0820472
-0.0649173
-0.0492349
-0.0349257
-0.0219028
-0.0100769
0.000639819
0.010331
0.0190756
0.0269478
0.0340189
0.0403591
0.0460185
0.0510163
0.0555372
0.0600741
0.0634179
-0.281958
-0.27844
-0.272704
-0.26321
-0.249485
-0.231992
-0.211629
-0.189458
-0.166512
-0.143684
-0.121612
-0.100716
-0.0812258
-0.0632319
-0.0467338
-0.0316786
-0.0179868
-0.005569
0.00566604
0.0158068
0.0249375
0.0331375
0.0404812
0.0470404
0.0528854
0.058065
0.0625987
0.0666878
0.0708393
0.0737483
-0.257645
-0.254543
-0.249032
-0.239632
-0.225973
-0.208581
-0.188399
-0.166518
-0.144
-0.121692
-0.100217
-0.0799694
-0.0611553
-0.0438476
-0.028034
-0.0136539
-0.000623682
0.0111485
0.021755
0.0312849
0.0398227
0.0474475
0.0542341
0.0602543
0.0655782
0.070253
0.074299
0.0779331
0.0816705
0.0841209
-0.231991
-0.229311
-0.224047
-0.214784
-0.201249
-0.184026
-0.164108
-0.14263
-0.12062
-0.0989157
-0.0781148
-0.0585838
-0.0405068
-0.0239401
-0.00886048
0.00479929
0.0171265
0.0282148
0.0381574
0.0470437
0.0549579
0.0619791
0.0681815
0.0736371
0.0784149
0.08256
0.0860944
0.0892476
0.0925357
0.0945049
-0.205075
-0.202823
-0.197828
-0.188744
-0.175383
-0.158406
-0.138857
-0.117859
-0.0964411
-0.0754209
-0.0553657
-0.0366154
-0.0193326
-0.00355813
0.0107413
0.0236385
0.035224
0.0455928
0.0548387
0.0630508
0.0703132
0.0767043
0.0822978
0.0871648
0.0913729
0.094964
0.0979628
0.100609
0.10341
0.104876
-0.176971
-0.175171
-0.170463
-0.161588
-0.148467
-0.131824
-0.112717
-0.0922825
-0.0715388
-0.0512766
-0.0320338
-0.0141237
0.00231209
0.0172469
0.0307233
0.042819
0.0536271
0.0632436
0.0717624
0.0792726
0.0858574
0.0915945
0.0965565
0.100813
0.10443
0.107443
0.109885
0.112004
0.114277
0.115173
-0.147753
-0.146457
-0.142051
-0.133417
-0.120604
-0.10436
-0.0857737
-0.0659836
-0.0459899
-0.026555
-0.00818633
0.00882905
0.0243692
0.0384211
0.0510352
0.0622938
0.0722919
0.0811263
0.0888907
0.0956737
0.101558
0.10662
0.110931
0.114559
0.117563
0.119977
0.121846
0.123421
0.125087
0.125234
-0.117512
-0.116827
-0.112674
-0.104334
-0.091885
-0.0761101
-0.0581192
-0.0390485
-0.0198753
-0.00133114
0.016107
0.0321779
0.0467785
0.0599081
0.0716246
0.0820139
0.0911727
0.0991981
0.106184
0.112218
0.117381
0.12175
0.125394
0.128378
0.130753
0.132554
0.133844
0.134845
0.135726
0.134889
-0.0864986
-0.0862637
-0.0824529
-0.0744462
-0.0624122
-0.0471721
-0.029848
-0.0115663
0.00672178
0.0243171
0.0407738
0.0558556
0.0694773
0.0816497
0.092437
0.101928
0.110222
0.117415
0.1236
0.128866
0.133291
0.136952
0.139917
0.142246
0.143984
0.145173
0.145899
0.146284
0.146136
0.144177
-0.0547364
-0.0549361
-0.0514983
-0.0438605
-0.0322926
-0.0176494
-0.00105799
0.0163708
0.0337152
0.0503099
0.0657397
0.0797929
0.0924011
0.103586
0.113416
0.121985
0.129391
0.135731
0.141098
0.145578
0.149252
0.152193
0.154469
0.156137
0.15724
0.157837
0.158037
0.157791
0.156532
0.15365
-0.0223232
-0.0229758
-0.0199236
-0.0126888
-0.00163596
0.0123523
0.0281508
0.0446689
0.0610171
0.0765652
0.0909286
0.103919
0.115484
0.125654
0.134505
0.14213
0.148629
0.154099
0.158632
0.162314
0.165224
0.167436
0.169015
0.170017
0.17049
0.170515
0.170206
0.169305
0.166994
0.16541
0.0106138
0.0094999
0.0121537
0.0189534
0.029445
0.0427252
0.057676
0.0732318
0.0885379
0.103
0.116263
0.128162
0.138658
0.147792
0.155643
0.162308
0.167884
0.172471
0.176158
0.179031
0.181169
0.182643
0.183519
0.183852
0.183695
0.183142
0.182274
0.18076
0.178097
0.177197
0.0439475
0.04237
0.0446128
0.0509474
0.0608356
0.0733595
0.087414
0.101962
0.116187
0.129529
0.141664
0.152447
0.161856
0.169936
0.176773
0.182463
0.187105
0.190798
0.19363
0.195686
0.197044
0.197775
0.197944
0.197607
0.196819
0.195676
0.194227
0.192148
0.189199
0.188243
0.0775506
0.0755101
0.0773304
0.0831726
0.0924194
0.104144
0.11726
0.130762
0.143872
0.156067
0.167051
0.176702
0.185007
0.192021
0.197832
0.202538
0.206239
0.209029
0.211
0.212235
0.212809
0.212793
0.212253
0.211243
0.209823
0.208082
0.206055
0.203455
0.20019
0.198899
0.111295
0.108794
0.110182
0.115507
0.124079
0.134968
0.147109
0.159533
0.171502
0.182528
0.192346
0.20085
0.208042
0.213982
0.218761
0.222477
0.225231
0.227117
0.228223
0.228633
0.228422
0.227659
0.226408
0.224725
0.22267
0.220327
0.217722
0.214604
0.210961
0.209232
0.145051
0.142094
0.143042
0.147829
0.155697
0.165718
0.176854
0.188176
0.198983
0.208827
0.217467
0.224818
0.230891
0.235753
0.239497
0.242222
0.244028
0.245009
0.245251
0.244838
0.243842
0.242333
0.240373
0.238018
0.235327
0.232381
0.2292
0.225559
0.221499
0.219285
0.178691
0.175284
0.175784
0.180016
0.187156
0.196283
0.206392
0.216592
0.226225
0.234878
0.242336
0.248531
0.253485
0.25727
0.259981
0.261717
0.262578
0.262656
0.262038
0.260804
0.259028
0.256776
0.254111
0.251087
0.247763
0.244215
0.240458
0.23629
0.231791
0.229068
0.212085
0.208234
0.208283
0.211945
0.218338
0.226552
0.235617
0.244684
0.253136
0.260595
0.266872
0.271914
0.275753
0.278467
0.280151
0.280904
0.280827
0.280009
0.278537
0.27649
0.273939
0.270951
0.267586
0.263898
0.259945
0.255799
0.251471
0.246776
0.241827
0.238581
0.245105
0.24082
0.240416
0.243496
0.249128
0.256416
0.264427
0.272355
0.279626
0.285895
0.290996
0.294894
0.297629
0.29928
0.299947
0.299728
0.298722
0.297018
0.294702
0.291851
0.288535
0.28482
0.280764
0.27642
0.271845
0.267107
0.262213
0.256994
0.251594
0.247816
0.277624
0.272915
0.272057