/*--------------------------------*- C++ -*----------------------------------*\
  =========                 |
  \\      /  F ield         | OpenFOAM: The Open Source CFD Toolbox
   \\    /   O peration     | Website:  https://openfoam.org
    \\  /    A nd           | Version:  7
     \\/     M anipulation  |
\*---------------------------------------------------------------------------*/
FoamFile
{
    version     2.0;
    format      ascii;
    class       surfaceScalarField;
    location    "20";
    object      phi;
}
// * * * * * * * * * * * * * * * * * * * * * * * * * * * * * * * * * * * * * //

dimensions      [0 3 -1 0 0 0 0];

internalField   nonuniform List<scalar> 
118190
(
-1.98324e-07
1.9832e-07
3.46696e-12
-7.74325e-07
5.75991e-07
1.03391e-11
-1.72283e-06
9.48483e-07
1.73828e-11
-3.0367e-06
1.31385e-06
2.46116e-11
-4.70666e-06
1.66993e-06
3.20195e-11
-6.72124e-06
2.01454e-06
3.9585e-11
-9.06673e-06
2.34544e-06
4.72925e-11
-1.17272e-05
2.66039e-06
5.51271e-11
-1.46844e-05
2.95719e-06
6.30677e-11
-1.79182e-05
3.23366e-06
7.10904e-11
-2.14059e-05
3.4877e-06
7.91621e-11
-2.51234e-05
3.71735e-06
8.72409e-11
-2.90443e-05
3.92083e-06
9.53038e-11
-3.3141e-05
4.09658e-06
1.03292e-10
-3.73844e-05
4.24335e-06
1.11166e-10
-4.17449e-05
4.36029e-06
1.1887e-10
-4.6192e-05
4.44701e-06
1.26351e-10
-5.06958e-05
4.50368e-06
1.33545e-10
-5.52271e-05
4.53117e-06
1.40392e-10
-5.97584e-05
4.53114e-06
1.46806e-10
-6.42647e-05
4.50613e-06
1.52691e-10
-6.87245e-05
4.4597e-06
1.5795e-10
-7.31212e-05
4.39648e-06
1.62471e-10
-7.74435e-05
4.32217e-06
1.66139e-10
-8.16873e-05
4.24357e-06
1.68834e-10
-8.58559e-05
4.16846e-06
1.70409e-10
-8.99613e-05
4.10526e-06
1.70735e-10
-9.40234e-05
4.06193e-06
1.69597e-10
-9.80705e-05
4.04694e-06
1.66785e-10
4.08017e-06
1.62101e-10
-0.000102151
-1.96738e-07
3.95058e-07
-7.67938e-07
1.14719e-06
-1.70823e-06
1.88878e-06
-3.01028e-06
2.6159e-06
-4.66459e-06
3.32424e-06
-6.65941e-06
4.00936e-06
-8.98077e-06
4.6668e-06
-1.16124e-05
5.29206e-06
-1.45359e-05
5.88067e-06
-1.77305e-05
6.42825e-06
-2.11734e-05
6.93059e-06
-2.48397e-05
7.38371e-06
-2.87029e-05
7.784e-06
-3.27347e-05
8.12831e-06
-3.69054e-05
8.41409e-06
-4.11847e-05
8.63956e-06
-4.55415e-05
8.80387e-06
-4.99452e-05
8.90734e-06
-5.43656e-05
8.95162e-06
-5.87745e-05
8.93996e-06
-6.31457e-05
8.87741e-06
-6.74571e-05
8.77105e-06
-7.16907e-05
8.63009e-06
-7.58345e-05
8.46599e-06
-7.98833e-05
8.29238e-06
-8.38398e-05
8.12488e-06
-8.7715e-05
7.98049e-06
-9.15284e-05
7.87533e-06
-9.53079e-05
7.82647e-06
7.874e-06
-9.91018e-05
-1.93579e-07
5.88637e-07
-7.55206e-07
1.70882e-06
-1.67913e-06
2.8127e-06
-2.95761e-06
3.89437e-06
-4.58067e-06
4.9473e-06
-6.53608e-06
5.96477e-06
-8.80932e-06
6.94004e-06
-1.13835e-05
7.86628e-06
-1.42396e-05
8.73673e-06
-1.73561e-05
9.54474e-06
-2.07094e-05
1.02839e-05
-2.42739e-05
1.09481e-05
-2.80218e-05
1.15319e-05
-3.19239e-05
1.20305e-05
-3.59496e-05
1.24397e-05
-4.00669e-05
1.27569e-05
-4.42436e-05
1.29806e-05
-4.84474e-05
1.31111e-05
-5.26466e-05
1.31508e-05
-5.6811e-05
1.31044e-05
-6.09129e-05
1.29792e-05
-6.49277e-05
1.27859e-05
-6.88359e-05
1.25383e-05
-7.26233e-05
1.22534e-05
-7.62829e-05
1.19519e-05
-7.98155e-05
1.16575e-05
-8.3231e-05
1.1396e-05
-8.65476e-05
1.11919e-05
-8.97926e-05
1.10715e-05
1.10955e-05
-9.30141e-05
-1.88866e-07
7.77503e-07
-7.3621e-07
2.25616e-06
-1.63571e-06
3.71221e-06
-2.87899e-06
5.13765e-06
-4.45539e-06
6.5237e-06
-6.35194e-06
7.86132e-06
-8.55329e-06
9.14138e-06
-1.10417e-05
1.03547e-05
-1.37971e-05
1.14921e-05
-1.67969e-05
1.25445e-05
-2.00163e-05
1.35034e-05
-2.34284e-05
1.43603e-05
-2.70042e-05
1.51077e-05
-3.07126e-05
1.57389e-05
-3.45214e-05
1.62484e-05
-3.83967e-05
1.66322e-05
-4.23043e-05
1.68881e-05
-4.62093e-05
1.70162e-05
-5.00778e-05
1.70193e-05
-5.38769e-05
1.69034e-05
-5.75759e-05
1.66782e-05
-6.11475e-05
1.63576e-05
-6.4569e-05
1.59597e-05
-6.78233e-05
1.55077e-05
-7.09005e-05
1.50291e-05
-7.3799e-05
1.4556e-05
-7.65263e-05
1.41233e-05
-7.90993e-05
1.37649e-05
-8.15442e-05
1.35164e-05
1.34602e-05
-8.39089e-05
-1.82632e-07
9.60135e-07
-7.11067e-07
2.7846e-06
-1.57822e-06
4.57936e-06
-2.77487e-06
6.3343e-06
-4.28945e-06
8.03828e-06
-6.10797e-06
9.67985e-06
-8.21402e-06
1.12474e-05
-1.05886e-05
1.27293e-05
-1.32104e-05
1.41139e-05
-1.60555e-05
1.53896e-05
-1.90974e-05
1.65453e-05
-2.23075e-05
1.75704e-05
-2.56548e-05
1.8455e-05
-2.91063e-05
1.91905e-05
-3.26274e-05
1.97695e-05
-3.61817e-05
2.01866e-05
-3.97321e-05
2.04385e-05
-4.32409e-05
2.0525e-05
-4.66707e-05
2.04491e-05
-4.9985e-05
2.02177e-05
-5.31494e-05
1.98426e-05
-5.61327e-05
1.93409e-05
-5.8908e-05
1.87351e-05
-6.14543e-05
1.80541e-05
-6.37579e-05
1.73327e-05
-6.58136e-05
1.66117e-05
-6.76263e-05
1.5936e-05
-6.92107e-05
1.53492e-05
-7.05916e-05
1.48974e-05
1.46851e-05
-7.18165e-05
-1.74915e-07
1.13505e-06
-6.79926e-07
3.28961e-06
-1.50699e-06
5.40642e-06
-2.64582e-06
7.47313e-06
-4.0837e-06
9.47617e-06
-5.80542e-06
1.14016e-05
-7.79318e-06
1.32352e-05
-1.00266e-05
1.49627e-05
-1.24825e-05
1.65698e-05
-1.51354e-05
1.80424e-05
-1.79568e-05
1.93667e-05
-2.0916e-05
2.05295e-05
-2.39796e-05
2.15186e-05
-2.71121e-05
2.2323e-05
-3.02759e-05
2.29332e-05
-3.34315e-05
2.33422e-05
-3.65384e-05
2.35454e-05
-3.9555e-05
2.35416e-05
-4.24398e-05
2.33339e-05
-4.51519e-05
2.29298e-05
-4.76521e-05
2.23429e-05
-4.99043e-05
2.1593e-05
-5.18763e-05
2.07071e-05
-5.35422e-05
1.972e-05
-5.48834e-05
1.86739e-05
-5.58903e-05
1.76186e-05
-5.65643e-05
1.66099e-05
-5.69175e-05
1.57025e-05
-5.69732e-05
1.49531e-05
1.44895e-05
-5.67776e-05
-1.65761e-07
1.30081e-06
-6.42964e-07
3.76681e-06
-1.42239e-06
6.18584e-06
-2.4925e-06
8.54324e-06
-3.8392e-06
1.08229e-05
-5.44575e-06
1.30081e-05
-7.29276e-06
1.50822e-05
-9.35803e-06
1.7028e-05
-1.16166e-05
1.88284e-05
-1.40406e-05
2.04665e-05
-1.65996e-05
2.19257e-05
-1.926e-05
2.319e-05
-2.19859e-05
2.42445e-05
-2.47385e-05
2.50756e-05
-2.74768e-05
2.56716e-05
-3.01578e-05
2.60232e-05
-3.27366e-05
2.61242e-05
-3.51672e-05
2.59722e-05
-3.7403e-05
2.55697e-05
-3.93979e-05
2.49247e-05
-4.1107e-05
2.40519e-05
-4.24879e-05
2.29739e-05
-4.35025e-05
2.17217e-05
-4.41185e-05
2.0336e-05
-4.43115e-05
1.88668e-05
-4.40665e-05
1.73737e-05
-4.33807e-05
1.59241e-05
-4.22637e-05
1.45855e-05
-4.07372e-05
1.34266e-05
1.25955e-05
-3.88432e-05
-1.55221e-07
1.45603e-06
-6.00372e-07
4.21196e-06
-1.32486e-06
6.91034e-06
-2.31566e-06
9.53403e-06
-3.55705e-06
1.20643e-05
-5.03059e-06
1.44817e-05
-6.71495e-06
1.67665e-05
-8.58592e-06
1.88989e-05
-1.06163e-05
2.08588e-05
-1.27758e-05
2.2626e-05
-1.50312e-05
2.41811e-05
-1.73462e-05
2.5505e-05
-1.96815e-05
2.65797e-05
-2.19948e-05
2.73889e-05
-2.42413e-05
2.7918e-05
-2.63734e-05
2.81553e-05
-2.83417e-05
2.80924e-05
-3.00947e-05
2.77253e-05
-3.15803e-05
2.70553e-05
-3.27459e-05
2.60903e-05
-3.35399e-05
2.48459e-05
-3.39129e-05
2.33468e-05
-3.38194e-05
2.16282e-05
-3.32196e-05
1.97363e-05
-3.20821e-05
1.77293e-05
-3.03857e-05
1.56773e-05
-2.81221e-05
1.36605e-05
-2.52988e-05
1.17622e-05
-2.19464e-05
1.00742e-05
8.7205e-06
-1.80714e-05
-1.43349e-07
1.59938e-06
-5.52352e-07
4.62097e-06
-1.21484e-06
7.57282e-06
-2.11606e-06
1.04353e-05
-3.23848e-06
1.31867e-05
-4.56164e-06
1.58048e-05
-6.06208e-06
1.8267e-05
-7.71327e-06
2.05501e-05
-9.48545e-06
2.2631e-05
-1.13457e-05
2.44862e-05
-1.32576e-05
2.6093e-05
-1.51817e-05
2.74291e-05
-1.7075e-05
2.8473e-05
-1.88913e-05
2.92052e-05
-2.05813e-05
2.9608e-05
-2.20926e-05
2.96666e-05
-2.33702e-05
2.93701e-05
-2.43569e-05
2.8712e-05
-2.49938e-05
2.76922e-05
-2.52212e-05
2.63177e-05
-2.49799e-05
2.46045e-05
-2.4212e-05
2.2579e-05
-2.28637e-05
2.02799e-05
-2.08865e-05
1.77591e-05
-1.82405e-05
1.50833e-05
-1.48971e-05
1.23339e-05
-1.08417e-05
9.605e-06
-6.07067e-06
6.99118e-06
-5.91549e-07
4.59505e-06
2.69557e-06
5.43338e-06
-1.30197e-07
1.72958e-06
-4.99109e-07
4.98988e-06
-1.09277e-06
8.16648e-06
-1.8945e-06
1.1237e-05
-2.88468e-06
1.41769e-05
-4.04063e-06
1.69608e-05
-5.3365e-06
1.95629e-05
-6.74315e-06
2.19568e-05
-8.22804e-06
2.41158e-05
-9.75513e-06
2.60133e-05
-1.12848e-05
2.76227e-05
-1.27738e-05
2.89181e-05
-1.41753e-05
2.98745e-05
-1.54385e-05
3.04684e-05
-1.65092e-05
3.06788e-05
-1.73298e-05
3.04872e-05
-1.78392e-05
2.98795e-05
-1.79736e-05
2.88464e-05
-1.76666e-05
2.73853e-05
-1.68507e-05
2.55018e-05
-1.54576e-05
2.32114e-05
-1.34204e-05
2.05418e-05
-1.06751e-05
1.75346e-05
-7.16366e-06
1.42476e-05
-2.83633e-06
1.0756e-05
2.34421e-06
7.15339e-06
8.3992e-06
3.55001e-06
1.53292e-05
6.11423e-08
2.31049e-05
-3.18065e-06
-5.90963e-06
3.17101e-05
-1.15817e-07
1.84539e-06
-4.40838e-07
5.3149e-06
-9.59082e-07
8.68472e-06
-1.65172e-06
1.19296e-05
-2.49682e-06
1.5022e-05
-3.46925e-06
1.79332e-05
-4.54051e-06
2.06341e-05
-5.67859e-06
2.30949e-05
-6.84788e-06
2.52851e-05
-8.00901e-06
2.71745e-05
-9.11873e-06
2.87324e-05
-1.01298e-05
2.99292e-05
-1.0991e-05
3.07356e-05
-1.16467e-05
3.11242e-05
-1.20376e-05
3.10696e-05
-1.21e-05
3.05495e-05
-1.17662e-05
2.95457e-05
-1.09652e-05
2.80453e-05
-9.62263e-06
2.60427e-05
-7.66189e-06
2.3541e-05
-5.00508e-06
2.05546e-05
-1.57467e-06
1.71114e-05
2.70435e-06
1.32556e-05
7.90168e-06
9.0503e-06
1.40781e-05
4.57955e-06
2.12812e-05
-4.97169e-08
2.95404e-05
-4.70919e-06
3.88622e-05
-9.26069e-06
4.92278e-05
-1.35462e-05
-1.72597e-05
6.05778e-05
-1.00255e-07
1.94565e-06
-3.77719e-07
5.59236e-06
-8.14176e-07
9.12118e-06
-1.38842e-06
1.25039e-05
-2.076e-06
1.57095e-05
-2.84907e-06
1.87063e-05
-3.67624e-06
2.14613e-05
-4.5224e-06
2.3941e-05
-5.34861e-06
2.61113e-05
-6.11186e-06
2.79377e-05
-6.765e-06
2.93856e-05
-7.25651e-06
3.04207e-05
-7.53041e-06
3.10095e-05
-7.52611e-06
3.11199e-05
-7.17836e-06
3.07219e-05
-6.4172e-06
2.97884e-05
-5.16801e-06
2.82965e-05
-3.35178e-06
2.62291e-05
-8.85454e-07
2.35764e-05
2.31735e-06
2.03382e-05
6.34526e-06
1.65267e-05
1.12875e-05
1.21691e-05
1.72316e-05
7.31148e-06
2.42604e-05
2.02158e-06
3.24474e-05
-3.60747e-06
4.18522e-05
-9.45458e-06
5.25142e-05
-1.53712e-05
6.44466e-05
-2.11931e-05
7.76311e-05
-2.67306e-05
-3.1625e-05
9.19964e-05
-8.35528e-08
2.0292e-06
-3.09907e-07
5.81872e-06
-6.58398e-07
9.46967e-06
-1.10522e-06
1.29507e-05
-1.62317e-06
1.62275e-05
-2.18147e-06
1.92646e-05
-2.7456e-06
2.20254e-05
-3.27712e-06
2.44725e-05
-3.73347e-06
2.65677e-05
-4.06779e-06
2.8272e-05
-4.22873e-06
2.95465e-05
-4.16021e-06
3.03521e-05
-3.80126e-06
3.06505e-05
-3.08583e-06
3.04045e-05
-1.94259e-06
2.95787e-05
-2.9488e-07
2.81407e-05
1.9394e-06
2.60622e-05
4.84765e-06
2.33209e-05
8.5223e-06
1.99018e-05
1.30602e-05
1.58003e-05
1.85617e-05
1.10252e-05
2.51289e-05
5.60195e-06
3.28633e-05
-4.22898e-07
4.18623e-05
-6.97736e-06
5.22143e-05
-1.39595e-05
6.39928e-05
-2.12331e-05
7.72488e-05
-2.86271e-05
9.20028e-05
-3.59471e-05
0.000108237
-4.29651e-05
-4.92584e-05
0.000125871
-6.5741e-08
2.09494e-06
-2.37529e-07
5.99051e-06
-4.92033e-07
9.72418e-06
-8.02632e-07
1.32613e-05
-1.13914e-06
1.6564e-05
-1.46763e-06
1.95931e-05
-1.75022e-06
2.2308e-05
-1.9449e-06
2.46672e-05
-2.00526e-06
2.66281e-05
-1.88035e-06
2.81471e-05
-1.51435e-06
2.91805e-05
-8.46369e-07
2.96842e-05
1.89806e-07
2.96144e-05
1.66599e-06
2.89283e-05
3.65985e-06
2.75848e-05
6.2551e-06
2.55454e-05
9.54166e-06
2.27757e-05
1.36158e-05
1.92468e-05
1.85797e-05
1.49378e-05
2.45416e-05
9.83844e-06
3.16142e-05
3.95259e-06
3.99136e-05
-2.6975e-06
4.95568e-05
-1.0066e-05
6.06575e-05
-1.8078e-05
7.33211e-05
-2.66231e-05
8.76373e-05
-3.55493e-05
0.00010367
-4.46603e-05
0.00012145
-5.37264e-05
0.000140958
-6.24734e-05
-7.04184e-05
0.000162118
-4.68432e-08
2.14179e-06
-1.60678e-07
6.10434e-06
-3.15294e-07
9.87879e-06
-4.81039e-07
1.3427e-05
-6.24536e-07
1.67075e-05
-7.08473e-07
1.9677e-05
-6.91395e-07
2.22909e-05
-5.27472e-07
2.45033e-05
-1.66257e-07
2.62668e-05
4.47578e-07
2.75333e-05
1.37452e-06
2.82536e-05
2.68051e-06
2.83782e-05
4.43725e-06
2.78576e-05
6.72257e-06
2.6643e-05
9.62069e-06
2.46867e-05
1.32226e-05
2.19435e-05
1.76265e-05
1.83718e-05
2.29375e-05
1.39357e-05
2.92684e-05
8.6069e-06
3.67389e-05
2.36797e-06
4.54751e-05
-4.78359e-06
5.56081e-05
-1.28305e-05
6.72715e-05
-2.17295e-05
8.05976e-05
-3.14041e-05
9.5711e-05
-4.17365e-05
0.00011272
-5.25583e-05
0.000131705
-6.36452e-05
0.000152705
-7.47263e-05
0.000175701
-8.54694e-05
-9.52881e-05
0.00020057
-2.68727e-08
2.16866e-06
-7.94137e-08
6.15688e-06
-1.28323e-07
9.9277e-06
-1.40711e-07
1.34394e-05
-7.97928e-08
1.66466e-05
9.53367e-08
1.95019e-05
4.29933e-07
2.19563e-05
9.73853e-07
2.39594e-05
1.78183e-06
2.54589e-05
2.91378e-06
2.64013e-05
4.43507e-06
2.67323e-05
6.41693e-06
2.63963e-05
8.93677e-06
2.53378e-05
1.20786e-05
2.35012e-05
1.59334e-05
2.08319e-05
2.05997e-05
1.72772e-05
2.61839e-05
1.27877e-05
3.28006e-05
7.31905e-06
4.0573e-05
8.3449e-07
4.96329e-05
-6.69195e-06
6.01203e-05
-1.5271e-05
7.21822e-05
-2.48924e-05
8.59703e-05
-3.55176e-05
0.000101637
-4.70709e-05
0.000119329
-5.94284e-05
0.000139177
-7.2406e-05
0.000161281
-8.57493e-05
0.000185695
-9.91399e-05
0.000212402
-0.000112177
-0.00012416
0.000241274
-5.83525e-09
2.17449e-06
6.23693e-09
6.14481e-06
6.88029e-08
9.86513e-06
2.18194e-07
1.329e-05
4.9481e-07
1.637e-05
9.43359e-07
1.90533e-05
1.61311e-06
2.12866e-05
2.55818e-06
2.30143e-05
3.83779e-06
2.41792e-05
5.51667e-06
2.47225e-05
7.6653e-06
2.45836e-05
1.03604e-05
2.37012e-05
1.36852e-05
2.20129e-05
1.77302e-05
1.94562e-05
2.25933e-05
1.59688e-05
2.83805e-05
1.14899e-05
3.52067e-05
5.96152e-06
4.31958e-05
-6.70082e-07
5.24818e-05
-8.45147e-06
6.32085e-05
-1.74187e-05
7.55303e-05
-2.75927e-05
8.96104e-05
-3.89726e-05
0.00010562
-5.15272e-05
0.000123734
-6.51845e-05
0.000144123
-7.98173e-05
0.000166944
-9.5227e-05
0.000192322
-0.000111128
0.00022033
-0.000127148
0.000250959
-0.000142806
-0.000157266
0.000284064
1.62749e-08
2.15822e-06
9.62748e-08
6.06481e-06
2.76064e-07
9.68534e-06
5.95611e-07
1.29705e-05
1.09913e-06
1.58665e-05
1.83534e-06
1.83171e-05
2.85774e-06
2.02642e-05
4.2249e-06
2.16471e-05
6.00081e-06
2.24033e-05
8.25517e-06
2.24681e-05
1.10638e-05
2.1775e-05
1.45092e-05
2.02559e-05
1.86806e-05
1.78415e-05
2.36749e-05
1.44618e-05
2.95973e-05
1.00465e-05
3.65613e-05
4.52595e-06
4.46901e-05
-2.1673e-06
5.41171e-05
-1.00971e-05
6.49868e-05
-1.93211e-05
7.74551e-05
-2.98871e-05
9.16904e-05
-4.1828e-05
0.000107873
-5.5155e-05
0.000126194
-6.98479e-05
0.000146851
-8.58418e-05
0.000170043
-0.00010301
0.000195959
-0.000121142
0.000224753
-0.000139922
0.000256524
-0.000158919
0.000291273
-0.000177554
-0.00019483
0.000328837
3.94631e-08
2.11876e-06
1.90714e-07
5.91356e-06
4.93473e-07
9.38259e-06
9.91527e-07
1.24724e-05
1.7331e-06
1.51249e-05
2.77112e-06
1.72791e-05
4.16354e-06
1.88718e-05
5.97362e-06
1.98371e-05
8.27028e-06
2.01067e-05
1.11285e-05
1.96099e-05
1.46297e-05
1.82738e-05
1.88621e-05
1.60235e-05
2.39214e-05
1.27822e-05
2.99111e-05
8.47205e-06
3.69435e-05
3.01412e-06
4.51398e-05
-3.67038e-06
5.46316e-05
-1.16591e-05
6.55614e-05
-2.10269e-05
7.80837e-05
-3.18435e-05
9.23665e-05
-4.41698e-05
0.000108592
-5.80531e-05
0.000126956
-7.35193e-05
0.00014767
-9.05625e-05
0.000170959
-0.00010913
0.000197049
-0.000129101
0.000226165
-0.000150258
0.000258501
-0.000172258
0.000294188
-0.000194606
0.000333247
-0.000216613
-0.000237082
0.000375499
6.3741e-08
2.05502e-06
2.89578e-07
5.68772e-06
7.21047e-07
8.95112e-06
1.40593e-06
1.17875e-05
2.39665e-06
1.41342e-05
3.75056e-06
1.59252e-05
5.53023e-06
1.70921e-05
7.80386e-06
1.75634e-05
1.06456e-05
1.7265e-05
1.41358e-05
1.61197e-05
1.83618e-05
1.40479e-05
2.34179e-05
1.09674e-05
2.94063e-05
6.79385e-06
3.64374e-05
1.44095e-06
4.46305e-05
-5.17906e-06
5.41149e-05
-1.31547e-05
6.50301e-05
-2.25743e-05
7.75275e-05
-3.35243e-05
9.17715e-05
-4.60875e-05
0.000107941
-6.03392e-05
0.000126231
-7.63427e-05
0.000146853
-9.41416e-05
0.000170038
-0.000113748
0.000196036
-0.000135127
0.000225107
-0.000158171
0.000257513
-0.000182665
0.000293497
-0.000208241
0.000333235
-0.000234345
0.000376782
-0.00026016
-0.000284248
0.000423948
8.91159e-08
1.9659e-06
3.92877e-07
5.38396e-06
9.5878e-07
8.38521e-06
1.83877e-06
1.09075e-05
3.08963e-06
1.28833e-05
4.77333e-06
1.42415e-05
6.95732e-06
1.49081e-05
9.71493e-06
1.48058e-05
1.31257e-05
1.38542e-05
1.72758e-05
1.19695e-05
2.22586e-05
9.06508e-06
2.81748e-05
5.05115e-06
3.51334e-05
-1.64695e-07
4.32517e-05
-6.6774e-06
5.26566e-05
-1.4584e-05
6.3485e-05
-2.39831e-05
7.58846e-05
-3.49739e-05
9.00153e-05
-4.76551e-05
0.000106051
-6.21229e-05
0.00012418
-7.84682e-05
0.000144609
-9.67716e-05
0.000167564
-0.000117097
0.000193294
-0.000139478
0.000222072
-0.000163905
0.000254192
-0.000190291
0.000289961
-0.000218434
0.000329677
-0.000247957
0.000373581
-0.000278248
0.000421777
-0.000308356
-0.000336551
0.00047408
1.15589e-07
1.85031e-06
5.00591e-07
4.99896e-06
1.2066e-06
7.67921e-06
2.28985e-06
9.82429e-06
3.81169e-06
1.13615e-05
5.83887e-06
1.22143e-05
8.44392e-06
1.2303e-05
1.17055e-05
1.15442e-05
1.5709e-05
9.85078e-06
2.05464e-05
7.13208e-06
2.63175e-05
3.29397e-06
3.31298e-05
-1.76113e-06
4.10992e-05
-8.13406e-06
5.03505e-05
-1.59287e-05
6.10181e-05
-2.52516e-05
7.32468e-05
-3.62118e-05
8.71925e-05
-4.89196e-05
0.000103023
-6.3486e-05
0.000120922
-8.00212e-05
0.000141085
-9.86316e-05
0.00016373
-0.000119416
0.000189094
-0.000142461
0.000217442
-0.000167826
0.000249067
-0.00019553
0.000284296
-0.00022552
0.000323482
-0.000257621
0.00036699
-0.000291464
0.000415142
-0.000326401
0.000468126
-0.00036134
-0.000394213
0.000525788
1.4315e-07
1.70716e-06
6.12659e-07
4.52945e-06
1.46432e-06
6.82755e-06
2.75882e-06
8.52979e-06
4.56218e-06
9.5581e-06
6.94614e-06
9.83035e-06
9.98852e-06
9.26066e-06
1.37736e-05
7.75913e-06
1.83926e-05
5.23179e-06
2.3944e-05
1.58066e-06
3.05342e-05
-3.29619e-06
3.82776e-05
-9.50459e-06
4.72977e-05
-1.71541e-05
5.77269e-05
-2.63579e-05
6.97077e-05
-3.72324e-05
8.3393e-05
-4.98971e-05
9.8947e-05
-6.44736e-05
0.000116546
-8.10853e-05
0.000136381
-9.9856e-05
0.000158657
-0.000120908
0.000183599
-0.000144358
0.000211454
-0.000170316
0.000242496
-0.000198868
0.000277036
-0.00023007
0.000315427
-0.000263911
0.000358069
-0.000300263
0.000405399
-0.000338794
0.000457848
-0.000378849
0.000515728
-0.00041922
-0.000457449
0.000578964
1.71773e-07
1.53539e-06
7.28956e-07
3.97227e-06
1.73163e-06
5.82487e-06
3.24504e-06
7.01638e-06
5.34005e-06
7.46309e-06
8.09354e-06
7.07687e-06
1.15888e-05
5.76542e-06
1.59159e-05
3.432e-06
2.11723e-05
-2.46289e-08
2.74632e-05
-4.71017e-06
3.49017e-05
-1.07347e-05
4.361e-05
-1.82128e-05
5.37191e-05
-2.72632e-05
6.53697e-05
-3.80086e-05
7.87129e-05
-5.05756e-05
9.39101e-05
-6.50943e-05
0.000111134
-8.16979e-05
0.000130571
-0.000100522
0.000152418
-0.000121703
0.000176889
-0.000145379
0.000204215
-0.000171684
0.000234649
-0.000200749
0.000268472
-0.000232691
0.000306002
-0.000267601
0.000347613
-0.000305521
0.000393741
-0.000346391
0.000444898
-0.000389952
0.000501647
-0.000435598
0.000564485
-0.000482058
-0.000526467
0.000633503
2.01412e-07
1.33397e-06
8.49281e-07
3.3244e-06
2.00805e-06
4.6661e-06
3.74762e-06
5.27682e-06
6.1438e-06
5.06691e-06
9.27874e-06
3.94192e-06
1.32414e-05
1.80277e-06
1.81279e-05
-1.45452e-06
2.40421e-05
-5.93885e-06
3.10961e-05
-1.17641e-05
3.94104e-05
-1.9049e-05
4.91148e-05
-2.79173e-05
6.03488e-05
-3.84972e-05
7.32618e-05
-5.09216e-05
8.80138e-05
-6.53276e-05
0.000104776
-8.18564e-05
0.00012373
-0.000100652
0.000145072
-0.000121863
0.000169008
-0.000145639
0.000195759
-0.00017213
0.000225563
-0.000201488
0.000258676
-0.000233862
0.000295381
-0.000269396
0.000335997
-0.000308217
0.000380902
-0.000350426
0.000430554
-0.000396043
0.00048553
-0.000444928
0.000546535
-0.000496603
0.000614325
-0.000549849
-0.000601452
0.000689311
2.32e-07
1.10198e-06
9.73353e-07
2.58305e-06
2.29292e-06
3.34654e-06
4.2653e-06
3.30443e-06
6.97137e-06
2.36084e-06
1.04987e-05
4.14602e-07
1.4942e-05
-2.64052e-06
2.04036e-05
-6.91612e-06
2.6994e-05
-1.25293e-05
3.48323e-05
-1.96025e-05
4.40469e-05
-2.82636e-05
5.47756e-05
-3.8646e-05
6.71667e-05
-5.08882e-05
8.13787e-05
-6.51336e-05
9.75816e-05
-8.15305e-05
0.000115957
-0.000100231
0.000136697
-0.000121393
0.000160007
-0.000145174
0.000186106
-0.000171738
0.000215223
-0.000201248
0.000247604
-0.000233869
0.000283508
-0.000269766
0.000323217
-0.000309105
0.000367045
-0.000352045
0.000415357
-0.000398737
0.000468609
-0.000449296
0.000527409
-0.000503729
0.000592592
-0.000561786
0.000665239
-0.000622496
-0.000682536
0.000746323
2.63447e-07
8.38528e-07
1.1008e-06
1.74569e-06
2.58537e-06
1.86197e-06
4.79651e-06
1.09328e-06
7.82021e-06
-6.62857e-07
1.17495e-05
-3.51469e-06
1.6685e-05
-7.57599e-06
2.27353e-05
-1.29664e-05
3.00178e-05
-1.98117e-05
3.86588e-05
-2.82435e-05
4.87945e-05
-3.83993e-05
6.05713e-05
-5.04228e-05
7.41463e-05
-6.44632e-05
8.96882e-05
-8.06754e-05
0.000107377
-9.92194e-05
0.000127406
-0.00012026
0.000149979
-0.000143966
0.000175314
-0.000170509
0.000203642
-0.000200065
0.000235205
-0.000232811
0.000270259
-0.000268923
0.000309073
-0.00030858
0.000351929
-0.000351961
0.000399134
-0.00039925
0.000451029
-0.000450633
0.000508039
-0.000506305
0.000570747
-0.000566437
0.000640049
-0.000631088
0.000717357
-0.000699803
-0.000769746
0.000804567
2.95645e-07
5.42883e-07
1.23119e-06
8.1014e-07
2.88438e-06
2.08781e-07
5.33937e-06
-1.36171e-06
8.68726e-06
-4.01074e-06
1.30266e-05
-7.85401e-06
1.84639e-05
-1.30133e-05
2.51141e-05
-1.96167e-05
3.31014e-05
-2.7799e-05
4.25596e-05
-3.77017e-05
5.36328e-05
-4.94725e-05
6.64758e-05
-6.32659e-05
8.12553e-05
-7.92427e-05
9.81499e-05
-9.757e-05
0.000117351
-0.00011842
0.000139062
-0.000141971
0.000163503
-0.000168406
0.000190904
-0.00019791
0.000221511
-0.000230673
0.000255585
-0.000266884
0.000293397
-0.000306735
0.000335233
-0.000350416
0.000381389
-0.000398117
0.000432173
-0.000450033
0.00048791
-0.000506371
0.000548972
-0.000567366
0.000615853
-0.000633318
0.000689357
-0.000704592
0.000771075
-0.000781521
-0.000863093
0.000864421
3.28468e-07
2.14415e-07
1.36401e-06
-2.25404e-07
3.1888e-06
-1.61601e-06
5.89174e-06
-4.06465e-06
9.56905e-06
-7.68805e-06
1.43247e-05
-1.26097e-05
2.02712e-05
-1.89597e-05
2.75297e-05
-2.68752e-05
3.62312e-05
-3.65005e-05
4.65167e-05
-4.79872e-05
5.85383e-05
-6.1494e-05
7.24594e-05
-7.7187e-05
8.84557e-05
-9.52391e-05
0.000106716
-0.00011583
0.000127443
-0.000139147
0.000150852
-0.000165381
0.000177176
-0.00019473
0.000206663
-0.000227397
0.000239576
-0.000263586
0.000276196
-0.000303504
0.00031682
-0.000347359
0.000361761
-0.000395358
0.00041135
-0.000447706
0.000465926
-0.00050461
0.000525839
-0.000566284
0.000591449
-0.000632977
0.000663161
-0.000705029
0.000741482
-0.000782913
0.000827523
-0.000867562
-0.000962584
0.000927014
3.61779e-07
-1.47364e-07
1.49871e-06
-1.36233e-06
3.49735e-06
-3.61464e-06
6.4513e-06
-7.01861e-06
1.04618e-05
-1.16986e-05
1.56383e-05
-1.77861e-05
2.20988e-05
-2.54202e-05
2.99709e-05
-3.47473e-05
3.93921e-05
-4.59217e-05
5.05104e-05
-5.91056e-05
6.34855e-05
-7.44691e-05
7.84889e-05
-9.21905e-05
9.57054e-05
-0.000112456
0.000115333
-0.000135458
0.000137585
-0.000161399
0.00016269
-0.000190486
0.000190894
-0.000222934
0.000222458
-0.000258962
0.000257667
-0.000298795
0.000296824
-0.000342661
0.000340256
-0.000390791
0.000388318
-0.00044342
0.000441394
-0.000500782
0.000499906
-0.000563121
0.000564316
-0.000630694
0.000635144
-0.000703805
0.000712988
-0.000782873
0.000798408
-0.000868334
0.000891253
-0.000960407
-0.0010647
0.000993372
3.95436e-07
-5.42799e-07
1.63472e-06
-2.60162e-06
3.80872e-06
-5.78864e-06
7.01565e-06
-1.02255e-05
1.13617e-05
-1.60446e-05
1.69614e-05
-2.33858e-05
2.39384e-05
-3.23973e-05
3.24262e-05
-4.32351e-05
4.25684e-05
-5.60639e-05
5.45199e-05
-7.10571e-05
6.84473e-05
-8.83965e-05
8.45298e-05
-0.000108273
0.00010296
-0.000130886
0.000123945
-0.000156443
0.000147707
-0.000185161
0.000174486
-0.000217265
0.000204538
-0.000252986
0.00023814
-0.000292564
0.000275592
-0.000336247
0.000317219
-0.000384288
0.000363377
-0.000436949
0.00041446
-0.000494503
0.000470915
-0.000557237
0.000533265
-0.00062547
0.000602149
-0.000699578
0.000678416
-0.000780072
0.000763296
-0.000867753
0.000858943
-0.000963981
0.000970595
-0.00107206
-0.00120475
0.00111064
4.293e-07
-9.72099e-07
1.77148e-06
-3.9438e-06
4.12161e-06
-8.13877e-06
7.58241e-06
-1.36863e-05
1.22647e-05
-2.07269e-05
1.82881e-05
-2.94093e-05
2.57816e-05
-3.98907e-05
3.48839e-05
-5.23374e-05
4.57447e-05
-6.69247e-05
5.85248e-05
-8.38372e-05
7.33971e-05
-0.000103269
9.05474e-05
-0.000125423
0.000110175
-0.000150514
0.000132495
-0.000178763
0.000157737
-0.000210403
0.000186148
-0.000245675
0.000217993
-0.000284831
0.00025356
-0.000328131
0.000293159
-0.000375846
0.000337128
-0.000428257
0.00038584
-0.000485661
0.000439713
-0.000548375
0.000499222
-0.000616747
0.000564935
-0.000691183
0.000637551
-0.000772194
0.000717972
-0.000860493
0.000807417
-0.000957198
0.000907615
-0.00106418
0.00102069
-0.00118514
-0.00132826
0.0011442
4.6324e-07
-1.43534e-06
1.90845e-06
-5.38901e-06
4.4348e-06
-1.06651e-05
8.14929e-06
-1.74008e-05
1.31673e-05
-2.57448e-05
1.9613e-05
-3.5855e-05
2.76202e-05
-4.7898e-05
3.7333e-05
-6.20502e-05
4.89059e-05
-7.84976e-05
6.25051e-05
-9.74364e-05
7.8309e-05
-0.000119073
9.65088e-05
-0.000143623
0.00011731
-0.000171314
0.000140931
-0.000202384
0.000167607
-0.00023708
0.000197592
-0.00027566
0.000231154
-0.000318394
0.000268585
-0.000365562
0.000310198
-0.000417459
0.000356332
-0.000474392
0.000407361
-0.00053669
0.000463698
-0.000604711
0.000525805
-0.000678855
0.000594217
-0.000759596
0.000669556
-0.000847533
0.000752547
-0.000943484
0.000843996
-0.00104865
0.000944667
-0.00116485
0.0010546
-0.00129508
-0.00144383
0.00117017
4.97141e-07
-1.93248e-06
2.04516e-06
-6.93703e-06
4.74716e-06
-1.33671e-05
8.7142e-06
-2.13679e-05
1.40658e-05
-3.10965e-05
2.09307e-05
-4.27198e-05
2.94469e-05
-5.64142e-05
3.9763e-05
-7.23662e-05
5.2038e-05
-9.07727e-05
6.64427e-05
-0.000111841
8.31595e-05
-0.00013579
0.000102384
-0.000162847
0.000124324
-0.000193255
0.000149204
-0.000227263
0.00017726
-0.000265135
0.000208745
-0.000307145
0.000243931
-0.000353579
0.000283104
-0.000404736
0.000326574
-0.000460928
0.00037467
-0.000522488
0.000427747
-0.000589768
0.00048619
-0.000663154
0.000550416
-0.00074308
0.000620876
-0.000830056
0.000698051
-0.000924707
0.00078242
-0.00102785
0.000874372
-0.0011406
0.000973994
-0.00126447
0.00108052
-0.00140161
-0.00155442
0.00119112
5.30902e-07
-2.46338e-06
2.18119e-06
-8.58732e-06
5.05768e-06
-1.62436e-05
9.27528e-06
-2.55855e-05
1.49574e-05
-3.67786e-05
2.22366e-05
-4.9999e-05
3.1255e-05
-6.54326e-05
4.21647e-05
-8.3276e-05
5.51287e-05
-0.000103737
7.03211e-05
-0.000127033
8.79276e-05
-0.000153396
0.000108146
-0.000183066
0.000131187
-0.000216296
0.000157274
-0.00025335
0.000186645
-0.000294506
0.000219549
-0.00034005
0.000256253
-0.000390283
0.000297037
-0.000445519
0.000342195
-0.000506087
0.000392039
-0.000572331
0.000446894
-0.000644623
0.0005071
-0.00072336
0.000573008
-0.000808988
0.000644969
-0.000902017
0.000723313
-0.00100305
0.0008083
-0.00111284
0.000900017
-0.00123232
0.000998202
-0.00136266
0.0011019
-0.0015053
-0.00166156
0.00120903
5.64438e-07
-3.02782e-06
2.31616e-06
-1.0339e-05
5.36551e-06
-1.9293e-05
9.83089e-06
-3.00508e-05
1.58393e-05
-4.2787e-05
2.35266e-05
-5.76863e-05
3.30383e-05
-7.49443e-05
4.45299e-05
-9.47675e-05
5.8167e-05
-0.000117374
7.41262e-05
-0.000142993
9.25951e-05
-0.000171865
0.000113773
-0.000204244
0.00013787
-0.000240393
0.000165108
-0.000280589
0.000195722
-0.00032512
0.000229957
-0.000374285
0.00026807
-0.000428396
0.000310326
-0.000487776
0.000357004
-0.000552765
0.000408387
-0.000623714
0.000464764
-0.000701
0.000526424
-0.00078502
0.000593645
-0.000876209
0.000666679
-0.000975051
0.000745726
-0.0010821
0.000830877
-0.00119799
0.000922031
-0.00132347
0.00101877
-0.0014594
0.00112018
-0.00160672
-0.0017661
0.00122473
5.97684e-07
-3.6255e-06
2.44979e-06
-1.21911e-05
5.66989e-06
-2.25131e-05
1.03796e-05
-3.47605e-05
1.6709e-05
-4.91164e-05
2.4797e-05
-6.57743e-05
3.47918e-05
-8.49392e-05
4.68513e-05
-0.000106827
6.11432e-05
-0.000131666
7.78455e-05
-0.000159695
9.71464e-05
-0.000191166
0.000119245
-0.000226342
0.000144349
-0.000265497
0.000172679
-0.000308919
0.000204462
-0.000356903
0.000239935
-0.000409758
0.000279343
-0.000467804
0.000322937
-0.00053137
0.00037097
-0.000600797
0.000423695
-0.00067644
0.000481362
-0.000758667
0.000544206
-0.000847863
0.000612436
-0.000944439
0.000686218
-0.00104883
0.000765643
-0.00116152
0.000850686
-0.00128303
0.000941136
-0.00141392
0.00103652
-0.00155478
0.00113602
-0.00170622
-0.00186852
0.00123843
6.30581e-07
-4.25609e-06
2.58181e-06
-1.41424e-05
5.97019e-06
-2.59015e-05
1.09202e-05
-3.97106e-05
1.75646e-05
-5.57607e-05
2.60446e-05
-7.42544e-05
3.65108e-05
-9.54053e-05
4.91226e-05
-0.000119439
6.40489e-05
-0.000146592
8.14681e-05
-0.000177114
0.000101568
-0.000211266
0.000124545
-0.000249319
0.000150606
-0.000291558
0.000179963
-0.000338276
0.000212838
-0.000389777
0.000249456
-0.000446376
0.000290048
-0.000508396
0.000334845
-0.000576167
0.000384075
-0.000650027
0.00043796
-0.000730325
0.000496707
-0.000817414
0.000560501
-0.000911657
0.000629488
-0.00101343
0.000703761
-0.00112311
0.00078333
-0.00124109
0.000868085
-0.00136779
0.000957755
-0.00150359
0.00105185
-0.00164888
0.00114964
-0.001804
-0.001969
0.00125013
6.63081e-07
-4.91917e-06
2.71198e-06
-1.61913e-05
6.26583e-06
-2.94553e-05
1.14515e-05
-4.48962e-05
1.8404e-05
-6.27132e-05
2.72665e-05
-8.3117e-05
3.8191e-05
-0.00010633
5.13379e-05
-0.000132586
6.68763e-05
-0.000162131
8.49842e-05
-0.000195222
0.000105847
-0.000232129
0.00012966
-0.000273132
0.000156622
-0.00031852
0.000186942
-0.000368595
0.000220829
-0.000423665
0.000258498
-0.000484045
0.000300162
-0.00055006
0.000346031
-0.000622036
0.000396308
-0.000700304
0.000451181
-0.000785198
0.000510817
-0.000877051
0.000575354
-0.000976194
0.000644884
-0.00108296
0.000719436
-0.00119766
0.000798957
-0.00132061
0.000883281
-0.00145211
0.000972098
-0.00159241
0.00106492
-0.0017417
0.00116107
-0.00190016
-0.00206761
0.00125969
6.95136e-07
-5.6143e-06
2.84009e-06
-1.83362e-05
6.55623e-06
-3.31714e-05
1.19725e-05
-5.03125e-05
1.92255e-05
-6.99662e-05
2.84598e-05
-9.23514e-05
3.98283e-05
-0.000117698
5.34915e-05
-0.000146249
6.96181e-05
-0.000178257