/*--------------------------------*- C++ -*----------------------------------*\
  =========                 |
  \\      /  F ield         | OpenFOAM: The Open Source CFD Toolbox
   \\    /   O peration     | Website:  https://openfoam.org
    \\  /    A nd           | Version:  7
     \\/     M anipulation  |
\*---------------------------------------------------------------------------*/
FoamFile
{
    version     2.0;
    format      ascii;
    class       volScalarField;
    location    "25";
    object      p;
}
// * * * * * * * * * * * * * * * * * * * * * * * * * * * * * * * * * * * * * //

dimensions      [0 2 -2 0 0 0 0];

internalField   nonuniform List<scalar> 
40000
(
-0.262238
-0.263124
-0.26379
-0.264337
-0.26483
-0.265271
-0.265668
-0.266028
-0.26636
-0.266672
-0.266967
-0.267252
-0.267527
-0.267794
-0.268053
-0.268304
-0.268543
-0.26877
-0.26898
-0.269171
-0.26934
-0.269484
-0.269601
-0.269691
-0.269753
-0.269789
-0.269804
-0.269801
-0.269783
-0.269767
-0.262343
-0.263223
-0.263885
-0.264428
-0.264917
-0.265356
-0.265749
-0.266107
-0.266437
-0.266746
-0.26704
-0.267322
-0.267595
-0.267861
-0.268118
-0.268367
-0.268605
-0.268829
-0.269038
-0.269227
-0.269393
-0.269534
-0.269648
-0.269734
-0.269792
-0.269825
-0.269835
-0.269827
-0.269803
-0.269784
-0.262553
-0.26342
-0.264073
-0.264609
-0.265091
-0.265524
-0.265912
-0.266265
-0.26659
-0.266895
-0.267184
-0.267462
-0.267731
-0.267993
-0.268247
-0.268492
-0.268726
-0.268947
-0.269151
-0.269336
-0.269497
-0.269633
-0.269741
-0.26982
-0.26987
-0.269894
-0.269895
-0.269878
-0.269841
-0.269815
-0.262864
-0.263713
-0.264352
-0.264877
-0.26535
-0.265774
-0.266154
-0.266499
-0.266817
-0.267115
-0.267398
-0.26767
-0.267933
-0.268189
-0.268437
-0.268677
-0.268906
-0.269121
-0.269319
-0.269497
-0.269652
-0.26978
-0.269878
-0.269947
-0.269985
-0.269995
-0.269982
-0.269951
-0.269894
-0.269856
-0.263274
-0.264099
-0.264721
-0.265231
-0.265691
-0.266103
-0.266472
-0.266807
-0.267116
-0.267405
-0.267679
-0.267943
-0.268198
-0.268447
-0.268687
-0.26892
-0.269141
-0.269349
-0.269539
-0.269709
-0.269853
-0.26997
-0.270056
-0.27011
-0.270132
-0.270124
-0.270092
-0.270042
-0.269958
-0.269904
-0.263779
-0.264574
-0.265174
-0.265667
-0.266111
-0.266509
-0.266864
-0.267187
-0.267484
-0.267761
-0.268025
-0.268278
-0.268524
-0.268762
-0.268993
-0.269216
-0.269428
-0.269626
-0.269807
-0.269966
-0.270099
-0.270202
-0.270272
-0.270308
-0.270309
-0.270277
-0.270221
-0.270146
-0.270028
-0.269951
-0.264373
-0.265134
-0.265709
-0.266182
-0.266607
-0.266987
-0.267326
-0.267634
-0.267916
-0.26818
-0.268431
-0.268672
-0.268905
-0.269132
-0.269351
-0.269563
-0.269764
-0.26995
-0.270118
-0.270264
-0.270383
-0.27047
-0.270522
-0.270536
-0.270511
-0.27045
-0.270364
-0.270259
-0.270098
-0.269988
-0.265051
-0.265774
-0.26632
-0.266769
-0.267173
-0.267533
-0.267854
-0.268144
-0.26841
-0.268658
-0.268893
-0.269119
-0.269338
-0.26955
-0.269756
-0.269954
-0.270142
-0.270315
-0.270469
-0.2706
-0.270702
-0.27077
-0.2708
-0.270788
-0.270733
-0.270638
-0.270515
-0.270372
-0.27016
-0.270005
-0.265806
-0.266487
-0.267003
-0.267426
-0.267806
-0.268143
-0.268443
-0.268713
-0.26896
-0.269189
-0.269406
-0.269615
-0.269816
-0.270013
-0.270203
-0.270385
-0.270557
-0.270715
-0.270853
-0.270966
-0.271049
-0.271096
-0.271101
-0.27106
-0.27097
-0.270835
-0.270667
-0.27048
-0.270209
-0.269987
-0.266633
-0.267269
-0.267751
-0.268146
-0.268499
-0.268812
-0.269088
-0.269336
-0.269561
-0.269769
-0.269965
-0.270154
-0.270336
-0.270514
-0.270685
-0.27085
-0.271004
-0.271144
-0.271264
-0.271358
-0.27142
-0.271443
-0.27142
-0.271346
-0.271217
-0.271035
-0.270815
-0.270576
-0.270237
-0.269916
-0.267524
-0.268113
-0.268559
-0.268924
-0.269249
-0.269535
-0.269785
-0.270007
-0.270208
-0.270392
-0.270565
-0.270731
-0.270891
-0.271047
-0.271198
-0.271342
-0.271476
-0.271595
-0.271695
-0.271768
-0.271807
-0.271804
-0.271751
-0.271641
-0.271469
-0.271233
-0.270951
-0.270653
-0.270244
-0.269754
-0.268473
-0.269013
-0.269422
-0.269755
-0.270049
-0.270306
-0.270528
-0.270722
-0.270896
-0.271053
-0.2712
-0.27134
-0.271475
-0.271606
-0.271733
-0.271854
-0.271965
-0.272062
-0.272139
-0.272189
-0.272203
-0.272172
-0.272087
-0.271938
-0.271719
-0.271425
-0.271071
-0.270707
-0.270237
-0.269425
-0.269473
-0.269964
-0.270334
-0.270634
-0.270896
-0.271121
-0.271312
-0.271476
-0.271619
-0.271747
-0.271864
-0.271975
-0.272081
-0.272185
-0.272285
-0.272379
-0.272465
-0.272538
-0.27259
-0.272614
-0.272602
-0.272542
-0.272422
-0.272233
-0.271963
-0.271606
-0.271172
-0.270733
-0.270228
-0.268904
-0.270517
-0.270959
-0.271291
-0.271556
-0.271784
-0.271976
-0.272134
-0.272264
-0.272374
-0.272469
-0.272553
-0.272631
-0.272705
-0.272777
-0.272846
-0.272912
-0.272969
-0.273014
-0.273039
-0.273036
-0.272995
-0.272904
-0.27275
-0.272518
-0.272196
-0.271772
-0.271253
-0.270709
-0.270045
-0.268705
-0.271602
-0.271995
-0.272288
-0.272517
-0.27271
-0.272866
-0.272988
-0.273083
-0.273156
-0.273213
-0.27326
-0.273302
-0.27334
-0.273377
-0.273412
-0.273444
-0.27347
-0.273484
-0.273479
-0.273447
-0.273375
-0.273252
-0.273062
-0.272787
-0.272412
-0.271918
-0.271311
-0.270654
-0.269797
-0.268364
-0.272721
-0.273067
-0.273321
-0.273515
-0.27367
-0.273789
-0.273872
-0.273927
-0.27396
-0.273977
-0.273983
-0.273983
-0.273981
-0.273978
-0.273975
-0.27397
-0.27396
-0.27394
-0.273902
-0.273838
-0.273735
-0.273578
-0.273351
-0.273033
-0.272604
-0.27204
-0.271339
-0.270565
-0.269524
-0.26783
-0.273871
-0.274173
-0.274388
-0.274545
-0.274663
-0.274741
-0.274783
-0.274795
-0.274784
-0.274756
-0.274717
-0.274671
-0.274624
-0.274577
-0.274531
-0.274484
-0.274434
-0.274376
-0.274302
-0.274203
-0.274065
-0.273873
-0.273608
-0.273248
-0.272765
-0.272131
-0.271334
-0.270436
-0.269217
-0.26713
-0.275051
-0.27531
-0.275488
-0.275608
-0.275685
-0.275722
-0.27572
-0.275685
-0.275626
-0.275548
-0.275459
-0.275363
-0.275265
-0.275169
-0.275074
-0.274981
-0.274887
-0.274787
-0.274672
-0.274534
-0.274359
-0.27413
-0.273826
-0.273422
-0.272888
-0.272185
-0.271292
-0.270265
-0.268876
-0.266266
-0.27626
-0.276479
-0.27662
-0.276702
-0.276738
-0.27673
-0.27668
-0.276596
-0.276484
-0.276352
-0.276207
-0.276056
-0.275902
-0.275751
-0.275603
-0.275458
-0.275314
-0.275167
-0.275008
-0.274827
-0.274611
-0.274342
-0.273997
-0.273549
-0.272962
-0.272194
-0.271204
-0.270047
-0.268508
-0.265239
-0.277499
-0.27768
-0.277785
-0.277829
-0.277823
-0.277767
-0.277666
-0.277528
-0.277359
-0.277167
-0.276962
-0.276749
-0.276534
-0.276322
-0.276115
-0.275913
-0.275714
-0.275514
-0.275305
-0.275077
-0.274816
-0.274503
-0.274114
-0.273619
-0.272979
-0.272146
-0.271063
-0.269771
-0.26812
-0.264057
-0.27877
-0.278917
-0.278987
-0.278991
-0.27894
-0.278834
-0.278679
-0.278482
-0.27825
-0.277995
-0.277723
-0.277442
-0.27716
-0.276882
-0.27661
-0.276344
-0.276085
-0.275827
-0.275563
-0.275283
-0.274972
-0.27461
-0.274173
-0.273627
-0.272932
-0.272033
-0.27086
-0.269426
-0.267718
-0.262736
-0.280078
-0.280194
-0.280229
-0.280193
-0.280094
-0.279935
-0.279722
-0.279461
-0.279162
-0.278836
-0.278492
-0.278139
-0.277784
-0.277432
-0.277089
-0.276755
-0.276429
-0.276107
-0.275783
-0.275445
-0.275079
-0.274663
-0.274172
-0.273571
-0.272815
-0.271848
-0.270585
-0.268998
-0.267299
-0.261308
-0.281431
-0.281517
-0.281517
-0.281439
-0.28129
-0.281075
-0.280798
-0.280469
-0.280098
-0.279696
-0.279274
-0.278842
-0.278407
-0.277978
-0.277557
-0.277148
-0.27675
-0.276359
-0.275969
-0.275568
-0.27514
-0.274665
-0.274114
-0.273451
-0.272628
-0.271586
-0.270234
-0.268479
-0.26685
-0.25982
-0.282837
-0.282894
-0.282858
-0.282736
-0.282535
-0.282258
-0.281914
-0.281512
-0.281063
-0.28058
-0.280074
-0.279557
-0.279037
-0.278523
-0.27802
-0.277531
-0.277055
-0.276589
-0.276127
-0.275657
-0.275162
-0.274621
-0.274004
-0.273272
-0.272374
-0.271249
-0.269806
-0.267866
-0.26635
-0.258335
-0.284306
-0.284334
-0.284261
-0.284093
-0.283835
-0.283494
-0.283077
-0.282596
-0.282064
-0.281493
-0.280898
-0.28029
-0.27968
-0.279076
-0.278485
-0.27791
-0.277352
-0.276806
-0.276267
-0.275723
-0.275156
-0.274542
-0.273851
-0.273042
-0.27206
-0.270843
-0.269303
-0.267171
-0.265769
-0.256934
-0.285851
-0.28585
-0.285738
-0.285518
-0.2852
-0.284789
-0.284295
-0.28373
-0.283108
-0.282445
-0.281755
-0.281051
-0.280345
-0.279646
-0.278963
-0.278297
-0.277651
-0.277021
-0.276401
-0.275776
-0.275131
-0.274438
-0.273666
-0.272771
-0.271696
-0.270376
-0.268729
-0.266419
-0.265071
-0.255713
-0.287487
-0.287453
-0.287298
-0.287025
-0.286641
-0.286155
-0.285577
-0.284922
-0.284206
-0.283445
-0.282655
-0.28185
-0.281043
-0.280245
-0.279464
-0.278704
-0.277966
-0.277247
-0.27654
-0.275831
-0.2751
-0.274322
-0.27346
-0.27247
-0.271292
-0.26986
-0.268085
-0.265634
-0.264184
-0.254711
-0.289228
-0.289158
-0.288955
-0.288623
-0.288168
-0.287601
-0.286935
-0.286184
-0.285368
-0.284504
-0.283608
-0.282697
-0.281785
-0.280884
-0.280001
-0.279143
-0.278309
-0.277497
-0.276699
-0.275899
-0.275076
-0.274204
-0.273243
-0.272148
-0.270858
-0.269308
-0.267385
-0.264855
-0.262988
-0.25381
-0.291091
-0.290979
-0.290724
-0.290326
-0.289795
-0.28914
-0.288379
-0.287527
-0.286605
-0.285632
-0.284626
-0.283605
-0.282584
-0.281576
-0.280589
-0.279628
-0.278695
-0.277786
-0.27689
-0.275992
-0.27507
-0.274092
-0.273021
-0.271809
-0.270398
-0.268735
-0.266675
-0.264187
-0.261508
-0.253212
-0.293095
-0.292933
-0.292618
-0.292149
-0.291533
-0.290785
-0.289922
-0.288963
-0.28793
-0.286843
-0.285723
-0.284588
-0.283455
-0.282336
-0.281241
-0.280175
-0.279138
-0.278126
-0.277127
-0.276122
-0.275089
-0.273993
-0.272795
-0.271451
-0.269907
-0.26813
-0.265977
-0.263701
-0.260293
-0.255116
-0.295257
-0.295036
-0.294653
-0.294104
-0.293397
-0.292548
-0.291577
-0.290505
-0.289355
-0.28815
-0.286912
-0.28566
-0.28441
-0.283178
-0.281972
-0.280796
-0.279651
-0.278529
-0.277418
-0.276296
-0.275137
-0.273905
-0.272561
-0.271061
-0.269362
-0.267448
-0.265211
-0.263125
-0.25987
-0.262214
-0.297594
-0.297304
-0.296844
-0.296207
-0.2954
-0.294443
-0.293357
-0.292166
-0.290894
-0.289567
-0.288206
-0.286833
-0.285465
-0.284116
-0.282795
-0.281506
-0.280246
-0.279007
-0.277772
-0.276518
-0.275214
-0.273823
-0.272306
-0.270621
-0.268732
-0.266639
-0.264276
-0.262109
-0.259088
-0.260637
-0.300127
-0.299754
-0.299206
-0.298472
-0.297557
-0.296483
-0.295276
-0.293959
-0.292561
-0.291106
-0.28962
-0.288122
-0.286632
-0.285163
-0.283723
-0.282314
-0.280932
-0.279564
-0.278192
-0.276786
-0.275315
-0.273738
-0.272015
-0.270108
-0.267987
-0.265659
-0.263088
-0.260639
-0.257498
-0.257423
-0.302871
-0.302402
-0.301755
-0.300914
-0.299882
-0.298684
-0.297347
-0.295899
-0.294369
-0.292783
-0.291167
-0.289542
-0.287926
-0.286333
-0.284768
-0.283232
-0.281717
-0.280207
-0.278677
-0.277098
-0.275431
-0.273635
-0.27167
-0.269501
-0.267104
-0.264489
-0.261633
-0.258801
-0.255371
-0.253932
-0.305845
-0.305264
-0.304506
-0.303548
-0.302389
-0.301058
-0.299585
-0.298
-0.296332
-0.29461
-0.292861
-0.291105
-0.28936
-0.287637
-0.28594
-0.284267
-0.282605
-0.280934
-0.279225
-0.277443
-0.275548
-0.273497
-0.271251
-0.268781
-0.266068
-0.263122
-0.259932
-0.256682
-0.252911
-0.250358
-0.309063
-0.308354
-0.307473
-0.306387
-0.305091
-0.303619
-0.302002
-0.300273
-0.298464
-0.296602
-0.294715
-0.292824
-0.290944
-0.289085
-0.287247
-0.285423
-0.283596
-0.281742
-0.279826
-0.277809
-0.275649
-0.273305
-0.270741
-0.267934
-0.264871
-0.261566
-0.258016
-0.254355
-0.250241
-0.246886
-0.312541
-0.311687
-0.31067
-0.309444
-0.308002
-0.30638
-0.304613
-0.302735
-0.300778
-0.298772
-0.296743
-0.294711
-0.29269
-0.290684
-0.288693
-0.286701
-0.284688
-0.282622
-0.280466
-0.278178
-0.275716
-0.273041
-0.270123
-0.266948
-0.263511
-0.259834
-0.25592
-0.251875
-0.247446
-0.243512
-0.316293
-0.315277
-0.314109
-0.312732
-0.311135
-0.309354
-0.30743
-0.305396
-0.303287
-0.301132
-0.298955
-0.296776
-0.294605
-0.292442
-0.290279
-0.288099
-0.285872
-0.283563
-0.281131
-0.278532
-0.275728
-0.272685
-0.269383
-0.265816
-0.261993
-0.25794
-0.253671
-0.249278
-0.244567
-0.240225
-0.32033
-0.319133
-0.317801
-0.316264
-0.314501
-0.312554
-0.310465
-0.30827
-0.306004
-0.303694
-0.301364
-0.299029
-0.296696
-0.294359
-0.292005
-0.289608
-0.287135
-0.284546
-0.281798
-0.278849
-0.275664
-0.272221
-0.26851
-0.264537
-0.260322
-0.255899
-0.251291
-0.246585
-0.241626
-0.236987
-0.324663
-0.323267
-0.321759
-0.320049
-0.318111
-0.31599
-0.313731
-0.31137
-0.30894
-0.306469
-0.303977
-0.301476
-0.298965
-0.296435
-0.293863
-0.291218
-0.288462
-0.285552
-0.282445
-0.279105
-0.275505
-0.271634
-0.267496
-0.263108
-0.258504
-0.253723
-0.248797
-0.243807
-0.238629
-0.233764
-0.329299
-0.327688
-0.325989
-0.324098
-0.321976
-0.319674
-0.317238
-0.314704
-0.312105
-0.309466
-0.306802
-0.30412
-0.301413
-0.298663
-0.295842
-0.292912
-0.289831
-0.286555
-0.283047
-0.279277
-0.275232
-0.270911
-0.266334
-0.261532
-0.256546
-0.251423
-0.246198
-0.24095
-0.235573
-0.230523
-0.334245
-0.332401
-0.3305
-0.328417
-0.326105
-0.323615
-0.320996
-0.318284
-0.315508
-0.31269
-0.309841
-0.30696
-0.304032
-0.301032
-0.297924
-0.294667
-0.291215
-0.28753
-0.283578
-0.279344
-0.274827
-0.270042
-0.265022
-0.259809
-0.254453
-0.249003
-0.2435
-0.238013
-0.232453
-0.227239
-0.339505
-0.33741
-0.335295
-0.333013
-0.330503
-0.327819
-0.325012
-0.322115
-0.319154
-0.316146
-0.313095
-0.309991
-0.306813
-0.303526
-0.300089
-0.296457
-0.292587
-0.288446
-0.284013
-0.279284
-0.274275
-0.269017
-0.263555
-0.257941
-0.252228
-0.246469
-0.240702
-0.234992
-0.22926
-0.223893
-0.345077
-0.342718
-0.340378
-0.33789
-0.335175
-0.332292
-0.329291
-0.326201
-0.323045
-0.319831
-0.316557
-0.313202
-0.309737
-0.306121
-0.302307
-0.298251
-0.293915
-0.289275
-0.284324
-0.279077
-0.273563
-0.26783
-0.261932
-0.255928
-0.249873
-0.243819
-0.237804
-0.231882
-0.225985
-0.220469
-0.350961
-0.348321
-0.345748
-0.343046
-0.340122
-0.337035
-0.333834
-0.330543
-0.327178
-0.32374
-0.320215
-0.316576
-0.312783
-0.308789
-0.304547
-0.300014
-0.295164
-0.289986
-0.284489
-0.278704
-0.27268
-0.266474
-0.260149
-0.253768
-0.247387
-0.241052
-0.2348
-0.228675
-0.22262
-0.216955
-0.357147
-0.354214
-0.3514
-0.34848
-0.345343
-0.342047
-0.338638
-0.335135
-0.331545
-0.327859
-0.324053
-0.320089
-0.31592
-0.311495
-0.30677
-0.301711
-0.296302
-0.290549
-0.284483
-0.27815
-0.271614
-0.264942
-0.258203
-0.251459
-0.244765
-0.238163
-0.231685
-0.225364
-0.219155
-0.21334
-0.363624
-0.360387
-0.357326
-0.354185
-0.35083
-0.347321
-0.343696
-0.339968
-0.336132
-0.332169
-0.328044
-0.323709
-0.319111
-0.314201
-0.308938
-0.303302
-0.297293
-0.290938
-0.284285
-0.277399
-0.270355
-0.263228
-0.256088
-0.248996
-0.242003
-0.235145
-0.228449
-0.22194
-0.21558
-0.209616
-0.370375
-0.366825
-0.363512
-0.360147
-0.356573
-0.352844
-0.348995
-0.345025
-0.340919
-0.336644
-0.332155
-0.327397
-0.322314
-0.31686
-0.311006
-0.304746
-0.298103
-0.291123
-0.283875
-0.276437
-0.268893
-0.261323
-0.253798
-0.246373
-0.239093
-0.23199
-0.225084
-0.218393
-0.211886
-0.205773
-0.377377
-0.373506
-0.369939
-0.366349
-0.362553
-0.3586
-0.354513
-0.350281
-0.345874
-0.341249
-0.336347
-0.33111
-0.325482
-0.319427
-0.31293
-0.306006
-0.2987
-0.29108
-0.283233
-0.275248
-0.267217
-0.25922
-0.251323
-0.243579
-0.236026
-0.228687
-0.22158
-0.214713
-0.208065
-0.201805
-0.3846
-0.380404
-0.376583
-0.372769
-0.368748
-0.364562
-0.360223
-0.355705
-0.350963
-0.34594
-0.340572
-0.334796
-0.328563
-0.32185
-0.314663
-0.307041
-0.299051
-0.290784
-0.28234
-0.27382
-0.265316
-0.256907
-0.248656
-0.240607
-0.232791
-0.225227
-0.217926
-0.21089
-0.204105
-0.197702
-0.392009
-0.387487
-0.383413
-0.379375
-0.375128
-0.3707
-0.366091
-0.361257
-0.356139
-0.350669
-0.344775
-0.338398
-0.331501
-0.324078
-0.31616
-0.307813
-0.299127
-0.290212
-0.28118
-0.272137
-0.263177
-0.254374
-0.245783
-0.237443
-0.229377
-0.221598
-0.214111
-0.206914
-0.199999
-0.193457
-0.399559
-0.394712
-0.390389
-0.38613
-0.381654
-0.376973
-0.372072
-0.366889
-0.36135
-0.355376
-0.348896
-0.341857
-0.334238
-0.326059
-0.317377
-0.308285
-0.298897
-0.289339
-0.279732
-0.270185
-0.260787
-0.251607
-0.242693
-0.234075
-0.225771
-0.217787
-0.210125
-0.202775
-0.195736
-0.189061
-0.407201
-0.402035
-0.397468
-0.392991
-0.38828
-0.383333
-0.378114
-0.372544
-0.366534
-0.359998
-0.352869
-0.345108
-0.336716
-0.32774
-0.31827
-0.308422
-0.298335
-0.288146
-0.277981
-0.267948
-0.258132
-0.248593
-0.239372
-0.230491
-0.221961
-0.213784
-0.205954
-0.198462
-0.191307
-0.184507
-0.414876
-0.409399
-0.404596
-0.399903
-0.394953
-0.389724
-0.384158
-0.378158
-0.371622
-0.364465
-0.356626
-0.348086
-0.338875
-0.329071
-0.318795
-0.308191
-0.297413
-0.286608
-0.275906
-0.265409
-0.255196
-0.245317
-0.235806
-0.226677
-0.217934
-0.209575
-0.201589
-0.193965
-0.186703
-0.179788
-0.42252
-0.416744
-0.411714
-0.406808
-0.401613
-0.396081
-0.390135
-0.383658
-0.376542
-0.368702
-0.360094
-0.350725
-0.340656
-0.330003
-0.318914
-0.307558
-0.296105
-0.284706
-0.27349
-0.262552
-0.251963
-0.241764
-0.23198
-0.222618
-0.213676
-0.205148
-0.197019
-0.189274
-0.181915
-0.174895
-0.430061
-0.423999
-0.418753
-0.413638
-0.408188
-0.402332
-0.395969
-0.388967
-0.381213
-0.372632
-0.363201
-0.352958
-0.342004
-0.330487
-0.318587
-0.306493
-0.294386
-0.282418
-0.270713
-0.259359
-0.248416
-0.237918
-0.227878
-0.2183
-0.209175
-0.200491
-0.192232
-0.18438
-0.176934
-0.169822
-0.437418
-0.431091
-0.425641
-0.420318
-0.414604
-0.408398
-0.401579
-0.394001
-0.385553
-0.376175
-0.365872
-0.354721
-0.342861
-0.330478
-0.317777
-0.304966
-0.29223
-0.279722
-0.267556
-0.255812
-0.24454
-0.233762
-0.223487
-0.213709
-0.204417
-0.195593
-0.187218
-0.179273
-0.171752
-0.164562
-0.444509
-0.437937
-0.432295
-0.426767
-0.420776
-0.414194
-0.406877
-0.398672
-0.389475
-0.379249
-0.368035
-0.355951
-0.343177
-0.329934
-0.316451
-0.302949
-0.289615
-0.276597
-0.264
-0.251894
-0.240316
-0.229281
-0.218791
-0.208832
-0.19939
-0.190443
-0.181967
-0.173946
-0.166362
-0.15911
-0.451242
-0.44445
-0.438631
-0.432898
-0.426617
-0.419628
-0.411771
-0.402891
-0.392894
-0.381777
-0.36962
-0.356588
-0.342901
-0.328813
-0.314576
-0.300415
-0.286517
-0.273022
-0.260026
-0.247585
-0.235728
-0.22446
-0.213775
-0.203656
-0.194082
-0.185029
-0.176471
-0.168388
-0.160758
-0.153462
-0.457524
-0.450538
-0.444556
-0.438618
-0.432031
-0.424606
-0.416168
-0.406564
-0.395723
-0.383678
-0.370559
-0.356574
-0.341987
-0.32708
-0.312119
-0.297336
-0.282912
-0.268977
-0.255615
-0.242869
-0.230759
-0.219283
-0.208426
-0.198167
-0.188481
-0.179342
-0.170719
-0.162594
-0.154932
-0.147612
-0.463255
-0.456104
-0.449975
-0.443831
-0.436923
-0.429031
-0.419971
-0.4096
-0.397877
-0.38488
-0.370787
-0.355857
-0.340392
-0.324698
-0.309054
-0.29369
-0.278781
-0.264443
-0.250748
-0.23773
-0.225395
-0.213736
-0.20273
-0.192354
-0.182578
-0.173371
-0.164703
-0.156555
-0.148878
-0.141556
-0.468336
-0.461052
-0.454789
-0.448439
-0.441192
-0.432803
-0.423084
-0.411908
-0.399275
-0.385309
-0.370244
-0.354387
-0.338075
-0.321635
-0.305352
-0.289453
-0.274101
-0.2594
-0.245409
-0.23215
-0.219621
-0.207804
-0.196676
-0.186206
-0.176361
-0.167109
-0.158417
-0.150264
-0.142591
-0.135288
-0.472665
-0.46528
-0.4589
-0.452341
-0.444739
-0.435824
-0.425412
-0.413403
-0.399838
-0.384899
-0.368876
-0.35212
-0.335001
-0.317862
-0.30099
-0.284603
-0.268854
-0.253832
-0.239582
-0.226115
-0.213421
-0.201477
-0.190252
-0.179712
-0.169822
-0.160546
-0.151851
-0.143714
-0.136064
-0.128803
-0.476142
-0.468688
-0.462206
-0.455437
-0.447462
-0.437997
-0.426865
-0.413998
-0.399493
-0.383589
-0.366631
-0.349015
-0.331138
-0.313352
-0.295944
-0.279121
-0.263021
-0.247721
-0.23325
-0.219612
-0.206786
-0.194743
-0.183449
-0.172865
-0.162954
-0.153677
-0.145
-0.136901
-0.129293
-0.122099
-0.478666
-0.471179
-0.46461
-0.457628
-0.449266
-0.439228
-0.427353
-0.413618
-0.398173
-0.381323
-0.363465
-0.345037
-0.326456
-0.308081
-0.290194
-0.272989
-0.256588
-0.241053
-0.226402
-0.212628
-0.199702
-0.187592
-0.176256
-0.165655
-0.155748
-0.146494
-0.137859
-0.129818
-0.122276
-0.115175
-0.480141
-0.472654
-0.466013
-0.458817
-0.450056
-0.439428
-0.426797
-0.412188
-0.395818
-0.378051
-0.359339
-0.340153
-0.32093
-0.30203
-0.283723
-0.266191
-0.249539
-0.233815
-0.219026
-0.205153
-0.192163
-0.180016
-0.168669
-0.158078
-0.148199
-0.138991
-0.130418
-0.122457
-0.115007
-0.108027
-0.480474
-0.473022
-0.466324
-0.458912
-0.449742
-0.438512
-0.425119
-0.409645
-0.392373
-0.37373
-0.354218
-0.334339
-0.31454
-0.29518
-0.276516
-0.258714
-0.241863
-0.225997
-0.211111
-0.197178
-0.18416
-0.172009
-0.160681
-0.150128
-0.140304
-0.131164
-0.122672
-0.114806
-0.107469
-0.100623
-0.479578
-0.472195
-0.465454
-0.457827
-0.448242
-0.436403
-0.422252
-0.405931
-0.387791
-0.368323
-0.348074
-0.327572
-0.307269
-0.287518
-0.268561
-0.250548
-0.233551
-0.217591
-0.202652
-0.188699
-0.175687
-0.163568
-0.15229
-0.141803
-0.132061
-0.123013
-0.11462
-0.106864
-0.0996387
-0.0928781
-0.477372
-0.470091
-0.463322
-0.455482
-0.445479
-0.433034
-0.418136
-0.400996
-0.382034
-0.361802
-0.340886
-0.319835
-0.299103
-0.279032
-0.259849
-0.241684
-0.224596
-0.20859
-0.193642
-0.17971
-0.166744
-0.154689
-0.143494
-0.133104
-0.12347
-0.11454
-0.106272
-0.0986512
-0.0915331
-0.0847157
-0.473782
-0.466636
-0.459854
-0.451804
-0.441385
-0.428343
-0.41272
-0.394799
-0.375071
-0.354143
-0.332638
-0.311118
-0.290035
-0.269717
-0.250374
-0.232118
-0.214992
-0.198991
-0.184079
-0.17021
-0.157327
-0.145374
-0.134294
-0.124032
-0.114535
-0.105748
-0.0976356
-0.0901868
-0.0832124
-0.0762879
-0.468743
-0.461763
-0.454983
-0.446729
-0.435903
-0.422279
-0.405962
-0.387308
-0.366878
-0.34533
-0.323318
-0.301412
-0.280058
-0.259568
-0.240133
-0.221848
-0.20474
-0.188793
-0.173964
-0.1602
-0.147439
-0.135623
-0.124692
-0.11459
-0.10526
-0.0966442
-0.0887171
-0.0814474
-0.0745515
-0.0679384
-0.4622
-0.455416
-0.448653
-0.440205
-0.428983
-0.414801
-0.39783
-0.3785
-0.35744
-0.335356
-0.312923
-0.290718
-0.269174
-0.248587
-0.229128
-0.210875
-0.193841
-0.177999
-0.163299
-0.149682
-0.137084
-0.125442
-0.114695
-0.104784
-0.0956498
-0.0872366
-0.0795171
-0.0724413
-0.0656934
-0.0594229
-0.454106
-0.447547
-0.440817
-0.432186
-0.420587
-0.405878
-0.3883
-0.368361
-0.34675
-0.324216
-0.301454
-0.279037
-0.257387
-0.236778
-0.217364
-0.199204
-0.1823
-0.166613
-0.152089
-0.138663
-0.126266
-0.114837
-0.104308
-0.0946197
-0.0857121
-0.0775291
-0.0700427
-0.0631879
-0.0566368
-0.050691
-0.444427
-0.438119
-0.431438
-0.42264
-0.410686
-0.395489
-0.377362
-0.356885
-0.334809
-0.311918
-0.288918
-0.266379
-0.244704
-0.224149
-0.204847
-0.186842
-0.170123
-0.154644
-0.140342
-0.127151
-0.114997
-0.103815
-0.0935391
-0.0841064
-0.0754553
-0.06753
-0.0603029
-0.0536972
-0.0473711
-0.0417409
-0.433139
-0.427107
-0.420492
-0.411543
-0.399265
-0.383625
-0.36501
-0.344075
-0.321624
-0.29847
-0.275328
-0.252755
-0.231138
-0.210712
-0.19159
-0.173801
-0.157323
-0.142102
-0.12807
-0.115155
-0.103285
-0.0923882
-0.0823993
-0.073254
-0.0648891
-0.0572489
-0.0503072
-0.043976
-0.0378942
-0.032585
-0.420226
-0.414495
-0.407963
-0.398884
-0.386315
-0.370284
-0.351252
-0.329944
-0.307212
-0.283892
-0.260702
-0.238185
-0.216708
-0.196484
-0.177608
-0.160096
-0.143914
-0.129001
-0.115285
-0.10269
-0.091142
-0.0805683
-0.070901
-0.0620748
-0.0540254
-0.0466975
-0.0400667
-0.0340324
-0.0282122
-0.0232359
-0.405688
-0.400279
-0.393848
-0.384664
-0.371843
-0.355477
-0.336104
-0.314511
-0.291594
-0.268207
-0.245063
-0.22269
-0.201433
-0.181484
-0.162922
-0.145745
-0.129913
-0.115357
-0.102003
-0.0897711
-0.0785847
-0.0683703
-0.0590583
-0.0505827
-0.0428777
-0.0358888
-0.0295934
-0.0238772
-0.0183356
-0.0137068
-0.389534
-0.384467
-0.378155
-0.368893
-0.355863
-0.339226
-0.31959
-0.297804
-0.2748
-0.251444
-0.228441
-0.206299
-0.185341
-0.165738
-0.147551
-0.130769
-0.115339
-0.101191
-0.0882431
-0.0764157
-0.0656299
-0.0558108
-0.0468878
-0.0387935
-0.0314613
-0.0248377
-0.0189017
-0.013524
-0.00827832
-0.00401179
-0.371783
-0.367077
-0.360904
-0.351593
-0.338402
-0.321559
-0.301743
-0.279859
-0.256868
-0.233641
-0.21087
-0.189043
-0.16846
-0.149273
-0.131524
-0.115192
-0.100217
-0.0865229
-0.0740264
-0.0626445
-0.0522973
-0.0429087
-0.0344073
-0.0267247
-0.0197934
-0.013561
-0.00800779
-0.00298871
0.00194339
0.00583313
-0.352466
-0.348139
-0.342124
-0.332797
-0.319494
-0.302515
-0.282605
-0.260718
-0.237841
-0.214838
-0.192387
-0.170958
-0.150825
-0.13212
-0.11487
-0.0990426
-0.0845728
-0.0713793
-0.0593764
-0.0484798
-0.0386081
-0.0296845
-0.0216367
-0.0143955
-0.00789279
-0.00207716
0.00307017
0.00771052
0.0123106
0.01581
-0.331626
-0.327691
-0.321856
-0.312546
-0.299186
-0.282144
-0.262228
-0.240439
-0.217767
-0.195072
-0.173036
-0.152085
-0.132474
-0.114314
-0.0976207
-0.0823517
-0.0684353
-0.055787
-0.0443193
-0.0339462
-0.0245858
-0.0161605
-0.00859744
-0.00182674
0.00422038
0.00959384
0.0143122
0.0185533
0.0228018
0.0258968
-0.309315
-0.305784
-0.30015
-0.290893
-0.277532
-0.260503
-0.240675
-0.219081
-0.196673
-0.174408
-0.152867
-0.132469
-0.113447
-0.0958949
-0.0798137
-0.0651531
-0.0518365
-0.0397762
-0.0288831
-0.0190704
-0.0102555
-0.00236049
0.00468779
0.0109598
0.0165246
0.0214307
0.0256968
0.0295174
0.0333912
0.0360636
-0.285594
-0.282478
-0.277065
-0.2679
-0.254596
-0.237659
-0.218
-0.196653
-0.174675
-0.1529
-0.13193
-0.112158
-0.093791
-0.0769042
-0.0614877
-0.0474836
-0.0348107
-0.023379
-0.0130982
-0.00388089
0.00435595
0.0116902
0.0181951
0.0239413
0.0289978
0.0334112
0.0372017
0.0405784
0.0440487
0.0462744
-0.260536
-0.25784
-0.252672
-0.243637
-0.230452
-0.213676
-0.194249
-0.173292
-0.151802
-0.130604
-0.110284
-0.0912053
-0.0735536
-0.0573871
-0.0426849
-0.0293825
-0.0173948
-0.00663009
0.00300301
0.0115922
0.0192204
0.0259652
0.0318997
0.0370943
0.0416173
0.0455133
0.0488039
0.0517108
0.0547426
0.0564986
-0.234218
-0.231948
-0.227046
-0.218185
-0.205169
-0.188613
-0.169543
-0.149044
-0.128124
-0.107585
-0.0879866
-0.0696661
-0.0527868
-0.0373918
-0.0234503
-0.0108918
0.000371848
0.010434
0.0193864
0.0273169
0.034308
0.0404369
0.0457759
0.0503951
0.0543609
0.057715
0.0604817
0.0628926
0.0654484
0.0667129
-0.206714
-0.20489
-0.200272
-0.191618
-0.178825
-0.162591
-0.143944
-0.123987
-0.103717
-0.083912
-0.0651022
-0.047599
-0.0315451
-0.0169692
-0.00383136
0.00794409
0.0184479
0.0277745
0.0360159
0.0432597
0.0495879
0.0550767
0.0597978
0.0638198
0.067206
0.0699947
0.0722157
0.07411
0.0761486
0.076854
-0.178095
-0.176769
-0.172445
-0.164028
-0.151533
-0.135684
-0.117536
-0.0982014
-0.0786581
-0.059656
-0.0416967
-0.0250657
-0.00988596
0.00382729
0.0161221
0.0270787
0.03679
0.045351
0.0528539
0.0593857
0.0650277
0.0698552
0.0739385
0.0773444
0.0801307
0.0823322
0.0839915
0.0853524
0.0867944
0.086762
-0.148444
-0.147723
-0.143657
-0.135523
-0.12338
-0.107983
-0.0904111
-0.071773
-0.0530264
-0.0348913
-0.0178393
-0.00213047
0.0121309
0.0249419
0.0363581
0.0464635
0.0553526
0.0631211
0.0698608
0.0756583
0.0805939
0.0847418
0.0881712
0.0909454
0.0931153
0.0947146
0.0958061
0.0966031
0.0972716
0.0962664
-0.118009
-0.117747
-0.114017
-0.106207
-0.0944666
-0.0795876
-0.0626621
-0.0447903
-0.0269052
-0.00969514
0.00639837
0.02114
0.0344433
0.0463168
0.0568226
0.0660479
0.0740887
0.0810408
0.0869958
0.0920395
0.0962513
0.0997047
0.102468
0.104599
0.106145
0.107143
0.10768
0.10787
0.107523
0.105414
-0.0868266
-0.0869966
-0.0836357
-0.0761868
-0.0648991
-0.0505997
-0.0343861
-0.0173444
-0.000379523
0.0158531
0.0309424
0.044677
0.0569872
0.0678922
0.0774597
0.0857799
0.0929496
0.0990647
0.104216
0.10849
0.111963
0.11471
0.116797
0.11828
0.119201
0.119619
0.119639
0.119209
0.11777
0.114756
-0.0549849
-0.0556053
-0.0526263
-0.0455718
-0.0347859
-0.0211237
-0.00568232
0.0104712
0.0264632
0.0416721
0.0557172
0.0684101
0.0796971
0.0896068
0.0982123
0.105606
0.111885
0.117146
0.121479
0.124968
0.127691
0.129722
0.131124
0.131954
0.132256
0.132113
0.131633
0.130564
0.1281
0.126368
-0.0226099
-0.02369
-0.0211052
-0.0144771
-0.00423869
0.00873316
0.0233476
0.0385612
0.0535339
0.067679
0.0806455
0.0922675
0.102506
0.111398
0.119022
0.125471
0.130844
0.135236
0.138738
0.141432
0.143396
0.144701
0.145413
0.145586
0.14527
0.144558
0.143531
0.141862
0.139064
0.138013
0.0101719
0.00862954
0.0108077
0.0169797
0.0266286
0.038862
0.0526007
0.0668289
0.0807423
0.0937896
0.105649
0.116176
0.125345
0.133202
0.139829
0.14532
0.149775
0.153287
0.155948
0.157838
0.159036
0.159611
0.159628
0.15914
0.158205
0.156914
0.155317
0.153096
0.150021
0.148918
0.0432342
0.0412299
0.0429901
0.048679
0.0577003
0.0691524
0.0819728
0.0951766
0.107997
0.119919
0.130649
0.140062
0.148146
0.154955
0.160573
0.165096
0.168624
0.17125
0.173063
0.174144
0.174571
0.174412
0.17373
0.172581
0.171024
0.169146
0.166981
0.164249
0.160866
0.159434
0.0764494
0.0739857
0.0753182
0.0804995
0.0888598
0.0994932
0.111359
0.123506
0.135207
0.145982
0.155564
0.163851
0.17084
0.176591
0.181193
0.184743
0.187338
0.189073
0.190035
0.190306
0.189959
0.189064
0.187683
0.185872
0.18369
0.18122
0.178486
0.175246
0.171492
0.169628
0.109689
0.106771
0.107667
0.11232
0.11999
0.129773
0.140654
0.151719
0.16228
0.171892
0.180317
0.187468
0.193356
0.198047
0.201629
0.204203
0.205865
0.206708
0.206819
0.206278
0.205159
0.203529
0.20145
0.198977
0.19617
0.193106
0.189806
0.186051
0.181887
0.179543
0.142825
0.139457
0.139911
0.144018
0.150974
0.159881
0.169753
0.179717
0.189124
0.197564
0.204826
0.210839
0.215626
0.219255
0.22182
0.223419
0.22415
0.224104
0.223368
0.222019
0.22013
0.217769
0.214995
0.211863
0.208431
0.204775
0.200909
0.196635
0.192038
0.189191
0.175729
0.171919
0.171927
0.175472
0.181695
0.189706
0.198553
0.207403
0.215649
0.222915
0.229013
0.233891
0.237579
0.240153
0.241705
0.242336
0.242142
0.241213
0.239634
0.237484
0.234832
0.231745
0.228281
0.224496
0.220444
0.216199
0.211769
0.206976
0.201936
0.198571
0.208274
0.20403
0.203589
0.206563
0.212037
0.219139
0.22695
0.234681
0.241764
0.247858
0.252799
0.25655
0.259149
0.260675
0.261225
0.260897
0.259787
0.257985
0.255574
0.25263
0.249224
0.24542
0.241275
0.236843
0.232178
0.227349
0.222362