/*--------------------------------*- C++ -*----------------------------------*\
  =========                 |
  \\      /  F ield         | OpenFOAM: The Open Source CFD Toolbox
   \\    /   O peration     | Website:  https://openfoam.org
    \\  /    A nd           | Version:  7
     \\/     M anipulation  |
\*---------------------------------------------------------------------------*/
FoamFile
{
    version     2.0;
    format      ascii;
    class       volVectorField;
    location    "25";
    object      U;
}
// * * * * * * * * * * * * * * * * * * * * * * * * * * * * * * * * * * * * * //

dimensions      [0 1 -1 0 0 0 0];

internalField   nonuniform List<vector> 
40000
(
(-0.000178878 0.000294482 -2.13402e-21)
(-0.00112299 0.00079997 6.6073e-21)
(-0.00314238 0.00123341 -4.21608e-21)
(-0.00599134 0.00160169 -3.96864e-24)
(-0.00953449 0.00190992 -9.01487e-25)
(-0.0136806 0.00216267 2.90492e-24)
(-0.0183352 0.00236454 -7.00185e-21)
(-0.0234063 0.00252004 1.66477e-21)
(-0.0288086 0.00263356 -4.7516e-21)
(-0.034463 0.00270935 -1.50343e-21)
(-0.0402963 0.00275149 0)
(-0.0462418 0.00276385 -5.4134e-21)
(-0.0522388 0.00275014 0)
(-0.0582329 0.00271379 0)
(-0.0641754 0.00265804 -4.58795e-21)
(-0.0700235 0.00258589 4.33464e-21)
(-0.0757398 0.00250019 -2.04665e-21)
(-0.0812927 0.00240365 -1.56934e-24)
(-0.0866558 0.00229892 1.81834e-21)
(-0.0918086 0.00218871 0)
(-0.0967367 0.00207587 -1.61306e-21)
(-0.101433 0.00196352 -4.5512e-21)
(-0.105897 0.00185506 5.70268e-21)
(-0.110138 0.00175422 -2.67815e-21)
(-0.114175 0.00166496 7.54051e-21)
(-0.118037 0.00159129 4.71575e-21)
(-0.121764 0.00153681 -8.84171e-21)
(-0.125405 0.00150392 8.28418e-21)
(-0.129009 0.00149382 -1.9393e-21)
(-0.132647 0.00150983 -3.63633e-21)
(-0.000208294 0.000877888 0)
(-0.00119882 0.00238506 4.40828e-21)
(-0.00325047 0.00367767 8.44485e-21)
(-0.00612005 0.00477613 -8.05927e-21)
(-0.00967371 0.00569568 -3.85962e-21)
(-0.0138212 0.00644986 1.46972e-20)
(-0.0184692 0.00705234 -3.50696e-21)
(-0.0235266 0.00751652 -6.67627e-21)
(-0.0289087 0.00785547 -8.56622e-24)
(-0.0345372 0.0080818 -1.80636e-20)
(-0.0403395 0.00820765 5.70797e-21)
(-0.0462493 0.00824459 2.16613e-20)
(-0.0522064 0.00820356 -1.02557e-20)
(-0.0581565 0.00809486 -4.73771e-24)
(-0.0640513 0.00792807 -4.59559e-21)
(-0.0698479 0.00771219 -1.54683e-24)
(-0.0755091 0.00745563 0)
(-0.081003 0.00716648 0)
(-0.0863029 0.00685265 1.45587e-20)
(-0.0913881 0.00652222 0)
(-0.0962433 0.00618371 6.45346e-21)
(-0.100861 0.00584641 -6.06827e-21)
(-0.105239 0.00552056 -7.36427e-25)
(-0.109388 0.00521739 0)
(-0.113324 0.00494894 1.00575e-20)
(-0.117076 0.00472737 -9.4315e-21)
(-0.120686 0.00456379 8.8417e-21)
(-0.124201 0.00446573 -8.28417e-21)
(-0.127668 0.0044372 7.75772e-21)
(-0.131162 0.00448828 -2.182e-20)
(-0.000266625 0.00145313 -8.55139e-21)
(-0.00134926 0.00394887 -8.81161e-21)
(-0.00346496 0.00609041 0)
(-0.00637555 0.00791121 0)
(-0.00995014 0.00943621 0)
(-0.0141006 0.0106877 7.36443e-21)
(-0.0187355 0.011688 0)
(-0.0237654 0.0124592 6.66764e-21)
(-0.0291074 0.0130229 1.26782e-20)
(-0.0346843 0.0133999 1.20413e-20)
(-0.0404247 0.0136101 0)
(-0.0462633 0.0136727 7.04404e-24)
(-0.0521405 0.0136058 -2.05299e-20)
(-0.0580028 0.0134264 1.94276e-20)
(-0.0638021 0.0131503 9.17919e-21)
(-0.0694959 0.0127924 8.678e-21)
(-0.0750468 0.0123665 -8.1851e-21)
(-0.0804226 0.011886 1.54538e-20)
(-0.0855963 0.0113638 -2.91249e-20)
(-0.0905459 0.0108134 -9.79858e-26)
(-0.0952556 0.0102486 -2.58169e-20)
(-0.0997155 0.00968492 2.42878e-20)
(-0.103924 0.00913935 0)
(-0.107886 0.00863074 0)
(-0.11162 0.00817944 1.0064e-20)
(-0.115153 0.00780633 0)
(-0.118526 0.00753074 0)
(-0.121789 0.00736619 0)
(-0.124983 0.00732066 -1.55196e-20)
(-0.128188 0.00741145 1.45461e-20)
(-0.000352948 0.00201493 8.55139e-21)
(-0.00157202 0.00547763 7.98931e-24)
(-0.00378276 0.00845123 3.73079e-23)
(-0.0067543 0.0109814 -1.61432e-20)
(-0.0103601 0.0131021 -1.54221e-20)
(-0.014515 0.0148438 1.7196e-23)
(-0.0191304 0.0162373 -2.80553e-20)
(-0.0241196 0.0173128 1.33587e-20)
(-0.0294018 0.0181001 -2.53994e-20)
(-0.0349016 0.0186277 2.41223e-20)
(-0.0405495 0.0189233 -1.14433e-20)
(-0.0462815 0.0190134 2.16942e-20)
(-0.0520391 0.018923 2.05299e-20)
(-0.0577697 0.0186755 1.64395e-23)
(-0.0634259 0.018293 -1.83843e-20)
(-0.0689652 0.0177958 0)
(-0.0743505 0.0172032 7.67543e-25)
(-0.079549 0.0165333 1.5463e-20)
(-0.0845329 0.0158043 9.50373e-25)
(-0.0892792 0.0150342 -7.95213e-24)
(-0.0937701 0.0142424 2.58244e-20)
(-0.0979939 0.0134501 -2.42877e-20)
(-0.101946 0.012681 0)
(-0.10563 0.0119618 2.14494e-20)
(-0.109061 0.0113215 4.6196e-24)
(-0.112264 0.0107906 -5.66315e-20)
(-0.11528 0.0103979 1.76943e-20)
(-0.118163 0.0101645 3.31588e-20)
(-0.120945 0.0101042 1.55195e-20)
(-0.123716 0.0102428 1.45532e-20)
(-0.000465915 0.00255829 3.43218e-20)
(-0.00186379 0.00695822 -1.76803e-20)
(-0.00419934 0.0107406 1.69058e-20)
(-0.00725111 0.013962 1.61737e-20)
(-0.0108981 0.0166649 0)
(-0.015059 0.0188871 -2.95073e-20)
(-0.0196489 0.020667 -1.40744e-20)
(-0.0245843 0.0220429 -2.67365e-20)
(-0.0297873 0.0230518 1.27001e-20)
(-0.0351851 0.0237299 2.91661e-23)
(-0.0407102 0.0241122 2.29141e-20)
(-0.0463005 0.0242321 2.17414e-20)
(-0.051899 0.0241212 -4.1115e-20)
(-0.0574541 0.0238094 1.94649e-20)
(-0.0629193 0.0233243 -1.9032e-23)
(-0.0682525 0.0226917 0)
(-0.0734164 0.021936 -1.63955e-20)
(-0.078378 0.0210799 -3.09595e-20)
(-0.0831084 0.020146 4.37667e-20)
(-0.0875829 0.0191571 1.37517e-20)
(-0.0917816 0.0181374 0)
(-0.0956899 0.0171137 -2.43218e-20)
(-0.0993001 0.0161161 0)
(-0.102612 0.0151792 -6.43696e-20)
(-0.105638 0.0143413 4.02704e-20)
(-0.108399 0.0136435 -4.80747e-24)
(-0.110939 0.013126 3.54104e-20)
(-0.113312 0.0128198 -4.97381e-20)
(-0.115542 0.0127479 3.10573e-20)
(-0.117727 0.0129463 1.45523e-20)
(-0.000603784 0.00307854 -1.71813e-20)
(-0.00222027 0.00837835 1.76798e-20)
(-0.00470882 0.0129401 -1.70282e-24)
(-0.00785925 0.0168299 -4.86493e-20)
(-0.0115571 0.0200976 0)
(-0.0157257 0.0227876 2.95073e-20)
(-0.0202842 0.0249453 -2.81936e-20)
(-0.0251533 0.026616 5.35059e-20)
(-0.0302583 0.0278438 0)
(-0.0355295 0.028672 -2.41513e-20)
(-0.040902 0.0291422 -2.2914e-20)
(-0.0463157 0.0292945 -2.17201e-20)
(-0.0517157 0.029167 -6.17864e-20)
(-0.0570515 0.0287952 2.58486e-24)
(-0.0622776 0.0282124 -1.79194e-23)
(-0.0673526 0.0274495 -1.40568e-23)
(-0.0722391 0.0265354 4.92742e-20)
(-0.0769034 0.0254972 -3.45519e-23)
(-0.0813156 0.0243616 3.1351e-23)
(-0.0854491 0.0231553 -2.74727e-20)
(-0.0892814 0.0219071 -2.01422e-23)
(-0.0927944 0.0206488 4.86567e-20)
(-0.0959762 0.0194168 -6.86132e-20)
(-0.0988225 0.0182533 2.14635e-20)
(-0.101339 0.0172066 0)
(-0.103547 0.0163299 0)
(-0.105487 0.0156768 -3.54101e-20)
(-0.107218 0.0152918 3.31835e-20)
(-0.108752 0.0152115 -3.1053e-20)
(-0.110195 0.0154862 0)
(-0.000764472 0.00357145 -1.72332e-20)
(-0.0026363 0.0097268 0)
(-0.00530416 0.0150328 1.69723e-20)
(-0.0085706 0.0195636 9.74847e-20)
(-0.0123286 0.0233749 -3.09932e-20)
(-0.0165064 0.0265172 0)
(-0.0210281 0.0290418 -5.21763e-23)
(-0.0258188 0.0310002 2.68293e-20)
(-0.0308076 0.0324432 -2.54759e-20)
(-0.0359282 0.0334203 0)
(-0.0411186 0.0339795 0)
(-0.0463213 0.0341671 -4.35672e-20)
(-0.0514832 0.034027 6.18149e-20)
(-0.0565559 0.0336004 -1.94944e-20)
(-0.0614945 0.0329256 0)
(-0.0662586 0.0320384 3.48477e-20)
(-0.0708106 0.0309717 -3.28369e-20)
(-0.0751165 0.0297567 3.10141e-20)
(-0.0791448 0.0284235 -5.84289e-20)
(-0.0828668 0.0270024 -8.25927e-20)
(-0.0862571 0.0255259 2.58878e-20)
(-0.0892934 0.0240301 2.43583e-20)
(-0.0919589 0.0225571 2.28671e-20)
(-0.0942437 0.0211568 0)
(-0.096148 0.0198877 -4.0344e-20)
(-0.0976865 0.0188166 0)
(-0.0989006 0.0180135 0)
(-0.0998535 0.0175408 -6.63802e-20)
(-0.100542 0.017455 -9.75591e-24)
(-0.101078 0.0178273 -8.73321e-20)
(-0.000945612 0.00403331 1.72332e-20)
(-0.00310602 0.0109936 3.56224e-20)
(-0.00597731 0.0170035 3.41005e-20)
(-0.00937589 0.0221434 -3.25208e-20)
(-0.0132026 0.0264738 0)
(-0.0173913 0.0300497 0)
(-0.021871 0.032928 2.82084e-20)
(-0.0265716 0.0351654 -2.68795e-20)
(-0.0314265 0.0368184 -3.90968e-23)
(-0.036373 0.0379424 4.85443e-20)
(-0.0413523 0.0385912 0)
(-0.0463096 0.0388167 4.35671e-20)
(-0.0511943 0.0386683 0)
(-0.0559594 0.0381925 0)
(-0.0605618 0.0374323 1.73393e-23)
(-0.0649612 0.0364276 3.48724e-20)
(-0.0691206 0.0352154 -3.29371e-20)
(-0.0730052 0.0338301 6.21208e-20)
(-0.076582 0.0323049 -2.92721e-20)
(-0.0798202 0.0306728 8.26346e-20)
(-0.0826906 0.0289692 0)
(-0.0851669 0.0272339 0)
(-0.087226 0.0255138 4.5844e-20)
(-0.0888516 0.0238657 0)
(-0.0900363 0.0223586 4.03189e-20)
(-0.0907879 0.0210741 -3.78473e-20)
(-0.0911456 0.0201022 3.54471e-20)
(-0.0911786 0.0195287 -3.32068e-20)
(-0.0908668 0.0194385 6.21518e-20)
(-0.0903136 0.0199339 8.73672e-20)
(-0.00114462 0.00446098 0)
(-0.00362299 0.0121702 -3.56224e-20)
(-0.00671941 0.018839 9.14724e-23)
(-0.0102649 0.024552 0)
(-0.0141684 0.0293733 -6.23754e-20)
(-0.0183693 0.0333615 -3.53711e-23)
(-0.0228022 0.0365776 2.82821e-20)
(-0.0274015 0.0390832 0)
(-0.0321053 0.0409396 2.55626e-20)
(-0.0368546 0.0422073 -4.85442e-20)
(-0.041594 0.0429454 0)
(-0.0462718 0.043211 0)
(-0.0508396 0.0430586 -4.13778e-20)
(-0.0552525 0.0425393 3.91183e-20)
(-0.0594685 0.0417005 -3.69618e-20)
(-0.0634485 0.0405862 0)
(-0.0671552 0.0392366 -3.30223e-20)
(-0.0705534 0.037689 -9.32746e-20)
(-0.0736086 0.0359788 -1.36485e-23)
(-0.0762875 0.0341413 -1.00475e-23)
(-0.0785573 0.0322139 2.59608e-20)
(-0.0803864 0.0302386 4.88242e-20)
(-0.0817456 0.0282662 -9.17121e-20)
(-0.0826105 0.0263595 4.30836e-20)
(-0.0829648 0.0245976 -7.81776e-24)
(-0.0828073 0.0230777 2.11501e-23)
(-0.0821723 0.0219132 2.3183e-23)
(-0.0811369 0.0212204 3.32282e-20)
(-0.0796627 0.0211228 0)
(-0.0778152 0.0217687 0)
(-0.00135876 0.00485196 3.4757e-20)
(-0.0041804 0.0132496 1.00041e-22)
(-0.00752104 0.0205282 9.95218e-23)
(-0.0112265 0.0267747 -6.55178e-20)
(-0.0152141 0.0320554 6.24158e-20)
(-0.0194285 0.0364314 0)
(-0.0238096 0.039967 0)
(-0.0282969 0.0427277 5.39936e-20)
(-0.0328326 0.0447788 -5.12698e-20)
(-0.037362 0.0461854 3.8919e-23)
(-0.041833 0.0470115 9.24119e-20)
(-0.0461968 0.0473186 4.3785e-20)
(-0.0504077 0.0471659 -8.28841e-20)
(-0.0544226 0.0466088 3.91921e-20)
(-0.0582011 0.0456988 3.70692e-20)
(-0.0617047 0.0444832 -3.49898e-20)
(-0.0648965 0.0430052 6.60084e-20)
(-0.0677402 0.0413046 9.35047e-20)
(-0.0702 0.0394185 5.87597e-20)
(-0.07224 0.0373835 2.76463e-20)
(-0.0738234 0.0352377 -5.1994e-20)
(-0.0749134 0.0330247 0)
(-0.0754735 0.0307972 3.40889e-23)
(-0.0754706 0.0286228 4.31579e-20)
(-0.074878 0.026589 4.0418e-20)
(-0.0736826 0.0248095 -7.58457e-20)
(-0.0719109 0.0234236 -3.55093e-20)
(-0.0696496 0.0225865 6.64648e-20)
(-0.066846 0.0224713 0)
(-0.0634614 0.0232892 -5.81722e-20)
(-0.00158524 0.00520439 3.48326e-20)
(-0.0047712 0.0142265 -7.17483e-20)
(-0.00837241 0.0220623 2.25085e-23)
(-0.0122494 0.0287993 -9.81923e-23)
(-0.0163274 0.0345046 0)
(-0.0205561 0.039241 0)
(-0.0248805 0.043075 0)
(-0.0292449 0.0460751 -5.41256e-20)
(-0.033596 0.0483102 5.13952e-20)
(-0.0378827 0.0498493 -4.87526e-20)
(-0.0420565 0.0507602 -9.25452e-20)
(-0.0460716 0.0511091 -2.64012e-23)
(-0.0498846 0.050959 8.30869e-20)
(-0.0534546 0.0503693 3.93227e-20)
(-0.0567425 0.0493952 0)
(-0.0597103 0.0480872 -7.01941e-20)
(-0.0623213 0.0464909 9.93326e-20)
(-0.0645385 0.044648 -9.3542e-20)
(-0.0663243 0.042597 -5.87878e-20)
(-0.0676399 0.0403747 -1.66099e-19)
(-0.0684447 0.0380195 -3.53742e-24)
(-0.0686962 0.0355745 4.94195e-24)
(-0.0683502 0.033093 3.25773e-23)
(-0.067364 0.0306448 -8.62673e-20)
(-0.065699 0.0283246 1.21455e-19)
(-0.063328 0.0262606 -5.45625e-23)
(-0.0602644 0.0246212 0)
(-0.0566082 0.0236078 -6.64636e-20)
(-0.0523117 0.0234548 6.21581e-20)
(-0.0470923 0.0244544 5.84147e-20)
(-0.00182127 0.00551713 0)
(-0.00538833 0.0150971 -3.6035e-20)
(-0.00926361 0.0234348 3.44267e-20)
(-0.0133217 0.0306164 6.58087e-20)
(-0.0174952 0.0367087 3.14655e-20)
(-0.0217384 0.041775 -5.98714e-20)
(-0.026001 0.0458834 -6.26754e-23)
(-0.0302317 0.0491046 -5.42292e-20)
(-0.0343813 0.0515105 0)
(-0.0384024 0.0531731 4.89906e-20)
(-0.0422498 0.0541642 0)
(-0.0458805 0.0545534 0)
(-0.0492535 0.0544077 -8.32349e-20)
(-0.0523297 0.0537899 -7.86944e-20)
(-0.0550711 0.0527586 1.1167e-19)
(-0.0574405 0.0513669 7.01935e-20)
(-0.0594008 0.049663 7.12211e-23)
(-0.060914 0.0476899 -6.24958e-20)
(-0.0619407 0.0454868 1.17736e-19)
(-0.0624391 0.0430906 4.20269e-24)
(-0.0623643 0.0405384 1.04335e-19)
(-0.0616677 0.0378719 0)
(-0.0602976 0.0351427 0)
(-0.0582005 0.0324206 8.64441e-20)
(-0.0553251 0.0298038 -1.21456e-19)
(-0.0516274 0.0274334 1.13839e-19)
(-0.0471014 0.0255065 -7.10671e-20)
(-0.0418617 0.0242755 6.6488e-20)
(-0.0359207 0.0240515 -1.24312e-19)
(-0.0285326 0.0252953 5.84586e-20)
(-0.00206415 0.00578971 -3.51543e-20)
(-0.00602488 0.0158595 0)
(-0.0101849 0.0246417 0)
(-0.0144318 0.0322195 -6.61689e-20)
(-0.0187046 0.0386582 1.26198e-19)
(-0.0229616 0.0440211 -6.00555e-20)
(-0.0271565 0.048377 -9.95663e-23)
(-0.0312422 0.0517981 5.43833e-20)
(-0.0351729 0.0543587 0)
(-0.0389047 0.0561337 7.29547e-23)
(-0.0423954 0.0571978 1.95034e-23)
(-0.0456047 0.0576241 -8.8129e-20)
(-0.0484937 0.0574828 -1.50441e-22)
(-0.0510246 0.0568402 -3.94536e-20)
(-0.0531605 0.0557577 -1.11837e-19)
(-0.0548644 0.0542911 7.04057e-20)
(-0.0560986 0.0524906 -6.64064e-20)
(-0.0568238 0.0504004 1.25292e-19)
(-0.0569983 0.0480602 -1.18016e-19)
(-0.0565768 0.0455061 -1.11049e-19)
(-0.0555099 0.0427737 3.25539e-23)
(-0.0537428 0.0399017 -4.90872e-20)
(-0.0512155 0.0369383 4.60744e-20)
(-0.0478637 0.0339501 5.58019e-23)
(-0.0436221 0.0310349 -1.21677e-19)
(-0.038428 0.0283422 -7.59688e-20)
(-0.0322505 0.0260945 1.42155e-19)
(-0.0252052 0.0245871 -1.32973e-19)
(-0.017414 0.0242226 6.21536e-20)
(-0.00765419 0.0260034 7.74984e-23)
(-0.00231136 0.00602234 1.05627e-19)
(-0.00667425 0.0165134 -3.62385e-20)
(-0.0111267 0.0256812 -6.9418e-20)
(-0.0155679 0.0336047 1.98816e-19)
(-0.0199423 0.0403468 2.11064e-22)
(-0.0242112 0.0459701 0)
(-0.0283316 0.0505436 0)
(-0.0322598 0.0541405 5.45686e-20)
(-0.0359532 0.0568369 -5.17501e-20)
(-0.0393708 0.0587101 4.91743e-20)
(-0.0424731 0.0598376 -4.66371e-20)
(-0.0452219 0.0602954 -8.84627e-20)
(-0.04758 0.0601568 1.67122e-19)
(-0.0495109 0.0594911 -3.95267e-20)
(-0.050978 0.0583624 7.45601e-20)
(-0.051944 0.0568291 -1.41062e-19)
(-0.05237 0.0549429 -1.24952e-23)
(-0.0522149 0.0527496 4.94491e-23)
(-0.051434 0.0502888 1.18117e-19)
(-0.049978 0.047596 -4.32413e-23)
(-0.0477923 0.0447045 0)
(-0.0448155 0.0416493 0)
(-0.0409789 0.0384735 -4.62166e-20)
(-0.0362072 0.0352373 -1.73105e-19)
(-0.0304203 0.0320341 1.21713e-19)
(-0.0235365 0.0290149 -4.35915e-23)
(-0.0155025 0.0264194 -1.42194e-19)
(-0.00642111 0.0245807 1.32888e-19)
(0.00364847 0.0240573 -6.21871e-20)
(0.0158596 0.0263969 5.79315e-20)
(-0.00256059 0.00621589 0)
(-0.00733031 0.0170601 0)
(-0.01208 0.026554 6.97719e-20)
(-0.0167188 0.0347711 -1.32938e-19)
(-0.0211952 0.0417714 8.47749e-23)
(-0.0254723 0.0476162 -6.04807e-20)
(-0.0295098 0.0523743 1.72752e-19)
(-0.0332666 0.0561197 -1.64247e-19)
(-0.0367025 0.0589299 -3.9445e-24)
(-0.0397791 0.0608843 -4.93119e-20)
(-0.0424589 0.0620627 -1.40381e-19)
(-0.0447052 0.062544 1.32726e-19)
(-0.0464822 0.0624042 0)
(-0.0477537 0.0617153 0)
(-0.0484831 0.060544 7.47824e-20)
(-0.048632 0.058951 1.41408e-19)
(-0.0481597 0.05699 -6.66573e-20)
(-0.0470221 0.0547078 0)
(-0.0451706 0.0521445 -5.91738e-20)
(-0.042551 0.0493348 1.04434e-23)
(-0.0391026 0.0463096 -5.2433e-20)
(-0.0347566 0.0431 0)
(-0.0294351 0.0397426 -4.62756e-20)
(-0.0230514 0.0362895 4.33534e-20)
(-0.0155106 0.0328245 -8.11395e-20)
(-0.00671071 0.0294929 2.28056e-19)
(0.0034237 0.0265411 -8.9097e-23)
(0.0148031 0.0243414 6.64562e-20)
(0.0274726 0.0236247 0)
(0.0426313 0.0263196 -5.83245e-20)
(-0.00280982 0.00637178 -7.10624e-20)
(-0.00798751 0.0175025 7.30543e-20)
(-0.0130365 0.0272628 1.56321e-22)
(-0.0178736 0.0357201 -6.67351e-20)
(-0.02245 0.0429314 0)
(-0.0267296 0.0489564 -1.21458e-19)
(-0.0306737 0.0538634 8.41727e-23)
(-0.0342427 0.057727 5.47223e-20)
(-0.0373986 0.0606259 3.52321e-24)
(-0.0401044 0.0626414 -2.09323e-24)
(-0.0423241 0.0638555 1.405e-19)
(-0.0440221 0.0643495 4.43892e-20)
(-0.045163 0.0642021 4.2098e-20)
(-0.0457104 0.0634878 -7.94105e-20)
(-0.0456264 0.0622759 7.50137e-20)
(-0.044871 0.0606293 -7.07358e-20)
(-0.0434001 0.0586035 6.67768e-20)
(-0.0411657 0.0562468 -6.29379e-20)
(-0.0381141 0.0536001 0)
(-0.0341848 0.0506974 -5.58557e-20)
(-0.0293096 0.047568 1.04785e-19)
(-0.023411 0.044239 4.93044e-20)
(-0.0164013 0.0407406 -4.63108e-20)
(-0.00818165 0.0371151 1.73504e-19)
(0.00135741 0.0334332 -4.06661e-20)
(0.0123379 0.0298261 7.60744e-20)
(0.024861 0.026534 -7.10184e-20)
(0.0388494 0.0239549 8.64411e-23)
(0.0544171 0.0229744 0)
(0.0730797 0.0259845 -1.15271e-19)
(-0.00305738 0.00649198 -1.15302e-22)
(-0.00864095 0.0178445 -7.33565e-20)
(-0.0139883 0.0278121 0)
(-0.0190218 0.0364558 -6.71404e-20)
(-0.0236935 0.0438293 6.39197e-20)
(-0.0279671 0.0499908 -9.66422e-23)
(-0.0318041 0.0550083 0)
(-0.0351661 0.0589569 -8.5889e-23)
(-0.0380158 0.0619164 -5.22022e-20)
(-0.0403173 0.0639699 4.95979e-20)
(-0.0420349 0.0652015 0)
(-0.0431336 0.0656949 -8.89937e-20)
(-0.0435773 0.065531 8.43999e-20)
(-0.0433285 0.0647871 0)
(-0.0423473 0.0635348 0)
(-0.04059 0.0618392 0)
(-0.0380086 0.0597581 0)
(-0.0345492 0.0573413 6.30266e-20)
(-0.0301513 0.0546309 -5.93618e-20)
(-0.0247463 0.0516611 1.67445e-19)
(-0.018257 0.0484604 -1.04998e-19)
(-0.0105954 0.0450529 -9.85416e-20)
(-0.0016625 0.0414631 1.38841e-19)
(0.00865303 0.0377236 6.18248e-23)
(0.020475 0.0338896 -8.1331e-20)
(0.033944 0.0300718 -7.60723e-20)
(0.0491888 0.0264896 -7.11085e-20)
(0.0661434 0.0235382 1.32778e-19)
(0.0849419 0.0222166 -1.23747e-19)
(0.107702 0.0255619 2.30184e-19)
(-0.00330193 0.00657887 1.43254e-19)
(-0.00928646 0.0180913 -1.33206e-22)
(-0.0149284 0.0282081 -1.41038e-19)
(-0.0201533 0.036984 1.34544e-19)
(-0.0249124 0.0444696 -6.42712e-20)
(-0.0291678 0.0507222 -6.10997e-20)
(-0.0328806 0.0558095 5.81297e-20)
(-0.0360119 0.0598072 5.52368e-20)
(-0.0385247 0.0627964 -1.04976e-19)
(-0.0403829 0.0648621 -1.49351e-19)
(-0.0415509 0.0660903 -4.71029e-20)
(-0.0419925 0.0665671 1.7845e-19)
(-0.0416703 0.0663758 -2.53077e-19)
(-0.0405445 0.065596 7.97689e-20)
(-0.0385715 0.0643019 0)
(-0.035703 0.062561 0)
(-0.0318848 0.0604334 0)
(-0.0270556 0.0579708 1.26287e-19)
(-0.021146 0.0552172 -5.94453e-20)
(-0.0140772 0.0522082 -5.5988e-20)
(-0.00576033 0.0489721 -1.05109e-19)
(0.00390454 0.0455321 9.87205e-20)
(0.0150296 0.0419087 -4.63492e-20)
(0.0277397 0.0381261 -8.69329e-20)
(0.0421723 0.0342248 -9.98487e-23)
(0.0584835 0.0302908 -1.52075e-19)
(0.076829 0.0265101 2.13296e-19)
(0.0971536 0.0232413 -1.99267e-19)
(0.119544 0.0215266 6.22033e-20)
(0.147069 0.0252234 -5.72616e-20)
(-0.00354249 0.00663512 -7.17826e-20)
(-0.00992051 0.018249 7.38586e-20)
(-0.0158504 0.0284583 7.06029e-20)
(-0.0212581 0.0373124 -2.0262e-19)
(-0.0260928 0.0448595 6.42677e-20)
(-0.0303136 0.0511561 6.13242e-20)
(-0.0338798 0.0562704 0)
(-0.0367515 0.060279 0)
(-0.0388907 0.0632647 5.25257e-20)
(-0.0402603 0.0653142 9.96206e-20)
(-0.0408234 0.066516 -1.89122e-19)
(-0.0405419 0.0669581 -8.71233e-23)
(-0.0393756 0.0667265 0)
(-0.0372809 0.0659032 0)
(-0.0342091 0.0645649 -7.54372e-20)
(-0.0301054 0.0627816 3.72751e-23)
(-0.0249075 0.060616 6.71246e-20)
(-0.0185444 0.0581225 -6.31709e-20)
(-0.0109355 0.0553475 -1.19073e-19)
(-0.00198945 0.0523289 1.11879e-19)
(0.00839645 0.0490968 5.25786e-20)
(0.0203368 0.0456751 -1.48254e-19)
(0.0339586 0.0420829 -9.26271e-20)
(0.0494009 0.0383394 8.70392e-20)
(0.066814 0.034473 8.14561e-20)
(0.0863651 0.0305454 7.60966e-20)
(0.108232 0.0267019 0)
(0.132374 0.0232334 0)
(0.158724 0.0211185 1.234e-19)
(0.191751 0.0251918 0)
(-0.00377843 0.00666363 7.2428e-20)
(-0.0105402 0.018324 -7.43504e-20)
(-0.0167481 0.0285712 1.42231e-19)
(-0.0223263 0.03745 -2.79392e-22)
(-0.02722 0.0450073 0)
(-0.0313845 0.0513 0)
(-0.0347759 0.0563971 0)
(-0.0373524 0.0603768 -5.55949e-20)
(-0.0390738 0.0633238 5.279e-20)
(-0.039901 0.0653272 0)
(-0.0397946 0.0664776 9.46375e-20)
(-0.0387134 0.0668656 8.97064e-20)
(-0.036613 0.0665796 -8.48096e-20)
(-0.0334441 0.0657043 8.01186e-20)
(-0.0291512 0.0643189 -9.47232e-23)
(-0.0236709 0.0624964 -7.1329e-20)
(-0.0169307 0.0603023 -6.72482e-20)
(-0.00884748 0.0577943 1.89928e-19)
(0.000673079 0.0550219 5.94799e-20)
(0.0117375 0.0520265 -1.1208e-19)
(0.0244645 0.0488417 -5.26125e-20)
(0.0389855 0.0454942 4.94083e-20)
(0.0554435 0.0420048 0)
(0.0739921 0.0383918 -8.69162e-20)
(0.0947924 0.0346765 -8.13619e-20)
(0.118017 0.030901 0)
(0.143857 0.0271699 7.087e-20)
(0.172291 0.0236885 -1.32753e-19)
(0.202949 0.0212263 -1.85242e-19)
(0.242254 0.0257409 0)
(-0.00400938 0.00666731 -1.45022e-19)
(-0.011143 0.018323 7.48387e-20)
(-0.0176156 0.0285555 -1.42711e-19)
(-0.0233474 0.0374066 -2.88467e-22)
(-0.0282782 0.0449233 0)
(-0.032358 0.0511635 0)
(-0.0355392 0.0561983 5.88629e-20)
(-0.0377764 0.0601082 1.11801e-19)
(-0.0390267 0.0629803 0)
(-0.0392476 0.0649064 0)
(-0.0383959 0.0659797 -1.90138e-19)
(-0.0364256 0.0662935 9.00107e-20)
(-0.0332865 0.065939 -1.40264e-22)
(-0.028922 0.0650035 0)
(-0.0232675 0.0635693 -3.23092e-23)
(-0.0162489 0.0617122 7.14479e-20)
(-0.00778091 0.0595014 -1.59789e-22)
(0.00223405 0.0569981 -2.53508e-19)
(0.0139065 0.0542563 -5.96512e-20)
(0.0273602 0.0513218 1.12078e-19)
(0.0427322 0.0482333 1.05273e-19)
(0.0601716 0.0450224 -8.59495e-23)
(0.0798376 0.0417151 9.27548e-20)
(0.101897 0.0383325 1.73819e-19)
(0.126517 0.034895 8.13588e-20)
(0.153868 0.0314327 7.6021e-20)
(0.184137 0.0280176 7.07955e-20)
(0.217344 0.0247749 1.32001e-19)
(0.252599 0.0220838 -7.59977e-22)
(0.298937 0.0271758 5.57311e-20)
(-0.00423519 0.00664902 1.46059e-19)
(-0.0117267 0.0182526 -2.25019e-19)
(-0.018447 0.0284202 1.43347e-19)
(-0.0243102 0.0371926 1.36783e-19)
(-0.0292495 0.0446182 6.51563e-20)
(-0.0332087 0.0507577 -4.11493e-23)
(-0.0361352 0.0556851 -5.87724e-20)
(-0.0379795 0.0594839 -1.11801e-19)
(-0.0386943 0.0622448 2.38617e-22)
(-0.0382326 0.0640624 2.01322e-19)
(-0.0365459 0.0650332 -9.56148e-20)
(-0.0335819 0.0652534 1.80301e-19)
(-0.0292826 0.0648172 -1.0828e-22)
(-0.0235819 0.0638151 -1.60818e-19)
(-0.0164041 0.0623324 -1.59729e-23)
(-0.00766171 0.0604488 0)
(0.00274561 0.0582372 3.36831e-19)
(0.0149322 0.0557634 6.33249e-20)
(0.029027 0.0530864 0)
(0.0451726 0.0502579 5.6055e-20)
(0.0635251 0.0473231 -5.27252e-20)
(0.0842507 0.0443206 1.97728e-19)
(0.107523 0.0412837 -2.7824e-19)
(0.133517 0.0382406 8.69631e-20)
(0.162401 0.0352162 0)
(0.194326 0.0322368 7.58925e-20)
(0.229452 0.0293537 -1.41715e-19)
(0.26787 0.0266502 1.31957e-19)
(0.307908 0.0239056 -1.22811e-19)
(0.361915 0.0298026 -1.12861e-19)
(-0.00445583 0.00661136 -1.4658e-19)
(-0.012289 0.018119 -3.61365e-22)
(-0.0192355 0.0281739 -7.18352e-20)
(-0.0252019 0.0368182 -6.8541e-20)
(-0.0301135 0.0441035 -1.31025e-19)
(-0.0339071 0.0500948 6.23101e-20)
(-0.0365243 0.0548703 7.95966e-23)
(-0.0379103 0.0585177 -1.12398e-19)
(-0.0380121 0.0611318 -1.59594e-19)
(-0.036777 0.0628109 1.48609e-22)
(-0.0341496 0.0636552 9.53593e-20)
(-0.0300692 0.0637644 -1.80514e-19)
(-0.0244681 0.0632361 8.54191e-20)
(-0.0172686 0.0621644 8.06435e-20)
(-0.00838113 0.0606383 -9.44939e-24)
(0.00229721 0.0587415 7.16725e-20)
(0.0148842 0.0565517 -1.34826e-19)
(0.029513 0.0541399 0)
(0.0463321 0.0515712 -1.19448e-19)
(0.0655035 0.0489043 1.12248e-19)
(0.0872012 0.0461921 -1.05403e-19)
(0.111606 0.043482 -9.8904e-20)
(0.138899 0.0408164 0)
(0.169256 0.0382329 -2.60418e-19)
(0.202832 0.0357649 1.63458e-22)
(0.239743 0.0334417 -3.79368e-19)
(0.280084 0.0313028 2.12696e-19)
(0.324045 0.0294617 -2.63621e-19)
(0.368909 0.026874 1.22804e-19)
(0.430955 0.0338945 -1.11587e-19)
(-0.00467121 0.00655658 7.34696e-20)
(-0.0128273 0.0179275 7.5548e-20)
(-0.0199736 0.0278244 7.25224e-20)
(-0.0260078 0.036293 -1.89531e-22)
(-0.0308467 0.0433906 -1.68698e-22)
(-0.0344194 0.0491878 0)
(-0.0366606 0.0537686 0)
(-0.0375092 0.0572261 0)
(-0.0369056 0.0596598 0)
(-0.0347895 0.0611729 0)
(-0.0310968 0.0618698 9.56922e-20)
(-0.0257568 0.0618543 -9.04971e-20)
(-0.0186896 0.061228 8.56246e-20)
(-0.00980335 0.0600891 7.86963e-24)
(0.00100725 0.0585311 -7.60548e-20)
(0.013863 0.0566424 1.56997e-23)
(0.0289009 0.0545062 -1.35122e-19)
(0.046274 0.0521999 1.2712e-19)
(0.0661504 0.0497953 1.19445e-19)
(0.0887101 0.0473593 -1.12133e-19)
(0.114141 0.0449535 2.109e-19)
(0.142631 0.042635 0)
(0.174362 0.0404564 -1.85228e-19)
(0.20949 0.0384656 3.23192e-22)
(0.24814 0.0367058 3.85207e-22)
(0.290369 0.0352123 5.65485e-22)
(0.33616 0.0340133 -7.0366e-20)
(0.385814 0.0333472 1.31663e-19)
(0.435384 0.0311344 1.22329e-19)
(0.505389 0.0396585 5.79824e-20)
(-0.00488107 0.00648643 0)
(-0.013338 0.0176825 7.61084e-20)
(-0.0206517 0.0273782 -7.23431e-20)
(-0.0267103 0.0356259 -1.34893e-22)
(-0.0314214 0.0424904 1.32081e-19)
(-0.0347059 0.0480501 -6.28602e-20)
(-0.0364909 0.052396 0)
(-0.0367078 0.0556279 0)
(-0.0352892 0.0578513 -1.07229e-19)
(-0.0321654 0.0591749 1.01724e-19)
(-0.027262 0.0597081 9.62569e-20)
(-0.0204958 0.0595597 0)
(-0.0117726 0.058836 8.58412e-20)
(-0.000984421 0.0576401 0)
(0.0119922 0.0560706 -1.52338e-19)
(0.0272976 0.0542218 2.15394e-19)
(0.0450888 0.0521831 2.02718e-19)
(0.0655386 0.0500391 -6.35939e-20)
(0.0888327 0.0478696 -1.17207e-22)
(0.115165 0.0457502 -1.68472e-19)
(0.144729 0.043752 0)
(0.177709 0.0419419 0)
(0.214269 0.0403822 9.26573e-20)
(0.254527 0.0391301 1.73311e-19)
(0.298547 0.0382373 -1.03095e-22)
(0.346296 0.0377433 1.5151e-19)
(0.397601 0.0376559 1.41242e-19)
(0.452824 0.0384257 0)
(0.506819 0.0367929 -1.22321e-19)
(0.58404 0.047203 1.68118e-19)
(-0.00508482 0.00640208 7.46506e-20)
(-0.0138167 0.0173869 0)
(-0.0212584 0.0268405 1.61408e-22)
(-0.0272886 0.0348244 -6.97161e-20)
(-0.0318054 0.0414134 6.65298e-20)
(-0.0347211 0.0466952 6.3055e-20)
(-0.0359544 0.0507697 -1.115e-22)
(-0.0354282 0.0537446 5.70342e-20)
(-0.0330656 0.0557325 0)
(-0.0287864 0.0568486 -2.03982e-19)
(-0.0225034 0.0572084 2.67481e-22)
(-0.0141192 0.0569263 0)
(-0.00352294 0.0561144 8.60464e-20)
(0.00941149 0.0548815 -2.43228e-19)
(0.0248273 0.0533324 7.64646e-20)
(0.0428849 0.0515682 -7.18297e-20)
(0.0637611 0.0496854 -1.35332e-19)
(0.0876459 0.0477768 -1.91019e-19)
(0.114738 0.0459308 0)
(0.145235 0.0442319 0)
(0.179326 0.0427606 1.05378e-19)
(0.217175 0.0415927 9.86751e-20)
(0.2589 0.0407982 -9.26982e-20)
(0.304556 0.0404404 0)
(0.354107 0.0405747 0)
(0.407389 0.0412393 0)
(0.464046 0.04241 1.40632e-19)
(0.524353 0.0447763 -6.52311e-20)
(0.582385 0.0439153 1.22862e-19)
(0.665181 0.0565112 1.09076e-19)
(-0.00528133 0.00630401 -1.4951e-19)
(-0.0142571 0.0170424 7.69575e-20)
(-0.0217795 0.0262149 -7.36904e-20)
(-0.0277179 0.0338948 7.02514e-20)
(-0.0319613 0.0401689 -6.65297e-20)
(-0.0344125 0.0451365 6.33485e-20)
(-0.0349818 0.0489077 -6.02687e-20)
(-0.0335822 0.0515995 -1.13945e-19)
(-0.0301261 0.0533331 1.08371e-19)
(-0.0245207 0.0542309 2.04654e-19)
(-0.0166645 0.0544158 9.65752e-20)
(-0.00644353 0.0540088 -9.1453e-20)
(0.00627124 0.0531286 2.20705e-22)
(0.0216256 0.0518908 2.38177e-23)
(0.039783 0.0504078 7.66139e-20)
(0.0609233 0.0487879 0)
(0.08524 0.0471362 1.35408e-19)
(0.112935 0.0455538 3.18331e-19)
(0.144211 0.044138 -5.99017e-20)
(0.179258 0.0429821 0)
(0.218239 0.042174 -2.10736e-19)
(0.261273 0.0417959 -9.87428e-20)
(0.308405 0.0419217 -9.23265e-20)
(0.359586 0.0426149 8.66835e-20)
(0.414641 0.0439278 -8.06298e-20)
(0.473228 0.0458857 7.56193e-20)
(0.534799 0.0484382 -3.52042e-22)
(0.599274 0.0524093 1.30199e-19)
(0.660902 0.052552 -1.21645e-19)
(0.74647 0.0674673 -2.19439e-19)
(-0.00546879 0.00619204 7.55595e-20)
(-0.0146511 0.0166491 7.73828e-20)
(-0.0221973 0.0255031 -2.38442e-22)
(-0.0279687 0.0328414 4.02936e-22)
(-0.0318453 0.038765 0)
(-0.0337207 0.0433868 -2.42663e-22)
(-0.0334953 0.0468287 -1.81854e-19)
(-0.0310718 0.0492183 0)
(-0.0263503 0.0506863 -1.08766e-19)
(-0.0192239 0.051364 -4.10827e-19)
(-0.00957483 0.0513824 9.71917e-20)
(0.00272896 0.0508704 -9.174e-20)
(0.0178359 0.0499545 -1.72513e-19)
(0.0359118 0.0487584 1.63035e-19)
(0.0571392 0.0474024 0)
(0.0817145 0.0460038 7.2021e-20)
(0.109842 0.0446761 -2.03669e-19)
(0.141727 0.0435292 -6.37683e-20)
(0.177561 0.0426686 -1.79696e-19)
(0.217507 0.0421941 0)
(0.261678 0.0421985 2.1071e-19)
(0.310115 0.0427653 9.87377e-20)
(0.362753 0.0439655 0)
(0.419398 0.0458545 8.63611e-20)
(0.479693 0.0484716 0)
(0.543069 0.0518144 -7.49929e-20)
(0.608804 0.0558438 -2.09855e-19)
(0.676118 0.0612367 -2.60025e-19)
(0.740835 0.0628254 -1.20543e-19)
(0.824824 0.0799397 -3.39492e-21)
(-0.00564451 0.0060653 -7.55595e-20)
(-0.0149881 0.0162056 2.94904e-22)
(-0.0224905 0.024705 7.43881e-20)
(-0.0280068 0.0316671 -7.06542e-20)
(-0.031408 0.0372091 -6.73566e-20)
(-0.0325784 0.041459 1.27784e-19)
(-0.0314085 0.0445521 6.09106e-20)
(-0.0277894 0.0466282 1.15401e-19)
(-0.0216074 0.0478286 1.08826e-19)
(-0.0127403 0.0482947 1.03302e-19)
(-0.00105265 0.0481668 1.95128e-19)
(0.0136066 0.0475828 -3.06415e-22)
(0.0314056 0.0466784 0)
(0.0525289 0.0455861 -8.14992e-20)
(0.0771748 0.0444354 -2.17584e-22)
(0.10555 0.0433527 1.31834e-22)
(0.137861 0.0424602 2.03769e-19)
(0.1743 0.0418757 0)
(0.215029 0.0417106 1.19747e-19)
(0.260157 0.0420681 0)
(0.309717 0.0430404 2.33568e-24)
(0.363631 0.0447046 -9.84827e-20)
(0.421685 0.0471192 1.84647e-19)
(0.483495 0.0503192 -8.66096e-20)
(0.548488 0.0543188 -1.60976e-19)
(0.615838 0.0590703 7.52015e-20)
(0.684677 0.0646029 2.79536e-19)
(0.753277 0.0710507 6.46825e-20)
(0.820443 0.0749894 2.9962e-19)
(0.896599 0.0934432 5.69511e-20)
(-0.00580482 0.00592225 7.63033e-20)
(-0.0152548 0.0157091 -1.566e-19)
(-0.022634 0.0238191 0)
(-0.0277922 0.0303734 0)
(-0.0305931 0.0355073 6.77503e-20)
(-0.0309114 0.0393655 -2.67024e-22)
(-0.0286269 0.0420983 -1.21918e-19)
(-0.0236183 0.0438585 -1.15599e-19)
(-0.0157575 0.0447997 4.0307e-22)
(-0.00490539 0.0450745 4.19375e-22)
(0.00909168 0.0448336 -9.75687e-20)
(0.0264037 0.0442254 1.84068e-19)
(0.047217 0.0433954 -1.7379e-19)