/*--------------------------------*- C++ -*----------------------------------*\
  =========                 |
  \\      /  F ield         | OpenFOAM: The Open Source CFD Toolbox
   \\    /   O peration     | Website:  https://openfoam.org
    \\  /    A nd           | Version:  7
     \\/     M anipulation  |
\*---------------------------------------------------------------------------*/
FoamFile
{
    version     2.0;
    format      ascii;
    class       volVectorField;
    location    "5";
    object      U;
}
// * * * * * * * * * * * * * * * * * * * * * * * * * * * * * * * * * * * * * //

dimensions      [0 1 -1 0 0 0 0];

internalField   nonuniform List<vector> 
183
(
(0.990485 0.0171519 0)
(0.997495 0.0159505 0)
(1.00281 0.0137394 0)
(1.00542 0.0132807 0)
(1.00568 0.0135205 0)
(1.00517 0.0141443 0)
(1.00496 0.0149405 0)
(1.0054 0.0156095 0)
(1.00627 0.0159803 0)
(1.00732 0.0160331 0)
(1.00836 0.0157754 0)
(1.00929 0.0152139 0)
(1.01008 0.0143669 0)
(1.01072 0.0132598 0)
(1.01123 0.0119229 0)
(1.01163 0.0103904 0)
(1.01193 0.00869757 0)
(1.01215 0.0068812 0)
(1.01231 0.0049712 0)
(1.01241 0.00299875 0)
(1.01245 0.00100076 0)
(0.983619 0.0264183 0)
(0.982199 0.032578 0)
(0.983697 0.0366333 0)
(0.987911 0.0379874 0)
(0.993226 0.038084 0)
(0.997963 0.0370615 0)
(1.00137 0.0351458 0)
(1.00354 0.0327348 0)
(1.00482 0.0300885 0)
(1.00555 0.0273107 0)
(1.00596 0.0244906 0)
(1.00619 0.021699 0)
(1.00632 0.0189844 0)
(1.00639 0.0163766 0)
(1.00642 0.0138897 0)
(1.00643 0.011524 0)
(1.00643 0.00927038 0)
(1.00643 0.00711225 0)
(1.00642 0.00503111 0)
(1.00641 0.00300437 0)
(1.00641 0.00100068 0)
(0.984842 0.0172611 -5.49679e-22)
(0.986434 0.0238792 1.23998e-21)
(0.98315 0.016365 8.59328e-21)
(0.98737 0.0228716 -5.90414e-23)
(0.981664 0.0154144 -4.61386e-21)
(0.988276 0.0218533 3.96337e-21)
(0.980378 0.0145567 -9.26327e-21)
(0.989121 0.0208272 5.89684e-21)
(0.979277 0.0136929 5.5195e-21)
(0.989886 0.0197653 -2.2424e-20)
(0.978347 0.0128166 3.91559e-21)
(0.990563 0.01867 1.49356e-20)
(0.968088 0.0397043 1.28072e-20)
(0.977566 0.0119353 -9.90618e-21)
(0.99115 0.0175482 1.11275e-20)
(0.967655 0.0373501 2.32307e-20)
(0.976913 0.011054 -9.71958e-21)
(0.991649 0.0164039 -3.56343e-21)
(0.967217 0.034925 -2.61999e-20)
(0.976368 0.0101552 9.67484e-21)
(0.992066 0.0152419 5.8789e-21)
(0.966788 0.0324316 1.46294e-20)
(0.975915 0.00922802 2.29581e-21)
(0.99241 0.0140637 -6.85229e-21)
(0.966379 0.0298742 -9.78689e-21)
(0.975535 0.00840576 -9.97077e-21)
(0.992689 0.0128702 7.23987e-21)
(0.966006 0.0272509 1.80658e-20)
(0.975217 0.00764071 -1.02681e-20)
(0.992906 0.0116671 1.12375e-20)
(0.965667 0.0245657 -3.13393e-20)
(0.974952 0.006821 3.22424e-20)
(0.993074 0.0104552 -2.64328e-20)
(0.965366 0.0218232 8.83306e-21)
(0.97473 0.00600352 -1.08667e-20)
(0.965103 0.0190277 2.34572e-20)
(0.974547 0.00518898 4.28356e-21)
(0.964879 0.0161848 2.43373e-21)
(0.974396 0.0043786 -1.07343e-20)
(0.964693 0.0133006 -4.44885e-21)
(0.974274 0.0035733 2.07141e-21)
(0.964546 0.0103819 4.0653e-21)
(0.974179 0.00277311 -6.67841e-21)
(0.964435 0.00743581 -6.80236e-21)
(0.97411 0.00197746 3.88122e-21)
(0.964362 0.00446995 1.62916e-21)
(0.974064 0.00118536 -2.28579e-21)
(0.964325 0.00149212 -1.80983e-22)
(0.974041 0.000395522 2.08395e-23)
(0.964325 -0.00148972 -6.18814e-22)
(0.974041 -0.000393552 2.29222e-22)
(0.964362 -0.00446754 1.02874e-21)
(0.974063 -0.00118341 -1.19092e-21)
(0.964435 -0.00743341 -2.99997e-21)
(0.974109 -0.00197551 4.75683e-21)
(0.964545 -0.0103795 4.97699e-21)
(0.974179 -0.00277116 -6.70703e-21)
(0.964693 -0.0132982 -5.33201e-21)
(0.974274 -0.00357136 3.47794e-21)
(0.964879 -0.0161824 -2.00543e-21)
(0.974396 -0.00437667 -1.04014e-20)
(0.965103 -0.0190254 1.60296e-20)
(0.974546 -0.00518706 7.69267e-21)
(0.965366 -0.0218208 9.80692e-23)
(0.97473 -0.00600161 -5.72561e-21)
(0.9932 -0.00923428 -5.45476e-22)
(0.965667 -0.0245633 -2.96307e-20)
(0.974952 -0.0068191 2.76713e-20)
(0.993074 -0.0104536 -2.4555e-20)
(0.966005 -0.0272485 1.90583e-20)
(0.975217 -0.00763878 -8.26074e-21)
(0.992906 -0.0116655 1.0355e-20)
(0.966379 -0.0298718 -7.12929e-21)
(0.975535 -0.0084043 -3.6897e-21)
(0.992689 -0.0128686 5.8208e-21)
(0.966788 -0.0324293 2.48846e-20)
(0.975914 -0.00922637 4.0032e-21)
(0.99241 -0.0140621 -8.11465e-21)
(0.967216 -0.0349227 -3.99062e-20)
(0.976368 -0.010153 1.41797e-20)
(0.992066 -0.0152403 -5.43117e-22)
(0.967655 -0.0373478 9.02553e-21)
(0.976913 -0.0110521 -1.31232e-20)
(0.991649 -0.0164023 -2.16404e-21)
(0.968087 -0.0397019 -1.81753e-20)
(0.977566 -0.0119333 -1.70701e-20)
(0.99115 -0.0175466 9.76834e-21)
(0.978347 -0.0128146 1.00936e-20)
(0.990563 -0.0186685 7.45602e-21)
(0.979277 -0.013691 7.03461e-21)
(0.989886 -0.0197638 -2.18035e-20)
(0.980377 -0.0145548 2.77238e-21)
(0.98912 -0.0208256 -2.54034e-22)
(0.981664 -0.0154125 -1.13394e-20)
(0.988276 -0.0218518 8.50829e-21)
(0.983149 -0.0163632 1.12123e-20)
(0.98737 -0.0228701 -2.1844e-21)
(0.984842 -0.0172593 -3.41988e-21)
(0.986434 -0.0238777 -4.42521e-22)
(0.990484 -0.0171501 0)
(0.983619 -0.0264168 0)
(0.997495 -0.0159488 0)
(0.982199 -0.0325767 0)
(1.00281 -0.0137379 0)
(0.983697 -0.036632 0)
(1.00542 -0.0132794 0)
(0.98791 -0.0379862 0)
(1.00568 -0.0135193 0)
(0.993225 -0.0380829 0)
(1.00517 -0.0141433 0)
(0.997962 -0.0370605 0)
(1.00496 -0.0149397 0)
(1.00137 -0.035145 0)
(1.00539 -0.0156089 0)
(1.00354 -0.0327341 0)
(1.00627 -0.0159798 0)
(1.00482 -0.0300879 0)
(1.00732 -0.0160328 0)
(1.00554 -0.0273102 0)
(1.00836 -0.0157751 0)
(1.00596 -0.0244902 0)
(1.00929 -0.0152138 0)
(1.00619 -0.0216987 0)
(1.01008 -0.0143668 0)
(1.00632 -0.0189841 0)
(1.01072 -0.0132598 0)
(1.00639 -0.0163764 0)
(1.01123 -0.0119229 0)
(1.00642 -0.0138896 0)
(1.01163 -0.0103904 0)
(1.00643 -0.0115239 0)
(1.01193 -0.00869758 0)
(1.00643 -0.00927028 0)
(1.01215 -0.00688122 0)
(1.00643 -0.00711218 0)
(1.01231 -0.00497122 0)
(1.00642 -0.00503106 0)
(1.01241 -0.00299876 0)
(1.00641 -0.00300435 0)
(1.01245 -0.00100077 0)
(1.00641 -0.00100067 0)
)
;

boundaryField
{
    inlet
    {
        type            uniformFixedValue;
        uniformValue    constant (1 0 0);
        value           nonuniform 0();
    }
    outlet
    {
        type            pressureInletOutletVelocity;
        value           nonuniform 0();
    }
    cylinder
    {
        type            fixedValue;
        value           nonuniform 0();
    }
    top
    {
        type            symmetryPlane;
    }
    bottom
    {
        type            symmetryPlane;
    }
    defaultFaces
    {
        type            empty;
    }
    procBoundary1to0
    {
        type            processor;
        value           nonuniform List<vector> 
86
(
(1.00857 -0.00296238 0)
(1.00787 -0.00445901 0)
(1.00514 -0.00412692 0)
(1.00173 -0.00343801 0)
(0.998992 -0.00247313 0)
(0.997492 -0.00143038 0)
(0.997102 -0.000370934 0)
(0.997431 0.000585525 0)
(0.998122 0.00145211 0)
(0.998924 0.00220517 0)
(0.999694 0.00281932 0)
(1.00036 0.00327184 0)
(1.00091 0.00354794 0)
(1.00134 0.00364201 0)
(1.00167 0.00355799 0)
(1.00191 0.00330818 0)
(1.00207 0.00291132 0)
(1.00219 0.00239118 0)
(1.00226 0.00177297 0)
(1.0023 0.00108411 0)
(1.00232 0.000362819 0)
(1.00692 -0.00279298 -1.10705e-21)
(1.00636 -0.00295374 8.46622e-21)
(1.0058 -0.00311046 -7.68882e-21)
(1.00523 -0.00319822 8.81907e-22)
(1.00466 -0.00323457 -4.79615e-21)
(1.00411 -0.00323014 3.52368e-21)
(1.00357 -0.00318739 1.59038e-20)
(1.00305 -0.00310819 -5.98826e-22)
(1.00255 -0.00299573 3.36273e-22)
(1.00209 -0.0028533 4.91074e-21)
(1.00166 -0.00268414 -1.96759e-20)
(1.00125 -0.00249153 6.06299e-21)
(1.00089 -0.00227849 -1.51495e-20)
(0.9932 0.00923593 -2.16509e-21)
(0.9932 0.00923593 -2.16509e-21)
(0.993292 0.00801116 -9.86125e-21)
(0.993358 0.00678238 6.58568e-21)
(0.993404 0.00555091 1.43061e-22)
(0.993434 0.00431789 -1.70925e-21)
(0.993454 0.00308427 -2.83446e-21)
(0.993465 0.0018507 -5.31777e-22)
(0.99347 0.000617405 1.16135e-21)
(0.99347 -0.000615705 1.23817e-21)
(0.993465 -0.00184896 -3.72092e-22)
(0.993454 -0.00308255 -2.06495e-21)
(0.993434 -0.00431618 -1.26168e-21)
(0.993404 -0.00554922 -5.99056e-22)
(0.993358 -0.0067807 6.76742e-21)
(0.993292 -0.00800949 -1.09977e-20)
(0.993292 -0.00800949 -1.09977e-20)
(1.00056 0.00204938 9.80596e-21)
(1.00089 0.00227992 -1.5122e-20)
(1.00125 0.00249295 4.95902e-21)
(1.00166 0.00268556 -2.07692e-20)
(1.00209 0.0028547 4.7815e-21)
(1.00255 0.00299713 -4.21933e-22)
(1.00305 0.00310958 -4.86552e-21)
(1.00357 0.00318877 1.60951e-20)
(1.0041 0.00323151 -4.28974e-22)
(1.00466 0.00323594 -5.72293e-21)
(1.00523 0.00319957 -1.43669e-21)
(1.0058 0.0031118 -5.57126e-21)
(1.00636 0.00295507 6.64983e-21)
(1.00692 0.00279429 -1.7475e-21)
(1.00857 0.00296366 0)
(1.00787 0.00446022 0)
(1.00514 0.00412807 0)
(1.00173 0.00343908 0)
(0.998992 0.0024741 0)
(0.997492 0.00143128 0)
(0.997102 0.000371743 0)
(0.997431 -0.000584823 0)
(0.998122 -0.00145148 0)
(0.998924 -0.00220462 0)
(0.999694 -0.00281884 0)
(1.00036 -0.00327143 0)
(1.00091 -0.00354759 0)
(1.00134 -0.00364172 0)
(1.00167 -0.00355775 0)
(1.00191 -0.00330799 0)
(1.00207 -0.00291118 0)
(1.00219 -0.00239107 0)
(1.00226 -0.0017729 0)
(1.0023 -0.00108406 0)
(1.00232 -0.000362805 0)
)
;
    }
    procBoundary1to2
    {
        type            processor;
        value           nonuniform List<vector> 
86
(
(0.968476 0.0558879 0)
(0.974552 0.0603612 0)
(0.980438 0.0659889 0)
(0.986345 0.0675884 0)
(0.992998 0.0669582 0)
(0.999871 0.0643887 0)
(1.00602 0.0602995 0)
(1.01075 0.0554107 0)
(1.01412 0.0502215 0)
(1.01644 0.0450144 0)
(1.01801 0.0399294 0)
(1.01904 0.035059 0)
(1.01968 0.0304535 0)
(1.02004 0.0261275 0)
(1.02021 0.0220724 0)
(1.02025 0.0182627 0)
(1.02021 0.0146651 0)
(1.02013 0.0112371 0)
(1.02005 0.00794374 0)
(1.01998 0.00473974 0)
(1.01995 0.00157614 0)
(0.969005 0.0525163 6.92571e-21)
(0.96915 0.0504884 1.29315e-21)
(0.969189 0.0484007 -9.9314e-22)
(0.969077 0.0463417 -1.56416e-22)
(0.968832 0.0442053 -4.38463e-21)
(0.96849 0.0419897 9.76058e-21)
(0.96849 0.0419897 9.76058e-21)
(0.932033 0.0475552 6.53695e-21)
(0.92963 0.0442175 5.50253e-21)
(0.927414 0.0408895 -2.27745e-20)
(0.925367 0.0375721 1.33385e-20)
(0.923484 0.0342659 -2.0405e-20)
(0.921761 0.0309704 2.7804e-20)
(0.920201 0.0276847 -3.9145e-20)
(0.918805 0.0244079 2.06116e-20)
(0.917576 0.0211388 5.972e-21)
(0.916517 0.0178763 -4.67598e-21)
(0.91563 0.0146192 -6.51248e-21)
(0.914917 0.0113664 -1.38151e-20)
(0.914381 0.008117 7.85002e-21)
(0.914023 0.00486985 -5.72891e-21)
(0.913844 0.00162405 8.71077e-22)
(0.913844 -0.00162129 -3.85478e-22)
(0.914023 -0.00486707 -4.09288e-21)
(0.914381 -0.00811422 1.56169e-20)
(0.914917 -0.0113637 -1.19783e-20)
(0.915629 -0.0146164 -4.78577e-22)
(0.916516 -0.0178735 -1.12334e-20)
(0.917575 -0.021136 2.9712e-21)
(0.918804 -0.0244051 2.11233e-20)
(0.9202 -0.0276819 -2.24499e-20)
(0.921761 -0.0309676 3.76681e-20)
(0.923483 -0.0342631 -1.31789e-20)
(0.925367 -0.0375693 2.70311e-20)
(0.927413 -0.0408866 -4.93069e-20)
(0.92963 -0.0442146 1.29502e-21)
(0.932033 -0.0475523 1.74357e-20)
(0.96849 -0.0419873 -3.62483e-20)
(0.96849 -0.0419873 -3.62483e-20)
(0.968832 -0.044203 6.69586e-21)
(0.969077 -0.0463394 9.72682e-21)
(0.969188 -0.0483984 7.95243e-21)
(0.969149 -0.0504861 2.14652e-21)
(0.969004 -0.0525141 -1.91502e-21)
(0.968475 -0.0558856 0)
(0.974551 -0.0603591 0)
(0.980437 -0.0659869 0)
(0.986344 -0.0675866 0)
(0.992996 -0.0669568 0)
(0.999869 -0.0643877 0)
(1.00602 -0.060299 0)
(1.01075 -0.0554104 0)
(1.01412 -0.0502214 0)
(1.01644 -0.0450146 0)
(1.01801 -0.0399296 0)
(1.01904 -0.0350592 0)
(1.01968 -0.0304538 0)
(1.02004 -0.0261277 0)
(1.02021 -0.0220726 0)
(1.02025 -0.0182629 0)
(1.02021 -0.0146653 0)
(1.02013 -0.0112372 0)
(1.02005 -0.00794385 0)
(1.01997 -0.00473981 0)
(1.01995 -0.00157617 0)
)
;
    }
}


// ************************************************************************* //
