/*--------------------------------*- C++ -*----------------------------------*\
  =========                 |
  \\      /  F ield         | OpenFOAM: The Open Source CFD Toolbox
   \\    /   O peration     | Website:  https://openfoam.org
    \\  /    A nd           | Version:  7
     \\/     M anipulation  |
\*---------------------------------------------------------------------------*/
FoamFile
{
    version     2.0;
    format      ascii;
    class       volVectorField;
    location    "15";
    object      U;
}
// * * * * * * * * * * * * * * * * * * * * * * * * * * * * * * * * * * * * * //

dimensions      [0 1 -1 0 0 0 0];

internalField   nonuniform List<vector> 
392
(
(-0.0412341 -5.40628e-06 1.81453e-21)
(-0.0403191 -0.000353609 -9.52357e-22)
(-0.0379403 -0.000717957 1.50764e-21)
(-0.0393427 -3.74168e-05 -6.72772e-21)
(-0.0382887 -0.00107589 1.01586e-20)
(-0.0358043 -0.00216577 -1.15533e-20)
(-0.0355563 -0.000130193 -1.19822e-21)
(-0.0342246 -0.00184399 -3.11905e-21)
(-0.0315313 -0.00365068 1.73677e-21)
(-0.0298675 -0.000318347 -5.27119e-21)
(-0.0281212 -0.0026865 1.02156e-20)
(-0.0251195 -0.00519625 -2.10631e-20)
(-0.0222651 -0.00063738 -1.95742e-20)
(-0.0199706 -0.00363018 1.16369e-20)
(-0.0165662 -0.00682442 -1.28893e-20)
(-0.012734 -0.00111163 2.89355e-20)
(-0.00976058 -0.00470185 -4.34962e-21)
(-0.00586663 -0.00855562 1.89562e-20)
(-0.00125005 -0.00171199 1.06801e-20)
(0.00252084 -0.00593688 -2.18841e-20)
(0.00698678 -0.0104085 1.20187e-20)
(0.0122268 -0.00250898 7.72298e-21)
(0.0168701 -0.00734505 -4.56812e-20)
(0.0220092 -0.0123949 5.92787e-20)
(0.0277253 -0.00358209 1.6508e-20)
(0.0333311 -0.0089248 -1.73848e-20)
(0.0392091 -0.0145254 5.85674e-21)
(0.045286 -0.00489814 -8.21222e-20)
(0.051938 -0.0107004 1.96512e-20)
(0.0586038 -0.0168073 -2.85717e-20)
(0.0727275 -0.0126807 -4.62216e-20)
(0.0802166 -0.0192409 6.75986e-20)
(0.088623 -0.0251508 -4.44024e-20)
(0.0957444 -0.0148651 -1.2679e-20)
(0.104075 -0.0218199 5.97499e-20)
(0.113127 -0.0280295 -7.89947e-20)
(0.121043 -0.017247 2.34299e-20)
(0.130212 -0.0245312 2.02261e-20)
(0.13987 -0.0309692 -1.87965e-20)
(0.148687 -0.0198121 3.16113e-20)
(0.158662 -0.0273533 -3.3849e-20)
(0.168858 -0.0339425 4.31241e-20)
(0.178746 -0.0225389 -5.11304e-20)
(0.189462 -0.0302551 -1.00066e-20)
(0.200087 -0.0369126 1.37052e-20)
(0.211302 -0.0253958 2.23565e-20)
(0.222647 -0.0331943 3.30062e-20)
(0.233546 -0.0398322 -6.11754e-20)
(0.258248 -0.036116 3.85629e-21)
(0.269213 -0.0426426 5.51319e-20)
(0.279128 -0.04813 -3.73588e-20)
(0.296278 -0.0389496 1.92163e-20)
(0.307039 -0.045273 1.84239e-20)
(0.316516 -0.0505713 -3.70331e-21)
(0.336731 -0.0416057 -4.38099e-20)
(0.346948 -0.0476392 -1.07385e-20)
(0.355701 -0.0526965 1.1629e-20)
(0.379559 -0.0439694 1.19824e-19)
(0.388821 -0.0496403 -6.19329e-20)
(0.396529 -0.0544239 6.32912e-20)
(0.432482 -0.0511627 -4.66265e-20)
(0.438803 -0.0556655 -6.12862e-20)
(0.444064 -0.0596271 1.68411e-20)
(0.477691 -0.0521139 1.97696e-19)
(0.482279 -0.0563605 -1.90118e-19)
(0.486006 -0.0601823 6.73444e-20)
(0.524131 -0.0524358 -4.81892e-20)
(0.526666 -0.056496 -1.03118e-19)
(0.528652 -0.0602373 9.92933e-20)
(0.571398 -0.0518477 -1.41292e-19)
(0.571627 -0.0558662 8.63316e-20)
(0.571714 -0.0596284 -3.49804e-20)
(0.647932 -0.0529403 0)
(0.6449 -0.0569053 0)
(0.642268 -0.0605876 0)
(0.765514 -0.0474508 0)
(0.758092 -0.0523367 0)
(0.751548 -0.0567056 0)
(0.877009 -0.0368983 0)
(0.86647 -0.043049 0)
(0.856942 -0.0484856 0)
(0.976927 -0.0236874 0)
(0.964758 -0.0310113 0)
(0.953481 -0.0375226 0)
(1.06225 -0.00974621 0)
(1.04973 -0.017962 2.03128e-27)
(1.03787 -0.0253477 0)
(1.13193 0.00377283 0)
(1.12001 -0.00502371 -2.03128e-27)
(1.10849 -0.0130186 0)
(1.18635 0.016096 0)
(1.17563 0.00700313 0)
(1.16509 -0.00134007 0)
(1.2268 0.0267466 0)
(1.21764 0.0176003 0)
(1.20847 0.00913978 0)
(1.25517 0.035506 3.27688e-27)
(1.24771 0.0265022 0)
(1.24008 0.0181153 0)
(1.27357 0.0423566 -3.27688e-27)
(1.26778 0.033644 0)
(1.26171 0.0254775 0)
(1.28413 0.0474223 0)
(1.27989 0.0391036 0)
(1.27527 0.0312618 0)
(1.28879 0.050914 0)
(1.28589 0.0430507 0)
(1.28257 0.0355996 0)
(1.2892 0.0530801 -4.1516e-11)
(1.28742 0.0457008 0)
(1.28521 0.038675 0)
(1.2867 0.0541708 4.1516e-11)
(1.28582 0.0472795 0)
(1.28452 0.0406902 0)
(1.28229 0.0544136 -2.2935e-27)
(1.28213 0.0479986 0)
(1.28156 0.0418409 0)
(1.27673 0.054002 2.2935e-27)
(1.27713 0.0480426 0)
(1.27713 0.042302 0)
(1.27054 0.0530923 0)
(1.27136 0.0475635 0)
(1.27181 0.0422204 0)
(1.26407 0.0518065 0)
(1.26522 0.0466821 0)
(1.26601 0.0417152 0)
(1.25757 0.0502368 0)
(1.25896 0.0454916 0)
(1.26003 0.0408793 2.99003e-29)
(1.25117 0.0484527 0)
(1.25276 0.0440626 0)
(1.25403 0.0397847 -2.99003e-29)
(1.24498 0.0465054 0)
(1.24672 0.0424486 0)
(1.24815 0.0384859 0)
(1.23906 0.0444336 0)
(1.2409 0.0406898 0)
(1.24247 0.0370246 0)
(1.23342 0.042266 -1.02501e-27)
(1.23536 0.0388168 -2.45908e-28)
(1.23703 0.035433 0)
(1.22811 0.0400247 1.02501e-27)
(1.23011 0.0368532 2.45908e-28)
(1.23187 0.0337358 0)
(1.22311 0.0377265 0)
(1.22517 0.0348173 -2.24698e-28)
(1.227 0.0319526 -9.8368e-28)
(1.21845 0.0353848 0)
(1.22055 0.0327237 2.24698e-28)
(1.22243 0.0300991 9.8368e-28)
(1.21411 0.0330098 0)
(1.21625 0.030584 0)
(1.21817 0.0281878 0)
(1.2101 0.0306097 0)
(1.21226 0.0284075 0)
(1.21422 0.0262291 0)
(1.20642 0.0281911 0)
(1.2086 0.0262018 0)
(1.21059 0.0242316 0)
(1.20305 0.0257591 0)
(1.20525 0.023973 0)
(1.20726 0.0222023 0)
(1.20001 0.0233175 0)
(1.20222 0.0217262 0)
(1.20425 0.020147 -1.84573e-11)
(1.19728 0.0208695 0)
(1.1995 0.0194653 0)
(1.20154 0.0180706 1.84573e-11)
(1.19486 0.0184173 7.04484e-28)
(1.19708 0.0171935 0)
(1.19914 0.0159771 0)
(1.19275 0.0159625 -7.04484e-28)
(1.19498 0.0149134 0)
(1.19705 0.0138698 0)
(1.19095 0.0135064 -1.56149e-11)
(1.19318 0.0126269 -1.62935e-11)
(1.19525 0.0117516 0)
(1.18945 0.0110498 1.56149e-11)
(1.19168 0.0103358 1.62935e-11)
(1.19376 0.00962489 0)
(1.18825 0.00859308 0)
(1.19049 0.0080413 0)
(1.19257 0.00749169 -7.14335e-28)
(1.18736 0.00613684 0)
(1.1896 0.00574468 0)
(1.19168 0.00535394 7.14335e-28)
(1.18677 0.00368157 -1.49077e-29)
(1.189 0.00344713 0)
(1.19109 0.00321346 1.622e-29)
(1.18647 0.00122712 1.50678e-29)
(1.18871 0.00114913 0)
(1.1908 0.00107138 -1.63942e-29)
(1.07553 0.00065536 -4.10422e-27)
(1.14431 -0.0133993 4.10422e-27)
(1.19724 -0.0259597 0)
(1.23591 -0.036597 0)
(1.2624 -0.0451407 3.31034e-27)
(1.279 -0.051624 -3.31034e-27)
(1.28794 -0.0562212 4.69811e-11)
(1.29121 -0.0591874 -4.69811e-11)
(1.29048 -0.0608068 -1.79225e-27)
(1.28708 -0.0613544 1.79225e-27)
(1.28197 -0.0610736 -2.27338e-27)
(1.27588 -0.0601662 2.27338e-27)
(1.26929 -0.058792 0)
(1.26253 -0.0570727 0)
(1.2558 -0.0550996 -2.86446e-11)
(1.24924 -0.0529394 2.86446e-11)
(1.24293 -0.0506414 0)
(1.23691 -0.0482417 0)
(1.23121 -0.0457671 0)
(1.22584 -0.0432376 0)
(1.22081 -0.0406685 2.08533e-11)
(1.21611 -0.0380714 -2.08533e-11)
(1.21175 -0.0354552 0)
(1.20773 -0.0328269 0)
(1.20403 -0.0301915 -1.75379e-29)
(1.20066 -0.027553 1.75379e-29)
(1.19762 -0.0249143 -7.12087e-28)
(1.19488 -0.0222773 7.12087e-28)
(1.19247 -0.0196433 -1.55472e-11)
(1.19036 -0.017013 1.55472e-11)
(1.18856 -0.0143866 0)
(1.18706 -0.011764 0)
(1.18587 -0.00914482 -6.25965e-28)
(1.18498 -0.00652884 6.25965e-28)
(1.18438 -0.00391581 -1.42459e-11)
(1.18409 -0.00130501 1.43989e-11)
(0.647932 0.0529399 0)
(0.765514 0.0474504 0)
(0.877009 0.0368979 0)
(0.976927 0.0236871 0)
(1.06225 0.00974591 4.01295e-27)
(1.13193 -0.00377309 -4.01295e-27)
(1.18635 -0.0160962 0)
(1.2268 -0.0267468 0)
(1.25517 -0.0355062 0)
(1.27357 -0.0423567 0)
(1.28413 -0.0474225 4.68156e-11)
(1.28879 -0.0509141 -4.68156e-11)
(1.2892 -0.0530802 0)
(1.2867 -0.0541709 0)
(1.28229 -0.0544136 3.68137e-11)
(1.27673 -0.054002 -3.68137e-11)
(1.27054 -0.0530924 0)
(1.26407 -0.0518065 0)
(1.25757 -0.0502369 -5.84147e-11)
(1.25117 -0.0484527 5.84147e-11)
(1.24498 -0.0465054 0)
(1.23906 -0.0444336 0)
(1.23342 -0.042266 0)
(1.22811 -0.0400247 0)
(1.22311 -0.0377265 4.30961e-11)
(1.21845 -0.0353847 -4.30961e-11)
(1.21411 -0.0330098 0)
(1.2101 -0.0306097 0)
(1.20642 -0.0281911 1.82539e-29)
(1.20305 -0.0257591 -1.82539e-29)
(1.20001 -0.0233175 0)
(1.19728 -0.0208695 0)
(1.19486 -0.0184172 -1.62724e-11)
(1.19275 -0.0159625 1.62724e-11)
(1.19095 -0.0135064 0)
(1.18945 -0.0110498 0)
(1.18825 -0.00859308 0)
(1.18736 -0.00613684 0)
(1.18677 -0.00368157 -1.49715e-11)
(1.18647 -0.00122712 1.51323e-11)
(0.6449 0.0569049 0)
(0.758092 0.0523363 0)
(0.86647 0.0430486 0)
(0.964758 0.0310109 0)
(1.04973 0.0179617 -2.03128e-27)
(1.12001 0.00502343 2.03128e-27)
(1.17563 -0.00700337 0)
(1.21764 -0.0176005 0)
(1.24771 -0.0265024 -1.67703e-27)
(1.26779 -0.0336441 1.67703e-27)
(1.27989 -0.0391038 -4.71508e-28)
(1.28589 -0.0430508 4.71508e-28)
(1.28742 -0.0457009 -4.20625e-28)
(1.28582 -0.0472796 4.20625e-28)
(1.28213 -0.0479987 3.70078e-11)
(1.27713 -0.0480427 -3.70078e-11)
(1.27136 -0.0475636 0)
(1.26522 -0.0466822 0)
(1.25896 -0.0454916 -5.93283e-11)
(1.25276 -0.0440626 5.93283e-11)
(1.24672 -0.0424486 0)
(1.2409 -0.0406898 0)
(1.23536 -0.0388168 0)
(1.23011 -0.0368532 0)
(1.22517 -0.0348173 2.2169e-11)
(1.22055 -0.0327237 -2.2169e-11)
(1.21625 -0.0305839 0)
(1.21226 -0.0284075 0)
(1.2086 -0.0262018 5.51193e-28)
(1.20525 -0.023973 -5.51193e-28)
(1.20222 -0.0217262 -1.80828e-28)
(1.1995 -0.0194653 1.80828e-28)
(1.19708 -0.0171935 0)
(1.19498 -0.0149134 0)
(1.19318 -0.0126269 0)
(1.19168 -0.0103358 0)
(1.19049 -0.00804129 -1.60801e-28)
(1.1896 -0.00574468 1.60801e-28)
(1.189 -0.00344713 0)
(1.18871 -0.00114913 0)
(0.642268 0.0605871 0)
(0.751548 0.0567051 0)
(0.856942 0.0484852 0)
(0.953481 0.0375223 0)
(1.03787 0.0253473 0)
(1.10849 0.0130183 0)
(1.16509 0.00133982 0)
(1.20847 -0.00914 0)
(1.24008 -0.0181155 3.19011e-27)
(1.26171 -0.0254777 -3.19011e-27)
(1.27527 -0.031262 4.61153e-11)
(1.28257 -0.0355997 -4.61153e-11)
(0.571398 0.0518473 1.3924e-19)
(0.571627 0.0558657 -8.64318e-20)
(0.571714 0.0596279 3.49852e-20)
(0.524131 0.0524354 4.8856e-20)
(0.526666 0.0564956 1.02302e-19)
(0.528652 0.0602367 -9.84983e-20)
(0.477691 0.0521135 -1.94246e-19)
(0.482279 0.05636 1.92849e-19)
(0.486006 0.0601818 -6.60285e-20)
(0.432482 0.0511623 4.43555e-20)
(0.438803 0.055665 6.14879e-20)
(0.444064 0.0596265 -1.89203e-20)
(0.379559 0.043969 -1.19581e-19)
(0.388821 0.0496399 6.46464e-20)
(0.396529 0.0544234 -6.63737e-20)
(0.336731 0.0416053 4.55968e-20)
(0.346948 0.0476387 1.09624e-20)
(0.355701 0.0526959 -7.38349e-21)
(0.296278 0.0389492 -2.1481e-20)
(0.307039 0.0452726 -1.98285e-20)
(0.316516 0.0505707 4.88604e-21)
(0.258247 0.0361156 -6.23444e-22)
(0.269212 0.0426421 -5.60967e-20)
(0.279128 0.0481294 3.30842e-20)
(0.211302 0.0253954 -2.42942e-20)
(0.222647 0.0331939 -2.98662e-20)
(0.233546 0.0398317 5.77367e-20)
(0.178746 0.0225385 5.35219e-20)
(0.189462 0.0302546 8.60623e-21)
(0.200086 0.036912 -6.52706e-21)
(0.148686 0.0198117 -3.22054e-20)
(0.158662 0.0273528 2.24932e-20)
(0.168858 0.0339419 -4.78266e-20)
(0.121043 0.0172466 -2.5057e-20)
(0.130212 0.0245307 -1.13604e-20)
(0.13987 0.0309686 2.14151e-20)
(0.0957443 0.0148647 1.92124e-20)
(0.104075 0.0218194 -6.33985e-20)
(0.113126 0.0280289 7.38688e-20)
(0.0727274 0.0126803 4.67624e-20)
(0.0802165 0.0192404 -6.30397e-20)
(0.0886229 0.0251502 4.74187e-20)
(0.045286 0.00489782 8.34843e-20)
(0.0519379 0.0107 -2.83092e-20)
(0.0586037 0.0168068 2.31027e-20)
(0.0277252 0.00358175 -1.8972e-20)
(0.033331 0.00892437 1.97477e-20)
(0.039209 0.0145248 -3.86898e-21)
(0.0122267 0.00250864 -8.19961e-21)
(0.01687 0.00734461 4.58574e-20)
(0.0220092 0.0123943 -6.01043e-20)
(-0.0012501 0.00171164 -8.15528e-21)
(0.00252078 0.00593643 2.31635e-20)
(0.00698671 0.0104079 -9.89745e-21)
(-0.0127341 0.00111128 -3.2808e-20)
(-0.00976063 0.00470139 5.71377e-21)
(-0.00586669 0.00855506 -2.1175e-20)
(-0.0222652 0.000637021 1.9424e-20)
(-0.0199706 0.00362971 -1.36122e-20)
(-0.0165662 0.00682385 1.59887e-20)
(-0.0298675 0.000317981 7.29502e-21)
(-0.0281212 0.00268603 -1.11776e-20)
(-0.0251196 0.00519567 1.89347e-20)
(-0.0355563 0.000129814 2.21012e-21)
(-0.0342246 0.00184351 4.21769e-21)
(-0.0315313 0.00365009 -9.70529e-22)
(-0.0393427 3.70095e-05 6.66342e-21)
(-0.0382887 0.00107541 -1.01316e-20)
(-0.0358043 0.00216518 1.05206e-20)
(-0.0412341 5.0169e-06 -1.72849e-21)
(-0.0403191 0.000353124 9.46572e-22)
(-0.0379403 0.000717367 -8.68754e-22)
)
;

boundaryField
{
    inlet
    {
        type            uniformFixedValue;
        uniformValue    constant (1 0 0);
        value           nonuniform 0();
    }
    outlet
    {
        type            pressureInletOutletVelocity;
        value           nonuniform 0();
    }
    cylinder
    {
        type            fixedValue;
        value           nonuniform 0();
    }
    top
    {
        type            symmetryPlane;
    }
    bottom
    {
        type            symmetryPlane;
    }
    defaultFaces
    {
        type            empty;
    }
    procBoundary26to25
    {
        type            processor;
        value           nonuniform List<vector> 
137
(
(-0.0400558 0.000366131 -1.54887e-21)
(-0.0382157 0.00108211 -9.47468e-21)
(-0.0345321 0.00174934 5.19669e-21)
(-0.0289963 0.00233836 3.6461e-21)
(-0.0215937 0.00282235 -2.47287e-20)
(-0.012305 0.00316512 1.69813e-20)
(-0.00110715 0.00329928 -1.49886e-20)
(0.012028 0.00324218 4.08892e-21)
(0.0271416 0.00302965 -3.37577e-20)
(0.0442818 0.00262194 -4.61653e-20)
(0.0649613 -0.00645477 -4.61618e-20)
(0.0649613 -0.00645477 -4.61618e-20)
(0.0868136 -0.00825705 3.25489e-20)
(0.11092 -0.0103026 1.78626e-20)
(0.137376 -0.0125726 -1.59896e-20)
(0.166271 -0.0150535 -6.75017e-20)
(0.197733 -0.0177232 1.61452e-20)
(0.246445 -0.0283403 5.35448e-20)
(0.246445 -0.0283403 5.35448e-20)
(0.284266 -0.0313161 1.87252e-20)
(0.324861 -0.0342461 -1.00914e-19)
(0.368308 -0.0370225 5.39197e-20)
(0.424657 -0.0459045 -1.51692e-19)
(0.424657 -0.0459045 -1.51692e-19)
(0.471835 -0.047286 1.04884e-19)
(0.520798 -0.0479847 -1.80384e-19)
(0.571085 -0.0475835 -2.0393e-19)
(0.651562 -0.0486968 0)
(0.651562 -0.0486968 0)
(0.774154 -0.0419412 0)
(0.888842 -0.0299236 0)
(0.990171 -0.0154772 0)
(1.07553 -0.000655627 0)
(1.14431 0.013399 0)
(1.19724 0.0259595 0)
(1.23591 0.0365968 0)
(1.2624 0.0451406 0)
(1.279 0.0516238 0)
(1.28794 0.056221 0)
(1.29121 0.0591873 0)
(1.29048 0.0608067 -4.13979e-11)
(1.28707 0.0613543 4.13979e-11)
(1.28197 0.0610735 2.27338e-27)
(1.27588 0.0601662 -2.27338e-27)
(1.26929 0.0587919 0)
(1.26253 0.0570727 0)
(1.2558 0.0550995 0)
(1.24924 0.0529394 0)
(1.24293 0.0506414 0)
(1.23691 0.0482417 0)
(1.23121 0.045767 0)
(1.22584 0.0432376 0)
(1.22081 0.0406685 -9.02807e-28)
(1.21611 0.0380714 9.02807e-28)
(1.21175 0.0354552 0)
(1.20773 0.0328269 0)
(1.20403 0.0301915 1.75379e-29)
(1.20066 0.027553 -1.75379e-29)
(1.19762 0.0249143 0)
(1.19488 0.0222773 0)
(1.19247 0.0196433 -6.73087e-28)
(1.19036 0.017013 6.73087e-28)
(1.18856 0.0143866 0)
(1.18706 0.011764 0)
(1.18587 0.00914483 0)
(1.18498 0.00652884 0)
(1.18438 0.00391582 1.41853e-29)
(1.18409 0.00130502 -1.43376e-29)
(1.08983 -0.00938792 2.74282e-27)
(1.15728 -0.0239278 -2.74282e-27)
(1.20836 -0.0366616 0)
(1.24495 -0.0472084 0)
(1.26934 -0.0554491 0)
(1.28399 -0.0614735 0)
(1.29122 -0.0655129 0)
(1.29306 -0.0678721 0)
(1.29118 -0.068873 0)
(1.28689 -0.0688163 0)
(1.28112 -0.0679607 0)
(1.27453 -0.0665151 0)
(1.26758 -0.064641 0)
(1.26055 -0.0624593 0)
(1.25364 -0.0600585 -2.79679e-11)
(1.24694 -0.0575024 2.79679e-11)
(1.24053 -0.054837 0)
(1.23444 -0.0520957 0)
(1.22869 -0.0493028 0)
(1.22329 -0.046476 0)
(1.21823 -0.0436285 2.00821e-11)
(1.21353 -0.0407702 -2.00821e-11)
(1.20916 -0.0379082 0)
(1.20514 -0.0350479 0)
(1.20145 -0.032193 0)
(1.19808 -0.0293461 0)
(1.19504 -0.0265088 -5.56293e-29)
(1.19231 -0.0236819 5.56293e-29)
(1.1899 -0.0208657 0)
(1.1878 -0.0180597 0)
(1.18601 -0.0152631 0)
(1.18452 -0.012475 0)
(1.18333 -0.00969393 0)
(1.18244 -0.00691884 0)
(1.18185 -0.00414874 0)
(1.18156 -0.00138243 0)
(0.651562 0.0486965 0)
(0.651562 0.0486965 0)
(0.774154 0.0419408 0)
(0.888842 0.0299233 0)
(0.990171 0.0154769 0)
(0.990171 0.0154769 0)
(0.571085 0.0475832 2.03965e-19)
(0.520798 0.0479844 1.81515e-19)
(0.471835 0.0472857 -1.04055e-19)
(0.424657 0.0459042 1.49741e-19)
(0.424657 0.0459042 1.49741e-19)
(0.368308 0.0370222 -5.13465e-20)
(0.324861 0.0342458 9.31471e-20)
(0.284266 0.0313157 -1.24492e-20)
(0.246444 0.02834 -5.5075e-20)
(0.246444 0.02834 -5.5075e-20)
(0.197733 0.0177229 -1.97369e-20)
(0.166271 0.0150532 7.69023e-20)
(0.137376 0.0125723 1.47622e-20)
(0.11092 0.0103023 -2.54341e-20)
(0.0868135 0.00825674 -2.83948e-20)
(0.0649612 0.00645445 4.48079e-20)
(0.0649612 0.00645445 4.48079e-20)
(0.0442817 -0.00262218 5.04958e-20)
(0.0271415 -0.0030299 3.34236e-20)
(0.012028 -0.00324244 -4.74174e-21)
(-0.0011072 -0.00329953 1.60584e-20)
(-0.0123051 -0.00316538 -2.02706e-20)
(-0.0215937 -0.00282262 2.58304e-20)
(-0.0289963 -0.00233863 -2.66787e-21)
(-0.0345321 -0.00174962 -6.11364e-21)
(-0.0382157 -0.0010824 9.02295e-21)
(-0.0400558 -0.000366415 2.04354e-21)
)
;
    }
    procBoundary26to27
    {
        type            processor;
        value           nonuniform List<vector> 
137
(
(-0.0338717 -0.00105735 2.7276e-21)
(-0.0316414 -0.00318056 -3.30204e-21)
(-0.0271817 -0.0053311 3.9838e-21)
(-0.0204939 -0.00752623 -4.81233e-21)
(-0.0115796 -0.00978186 -1.93568e-20)
(-0.0004407 -0.0121122 1.67489e-20)
(0.0129218 -0.0145282 -3.77725e-21)
(0.0285079 -0.017038 1.31495e-20)
(0.0463182 -0.0196462 3.30415e-20)
(0.0663552 -0.0223524 -6.42779e-20)
(0.0663552 -0.0223524 -6.42779e-20)
(0.0974657 -0.0303155 1.71765e-20)
(0.122401 -0.0334244 -8.3853e-20)
(0.149521 -0.0365267 -2.8297e-20)
(0.178796 -0.0395915 1.86972e-21)
(0.210191 -0.04258 4.79056e-21)
(0.243657 -0.0454449 -2.25326e-20)
(0.243657 -0.0454449 -2.25326e-20)
(0.288127 -0.0527514 -6.0578e-20)
(0.324935 -0.0550521 6.32051e-20)
(0.363312 -0.0570086 8.36579e-21)
(0.403089 -0.0585562 1.87077e-20)
(0.403089 -0.0585562 1.87077e-20)
(0.448632 -0.063104 4.73955e-20)
(0.489197 -0.0636021 -1.81247e-20)
(0.530319 -0.0636487 -6.44491e-20)
(0.571746 -0.0631043 3.92668e-20)
(0.571746 -0.0631043 3.92668e-20)
(0.639998 -0.0639644 0)
(0.74577 -0.0606188 0)
(0.848337 -0.0533004 0)
(0.943067 -0.0433044 0)
(1.02669 -0.0319639 0)
(1.09743 -0.020254 0)
(1.15479 -0.00896267 0)
(1.19934 0.00134503 0)
(1.23234 0.0103313 0)
(1.25541 0.0178485 0)
(1.27036 0.0238931 0)
(1.27891 0.0285609 0)
(1.28263 0.0320065 0)
(1.28284 0.0344094 0)
(1.28061 0.0359491 2.31033e-27)
(1.27677 0.0367903 -2.31033e-27)
(1.27191 0.0370744 0)
(1.26648 0.0369175 0)
(1.26078 0.0364124 -3.03062e-11)
(1.25501 0.0356312 3.03062e-11)
(1.24931 0.0346294 -1.19329e-27)
(1.24377 0.03345 1.19329e-27)
(1.23845 0.032126 -1.09135e-27)
(1.23338 0.0306834 1.09135e-27)
(1.22859 0.0291427 0)
(1.22409 0.0275204 0)
(1.21989 0.0258301 0)
(1.21598 0.0240828 0)
(1.21239 0.022288 0)
(1.20909 0.0204535 0)
(1.2061 0.0185858 -1.90221e-11)
(1.20342 0.0166905 1.90221e-11)
(1.20103 0.0147725 0)
(1.19895 0.0128358 0)
(1.19717 0.0108838 0)
(1.19569 0.00891974 0)
(1.19451 0.00694632 7.39875e-28)
(1.19362 0.00496608 -7.39875e-28)
(1.19303 0.00298145 -1.68098e-29)
(1.19274 0.000994168 1.69903e-29)
(1.28521 -0.0386751 -1.79112e-27)
(1.28452 -0.0406902 1.79112e-27)
(1.28156 -0.041841 2.31097e-27)
(1.27713 -0.042302 -2.31097e-27)
(1.27181 -0.0422205 0)
(1.26601 -0.0417152 0)
(1.26003 -0.0408793 -3.00282e-11)
(1.25403 -0.0397847 3.00282e-11)
(1.24815 -0.0384859 0)
(1.24247 -0.0370246 0)
(1.23703 -0.035433 0)
(1.23187 -0.0337358 0)
(1.227 -0.0319526 -9.8368e-28)
(1.22243 -0.030099 9.8368e-28)
(1.21817 -0.0281878 -9.09442e-28)
(1.21422 -0.0262291 9.09442e-28)
(1.21059 -0.0242316 1.95109e-29)
(1.20726 -0.0222023 -1.95109e-29)
(1.20425 -0.020147 -7.99078e-28)
(1.20154 -0.0180706 7.99078e-28)
(1.19914 -0.0159771 0)
(1.19705 -0.0138698 0)
(1.19525 -0.0117516 -7.32745e-28)
(1.19376 -0.00962488 7.32745e-28)
(1.19257 -0.00749168 -7.14335e-28)
(1.19168 -0.00535394 7.14335e-28)
(1.19109 -0.00321346 0)
(1.1908 -0.00107138 0)
(0.639998 0.0639639 0)
(0.571746 0.0631038 -4.111e-20)
(0.74577 0.0606183 0)
(0.848337 0.0533 0)
(0.943067 0.043304 0)
(1.02669 0.0319635 0)
(1.09743 0.0202537 0)
(1.15479 0.00896241 0)
(1.19934 -0.00134525 0)
(1.23234 -0.0103315 0)
(1.25541 -0.0178487 0)
(1.27036 -0.0238932 4.56169e-11)
(1.28521 -0.0386751 -1.79112e-27)
(1.27891 -0.028561 -4.56169e-11)
(0.571746 0.0631038 -4.111e-20)
(0.530319 0.0636481 6.54255e-20)
(0.489197 0.0636015 2.05222e-20)
(0.448632 0.0631034 -4.99637e-20)
(0.403089 0.0585556 -1.97586e-20)
(0.403089 0.0585556 -1.97586e-20)
(0.363312 0.057008 -4.65693e-21)
(0.324935 0.0550515 -1.30897e-20)
(0.288127 0.0527508 5.96808e-20)
(0.243657 0.0454443 2.01569e-20)
(0.243657 0.0454443 2.01569e-20)
(0.210191 0.0425794 4.95044e-20)
(0.178796 0.0395909 -5.17346e-21)
(0.14952 0.036526 -1.7904e-20)
(0.122401 0.0334237 8.69469e-20)
(0.0974656 0.0303148 3.23271e-20)
(0.0663551 0.0223517 6.9694e-20)
(0.0663551 0.0223517 6.9694e-20)
(0.0463181 0.0196456 -3.9679e-20)
(0.0285078 0.0170374 -1.09561e-20)
(0.0129217 0.0145276 3.93419e-21)
(-0.000440752 0.0121115 -1.80769e-20)
(-0.0115796 0.00978118 1.86728e-20)
(-0.0204939 0.00752554 4.66759e-21)
(-0.0271817 0.00533041 -2.95095e-21)
(-0.0316414 0.00317986 3.08281e-21)
(-0.0338717 0.00105665 -2.48853e-21)
)
;
    }
}


// ************************************************************************* //
