/*--------------------------------*- C++ -*----------------------------------*\
  =========                 |
  \\      /  F ield         | OpenFOAM: The Open Source CFD Toolbox
   \\    /   O peration     | Website:  https://openfoam.org
    \\  /    A nd           | Version:  7
     \\/     M anipulation  |
\*---------------------------------------------------------------------------*/
FoamFile
{
    version     2.0;
    format      ascii;
    class       surfaceScalarField;
    location    "60";
    object      phi;
}
// * * * * * * * * * * * * * * * * * * * * * * * * * * * * * * * * * * * * * //

dimensions      [0 3 -1 0 0 0 0];

internalField   nonuniform List<scalar> 
278
(
0.00429575
0.0140982
-0.0141542
0.0043137
0.00921379
-0.00923174
0.00121649
-0.00117457
0.00430364
0.01404
0.00432186
0.00919557
0.0012582
0.00430813
0.0139794
0.00432703
0.00917667
0.00129919
0.00430922
0.0139166
0.00432926
0.00915663
0.00133897
0.00430692
0.0138515
0.00432865
0.0091349
0.00137705
0.00430129
0.0043253
0.00911088
0.00141294
0.00431931
0.00908393
0.00144615
0.0043108
0.00905334
0.00147621
0.00429989
0.00901839
0.00150264
0.0042867
0.00897829
0.00152499
0.00427135
0.00893226
0.00154281
0.00425395
0.0088795
0.00155565
0.00423464
0.00881922
0.0015631
0.00421354
0.00875061
0.00156476
0.00419074
0.0086729
0.00156024
0.00416639
0.00858536
0.00154918
0.00414059
0.00848727
0.00153126
0.00411349
0.00837797
0.00150619
0.00408529
0.00825685
0.00147377
0.0040562
0.00812347
0.00143389
0.00402693
0.00797842
0.00138455
0.020154
0.00661668
0.000436561
0.0201621
0.00493676
-0.000673129
0.0203224
0.00305526
-0.00176423
0.0206444
0.00115904
-0.00271609
0.0210759
-0.000505134
-0.00342
0.0215375
-0.00172686
-0.00379008
0.0219187
-0.00240959
-0.00382696
0.0221385
-0.00259068
-0.00358409
0.0221735
-0.00242109
-0.00316497
0.0220612
-0.00208758
-0.00267426
0.0218705
-0.00173081
-0.00219337
0.0216564
-0.00141363
-0.0017681
0.0214515
-0.0011487
-0.00141271
0.0212718
-0.000929565
-0.00112152
0.0211221
-0.000746193
-0.000883043
0.0210017
-0.000589573
-0.000685998
0.0209074
-0.000452143
-0.000520026
0.0208361
-0.000327919
-0.000375504
0.0207854
-0.000213019
0.0206543
-0.000244416
-0.000518794
0.0207532
-0.000104514
0.0206296
-0.000120747
-0.000250781
0.0207376
0.0206168
-0.00873341
0.0183051
0.00966181
-0.00768904
0.0176745
-0.00655059
0.0170445
-0.00529382
0.0163721
-0.003935
0.0157131
-0.00248571
0.0151464
-0.00101791
0.0148293
0.000362662
0.0149201
0.00150524
0.0155263
0.00221202
0.0165908
0.00239944
0.0178187
0.00218489
0.0188672
0.00178912
0.0195722
0.00139052
0.019973
0.00106289
0.0201916
0.000808773
0.0203224
0.000606841
0.0204116
0.000436437
0.0204762
0.0002836
0.0205217
0.000139867
0.0205504
0.0205643
7.59675e-05
0.000894793
0.00117207
0.00232072
0.00350727
0.00470395
0.00582284
0.00673354
0.00731789
0.00747758
0.00716994
0.00644136
0.00545545
0.00441745
0.00346903
0.00266331
0.00199898
0.00145583
0.00100939
0.000634233
0.000305361
0.00354451
0.00964554
0.000872988
0.0035929
0.0096293
0.0008512
0.00364469
0.00961185
0.000833253
0.00369622
0.00959309
0.00081941
0.00374713
0.00957316
0.000809818
0.00379716
0.0095522
0.000804547
0.00384607
0.00953036
0.00080364
0.00389364
0.00950782
0.000807106
0.00393963
0.00948478
0.000814906
0.00398381
0.00946147
0.000826959
0.00402597
0.00943811
0.000843137
0.00406592
0.00941489
0.000863269
0.00410347
0.00939201
0.000887142
0.00413847
0.00936963
0.000914501
0.00417076
0.00934788
0.000945051
0.00417919
0.0143958
0.00420023
0.00932683
0.00097846
0.00420648
0.014353
0.00422677
0.00930654
0.00101436
0.00423076
0.0143073
0.00425031
0.00928699
0.00105236
0.00425191
0.0142588
0.0042708
0.00926811
0.00109203
0.00426984
0.0142078
0.00428819
0.00924975
0.00113292
0.00428447
0.00430249
)
;

boundaryField
{
    inlet
    {
        type            calculated;
        value           nonuniform 0();
    }
    outlet
    {
        type            calculated;
        value           nonuniform 0();
    }
    cylinder
    {
        type            calculated;
        value           nonuniform 0();
    }
    top
    {
        type            symmetryPlane;
        value           uniform 0;
    }
    bottom
    {
        type            symmetryPlane;
        value           uniform 0;
    }
    defaultFaces
    {
        type            empty;
        value           nonuniform 0();
    }
    procBoundary44to43
    {
        type            processor;
        value           nonuniform List<scalar> 
86
(
-0.0042398
-0.00424538
-0.0042476
-0.0042464
-0.00424177
-0.0042337
0.0137839
-0.00429236
-0.00428022
-0.00426493
-0.0042466
-0.00422532
-0.0042012
-0.00417436
-0.00414493
-0.00411304
-0.00407884
-0.00404249
-0.00400419
-0.00396417
-0.00392282
-0.00388188
-0.0187923
-0.0184822
-0.0184409
-0.0187482
-0.0194118
-0.0203158
-0.021236
-0.0219574
-0.0223431
-0.0223947
-0.0222272
-0.0219736
-0.0217165
-0.0214909
-0.0213055
-0.0211583
-0.0210448
-0.0209603
-0.0209003
-0.0208617
-0.0208421
-0.0192335
-0.0187189
-0.018183
-0.0176289
-0.0170719
-0.0165956
-0.0162971
-0.0163007
-0.0166689
-0.0172976
-0.0180061
-0.0186527
-0.0191764
-0.0195745
-0.019864
-0.0200683
-0.0202097
-0.0203058
-0.0203689
-0.0204067
-0.0204245
-0.00352824
-0.00357667
-0.00362724
-0.00367746
-0.0037272
-0.0037762
-0.00382423
-0.0038711
-0.00391659
-0.0039605
-0.00400261
-0.00404271
-0.0040806
-0.00411609
-0.00414901
-0.0144354
-0.00413952
-0.00416372
-0.00418506
-0.00420344
-0.00421875
-0.0042309
)
;
    }
    procBoundary44to45
    {
        type            processor;
        value           nonuniform List<scalar> 
85
(
0.00427178
0.00428016
0.00428603
0.00428948
0.00429057
0.00428941
0.0042861
0.00428075
0.00427346
0.00426434
0.00425352
0.00424111
0.00422719
0.00421188
0.00419526
0.00417744
0.00415851
0.00413855
0.00411771
0.00409608
0.00407627
0.021102
0.0212718
0.0214135
0.0215963
0.0217798
0.0219076
0.0219556
0.0218956
0.0217544
0.0215705
0.0213896
0.0212312
0.0210962
0.0209806
0.0208836
0.0208046
0.0207414
0.0206916
0.000819741
0.0203534
0.0203616
0.020366
0.0173344
0.0165784
0.0158959
0.0151856
0.0145164
0.0140275
0.0139186
0.0143357
0.0153666
0.0168985
0.0185473
0.0198531
0.0206102
0.0209215
0.0209973
0.0209867
0.0209548
0.0209227
0.0208969
0.0208793
0.0208697
0.00356631
0.00361469
0.00366263
0.00371006
0.00375672
0.00380243
0.00384698
0.00389017
0.00393183
0.00397176
0.0040098
0.00404579
0.0040796
0.00411111
0.00414021
0.00416682
0.00419087
0.00421231
0.00423113
0.0042473
0.00426084
)
;
    }
}


// ************************************************************************* //
