/*--------------------------------*- C++ -*----------------------------------*\
  =========                 |
  \\      /  F ield         | OpenFOAM: The Open Source CFD Toolbox
   \\    /   O peration     | Website:  https://openfoam.org
    \\  /    A nd           | Version:  7
     \\/     M anipulation  |
\*---------------------------------------------------------------------------*/
FoamFile
{
    version     2.0;
    format      ascii;
    class       surfaceScalarField;
    location    "15";
    object      phi;
}
// * * * * * * * * * * * * * * * * * * * * * * * * * * * * * * * * * * * * * //

dimensions      [0 3 -1 0 0 0 0];

internalField   nonuniform List<scalar> 
231
(
-0.00480819
-0.00117857
-0.00121308
-0.00112123
-0.00420582
-0.0011247
-0.0039911
-0.00111768
-0.00378621
-0.000989941
-0.00351099
-0.0011004
-0.00358902
-0.000960356
-0.00332882
-0.00107284
-0.0033985
-0.000920613
-0.00315274
-0.00103517
-0.00321427
-0.000871003
-0.0029825
-0.000987623
-0.00303612
-0.000930511
-0.00286383
-0.000864157
-0.00269699
-0.000788905
-0.00253486
-0.00257199
-0.000705163
-0.00237565
-0.000831967
-0.00240806
-0.000741882
-0.00224725
-0.000644193
-0.00208582
-0.00211506
-0.000672911
-0.00195266
-0.000563015
-0.00178293
-0.00181605
-0.000584519
-0.00164658
-0.00167624
-0.000604262
-0.00150709
-0.000479895
-0.00132248
-0.00136475
-0.000493528
-0.00118285
-0.00121984
-0.000505664
-0.00104073
-0.00107264
-0.000371991
-0.000841194
-0.0005163
-0.000896419
-0.000379248
-0.000704492
-0.000750238
-0.000385308
-0.000566069
-0.000602499
-0.000390165
-0.00042627
-0.000453512
-0.000393816
-0.000285437
-0.000303588
-0.000396259
-0.000143914
-0.000153038
-0.000397492
-2.04146e-06
-2.17247e-06
-0.000397514
0.000139837
0.000148699
-0.000396325
0.000281379
0.000299266
-0.000393926
0.000422244
0.000449218
-0.000390319
0.000562087
0.000598246
-0.000385506
0.000700566
0.000746037
-0.00037949
0.000837338
0.000892282
-0.000372275
-0.00051666
0.00103667
0.00106842
-0.00050608
0.00117888
0.00121569
-0.000493998
0.00131861
0.0013607
-0.00048042
0.00150314
-0.000604956
0.00164275
0.00167229
-0.000585276
0.00177923
0.00181222
-0.000563833
0.00194897
-0.000673933
0.00208227
0.00211141
-0.000645282
0.00224376
-0.000743199
0.00240464
-0.000833533
0.00253163
0.00256868
-0.000790542
0.00269388
-0.000866066
0.00286086
-0.000932716
0.00303334
-0.000990146
0.00315023
0.00321171
-0.000923177
-0.00103803
0.00332657
0.00339623
-0.000963238
-0.00107606
0.00350905
0.00358711
-0.000993143
-0.00110397
0.00378474
-0.00112158
0.00399015
-0.00112889
0.00420548
-0.00112565
-0.00123632
0.00456267
-0.00121805
0.0048097
-0.00132839
-0.00118347
-0.00127137
-0.00130136
-0.0201043
-0.00130661
-0.0202808
-0.00128823
-0.0204195
-0.0012571
-0.0204427
-0.00120782
-0.0205353
-0.00114161
-0.0205566
-0.0010769
-0.0204772
-0.00101551
-0.0204389
-0.0205104
-0.00143891
-0.00143835
-0.00141382
-0.00137678
-0.00132106
-0.0012462
-0.00117301
-0.00110549
-0.00102309
-0.000924909
-0.000827198
-0.000738203
-0.000654677
-0.000564966
-0.000462948
-0.000366317
-0.000279779
-0.000189593
-8.79385e-05
-0.00141813
0.0198841
-0.00144166
0.0201332
-0.0014397
0.0203167
-0.00141761
0.0204265
-0.00137078
0.0205297
-0.00130343
0.0205627
-0.001234
0.0204873
-0.0011648
-0.00108288
-0.00100325
-0.000920936
-0.000841939
-0.000762833
-0.000671637
-0.00057017
-0.00047199
-0.000385126
-0.000295578
-0.000191537
-8.85673e-05
-0.00127548
-0.00130367
-0.00130761
-0.00129064
-0.0012501
-0.00119119
)
;

boundaryField
{
    inlet
    {
        type            calculated;
        value           nonuniform 0();
    }
    outlet
    {
        type            calculated;
        value           nonuniform 0();
    }
    cylinder
    {
        type            calculated;
        value           nonuniform 0();
    }
    top
    {
        type            symmetryPlane;
        value           uniform 0;
    }
    bottom
    {
        type            symmetryPlane;
        value           uniform 0;
    }
    defaultFaces
    {
        type            empty;
        value           nonuniform 0();
    }
    procBoundary8to7
    {
        type            processor;
        value           nonuniform List<scalar> 
130
(
-0.00456197
-0.00469827
-0.001323
-0.00123144
-0.00432217
-0.00123618
-0.00409434
-0.00123008
-0.0038787
-0.00121416
-0.00367245
-0.00118838
-0.00347349
-0.00115261
-0.00328106
-0.00110698
-0.00309491
-0.00105176
-0.00291487
-0.000987292
-0.00274069
-0.000913907
-0.000961066
-0.00244289
-0.000872617
-0.00227732
-0.000776387
-0.000808666
-0.00197931
-0.000699626
-0.00072433
-0.000747014
-0.00153349
-0.000622238
-0.000638439
-0.000652859
-0.000665494
-0.000923447
-0.000525429
-0.000533048
-0.000539152
-0.00054374
-0.000546809
-0.000548358
-0.000548385
-0.000546892
-0.000543879
-0.000539346
-0.000533297
-0.000525734
-0.000919154
-0.000665924
-0.000653356
-0.000639002
-0.000622866
-0.00152943
-0.000747818
-0.000725209
-0.000700578
-0.00197551
-0.000809831
-0.000777631
-0.00227374
-0.000874104
-0.00243939
-0.000962821
-0.000915745
-0.0027375
-0.000989428
-0.00291184
-0.00105422
-0.00309207
-0.00110979
-0.00327845
-0.0011558
-0.0034712
-0.00119197
-0.00367056
-0.00121815
-0.00387731
-0.00123443
-0.00409354
-0.00124084
-0.00432207
-0.00444791
-0.00135108
-0.00469936
-0.0198641
0.00141344
-0.0200789
-0.0202813
-0.020444
-0.0204797
-0.020591
-0.0206315
-0.0205504
-0.0205065
-0.0205928
-0.0206112
-0.0205261
-0.020425
-0.0203612
-0.0203665
-0.0204132
-0.0203112
-0.0202419
-0.0202303
-0.0203256
-0.0201952
-0.0197943
-0.0201096
-0.0203187
-0.0204486
-0.0205765
-0.0206301
-0.0205567
-0.0205148
-0.0205624
-0.0204308
-0.0204535
-0.020356
-0.02036
-0.0204052
-0.0204282
-0.0203668
-0.0202697
-0.020284
-0.020371
-0.0203424
-0.0202426
)
;
    }
    procBoundary8to9
    {
        type            processor;
        value           nonuniform List<scalar> 
138
(
0.00491079
0.00107597
0.0046692
0.00431148
0.00110585
0.00443238
0.00101557
0.00409812
0.00101768
0.00389479
0.00361836
0.0010091
0.00369948
0.000882563
0.00343842
0.000850759
0.00326457
0.000808791
0.00309654
0.000756963
0.000811835
0.0028177
0.000743447
0.00265753
0.000666241
0.00250003
0.00058079
0.000613483
0.00221525
0.000514758
0.000539759
0.00191585
0.000430092
0.000448169
0.000464773
0.00145929
0.000343083
0.000353901
0.00036354
0.00097583
0.000237354
0.000242547
0.000246886
0.000250366
0.000252983
0.000254735
0.00025562
0.000255635
0.000254783
0.000253062
0.000250475
0.000247026
0.000242718
0.000237556
0.000972057
0.000363868
0.000354272
0.000343496
0.00145553
0.000465351
0.000448799
0.000430771
0.00191229
0.000540636
0.00051569
0.00221186
0.000614634
0.00237232
0.000706547
0.000667685
0.00265448
0.000745144
0.0028148
0.000813803
0.00297978
0.00087326
0.000811082
0.00326233
0.000853338
0.00343647
0.000885434
0.00361676
0.00369793
0.00101261
0.00389371
0.00102146
0.00409758
0.00101957
0.00431156
0.00443274
0.0011104
0.00467032
0.00108052
0.00491265
0.0199569
0.0201343
0.020286
0.0204011
0.0204115
0.020486
0.0204904
0.0204125
0.0203775
0.0204345
-0.000939657
0.020513
0.0204283
0.020336
0.0202777
0.0202768
0.0203111
0.0202146
0.0201554
0.0201401
0.020224
0.0201073
0.0204456
0.0204804
0.0203512
0.0203712
0.020277
0.0202809
0.020314
0.0203267
0.0202686
0.0201829
0.0201944
0.0202669
0.0202394
0.020154
0.0199761
0.0201614
0.0203207
0.0204095
0.0204892
0.0205038
-0.00113027
0.0204264
)
;
    }
}


// ************************************************************************* //
