/*--------------------------------*- C++ -*----------------------------------*\
  =========                 |
  \\      /  F ield         | OpenFOAM: The Open Source CFD Toolbox
   \\    /   O peration     | Website:  https://openfoam.org
    \\  /    A nd           | Version:  7
     \\/     M anipulation  |
\*---------------------------------------------------------------------------*/
FoamFile
{
    version     2.0;
    format      ascii;
    class       volVectorField;
    location    "15";
    object      U;
}
// * * * * * * * * * * * * * * * * * * * * * * * * * * * * * * * * * * * * * //

dimensions      [0 1 -1 0 0 0 0];

internalField   nonuniform List<vector> 
183
(
(1.04588 0.286476 -7.21651e-22)
(1.02856 0.301071 -4.1086e-21)
(1.03118 0.286043 3.41003e-20)
(1.00729 0.332461 -6.429e-21)
(1.00981 0.315252 2.90898e-21)
(0.986936 0.350353 -4.70566e-20)
(0.989427 0.331389 1.75348e-20)
(0.965378 0.369035 3.41222e-20)
(0.968104 0.348658 5.53949e-21)
(0.938491 0.411834 -3.26703e-20)
(0.941884 0.388403 6.68051e-20)
(0.945435 0.366525 -3.65269e-20)
(0.91116 0.433669 2.48602e-20)
(0.91587 0.408378 3.61993e-20)
(0.920643 0.384854 -1.46551e-19)
(0.880612 0.456173 -3.87371e-20)
(0.886918 0.42887 8.99796e-20)
(0.893189 0.403558 1.24293e-19)
(0.846415 0.479236 7.35879e-20)
(0.854642 0.449783 -9.38481e-20)
(0.862693 0.422549 1.47908e-19)
(0.818622 0.470975 -1.05252e-19)
(0.828785 0.441707 -1.19745e-19)
(0.778388 0.492226 -1.2402e-19)
(0.791062 0.46086 2.77166e-19)
(0.733374 0.513148 1.47187e-19)
(0.74908 0.479756 1.98002e-19)
(0.682813 0.532955 -2.40616e-19)
(0.70231 0.497988 -2.30055e-20)
(0.720315 0.465267 1.02511e-19)
(0.650059 0.514776 4.81285e-19)
(0.671981 0.48064 -2.38852e-19)
(0.591305 0.528473 9.98826e-20)
(0.618254 0.494234 -2.43397e-19)
(0.558243 0.50447 -4.13755e-20)
(0.587592 0.471395 1.14586e-20)
(0.490658 0.508125 -8.9057e-21)
(0.526575 0.478012 -2.51274e-20)
(0.458442 0.477976 -2.28731e-19)
(0.496502 0.449208 4.66299e-19)
(0.428094 0.445352 2.22225e-19)
(0.468217 0.418184 -2.45309e-20)
(0.352187 0.42969 1.81722e-19)
(0.399818 0.410412 -3.74142e-19)
(0.324716 0.391265 -1.14645e-19)
(0.373804 0.373328 1.08465e-19)
(0.299777 0.35066 -1.80608e-19)
(0.350226 0.334287 -7.92405e-20)
(0.220642 0.311342 7.0078e-20)
(0.277551 0.308096 5.41299e-19)
(0.32924 0.293489 -5.70305e-19)
(0.200868 0.266838 -2.16807e-20)
(0.258195 0.263809 -2.04992e-19)
(0.184144 0.220715 -1.74992e-20)
(0.241848 0.218044 1.59256e-19)
(0.170601 0.173253 4.49141e-20)
(0.228625 0.171057 1.53416e-19)
(0.160346 0.124739 -7.50879e-20)
(0.218621 0.12311 1.73278e-20)
(0.153456 0.075468 -4.57565e-20)
(0.211906 0.0744724 -2.24552e-20)
(0.149988 0.0257394 9.48796e-21)
(0.208526 0.0254178 -1.56806e-20)
(0.149967 -0.0241439 -1.34052e-20)
(0.208507 -0.0237777 2.87388e-21)
(0.153394 -0.0738782 -4.05546e-20)
(0.211847 -0.0728372 6.43384e-21)
(0.160242 -0.123161 -2.23294e-21)
(0.218524 -0.121485 -7.29108e-20)
(0.170458 -0.171692 1.79582e-19)
(0.228491 -0.169446 -1.63412e-19)
(0.183963 -0.219177 -8.89399e-20)
(0.241678 -0.216453 -5.86941e-20)
(0.200652 -0.265329 -3.38095e-19)
(0.257992 -0.262242 -8.34283e-20)
(0.220394 -0.309867 3.39222e-19)
(0.277317 -0.306559 1.10178e-19)
(0.329029 -0.291941 3.09992e-19)
(0.299516 -0.349156 -2.66786e-19)
(0.349989 -0.332768 4.5074e-19)
(0.32443 -0.389799 2.6809e-19)
(0.373544 -0.371841 -8.08185e-20)
(0.35188 -0.428266 -2.57574e-19)
(0.399539 -0.40896 1.34723e-19)
(0.427799 -0.443939 3.70178e-19)
(0.467956 -0.416764 -3.48745e-20)
(0.458136 -0.476605 1.31696e-19)
(0.496231 -0.447824 7.30701e-20)
(0.490343 -0.506799 -3.84596e-19)
(0.526296 -0.476667 -4.37768e-19)
(0.557961 -0.503167 -3.28177e-19)
(0.587348 -0.470081 2.24555e-19)
(0.591023 -0.527215 2.51426e-19)
(0.618012 -0.492959 -2.84469e-19)
(0.649821 -0.513543 9.21571e-20)
(0.671784 -0.479393 1.05889e-19)
(0.702122 -0.496781 3.38982e-20)
(0.720168 -0.464043 -2.34086e-19)
(0.733197 -0.511983 3.93786e-20)
(0.748947 -0.478572 9.77544e-20)
(0.778271 -0.491083 -4.07537e-20)
(0.790989 -0.459694 -2.18704e-19)
(0.818569 -0.469851 -2.22766e-19)
(0.828777 -0.440558 2.86427e-19)
(0.854658 -0.448677 -8.18894e-20)
(0.862757 -0.421414 -1.2342e-19)
(0.880653 -0.455115 1.48967e-19)
(0.887011 -0.427782 -1.22243e-19)
(0.893333 -0.402436 3.80118e-20)
(0.911279 -0.432631 -1.83539e-20)
(0.916045 -0.407308 -7.42386e-20)
(0.920877 -0.383749 3.93847e-20)
(0.938696 -0.41082 -9.21993e-20)
(0.942151 -0.387358 4.06711e-20)
(0.945768 -0.365443 1.28843e-21)
(0.965742 -0.368021 1.16067e-21)
(0.96854 -0.347611 4.20904e-20)
(0.987399 -0.349381 -5.0777e-22)
(0.98997 -0.330391 -4.82904e-21)
(1.00786 -0.331545 -6.27586e-21)
(1.01046 -0.314315 -2.87455e-21)
(1.0132 -0.299281 -4.64761e-20)
(1.02933 -0.300202 1.26573e-20)
(1.03204 -0.285168 -3.14888e-20)
(1.04673 -0.2857 -1.25838e-21)
(1.06059 0.232035 1.06039e-21)
(1.07119 0.220344 1.3595e-21)
(1.08064 0.182577 -4.36697e-21)
(1.08687 0.165002 1.01405e-21)
(1.08765 0.142904 -6.98728e-21)
(1.09161 0.12508 5.52747e-21)
(1.09242 0.113979 -3.76043e-21)
(1.08836 0.102668 -5.41201e-21)
(1.086 0.0875632 5.52371e-21)
(1.08899 0.0759093 -6.08886e-21)
(1.06254 0.22003 -2.38125e-22)
(1.07363 0.183513 6.76286e-23)
(1.08136 0.165721 1.91327e-23)
(1.08305 0.143754 3.10248e-21)
(1.08796 0.12532 -3.41803e-21)
(1.0897 0.114551 -2.18409e-21)
(1.08581 0.103735 6.04021e-22)
(1.08335 0.0880497 -3.44499e-22)
(1.08689 0.0757142 -2.15626e-21)
(1.08747 0.0712654 4.60782e-23)
(1.08328 0.0657072 -1.81339e-21)
(1.07832 0.0572644 -2.41555e-21)
(1.07491 0.0484071 -2.9485e-21)
(1.07463 0.0376171 -1.3862e-21)
(1.07665 0.0341663 -7.14046e-22)
(1.07165 0.0303736 -4.14828e-21)
(1.06821 0.0230498 1.76366e-21)
(1.06723 0.0124723 -3.05884e-21)
(1.07183 0.00883067 1.24858e-21)
(1.06549 0.00741455 1.7358e-23)
(1.04973 -0.230638 1.56024e-21)
(1.06399 -0.219337 -6.49696e-22)
(1.07562 -0.185011 2.52057e-21)
(1.08151 -0.164971 2.80107e-21)
(1.08755 -0.144026 -2.75683e-21)
(1.09003 -0.131172 9.36476e-22)
(1.08642 -0.119805 4.76106e-21)
(1.08396 -0.101488 3.34187e-21)
(1.08596 -0.0932849 4.26137e-21)
(1.07912 -0.0823407 3.0509e-22)
(1.08007 -0.0702371 -4.43328e-23)
(1.07496 -0.0629829 1.43108e-21)
(1.07479 -0.0489648 1.86419e-21)
(1.07647 -0.0421066 2.9425e-21)
(1.07742 -0.0367571 1.54769e-21)
(1.07448 -0.033886 7.04702e-22)
(1.0697 -0.0262444 3.84071e-21)
(1.07009 -0.0161051 -1.93156e-21)
(1.07409 -0.011649 3.66609e-21)
(1.07272 -0.0108381 -1.38851e-21)
(1.06796 -0.00476845 -5.54277e-24)
(1.06149 -0.231513 6.26997e-23)
(1.07259 -0.219784 -6.55609e-22)
(1.08257 -0.183974 2.15532e-21)
(1.08712 -0.164441 -3.88006e-21)
(1.09184 -0.143569 6.98894e-21)
(1.09322 -0.130473 -2.80708e-21)
(1.08926 -0.118577 1.1089e-21)
)
;

boundaryField
{
    inlet
    {
        type            uniformFixedValue;
        uniformValue    constant (1 0 0);
        value           nonuniform 0();
    }
    outlet
    {
        type            pressureInletOutletVelocity;
        value           nonuniform 0();
    }
    cylinder
    {
        type            fixedValue;
        value           nonuniform 0();
    }
    top
    {
        type            symmetryPlane;
    }
    bottom
    {
        type            symmetryPlane;
    }
    defaultFaces
    {
        type            empty;
    }
    procBoundary8to7
    {
        type            processor;
        value           nonuniform List<vector> 
130
(
(1.01244 0.300249 1.5276e-20)
(1.01606 0.285019 1.47394e-20)
(1.04881 0.231266 5.47478e-21)
(1.01244 0.300249 1.5276e-20)
(0.992592 0.313902 3.22976e-20)
(0.992592 0.313902 3.22976e-20)
(0.971344 0.329467 -1.87546e-20)
(0.971344 0.329467 -1.87546e-20)
(0.949163 0.346016 6.01e-20)
(0.949163 0.346016 6.01e-20)
(0.925437 0.362927 2.73198e-20)
(0.925437 0.362927 2.73198e-20)
(0.899388 0.380055 5.37839e-20)
(0.899388 0.380055 5.37839e-20)
(0.870555 0.397338 1.48117e-19)
(0.870555 0.397338 1.48117e-19)
(0.838601 0.414681 -1.29452e-20)
(0.838601 0.414681 -1.29452e-20)
(0.803172 0.431932 -1.1371e-19)
(0.803172 0.431932 -1.1371e-19)
(0.763883 0.448887 2.76543e-19)
(0.763883 0.448887 2.76543e-19)
(0.73723 0.435068 -2.76013e-19)
(0.692254 0.448784 3.79324e-21)
(0.692254 0.448784 3.79324e-21)
(0.642561 0.461149 1.57402e-20)
(0.642561 0.461149 1.57402e-20)
(0.614224 0.439574 -1.52039e-19)
(0.558259 0.446342 1.74309e-19)
(0.558259 0.446342 1.74309e-19)
(0.530433 0.419172 5.00315e-20)
(0.504285 0.389999 7.97282e-20)
(0.441898 0.385081 -7.66586e-20)
(0.441898 0.385081 -7.66586e-20)
(0.417712 0.350053 2.04782e-19)
(0.395811 0.313267 -3.4062e-19)
(0.376335 0.274901 -1.64464e-19)
(0.310986 0.251143 -5.61527e-20)
(0.310986 0.251143 -5.61527e-20)
(0.295585 0.207471 -1.2708e-19)
(0.283136 0.162701 1.57847e-19)
(0.273723 0.11707 -7.10976e-20)
(0.267407 0.0708187 -5.5474e-21)
(0.26423 0.0241934 2.63e-21)
(0.264212 -0.0225585 2.13835e-20)
(0.267354 -0.0691881 5.21976e-20)
(0.273635 -0.115448 -8.08847e-20)
(0.283015 -0.161091 1.01748e-19)
(0.295431 -0.205878 -7.90371e-20)
(0.310803 -0.24957 8.40844e-20)
(0.310803 -0.24957 8.40844e-20)
(0.376147 -0.273364 1.43176e-19)
(0.395601 -0.311755 2.12745e-20)
(0.417481 -0.348569 1.4732e-19)
(0.441651 -0.383627 -1.14575e-19)
(0.441651 -0.383627 -1.14575e-19)
(0.504056 -0.388581 -2.00926e-20)
(0.530197 -0.417787 1.46658e-19)
(0.558017 -0.444991 -1.05759e-19)
(0.558017 -0.444991 -1.05759e-19)
(0.614018 -0.438254 -3.74296e-19)
(0.642358 -0.459865 3.18455e-19)
(0.642358 -0.459865 3.18455e-19)
(0.692096 -0.447524 -7.08005e-20)
(0.692096 -0.447524 -7.08005e-20)
(0.737123 -0.433827 -2.57092e-19)
(0.763791 -0.447683 -4.16076e-21)
(0.763791 -0.447683 -4.16076e-21)
(0.803141 -0.430742 -3.06845e-20)
(0.803141 -0.430742 -3.06845e-20)
(0.838638 -0.413502 1.34892e-19)
(0.838638 -0.413502 1.34892e-19)
(0.870668 -0.396168 -3.90204e-19)
(0.870668 -0.396168 -3.90204e-19)
(0.899587 -0.378895 -6.91055e-21)
(0.899587 -0.378895 -6.91055e-21)
(0.925734 -0.361781 6.82302e-20)
(0.925734 -0.361781 6.82302e-20)
(0.949566 -0.344895 -8.6572e-20)
(0.949566 -0.344895 -8.6572e-20)
(0.971858 -0.328386 3.69601e-20)
(0.971858 -0.328386 3.69601e-20)
(0.993224 -0.312874 -4.67817e-20)
(0.993224 -0.312874 -4.67817e-20)
(0.996656 -0.297618 3.64948e-20)
(1.01692 -0.284038 -3.35353e-20)
(1.01692 -0.284038 -3.35353e-20)
(1.04881 0.231266 5.47478e-21)
(1.04881 0.231266 5.47478e-21)
(1.05402 0.219284 4.45226e-22)
(1.06708 0.184244 8.68916e-22)
(1.07633 0.16634 -1.56489e-21)
(1.07878 0.144573 -2.16649e-21)
(1.08447 0.125492 4.77262e-21)
(1.08727 0.115024 -4.68896e-21)
(1.08358 0.104839 -1.43641e-21)
(1.08064 0.0886091 -3.02863e-21)
(1.08469 0.0754474 -4.24509e-22)
(1.08625 0.0713749 3.41214e-21)
(1.08232 0.0665042 -2.17976e-21)
(1.07687 0.0581729 6.69388e-22)
(1.07297 0.0489212 -2.03169e-21)
(1.07293 0.0374572 -3.53407e-21)
(1.0758 0.0342411 -1.70163e-21)
(1.07054 0.0310973 -2.32233e-21)
(1.06646 0.023535 4.84738e-23)
(1.06565 0.0121343 -8.05451e-22)
(1.07103 0.00894931 5.30943e-22)
(1.06383 0.00796438 -2.95459e-21)
(1.03771 -0.229559 2.2142e-21)
(1.05552 -0.218437 -4.99665e-22)
(1.06915 -0.185859 -1.422e-21)
(1.0763 -0.165416 1.74182e-21)
(1.08355 -0.144357 2.49726e-21)
(1.08719 -0.131757 -5.16723e-21)
(1.08394 -0.12104 4.7371e-21)
(1.08136 -0.102149 1.41923e-21)
(1.08395 -0.0939156 3.96335e-21)
(1.07708 -0.0831976 1.48965e-21)
(1.07814 -0.0708609 -3.03293e-21)
(1.07284 -0.0636825 -1.18143e-21)
(1.07253 -0.0490226 1.00602e-21)
(1.07487 -0.041741 -3.55435e-22)
(1.07655 -0.0367431 3.29379e-21)
(1.07355 -0.0344921 -1.9878e-21)
(1.06802 -0.026703 -2.26217e-22)
(1.06844 -0.0157174 -2.43348e-21)
(1.0734 -0.011315 1.297e-21)
(1.07203 -0.011341 -3.49686e-21)
(1.06632 -0.00521517 9.33326e-22)
)
;
    }
    procBoundary8to9
    {
        type            processor;
        value           nonuniform List<vector> 
138
(
(1.06014 0.286287 -4.22805e-21)
(1.04424 0.30119 -1.88964e-21)
(1.04424 0.30119 -1.88964e-21)
(1.02486 0.332708 3.34141e-21)
(1.02667 0.315828 5.56244e-21)
(1.02667 0.315828 5.56244e-21)
(1.00556 0.351116 1.17578e-20)
(1.00556 0.351116 1.17578e-20)
(0.985167 0.370489 -5.49297e-20)
(0.985167 0.370489 -5.49297e-20)
(0.960945 0.41397 -3.79427e-20)
(0.963011 0.390748 -2.00264e-21)
(0.963011 0.390748 -2.00264e-21)
(0.935298 0.436981 4.0903e-20)
(0.935298 0.436981 4.0903e-20)
(0.906562 0.460906 -3.97414e-20)
(0.906562 0.460906 -3.97414e-20)
(0.874294 0.485659 -1.03961e-19)
(0.874294 0.485659 -1.03961e-19)
(0.837981 0.511075 -1.1056e-19)
(0.808076 0.502664 1.97679e-19)
(0.808076 0.502664 1.97679e-19)
(0.764991 0.526091 -1.64306e-19)
(0.764991 0.526091 -1.64306e-19)
(0.716317 0.548718 1.16377e-19)
(0.716317 0.548718 1.16377e-19)
(0.660754 0.568753 -1.55568e-20)
(0.625549 0.549927 -1.78262e-20)
(0.625549 0.549927 -1.78262e-20)
(0.559803 0.560449 -1.85985e-20)
(0.524522 0.535658 3.00238e-19)
(0.524522 0.535658 3.00238e-19)
(0.447709 0.529882 -2.12906e-21)
(0.41391 0.499183 2.60118e-20)
(0.381991 0.465727 -1.65016e-19)
(0.381991 0.465727 -1.65016e-19)
(0.296582 0.432528 1.48386e-19)
(0.26869 0.394436 -2.1425e-19)
(0.24331 0.35396 -1.36318e-19)
(0.24331 0.35396 -1.36318e-19)
(0.158147 0.290894 -4.09477e-20)
(0.13942 0.249631 -1.99197e-19)
(0.12355 0.206699 1.33533e-19)
(0.110679 0.162383 9.79282e-20)
(0.100919 0.11698 -1.19664e-19)
(0.094358 0.0707934 -2.9085e-21)
(0.0910523 0.0241334 3.05805e-20)
(0.0910313 -0.0226869 -7.87252e-21)
(0.0942953 -0.0693533 -9.57446e-22)
(0.100816 -0.115553 -1.98522e-20)
(0.110536 -0.160975 8.56772e-20)
(0.12337 -0.205316 -4.39926e-20)
(0.139206 -0.24828 -1.12249e-19)
(0.157902 -0.28958 9.33946e-20)
(0.243032 -0.352523 7.40941e-20)
(0.243032 -0.352523 7.40941e-20)
(0.268388 -0.393043 1.9521e-19)
(0.296258 -0.431184 -8.30668e-20)
(0.381668 -0.464348 -2.70235e-19)
(0.381668 -0.464348 -2.70235e-19)
(0.413574 -0.497853 4.0319e-19)
(0.447365 -0.528605 8.57632e-20)
(0.524203 -0.53438 -2.63401e-19)
(0.524203 -0.53438 -2.63401e-19)
(0.559484 -0.559223 -2.17308e-20)
(0.62527 -0.548714 -1.10093e-19)
(0.62527 -0.548714 -1.10093e-19)
(0.682582 -0.531765 3.56262e-20)
(0.682582 -0.531765 3.56262e-20)
(0.716096 -0.547575 -3.32484e-20)
(0.764828 -0.52497 7.64518e-20)
(0.764828 -0.52497 7.64518e-20)
(0.807976 -0.501565 5.33452e-20)
(0.807976 -0.501565 5.33452e-20)
(0.846383 -0.478157 -9.616e-20)
(0.846383 -0.478157 -9.616e-20)
(0.874284 -0.484627 -3.92439e-20)
(0.906627 -0.459898 9.66781e-20)
(0.906627 -0.459898 9.66781e-20)
(0.935443 -0.435998 -1.17129e-19)
(0.935443 -0.435998 -1.17129e-19)
(0.961176 -0.413015 3.81926e-20)
(0.963306 -0.389765 -5.11514e-20)
(0.963306 -0.389765 -5.11514e-20)
(0.985555 -0.369544 5.3699e-20)
(0.985555 -0.369544 5.3699e-20)
(1.00605 -0.35022 -9.08405e-21)
(1.00605 -0.35022 -9.08405e-21)
(1.02544 -0.331874 -3.11356e-21)
(1.02734 -0.314981 -6.38748e-21)
(1.02734 -0.314981 -6.38748e-21)
(1.045 -0.300416 2.02411e-21)
(1.045 -0.300416 2.02411e-21)
(1.06098 -0.285604 4.30924e-21)
(1.07188 0.232562 3.81486e-22)
(1.07936 0.22027 -3.40765e-21)
(1.08734 0.181505 -7.0335e-22)
(1.09223 0.164208 2.5945e-21)
(1.0922 0.142016 -1.02946e-21)
(1.09519 0.12476 -9.12002e-21)
(1.09513 0.113334 -2.09708e-21)
(1.091 0.101642 1.13016e-20)
(1.08867 0.0871115 -5.93146e-21)
(1.09101 0.0760263 -1.90635e-21)
(1.08887 0.0710426 -5.76073e-22)
(1.08887 0.0710426 -5.76073e-22)
(1.08456 0.0649083 -6.03455e-21)
(1.07985 0.0564373 -4.89883e-22)
(1.07667 0.0479445 -1.45455e-21)
(1.07618 0.0377179 2.05124e-21)
(1.07764 0.0340333 -2.05155e-21)
(1.07279 0.0297122 8.65659e-22)
(1.06979 0.022617 -1.92288e-22)
(1.06868 0.0127473 -2.80362e-21)
(1.07276 0.00871491 -3.29436e-22)
(1.067 0.00692745 1.005e-21)
(1.08662 -0.100845 4.46613e-21)
(1.08807 -0.0926243 -5.08125e-21)
(1.08121 -0.0814997 5.52629e-21)
(1.082 -0.0696439 2.67492e-22)
(1.07696 -0.0623413 4.93511e-21)
(1.07681 -0.0489194 -2.06723e-22)
(1.07802 -0.0423826 3.55468e-21)
(1.07847 -0.0367078 -4.65327e-21)
(1.07559 -0.0333328 2.16675e-21)
(1.07126 -0.0258548 2.28436e-21)
(1.07158 -0.0164335 2.03774e-22)
(1.07496 -0.0119068 3.33457e-21)
(1.07358 -0.0103996 3.49081e-22)
(1.06944 -0.00439533 -1.10226e-21)
(1.07275 -0.232138 -3.97232e-22)
(1.08068 -0.219826 3.59628e-21)
(1.0892 -0.182818 7.13868e-22)
(1.09254 -0.163831 -2.75194e-21)
(1.09599 -0.14299 1.06575e-21)
(1.09636 -0.129687 9.3476e-21)
(1.08662 -0.100845 4.46613e-21)
(1.09215 -0.117362 1.68784e-21)
)
;
    }
}


// ************************************************************************* //
