/*--------------------------------*- C++ -*----------------------------------*\
  =========                 |
  \\      /  F ield         | OpenFOAM: The Open Source CFD Toolbox
   \\    /   O peration     | Website:  https://openfoam.org
    \\  /    A nd           | Version:  7
     \\/     M anipulation  |
\*---------------------------------------------------------------------------*/
FoamFile
{
    version     2.0;
    format      ascii;
    class       volVectorField;
    location    "45";
    object      U;
}
// * * * * * * * * * * * * * * * * * * * * * * * * * * * * * * * * * * * * * //

dimensions      [0 1 -1 0 0 0 0];

internalField   nonuniform List<vector> 
928
(
(0.00579238 -0.00304714 -2.37016e-20)
(0.0184376 -0.009043 6.40628e-20)
(0.0326985 -0.0145324 8.0138e-20)
(0.00659375 -0.00326655 -4.71019e-21)
(0.0208248 -0.00963842 9.27901e-20)
(0.0366858 -0.0154214 -1.36609e-20)
(0.0541505 -0.0206738 3.56021e-20)
(0.07321 -0.0254209 -7.05588e-20)
(0.00744021 -0.00346082 3.61511e-20)
(0.0233402 -0.0101578 -2.70842e-20)
(0.0408773 -0.016182 4.53636e-20)
(0.060024 -0.0215971 -2.23493e-20)
(0.0807694 -0.026432 -8.18978e-20)
(0.103123 -0.0306668 1.08562e-19)
(0.12709 -0.0342822 -1.05074e-19)
(0.152668 -0.0372648 1.06512e-19)
(0.00833067 -0.00362667 -7.50601e-20)
(0.02598 -0.0105915 9.83274e-20)
(0.0452663 -0.0167989 -1.11732e-19)
(0.0661606 -0.022318 -1.06681e-20)
(0.0886499 -0.0271814 4.73752e-20)
(0.112741 -0.0313709 1.66983e-20)
(0.138435 -0.0348692 -2.17479e-20)
(0.165725 -0.0376653 4.83326e-20)
(0.194598 -0.0397507 1.48161e-20)
(0.225033 -0.0411184 -2.63803e-20)
(0.00926374 -0.00376084 4.47929e-21)
(0.0287398 -0.0109304 -2.38312e-20)
(0.0498448 -0.0172574 1.12298e-19)
(0.0725483 -0.0228164 -9.60618e-21)
(0.096835 -0.0276444 -1.01374e-19)
(0.122708 -0.031725 6.49633e-21)
(0.150166 -0.0350431 6.62316e-20)
(0.179196 -0.0375907 -7.8261e-20)
(0.20978 -0.0393624 1.69664e-20)
(0.241892 -0.0403549 -1.24829e-19)
(0.275496 -0.0405681 -6.25679e-21)
(0.310546 -0.0400052 1.18809e-19)
(0.346985 -0.0386735 -5.23752e-20)
(0.0102377 -0.0038601 6.77053e-20)
(0.0316141 -0.0111652 -9.92353e-20)
(0.0546031 -0.0175426 5.62321e-20)
(0.0791729 -0.0230729 -2.82661e-20)
(0.105306 -0.0277973 -1.2328e-19)
(0.133002 -0.0317015 8.39503e-20)
(0.162254 -0.0347733 -4.66064e-20)
(0.193046 -0.0370077 -1.6801e-21)
(0.225354 -0.0384029 8.97378e-20)
(0.259144 -0.0389599 -2.64945e-20)
(0.294375 -0.038683 -7.0128e-20)
(0.330992 -0.0375803 2.54387e-20)
(0.368927 -0.035665 4.76639e-20)
(0.408103 -0.0329548 -1.3048e-19)
(0.448425 -0.0294735 1.10205e-19)
(0.489783 -0.0252512 -1.85233e-20)
(0.0112507 -0.00392129 -1.82419e-20)
(0.0345968 -0.0112869 2.00353e-20)
(0.0595304 -0.0176406 -6.57164e-20)
(0.0860184 -0.0230688 1.47193e-19)
(0.114041 -0.0276173 8.26352e-21)
(0.143593 -0.0312745 -1.14143e-19)
(0.174665 -0.034031 1.39322e-19)
(0.207234 -0.0358855 -5.26006e-20)
(0.241271 -0.0368403 -7.74489e-21)
(0.276736 -0.0369007 9.08022e-20)
(0.313578 -0.036076 -2.46049e-20)
(0.351735 -0.0343801 -5.66967e-20)
(0.39113 -0.0318318 3.10016e-20)
(0.431675 -0.0284558 -5.84945e-20)
(0.473263 -0.0242828 5.53602e-20)
(0.515773 -0.0193505 -6.03705e-20)
(0.559067 -0.0137039 -5.22283e-21)
(0.602989 -0.00739588 3.60465e-20)
(0.647365 -0.000487674 -2.06616e-20)
(0.0123003 -0.00394134 5.44172e-20)
(0.0376804 -0.011287 -4.06071e-20)
(0.064614 -0.0175377 -3.80733e-20)
(0.0930668 -0.0227862 7.4622e-21)
(0.123016 -0.027083 -5.93141e-20)
(0.154453 -0.0304195 7.30909e-20)
(0.187363 -0.0327896 -1.26251e-20)
(0.221718 -0.034196 -6.50319e-21)
(0.257483 -0.0346455 -3.71844e-20)
(0.29461 -0.0341482 8.73458e-20)
(0.333041 -0.032719 -4.14987e-20)
(0.372705 -0.0303777 -5.00452e-20)
(0.413516 -0.0271497 2.21571e-20)
(0.455373 -0.0230667 1.12855e-19)
(0.49816 -0.0181671 -5.94687e-20)
(0.541745 -0.0124967 -7.90716e-20)
(0.585975 -0.0061088 7.49406e-20)
(0.630683 0.000934746 -8.58104e-20)
(0.675682 0.00856385 -4.93219e-21)
(0.720768 0.0166998 9.47427e-20)
(0.765719 0.0252556 -8.26256e-20)
(0.810298 0.0341362 7.86305e-20)
(0.0133839 -0.00391727 -4.29439e-20)
(0.0408568 -0.0111572 6.08201e-20)
(0.0698398 -0.0172212 4.46484e-21)
(0.100298 -0.0222084 -1.08037e-20)
(0.132205 -0.0261745 -3.33039e-20)
(0.165549 -0.0291142 1.18884e-20)
(0.200308 -0.031025 1.13013e-20)
(0.236451 -0.0319142 -3.15917e-21)
(0.273935 -0.0317932 -3.92775e-20)
(0.312705 -0.0306777 -8.23025e-20)
(0.352696 -0.0285884 1.49916e-20)
(0.393826 -0.0255517 1.84064e-20)
(0.436001 -0.0216 -7.28483e-21)
(0.479109 -0.0167726 -5.79558e-20)
(0.523024 -0.0111161 5.82694e-20)
(0.567599 -0.00468454 -7.14691e-22)
(0.612672 0.00245951 -1.89106e-20)
(0.658064 0.0102453 -4.0099e-20)
(0.703575 0.0185933 2.30396e-20)
(0.748991 0.0274159 -5.94288e-20)
(0.794081 0.0366171 1.39381e-20)
(0.838597 0.0460936 -6.944e-20)
(0.882281 0.0557361 1.49597e-19)
(0.924863 0.0654302 2.92692e-20)
(0.966063 0.0750578 -1.19796e-19)
(0.107689 -0.0213199 7.75914e-21)
(0.141578 -0.0248736 3.26676e-20)
(0.176842 -0.0273383 -5.81031e-20)
(0.213457 -0.0287157 -7.10822e-21)
(0.251382 -0.0290179 3.26006e-20)
(0.290569 -0.0282616 -4.9282e-20)
(0.330957 -0.0264684 4.61011e-20)
(0.372471 -0.0236655 -5.00974e-20)
(0.41502 -0.019886 1.11343e-19)
(0.458501 -0.0151702 -1.92615e-20)
(0.502792 -0.0095652 -3.16272e-20)
(0.547755 -0.0031262 7.32179e-20)
(0.593232 0.0040836 -1.95082e-20)
(0.639051 0.0119925 3.76018e-20)
(0.685021 0.0205202 3.41581e-21)
(0.730932 0.0295778 -9.13096e-20)
(0.77656 0.0390684 7.24925e-20)
(0.821667 0.0488871 1.00471e-20)
(0.865998 0.0589227 5.58059e-20)
(0.909293 0.0690585 -3.66067e-20)
(0.951278 0.0791743 -6.0594e-20)
(0.991679 0.0891477 -2.15721e-20)
(1.03022 0.0988578 -1.22203e-20)
(1.06662 0.108199 7.6834e-20)
(1.10061 0.117072 1.39696e-20)
(0.307325 -0.0240331 3.0222e-21)
(0.349297 -0.0215044 -2.7299e-20)
(0.39229 -0.0179365 8.13851e-22)
(0.436205 -0.0133702 9.77589e-21)
(0.480928 -0.0078536 -3.47974e-20)
(0.526328 -0.0014425 7.3847e-21)
(0.572254 0.00579903 -7.11073e-20)
(0.618541 0.0137984 2.40207e-20)
(0.665005 0.0224743 3.72371e-20)
(0.711445 0.0317367 -9.54487e-20)
(0.757642 0.0414873 1.73565e-20)
(0.803365 0.0516197 2.98848e-20)
(0.848369 0.0620205 -3.24906e-20)
(0.892396 0.0725705 -4.5897e-20)
(0.935184 0.0831464 5.83568e-20)
(0.976463 0.0936226 1.72779e-20)
(1.01596 0.103873 2.13912e-20)
(1.05341 0.113775 -6.59997e-20)
(1.08855 0.123223 3.09252e-20)
(1.12112 0.132116 -8.72181e-20)
(1.15083 0.140187 2.23054e-20)
(1.17738 0.147287 -4.55078e-20)
(0.549619 0.0075909 -3.2619e-20)
(0.596422 0.0156494 5.70408e-20)
(0.643422 0.0244435 -5.58518e-20)
(0.690428 0.0338819 7.69638e-20)
(0.737228 0.0438649 -2.28723e-20)
(0.783598 0.0542846 3.0909e-20)
(0.829299 0.0650255 -2.42638e-20)
(0.874083 0.0759658 6.33836e-20)
(0.917692 0.0869789 3.7107e-20)
(0.959862 0.0979354 -4.66034e-20)
(1.00033 0.108705 -1.78451e-20)
(1.03883 0.119159 3.3953e-20)
(1.07511 0.129174 -1.45762e-20)
(1.10892 0.138644 -2.39307e-21)
(1.14002 0.147471 1.86306e-19)
(1.16815 0.155413 -4.5639e-20)
(1.19305 0.162358 1.05612e-20)
(0.85426 0.0792356 -3.62935e-20)
(0.898711 0.0906664 -1.93618e-20)
(0.941792 0.102085 -5.97983e-20)
(0.983242 0.113357 8.97426e-20)
(1.0228 0.124349 -1.97232e-20)
(1.06023 0.13493 -5.90117e-21)
(1.09527 0.144977 3.66175e-20)
(1.12769 0.154384 -1.77093e-20)
(1.15729 0.163058 -2.28792e-20)
(1.18382 0.170784 -1.14701e-20)
(1.20706 0.17748 -4.15641e-20)
(1.08009 0.151109 3.23576e-20)
(1.11383 0.161104 9.60806e-21)
(1.14483 0.170366 5.41341e-20)
(1.1729 0.178801 -3.95583e-20)
(1.19783 0.186227 -4.24254e-20)
(1.21943 0.192584 7.31589e-20)
(1.08009 -0.151109 -3.8455e-20)
(1.11383 -0.161104 -4.84759e-21)
(1.14483 -0.170366 -3.50503e-20)
(1.1729 -0.178801 3.66324e-20)
(1.19783 -0.186227 -2.17698e-20)
(1.21943 -0.192584 1.12062e-20)
(0.808693 -0.0679264 2.27255e-20)
(0.85426 -0.0792356 4.69482e-20)
(0.898711 -0.0906664 -1.9853e-20)
(0.941792 -0.102085 1.99379e-20)
(0.983242 -0.113357 -6.37628e-20)
(1.0228 -0.124349 -9.01807e-21)
(1.06023 -0.13493 -1.11614e-20)
(1.09527 -0.144977 3.53104e-20)
(1.12769 -0.154384 -3.15226e-20)
(1.15729 -0.163058 -3.40129e-20)
(1.18382 -0.170784 3.12785e-20)
(1.20706 -0.17748 -1.70617e-20)
(0.549619 -0.0075909 7.18106e-20)
(0.596422 -0.0156494 -3.86422e-21)
(0.643422 -0.0244435 7.32755e-20)
(0.690428 -0.0338819 -2.40638e-20)
(0.737228 -0.0438649 8.50061e-20)
(0.783598 -0.0542846 -1.93936e-20)
(0.829299 -0.0650255 -2.12815e-20)
(0.874083 -0.0759658 1.25542e-20)
(0.917692 -0.0869789 3.38799e-20)
(0.959862 -0.0979354 -3.39138e-20)
(1.00033 -0.108705 2.7229e-20)
(1.03883 -0.119159 -2.02756e-20)
(1.07511 -0.129174 1.28374e-21)
(1.10892 -0.138644 1.14983e-19)
(1.14002 -0.147471 -3.15351e-20)
(1.16815 -0.155413 4.58688e-20)
(1.19305 -0.162358 9.78621e-20)
(0.307325 0.0240331 3.44515e-21)
(0.349297 0.0215044 4.57233e-21)
(0.39229 0.0179365 4.0371e-20)
(0.436205 0.0133702 -2.2291e-20)
(0.480928 0.0078536 1.21594e-20)
(0.526328 0.0014425 -4.7396e-20)
(0.572254 -0.00579903 -9.138e-21)
(0.618541 -0.0137984 -7.07515e-21)
(0.665005 -0.0224743 -3.18549e-20)
(0.711445 -0.0317367 -5.94853e-20)
(0.757642 -0.0414873 7.26436e-20)
(0.803365 -0.0516197 -7.66997e-20)
(0.848369 -0.0620205 -6.83924e-21)
(0.892396 -0.0725705 -4.79658e-20)
(0.935184 -0.0831464 8.07179e-20)
(0.976463 -0.0936226 -1.86584e-20)
(1.01596 -0.103873 2.72848e-20)
(1.05341 -0.113775 1.59806e-21)
(1.08855 -0.123223 -7.63031e-20)
(1.12112 -0.132116 -2.23404e-20)
(1.15083 -0.140187 2.18485e-20)
(1.17738 -0.147287 -2.75756e-20)
(0.107689 0.0213199 1.1107e-20)
(0.141578 0.0248736 4.47654e-21)
(0.176842 0.0273383 5.0714e-20)
(0.213457 0.0287157 2.96484e-21)
(0.251382 0.0290179 -3.14175e-20)
(0.290569 0.0282616 5.01446e-20)
(0.330957 0.0264684 2.18604e-20)
(0.372471 0.0236655 6.28997e-20)
(0.41502 0.019886 2.63538e-20)
(0.458501 0.0151702 -2.64962e-20)
(0.502792 0.0095652 -6.05541e-20)
(0.547755 0.0031262 1.02788e-20)
(0.593232 -0.0040836 5.3687e-20)
(0.639051 -0.0119925 -2.17963e-20)
(0.685021 -0.0205202 1.03459e-19)
(0.730932 -0.0295778 -4.27971e-20)
(0.77656 -0.0390684 2.23041e-20)
(0.821667 -0.0488871 -3.36311e-20)
(0.865998 -0.0589227 3.08261e-20)
(0.909293 -0.0690585 -9.36158e-20)
(0.951278 -0.0791743 2.09534e-20)
(0.991679 -0.0891477 -1.79918e-20)
(1.03022 -0.0988578 5.31056e-20)
(1.06662 -0.108199 -1.13896e-19)
(1.10061 -0.117072 6.36045e-22)
(0.0133839 0.00391727 1.56654e-20)
(0.0408568 0.0111572 -6.16068e-20)
(0.0698398 0.0172212 1.36102e-20)
(0.100298 0.0222084 1.80801e-20)
(0.132205 0.0261745 -5.75915e-21)
(0.165549 0.0291142 -5.93827e-21)
(0.200308 0.031025 -3.43237e-20)
(0.236451 0.0319142 1.14414e-20)
(0.273935 0.0317932 2.87556e-20)
(0.312705 0.0306777 -7.46008e-20)
(0.352696 0.0285884 1.6104e-20)
(0.393826 0.0255517 -1.2919e-19)
(0.436001 0.0216 2.35489e-20)
(0.479109 0.0167726 8.60904e-20)
(0.523024 0.0111161 -2.60685e-20)
(0.567599 0.00468454 2.41221e-20)
(0.612672 -0.00245951 -1.28878e-19)
(0.658064 -0.0102453 1.07525e-19)
(0.703575 -0.0185933 -2.37134e-20)
(0.748991 -0.0274159 -8.42018e-20)
(0.794081 -0.0366171 -5.43125e-20)
(0.838597 -0.0460936 6.98176e-20)
(0.882281 -0.0557361 -1.20394e-20)
(0.924863 -0.0654302 -5.8933e-20)
(0.0123003 0.00394134 -4.45122e-21)
(0.0376804 0.011287 9.15207e-21)
(0.064614 0.0175377 3.38425e-20)
(0.0930668 0.0227862 -6.61115e-20)
(0.123016 0.027083 -4.27005e-21)
(0.154453 0.0304195 -1.16455e-21)
(0.187363 0.0327896 7.42224e-20)
(0.221718 0.034196 -4.82072e-20)
(0.257483 0.0346455 1.40521e-20)
(0.29461 0.0341482 -5.07988e-20)
(0.333041 0.032719 -1.97353e-20)
(0.372705 0.0303777 1.07016e-19)
(0.413516 0.0271497 -8.89068e-20)
(0.455373 0.0230667 1.42276e-20)
(0.49816 0.0181671 8.33063e-20)
(0.541745 0.0124967 -8.22287e-20)
(0.585975 0.0061088 -7.1311e-21)
(0.630683 -0.000934745 -3.48857e-20)
(0.675682 -0.00856385 3.34345e-20)
(0.720768 -0.0166998 7.36663e-20)
(0.765719 -0.0252556 4.73451e-20)
(0.0112507 0.00392129 -2.008e-20)
(0.0345968 0.0112869 5.79472e-20)
(0.0595304 0.0176406 -1.63178e-20)
(0.0860184 0.0230688 -3.93122e-20)
(0.114041 0.0276173 7.41651e-20)
(0.143593 0.0312745 1.54408e-20)
(0.174665 0.034031 -5.09531e-20)
(0.207234 0.0358855 2.4579e-20)
(0.241271 0.0368403 5.43624e-20)
(0.276736 0.0369007 1.17334e-20)
(0.313578 0.036076 5.66159e-20)
(0.351735 0.0343801 -4.70741e-20)
(0.39113 0.0318318 9.3185e-20)
(0.431675 0.0284558 -8.72901e-20)
(0.473263 0.0242828 -1.03953e-19)
(0.515773 0.0193505 1.0237e-20)
(0.559067 0.0137039 1.1114e-20)
(0.602989 0.00739588 3.14988e-21)
(0.0102377 0.0038601 2.23345e-20)
(0.0316141 0.0111652 3.12146e-20)
(0.0546031 0.0175426 -9.80112e-20)
(0.0791729 0.0230729 -1.01332e-19)
(0.105306 0.0277973 1.50754e-19)
(0.133002 0.0317015 -3.02545e-20)
(0.162254 0.0347733 -2.10608e-20)
(0.193046 0.0370077 3.28888e-20)
(0.225354 0.0384029 -6.1095e-20)
(0.259144 0.0389599 4.39829e-20)
(0.294375 0.038683 -5.46374e-20)
(0.330992 0.0375803 1.77696e-20)
(0.368927 0.035665 -5.19142e-20)
(0.408103 0.0329548 1.50787e-19)
(0.448425 0.0294735 -5.06006e-20)
(0.489783 0.0252512 7.78153e-20)
(0.00926374 0.00376084 -1.13982e-20)
(0.0287398 0.0109304 6.74417e-20)
(0.0498448 0.0172574 -6.30611e-20)
(0.0725483 0.0228164 7.84417e-20)
(0.096835 0.0276444 3.47877e-20)
(0.122708 0.031725 -9.66753e-22)
(0.150166 0.0350431 -7.73681e-20)
(0.179196 0.0375907 2.37636e-20)
(0.20978 0.0393624 -7.36159e-20)
(0.241892 0.0403549 -7.76188e-21)
(0.275496 0.0405681 7.61095e-20)
(0.310546 0.0400052 -6.29411e-20)
(0.346985 0.0386735 -1.47421e-20)
(0.00833067 0.00362667 5.64166e-20)
(0.02598 0.0105915 -1.61848e-19)
(0.0452663 0.0167989 1.88781e-19)
(0.0661606 0.022318 -7.08174e-20)
(0.0886499 0.0271814 -2.55569e-20)
(0.112741 0.0313709 -8.63552e-21)
(0.138435 0.0348692 5.46322e-20)
(0.165725 0.0376653 -7.12766e-20)
(0.194598 0.0397507 -7.10265e-21)
(0.225033 0.0411184 1.13114e-19)
(0.00744021 0.00346082 -2.7844e-20)
(0.0233402 0.0101578 -3.1377e-20)
(0.0408773 0.016182 -9.60651e-20)
(0.060024 0.0215971 6.20445e-20)
(0.0807694 0.026432 5.19078e-20)
(0.103123 0.0306668 -7.63855e-20)
(0.12709 0.0342822 3.05784e-20)
(0.152668 0.0372648 -6.00132e-20)
(0.00659375 0.00326655 -6.05e-20)
(0.0208248 0.00963842 4.25703e-20)
(0.0366858 0.0154214 2.63072e-20)
(0.0541505 0.0206738 -8.19395e-20)
(0.07321 0.0254209 1.00918e-19)
(0.00579238 0.00304714 -2.30829e-20)
(0.0184376 0.009043 1.16104e-20)
(1.18823 0.077391 -3.01853e-21)
(1.18546 0.0739524 5.76295e-22)
(1.18283 0.0705902 5.66435e-22)
(1.18031 0.0673001 1.36806e-21)
(1.1779 0.0640782 -1.34761e-21)
(1.17562 0.0609205 -1.07907e-22)
(1.17344 0.0578233 6.31973e-22)
(1.17137 0.054783 -5.39757e-23)
(1.16942 0.051796 9.25915e-23)
(1.16757 0.0488591 -1.56145e-22)
(1.16582 0.0459689 2.23849e-22)
(1.16418 0.0431225 4.46528e-22)
(1.16264 0.0403166 -4.18083e-22)
(1.1612 0.0375485 7.99693e-23)
(1.15986 0.0348153 -1.89458e-22)
(1.15862 0.0321142 2.76808e-22)
(1.15747 0.0294426 2.89748e-22)
(1.15643 0.0267978 -2.23954e-22)
(1.15547 0.0241772 2.64841e-23)
(1.15461 0.0215784 -2.69453e-24)
(1.15385 0.0189988 8.65352e-23)
(1.15318 0.016436 3.39823e-23)
(1.1526 0.0138873 -6.06088e-23)
(1.15212 0.0113503 6.65435e-24)
(1.15173 0.00882208 1.58247e-23)
(1.15143 0.00629993 1.09689e-22)
(1.15123 0.00378098 1.62731e-24)
(1.15113 0.00126414 -1.65955e-23)
(1.2104 0.159823 7.43897e-21)
(1.24483 0.176983 3.91803e-21)
(1.26897 0.188145 -2.5089e-21)
(1.28491 0.195592 1.58568e-20)
(1.29427 0.199774 -2.48147e-20)
(1.29853 0.201111 -1.39665e-20)
(1.29903 0.200178 2.67729e-20)
(1.29691 0.197497 -8.21613e-21)
(1.29304 0.193536 -3.60232e-21)
(1.28809 0.188688 9.57754e-21)
(1.28255 0.18327 -1.74647e-20)
(1.27674 0.177525 1.26254e-20)
(1.27087 0.171629 -8.53042e-21)
(1.26507 0.165708 4.53969e-21)
(1.25941 0.159844 3.03733e-21)
(1.25392 0.154089 2.49407e-21)
(1.24862 0.148473 -9.86783e-21)
(1.24352 0.143012 -4.49191e-22)
(1.2386 0.137712 5.60057e-21)
(1.23386 0.132573 -1.84282e-21)
(1.2293 0.127591 6.31924e-22)
(1.22491 0.122763 4.73494e-22)
(1.22067 0.118081 -3.57578e-21)
(1.2166 0.113538 -9.05712e-22)
(1.21268 0.109129 1.38551e-21)
(1.20891 0.104847 1.6974e-21)
(1.20528 0.100686 9.81926e-22)
(1.2018 0.0966391 -1.90875e-21)
(1.19845 0.0927013 1.5122e-22)
(1.19523 0.0888668 1.29851e-21)
(1.19215 0.0851302 4.21912e-22)
(1.1892 0.0814865 2.08959e-21)
(1.18637 0.0779305 -1.37485e-21)
(1.18366 0.0744576 -1.59453e-21)
(1.18107 0.0710632 1.27004e-21)
(1.1786 0.0677428 -1.46289e-21)
(1.17625 0.0644923 1.313e-21)
(1.174 0.0613076 -2.59976e-22)
(1.17187 0.0581849 -8.29645e-23)
(1.16984 0.0551203 6.2794e-23)
(1.16792 0.0521103 -7.54447e-23)
(1.1661 0.0491514 -4.49321e-22)
(1.16439 0.0462403 6.93059e-22)
(1.16277 0.0433738 -4.37068e-22)
(1.16126 0.0405488 1.54575e-22)
(1.15985 0.0377623 -3.05597e-22)
(1.15853 0.0350113 4.23266e-23)
(1.15731 0.0322932 4.9652e-23)
(1.15618 0.029605 -1.85075e-23)
(1.15516 0.0269443 -2.39207e-22)
(1.15422 0.0243082 -3.53774e-23)
(1.15338 0.0216944 -6.04463e-23)
(1.15263 0.0191001 1.36373e-23)
(1.15197 0.016523 1.52825e-24)
(1.1514 0.0139604 -6.68417e-23)
(1.15092 0.0114096 -4.30007e-23)
(1.15054 0.00886802 4.79006e-23)
(1.15025 0.00633266 -3.42446e-23)
(1.15005 0.00380062 -2.90741e-23)
(1.14995 0.00127056 -4.2931e-23)
(1.22347 0.174126 5.05004e-21)
(1.25435 0.189508 3.26897e-20)
(1.27544 0.199151 -1.58868e-20)
(1.28874 0.205111 -9.12917e-21)
(1.29594 0.207906 2.19209e-20)
(1.2985 0.208008 1.44595e-20)
(1.29772 0.206003 -2.88729e-20)
(1.29467 0.202419 2.41647e-20)
(1.29018 0.197713 -1.85979e-20)
(1.28484 0.192262 -3.0872e-22)
(1.27909 0.186361 5.48047e-21)
(1.27318 0.18023 -3.03281e-22)
(1.26731 0.174026 5.10225e-21)
(1.26156 0.167856 -5.87544e-21)
(1.25598 0.161788 -3.64218e-21)
(1.25059 0.155863 5.2446e-21)
(1.2454 0.150102 -3.30621e-22)
(1.24041 0.144515 -1.55682e-21)
(1.2356 0.139104 3.998e-21)
(1.23098 0.133866 1.69971e-22)
(1.22652 0.128794 -2.2062e-21)
(1.22222 0.123884 4.8162e-22)
(1.21809 0.119126 3.03085e-21)
(1.2141 0.114514 -1.21097e-21)
(1.21027 0.110041 -1.3734e-21)
(1.20658 0.1057 -8.55047e-22)
(1.20303 0.101483 1.18037e-21)
(1.19962 0.0973854 -1.1123e-22)
(1.19634 0.0934 1.08366e-21)
(1.19319 0.0895212 -1.19499e-21)
(1.19017 0.0857432 -3.27202e-22)
(1.18728 0.0820608 2.85931e-21)
(1.18451 0.0784685 -8.39112e-22)
(1.18185 0.0749616 -1.21988e-21)
(1.17932 0.0715352 4.25653e-22)
(1.17689 0.0681847 2.71619e-24)
(1.17458 0.0649058 4.28592e-23)
(1.17238 0.0616942 6.67974e-23)
(1.17028 0.058546 -9.85564e-23)
(1.16829 0.0554572 -1.93008e-22)
(1.16641 0.0524242 -1.00192e-22)
(1.16462 0.0494434 6.80336e-22)
(1.16294 0.0465114 5.19405e-24)
(1.16136 0.043625 3.81854e-23)
(1.15987 0.0407808 2.93348e-23)
(1.15848 0.0379759 2.1578e-22)
(1.15719 0.0352072 -2.41318e-22)
(1.15599 0.032472 1.84242e-22)
(1.15489 0.0297674 -1.83584e-22)
(1.15388 0.0270906 1.82621e-22)
(1.15296 0.0244391 6.20453e-23)
(1.15213 0.0218102 1.54635e-22)
(1.15139 0.0192013 1.03044e-22)
(1.15075 0.0166098 2.16809e-23)
(1.15019 0.0140332 -1.90105e-23)
(1.14972 0.0114688 7.29728e-23)
(1.14934 0.0089138 -1.89622e-24)
(1.14906 0.00636523 2.43185e-23)
(1.14886 0.00382015 1.43399e-23)
(1.14876 0.00127691 7.16508e-23)
(1.23495 0.188361 3.66761e-21)
(1.26244 0.201875 -3.8903e-20)
(1.28065 0.209928 2.38053e-20)
(1.2915 0.21437 3.69543e-21)
(1.29672 0.215771 2.67014e-21)
(1.29774 0.214649 -6.22656e-21)
(1.29583 0.211598 -2.88632e-21)
(1.29199 0.207144 -6.44947e-21)
(1.28699 0.201727 -5.42027e-21)
(1.28135 0.195705 1.05355e-20)
(1.27545 0.189348 -8.72907e-21)
(1.26951 0.182855 -1.92642e-21)
(1.26366 0.176362 -1.48595e-21)
(1.25798 0.169957 5.54547e-21)
(1.2525 0.163696 2.41421e-21)
(1.24723 0.157609 -9.08637e-21)
(1.24216 0.151709 -1.27709e-21)
(1.23729 0.146001 -1.75064e-21)
(1.23259 0.140482 2.34995e-21)
(1.22808 0.135147 -3.88423e-21)
(1.22372 0.129987 3.63115e-21)
(1.21953 0.124996 -1.54321e-21)
(1.21549 0.120164 -1.89327e-21)
(1.2116 0.115484 1.35067e-21)
(1.20785 0.110948 1.17217e-22)
(1.20424 0.106548 -1.38301e-21)
(1.20077 0.102277 -9.91421e-22)
(1.19743 0.0981285 2.23418e-21)
(1.19423 0.094096 -2.71458e-21)
(1.19115 0.0901732 1.87598e-21)
(1.18819 0.0863543 -1.74835e-21)
(1.18536 0.0826334 -2.48491e-22)
(1.18264 0.0790052 3.60727e-22)
(1.18004 0.0754645 -6.79098e-22)
(1.17755 0.0720063 -1.19982e-22)
(1.17518 0.0686258 4.37811e-23)
(1.17291 0.0653186 4.06416e-22)
(1.17075 0.0620803 -2.31642e-22)
(1.16869 0.0589066 -3.16068e-22)
(1.16674 0.0557938 6.37174e-22)
(1.16489 0.0527379 -5.1089e-22)
(1.16314 0.0497353 -1.49307e-22)
(1.16149 0.0467824 -1.22053e-22)
(1.15993 0.043876 -2.52032e-22)
(1.15848 0.0410127 -5.10091e-23)
(1.15711 0.0381894 -2.71857e-23)
(1.15584 0.035403 -9.38553e-23)
(1.15467 0.0326507 -8.32087e-24)
(1.15358 0.0299296 3.59326e-23)
(1.15259 0.0272369 -2.42901e-23)
(1.15169 0.0245699 -1.37371e-22)
(1.15087 0.0219259 3.5171e-23)
(1.15015 0.0193023 -6.67558e-23)
(1.14952 0.0166966 1.17378e-23)
(1.14897 0.014106 -5.89908e-23)
(1.14851 0.0115279 -4.51643e-23)
(1.14814 0.00895944 -2.26408e-23)
(1.14786 0.00639768 -3.11955e-23)
(1.14767 0.00383958 -3.77472e-25)
(1.14757 0.00128319 -2.25745e-23)
(1.24487 0.202472 -7.16683e-21)
(1.26916 0.214043 1.84912e-20)
(1.28464 0.220453 -6.28365e-21)
(1.29324 0.223355 -9.376e-21)
(1.29665 0.223366 1.27928e-20)
(1.2963 0.221039 -2.3123e-21)
(1.29341 0.216973 1.24875e-20)
(1.28891 0.211681 -1.13727e-20)
(1.2835 0.205587 1.05998e-21)
(1.27764 0.199025 4.33044e-21)
(1.27165 0.19224 -3.25257e-21)
(1.26571 0.185407 3.54458e-21)
(1.25993 0.178642 -1.11442e-21)
(1.25435 0.172016 -4.30644e-22)
(1.24899 0.165572 6.8113e-22)
(1.24384 0.15933 2.60764e-21)
(1.2389 0.153297 2.57176e-21)
(1.23414 0.147471 -4.32621e-21)
(1.22957 0.141847 3.05027e-21)
(1.22517 0.136417 -7.56641e-23)
(1.22092 0.131171 6.98786e-22)
(1.21683 0.1261 -2.31108e-21)
(1.21289 0.121195 3.33348e-21)
(1.20909 0.116448 -1.9025e-21)
(1.20542 0.111849 1.6545e-21)
(1.2019 0.107391 -4.02841e-21)
(1.19851 0.103067 3.7053e-21)
(1.19524 0.0988682 -6.44512e-22)
(1.19211 0.0947892 -1.45437e-22)
(1.18909 0.090823 -3.53967e-22)
(1.1862 0.0869634 1.37014e-21)
(1.18343 0.0832044 5.44002e-23)
(1.18077 0.0795405 3.53207e-22)
(1.17822 0.0759663 -5.53359e-22)
(1.17578 0.0724764 1.17006e-22)
(1.17345 0.0690662 2.64961e-22)
(1.17123 0.0657308 -3.88751e-22)
(1.16911 0.0624658 2.19384e-23)
(1.1671 0.059267 1.31287e-22)
(1.16518 0.0561301 -1.00087e-22)
(1.16337 0.0530513 6.85368e-23)
(1.16165 0.0500269 -2.62168e-22)
(1.16003 0.0470533 3.70978e-22)
(1.1585 0.0441269 -8.16988e-23)
(1.15707 0.0412445 -1.13955e-23)
(1.15573 0.0384028 2.91938e-23)
(1.15449 0.0355988 1.13702e-22)
(1.15333 0.0328295 -4.67838e-23)
(1.15227 0.0300918 8.96805e-23)
(1.15129 0.0273831 -4.20834e-23)
(1.15041 0.0247006 4.72223e-24)
(1.14961 0.0220415 1.94732e-24)
(1.1489 0.0194033 1.16522e-23)
(1.14828 0.0167832 -5.58882e-24)
(1.14774 0.0141786 3.58751e-24)
(1.14729 0.0115868 8.83452e-24)
(1.14693 0.00900497 -5.547e-25)
(1.14665 0.00643003 -5.92133e-24)
(1.14646 0.00385892 3.3125e-24)
(1.14637 0.00128941 -8.27292e-24)
(1.25325 -0.216409 1.15725e-20)
(1.27453 -0.225981 -2.71759e-21)
(1.28748 -0.230708 -1.3206e-20)
(1.294 -0.232059 9.59948e-21)
(1.29578 -0.23069 -4.90478e-22)
(1.24487 -0.202472 9.86427e-21)
(1.26916 -0.214043 -1.91257e-20)
(1.28464 -0.220453 1.04488e-20)
(1.29324 -0.223355 1.03608e-20)
(1.29665 -0.223366 -1.29905e-20)
(1.2963 -0.221039 3.04034e-21)
(1.29341 -0.216973 -1.08995e-20)
(1.28891 -0.211681 1.34719e-20)
(1.2835 -0.205587 3.03804e-22)
(1.27764 -0.199025 -3.79356e-21)
(1.27165 -0.19224 2.32358e-21)
(1.26571 -0.185407 -3.12692e-21)
(1.25993 -0.178642 1.54512e-21)
(1.25435 -0.172016 1.3748e-21)
(1.24899 -0.165572 -3.08576e-22)
(1.24384 -0.15933 -1.79064e-21)
(1.2389 -0.153297 -2.24932e-21)
(1.23414 -0.147471 5.03329e-21)
(1.22957 -0.141847 -2.11156e-21)
(1.22517 -0.136417 6.87358e-22)
(1.22092 -0.131171 -4.57522e-22)
(1.21683 -0.1261 2.83968e-21)
(1.21289 -0.121195 -3.06778e-21)
(1.20909 -0.116448 2.35849e-21)
(1.20542 -0.111849 -1.73968e-21)
(1.2019 -0.107391 4.4208e-21)
(1.19851 -0.103067 -3.99269e-21)
(1.19524 -0.0988682 9.811e-22)
(1.19211 -0.0947892 8.27819e-23)
(1.18909 -0.090823 6.41497e-22)
(1.1862 -0.0869634 -1.31376e-21)
(1.18343 -0.0832044 3.94544e-22)
(1.18077 -0.0795405 -1.73011e-22)
(1.17822 -0.0759663 6.32285e-22)
(1.17578 -0.0724764 -2.66507e-22)
(1.17345 -0.0690662 -4.01684e-22)
(1.17123 -0.0657308 3.49119e-22)
(1.16911 -0.0624658 -1.35472e-22)
(1.1671 -0.059267 -9.28384e-25)
(1.16518 -0.0561301 6.86534e-24)
(1.16337 -0.0530513 -9.524e-23)
(1.16165 -0.0500269 2.82473e-22)
(1.16003 -0.0470533 -2.13982e-22)
(1.1585 -0.0441269 5.91615e-23)
(1.15707 -0.0412445 7.88112e-23)
(1.15573 -0.0384028 -4.11483e-23)
(1.15449 -0.0355988 -6.17064e-23)
(1.15333 -0.0328295 1.10532e-23)
(1.15227 -0.0300918 -5.06798e-23)
(1.15129 -0.0273831 3.53676e-23)
(1.15041 -0.0247006 2.35514e-23)
(1.14961 -0.0220416 -2.06962e-23)
(1.1489 -0.0194033 8.03696e-24)
(1.14828 -0.0167832 2.33433e-24)
(1.14774 -0.0141786 1.44024e-24)
(1.14729 -0.0115868 -6.57729e-24)
(1.14693 -0.00900497 9.12851e-24)
(1.14665 -0.00643003 3.80719e-25)
(1.14646 -0.00385892 -4.79905e-24)
(1.14637 -0.00128941 4.03132e-24)
(1.23495 -0.188361 -4.08891e-20)
(1.26244 -0.201875 3.49935e-20)
(1.28065 -0.209928 -3.28074e-20)
(1.2915 -0.21437 -8.79402e-21)
(1.29672 -0.215771 -6.82351e-21)
(1.29774 -0.214649 1.89683e-20)
(1.29583 -0.211598 -1.44312e-20)
(1.29199 -0.207144 3.45748e-21)
(1.28699 -0.201727 4.07593e-21)
(1.28135 -0.195705 -1.37687e-20)
(1.27545 -0.189348 8.94447e-21)
(1.26951 -0.182855 -1.95035e-21)
(1.26366 -0.176362 -7.56934e-21)
(1.25798 -0.169957 -1.15206e-21)
(1.2525 -0.163696 -2.21084e-21)
(1.24723 -0.157609 7.24578e-21)
(1.24216 -0.151709 -6.76689e-22)
(1.23729 -0.146001 -1.21071e-21)
(1.23259 -0.140482 -3.69221e-21)
(1.22808 -0.135147 3.28114e-21)
(1.22372 -0.129987 -4.50478e-21)
(1.21953 -0.124996 1.36175e-22)
(1.21549 -0.120164 5.03584e-23)
(1.2116 -0.115484 -1.79963e-21)
(1.20785 -0.110948 1.50979e-22)
(1.20424 -0.106548 -2.76521e-22)
(1.20077 -0.102277 1.01549e-22)
(1.19743 -0.0981285 -2.64439e-21)
(1.19423 -0.094096 2.98635e-21)
(1.19115 -0.0901732 -9.95224e-22)
(1.18819 -0.0863543 -4.738e-22)
(1.18536 -0.0826334 -1.00334e-21)
(1.18264 -0.0790052 -5.72916e-23)
(1.18004 -0.0754645 3.62587e-22)
(1.17755 -0.0720063 -3.60575e-22)
(1.17518 -0.0686258 3.53775e-22)
(1.17291 -0.0653186 -5.51575e-22)
(1.17075 -0.0620803 4.4575e-22)
(1.16869 -0.0589066 3.86576e-22)
(1.16674 -0.0557938 -6.85381e-22)
(1.16489 -0.0527379 1.66963e-22)
(1.16314 -0.0497353 -4.55538e-23)
(1.16149 -0.0467824 -2.02487e-22)
(1.15993 -0.043876 -1.33551e-24)
(1.15848 -0.0410127 -1.45283e-22)
(1.15711 -0.0381894 -3.86179e-23)
(1.15584 -0.035403 4.28723e-23)
(1.15467 -0.0326507 -4.88656e-23)
(1.15358 -0.0299296 -1.30437e-22)
(1.15259 -0.0272369 -1.11079e-22)
(1.15169 -0.0245699 1.82911e-23)
(1.15087 -0.0219259 -5.53471e-23)
(1.15015 -0.0193023 -4.36526e-24)
(1.14952 -0.0166966 -8.06334e-24)
(1.14897 -0.014106 -2.47762e-23)
(1.14851 -0.0115279 -3.55707e-23)
(1.14814 -0.00895944 -5.03132e-23)
(1.14786 -0.00639768 -2.27441e-23)
(1.14767 -0.00383958 -3.93689e-24)
(1.14757 -0.00128319 -2.80507e-23)
(1.22347 -0.174126 -1.32103e-20)
(1.25435 -0.189508 -2.48647e-20)
(1.27544 -0.199151 2.27107e-20)
(1.28874 -0.205111 1.02681e-20)
(1.29594 -0.207906 -2.02653e-20)
(1.2985 -0.208008 -1.53012e-20)
(1.29772 -0.206003 3.1694e-20)
(1.29467 -0.202419 -2.55798e-20)
(1.29018 -0.197713 1.85752e-20)
(1.28484 -0.192262 7.18639e-22)
(1.27909 -0.186361 -7.3677e-21)
(1.27318 -0.18023 5.2591e-21)
(1.26731 -0.174026 4.48059e-21)
(1.26156 -0.167856 6.56712e-21)
(1.25598 -0.161788 -8.14779e-21)
(1.25059 -0.155863 1.71394e-21)
(1.2454 -0.150102 1.96145e-21)
(1.24041 -0.144515 2.51167e-21)
(1.2356 -0.139104 -5.07559e-21)
(1.23098 -0.133866 6.72791e-22)
(1.22652 -0.128794 3.22084e-21)
(1.22222 -0.123884 -6.22735e-23)
(1.21809 -0.119126 -3.36823e-22)
(1.2141 -0.114514 3.51228e-22)
(1.21027 -0.110041 2.20096e-22)
(1.20658 -0.1057 1.38273e-21)
(1.20303 -0.101483 -8.43943e-22)
(1.19962 -0.0973854 5.2353e-23)
(1.19634 -0.0934 -1.07695e-21)
(1.19319 -0.0895212 1.87502e-21)
(1.19017 -0.0857432 -2.409e-22)
(1.18728 -0.0820608 -2.53234e-21)
(1.18451 -0.0784685 8.93686e-22)
(1.18185 -0.0749616 1.26655e-21)
(1.17932 -0.0715352 3.40895e-22)
(1.17689 -0.0681847 -4.265e-22)
(1.17458 -0.0649058 2.58509e-22)
(1.17238 -0.0616942 -2.28795e-22)
(1.17028 -0.058546 -4.35561e-22)
(1.16829 -0.0554572 2.23008e-22)
(1.16641 -0.0524242 5.63321e-22)
(1.16462 -0.0494434 -4.87116e-22)
(1.16294 -0.0465114 5.5196e-22)
(1.16136 -0.043625 -1.23678e-22)
(1.15987 -0.0407808 1.57918e-22)
(1.15848 -0.0379759 1.13635e-22)
(1.15719 -0.0352072 7.69533e-23)
(1.15599 -0.032472 -1.81462e-22)
(1.15489 -0.0297674 1.03859e-22)
(1.15388 -0.0270906 1.31799e-22)
(1.15296 -0.0244391 6.19089e-23)
(1.15213 -0.0218102 2.73708e-23)
(1.15139 -0.0192013 4.15003e-23)
(1.15075 -0.0166098 6.07068e-23)
(1.15019 -0.0140332 1.85883e-23)
(1.14972 -0.0114688 7.65323e-23)
(1.14934 -0.0089138 -2.89775e-24)
(1.14906 -0.00636523 2.3937e-23)
(1.14886 -0.00382015 1.02373e-23)
(1.14876 -0.00127691 7.12689e-23)
(1.2104 -0.159823 -2.13083e-21)
(1.24483 -0.176983 -8.84287e-21)
(1.26897 -0.188145 2.51209e-21)
(1.28491 -0.195592 -1.27406e-20)
(1.29427 -0.199774 2.54573e-20)
(1.29853 -0.201111 1.36926e-20)
(1.29903 -0.200178 -2.62198e-20)
(1.29691 -0.197497 1.05257e-20)
(1.29304 -0.193536 -1.7467e-20)
(1.28809 -0.188688 1.37846e-20)
(1.28255 -0.18327 2.00694e-20)
(1.27674 -0.177525 2.89804e-21)
(1.27087 -0.171629 -2.50214e-20)
(1.26507 -0.165708 1.21279e-20)
(1.25941 -0.159844 -5.5798e-21)
(1.25392 -0.154089 4.63642e-21)
(1.24862 -0.148473 3.43813e-21)
(1.24352 -0.143012 1.74986e-21)
(1.2386 -0.137712 -4.11901e-21)
(1.23386 -0.132573 9.91037e-22)
(1.2293 -0.127591 -1.0142e-21)
(1.22491 -0.122763 4.22097e-21)
(1.22067 -0.118081 2.17271e-21)
(1.2166 -0.113538 -2.19063e-21)
(1.21268 -0.109129 -4.15252e-22)
(1.20891 -0.104847 -9.58102e-22)
(1.20528 -0.100686 -1.41439e-22)
(1.2018 -0.0966391 2.04127e-21)
(1.19845 -0.0927013 -2.94375e-21)
(1.19523 -0.0888668 1.53663e-21)
(1.19215 -0.0851302 2.04503e-22)
(1.1892 -0.0814865 4.52507e-22)
(1.18637 -0.0779305 -1.28417e-21)
(1.18366 -0.0744576 1.67016e-21)
(1.18107 -0.0710632 -1.45297e-21)
(1.1786 -0.0677428 1.17477e-21)