/*--------------------------------*- C++ -*----------------------------------*\
  =========                 |
  \\      /  F ield         | OpenFOAM: The Open Source CFD Toolbox
   \\    /   O peration     | Website:  https://openfoam.org
    \\  /    A nd           | Version:  7
     \\/     M anipulation  |
\*---------------------------------------------------------------------------*/
FoamFile
{
    version     2.0;
    format      ascii;
    class       surfaceScalarField;
    location    "35";
    object      phi;
}
// * * * * * * * * * * * * * * * * * * * * * * * * * * * * * * * * * * * * * //

dimensions      [0 3 -1 0 0 0 0];

internalField   nonuniform List<scalar> 
1666
(
0.00139386
-3.87609e-06
-5.89684e-10
0.00139769
-3.83401e-06
-5.86694e-10
0.00140148
-3.79244e-06
-5.83014e-10
0.00140524
-3.75136e-06
-5.78537e-10
-3.71078e-06
-5.73148e-10
0.0013945
-7.74886e-06
0.00139833
-7.66481e-06
0.00140212
-7.58176e-06
0.00140587
-7.49971e-06
-7.41864e-06
0.00139578
-1.16139e-05
0.00139961
-1.14881e-05
0.00140339
-1.13638e-05
0.00140713
-1.12409e-05
-1.11196e-05
0.0013977
-1.54674e-05
0.00140151
-1.53001e-05
0.00140528
-1.51349e-05
0.00140901
-1.49716e-05
-1.48103e-05
0.00140024
-1.93058e-05
0.00140403
-1.90976e-05
0.00140779
-1.88918e-05
0.00141151
-1.86885e-05
-1.84876e-05
0.00140338
-2.31259e-05
0.00140716
-2.28771e-05
0.0014109
-2.26313e-05
0.0014146
-2.23885e-05
-2.21486e-05
0.00140711
-2.69244e-05
0.00141087
-2.66358e-05
0.00141459
-2.63506e-05
0.00141827
-2.60689e-05
-2.57905e-05
0.00141142
-3.06987e-05
0.00141515
-3.0371e-05
0.00141885
-3.00471e-05
0.00142251
-2.97272e-05
-2.9411e-05
0.00141626
-3.44465e-05
0.00141997
-3.40803e-05
0.00142364
-3.37186e-05
0.00142728
-3.33612e-05
-3.30081e-05
0.00142162
-3.81656e-05
0.00142531
-3.7762e-05
0.00142895
-3.73633e-05
0.00143256
-3.69693e-05
0.00143613
-3.65801e-05
-3.61954e-05
0.00142747
-4.18547e-05
0.00143113
-4.14146e-05
0.00143474
-4.09798e-05
0.00143832
-4.05502e-05
0.00144187
-4.01258e-05
-3.97063e-05
0.00143377
0.0014374
-4.50372e-05
0.00144098
-4.45673e-05
0.00144454
-4.41031e-05
0.00144806
-4.36445e-05
-4.31913e-05
0.00144409
-4.86293e-05
0.00144764
-4.81255e-05
0.00145117
-4.76277e-05
0.00145466
-4.71359e-05
-4.665e-05
0.00145115
-5.2191e-05
0.00145468
-5.16544e-05
0.00145818
-5.11243e-05
0.00146164
-5.06005e-05
-5.00829e-05
0.00145856
-5.57231e-05
0.00146207
-5.5155e-05
0.00146553
-5.45936e-05
0.00146897
-5.40389e-05
-5.34908e-05
0.00146628
-5.92269e-05
0.00146975
-5.86284e-05
0.00147319
-5.8037e-05
0.00147661
-5.74527e-05
-5.68753e-05
0.00147424
-6.27042e-05
0.00147769
-6.20766e-05
0.00148111
-6.14565e-05
0.0014845
-6.08438e-05
-6.02384e-05
0.00148243
-6.61576e-05
0.00148585
-6.55022e-05
0.00148925
-6.48547e-05
0.00149262
-6.42148e-05
-6.35826e-05
0.00149078
-6.95902e-05
0.00149418
-6.89083e-05
0.00149756
-6.82347e-05
0.00150092
-6.7569e-05
-6.69113e-05
0.00149925
-7.30056e-05
0.00150264
-7.22987e-05
0.00150601
-7.16002e-05
0.00150935
-7.09101e-05
-7.02281e-05
0.00150781
-7.64084e-05
0.00151119
-7.56777e-05
0.00151454
-7.49558e-05
0.00151788
-7.42424e-05
-7.35375e-05
0.00151639
-7.98034e-05
0.00151977
-7.90503e-05
0.00152312
-7.83062e-05
0.00152645
-7.7571e-05
-7.68446e-05
0.00152497
0.00152834
-8.24221e-05
0.00153169
-8.16572e-05
0.00153502
-8.09014e-05
0.00153833
-8.01547e-05
-7.94168e-05
0.00153685
-8.57991e-05
0.00154021
-8.50147e-05
0.00154355
-8.42397e-05
0.00154687
-8.3474e-05
-8.27173e-05
0.00154527
-8.9188e-05
0.00154864
-8.83855e-05
0.00155199
-8.75926e-05
0.00155533
-8.68091e-05
-8.60349e-05
0.00155354
-9.25961e-05
0.00155693
-9.17767e-05
0.00156031
-9.09671e-05
0.00156367
-9.01672e-05
-8.93767e-05
0.00156163
-9.6031e-05
0.00156505
-9.5196e-05
0.00156845
-9.4371e-05
0.00157184
-9.35558e-05
-9.27503e-05
0.00156948
-9.95008e-05
0.00157294
-9.86515e-05
0.00157638
-9.78122e-05
0.00157981
-9.6983e-05
-9.61636e-05
0.00157707
-0.000103014
0.00158057
-0.000102152
0.00158406
-0.000101299
0.00158753
-0.000100457
-9.96253e-05
0.00158434
-0.00010658
0.0015879
-0.000105706
0.00159144
-0.000104842
0.00159497
-0.000103988
-0.000103144
0.00403883
-0.000110575
0.0040428
-0.000109678
0.00404675
-0.000108793
0.00405068
-0.000107917
-0.000107052
0.00415016
-0.000113928
0.00415349
-0.000113015
0.00415681
-0.000112113
0.00416012
-0.000111222
-0.000110341
0.00426402
-0.000116643
0.00426672
-0.000115719
0.00426942
-0.000114807
0.0042721
-0.000113904
-0.000113013
0.0043796
-0.000118729
0.00438168
-0.0001178
0.00438376
-0.000116881
0.00438582
-0.000115973
-0.000115076
0.0044961
-0.000120202
0.00449757
-0.000119271
0.00449904
-0.000118352
0.00450051
-0.000117444
-0.000116546
0.00461273
-0.000121081
0.00461361
-0.000120155
0.0046145
-0.00011924
0.00461539
-0.000118335
-0.000117441
0.00472875
-0.000121393
0.00472907
-0.000120476
0.0047294
-0.000119569
0.00472974
-0.000118673
-0.000117787
0.00484346
-0.000121169
0.00484325
-0.000120265
0.00484305
-0.00011937
0.00484286
-0.000118486
-0.000117612
0.0049562
-0.000120443
0.00495549
-0.000119554
0.0049548
-0.000118676
0.00495412
-0.000117807
-0.000116949
0.00506637
-0.000119252
0.0050652
-0.000118383
0.00506405
-0.000117523
0.00506291
-0.000116674
-0.000115834
0.00517343
-0.000117636
0.00517183
-0.000116789
0.00517026
-0.000115951
0.00516871
-0.000115123
0.00516718
-0.000114304
-0.000113495
0.00527687
-0.000115638
0.0052749
-0.000114814
0.00527295
-0.000114001
0.00527102
-0.000113196
0.00526912
-0.000112401
-0.000111614
0.0053763
-0.000113299
0.00537399
-0.000112502
0.0053717
-0.000111714
0.00536944
-0.000110935
0.0053672
-0.000110164
-0.000109403
0.00547135
-0.000110664
0.00546874
-0.000109894
0.00546616
-0.000109133
0.00546361
-0.000108381
0.00546108
-0.000107637
-0.000106901
0.00556173
-0.000107775
0.00555887
-0.000107034
0.00555604
-0.000106301
0.00555323
-0.000105576
0.00555045
-0.000104859
-0.000104151
0.00564722
-0.000104676
0.00564414
-0.000103963
0.0056411
-0.000103259
0.00563809
-0.000102562
0.0056351
-0.000101873
-0.000101192
0.00572765
-0.000101406
0.00572441
-0.000100722
0.0057212
-0.000100046
0.00571801
-9.93781e-05
0.00571486
-9.87172e-05
-9.80637e-05
0.00580293
-9.8005e-05
0.00579956
-9.73503e-05
0.00579621
-9.67028e-05
0.0057929
-9.60625e-05
0.00578961
-9.54294e-05
-9.48035e-05
0.00587302
-9.45095e-05
0.00586955
-9.38831e-05
0.00586611
-9.32636e-05
0.0058627
-9.2651e-05
0.00585931
-9.20453e-05
-9.14464e-05
0.00593792
-9.09534e-05
0.00593439
-9.03547e-05
0.00593089
-8.97624e-05
0.00592741
-8.91768e-05
0.00592397
-8.85978e-05
-8.80253e-05
0.00599769
-8.73678e-05
0.00599413
-8.67957e-05
0.0059906
-8.62299e-05
0.0059871
-8.56704e-05
0.00598362
-8.51172e-05
-8.45703e-05
0.00605245
-8.37803e-05
0.00604889
-8.32338e-05
0.00604535
-8.26934e-05
0.00604184
-8.2159e-05
0.00603835
-8.16306e-05
-8.11084e-05
0.00610233
-8.02156e-05
0.00609879
-7.96936e-05
0.00609527
-7.91774e-05
0.00609178
-7.8667e-05
0.00608831
-7.81624e-05
-7.76636e-05
0.00614751
-7.66949e-05
0.00614401
-7.61962e-05
0.00614054
-7.5703e-05
0.00613708
-7.52154e-05
0.00613366
-7.47333e-05
-7.42568e-05
0.00618819
-7.32361e-05
0.00618475
-7.27595e-05
0.00618134
-7.22881e-05
0.00617794
-7.1822e-05
0.00617457
-7.13613e-05
-7.0906e-05
0.0062246
-6.98542e-05
0.00622124
-6.93983e-05
0.0062179
-6.89475e-05
0.00621458
-6.85018e-05
0.00621127
-6.80612e-05
-6.76258e-05
0.00625698
-6.65608e-05
0.0062537
-6.61245e-05
0.00625045
-6.5693e-05
0.00624721
-6.52665e-05
0.006244
-6.48449e-05
-6.44283e-05
0.00628558
-6.33649e-05
0.0062824
-6.29469e-05
0.00627924
-6.25337e-05
0.0062761
-6.21252e-05
0.00627298
-6.17215e-05
-6.13226e-05
0.00631067
-6.02726e-05
0.0063076
-5.9872e-05
0.00630454
-5.94759e-05
0.0063015
-5.90844e-05
0.00629848
-5.86975e-05
-5.83152e-05
0.00633252
0.00632955
-5.69037e-05
0.0063266
-5.65238e-05
0.00632366
-5.61483e-05
0.00632074
-5.57772e-05
-5.54106e-05
0.00634852
-5.40438e-05
0.00634568
-5.36792e-05
0.00634285
-5.33189e-05
0.00634003
-5.29628e-05
-5.2611e-05
0.00636477
-5.12925e-05
0.00636203
-5.09424e-05
0.00635931
-5.05964e-05
0.0063566
-5.02545e-05
-4.99168e-05
0.00637855
-4.86481e-05
0.00637592
-4.83119e-05
0.0063733
-4.79796e-05
0.0063707
-4.76513e-05
-4.7327e-05
0.0063901
-4.61078e-05
0.00638758
-4.57848e-05
0.00638506
-4.54657e-05
0.00638256
-4.51504e-05
-4.48389e-05
0.00639966
-4.36676e-05
0.00639724
-4.33575e-05
0.00639482
-4.30511e-05
0.00639242
-4.27483e-05
-4.24492e-05
0.00640745
-4.13228e-05
0.00640512
-4.10252e-05
0.0064028
-4.07311e-05
0.00640049
-4.04405e-05
-4.01534e-05
0.00641367
-3.90681e-05
0.00641143
-3.87827e-05
0.0064092
-3.85006e-05
0.00640698
-3.82219e-05
-3.79466e-05
0.00641852
-3.68976e-05
0.00641637
-3.66242e-05
0.00641422
-3.63539e-05
0.00641208
-3.60869e-05
-3.58231e-05
0.00642218
-3.48053e-05
0.0064201
-3.45437e-05
0.00641804
-3.42852e-05
0.00641598
-3.40297e-05
-3.37773e-05
0.00642482
-3.2785e-05
0.00642281
-3.25352e-05
0.00642081
-3.22883e-05
0.00641883
-3.20443e-05
-3.18033e-05
0.00642658
-3.08307e-05
0.00642464
-3.05926e-05
0.0064227
-3.03573e-05
0.00642078
-3.01248e-05
-2.98951e-05
0.0064276
-2.89362e-05
0.00642572
-2.871e-05
0.00642385
-2.84863e-05
0.00642199
-2.82652e-05
-2.80468e-05
0.00642801
-2.70959e-05
0.00642618
-2.68814e-05
0.00642436
-2.66694e-05
0.00642256
-2.64599e-05
-2.62528e-05
0.00642792
-2.53041e-05
0.00642614
-2.51015e-05
0.00642437
-2.49013e-05
0.00642261
-2.47033e-05
-2.45077e-05
0.00642743
-2.35556e-05
0.00642569
-2.3365e-05
0.00642397
-2.31766e-05
0.00642225
-2.29903e-05
-2.28063e-05
0.00642662
-2.18456e-05
0.00642493
-2.16671e-05
0.00642324
-2.14906e-05
0.00642157
-2.13161e-05
-2.11437e-05
0.00642559
-2.01695e-05
0.00642393
-2.00032e-05
0.00642227
-1.98387e-05
0.00642063
-1.96762e-05
-1.95155e-05
0.00642439
-1.85231e-05
0.00642276
-1.83691e-05
0.00642114
-1.82169e-05
0.00641953
-1.80663e-05
-1.79174e-05
0.00642309
-1.69027e-05
0.00642148
-1.67611e-05
0.00641989
-1.66211e-05
0.0064183
-1.64826e-05
-1.63458e-05
0.00642174
-1.53047e-05
0.00642016
-1.51757e-05
0.00641858
-1.5048e-05
0.00641702
-1.49218e-05
-1.4797e-05
0.00642039
-1.37261e-05
0.00641882
-1.36097e-05
0.00641727
-1.34945e-05
0.00641573
-1.33806e-05
-1.32679e-05
0.00641907
-1.2164e-05
0.00641752
-1.20603e-05
0.00641599
-1.19576e-05
0.00641446
-1.18561e-05
-1.17558e-05
0.00641783
-1.06158e-05
0.00641629
-1.05249e-05
0.00641477
-1.04349e-05
0.00641326
-1.03459e-05
-1.02579e-05
0.00641668
-9.07927e-06
0.00641516
-9.0012e-06
0.00641365
-8.92394e-06
0.00641215
-8.84752e-06
-8.77195e-06
0.00641566
-7.55231e-06
0.00641414
-7.48716e-06
0.00641264
-7.42269e-06
0.00641115
-7.35891e-06
-7.29583e-06
0.00641477
-6.03305e-06
0.00641327
-5.98086e-06
0.00641177
-5.92922e-06
0.00641029
-5.87813e-06
-5.82761e-06
0.00641405
-4.51974e-06
0.00641255
-4.48057e-06
0.00641106
-4.4418e-06
0.00640959
-4.40345e-06
-4.36552e-06
0.0064135
-3.01079e-06
0.006412
-2.98466e-06
0.00641052
-2.95879e-06
0.00640905
-2.93321e-06
-2.9079e-06
0.00641312
-1.50469e-06
0.00641163
-1.49162e-06
0.00641015
-1.47868e-06
0.00640868
-1.46588e-06
-1.45323e-06
0.00641294
0.00641144
0.00640997
0.0064085
-0.000110576
0.00403883
0.000106581
-0.000113929
0.00415016
-0.000116644
0.00426402
-0.00011873
0.0043796
-0.000120202
0.0044961
-0.000121082
0.00461273
-0.000121394
0.00472875
-0.00012117
0.00484346
-0.000120444
0.0049562
-0.000119253
0.00506637
-0.000117637
0.00517342
-0.000115638
0.00527687
-0.000113299
0.0053763
-0.000110664
0.00547135
-0.000107776
0.00556173
-0.000104676
0.00564722
-0.000101406
0.00572765
-9.80053e-05
0.00580293
-9.45098e-05
0.00587302
-9.09538e-05
0.00593792
-8.7368e-05
0.00599769
-8.37805e-05
0.00605245
-8.02158e-05
0.00610233
-7.66951e-05
0.00614751
-7.32364e-05
0.00618819
-6.98544e-05
0.0062246
-6.6561e-05
0.00625698
-6.33651e-05
0.00628558
-6.02728e-05
0.00631067
-5.72881e-05
0.00633252
-5.44128e-05
0.00635138
-5.16467e-05
0.00636752
-4.89883e-05
0.00638119
-4.64345e-05
0.00639264
-4.39814e-05
0.0064021
-4.1624e-05
0.0064098
-3.93569e-05
0.00641593
-3.71742e-05
0.00642069
-3.50699e-05
0.00642428
-3.30377e-05
0.00642684
-3.10715e-05
0.00642853
-2.91651e-05
0.00642949
-2.73127e-05
0.00642985
-2.55089e-05
0.00642971
-2.37483e-05
0.00642918
-2.2026e-05
0.00642833
-2.03376e-05
0.00642726
-1.86788e-05
0.00642604
-1.70458e-05
0.00642471
-1.54351e-05
0.00642334
-1.38437e-05
0.00642197
-1.22688e-05
0.00642063
-1.07077e-05
0.00641937
-9.15814e-06
0.00641822
-7.61813e-06
0.00641718
-6.08576e-06
0.00641629
-4.55931e-06
0.00641556
-3.03718e-06
0.00641501
-1.51789e-06
0.00641463
0.00641444
-0.000109679
0.0040428
0.000105707
-0.000113016
0.00415349
-0.00011572
0.00426672
-0.000117801
0.00438168
-0.000119272
0.00449757
-0.000120156
0.00461361
-0.000120477
0.00472907
-0.000120265
0.00484325
-0.000119555
0.00495549
-0.000118383
0.0050652
-0.000116789
0.00517183
-0.000114815
0.0052749
-0.000112502
0.00537399
-0.000109895
0.00546874
-0.000107034
0.00555887
-0.000103964
0.00564414
-0.000100723
0.00572441
-9.73506e-05
0.00579956
-9.38834e-05
0.00586955
-9.0355e-05
0.00593439
-8.67959e-05
0.00599413
-8.32341e-05
0.00604889
-7.96938e-05
0.00609879
-7.61964e-05
0.00614401
-7.27597e-05
0.00618475
-6.93985e-05
0.00622124
-6.61247e-05
0.0062537
-6.29471e-05
0.0062824
-5.98722e-05
0.0063076
-5.69038e-05
0.00632955
-5.4044e-05
0.00634852
-5.12926e-05
0.00636477
-4.86482e-05
0.00637855
-4.61079e-05
0.0063901
-4.36677e-05
0.00639966
-4.13229e-05
0.00640745
-3.90682e-05
0.00641367
-3.68977e-05
0.00641852
-3.48054e-05
0.00642218
-3.27851e-05
0.00642482
-3.08307e-05
0.00642658
-2.89363e-05
0.0064276
-2.70959e-05
0.00642801
-2.53041e-05
0.00642792
-2.35557e-05
0.00642743
-2.18456e-05
0.00642662
-2.01695e-05
0.00642559
-1.85232e-05
0.00642439
-1.69027e-05
0.00642309
-1.53048e-05
0.00642174
-1.37261e-05
0.00642039
-1.2164e-05
0.00641907
-1.06158e-05
0.00641783
-9.07928e-06
0.00641668
-7.55232e-06
0.00641566
-6.03305e-06
0.00641477
-4.51974e-06
0.00641405
-3.01079e-06
0.0064135
-1.50469e-06
0.00641312
0.00641294
-0.000108794
0.00404675
0.000104842
-0.000112114
0.00415681
-0.000114807
0.00426942
-0.000116882
0.00438375
-0.000118353
0.00449904
-0.00011924
0.0046145
-0.00011957
0.0047294
-0.000119371
0.00484305
-0.000118676
0.0049548
-0.000117524
0.00506405
-0.000115952
0.00517026
-0.000114001
0.00527295
-0.000111714
0.0053717
-0.000109134
0.00546616
-0.000106301
0.00555604
-0.000103259
0.0056411
-0.000100047
0.0057212
-9.67031e-05
0.00579621
-9.32639e-05
0.00586611
-8.97627e-05
0.00593089
-8.62301e-05
0.0059906
-8.26936e-05
0.00604535
-7.91776e-05
0.00609527
-7.57032e-05
0.00614054
-7.22883e-05
0.00618134
-6.89477e-05
0.00621789
-6.56932e-05
0.00625045
-6.25339e-05
0.00627924
-5.94761e-05
0.00630454
-5.65239e-05
0.0063266
-5.36794e-05
0.00634568
-5.09425e-05
0.00636203
-4.8312e-05
0.00637592
-4.57849e-05
0.00638758
-4.33576e-05
0.00639724
-4.10253e-05
0.00640512
-3.87828e-05
0.00641143
-3.66242e-05
0.00641637
-3.45438e-05
0.0064201
-3.25353e-05
0.00642281
-3.05927e-05
0.00642463
-2.871e-05
0.00642572
-2.68815e-05
0.00642618
-2.51016e-05
0.00642614
-2.33651e-05
0.00642569
-2.16672e-05
0.00642493
-2.00032e-05
0.00642392
-1.83692e-05
0.00642276
-1.67612e-05
0.00642148
-1.51757e-05
0.00642016
-1.36097e-05
0.00641882
-1.20603e-05
0.00641752
-1.05249e-05
0.00641629
-9.00121e-06
0.00641516
-7.48717e-06
0.00641414
-5.98087e-06
0.00641327
-4.48057e-06
0.00641255
-2.98466e-06
0.006412
-1.49162e-06
0.00641163
0.00641144
-0.000107918
0.00405068
0.000103989
-0.000111223
0.00416012
-0.000113905
0.0042721
-0.000115974
0.00438582
-0.000117444
0.00450051
-0.000118336
0.00461539
-0.000118674
0.00472974
-0.000118487
0.00484286
-0.000117808
0.00495412
-0.000116674
0.00506291
-0.000115123
0.00516871
-0.000113197
0.00527102
-0.000110935
0.00536944
-0.000108381
0.00546361
-0.000105576
0.00555323
-0.000102562
0.00563809
-9.93784e-05
0.00571801
-9.60628e-05
0.0057929
-9.26513e-05
0.0058627
-8.91771e-05
0.00592741
-8.56706e-05
0.0059871
-8.21592e-05
0.00604184
-7.86672e-05
0.00609178
-7.52156e-05
0.00613708
-7.18222e-05
0.00617794
-6.8502e-05
0.00621457
-6.52667e-05
0.00624721
-6.21254e-05
0.0062761
-5.90846e-05
0.0063015
-5.61484e-05
0.00632366
-5.3319e-05
0.00634285
-5.05965e-05
0.00635931
-4.79797e-05
0.0063733
-4.54658e-05
0.00638506
-4.30511e-05
0.00639482
-4.07312e-05
0.0064028
-3.85007e-05
0.0064092
-3.6354e-05
0.00641422
-3.42852e-05
0.00641804
-3.22884e-05
0.00642081
-3.03574e-05
0.0064227
-2.84863e-05
0.00642385
-2.66694e-05
0.00642436
-2.49013e-05
0.00642437
-2.31766e-05
0.00642397
-2.14906e-05
0.00642324
-1.98388e-05
0.00642227
-1.82169e-05
0.00642113
-1.66211e-05
0.00641989
-1.50481e-05
0.00641858
-1.34945e-05
0.00641727
-1.19577e-05
0.00641599
-1.04349e-05
0.00641477
-8.92395e-06
0.00641365
-7.4227e-06
0.00641264
-5.92923e-06
0.00641177
-4.4418e-06
0.00641106
-2.9588e-06
0.00641052
-1.47868e-06
0.00641015
0.00640996
-0.000107053
0.000103145
-0.000110342
-0.000113014
-0.000115077
-0.000116547
-0.000117442
-0.000117788
-0.000117613
-0.000116949
-0.000115834
-0.000114305
-0.000112401
-0.000110165
-0.000107637
-0.00010486
-0.000101873
-9.87175e-05
-9.54297e-05
-9.20455e-05
-8.8598e-05
-8.51174e-05
-8.16309e-05
-7.81626e-05
-7.47335e-05
-7.13615e-05
-6.80614e-05
-6.48451e-05
-6.17216e-05
-5.86976e-05
-5.57773e-05
-5.29629e-05
-5.02546e-05
-4.76513e-05
-4.51505e-05
-4.27484e-05
-4.04405e-05
-3.82219e-05
-3.60869e-05
-3.40297e-05
-3.20444e-05
-3.01248e-05
-2.82652e-05
-2.64599e-05
-2.47033e-05
-2.29904e-05
-2.13161e-05
-1.96762e-05
-1.80663e-05
-1.64827e-05
-1.49218e-05
-1.33806e-05
-1.18561e-05
-1.03459e-05
-8.84753e-06
-7.35891e-06
-5.87814e-06
-4.40345e-06
-2.93321e-06
-1.46588e-06
0.00158434
0.000103015
0.0015879
0.000102153
0.00159144
0.0001013
0.00159497
0.000100458
9.96262e-05
0.00157707
9.95018e-05
0.00158057
9.86524e-05
0.00158406
9.78132e-05
0.00158753
9.69839e-05
9.61646e-05
0.00156948
9.60319e-05
0.00157294
9.5197e-05
0.00157638
9.43719e-05
0.00157981
9.35567e-05
9.27512e-05
0.00156163
9.25971e-05
0.00156505
9.17777e-05
0.00156845
9.09681e-05
0.00157184
9.01681e-05
8.93776e-05
0.00155354
8.9189e-05
0.00155693
8.83865e-05
0.00156031
8.75936e-05
0.00156367
8.681e-05
8.60359e-05
0.00154527
8.58001e-05
0.00154864
8.50157e-05
0.00155199
8.42407e-05
0.00155533
8.34749e-05
8.27183e-05
0.00153685
8.24231e-05
0.00154021
8.16582e-05
0.00154355
8.09024e-05
0.00154687
8.01556e-05
7.94178e-05
0.00152497
7.98044e-05
0.00152834
7.90513e-05
0.00153169
7.83073e-05
0.00153502
7.7572e-05
0.00153833
7.68456e-05
0.00151639
7.64094e-05
0.00151977
7.56788e-05
0.00152312
7.49568e-05
0.00152645
7.42434e-05
7.35386e-05
0.00150781
7.30067e-05
0.00151119
7.22998e-05
0.00151454
7.16013e-05
0.00151788
7.09111e-05
7.02291e-05
0.00149925
6.95912e-05
0.00150264
6.89094e-05
0.00150601
6.82357e-05
0.00150935
6.757e-05
6.69123e-05
0.00149078
6.61587e-05
0.00149418
6.55033e-05
0.00149756
6.48557e-05
0.00150092
6.42159e-05
6.35836e-05
0.00148243
6.27053e-05
0.00148585
6.20777e-05
0.00148925
6.14576e-05
0.00149262
6.08448e-05
6.02394e-05
0.00147424
5.9228e-05
0.00147769
5.86295e-05
0.00148111
5.80381e-05
0.0014845
5.74537e-05
5.68764e-05
0.00146628
5.57242e-05
0.00146975
5.51561e-05
0.00147319
5.45947e-05
0.00147661
5.404e-05
5.34919e-05
0.00145856
5.21921e-05
0.00146207
5.16555e-05
0.00146553
5.11254e-05
0.00146897
5.06015e-05
5.00839e-05
0.00145115
4.86304e-05
0.00145468
4.81266e-05
0.00145818
4.76288e-05
0.00146164
4.7137e-05
4.66511e-05
0.00144409
4.50383e-05
0.00144764
4.45685e-05
0.00145117
4.41042e-05
0.00145466
4.36456e-05
4.31923e-05
0.00143377
4.18558e-05
0.0014374
4.14158e-05
0.00144098
4.0981e-05
0.00144454
4.05513e-05
0.00144806
4.01269e-05
3.97074e-05
0.00142747
3.81667e-05
0.00143113
3.77632e-05
0.00143474
3.73644e-05
0.00143832
3.69704e-05
0.00144187
3.65812e-05
3.61965e-05
0.00142162
3.44476e-05
0.00142531
3.40815e-05
0.00142895
3.37198e-05
0.00143256
3.33623e-05
0.00143613
3.30092e-05
0.00141626
3.06999e-05
0.00141997
3.03721e-05
0.00142364
3.00483e-05
0.00142728
2.97283e-05
2.94121e-05
0.00141142
2.69256e-05
0.00141515
2.6637e-05
0.00141885
2.63518e-05
0.00142251
2.607e-05
2.57916e-05
0.00140711
2.3127e-05
0.00141087
2.28783e-05
0.00141459
2.26325e-05
0.00141827
2.23897e-05
2.21497e-05
0.00140338
1.9307e-05
0.00140716
1.90987e-05
0.0014109
1.8893e-05
0.0014146
1.86896e-05
1.84888e-05
0.00140024
1.54686e-05
0.00140403
1.53013e-05
0.00140779
1.51361e-05
0.00141151
1.49728e-05
1.48114e-05
0.0013977
1.16151e-05
0.00140151
1.14892e-05
0.00140528
1.13649e-05
0.00140901
1.12421e-05
1.11207e-05
0.00139578
7.75004e-06
0.00139961
7.66598e-06
0.00140339
7.58293e-06
0.00140713
7.50087e-06
7.41979e-06
0.0013945
3.87727e-06
0.00139833
3.83518e-06
0.00140212
3.7936e-06
0.00140587
3.75252e-06
3.71192e-06
0.00139386
0.00139769
0.00140148
0.00140524
)
;

boundaryField
{
    inlet
    {
        type            calculated;
        value           nonuniform 0();
    }
    outlet
    {
        type            calculated;
        value           nonuniform 0();
    }
    cylinder
    {
        type            calculated;
        value           nonuniform 0();
    }
    top
    {
        type            symmetryPlane;
        value           uniform 0;
    }
    bottom
    {
        type            symmetryPlane;
        value           uniform 0;
    }
    defaultFaces
    {
        type            empty;
        value           nonuniform 0();
    }
    procBoundary50to49
    {
        type            processor;
        value           nonuniform List<scalar> 
185
(
-0.00138998
-0.00139063
-0.00139192
-0.00139385
-0.0013964
-0.00139956
-0.00140332
-0.00140764
-0.00141251
-0.00141791
-0.00142378
-0.00143012
-4.55127e-05
-0.00144049
-0.00144759
-0.00145503
-0.00146277
-0.00147077
-0.00147897
-0.00148735
-0.00149584
-0.00150441
-0.001513
-0.00152157
-8.31962e-05
-0.00153348
-0.00154188
-0.00155014
-0.00155819
-0.00156601
-0.00157356
-0.00158078
-0.00403484
-0.0041468
-0.0042613
-0.00437751
-0.00449462
-0.00461185
-0.00472844
-0.00484369
-0.00495693
-0.00506756
-0.00517504
-0.00527887
-0.00537864
-0.00547398
-0.00556462
-0.00565032
-0.00573092
-0.00580633
-0.00587651
-0.00594147
-0.00600128
-0.00605604
-0.00610589
-0.00615103
-0.00619165
-0.00622798
-0.00626027
-0.00628878
-0.00631377
-0.0063355
-5.7288e-05
-0.00635138
-0.00636752
-0.00638119
-0.00639264
-0.0064021
-0.0064098
-0.00641593
-0.0064207
-0.00642428
-0.00642684
-0.00642853
-0.00642949
-0.00642985
-0.00642971
-0.00642918
-0.00642833
-0.00642727
-0.00642604
-0.00642471
-0.00642334
-0.00642197
-0.00642063
-0.00641937
-0.00641822
-0.00641718
-0.00641629
-0.00641556
-0.00641501
-0.00641463
-0.00641444
-0.00403484
-0.0041468
-0.0042613
-0.00437751
-0.00449462
-0.00461185
-0.00472844
-0.00484369
-0.00495693
-0.00506756
-0.00517504
-0.00527887
-0.00537864
-0.00547398
-0.00556462
-0.00565031
-0.00573092
-0.00580633
-0.00587651
-0.00594147
-0.00600128
-0.00605604
-0.00610589
-0.00615103
-0.00619165
-0.00622798
-0.00626027
-0.00628878
-0.00631377
-0.0063355
-0.00635426
-0.00637029
-0.00638385
-0.0063952
-0.00640456
-0.00641215
-0.00641819
-0.00642288
-0.00642638
-0.00642887
-0.0064305
-0.0064314
-0.0064317
-0.00643151
-0.00643094
-0.00643006
-0.00642895
-0.0064277
-0.00642634
-0.00642495
-0.00642356
-0.00642221
-0.00642094
-0.00641977
-0.00641872
-0.00641783
-0.00641709
-0.00641653
-0.00641615
-0.00641596
-0.00158078
-0.00157356
-0.00156601
-0.00155819
-0.00155014
-0.00154188
-0.00153348
-8.31972e-05
-0.00152157
-0.001513
-0.00150441
-0.00149584
-0.00148735
-0.00147897
-0.00147077
-0.00146277
-0.00145503
-0.00144759
-0.00144049
-4.55138e-05
-0.00143012
-0.00142378
-0.00141791
-0.00141251
-0.00140764
-0.00140332
-0.00139956
-0.0013964
-0.00139385
-0.00139192
-0.00139063
-0.00138998
)
;
    }
    procBoundary50to51
    {
        type            processor;
        value           nonuniform List<scalar> 
185
(
0.00140895
0.00140958
0.00141083
0.0014127
0.00141518
0.00141826
0.00142192
0.00142613
0.00143087
3.26592e-05
0.00143967
0.00144538
0.00145154
0.00145812
0.00146508
0.00147238
0.00147999
0.00148787
0.00149597
0.00150425
0.00151267
0.00152119
0.00152975
7.61267e-05
0.00154162
0.00155017
0.00155865
0.00156701
0.00157521
0.00158322
0.00159099
0.00159849
0.00405459
0.00416341
0.00427477
0.00438789
0.00450198
0.00461629
0.00473008
0.00484269
0.00495346
0.0050618
0.000115003
0.00516567
0.00526724
0.00536499
0.00545858
0.0055477
0.00563214
0.00571173
0.00578635
0.00585596
0.00592054
0.00598016
0.00603489
0.00608487
0.00613025
0.00617122
0.00620799
0.0062408
0.00626987
0.00629547
0.00631784
0.00633723
0.00635391
0.00636811
0.00638007
0.00639003
0.0063982
0.00640477
0.00640996
0.00641393
0.00641685
0.00641888
0.00642014
0.00642076
0.00642087
0.00642055
0.0064199
0.00641901
0.00641793
0.00641673
0.00641547
0.0064142
0.00641295
0.00641176
0.00641066
0.00640968
0.00640883
0.00640813
0.00640759
0.00640723
0.00640705
0.00405459
0.00416341
0.00427477
0.00438789
0.00450198
0.00461628
0.00473008
0.00484269
0.00495346
0.0050618
0.00516718
0.00526912
0.0053672
0.00546108
0.00555045
0.0056351
0.00571486
0.00578961
0.00585931
0.00592397
0.00598361
0.00603835
0.00608831
0.00613366
0.00617457
0.00621127
0.006244
0.00627298
0.00629848
0.00632074
0.00634003
0.0063566
0.0063707
0.00638256
0.00639242
0.00640049
0.00640698
0.00641208
0.00641598
0.00641883
0.00642078
0.00642199
0.00642256
0.00642261
0.00642225
0.00642157
0.00642063
0.00641952
0.0064183
0.00641702
0.00641573
0.00641446
0.00641326
0.00641215
0.00641115
0.00641029
0.00640959
0.00640905
0.00640868
0.0064085
0.00159849
0.00159099
0.00158322
0.00157521
0.00156701
0.00155865
0.00155017
0.00154162
7.61277e-05
0.00152975
0.00152118
0.00151267
0.00150425
0.00149597
0.00148787
0.00147999
0.00147238
0.00146508
0.00145812
0.00145154
0.00144538
0.00143967
3.26603e-05
0.00143087
0.00142613
0.00142191
0.00141826
0.00141518
0.0014127
0.00141083
0.00140958
0.00140895
)
;
    }
}


// ************************************************************************* //
