/*--------------------------------*- C++ -*----------------------------------*\
  =========                 |
  \\      /  F ield         | OpenFOAM: The Open Source CFD Toolbox
   \\    /   O peration     | Website:  https://openfoam.org
    \\  /    A nd           | Version:  7
     \\/     M anipulation  |
\*---------------------------------------------------------------------------*/
FoamFile
{
    version     2.0;
    format      ascii;
    class       volScalarField;
    location    "70";
    object      p;
}
// * * * * * * * * * * * * * * * * * * * * * * * * * * * * * * * * * * * * * //

dimensions      [0 2 -2 0 0 0 0];

internalField   nonuniform List<scalar> 
183
(
-0.0983147
-0.105425
-0.0931853
-0.0834076
-0.128319
-0.113543
-0.100336
-0.0882604
-0.123183
-0.107752
-0.0940065
-0.135193
-0.117013
-0.100912
-0.150683
-0.128869
-0.109739
-0.0929221
-0.144653
-0.121468
-0.10129
-0.137656
-0.112943
-0.0916008
-0.160247
-0.129663
-0.103265
-0.0806182
-0.152967
-0.120583
-0.0924127
-0.143435
-0.110109
-0.0803213
-0.129581
-0.0973887
-0.0667444
-0.0396721
-0.107813
-0.0805544
-0.0509516
-0.0231165
-0.0562952
-0.0312787
-0.00439968
-0.0195432
-0.00471497
0.0179352
0.034204
0.0335439
0.0465887
0.0880243
0.0860805
0.0972782
0.140943
0.137711
0.192597
0.188086
0.242635
0.290715
0.305334
0.25898
0.2108
0.20654
0.161147
0.158168
0.110385
0.108692
0.120177
0.0588849
0.0584721
0.0717623
0.0078732
0.0228963
0.0459151
-0.0260738
-0.000768452
0.0265603
-0.0747989
-0.0473472
-0.017388
0.0108576
-0.0935024
-0.0610654
-0.0301113
-0.00276289
-0.104189
-0.0706724
-0.0407174
-0.0149842
-0.110578
-0.078154
-0.0500121
-0.0260347
-0.114857
-0.0844376
-0.0582882
-0.035978
-0.0898794
-0.0656398
-0.0448481
-0.0946008
-0.072112
-0.0526948
-0.0986539
-0.0777546
-0.0595904
-0.0437862
-0.0826329
-0.0656218
-0.0507256
-0.070878
-0.0568395
-0.0445067
-0.0622402
-0.0506141
-0.0401339
-0.0558112
-0.045316
-0.0371522
-0.0508859
-0.0870777
-0.0795351
-0.060449
-0.0509954
-0.0393051
-0.0325219
-0.0255862
-0.0181487
-0.0132532
-0.0108215
-0.00786848
-0.0750356
-0.0718584
-0.0549293
-0.0467145
-0.0359527
-0.029956
-0.0237128
-0.0163817
-0.0115847
-0.009656
-0.00711385
-0.00279631
0.000678577
0.00347281
0.0050491
0.00574089
0.00787572
0.0106794
0.0109037
0.00996248
0.0122125
0.0273783
-0.0319398
-0.0338428
-0.0208138
-0.0165205
-0.0104879
-0.00514895
0.00256186
0.00654859
0.0103111
0.0144425
0.0170801
0.0196762
0.0214027
0.021798
0.0222942
0.0237266
0.0257884
0.0252484
0.0244101
0.0248024
0.0265961
-0.0432091
-0.0411762
-0.0263216
-0.0209705
-0.013724
-0.00765155
0.000252827
0.0045177
)
;

boundaryField
{
    inlet
    {
        type            zeroGradient;
    }
    outlet
    {
        type            fixedValue;
        value           nonuniform 0();
    }
    cylinder
    {
        type            zeroGradient;
    }
    top
    {
        type            symmetryPlane;
    }
    bottom
    {
        type            symmetryPlane;
    }
    defaultFaces
    {
        type            empty;
    }
    procBoundary11to10
    {
        type            processor;
        value           nonuniform List<scalar> 
123
(
-0.0768082
-0.0680027
-0.0817765
-0.0768082
-0.0705893
-0.0866225
-0.0817765
-0.0739573
-0.0866225
-0.0781002
-0.0836942
-0.0781002
-0.0683138
-0.0836942
-0.0731478
-0.0731478
-0.061209
-0.0683138
-0.061209
-0.0478237
-0.0683138
-0.0546766
-0.0546766
-0.0166443
0.0011479
0.0011479
0.0205288
0.0205288
0.041989
0.041989
0.0667773
0.0667773
0.114939
0.14702
0.14702
0.195487
0.236863
0.236863
0.283714
0.336507
0.349522
0.298572
0.253455
0.253455
0.214283
0.167796
0.167796
0.138322
0.0923842
0.0923842
0.0704939
0.0704939
0.0519817
0.0519817
0.0354884
0.0354884
0.0204529
0.0204529
0.00671284
0.00671284
-0.00576226
-0.00576226
-0.0169906
-0.0169906
-0.0270171
-0.0270171
-0.0359172
-0.0359172
-0.0214063
-0.0300171
-0.0300171
-0.0376705
-0.0376705
-0.026264
-0.0337038
-0.0337038
-0.0239672
-0.0302865
-0.0302865
-0.0229518
-0.0625778
-0.0639252
-0.0492928
-0.0422826
-0.0324183
-0.0272703
-0.0218132
-0.0145693
-0.00982648
-0.00845004
-0.00638713
-0.00205717
0.00155721
0.0043976
0.00583253
0.00627045
0.00847857
0.0115744
0.0116665
0.0104847
0.0130305
0.0281815
-0.0203034
-0.026338
-0.0152381
-0.0119159
-0.00715422
-0.00264044
0.00490165
0.00862918
0.0119824
0.0159644
0.0184664
0.0209727
0.0226144
0.0227406
0.0229769
0.0244522
0.0267139
0.0260108
0.0248524
0.0252645
0.0252645
)
;
    }
    procBoundary11to12
    {
        type            processor;
        value           nonuniform List<scalar> 
116
(
-0.112678
-0.122038
-0.109037
-0.109037
-0.148257
-0.132502
-0.118359
-0.118359
-0.144833
-0.144833
-0.15996
-0.140495
-0.140495
-0.179126
-0.155774
-0.155774
-0.175608
-0.175608
-0.171325
-0.171325
-0.199109
-0.166243
-0.166243
-0.195085
-0.195085
-0.188821
-0.188821
-0.178052
-0.178052
-0.158929
-0.158929
-0.125938
-0.072823
-0.072823
-0.0201507
-0.0201507
0.00702622
0.00702622
-0.0427367
-0.0427367
-0.0929915
-0.12293
-0.12293
-0.138919
-0.138919
-0.146481
-0.146481
-0.149587
-0.149587
-0.15062
-0.118074
-0.118074
-0.120647
-0.120647
-0.122721
-0.122721
-0.124353
-0.102085
-0.102085
-0.104948
-0.086822
-0.086822
-0.0903944
-0.0754423
-0.0754423
-0.0794009
-0.0669994
-0.0669994
-0.0709592
-0.059848
-0.059848
-0.0641164
-0.0986652
-0.0869377
-0.0658611
-0.055164
-0.0425227
-0.0349801
-0.0274298
-0.0198729
-0.0148285
-0.0119375
-0.00864599
-0.00355495
-0.00355495
-0.000187291
0.00258227
0.00428234
0.0051951
0.00726263
0.00981612
0.0101567
0.00942926
0.0114173
0.00865496
0.0129245
0.0157062
0.0183981
0.0202248
0.0208681
0.021596
0.0229951
0.0248954
0.0245072
0.0239469
0.0243241
0.0258438
-0.0540849
-0.0483224
-0.031792
-0.0253244
-0.0168957
-0.010158
-0.00203216
0.00865496
0.002541
)
;
    }
}


// ************************************************************************* //
