/*--------------------------------*- C++ -*----------------------------------*\
  =========                 |
  \\      /  F ield         | OpenFOAM: The Open Source CFD Toolbox
   \\    /   O peration     | Website:  https://openfoam.org
    \\  /    A nd           | Version:  7
     \\/     M anipulation  |
\*---------------------------------------------------------------------------*/
FoamFile
{
    version     2.0;
    format      ascii;
    class       volScalarField;
    location    "40";
    object      p;
}
// * * * * * * * * * * * * * * * * * * * * * * * * * * * * * * * * * * * * * //

dimensions      [0 2 -2 0 0 0 0];

internalField   nonuniform List<scalar> 
36
(
-0.120792
-0.121529
-0.122934
-0.107338
-0.109411
-0.111693
-0.114387
-0.116666
-0.114969
-0.108649
-0.0717269
-0.0680111
-0.0649819
-0.062683
-0.0611393
-0.0603643
-0.114969
-0.108649
-0.101597
-0.0943612
-0.087352
-0.0809423
-0.0753176
-0.0705703
-0.0667497
-0.0638774
-0.0619618
-0.0610041
-0.116666
-0.114387
-0.111693
-0.109411
-0.107338
-0.122934
-0.121529
-0.120792
)
;

boundaryField
{
    inlet
    {
        type            zeroGradient;
    }
    outlet
    {
        type            fixedValue;
        value           nonuniform 0();
    }
    cylinder
    {
        type            zeroGradient;
    }
    top
    {
        type            symmetryPlane;
    }
    bottom
    {
        type            symmetryPlane;
    }
    defaultFaces
    {
        type            empty;
    }
    procBoundary43to41
    {
        type            processor;
        value           nonuniform List<scalar> 6(-0.131213 -0.121968 -0.131213 -0.121968 -0.112055 -0.102274);
    }
    procBoundary43to42
    {
        type            processor;
        value           nonuniform List<scalar> 
33
(
-0.139861
-0.140715
-0.142318
-0.124878
-0.124878
-0.127162
-0.129551
-0.132237
-0.134198
-0.101597
-0.0753175
-0.0705703
-0.0667496
-0.0638773
-0.0619618
-0.061004
-0.0930793
-0.0848783
-0.0778251
-0.071956
-0.0672812
-0.0637949
-0.0614832
-0.0603315
-0.134198
-0.132237
-0.129551
-0.127162
-0.124878
-0.124878
-0.142318
-0.140715
-0.139861
)
;
    }
    procBoundary43to44
    {
        type            processor;
        value           nonuniform List<scalar> 
35
(
-0.103765
-0.104401
-0.105622
-0.105622
-0.0918645
-0.0937485
-0.0958889
-0.0984855
-0.100859
-0.10003
-0.0959528
-0.0760557
-0.0592641
-0.0586597
-0.10003
-0.0959528
-0.091147
-0.086015
-0.0808806
-0.0760558
-0.071727
-0.0680111
-0.064982
-0.0626831
-0.0611393
-0.0603644
-0.100859
-0.0984855
-0.0958889
-0.0937486
-0.0918646
-0.105622
-0.105622
-0.104401
-0.103765
)
;
    }
    procBoundary43to45
    {
        type            processor;
        value           nonuniform List<scalar> 4(-0.067335 -0.0645444 -0.0622353 -0.0604633);
    }
}


// ************************************************************************* //
