/*--------------------------------*- C++ -*----------------------------------*\
  =========                 |
  \\      /  F ield         | OpenFOAM: The Open Source CFD Toolbox
   \\    /   O peration     | Website:  https://openfoam.org
    \\  /    A nd           | Version:  7
     \\/     M anipulation  |
\*---------------------------------------------------------------------------*/
FoamFile
{
    version     2.0;
    format      ascii;
    class       volVectorField;
    location    "15";
    object      U;
}
// * * * * * * * * * * * * * * * * * * * * * * * * * * * * * * * * * * * * * //

dimensions      [0 1 -1 0 0 0 0];

internalField   nonuniform List<vector> 
183
(
(-0.48456 0.00168914 -2.32338e-21)
(-0.454591 -0.00540853 -2.29399e-22)
(-0.465885 0.00252624 2.80733e-21)
(-0.433212 -0.0173556 1.3129e-21)
(-0.429979 0.00301511 5.85138e-21)
(-0.392453 -0.0292568 -9.44085e-22)
(-0.379106 0.00294731 -1.14609e-22)
(-0.335216 -0.0410466 2.07167e-21)
(-0.316146 0.0023092 -6.71517e-21)
(-0.26508 -0.0526464 2.04801e-21)
(-0.24419 0.00103021 -3.29849e-21)
(-0.185722 -0.0639813 -6.72709e-21)
(-0.166189 -0.0011194 3.05592e-20)
(-0.100436 -0.07503 -9.73955e-21)
(-0.0847322 -0.00396848 -6.2063e-21)
(-0.0118899 -0.0856863 -1.03006e-20)
(-0.00192933 -0.0074235 3.22109e-20)
(0.0778403 -0.0956924 -1.53557e-20)
(0.0805994 -0.0112493 -9.60999e-21)
(0.167293 -0.105041 1.47877e-20)
(0.161797 -0.0151662 -1.92786e-20)
(0.255516 -0.113832 2.33777e-20)
(0.241188 -0.0193125 2.06712e-20)
(0.341966 -0.122015 -1.04983e-20)
(0.31877 -0.0236924 -1.90397e-20)
(0.426358 -0.129557 1.07542e-20)
(0.394906 -0.0282685 -1.88075e-20)
(0.508551 -0.136402 -5.53888e-21)
(0.470192 -0.0329708 -8.62354e-21)
(0.588432 -0.142464 4.45112e-20)
(0.545288 -0.0376681 -1.51792e-20)
(0.665823 -0.147633 1.30806e-20)
(0.620724 -0.0421648 4.49873e-20)
(0.740388 -0.151755 -1.58292e-20)
(0.696704 -0.0462551 -4.91457e-21)
(0.811598 -0.154592 -3.45537e-20)
(0.772933 -0.049727 2.71394e-20)
(0.878725 -0.156064 -2.38434e-20)
(0.848469 -0.0518771 -5.9265e-21)
(0.940837 -0.156697 2.95428e-20)
(0.921602 -0.0516813 2.91819e-20)
(0.996771 -0.155174 -3.86983e-20)
(1.11209 -0.0548084 0)
(1.13877 -0.137677 0)
(1.1171 -0.192325 0)
(1.25968 -0.0561129 0)
(1.25501 -0.137165 0)
(1.21332 -0.192731 0)
(1.28728 -0.0524075 0)
(1.27368 -0.116621 0)
(1.23071 -0.159029 0)
(1.27433 -0.0467413 0)
(1.26025 -0.0983182 0)
(1.22357 -0.136574 0)
(1.25449 -0.0420142 0)
(1.2414 -0.083878 0)
(1.21161 -0.117247 0)
(1.23616 -0.0374392 0)
(1.22393 -0.0716188 0)
(1.19952 -0.100037 0)
(1.22031 -0.0333563 0)
(1.2087 -0.0614578 0)
(1.18811 -0.0855906 0)
(1.20612 -0.0294229 0)
(1.19513 -0.0528287 0)
(1.1774 -0.0733608 0)
(1.19329 -0.0257418 0)
(1.1831 -0.0455363 0)
(1.16766 -0.0629751 0)
(1.18199 -0.0222753 0)
(1.17271 -0.0392639 0)
(1.15909 -0.0540593 0)
(1.17188 -0.0190992 0)
(1.16354 -0.0338046 0)
(1.15138 -0.046374 0)
(1.16266 -0.0161886 0)
(1.15522 -0.0289409 0)
(1.14431 -0.0396535 0)
(1.15425 -0.0136577 0)
(1.14767 -0.0246496 0)
(1.13788 -0.0337761 0)
(1.147 -0.0113526 0)
(1.14115 -0.02076 0)
(1.13233 -0.028524 0)
(1.14088 -0.00939593 0)
(1.13563 -0.0173132 0)
(1.1276 -0.0238442 0)
(1.13105 -0.0140984 0)
(1.12363 -0.0195175 0)
(1.12699 -0.0111768 0)
(1.12013 -0.0155451 0)
(1.12382 -0.00847245 0)
(1.11741 -0.0118295 0)
(1.1215 -0.0059273 0)
(1.11541 -0.00830233 0)
(1.12007 -0.00354686 0)
(1.11416 -0.00494728 0)
(1.11915 -0.00112561 0)
(1.11338 -0.00160312 0)
(1.11185 0.0557346 0)
(1.25916 0.0569449 0)
(1.28683 0.0528146 0)
(1.27386 0.0470612 0)
(1.25417 0.0420959 0)
(1.23594 0.0375042 0)
(1.22012 0.0332946 0)
(1.20583 0.0294136 0)
(1.19328 0.0256659 0)
(1.18159 0.0221634 0)
(1.17128 0.0190044 0)
(1.16189 0.0160503 0)
(1.15381 0.0135815 0)
(1.1468 0.0112645 0)
(1.1408 0.00934066 0)
(1.13546 0.00752683 0)
(1.13093 0.00598507 0)
(1.12751 0.00453676 0)
(1.12519 0.00319468 0)
(1.12347 0.00187317 0)
(1.1224 0.000620839 0)
(1.13776 0.137783 0)
(1.254 0.137122 0)
(1.27284 0.116455 0)
(1.25953 0.0982035 0)
(1.24092 0.0836993 0)
(1.22361 0.0715056 0)
(1.20842 0.0612802 0)
(1.1948 0.0527017 0)
(1.18298 0.0453572 0)
(1.17226 0.039067 0)
(1.16292 0.0336365 0)
(1.15451 0.0287865 0)
(1.14727 0.0245826 0)
(1.14099 0.020702 0)
(1.13557 0.0172718 0)
(1.13074 0.0140629 0)
(1.12663 0.0111888 0)
(1.12351 0.00849926 0)
(1.12135 0.00597675 0)
(1.11977 0.00352839 0)
(1.1188 0.00116862 0)
(0.921649 0.0530357 -2.33236e-20)
(0.995706 0.155435 4.01599e-20)
(0.848572 0.0532538 -6.02562e-21)
(0.939736 0.156949 -2.61151e-20)
(0.773006 0.0511271 -1.26082e-20)
(0.877564 0.156316 1.78153e-20)
(0.696675 0.0477021 -3.31958e-20)
(0.810349 0.154862 3.29101e-20)
(0.620543 0.0436533 6.8082e-21)
(0.739025 0.152044 -2.21904e-21)
(0.544927 0.0391905 -2.81613e-20)
(0.664325 0.147947 1.4406e-21)
(0.469642 0.0345241 4.94471e-20)
(0.586786 0.142806 2.67185e-21)
(0.39417 0.0298527 1.19012e-20)
(0.506746 0.136778 -3.11707e-20)
(0.317859 0.0253103 1.46074e-20)
(0.424391 0.129972 -3.39799e-20)
(0.240119 0.0209708 1.92241e-21)
(0.339835 0.122477 8.28396e-21)
(0.160589 0.0168741 1.64701e-20)
(0.253228 0.114346 -8.12344e-21)
(0.0792757 0.0130158 1.21714e-20)
(0.164859 0.105614 -5.81037e-21)
(-0.00334058 0.00927184 -3.60135e-20)
(0.0752859 0.0963328 1.82667e-20)
(-0.0861931 0.00592071 -1.56092e-20)
(-0.014524 0.086392 8.45251e-21)
(-0.167657 0.00325789 2.02279e-20)
(-0.103084 0.0758091 3.99518e-22)
(-0.245611 0.00120191 -1.91069e-20)
(-0.188306 0.0648456 -1.08422e-20)
(-0.317456 -0.000269183 8.04291e-21)
(-0.267481 0.0535878 -7.4079e-21)
(-0.380232 -0.000902751 9.66886e-22)
(-0.33728 0.0420588 6.43657e-21)
(-0.43085 -0.00081352 -1.09888e-20)
(-0.394056 0.0303324 3.78655e-21)
(-0.466436 -0.000240223 8.69541e-22)
(-0.434226 0.0184776 -1.04771e-21)
(-0.484749 0.000714482 -2.72676e-23)
(-0.454939 0.00654738 -1.91325e-21)
)
;

boundaryField
{
    inlet
    {
        type            uniformFixedValue;
        uniformValue    constant (1 0 0);
        value           nonuniform 0();
    }
    outlet
    {
        type            pressureInletOutletVelocity;
        value           nonuniform 0();
    }
    cylinder
    {
        type            fixedValue;
        value           nonuniform 0();
    }
    top
    {
        type            symmetryPlane;
    }
    bottom
    {
        type            symmetryPlane;
    }
    defaultFaces
    {
        type            empty;
    }
    procBoundary34to33
    {
        type            processor;
        value           nonuniform List<vector> 
85
(
(-0.448667 0.00509487 -1.46312e-21)
(-0.433239 0.0125297 -9.47788e-22)
(-0.403318 0.0194583 4.49282e-21)
(-0.360498 0.0256081 1.99714e-21)
(-0.306885 0.0307828 -8.76797e-21)
(-0.244837 0.0348621 4.07432e-21)
(-0.176754 0.0377998 5.49271e-21)
(-0.104897 0.0396301 1.60404e-20)
(-0.0312032 0.0405037 9.45184e-21)
(0.0427817 0.0403862 4.36278e-21)
(0.116035 0.0392171 -5.75508e-21)
(0.187993 0.037198 -1.49536e-20)
(0.258582 0.0345068 -3.19558e-21)
(0.3282 0.0313146 9.69672e-21)
(0.397626 0.0278167 -1.31672e-20)
(0.46788 0.0242262 2.21565e-20)
(0.540034 0.0207685 2.1157e-20)
(0.615007 0.0176754 9.8406e-21)
(0.693361 0.0150813 -5.04973e-21)
(0.775127 0.0132638 2.03929e-20)
(0.859653 0.0134119 -8.12492e-21)
(1.08803 0.00801405 0)
(1.25352 0.00376559 0)
(1.28718 -0.00216573 0)
(1.27763 -0.00380712 0)
(1.25931 -0.00543213 0)
(1.24154 -0.0055331 0)
(1.22574 -0.00527198 0)
(1.2113 -0.00461752 0)
(1.198 -0.00386367 0)
(1.18618 -0.00306246 0)
(1.17556 -0.00235496 0)
(1.16585 -0.00171801 0)
(1.157 -0.00129103 0)
(1.14939 -0.000865275 0)
(1.14297 -0.000645705 0)
(1.13586 -0.0075551 0)
(1.13586 -0.0075551 0)
(1.13137 -0.00594071 0)
(1.12786 -0.00447441 0)
(1.12528 -0.00310505 0)
(1.12374 -0.00188629 0)
(1.12273 -0.000557653 0)
(1.08893 -0.00678097 0)
(1.25389 -0.00252728 0)
(1.28768 0.00280984 0)
(1.27784 0.00429457 0)
(1.25945 0.00556208 0)
(1.24158 0.00560637 0)
(1.22569 0.00517006 0)
(1.21104 0.0045991 0)
(1.1981 0.00378673 0)
(1.18583 0.00295445 0)
(1.17501 0.00230213 0)
(1.16509 0.00159655 0)
(1.15656 0.00123514 0)
(1.14916 0.000773623 0)
(1.14284 0.000589129 0)
(1.13721 0.000334482 0)
(1.13243 0.000258049 0)
(1.12887 0.000164993 0)
(1.12649 0.000117941 0)
(1.12469 3.83911e-05 0)
(1.12354 1.25888e-05 0)
(0.860769 -0.0118644 5.76854e-21)
(0.776227 -0.0116689 -1.39142e-20)
(0.694318 -0.0134408 4.44207e-21)
(0.615742 -0.0159786 -2.85087e-20)
(0.540509 -0.0190204 -1.98153e-20)
(0.468091 -0.0224283 -1.34698e-20)
(0.397597 -0.0259697 2.30121e-20)
(0.32797 -0.029419 1.21929e-20)
(0.258198 -0.0325626 -6.62418e-21)
(0.1875 -0.035204 -1.8139e-20)
(0.115471 -0.0371701 3.15565e-20)
(0.0421776 -0.0382815 -1.13947e-20)
(-0.0318254 -0.0383421 -1.40927e-20)
(-0.105516 -0.0374092 7.85607e-21)
(-0.177351 -0.0355129 -9.17153e-21)
(-0.245384 -0.0325086 -3.58448e-21)
(-0.307372 -0.0283668 2.43449e-21)
(-0.360923 -0.0231342 -2.31563e-21)
(-0.403644 -0.0169356 -2.33293e-21)
(-0.43345 -0.00997114 -1.11125e-21)
(-0.44874 -0.00251873 -2.91e-24)
)
;
    }
    procBoundary34to35
    {
        type            processor;
        value           nonuniform List<vector> 
85
(
(-0.274939 -0.0107059 -2.85659e-22)
(-0.255169 -0.0317064 -3.98634e-22)
(-0.217598 -0.0523268 6.24356e-21)
(-0.164895 -0.0723427 -2.21728e-21)
(-0.100319 -0.0915885 -7.55614e-21)
(-0.0271749 -0.109866 3.3359e-21)
(0.0515519 -0.12689 -5.97933e-21)
(0.133448 -0.14256 1.93297e-21)
(0.216643 -0.157025 4.61947e-21)
(0.299667 -0.170297 -4.05445e-21)
(0.381462 -0.182268 2.27222e-20)
(0.46124 -0.192892 -2.72754e-21)
(0.538396 -0.202129 5.81158e-21)
(0.612432 -0.209934 -4.65743e-21)
(0.682906 -0.216266 -1.02926e-20)
(0.749406 -0.221103 -6.87551e-21)
(0.811531 -0.224397 1.97084e-22)
(0.86891 -0.225952 -2.01167e-20)
(0.921235 -0.225981 3.59925e-21)
(0.968256 -0.226223 3.12601e-20)
(1.00979 -0.224895 -1.66709e-20)
(1.00979 -0.224895 -1.66709e-20)
(1.07417 -0.205091 0)
(1.15626 -0.207696 0)
(1.173 -0.171089 0)
(1.17329 -0.151682 0)
(1.16968 -0.131322 0)
(1.16457 -0.113341 0)
(1.15878 -0.0982592 0)
(1.1527 -0.0852161 0)
(1.14675 -0.0738547 0)
(1.14114 -0.0639098 0)
(1.13572 -0.0551741 0)
(1.13048 -0.0474186 0)
(1.12557 -0.0405303 0)
(1.12123 -0.034327 0)
(1.11748 -0.0287436 0)
(1.11425 -0.0235913 0)
(1.11138 -0.0188369 0)
(1.10913 -0.0143637 0)
(1.10749 -0.010096 0)
(1.10646 -0.00600682 0)
(1.10583 -0.00196481 0)
(1.11598 0.191746 0)
(1.21239 0.192072 0)
(1.23005 0.158509 0)
(1.22304 0.136168 0)
(1.21128 0.116872 0)
(1.19925 0.099748 0)
(1.18783 0.0852597 0)
(1.1771 0.0730763 0)
(1.1675 0.0626566 0)
(1.15867 0.0537514 0)
(1.15084 0.0461215 0)
(1.14375 0.0394596 0)
(1.13759 0.0336825 0)
(1.1322 0.0284486 0)
(1.12752 0.023769 0)
(1.12334 0.0194235 0)
(1.11981 0.0154657 0)
(1.11713 0.0117599 0)
(1.11525 0.00826935 0)
(1.11387 0.00489497 0)
(1.11303 0.00162184 0)
(1.00837 0.224242 1.56285e-20)
(0.966718 0.225548 -3.37406e-20)
(0.919561 0.225293 1.02096e-20)
(0.867084 0.225255 -7.51722e-22)
(0.809535 0.223697 1.03729e-21)
(0.747228 0.220407 1.29084e-20)
(0.680537 0.21558 1.38226e-21)
(0.609866 0.209264 -2.91586e-21)
(0.535635 0.201481 -5.02356e-21)
(0.45829 0.19227 -9.55003e-22)
(0.378336 0.181678 -2.10728e-20)
(0.296389 0.169741 5.93056e-21)
(0.21325 0.156508 -9.59644e-21)
(0.129997 0.142089 1.03708e-20)
(0.0481248 0.126457 1.20161e-21)
(-0.0304756 0.109457 -9.53718e-21)
(-0.103355 0.0912125 6.11151e-21)
(-0.167508 0.0720018 -9.6391e-22)
(-0.219622 0.0520118 -1.17671e-21)
(-0.256455 0.0314091 -1.08831e-21)
(-0.275381 0.0104191 6.90815e-22)
)
;
    }
}


// ************************************************************************* //
