/*--------------------------------*- C++ -*----------------------------------*\
  =========                 |
  \\      /  F ield         | OpenFOAM: The Open Source CFD Toolbox
   \\    /   O peration     | Website:  https://openfoam.org
    \\  /    A nd           | Version:  7
     \\/     M anipulation  |
\*---------------------------------------------------------------------------*/
FoamFile
{
    version     2.0;
    format      ascii;
    class       surfaceScalarField;
    location    "45";
    object      phi;
}
// * * * * * * * * * * * * * * * * * * * * * * * * * * * * * * * * * * * * * //

dimensions      [0 3 -1 0 0 0 0];

internalField   nonuniform List<scalar> 
266
(
0.000559479
-0.00463096
0.000541748
-0.00475604
0.000522551
-0.00488906
0.000502004
-0.0050303
0.000480184
-0.00517949
0.000457099
-0.00533565
0.000432708
0.000522906
-0.0039368
0.000520353
-0.0040642
0.000510075
-0.00417397
0.000494801
-0.00427785
0.00047619
-0.00438268
0.000455134
-0.00449208
0.000432073
-0.0046079
0.000407219
0.000380689
0.000352553
0.000322844
0.000342634
-0.00291196
0.000396827
-0.00330132
0.000429338
-0.00358504
0.000442795
-0.00378746
0.000441622
-0.00393563
0.000430253
-0.00405283
0.000412176
-0.00415589
0.000389713
0.000364193
0.000336286
2.78045e-05
-0.000402944
9.07931e-05
-0.0011609
0.000169478
-0.00186811
0.000246045
-0.00248148
0.000307855
-0.00297377
0.000348937
-0.0033424
0.000369057
-0.00360516
0.000371503
-0.00378991
0.000360808
0.000341153
2.67469e-05
-0.000429691
8.55026e-05
-0.00121966
0.000156332
-0.00193894
0.000222055
-0.00254721
0.000271407
-0.00302312
0.000299883
0.000308311
2.54043e-05
-0.000455095
7.93801e-05
-0.00127363
0.00014188
-0.00200144
0.000196609
2.37964e-05
7.25218e-05
2.39287e-05
0.000451116
7.30691e-05
0.00126452
0.00198953
2.55243e-05
0.000425592
7.9904e-05
0.00121014
0.000143083
0.00192635
0.000198682
0.00253355
0.00300981
2.68514e-05
0.000398741
8.59913e-05
0.001151
0.000157501
0.00185484
0.000224131
0.00246692
0.000274496
0.00295945
0.000303972
0.00332921
0.00031331
0.00359343
0.00377961
2.78902e-05
9.12342e-05
0.000170589
0.000248089
0.000310979
0.00289656
0.000353156
0.00328703
0.00037429
0.0035723
0.000377625
0.00377628
0.000367688
0.00392583
0.000348683
0.0040442
0.00414829
0.000345746
0.00040113
0.000434768
0.000449227
0.000448915
0.000438283
0.00405484
0.000420855
0.00416572
0.000398977
0.00427058
0.000373998
0.00437634
0.000346599
0.00448668
0.00460346
0.000528871
0.000519326
0.00050471
0.000486706
0.000466224
0.000443707
0.000419377
0.0047521
0.000393349
0.00488626
0.000365697
0.00502871
0.000336459
0.00517922
0.00533676
0.00055483
0.000536205
0.000516216
0.000494937
0.000472377
0.000448484
0.000301735
0.000208266
0.000135371
8.52727e-05
4.30023e-05
1.53855e-05
-5.98937e-06
-2.2723e-05
-3.45185e-05
-3.93314e-05
-0.0200648
-4.10382e-05
-0.0199972
-4.22223e-05
-0.0199193
-4.21506e-05
-0.0198536
-4.09763e-05
-0.0198039
-3.73527e-05
-0.0197665
-3.10721e-05
-0.0197468
-2.58257e-05
-0.0196816
-2.07275e-05
-0.0196588
-1.50865e-05
-0.0196276
-5.85082e-06
-0.0196532
-0.0196048
-0.000133114
-0.000125801
-0.000118016
-0.000109537
-9.99221e-05
-8.78101e-05
-7.27976e-05
-5.90436e-05
-4.57587e-05
-3.17191e-05
-1.41206e-05
-8.04847e-05
0.0204491
-0.000100561
0.0203594
-0.000116788
0.0202539
-0.000126948
0.0201737
-0.000130486
0.0201229
-0.000133654
0.0200014
-0.000131432
0.0199761
-0.000128246
0.019885
-0.000121276
0.0198576
-0.000110086
0.0198203
-9.62886e-05
0.0197851
-8.2208e-05
0.0197383
-6.8707e-05
0.0196918
-5.33204e-05
0.0196796
-3.47643e-05
0.0196866
-1.642e-05
0.0196661
0.0196378
0.000317425
0.000223301
0.000149705
9.79466e-05
5.65139e-05
2.7428e-05
2.35383e-07
-1.69758e-05
-2.89148e-05
-4.08342e-05
-4.68548e-05
-5.19891e-05
-5.34132e-05
-5.07529e-05
-4.57862e-05
-4.02446e-05
-3.49946e-05
-2.79319e-05
-1.80092e-05
-8.22544e-06
)
;

boundaryField
{
    inlet
    {
        type            calculated;
        value           nonuniform 0();
    }
    outlet
    {
        type            calculated;
        value           nonuniform 0();
    }
    cylinder
    {
        type            calculated;
        value           uniform 0;
    }
    top
    {
        type            symmetryPlane;
        value           uniform 0;
    }
    bottom
    {
        type            symmetryPlane;
        value           uniform 0;
    }
    defaultFaces
    {
        type            empty;
        value           nonuniform 0();
    }
    procBoundary15to14
    {
        type            processor;
        value           nonuniform List<scalar> 
98
(
-0.00549697
-0.00473118
-0.00486253
-0.00500217
-0.00514979
0.000291538
-0.00530434
-0.00425539
-0.00435716
-0.00446417
0.000306293
-0.00457791
-0.00392493
-0.00403317
0.000315633
-0.00413037
-0.00337087
-0.00361359
0.00030046
-0.00378206
-0.00260194
0.000233746
-0.00306025
-0.000478891
-0.00132236
0.000126338
-0.00205526
-0.000475045
-0.00131366
-0.00204401
0.000127552
-0.00258915
-0.00304789
0.000236761
-0.00335868
-0.00360277
-0.00377255
0.000306245
-0.00391589
-0.0040252
-0.00412334
0.000323738
-0.0042487
-0.00435137
-0.00445928
-0.00457395
0.000317087
-0.00472777
-0.00486023
-0.00500106
-0.00514998
-0.00530593
0.000305631
-0.00549954
-0.0209738
-0.0206596
-0.0206
-0.0204892
-0.0203873
-0.0203325
-0.0202481
-0.0201593
-0.0200988
0.000136962
-0.0200686
-0.0200045
-0.019927
-0.0198621
-0.0198136
-0.0197786
-0.0197618
-0.0196953
-0.0196721
-0.0196417
-0.0196708
-0.0196189
-0.0204173
-0.0203393
-0.0202377
-0.0201636
-0.0201194
-0.0199982
-0.0199783
-0.0198881
-0.0198645
-0.0198315
-0.0197989
-0.0197524
-0.0197053
-0.019695
-0.0197052
-0.0196844
-0.0196542
-0.0209879
-0.020689
-0.020647
4.8702e-05
-0.0205229
)
;
    }
    procBoundary15to16
    {
        type            processor;
        value           nonuniform List<scalar> 
90
(
0.00464705
0.00477377
0.00490826
0.00505085
0.00520131
0.00535873
0.00552136
0.00392776
0.00406675
0.00418425
0.00429313
0.00440129
-0.000575566
0.00451313
0.00283754
0.00324712
0.00355253
-0.00051386
0.00377401
0.000375139
0.00109791
0.00178943
-0.000268223
0.00240492
0.00037085
0.00108765
0.00177548
0.00238942
-0.000270196
0.00282101
0.00323165
0.00353866
0.00376182
0.00392614
-0.000530586
0.00405655
0.00417526
0.0042852
0.00439435
0.00450716
0.00462598
-0.00057197
0.00476924
0.00490488
0.0050487
0.00520049
0.00535932
0.00552344
0.0211048
0.0207531
0.0206729
0.0205393
0.0204296
0.0203601
0.0202695
0.020176
0.0201106
0.0200696
0.0199989
0.0199204
0.0198535
0.0198028
0.0197629
0.0197405
0.0196763
0.0196537
0.019622
0.019644
0.0195989
0.0211189
0.0207832
0.0207206
0.0205746
0.0204905
0.0203885
0.0202811
0.020191
0.0201348
0.0200133
0.0199821
0.0198901
0.019859
0.0198177
0.0197801
0.0197328
0.0196865
0.0196726
0.0196767
0.0196563
0.0196296
)
;
    }
}


// ************************************************************************* //
