/*--------------------------------*- C++ -*----------------------------------*\
  =========                 |
  \\      /  F ield         | OpenFOAM: The Open Source CFD Toolbox
   \\    /   O peration     | Website:  https://openfoam.org
    \\  /    A nd           | Version:  7
     \\/     M anipulation  |
\*---------------------------------------------------------------------------*/
FoamFile
{
    version     2.0;
    format      ascii;
    class       surfaceScalarField;
    location    "25";
    object      phi;
}
// * * * * * * * * * * * * * * * * * * * * * * * * * * * * * * * * * * * * * //

dimensions      [0 3 -1 0 0 0 0];

internalField   nonuniform List<scalar> 
278
(
0.000490825
-0.000826909
0.000325744
-0.000757392
0.000312891
0.000545927
-0.00131952
0.00098177
-0.00119324
-0.00100333
0.000643468
-0.00179875
0.00106591
-0.00161568
-0.00136472
0.000777361
-0.00226044
0.00118262
-0.00202094
-0.00171029
0.00093986
-0.00270134
0.0013252
-0.00240627
-0.00203764
0.0011225
-0.00311913
0.00148617
-0.00276995
-0.0023454
0.00131695
-0.00351217
0.00165804
-0.00311103
-0.00263305
0.00151571
-0.00387939
0.00183386
-0.00342918
-0.00290073
0.00171243
0.0020077
-0.00372445
-0.00314899
0.00217475
-0.00399715
-0.00337864
0.00233136
-0.00424774
-0.00359061
0.00247491
-0.00447688
-0.00378594
0.00260365
-0.00468536
-0.00396568
0.00271652
-0.00487419
-0.00413097
0.00281303
-0.00504454
-0.00428297
0.00289311
-0.00519779
-0.00442292
0.00295708
-0.00533543
-0.00455203
0.00300536
-0.00545909
-0.00467159
0.00303815
-0.00557067
-0.00478305
0.00305657
-0.00567191
-0.00488765
0.00306161
-0.00576287
-0.00498551
0.0197433
-0.00569597
-0.00496699
0.0211579
-0.00535847
-0.00471493
0.021609
-0.00492405
-0.00438565
0.0217943
-0.00448979
-0.00404607
0.0218757
-0.00407874
-0.00371384
0.021913
-0.00369465
-0.00339473
0.0219285
-0.00333625
-0.00309048
0.0219296
-0.00300173
-0.00280168
0.021921
-0.00268943
-0.00252817
0.0219061
-0.0023974
-0.00226891
0.0218853
-0.00212373
-0.00202258
0.0218591
-0.00186669
-0.00178794
0.0218298
-0.00162454
-0.00156381
0.0218008
-0.00139526
-0.00134883
0.0217739
-0.00117677
-0.00114165
0.0217489
-0.000967158
-0.000941034
0.0217255
-0.000765002
-0.000746056
0.0217055
-0.000568737
-0.000555618
0.0216903
-0.00037676
-0.000368515
0.0216803
-0.000187524
-0.000183559
0.0216742
-0.00537216
0.0197613
0.00539854
-0.00508409
0.0212019
-0.00469667
0.0216692
-0.00430212
0.0218459
-0.0039248
0.0219166
-0.0035689
0.0219444
-0.00323373
0.0219516
-0.00291813
0.0219459
-0.00262079
0.0219315
-0.00234087
0.02191
-0.00207729
0.0218847
-0.0018288
0.0218572
-0.00159367
0.0218298
-0.00137009
0.0218026
-0.00115638
0.0217756
-0.000951139
0.0217489
-0.000752943
0.0217249
-0.000560129
0.0217061
-0.000371106
0.0216923
-0.000184705
0.021682
0.0216753
-0.00476675
0.0047567
-0.00454491
-0.00423996
-0.00392132
-0.00360775
-0.00330475
-0.00301425
-0.00273703
-0.00247307
-0.00222211
-0.00198325
-0.00175537
-0.00153705
-0.00132695
-0.00112394
-0.000927147
-0.000735623
-0.000548172
-0.000363622
-0.000181114
0.00307323
0.00530639
0.00465956
0.0030651
0.00520362
0.0045549
0.00304284
0.00508974
0.00444225
0.0030056
0.00496278
0.0043201
0.00295233
0.00482059
0.00418675
0.00288283
0.00466127
0.00404065
0.00279679
0.00448307
0.00388031
0.00269405
0.00428434
0.00370426
0.00257487
0.0040637
0.00351115
0.00244004
0.00381997
0.00329978
0.00229093
0.0035523
0.00306913
0.00212964
0.00326014
0.00281839
0.00164232
0.00333037
0.00195919
0.00294327
0.00254705
0.00144224
0.00294715
0.00178358
0.00260194
0.00225495
0.00124287
0.00253715
0.00160794
0.00223687
0.00194245
0.00105105
0.00210217
0.00143845
0.00184947
0.00161051
0.000874608
0.00164483
0.00128211
0.00144197
0.00126091
0.000721902
0.00116862
0.00114637
0.00101749
0.000896318
0.00060111
0.000677929
0.00103846
0.000580147
0.000519345
0.000177886
0.00013485
0.000481767
)
;

boundaryField
{
    inlet
    {
        type            calculated;
        value           nonuniform 0();
    }
    outlet
    {
        type            calculated;
        value           nonuniform 0();
    }
    cylinder
    {
        type            calculated;
        value           nonuniform 0();
    }
    top
    {
        type            symmetryPlane;
        value           uniform 0;
    }
    bottom
    {
        type            symmetryPlane;
        value           uniform 0;
    }
    defaultFaces
    {
        type            empty;
        value           nonuniform 0();
    }
    procBoundary38to37
    {
        type            processor;
        value           nonuniform List<scalar> 
86
(
1.03395e-05
-5.33174e-05
-0.000164239
-0.000315674
-0.000498953
-0.000704711
-0.00092391
-0.00114849
-0.00137173
-0.00422008
-0.00190206
-0.00208077
-0.00224578
-0.00239517
-0.0025277
-0.00264267
-0.00273986
-0.00281944
-0.00288171
-0.00292656
-0.00295533
-0.00297065
-0.0198102
-0.0214954
-0.0220434
-0.0222285
-0.0222867
-0.0222971
-0.0222869
-0.0222641
-0.0222333
-0.0221981
-0.022159
-0.0221161
-0.0220719
-0.0220301
-0.0219924
-0.0219586
-0.0219276
-0.0219017
-0.0218823
-0.0218695
-0.0218617
-0.0197877
-0.02149
-0.0220566
-0.0222404
-0.0222939
-0.0223003
-0.0222867
-0.0222614
-0.0222288
-0.0221899
-0.0221482
-0.0221057
-0.0220649
-0.0220262
-0.0219893
-0.0219541
-0.0219231
-0.0218989
-0.0218813
-0.0218684
-0.02186
-0.00298108
-0.00296233
-0.00292896
-0.00287864
-0.00281013
-0.00272352
-0.00261858
-0.00249532
-0.00235423
-0.00219632
-0.00202326
-0.00183748
-0.00368564
-0.00128705
-0.00105902
-0.000832866
-0.000616076
-0.000417267
-0.00024569
-0.000110418
-1.93021e-05
2.18631e-05
)
;
    }
    procBoundary38to39
    {
        type            processor;
        value           nonuniform List<scalar> 
86
(
0.000935327
0.000629543
0.00135556
0.0014273
0.00152818
0.00165255
0.00179393
0.00194569
0.00210154
0.00225596
0.0024044
0.00254334
0.00267024
0.00278339
0.00288181
0.00296503
0.00303306
0.0030862
0.00312492
0.0031496
0.00316117
0.00315947
0.0197248
0.0209059
0.0212797
0.0214547
0.0215435
0.0215939
0.0216243
0.0216408
0.0216475
0.0216469
0.021639
0.0216244
0.0216056
0.0215858
0.0215667
0.0215483
0.0215305
0.021515
0.0215032
0.0214954
0.0214906
0.0197713
0.0209801
0.0213642
0.0215273
0.021603
0.0216414
0.0216611
0.0216686
0.0216675
0.0216591
0.0216458
0.0216293
0.0216114
0.0215925
0.0215726
0.0215521
0.0215334
0.0215186
0.0215078
0.0214995
0.0214942
0.00317037
0.00316976
0.00315548
0.00312775
0.00308568
0.00302893
0.00295714
0.0028701
0.00276798
0.00265141
0.00252158
0.00238038
0.00223053
0.00207567
0.00192045
0.00177038
0.00163171
0.00151097
0.00141445
0.000520324
0.000964642
0.000929508
)
;
    }
}


// ************************************************************************* //
