/*--------------------------------*- C++ -*----------------------------------*\
  =========                 |
  \\      /  F ield         | OpenFOAM: The Open Source CFD Toolbox
   \\    /   O peration     | Website:  https://openfoam.org
    \\  /    A nd           | Version:  7
     \\/     M anipulation  |
\*---------------------------------------------------------------------------*/
FoamFile
{
    version     2.0;
    format      ascii;
    class       volVectorField;
    location    "70";
    object      U;
}
// * * * * * * * * * * * * * * * * * * * * * * * * * * * * * * * * * * * * * //

dimensions      [0 1 -1 0 0 0 0];

internalField   nonuniform List<vector> 
36
(
(0.018692 -0.0147823 9.89296e-20)
(0.0681791 -0.0225236 -1.30867e-19)
(0.135109 -0.0311754 1.45227e-19)
(0.301964 -0.0529429 -2.94215e-19)
(0.534315 -0.0600926 7.7714e-21)
(0.68861 -0.0461145 -1.19982e-19)
(0.961341 -0.00667344 -2.68507e-19)
(0.961341 0.00667344 2.68507e-19)
(0.68861 0.0461145 1.96739e-19)
(0.534315 0.0600926 -8.45424e-20)
(0.301964 0.0529429 4.71416e-20)
(0.135109 0.0311754 -3.53119e-19)
(0.0681791 0.0225236 2.40375e-19)
(0.018692 0.0147823 -5.07829e-22)
(1.26538 0.0654073 -1.383e-20)
(1.29633 0.0861178 -8.17285e-20)
(1.28524 0.0863838 8.98483e-21)
(1.26427 0.0791018 -2.43071e-22)
(1.24408 0.0697361 2.80551e-20)
(1.2267 0.0597592 -4.88865e-21)
(1.21237 0.0499122 -1.20537e-20)
(1.2008 0.0403848 2.59045e-21)
(1.19171 0.0311295 -4.95729e-21)
(1.18495 0.0220898 2.55582e-21)
(1.26538 -0.0654073 1.383e-20)
(1.29633 -0.0861178 8.17285e-20)
(1.28524 -0.0863838 -8.98483e-21)
(1.26427 -0.0791018 2.43071e-22)
(1.24408 -0.0697361 -2.80551e-20)
(1.2267 -0.0597592 4.88865e-21)
(1.21237 -0.0499122 1.20537e-20)
(1.2008 -0.0403848 -2.59045e-21)
(1.19171 -0.0311295 4.95729e-21)
(1.18495 -0.0220898 -2.55582e-21)
(1.18044 -0.013223 2.96706e-22)
(1.17815 -0.00448344 3.20595e-22)
)
;

boundaryField
{
    inlet
    {
        type            uniformFixedValue;
        uniformValue    constant (1 0 0);
        value           nonuniform 0();
    }
    outlet
    {
        type            pressureInletOutletVelocity;
        value           nonuniform 0();
    }
    cylinder
    {
        type            fixedValue;
        value           nonuniform 0();
    }
    top
    {
        type            symmetryPlane;
    }
    bottom
    {
        type            symmetryPlane;
    }
    defaultFaces
    {
        type            empty;
    }
    procBoundary34to32
    {
        type            processor;
        value           nonuniform List<vector> 
15
(
(1.25348 0.0852295 2.00047e-21)
(1.23469 0.0741776 -4.33752e-20)
(1.21864 0.0632012 2.29838e-20)
(1.20528 0.0525655 6.60479e-21)
(1.19443 0.042383 -7.12952e-21)
(1.18589 0.0325862 1.50938e-21)
(1.17954 0.0230857 -6.3931e-22)
(1.23469 -0.0741776 2.58867e-22)
(1.21864 -0.0632012 -2.29838e-20)
(1.20528 -0.0525655 -6.60479e-21)
(1.19443 -0.042383 7.12952e-21)
(1.18589 -0.0325862 -1.50938e-21)
(1.17954 -0.0230857 -1.32514e-21)
(1.17529 -0.0138144 1.88399e-21)
(1.1731 -0.00468991 -9.7359e-22)
)
;
    }
    procBoundary34to33
    {
        type            processor;
        value           nonuniform List<vector> 
32
(
(-0.000176994 -0.00299611 1.17477e-19)
(0.0348788 -0.00784717 -4.33269e-19)
(0.0833713 -0.0153462 -2.08552e-20)
(0.219893 -0.0396263 4.56846e-20)
(0.219893 -0.0396263 4.56846e-20)
(0.426675 -0.054391 -2.20476e-19)
(0.426675 -0.054391 -2.20476e-19)
(0.565366 -0.04834 -5.64245e-19)
(0.842632 -0.0219853 -1.79885e-19)
(0.842632 -0.0219853 -1.79885e-19)
(1.09055 0.0275629 -2.6855e-19)
(1.17006 0.0334206 1.96516e-19)
(1.09055 -0.0275629 2.6855e-19)
(1.17006 -0.0334206 4.68651e-20)
(0.842632 0.0219853 1.79885e-19)
(0.842632 0.0219853 1.79885e-19)
(0.565366 0.04834 2.25516e-19)
(0.426675 0.054391 5.59265e-19)
(0.426675 0.054391 5.59265e-19)
(0.219893 0.0396263 -3.5558e-19)
(0.219893 0.0396263 -3.5558e-19)
(0.0833713 0.0153462 1.4561e-20)
(0.0348788 0.00784717 1.64874e-19)
(-0.000176994 0.00299611 1.88241e-19)
(1.28696 0.0946679 -9.96213e-21)
(1.29116 0.102474 -7.14327e-20)
(1.27435 0.0959116 5.79729e-20)
(1.18044 0.013223 2.28648e-21)
(1.28696 -0.0946679 9.96213e-21)
(1.29116 -0.102474 7.74871e-20)
(1.27435 -0.0959116 -5.79729e-20)
(1.25348 -0.0852295 -2.9311e-20)
)
;
    }
    procBoundary34to35
    {
        type            processor;
        value           nonuniform List<vector> 
37
(
(-0.0139104 -0.00824263 1.06926e-19)
(0.109258 -0.0372889 -1.87249e-20)
(0.195419 -0.0464944 -6.03984e-20)
(0.195419 -0.0464944 -6.03984e-20)
(0.389855 -0.0642773 -1.89427e-19)
(0.389855 -0.0642773 -1.89427e-19)
(0.804811 -0.0392383 -1.10764e-19)
(0.804811 -0.0392383 -1.10764e-19)
(1.05376 0.00663913 2.79149e-20)
(1.05376 -0.00663913 -2.71381e-19)
(0.804811 0.0392383 1.10764e-19)
(0.804811 0.0392383 1.10764e-19)
(0.195419 0.0464944 -4.13102e-21)
(0.195419 0.0464944 -4.13102e-21)
(0.109258 0.0372889 3.3042e-19)
(-0.0139104 0.00824263 -1.05589e-19)
(1.19202 0.0358338 2.86508e-21)
(1.2646 0.060431 -6.92626e-20)
(1.27931 0.0696761 1.17011e-19)
(1.26973 0.069626 -6.33401e-20)
(1.25251 0.0642658 2.07379e-20)
(1.23498 0.0563177 1.19608e-20)
(1.21977 0.0475774 -6.38603e-21)
(1.20729 0.0387337 -1.5598e-20)
(1.19746 0.0299612 1.01822e-20)
(1.19016 0.021301 -2.62978e-21)
(1.2646 -0.060431 7.49201e-20)
(1.27931 -0.0696761 -1.17011e-19)
(1.26973 -0.069626 6.33401e-20)
(1.25251 -0.0642658 -2.07379e-20)
(1.23498 -0.0563177 -1.19608e-20)
(1.21977 -0.0475774 2.47079e-20)
(1.20729 -0.0387337 -1.76483e-20)
(1.19746 -0.0299612 4.79319e-21)
(1.19016 -0.021301 -3.05842e-21)
(1.1853 -0.012752 2.24953e-22)
(1.18287 -0.00430198 2.44153e-21)
)
;
    }
    procBoundary34to36
    {
        type            processor;
        value           nonuniform List<vector> 7((0.0444456 -0.0268812 9.12507e-20) (0.640649 -0.0620959 -8.76866e-20) (0.640649 0.0620959 9.97114e-20) (0.389855 0.0642773 1.89427e-19) (0.389855 0.0642773 1.89427e-19) (0.0444456 0.0268812 -1.90993e-20) (1.19202 -0.0358338 6.94213e-21));
    }
}


// ************************************************************************* //
