/*--------------------------------*- C++ -*----------------------------------*\
  =========                 |
  \\      /  F ield         | OpenFOAM: The Open Source CFD Toolbox
   \\    /   O peration     | Website:  https://openfoam.org
    \\  /    A nd           | Version:  7
     \\/     M anipulation  |
\*---------------------------------------------------------------------------*/
FoamFile
{
    version     2.0;
    format      ascii;
    class       volVectorField;
    location    "76";
    object      U;
}
// * * * * * * * * * * * * * * * * * * * * * * * * * * * * * * * * * * * * * //

dimensions      [0 1 -1 0 0 0 0];

internalField   nonuniform List<vector> 
40000
(
(-0.000171475 -0.00156955 -2.38169e-21)
(-0.001166 -0.00342778 7.36413e-21)
(-0.0033336 -0.0042046 -4.70437e-21)
(-0.0063991 -0.00403257 -4.13507e-24)
(-0.0102095 -0.00305292 7.21582e-24)
(-0.0146619 -0.00140779 2.92091e-24)
(-0.0196519 0.000765246 -7.80064e-21)
(-0.0250793 0.0033379 1.85636e-21)
(-0.0308523 0.00619589 -5.28277e-21)
(-0.0368867 0.0092429 -1.67584e-21)
(-0.0431056 0.0124036 0)
(-0.0494385 0.0156254 -6.01779e-21)
(-0.0558214 0.0188785 0)
(-0.0621959 0.0221546 0)
(-0.0685091 0.0254641 -5.09515e-21)
(-0.0747127 0.0288325 4.81196e-21)
(-0.0807634 0.0322959 -2.27658e-21)
(-0.0866219 0.0358963 -9.36806e-25)
(-0.0922535 0.0396773 2.02186e-21)
(-0.0976286 0.043681 0)
(-0.102723 0.047945 -1.79116e-21)
(-0.107518 0.0525014 -5.03084e-21)
(-0.112005 0.0573762 6.30662e-21)
(-0.116181 0.0625908 -2.96868e-21)
(-0.120058 0.0681628 8.33756e-21)
(-0.123658 0.0741085 5.20378e-21)
(-0.127015 0.080444 -9.74955e-21)
(-0.130175 0.0871851 9.12834e-21)
(-0.13318 0.0943509 -2.14272e-21)
(-0.136113 0.101985 -3.98779e-21)
(-0.000150096 -0.00093868 0)
(-0.0011111 -0.00172399 4.87399e-21)
(-0.00323584 -0.0015891 9.38687e-21)
(-0.00625269 -0.00064939 -8.95829e-21)
(-0.0100086 0.000967135 -4.27996e-21)
(-0.0143992 0.00313009 1.63141e-20)
(-0.0193187 0.00571332 -3.88691e-21)
(-0.0246656 0.0085994 -7.39753e-21)
(-0.0303471 0.0116841 3.44811e-23)
(-0.036278 0.0148804 -2.00203e-20)
(-0.0423805 0.0181215 6.33441e-21)
(-0.0485835 0.0213624 2.40125e-20)
(-0.0548227 0.02458 -1.13713e-20)
(-0.0610393 0.0277722 -2.99261e-24)
(-0.0671801 0.0309549 -5.05213e-21)
(-0.0731967 0.0341584 -1.26261e-23)
(-0.0790449 0.0374236 0)
(-0.0846851 0.0407967 0)
(-0.0900815 0.0443262 1.60494e-20)
(-0.0952031 0.0480588 0)
(-0.100024 0.0520375 7.12192e-21)
(-0.104524 0.0563008 -6.6732e-21)
(-0.10869 0.0608818 -1.87979e-23)
(-0.112519 0.06581 0)
(-0.116017 0.0711121 1.10093e-20)
(-0.1192 0.076814 -1.03913e-20)
(-0.122102 0.0829413 9.74946e-21)
(-0.124761 0.0895168 -9.12825e-21)
(-0.127205 0.0965643 8.50986e-21)
(-0.129523 0.104137 -2.38475e-20)
(-0.000159129 -0.000327945 -9.45719e-21)
(-0.00113401 -7.46376e-05 -9.77875e-21)
(-0.00324813 0.000942995 0)
(-0.00623619 0.00262577 0)
(-0.00994673 0.00485836 0)
(-0.014275 0.00752171 8.10324e-21)
(-0.0191149 0.0105007 0)
(-0.0243646 0.0136885 7.38979e-21)
(-0.0299309 0.0169904 1.40471e-20)
(-0.0357282 0.0203285 1.33371e-20)
(-0.0416785 0.0236439 0)
(-0.0477105 0.0268988 -4.45321e-23)
(-0.0537599 0.0300767 -2.26099e-20)
(-0.0597678 0.0331809 2.13828e-20)
(-0.065681 0.0362325 1.01447e-20)
(-0.0714506 0.0392664 9.55824e-21)
(-0.0770322 0.0423276 -9.01534e-21)
(-0.0823852 0.0454666 1.69572e-20)
(-0.0874726 0.0487361 -3.2018e-20)
(-0.0922616 0.0521874 3.63175e-23)
(-0.0967239 0.0558688 -2.8295e-20)
(-0.100836 0.0598245 2.6545e-20)
(-0.104583 0.0640947 0)
(-0.107955 0.0687168 0)
(-0.110953 0.0737264 1.08883e-20)
(-0.113589 0.079159 0)
(-0.115893 0.0850501 0)
(-0.117899 0.091431 0)
(-0.119614 0.0983323 -1.68458e-20)
(-0.121133 0.105817 1.58958e-20)
(-0.000196801 0.000257265 9.45719e-21)
(-0.0012306 0.00150629 4.24262e-23)
(-0.0033655 0.00337092 3.66668e-23)
(-0.00634484 0.00576685 -1.77784e-20)
(-0.0100201 0.0085906 -1.70097e-20)
(-0.0142872 0.0117339 -1.50522e-23)
(-0.0190405 0.015092 -3.08923e-20)
(-0.0241787 0.0185681 1.46881e-20)
(-0.0296087 0.0220769 -2.79145e-20)
(-0.0352452 0.0255486 2.64975e-20)
(-0.0410103 0.0289321 -1.2586e-20)
(-0.0468333 0.0321964 2.37795e-20)
(-0.0526496 0.0353308 2.26098e-20)
(-0.0584009 0.0383439 -8.03742e-23)
(-0.0640338 0.0412611 -2.01246e-20)
(-0.0694996 0.0441217 0)
(-0.0747531 0.0469742 -3.64815e-23)
(-0.0797528 0.0498732 1.68767e-20)
(-0.0844604 0.0528751 3.6935e-23)
(-0.0888409 0.0560355 4.26711e-23)
(-0.092863 0.0594074 2.82205e-20)
(-0.0965001 0.0630405 -2.65448e-20)
(-0.0997308 0.0669815 0)
(-0.102541 0.0712753 2.32385e-20)
(-0.104926 0.0759666 -8.11448e-23)
(-0.106892 0.0811008 -6.1343e-20)
(-0.108461 0.0867244 1.9178e-20)
(-0.109668 0.0928791 3.57632e-20)
(-0.110496 0.0996058 1.68456e-20)
(-0.111039 0.10698 1.57449e-20)
(-0.000260937 0.000812379 3.77134e-20)
(-0.00139578 0.00300678 -1.94051e-20)
(-0.00358166 0.00567666 1.85864e-20)
(-0.00657239 0.00875102 1.78075e-20)
(-0.0102235 0.0121372 0)
(-0.0144321 0.0157369 -3.2344e-20)
(-0.019094 0.0194553 -1.53613e-20)
(-0.0241088 0.0232047 -2.93139e-20)
(-0.0293842 0.0269085 1.39823e-20)
(-0.0348357 0.030505 -7.65449e-23)
(-0.0403858 0.0339502 2.50507e-20)
(-0.0459642 0.037219 2.36909e-20)
(-0.0515072 0.0403064 -4.49777e-20)
(-0.0569568 0.0432255 2.11878e-20)
(-0.0622598 0.0460059 7.41424e-23)
(-0.0673673 0.0486902 0)
(-0.0722339 0.0513306 -1.79138e-20)
(-0.0768171 0.0539847 -3.3614e-20)
(-0.0810769 0.0567123 4.74901e-20)
(-0.084976 0.0595727 1.4839e-20)
(-0.0884796 0.0626231 0)
(-0.0915567 0.0659181 -2.62592e-20)
(-0.0941807 0.0695104 0)
(-0.096331 0.0734521 -6.9497e-20)
(-0.097995 0.0777967 4.3429e-20)
(-0.0991709 0.0826002 5.11169e-23)
(-0.0998774 0.0879213 3.79624e-20)
(-0.100147 0.0938155 -5.35753e-20)
(-0.0999387 0.100338 3.32465e-20)
(-0.0993343 0.107581 1.56261e-20)
(-0.000349108 0.00133371 -1.88601e-20)
(-0.00162377 0.00441696 1.93721e-20)
(-0.00388934 0.00784523 2.95956e-23)
(-0.0069114 0.011559 -5.31999e-20)
(-0.0105502 0.0154754 0)
(-0.0147048 0.0195051 3.2344e-20)
(-0.0192726 0.0235623 -3.07056e-20)
(-0.0241547 0.0275679 5.85485e-20)
(-0.02926 0.0314536 0)
(-0.034505 0.0351649 -2.64208e-20)
(-0.039813 0.0386642 -2.50506e-20)
(-0.0451147 0.0419324 -2.37279e-20)
(-0.050347 0.0449691 -6.71853e-20)
(-0.0554524 0.0477916 -3.49827e-23)
(-0.0603783 0.0504331 3.88746e-23)
(-0.0650759 0.0529392 7.25813e-24)
(-0.0694994 0.0553647 5.33523e-20)
(-0.0736053 0.05777 1.37152e-22)
(-0.077352 0.0602176 -1.36546e-22)
(-0.0806994 0.0627698 -2.98081e-20)
(-0.0836093 0.0654873 8.07015e-23)
(-0.0860456 0.068429 5.24325e-20)
(-0.0879757 0.0716526 -7.36047e-20)
(-0.0893716 0.0752171 2.31034e-20)
(-0.0902123 0.0791844 0)
(-0.0904871 0.0836217 0)
(-0.0902088 0.088602 -3.79617e-20)
(-0.089411 0.094198 3.5295e-20)
(-0.0880274 0.100485 -3.32339e-20)
(-0.0861057 0.107575 0)
(-0.000458693 0.00181845 -1.87833e-20)
(-0.00190832 0.00572925 0)
(-0.00428059 0.00986483 1.85534e-20)
(-0.00735358 0.0141753 1.06327e-19)
(-0.0109927 0.0185863 -3.38003e-20)
(-0.0150991 0.0230167 0)
(-0.0195722 0.0273888 6.04593e-23)
(-0.0243148 0.0316316 2.92023e-20)
(-0.0292372 0.035684 -2.77292e-20)
(-0.0342571 0.0394985 0)
(-0.039299 0.0430434 0)
(-0.0442944 0.0463047 -4.7192e-20)
(-0.0491813 0.0492865 6.71169e-20)
(-0.053903 0.0520097 -2.1128e-20)
(-0.0584073 0.0545103 0)
(-0.0626456 0.0568365 3.76256e-20)
(-0.066572 0.0590452 -3.55692e-20)
(-0.0701421 0.0611988 3.34463e-20)
(-0.0733124 0.0633618 -6.29551e-20)
(-0.0760405 0.0655988 -8.86055e-20)
(-0.078284 0.0679732 2.78293e-20)
(-0.0800019 0.070547 2.60397e-20)
(-0.0811546 0.0733823 2.45516e-20)
(-0.0817064 0.0765439 0)
(-0.0816268 0.0801018 -4.27992e-20)
(-0.0808948 0.0841351 0)
(-0.0795158 0.0887327 0)
(-0.0775273 0.0939895 -7.03626e-20)
(-0.0748442 0.100006 9.68211e-23)
(-0.0714321 0.106918 -9.22525e-20)
(-0.000587005 0.00226477 1.87833e-20)
(-0.00224295 0.0069384 3.86704e-20)
(-0.0047471 0.011727 3.70047e-20)
(-0.00789016 0.0165884 -3.54073e-20)
(-0.0115428 0.0214556 0)
(-0.0156082 0.0262545 0)
(-0.0199878 0.0309149 3.06712e-20)
(-0.0245863 0.0353732 -2.91435e-20)
(-0.0293156 0.0395751 2.09107e-23)
(-0.0340946 0.0434792 5.24692e-20)
(-0.0388489 0.0470595 0)
(-0.0435114 0.0503066 4.71917e-20)
(-0.0480209 0.0532283 0)
(-0.0523216 0.0558488 0)
(-0.0563621 0.0582064 -4.28651e-23)
(-0.0600941 0.0603513 3.75275e-20)
(-0.0634714 0.0623418 -3.53328e-20)
(-0.0664488 0.0642417 6.65262e-20)
(-0.0689816 0.0661168 -3.1289e-20)
(-0.0710242 0.0680331 8.84336e-20)
(-0.0725309 0.0700556 0)
(-0.0734549 0.0722485 0)
(-0.0737499 0.0746771 4.85187e-20)
(-0.0733713 0.0774107 0)
(-0.0722786 0.0805268 4.28719e-20)
(-0.0704395 0.0841163 -3.99865e-20)
(-0.0678491 0.0882866 3.73397e-20)
(-0.0645526 0.0931606 -3.48477e-20)
(-0.0604658 0.098875 6.55063e-20)
(-0.0553837 0.105579 9.21152e-20)
(-0.000731394 0.00267175 0)
(-0.00262124 0.00804151 -3.86704e-20)
(-0.00528051 0.0134265 -3.50299e-23)
(-0.00851215 0.0187906 0)
(-0.0121918 0.0240728 -6.74404e-20)
(-0.0162245 0.0292055 -2.14071e-23)
(-0.0205136 0.0341252 3.05867e-20)
(-0.0249656 0.0387748 0)
(-0.0294938 0.0431064 2.76523e-20)
(-0.0340184 0.0470843 -5.2469e-20)
(-0.0384664 0.0506877 0)
(-0.0427716 0.0539113 0)
(-0.0468739 0.0567665 -4.44566e-20)
(-0.0507187 0.05928 4.20289e-20)
(-0.0542551 0.0614919 -3.97145e-20)
(-0.0574352 0.0634539 0)
(-0.060213 0.0652253 -3.5145e-20)
(-0.0625425 0.0668705 -9.9552e-20)
(-0.0643774 0.0684557 4.87076e-23)
(-0.0656698 0.0700475 5.11655e-23)
(-0.0663699 0.0717115 2.75435e-20)
(-0.0664259 0.0735127 5.15752e-20)
(-0.0657843 0.0755183 -9.69708e-20)
(-0.0643914 0.0778006 4.52231e-20)
(-0.0621958 0.0804434 1.66597e-22)
(-0.0591521 0.0835487 9.2425e-23)
(-0.055242 0.0872443 7.71834e-23)
(-0.0505184 0.0916872 3.47689e-20)
(-0.0449462 0.097069 0)
(-0.0380352 0.103586 0)
(-0.000889349 0.00303939 3.75349e-20)
(-0.00303704 0.00903794 3.08882e-23)
(-0.00587274 0.0149614 -2.51128e-23)
(-0.00921075 0.0207781 -7.06143e-20)
(-0.012931 0.0264321 6.73772e-20)
(-0.0169401 0.0318613 0)
(-0.021143 0.0370085 0)
(-0.0254478 0.0418225 5.80974e-20)
(-0.0297688 0.0462613 -5.51665e-20)
(-0.0340276 0.0502947 -3.02976e-23)
(-0.0381524 0.0539065 9.91252e-20)
(-0.042078 0.0570954 4.69105e-20)
(-0.0457454 0.0598758 -8.8737e-20)
(-0.0491009 0.0622764 4.19296e-20)
(-0.0520944 0.0643392 3.95281e-20)
(-0.0546786 0.0661164 -3.73107e-20)
(-0.0568072 0.0676679 7.03551e-20)
(-0.0584339 0.0690579 9.90234e-20)
(-0.0595109 0.0703527 6.19894e-20)
(-0.059988 0.0716183 2.91052e-20)
(-0.0598118 0.0729197 -5.48641e-20)
(-0.0589253 0.0743218 0)
(-0.0572677 0.0758915 -4.95552e-23)
(-0.0547764 0.0777025 4.49431e-20)
(-0.0513882 0.0798425 4.21591e-20)
(-0.0470436 0.0824236 -7.88564e-20)
(-0.041706 0.0855933 -3.69684e-20)
(-0.0354213 0.0895368 6.88214e-20)
(-0.0282389 0.0944969 0)
(-0.0194535 0.101018 -6.01191e-20)
(-0.00105859 0.00336856 3.74894e-20)
(-0.00348468 0.00992924 -7.72522e-20)
(-0.00651622 0.016333 -3.45473e-23)
(-0.0099775 0.022551 1.91965e-23)
(-0.013752 0.0285315 0)
(-0.0177471 0.0342178 0)
(-0.021869 0.039558 0)
(-0.0260268 0.0445067 -5.80242e-20)
(-0.0301361 0.0490275 5.5097e-20)
(-0.0341192 0.0530952 -5.22874e-20)
(-0.0379053 0.0566981 -9.90164e-20)
(-0.0414304 0.0598385 3.68859e-23)
(-0.0446365 0.0625336 8.85363e-20)
(-0.0474704 0.064814 4.17731e-20)
(-0.049883 0.0667228 0)
(-0.0518273 0.0683127 -7.42788e-20)
(-0.0532572 0.0696433 1.04926e-19)
(-0.0541256 0.0707786 -9.89743e-20)
(-0.0543836 0.0717837 -6.20088e-20)
(-0.0539787 0.0727235 -1.74401e-19)
(-0.0528541 0.0736615 1.36003e-22)
(-0.0509477 0.0746607 1.37211e-22)
(-0.048192 0.0757864 -4.27077e-23)
(-0.044515 0.0771113 -8.98156e-20)
(-0.0398418 0.0787243 1.2583e-19)
(-0.0340981 0.0807443 4.33973e-22)
(-0.0272344 0.0833361 0)
(-0.0192911 0.0867127 -6.88199e-20)
(-0.0102277 0.0912187 6.38942e-20)
(0.000521149 0.097724 6.06262e-20)
(-0.00123715 0.00366091 0)
(-0.00395918 0.0107189 -3.86252e-20)
(-0.00720414 0.0175451 3.69013e-20)
(-0.0108046 0.0241125 7.05524e-20)
(-0.0146464 0.0303732 3.36663e-20)
(-0.0186371 0.036275 -6.40912e-20)
(-0.0226835 0.0417713 1.53764e-23)
(-0.0266954 0.0468223 -5.79746e-20)
(-0.0305889 0.0513968 0)
(-0.0342871 0.0554747 5.21543e-20)
(-0.0377201 0.0590485 0)
(-0.0408244 0.062124 0)
(-0.043543 0.0647209 -8.8397e-20)
(-0.0458233 0.0668716 -8.34725e-20)
(-0.0476168 0.06862 1.1803e-19)
(-0.0488767 0.070019 7.42781e-20)
(-0.0495568 0.0711277 -1.67553e-22)
(-0.0496096 0.0720089 -6.57595e-20)
(-0.0489846 0.0727265 1.23491e-19)
(-0.0476272 0.0733433 6.86842e-24)
(-0.0454772 0.0739204 1.08716e-19)
(-0.0424678 0.074518 0)
(-0.0385248 0.0751977 0)
(-0.033567 0.0760288 8.91325e-20)
(-0.0275076 0.0770983 -1.25479e-19)
(-0.0202564 0.0785284 1.17433e-19)
(-0.0117484 0.0804984 -7.27665e-20)
(-0.0020149 0.083263 6.79718e-20)
(0.00905577 0.0872877 -1.27365e-19)
(0.0220037 0.0935844 6.02708e-20)
(-0.00142345 0.00391877 -3.75046e-20)
(-0.00445635 0.0114122 0)
(-0.0079306 0.0186043 0)
(-0.0116849 0.0254693 -7.05237e-20)
(-0.0156063 0.0319627 1.34536e-19)
(-0.0196018 0.0380367 -6.40679e-20)
(-0.0235779 0.04365 2.35972e-23)
(-0.0274446 0.0487681 5.79374e-20)
(-0.0311182 0.0533652 0)
(-0.0345222 0.0574262 -5.00454e-23)
(-0.0375871 0.0609477 -4.8845e-23)
(-0.04025 0.0639391 -9.33839e-20)
(-0.0424543 0.0664224 1.31223e-22)
(-0.0441479 0.0684318 -4.16158e-20)
(-0.0452825 0.0700117 -1.17805e-19)
(-0.0458114 0.0712148 7.39306e-20)
(-0.0456879 0.0720998 -6.97309e-20)
(-0.0448635 0.072728 1.30828e-19)
(-0.0432864 0.0731614 -1.23057e-19)
(-0.0408995 0.0734605 -1.15522e-19)
(-0.0376391 0.0736833 -1.85418e-22)
(-0.0334336 0.0738857 -5.08399e-20)
(-0.0282022 0.0741247 4.74408e-20)
(-0.0218547 0.0744637 -5.68647e-22)
(-0.0142922 0.074984 -1.24585e-19)
(-0.00540781 0.0758059 -7.74815e-20)
(0.00488335 0.0771174 1.45119e-19)
(0.016561 0.0792116 -1.35531e-19)
(0.0297815 0.0826712 6.34708e-20)
(0.0451771 0.0887491 4.14565e-22)
(-0.00161633 0.00414502 1.12555e-19)
(-0.00497292 0.0120159 -3.85897e-20)
(-0.00869066 0.0195192 -7.38769e-20)
(-0.0126122 0.0266306 2.11563e-19)
(-0.0166242 0.0333087 3.84275e-24)
(-0.0206324 0.0395104 0)
(-0.0245422 0.0451994 0)
(-0.0282632 0.0503471 5.78853e-20)
(-0.0317117 0.054933 -5.49541e-20)
(-0.0348109 0.0589471 5.21053e-20)
(-0.0374914 0.0623903 -4.92792e-20)
(-0.0396905 0.0652755 -9.31546e-20)
(-0.0413516 0.0676273 1.76291e-19)
(-0.0424229 0.0694812 -4.16158e-20)
(-0.0428556 0.0708825 7.84647e-20)
(-0.0426027 0.0718837 -1.47681e-19)
(-0.0416166 0.0725425 1.72162e-22)
(-0.0398474 0.0729189 -3.35759e-24)
(-0.037241 0.0730727 1.22698e-19)
(-0.0337374 0.0730618 6.02816e-24)
(-0.0292692 0.0729407 0)
(-0.0237594 0.0727607 0)
(-0.0171205 0.0725726 -4.72215e-20)
(-0.00925334 0.0724321 -1.77244e-19)
(-4.66554e-05 0.0724113 1.24388e-19)
(0.0106236 0.0726223 3.95372e-22)
(0.0228656 0.0732534 -1.44308e-19)
(0.0366721 0.0746241 1.34798e-19)
(0.0522309 0.0774321 -6.29701e-20)
(0.070377 0.083299 5.88905e-20)
(-0.00181505 0.004343 0)
(-0.00550655 0.0125376 0)
(-0.00948038 0.0203003 7.39078e-20)
(-0.0135807 0.0276077 -1.41092e-19)
(-0.0176926 0.0344225 -3.29061e-24)
(-0.0217194 0.0407062 -6.40588e-20)
(-0.0255649 0.0464283 1.82807e-19)
(-0.0291376 0.0515659 -1.73654e-19)
(-0.0323531 0.0561045 -1.18161e-23)
(-0.0351342 0.060039 -5.20773e-20)
(-0.037411 0.0633752 -1.4774e-19)
(-0.0391206 0.0661296 1.39842e-19)
(-0.040206 0.0683293 0)
(-0.0406147 0.0700116 0)
(-0.0402972 0.0712224 7.83292e-20)
(-0.0392053 0.0720142 1.47214e-19)
(-0.0372897 0.0724438 -6.94138e-20)
(-0.0344981 0.0725697 0)
(-0.0307735 0.0724498 -6.10716e-20)
(-0.0260519 0.0721391 1.96517e-22)
(-0.0202609 0.0716887 -5.35102e-20)
(-0.0133176 0.0711453 0)
(-0.00512684 0.070553 -4.66621e-20)
(0.00442003 0.0699585 4.41621e-20)
(0.0154466 0.0694218 -8.21681e-20)
(0.0280945 0.0690408 2.30871e-19)
(0.0424976 0.0689935 3.2491e-23)
(0.0586636 0.0696079 6.67733e-20)
(0.0768001 0.0716841 0)
(0.0980906 0.0773286 -5.87684e-20)
(-0.00201936 0.00451627 -7.51764e-20)
(-0.00605579 0.012986 7.72837e-20)
(-0.0102967 0.0209588 3.8098e-23)
(-0.0145852 0.0284137 -7.05694e-20)
(-0.0188038 0.0353174 0)
(-0.0228522 0.0416371 -1.28173e-19)
(-0.0266322 0.0473484 1.67955e-23)
(-0.0300505 0.0524346 5.78529e-20)
(-0.0330214 0.0568876 1.21205e-23)
(-0.0354668 0.0607079 7.14185e-23)
(-0.0373159 0.0639062 1.47782e-19)
(-0.038505 0.0665028 4.64993e-20)
(-0.0389759 0.0685279 4.38655e-20)
(-0.0386749 0.0700206 -8.28155e-20)
(-0.0375509 0.0710276 7.82299e-20)
(-0.0355533 0.0716015 -7.3619e-20)
(-0.03263 0.0717984 6.90626e-20)
(-0.028725 0.0716756 -6.50921e-20)
(-0.023777 0.0712891 0)
(-0.0177164 0.0706917 -5.71538e-20)
(-0.0104643 0.0699312 1.0718e-19)
(-0.00193001 0.0690501 4.99126e-20)
(0.00799049 0.0680864 -4.64907e-20)
(0.0194166 0.0670774 1.7536e-19)
(0.0324849 0.0660696 -4.10862e-20)
(0.047354 0.0651417 7.63418e-20)
(0.0641858 0.0644503 -7.12271e-20)
(0.0830042 0.0643095 -3.55267e-23)
(0.104015 0.0655881 0)
(0.12896 0.0709889 -1.15208e-19)
(-0.00222936 0.00466851 -8.45414e-24)
(-0.00661996 0.0133697 -7.73612e-20)
(-0.0111371 0.021507 0)
(-0.015621 0.0290624 -7.06748e-20)
(-0.0199496 0.0360082 6.73354e-20)
(-0.0240188 0.0423178 -2.52994e-23)
(-0.0277275 0.0479736 0)
(-0.0309801 0.0529662 2.72688e-23)
(-0.0336892 0.057294 -5.48394e-20)
(-0.0357752 0.060964 5.20553e-20)
(-0.0371658 0.0639918 0)
(-0.0377957 0.0664023 -9.29247e-20)
(-0.0376049 0.0682287 8.78502e-20)
(-0.0365373 0.0695125 0)
(-0.0345391 0.0703015 0)
(-0.0315559 0.0706486 0)
(-0.0275312 0.0706095 0)
(-0.0224037 0.0702406 6.47224e-20)
(-0.0161054 0.0695967 -6.09587e-20)
(-0.0085592 0.0687288 1.71188e-19)
(0.00032268 0.0676824 -1.06877e-19)
(0.010641 0.0664967 -9.9981e-20)
(0.0225111 0.0652047 1.40605e-19)
(0.0360651 0.0638357 -3.36931e-22)
(0.0514533 0.0624225 -8.14625e-20)
(0.0688512 0.0610225 -7.63398e-20)
(0.0884489 0.0597615 -7.08617e-20)
(0.110288 0.0589139 1.32105e-19)
(0.134529 0.0593591 -1.23061e-19)
(0.163773 0.0644999 2.29522e-19)
(-0.00244552 0.00480328 1.50625e-19)
(-0.00719894 0.0136974 -3.53001e-23)
(-0.0119996 0.0219566 -1.48188e-19)
(-0.0166825 0.0295679 1.41432e-19)
(-0.0211204 0.0365101 -6.74448e-20)
(-0.0252046 0.042764 -6.41448e-20)
(-0.0288303 0.04832 6.10267e-20)
(-0.0318994 0.0531763 5.78825e-20)
(-0.0343221 0.0573389 -1.09899e-19)
(-0.0360166 0.0608214 -1.56015e-19)
(-0.0369087 0.0636456 -4.90483e-20)
(-0.0369304 0.0658408 1.8596e-19)
(-0.036019 0.0674441 -2.63297e-19)
(-0.0341148 0.0684994 8.28518e-20)
(-0.0311594 0.0690561 0)
(-0.0270932 0.0691679 0)
(-0.0218532 0.0688907 0)
(-0.0153703 0.0682804 1.29214e-19)
(-0.00756744 0.0673913 -6.08206e-20)
(0.00164294 0.0662734 -5.68738e-20)
(0.0123606 0.0649711 -1.06561e-19)
(0.0246994 0.0635219 9.97099e-20)
(0.038789 0.0619556 -4.67262e-20)
(0.0547765 0.0602958 -8.73217e-20)
(0.0728276 0.0585645 -5.46084e-23)
(0.0931332 0.0567979 -1.51315e-19)
(0.11591 0.0550866 2.12265e-19)
(0.141222 0.0536417 -1.98164e-19)
(0.169099 0.0532654 6.19797e-20)
(0.203422 0.0581558 -5.7102e-20)
(-0.00266851 0.00492388 -7.53647e-20)
(-0.00779292 0.0139771 7.75528e-20)
(-0.012882 0.022319 7.41302e-20)
(-0.0177638 0.0299439 -2.1241e-19)
(-0.0223051 0.0368384 6.74696e-20)
(-0.0263918 0.0429922 6.42515e-20)
(-0.0299155 0.0484044 0)
(-0.0327746 0.0530823 0)
(-0.0348767 0.0570399 5.49368e-20)
(-0.0361372 0.0602985 1.04048e-19)
(-0.0364788 0.062886 -1.96716e-19)
(-0.0358301 0.0648373 1.19657e-22)
(-0.0341241 0.0661935 0)
(-0.0312961 0.0670016 0)
(-0.0272812 0.0673132 -7.76995e-20)
(-0.0220124 0.0671831 2.67347e-22)
(-0.0154175 0.0666681 6.89212e-20)
(-0.00741697 0.0658245 -6.46368e-20)
(0.00207865 0.0647067 -1.21008e-19)
(0.0131707 0.0633651 1.13644e-19)
(0.0259744 0.0618443 5.30082e-20)
(0.0406201 0.0601819 -1.49102e-19)
(0.0572551 0.0584072 -9.26809e-20)
(0.0760438 0.0565413 8.74005e-20)
(0.0971681 0.0545994 8.12199e-20)
(0.120832 0.052601 7.56821e-20)
(0.147272 0.0506023 0)
(0.176584 0.048739 0)
(0.208528 0.0476172 1.21803e-19)
(0.248827 0.0523213 0)
(-0.00289912 0.00503315 7.56339e-20)
(-0.00840206 0.0142156 -7.77601e-20)
(-0.0137815 0.0226043 1.48668e-19)
(-0.0188572 0.0302027 -1.22524e-22)
(-0.0234895 0.0370075 0)
(-0.0275587 0.0430184 0)
(-0.030952 0.0482446 0)
(-0.0335645 0.0527033 -5.79647e-20)
(-0.0353001 0.0564176 5.50402e-20)
(-0.0360708 0.059417 0)
(-0.0357952 0.0617364 9.84239e-20)
(-0.0343972 0.0634168 9.31091e-20)
(-0.0318039 0.0645041 -8.74052e-20)
(-0.0279436 0.0650488 8.27625e-20)
(-0.0227429 0.0651052 -1.21398e-22)
(-0.0161243 0.0647302 -7.32668e-20)
(-0.00800383 0.0639821 -6.86493e-20)
(0.00171211 0.0629186 1.93158e-19)
(0.0131287 0.0615953 6.04237e-20)
(0.0263647 0.0600641 -1.13135e-19)
(0.0415543 0.0583717 -5.28689e-20)
(0.0588479 0.0565576 4.99541e-20)
(0.0784125 0.0546534 0)
(0.100431 0.0526816 -8.63816e-20)
(0.125101 0.0506555 -8.05904e-20)
(0.152634 0.048585 0)
(0.183273 0.0464991 6.98923e-20)
(0.217165 0.0444654 -1.30687e-19)
(0.253589 0.0427448 -1.82746e-19)
(0.300807 0.0474117 0)
(-0.00313808 0.00513329 -1.51346e-19)
(-0.00902605 0.0144185 7.79953e-20)
(-0.014694 0.0228207 -1.48917e-19)
(-0.019953 0.0303552 -1.45309e-22)
(-0.0246562 0.0370304 0)
(-0.0286785 0.0428577 0)
(-0.0319024 0.0478579 6.12666e-20)
(-0.0342189 0.052059 1.16261e-19)
(-0.035528 0.0554941 0)
(-0.0357372 0.0582017 0)
(-0.0347599 0.0602248 -1.96865e-19)
(-0.0325137 0.0616107 9.29857e-20)
(-0.0289179 0.0624107 -1.48187e-22)
(-0.0238914 0.0626799 0)
(-0.0173496 0.062476 1.79268e-22)
(-0.0092017 0.0618588 7.32114e-20)
(0.000651672 0.060889 -4.98913e-23)
(0.0123215 0.0596266 -2.57795e-19)
(0.0259322 0.0581299 -6.04856e-20)
(0.0416236 0.0564539 1.13133e-19)
(0.0595518 0.0546485 1.0549e-19)
(0.079889 0.0527578 -1.48901e-22)
(0.102823 0.0508181 9.22855e-20)
(0.128553 0.0488566 1.72525e-19)
(0.157287 0.0468903 8.05876e-20)
(0.189234 0.0449265 7.48941e-20)
(0.224622 0.0429776 6.96243e-20)
(0.263674 0.041079 1.29863e-19)
(0.304911 0.0389698 -7.50202e-22)
(0.359928 0.043855 5.46252e-20)
(-0.00338585 0.00522571 1.51926e-19)
(-0.00966366 0.0145894 -2.34245e-19)
(-0.0156137 0.0229741 1.49263e-19)
(-0.0210383 0.0304094 1.42422e-19)
(-0.0257834 0.0369178 6.7809e-20)
(-0.0297185 0.0425238 -7.78202e-23)
(-0.0327212 0.047261 -6.12479e-20)
(-0.034678 0.0511693 -1.16261e-19)
(-0.0354842 0.0542931 2.29095e-22)
(-0.0350417 0.0566804 2.0859e-19)
(-0.0332574 0.0583832 -9.88058e-20)
(-0.0300406 0.0594557 1.85931e-19)
(-0.0253007 0.0599558 -3.28935e-22)
(-0.0189445 0.0599436 -1.65177e-19)
(-0.0108731 0.0594812 1.67259e-22)
(-0.000979408 0.0586324 0)
(0.010855 0.0574612 3.42586e-19)
(0.0247617 0.0560315 6.42093e-20)
(0.0408879 0.0544054 0)
(0.0593965 0.0526423 5.62675e-20)
(0.0804668 0.0507977 -5.29248e-20)
(0.104293 0.0489216 1.96996e-19)
(0.131078 0.0470572 -2.76639e-19)
(0.161035 0.0452393 8.60944e-20)
(0.194369 0.043492 0)
(0.23127 0.0418268 7.4482e-20)
(0.27191 0.0402469 -1.39067e-19)
(0.316633 0.0388237 1.29307e-19)
(0.362868 0.0365758 -1.20445e-19)
(0.426329 0.0420401 -1.10773e-19)
(-0.00364248 0.00531095 -1.52227e-19)
(-0.0103123 0.0147298 -2.30775e-22)
(-0.0165323 0.0230677 -7.47244e-20)
(-0.0220965 0.030371 -7.12961e-20)
(-0.0268443 0.036678 -1.36071e-19)
(-0.0306394 0.0420281 6.47292e-20)
(-0.0333546 0.046469 1.84353e-24)
(-0.0348716 0.0500538 -1.16555e-19)
(-0.0350798 0.0528388 -1.65302e-19)
(-0.0338745 0.0548829 3.18115e-22)
(-0.0311541 0.056247 9.87102e-20)
(-0.0268177 0.0569942 -1.85992e-19)
(-0.0207624 0.0571889 8.79235e-20)
(-0.0128798 0.0568976 8.26324e-20)
(-0.0030538 0.0561878 1.78531e-22)
(0.00884256 0.0551282 7.31617e-20)
(0.0229495 0.0537878 -1.37048e-19)
(0.0394224 0.0522353 0)
(0.0584326 0.0505382 -1.20321e-19)
(0.080167 0.048762 1.1262e-19)
(0.104826 0.0469689 -1.05328e-19)
(0.132621 0.0452165 -9.85881e-20)
(0.163766 0.0435564 0)
(0.198466 0.0420319 -2.57296e-19)
(0.236909 0.0406766 3.36816e-22)
(0.27924 0.0395086 -3.72713e-19)
(0.325524 0.0385212 2.08741e-19)
(0.376253 0.0379166 -2.58178e-19)
(0.427468 0.0357868 1.20438e-19)
(0.49958 0.0422618 -1.09229e-19)
(-0.00390736 0.00538859 7.62267e-20)
(-0.0109675 0.0148391 7.8426e-20)
(-0.0174385 0.0231017 7.5186e-20)
(-0.0231069 0.0302421 -1.51273e-22)
(-0.0278061 0.036316 -1.25815e-22)
(-0.0313947 0.0413793 0)
(-0.0337402 0.0454951 0)
(-0.0347187 0.0487308 0)
(-0.034213 0.0511556 0)
(-0.0321103 0.0528399 0)
(-0.0282987 0.0538549 9.87393e-20)
(-0.0226647 0.0542727 -9.30188e-20)
(-0.0150901 0.054166 8.80105e-20)
(-0.00544879 0.0536081 -1.66658e-22)
(0.00639568 0.0526733 -7.76853e-20)
(0.0205929 0.0514365 1.71916e-22)
(0.0373075 0.0499729 -1.36977e-19)
(0.0567194 0.0483576 1.28397e-19)
(0.0790243 0.0466648 1.20318e-19)
(0.10443 0.0449673 -1.12332e-19)
(0.133154 0.0433352 2.109e-19)
(0.165412 0.0418344 0)
(0.201411 0.040525 -1.83351e-19)
(0.241332 0.0394588 6.80235e-22)
(0.285314 0.0386772 6.71576e-22)
(0.333419 0.0382054 8.20244e-22)
(0.385549 0.0380122 -6.88586e-20)
(0.442334 0.0385332 1.28871e-19)
(0.498277 0.0367556 1.1982e-19)
(0.578579 0.0446767 5.68483e-20)
(-0.00417906 0.0054572 0)
(-0.0116226 0.0149142 7.88342e-20)
(-0.0183171 0.0230734 -7.50343e-20)
(-0.0240436 0.0300215 -8.46579e-23)
(-0.0286301 0.0358335 1.36819e-19)
(-0.0319301 0.0405832 -6.51075e-20)
(-0.033806 0.0443502 0)
(-0.0341275 0.0472173 0)
(-0.0327698 0.0492673 -1.10696e-19)
(-0.0296099 0.0505832 1.05013e-19)
(-0.0245239 0.0512474 9.90887e-20)
(-0.0173831 0.0513418 0)
(-0.00805144 0.0509483 8.79961e-20)
(0.00361751 0.0501485 0)
(0.0177832 0.0490245 -1.55294e-19)
(0.0346197 0.0476588 2.19026e-19)
(0.0543164 0.046134 2.0531e-19)
(0.0770774 0.044533 -6.43802e-20)
(0.103119 0.0429379 -3.48922e-22)
(0.132662 0.0414297 -1.68941e-19)
(0.165929 0.0400867 0)
(0.203124 0.0389827 0)
(0.244424 0.0381851 9.17841e-20)
(0.28995 0.0377514 1.70919e-19)
(0.339752 0.037727 -2.1076e-22)
(0.393769 0.03814 1.48694e-19)
(0.451687 0.0389137 1.38367e-19)
(0.514181 0.0407862 0)
(0.574383 0.0395583 -1.19811e-19)
(0.661547 0.0492783 1.64615e-19)
(-0.00445517 0.00551443 7.71274e-20)
(-0.0122682 0.01495 0)
(-0.019149 0.022977 1.24819e-22)
(-0.0248754 0.0297048 -7.21402e-20)
(-0.0292707 0.035229 6.88074e-20)
(-0.0321837 0.0396425 6.52075e-20)
(-0.0334713 0.0430426 -1.55653e-22)
(-0.0329961 0.0455282 5.88473e-20)
(-0.0306242 0.0471967 0)
(-0.0262211 0.0481446 -2.10107e-19)
(-0.0196483 0.0484661 3.12534e-22)
(-0.0107598 0.0482544 0)
(0.000600513 0.0476012 8.80049e-20)
(0.0146019 0.0465979 -2.48579e-19)
(0.0314278 0.0453354 7.80471e-20)
(0.0512772 0.0439052 -7.28647e-20)
(0.0743625 0.0423987 -1.37072e-19)
(0.100907 0.0409074 -1.9286e-19)
(0.13114 0.039522 0)
(0.165284 0.0383318 0)
(0.203544 0.0374224 1.05132e-19)
(0.24609 0.0368739 9.78876e-20)
(0.293031 0.0367574 -9.19578e-20)
(0.344394 0.0371313 0)
(0.400088 0.038038 0)
(0.459876 0.0394997 0)
(0.523207 0.0413813 1.37826e-19)
(0.590586 0.0447003 -6.38614e-20)
(0.654418 0.0441927 1.20341e-19)
(0.746096 0.0558969 1.0689e-19)
(-0.00473215 0.0055571 -1.54457e-19)
(-0.0128921 0.0149391 7.94969e-20)
(-0.0199109 0.0228041 -7.61456e-20)
(-0.0255655 0.0292845 7.26006e-20)
(-0.0296757 0.0344978 -6.88073e-20)
(-0.0320857 0.038557 6.54528e-20)
(-0.0326465 0.0415779 -6.22708e-20)
(-0.0312128 0.0436763 -1.17662e-19)
(-0.0276402 0.0449654 1.11719e-19)
(-0.0217809 0.0455553 2.10781e-19)
(-0.0134799 0.0455536 9.92169e-20)
(-0.00257191 0.0450652 -9.39544e-20)
(0.0111212 0.0441932 1.92287e-22)
(0.0277922 0.0430395 1.53407e-22)
(0.0476484 0.0417055 7.81678e-20)
(0.0709111 0.0402924 0)
(0.0978109 0.0389015 1.37108e-19)
(0.128582 0.0376332 3.21085e-19)
(0.16345 0.036587 -6.03299e-20)
(0.202621 0.0358591 0)
(0.246258 0.0355403 -2.10278e-19)
(0.294459 0.0357127 -9.81819e-20)
(0.347228 0.0364459 -9.12996e-20)
(0.404445 0.0377909 8.57189e-20)
(0.465832 0.0397784 -7.92729e-20)
(0.530917 0.0424094 7.43462e-20)
(0.598925 0.0455082 -2.42937e-22)
(0.669869 0.0501944 1.27541e-19)
(0.736605 0.0506053 -1.19188e-19)
(0.829321 0.0642545 -2.15255e-19)
(-0.0050053 0.00558131 7.79496e-20)
(-0.0134788 0.0148728 7.99166e-20)
(-0.0205747 0.0225439 -2.04045e-22)
(-0.0260714 0.0287506 3.6952e-22)
(-0.0297863 0.0336325 0)
(-0.0315591 0.0373237 -2.48709e-22)
(-0.0312343 0.0399594 -1.87709e-19)
(-0.0286579 0.0416728 0)
(-0.0236737 0.0425933 -1.12172e-19)
(-0.0161187 0.0428461 -4.22896e-19)
(-0.00582002 0.0425524 9.99747e-20)
(0.00740839 0.0418301 -9.41232e-20)
(0.0237671 0.0407946 -1.76547e-19)
(0.0434716 0.0395595 1.66643e-19)
(0.0667505 0.0382376 0)
(0.0938416 0.0369407 7.30456e-20)
(0.124984 0.03578 -2.0637e-19)
(0.160408 0.0348651 -6.44488e-20)
(0.200318 0.0343022 -1.80846e-19)
(0.244871 0.0341922 0)
(0.294157 0.0346267 2.10355e-19)
(0.348159 0.0356835 9.81765e-20)
(0.406731 0.0374218 0)
(0.469556 0.0398754 8.53649e-20)
(0.536122 0.0430518 0)
(0.605677 0.0469109 -7.36456e-20)
(0.67726 0.0512939 -2.05858e-19)
(0.750035 0.0570728 -2.54838e-19)
(0.818851 0.0587737 -1.18252e-19)
(0.907838 0.0740517 -3.29528e-21)
(-0.00526869 0.0055827 -7.79496e-20)
(-0.01401 0.0147409 2.78164e-22)
(-0.0211081 0.0221841 7.67827e-20)
(-0.0263452 0.0280909 -7.297e-20)
(-0.0295375 0.0326237 -6.95353e-20)
(-0.03052 0.035938 1.31923e-19)
(-0.0291304 0.0381887 6.28839e-20)
(-0.0252048 0.0395272 1.19034e-19)
(-0.0185741 0.0400998 1.12137e-19)
(-0.00905894 0.0400471 1.06389e-19)
(0.00353261 0.0395052 2.00595e-19)
(0.0194074 0.0386056 -3.1344e-22)
(0.0387875 0.0374771 0)
(0.061908 0.0362459 -8.32536e-20)
(0.0890126 0.0350364 -3.44963e-22)
(0.120346 0.0339716 1.75014e-22)
(0.156141 0.0331721 2.06495e-19)
(0.196603 0.0327548 0)
(0.241886 0.0328303 1.20452e-19)
(0.292068 0.0334991 0)
(0.347119 0.0348468 9.9219e-23)
(0.406867 0.0369381 -9.78777e-20)
(0.470961 0.0398107 1.83211e-19)
(0.538847 0.0434677 -8.56994e-20)
(0.609748 0.0478808 -1.58843e-19)
(0.682611 0.0529486 7.41292e-20)
(0.756331 0.0585979 2.74502e-19)
(0.829059 0.0650382 6.33528e-20)
(0.898956 0.0687654 2.94078e-19)
(0.97809 0.0846879 5.58713e-20)
(-0.00551522 0.00555666 7.86979e-20)
(-0.0144643 0.0145329 -1.61552e-19)
(-0.0214742 0.0217115 0)
(-0.0263338 0.0272927 0)
(-0.0288586 0.031461 6.99186e-20)
(-0.0288788 0.0343938 -2.71712e-22)
(-0.0262248 0.0362663 -1.25777e-19)
(-0.0207221 0.0372485 -1.19125e-19)
(-0.0121874 0.0375037 5.1962e-22)
(-0.000424784 0.0371889 4.84146e-22)
(0.0147769 0.0364554 -1.00266e-19)
(0.033644 0.0354496 1.88765e-19)
(0.0564166 0.0343139 -1.77969e-19)
(0.0833433 0.0331877 8.38701e-20)