/*--------------------------------*- C++ -*----------------------------------*\
  =========                 |
  \\      /  F ield         | OpenFOAM: The Open Source CFD Toolbox
   \\    /   O peration     | Website:  https://openfoam.org
    \\  /    A nd           | Version:  7
     \\/     M anipulation  |
\*---------------------------------------------------------------------------*/
FoamFile
{
    version     2.0;
    format      ascii;
    class       volVectorField;
    location    "60";
    object      U;
}
// * * * * * * * * * * * * * * * * * * * * * * * * * * * * * * * * * * * * * //

dimensions      [0 1 -1 0 0 0 0];

internalField   nonuniform List<vector> 
183
(
(0.860618 0.583808 -2.01301e-22)
(0.886957 0.436072 -2.43102e-22)
(0.852344 0.584334 8.96885e-22)
(0.881924 0.431851 1.18868e-21)
(0.938623 0.167227 2.37513e-22)
(0.843803 0.584485 -5.75583e-23)
(0.876103 0.427851 -1.21074e-21)
(0.936155 0.162435 1.79925e-22)
(0.834945 0.584322 1.84932e-21)
(0.869556 0.424095 -7.42011e-22)
(0.933361 0.157797 1.73666e-21)
(0.825723 0.583903 1.49098e-21)
(0.862368 0.420595 5.04305e-22)
(0.930366 0.153289 2.62844e-22)
(0.816104 0.583282 -3.963e-21)
(0.854643 0.417353 -1.77588e-21)
(0.927291 0.148888 -1.45974e-21)
(0.806064 0.582502 -4.09901e-21)
(0.846496 0.414362 5.69504e-21)
(0.924245 0.144578 -1.12172e-21)
(0.795596 0.581603 2.15477e-21)
(0.838049 0.411608 1.8023e-21)
(0.92133 0.140347 3.55541e-21)
(0.784712 0.580612 -5.25864e-21)
(0.829426 0.40907 -1.63024e-21)
(0.918629 0.136198 -1.95652e-21)
(0.820752 0.406724 -9.79046e-22)
(0.916215 0.132127 1.36603e-21)
(0.81214 0.40455 1.86858e-21)
(0.914147 0.128133 2.25755e-21)
(0.803697 0.402522 -1.29991e-21)
(0.912473 0.124242 -2.97056e-21)
(0.795515 0.400618 1.60687e-21)
(0.911232 0.120464 -3.17435e-22)
(0.787673 0.39882 -5.30279e-21)
(0.910459 0.116808 -6.03902e-22)
(0.780233 0.39711 7.21621e-21)
(0.910192 0.113311 -5.65797e-21)
(0.773248 0.395472 -6.23461e-21)
(0.910481 0.110001 8.22755e-21)
(0.766764 0.393891 -2.01004e-21)
(0.911399 0.106883 -1.79734e-21)
(0.760831 0.39234 5.39434e-21)
(0.91307 0.103928 -3.05263e-21)
(0.755528 0.390815 1.39257e-21)
(0.915717 0.101223 -5.13301e-21)
(0.751127 0.389644 -1.46182e-21)
(0.919785 0.0994846 9.86059e-22)
(0.749078 0.388921 -3.59274e-22)
(0.926187 0.0979649 -2.03474e-21)
(0.771415 0.360888 0)
(0.956001 0.0702327 0)
(0.859631 0.251593 0)
(1.04055 -0.0179873 0)
(0.987595 0.148416 0)
(1.12294 -0.0609797 0)
(1.10487 0.0615039 0)
(1.18496 -0.0905381 0)
(1.18577 0.00921039 0)
(1.2099 -0.0965408 0)
(1.21441 -0.0122828 0)
(1.20545 -0.087486 0)
(1.20511 -0.0165362 0)
(1.18307 -0.0760118 0)
(1.18273 -0.0146727 0)
(1.15899 -0.0631129 0)
(1.15916 -0.012157 0)
(1.13795 -0.0525659 0)
(1.13854 -0.0102874 0)
(1.12092 -0.0433406 0)
(1.12128 -0.00896361 0)
(1.10686 -0.0358199 0)
(1.10705 -0.00797816 0)
(1.09515 -0.0296504 0)
(1.09548 -0.00710136 0)
(1.08546 -0.0245824 0)
(1.08617 -0.00625964 0)
(1.07765 -0.0203599 0)
(1.07875 -0.00541521 0)
(1.07146 -0.0167514 0)
(1.07284 -0.00455951 0)
(1.06662 -0.0135853 0)
(1.06815 -0.00370647 0)
(1.06285 -0.010743 0)
(1.06457 -0.00286573 0)
(1.06001 -0.00813784 0)
(1.06202 -0.00203632 0)
(1.05801 -0.00569994 0)
(1.06037 -0.0012192 0)
(1.05673 -0.00337549 0)
(1.05954 -0.000402504 0)
(1.05609 -0.00111466 0)
(0.909458 0.450274 0)
(0.891166 0.377998 0)
(0.897448 0.325382 0)
(0.898497 0.247896 0)
(0.91085 0.188973 0)
(0.920141 0.136542 0)
(0.926952 0.0982481 0)
(0.939974 0.0694436 0)
(0.957779 0.0477464 0)
(0.976384 0.0323296 0)
(0.992387 0.0219015 0)
(1.00492 0.0150039 0)
(1.01446 0.0105112 0)
(1.0217 0.00757304 0)
(1.02717 0.00563533 0)
(1.03125 0.00429122 0)
(1.03432 0.00329122 0)
(1.03662 0.00246462 0)
(1.03825 0.00172331 0)
(1.03923 0.0010187 0)
(1.03965 0.000337251 0)
(0.821605 0.32626 0)
(0.78484 0.258081 0)
(0.752159 0.23096 0)
(0.736664 0.156017 0)
(0.763384 0.0920771 0)
(0.813896 0.0267507 0)
(0.863368 -0.0110379 0)
(0.904254 -0.0270184 0)
(0.939141 -0.0285905 0)
(0.968896 -0.0248131 0)
(0.992468 -0.0200729 0)
(1.00992 -0.0158898 0)
(1.02237 -0.0124809 0)
(1.03098 -0.00978263 0)
(1.03671 -0.00763701 0)
(1.04034 -0.00590948 0)
(1.04257 -0.00448134 0)
(1.04395 -0.00327777 0)
(1.04478 -0.00223603 0)
(1.0452 -0.00130568 0)
(1.04534 -0.00043009 0)
(0.899958 0.465563 2.51741e-22)
(0.838724 0.313743 3.057e-21)
(0.897441 0.471117 6.48314e-21)
(0.844564 0.308955 -2.06895e-21)
(0.895561 0.475653 -7.33412e-22)
(0.850791 0.302567 2.8526e-21)
(0.894256 0.478781 4.23139e-22)
(0.857482 0.295414 -6.32029e-21)
(0.893464 0.481028 6.4948e-22)
(0.864642 0.288147 5.14054e-21)
(0.893129 0.482649 8.34642e-21)
(0.872189 0.280778 -8.87104e-21)
(0.893194 0.4836 -3.02135e-21)
(0.879991 0.273254 1.22302e-20)
(0.893605 0.483814 -6.00376e-22)
(0.887898 0.265616 1.35732e-21)
(0.894309 0.483295 -3.87509e-21)
(0.895755 0.257931 -3.36531e-21)
(0.895244 0.482083 -9.07883e-22)
(0.903404 0.250254 1.59258e-21)
(0.896332 0.480225 -4.61677e-22)
(0.910695 0.242636 5.36771e-22)
(0.897473 0.477768 1.99917e-21)
(0.917484 0.235123 2.30324e-21)
(0.930369 0.553641 3.57271e-21)
(0.898554 0.474771 -2.59963e-21)
(0.923642 0.227761 1.0326e-21)
(0.92273 0.559651 5.24776e-21)
(0.899452 0.471301 -4.7258e-21)
(0.929057 0.220588 -3.09163e-21)
(0.915083 0.564964 3.48037e-21)
(0.900042 0.467434 2.76615e-21)
(0.933639 0.213637 2.29061e-21)
(0.907432 0.569578 -1.81166e-21)
(0.900204 0.463251 -4.21656e-21)
(0.937323 0.20693 -3.42552e-21)
(0.899773 0.573502 1.62013e-22)
(0.899825 0.458836 1.84985e-21)
(0.940075 0.200482 1.17951e-21)
(0.892095 0.576755 -1.88321e-21)
(0.898805 0.454272 1.26526e-21)
(0.941889 0.194305 -1.56354e-21)
(0.884375 0.579369 -1.43215e-21)
(0.897059 0.449642 5.70382e-22)
(0.942788 0.188399 -1.23606e-21)
(0.876584 0.581382 9.45295e-23)
(0.894524 0.445021 -8.27839e-22)
(0.868681 0.582844 2.00082e-22)
(0.891162 0.440478 -7.74189e-23)
)
;

boundaryField
{
    inlet
    {
        type            uniformFixedValue;
        uniformValue    constant (1 0 0);
        value           nonuniform 0();
    }
    outlet
    {
        type            pressureInletOutletVelocity;
        value           nonuniform 0();
    }
    cylinder
    {
        type            fixedValue;
        value           nonuniform 0();
    }
    top
    {
        type            symmetryPlane;
    }
    bottom
    {
        type            symmetryPlane;
    }
    defaultFaces
    {
        type            empty;
    }
    procBoundary38to37
    {
        type            processor;
        value           nonuniform List<vector> 
86
(
(0.906086 0.4987 -6.81431e-23)
(0.892621 0.501956 2.90888e-22)
(0.879059 0.504665 3.71409e-21)
(0.865454 0.506807 2.88407e-22)
(0.851852 0.508366 -4.34306e-22)
(0.838289 0.509324 2.41044e-22)
(0.824792 0.509669 -5.82132e-22)
(0.811377 0.509391 -6.21995e-22)
(0.798053 0.508482 -7.01086e-22)
(0.773438 0.579547 -2.45469e-21)
(0.773438 0.579547 -2.45469e-21)
(0.761819 0.578415 3.03483e-21)
(0.749911 0.577215 -2.79863e-21)
(0.737784 0.575937 1.00053e-20)
(0.725514 0.574565 -3.25394e-21)
(0.713179 0.573074 2.52656e-21)
(0.700857 0.571438 -3.80636e-21)
(0.688623 0.569625 8.01813e-22)
(0.676541 0.567607 7.95953e-22)
(0.664642 0.565318 1.7263e-21)
(0.653061 0.562934 -4.3187e-21)
(0.640498 0.559415 -3.05807e-21)
(0.608113 0.554216 0)
(0.614977 0.488884 0)
(0.722196 0.373731 0)
(0.891557 0.257076 0)
(1.05663 0.168322 0)
(1.15388 0.110909 0)
(1.1789 0.0788846 0)
(1.16636 0.0587913 0)
(1.14478 0.0442697 0)
(1.125 0.0326883 0)
(1.10912 0.0236487 0)
(1.09663 0.016697 0)
(1.08684 0.0114461 0)
(1.07924 0.00755444 0)
(1.07339 0.0047326 0)
(1.06888 0.00276301 0)
(1.06536 0.00145416 0)
(1.06273 0.000645853 0)
(1.06088 0.000210279 0)
(1.0597 2.70344e-05 0)
(1.0591 -1.96707e-06 0)
(1.04326 0.401114 0)
(1.02631 0.364053 0)
(1.04073 0.304819 0)
(1.01911 0.268349 0)
(1.0126 0.224081 0)
(1.0053 0.191398 0)
(1.00665 0.153801 0)
(1.01298 0.122377 0)
(1.01993 0.0945964 0)
(1.02621 0.0729642 0)
(1.03175 0.0562168 0)
(1.03646 0.0434095 0)
(1.04028 0.033546 0)
(1.04315 0.0258597 0)
(1.04515 0.0198167 0)
(1.04641 0.0150119 0)
(1.0472 0.0111655 0)
(1.04773 0.00802392 0)
(1.04807 0.0053908 0)
(1.0482 0.00309538 0)
(1.04819 0.00100824 0)
(1.0204 0.439936 2.22198e-21)
(1.01293 0.451386 -7.76531e-22)
(1.00554 0.46209 -1.91441e-21)
(0.99817 0.472948 -9.21894e-21)
(0.990749 0.483763 6.42206e-21)
(0.983287 0.494248 -3.5367e-21)
(0.975797 0.504306 4.55083e-21)
(0.968284 0.513913 2.34478e-22)
(0.960749 0.52303 -5.61563e-21)
(0.953189 0.531606 -2.06189e-22)
(0.945604 0.539591 2.6162e-21)
(0.937996 0.546947 6.31247e-22)
(0.937996 0.546947 6.31247e-22)
(1.01399 0.449047 6.96165e-21)
(1.00368 0.456001 -1.8774e-21)
(0.9929 0.462673 3.07105e-21)
(0.981645 0.46903 -5.79566e-21)
(0.969941 0.475038 -9.16555e-22)
(0.957819 0.480663 -3.30107e-21)
(0.945321 0.485872 2.98048e-22)
(0.932496 0.490634 -1.40488e-21)
(0.919398 0.494919 3.89613e-23)
)
;
    }
    procBoundary38to39
    {
        type            processor;
        value           nonuniform List<vector> 
86
(
(0.940637 0.172193 -3.39592e-22)
(0.940637 0.172193 -3.39592e-22)
(0.992697 -0.0963541 1.13797e-21)
(0.995815 -0.0984555 3.52838e-22)
(0.998709 -0.100511 8.40053e-22)
(1.00144 -0.10253 5.84179e-22)
(1.00408 -0.104521 -3.04658e-21)
(1.00667 -0.106484 -2.45021e-21)
(1.00925 -0.108415 4.74402e-21)
(1.01186 -0.110307 -1.4596e-21)
(1.01452 -0.112152 -4.18957e-21)
(1.01726 -0.113938 1.15199e-21)
(1.0201 -0.115649 1.46386e-21)
(1.02304 -0.117272 -5.07917e-21)
(1.02611 -0.11879 -3.50746e-21)
(1.02933 -0.120181 3.73756e-21)
(1.0327 -0.121427 1.95258e-21)
(1.03624 -0.12252 1.27063e-21)
(1.03999 -0.123432 3.62015e-21)
(1.04397 -0.123994 3.77676e-21)
(1.04821 -0.123965 4.1069e-23)
(1.05268 -0.124211 -9.33136e-22)
(1.06687 -0.13366 0)
(1.11663 -0.181953 0)
(1.14568 -0.18279 0)
(1.1698 -0.17889 0)
(1.17266 -0.155626 0)
(1.16496 -0.130752 0)
(1.14988 -0.107133 0)
(1.1318 -0.087688 0)
(1.1153 -0.07254 0)
(1.10157 -0.0597259 0)
(1.09063 -0.048982 0)
(1.08182 -0.0397421 0)
(1.07458 -0.031947 0)
(1.06862 -0.0254304 0)
(1.06372 -0.0200216 0)
(1.05969 -0.0155306 0)
(1.05642 -0.0117827 0)
(1.05389 -0.00861115 0)
(1.05206 -0.00586471 0)
(1.05088 -0.00340843 0)
(1.05028 -0.00111621 0)
(0.789353 0.0317318 0)
(0.738477 -0.0141492 0)
(0.682359 -0.0271922 0)
(0.631349 -0.06994 0)
(0.637638 -0.102717 0)
(0.710334 -0.133859 0)
(0.815515 -0.145721 0)
(0.906527 -0.133817 0)
(0.965151 -0.10791 0)
(0.996859 -0.0816718 0)
(1.01343 -0.0603654 0)
(1.02288 -0.0442611 0)
(1.02895 -0.0323036 0)
(1.03316 -0.0234572 0)
(1.0362 -0.0168989 0)
(1.03843 -0.0120366 0)
(1.04009 -0.00842086 0)
(1.04133 -0.00571941 0)
(1.0422 -0.00366543 0)
(1.0427 -0.00203869 0)
(1.04291 -0.000652931 0)
(0.813352 0.0214671 1.8611e-21)
(0.822151 0.010437 6.87685e-22)
(0.831688 0.000962759 1.94118e-21)
(0.841814 -0.00798098 -5.32696e-21)
(0.852322 -0.0164556 -2.03916e-21)
(0.863058 -0.0244823 -9.51956e-21)
(0.873901 -0.0320292 6.24639e-21)
(0.884736 -0.0390719 8.2464e-21)
(0.895447 -0.0456062 -3.77653e-21)
(0.905921 -0.0516371 8.14338e-22)
(0.916051 -0.0571756 -1.57171e-21)
(0.92574 -0.0622403 2.68889e-21)
(0.934904 -0.0668559 7.57802e-21)
(0.943476 -0.0710525 -1.467e-21)
(0.95141 -0.0748651 1.79332e-21)
(0.958678 -0.0783333 -2.938e-21)
(0.965275 -0.081498 3.11724e-22)
(0.971215 -0.0844007 -3.36681e-21)
(0.976532 -0.0870834 1.08247e-21)
(0.942825 0.182755 -1.13646e-21)
(0.942825 0.182755 -1.13646e-21)
(0.942075 0.17736 -4.25869e-23)
)
;
    }
}


// ************************************************************************* //
