/*--------------------------------*- C++ -*----------------------------------*\
  =========                 |
  \\      /  F ield         | OpenFOAM: The Open Source CFD Toolbox
   \\    /   O peration     | Website:  https://openfoam.org
    \\  /    A nd           | Version:  7
     \\/     M anipulation  |
\*---------------------------------------------------------------------------*/
FoamFile
{
    version     2.0;
    format      ascii;
    class       volVectorField;
    location    "52";
    object      U;
}
// * * * * * * * * * * * * * * * * * * * * * * * * * * * * * * * * * * * * * //

dimensions      [0 1 -1 0 0 0 0];

internalField   nonuniform List<vector> 
40000
(
(-0.00017668 0.000286174 -1.84608e-21)
(-0.00110973 0.000764124 5.71908e-21)
(-0.00310618 0.00116003 -3.65023e-21)
(-0.00592339 0.0014822 -3.92886e-24)
(-0.00942769 0.00173733 -9.77768e-25)
(-0.0135289 0.0019315 2.87586e-24)
(-0.0181336 0.00207073 -6.0685e-21)
(-0.0231509 0.00216081 1.44296e-21)
(-0.0284959 0.0022072 -4.11979e-21)
(-0.0340904 0.00221492 -1.30357e-21)
(-0.0398617 0.0021886 0)
(-0.0457434 0.00213234 -4.69578e-21)
(-0.0516752 0.00204975 0)
(-0.0576028 0.00194397 0)
(-0.0634778 0.0018177 -3.9813e-21)
(-0.0692573 0.00167323 3.76191e-21)
(-0.0749042 0.00151262 -1.77641e-21)
(-0.0803867 0.00133775 -1.51579e-24)
(-0.0856784 0.00115048 1.57839e-21)
(-0.0907588 0.000952764 0)
(-0.0956132 0.000746828 -1.40048e-21)
(-0.100234 0.000535234 -3.95182e-21)
(-0.104621 0.000320961 4.95166e-21)
(-0.108784 0.000107386 -2.32533e-21)
(-0.112739 -0.000101831 6.54735e-21)
(-0.116517 -0.000302981 4.0946e-21)
(-0.120155 -0.000492749 -7.67678e-21)
(-0.123701 -0.000669007 7.19229e-21)
(-0.127202 -0.000830834 -1.68344e-21)
(-0.130728 -0.000975571 -3.15664e-21)
(-0.000205791 0.000863068 0)
(-0.00118498 0.002332 3.81647e-21)
(-0.00321415 0.00357823 7.31336e-21)
(-0.006053 0.00462334 -6.97945e-21)
(-0.00956927 0.00548389 -3.34483e-21)
(-0.0136738 0.00617477 1.2736e-20)
(-0.0182741 0.00671087 -3.04043e-21)
(-0.0232801 0.00710672 -5.78933e-21)
(-0.0286079 0.00737629 -8.94873e-24)
(-0.0341796 0.00753287 -1.56663e-20)
(-0.0399233 0.00758901 4.95045e-21)
(-0.045773 0.00755639 1.87914e-20)
(-0.0516688 0.00744583 -8.89779e-21)
(-0.0575568 0.00726719 -4.64465e-24)
(-0.0633886 0.00702949 -3.98937e-21)
(-0.0691216 0.00674096 -1.36705e-24)
(-0.0747186 0.0064092 0)
(-0.0801477 0.00604141 0)
(-0.0853823 0.0056447 1.26403e-20)
(-0.0904014 0.00522635 0)
(-0.09519 0.00479421 5.6036e-21)
(-0.0997398 0.00435695 -5.26951e-21)
(-0.10405 0.00392432 -4.31888e-25)
(-0.108129 0.00350707 0)
(-0.111993 0.00311677 8.73418e-21)
(-0.115672 0.00276511 -8.18948e-21)
(-0.119205 0.00246266 7.67677e-21)
(-0.122638 0.00221641 -7.19228e-21)
(-0.126018 0.00202985 6.7347e-21)
(-0.129417 0.0019119 -1.89423e-20)
(-0.000263546 0.00143241 -7.40024e-21)
(-0.00133421 0.00388021 -7.6277e-21)
(-0.00342781 0.00596733 0)
(-0.00630876 0.00772816 0)
(-0.00984764 0.00918877 0)
(-0.0139573 0.0103726 6.38442e-21)
(-0.0185472 0.011303 0)
(-0.0235289 0.0120032 5.78079e-21)
(-0.02882 0.0124955 1.09938e-20)
(-0.034344 0.0128011 1.04432e-20)
(-0.04003 0.0129405 0)
(-0.0458131 0.0129327 7.55805e-24)
(-0.051634 0.0127957 -1.78157e-20)
(-0.0574394 0.012546 1.68613e-20)
(-0.0631815 0.0121987 7.96641e-21)
(-0.0688178 0.0117679 7.53323e-21)
(-0.074311 0.0112667 -7.10536e-21)
(-0.0796291 0.0107074 1.34184e-20)
(-0.084745 0.0101023 -2.52892e-20)
(-0.0896369 0.00946379 -7.207e-25)
(-0.0942888 0.00880523 -2.24203e-20)
(-0.098691 0.00814132 2.10944e-20)
(-0.102841 0.00748851 0)
(-0.106746 0.00686508 0)
(-0.110422 0.00629075 8.74201e-21)
(-0.113896 0.00578575 0)
(-0.117209 0.00536861 0)
(-0.120408 0.00505207 0)
(-0.123536 0.00484323 -1.34756e-20)
(-0.12667 0.00475769 1.26277e-20)
(-0.000349074 0.00198905 7.40024e-21)
(-0.00155527 0.00539525 7.63315e-24)
(-0.0037442 0.0083073 3.70214e-23)
(-0.00668727 0.0107716 -1.39849e-20)
(-0.0102592 0.012823 -1.3364e-20)
(-0.0143759 0.0144932 1.73797e-23)
(-0.0189494 0.0158137 -2.43253e-20)
(-0.023894 0.0168157 1.1586e-20)
(-0.0291293 0.0175296 -2.20327e-20)
(-0.0345808 0.0179845 2.09281e-20)
(-0.0401792 0.0182082 -9.92919e-21)
(-0.0458611 0.0182272 1.88271e-20)
(-0.0515682 0.0180661 1.78156e-20)
(-0.0572482 0.017748 1.73926e-23)
(-0.0628538 0.0172942 -1.59607e-20)
(-0.0683429 0.0167241 0)
(-0.0736783 0.0160562 1.37964e-24)
(-0.0788274 0.0153078 1.34285e-20)
(-0.0837626 0.0144959 3.37966e-25)
(-0.088461 0.013638 -8.22564e-24)
(-0.0929049 0.0127527 2.24286e-20)
(-0.0970827 0.0118604 -2.10943e-20)
(-0.10099 0.0109843 0)
(-0.104631 0.0101502 1.86327e-20)
(-0.108019 0.00938669 4.9385e-24)
(-0.111181 0.00872318 -4.91886e-20)
(-0.114158 0.00818746 1.5368e-20)
(-0.117001 0.00779956 2.8798e-20)
(-0.119743 0.00757213 1.34755e-20)
(-0.122471 0.00752854 1.26351e-20)
(-0.000461085 0.00252803 2.97182e-20)
(-0.00184497 0.00686419 -1.53138e-20)
(-0.00415894 0.0105789 1.46446e-20)
(-0.00718347 0.0137293 1.40152e-20)
(-0.0107987 0.0163587 0)
(-0.0149241 0.0185059 -2.55881e-20)
(-0.0194756 0.0202101 -1.22104e-20)
(-0.0243703 0.0215102 -2.31919e-20)
(-0.0295311 0.0224441 1.10165e-20)
(-0.0348856 0.0230482 3.00826e-23)
(-0.0403668 0.0233577 1.98874e-20)
(-0.045913 0.0234058 1.88753e-20)
(-0.0514676 0.0232239 -3.56894e-20)
(-0.0569792 0.0228412 1.6901e-20)
(-0.0624014 0.0222848 -1.99397e-23)
(-0.0676926 0.0215795 0)
(-0.0728155 0.0207488 -1.42373e-20)
(-0.0777373 0.0198145 -2.68923e-20)
(-0.0824293 0.0187984 3.80192e-20)
(-0.0868672 0.0177224 1.19486e-20)
(-0.0910312 0.0166099 0)
(-0.0949072 0.0154869 -2.11317e-20)
(-0.0984875 0.0143832 0)
(-0.101773 0.0133324 -5.59215e-20)
(-0.104775 0.0123721 3.49841e-20)
(-0.107516 0.0115423 -5.87782e-24)
(-0.11004 0.0108819 3.07608e-20)
(-0.112399 0.0104203 -4.3197e-20)
(-0.11462 0.0101791 2.69747e-20)
(-0.116798 0.0101912 1.26369e-20)
(-0.000597898 0.00304477 -1.48795e-20)
(-0.00219915 0.0082749 1.53136e-20)
(-0.00466633 0.0127639 -1.94378e-24)
(-0.00779079 0.0165785 -4.2176e-20)
(-0.011459 0.0197691 0)
(-0.0155951 0.0223811 2.5588e-20)
(-0.0201189 0.0244608 -2.44658e-20)
(-0.0249516 0.0260538 4.64176e-20)
(-0.0300194 0.0272051 0)
(-0.0352528 0.0279581 -2.09581e-20)
(-0.0405875 0.0283548 -1.98873e-20)
(-0.0459638 0.0284348 -1.88537e-20)
(-0.051327 0.028236 -5.36515e-20)
(-0.0566271 0.0277933 3.12253e-24)
(-0.0618187 0.0271394 -1.82602e-23)
(-0.0668608 0.0263041 -1.3841e-23)
(-0.0717161 0.0253155 4.28045e-20)
(-0.0763513 0.0241999 -3.62883e-23)
(-0.0807367 0.0229829 3.30682e-23)
(-0.084846 0.0216906 -2.3865e-20)
(-0.0886573 0.0203509 -2.0708e-23)
(-0.0921529 0.0189949 4.22771e-20)
(-0.0953214 0.0176585 -5.96248e-20)
(-0.0981593 0.016383 1.86484e-20)
(-0.100673 0.0152159 0)
(-0.102884 0.0142092 0)
(-0.104834 0.013415 -3.07606e-20)
(-0.106581 0.0128759 2.88277e-20)
(-0.108139 0.0126262 -2.69692e-20)
(-0.109614 0.0127127 0)
(-0.000757495 0.00353505 -1.49319e-20)
(-0.0026128 0.00961623 0)
(-0.00525949 0.0148456 1.47114e-20)
(-0.00850127 0.0192977 8.45392e-20)
(-0.0122319 0.0230292 -2.68794e-20)
(-0.0163802 0.0260911 0)
(-0.0208711 0.0285356 -5.29564e-23)
(-0.02563 0.0304149 2.32861e-20)
(-0.0305867 0.0317801 -2.21114e-20)
(-0.0356754 0.0326812 0)
(-0.0408345 0.0331662 0)
(-0.0460069 0.0332812 -3.78379e-20)
(-0.0511399 0.0330697 5.36809e-20)
(-0.0561851 0.0325723 -1.69313e-20)
(-0.0610984 0.0318267 0)
(-0.0658394 0.0308677 3.02762e-20)
(-0.0703708 0.0297274 -2.85243e-20)
(-0.0746591 0.0284359 2.69483e-20)
(-0.078673 0.0270226 -5.07709e-20)
(-0.0823845 0.025517 -7.17815e-20)
(-0.0857685 0.0239508 2.24966e-20)
(-0.0888037 0.0223596 2.11704e-20)
(-0.0914738 0.0207848 1.98701e-20)
(-0.0937699 0.0192755 0)
(-0.0956933 0.0178894 -3.50652e-20)
(-0.0972597 0.016692 0)
(-0.0985112 0.0157515 0)
(-0.0995117 0.0151281 -5.76712e-20)
(-0.100261 0.0148751 -1.24459e-23)
(-0.10087 0.0150599 -7.58535e-20)
(-0.000937569 0.00399517 1.49319e-20)
(-0.0030802 0.0108782 3.08909e-20)
(-0.00593052 0.0168087 2.958e-20)
(-0.00930577 0.0218675 -2.8206e-20)
(-0.0131074 0.0261159 0)
(-0.0172698 0.0296097 0)
(-0.0217226 0.0324064 2.44811e-20)
(-0.0263961 0.0345635 -2.33372e-20)
(-0.0312243 0.0361379 -3.94716e-23)
(-0.036145 0.0371851 4.2163e-20)
(-0.0410997 0.0377593 0)
(-0.0460342 0.0379121 3.78377e-20)
(-0.050898 0.0376924 0)
(-0.0556446 0.0371462 0)
(-0.0602312 0.0363157 1.83092e-23)
(-0.0646179 0.0352401 3.03029e-20)
(-0.068768 0.0339553 -2.86267e-20)
(-0.0726471 0.0324949 5.39962e-20)
(-0.0762228 0.0308912 -2.54451e-20)
(-0.0794648 0.0291767 7.18262e-20)
(-0.0823448 0.0273858 0)
(-0.0848369 0.0255579 0)
(-0.0869194 0.0237394 3.98587e-20)
(-0.088577 0.0219863 0)
(-0.0898037 0.0203669 3.5038e-20)
(-0.090609 0.0189615 -3.28972e-20)
(-0.0910331 0.0178581 3.08036e-20)
(-0.0911463 0.0171397 -2.88563e-20)
(-0.0909319 0.0168872 5.39964e-20)
(-0.090496 0.0171988 7.58869e-20)
(-0.00113559 0.00442196 0)
(-0.00359503 0.0120523 -3.08909e-20)
(-0.00667072 0.0186401 9.20009e-23)
(-0.0101942 0.0242705 0)
(-0.0140749 0.0290084 -5.41506e-20)
(-0.0182527 0.0329134 -3.53867e-23)
(-0.0226625 0.0360469 2.45559e-20)
(-0.0272395 0.0384714 0)
(-0.031922 0.0402486 2.21993e-20)
(-0.0366517 0.0414392 -4.21629e-20)
(-0.0413735 0.0421026 0)
(-0.046036 0.0422956 0)
(-0.0505913 0.0420722 -3.59592e-20)
(-0.0549949 0.041483 3.39956e-20)
(-0.0592051 0.0405749 -3.21218e-20)
(-0.0631832 0.0393907 0)
(-0.0668924 0.0379699 -2.87157e-20)
(-0.0702979 0.0363489 -8.10907e-20)
(-0.0733658 0.0345624 -1.34213e-23)
(-0.0760635 0.0326449 -9.77944e-24)
(-0.078359 0.0306331 2.25739e-20)
(-0.0802217 0.0285688 4.24555e-20)
(-0.0816236 0.0265021 -7.97437e-20)
(-0.0825418 0.0244955 3.74663e-20)
(-0.0829616 0.0226272 -8.77698e-24)
(-0.0828839 0.0209933 2.25412e-23)
(-0.0823447 0.0197052 2.48973e-23)
(-0.0814224 0.0188759 2.88803e-20)
(-0.0800818 0.018624 0)
(-0.0783952 0.0190931 0)
(-0.00134888 0.00481288 3.01551e-20)
(-0.00415058 0.0131314 1.00263e-22)
(-0.00747078 0.0203284 1.00035e-22)
(-0.0111556 0.0264918 -5.68915e-20)
(-0.0151226 0.0316885 5.41916e-20)
(-0.0193169 0.0359807 0)
(-0.0236788 0.0394334 0)
(-0.0281484 0.0421126 4.6912e-20)
(-0.0326683 0.0440844 -4.45455e-20)
(-0.0371841 0.0454141 3.96055e-23)
(-0.0416444 0.0461655 8.0321e-20)
(-0.0460007 0.0464004 3.80599e-20)
(-0.0502077 0.0461773 -7.20504e-20)
(-0.0542226 0.0455513 3.4071e-20)
(-0.0580055 0.0445729 3.22318e-20)
(-0.0615184 0.0432889 -3.04238e-20)
(-0.0647246 0.0417415 5.73933e-20)
(-0.0675887 0.0399696 8.13291e-20)
(-0.0700755 0.0380097 5.11149e-20)
(-0.0721496 0.0358975 2.40474e-20)
(-0.0737754 0.0336709 -4.52239e-20)
(-0.0749171 0.031373 0)
(-0.0755397 0.0290561 3.62578e-23)
(-0.0756116 0.0267875 3.75462e-20)
(-0.0751081 0.0246545 3.51469e-20)
(-0.0740186 0.0227694 -6.59617e-20)
(-0.0723718 0.0212697 -3.08738e-20)
(-0.0702561 0.0203069 5.77768e-20)
(-0.0676209 0.0200476 0)
(-0.0644373 0.0206986 -5.0538e-20)
(-0.00157468 0.005166 3.0231e-20)
(-0.00473991 0.0141099 -6.22873e-20)
(-0.00832101 0.0218647 2.27007e-23)
(-0.0121786 0.028519 -9.87603e-23)
(-0.016238 0.0341406 0)
(-0.0204495 0.0387933 0)
(-0.0247585 0.0425446 0)
(-0.0291097 0.0454635 -4.70455e-20)
(-0.0334502 0.0476195 4.46723e-20)
(-0.0377295 0.049082 -4.23745e-20)
(-0.0418995 0.049919 -8.04561e-20)
(-0.0459147 0.0501964 -2.66891e-23)
(-0.0497323 0.0499769 7.22574e-20)
(-0.0533117 0.0493194 3.42045e-20)
(-0.0566142 0.0482785 0)
(-0.0596026 0.0469038 -6.10676e-20)
(-0.0622403 0.0452402 8.64201e-20)
(-0.0644912 0.0433285 -8.13683e-20)
(-0.0663183 0.0412065 -5.11452e-20)
(-0.0676838 0.0389105 -1.4452e-19)
(-0.068548 0.0364783 -3.28652e-24)
(-0.0688694 0.033953 5.32473e-24)
(-0.0686058 0.0313876 3.45883e-23)
(-0.067716 0.0288519 -7.50413e-20)
(-0.0661637 0.0264403 1.05658e-19)
(-0.0639245 0.0242803 -6.13269e-23)
(-0.0610146 0.0225384 0)
(-0.0575365 0.0214113 -5.77758e-20)
(-0.0534405 0.0211229 5.40241e-20)
(-0.0484492 0.0219642 5.07711e-20)
(-0.00181023 0.00548008 0)
(-0.005356 0.0149839 -3.13052e-20)
(-0.00921157 0.0232422 2.9908e-20)
(-0.0132514 0.0303423 5.71842e-20)
(-0.0174083 0.0363519 2.73552e-20)
(-0.021637 0.0413354 -5.20419e-20)
(-0.0258877 0.0453619 -6.31261e-23)
(-0.0301094 0.0485027 -4.71502e-20)
(-0.0342535 0.0508303 0)
(-0.038273 0.0524173 4.26157e-20)
(-0.0421233 0.0533355 0)
(-0.0457616 0.0536543 0)
(-0.0491477 0.0534405 -7.24082e-20)
(-0.0522426 0.0527566 -6.8459e-20)
(-0.0550089 0.0516603 9.71704e-20)
(-0.05741 0.0502041 6.10671e-20)
(-0.0594093 0.0484354 7.33129e-23)
(-0.0609696 0.0463964 -5.4385e-20)
(-0.0620522 0.0441257 1.02457e-19)
(-0.0626162 0.0416595 4.34124e-24)
(-0.0626178 0.0390348 9.08114e-20)
(-0.0620097 0.036293 0)
(-0.0607419 0.0334859 0)
(-0.0587629 0.0306835 7.52314e-20)
(-0.0560238 0.027984 -1.05662e-19)
(-0.0524837 0.0255282 9.9024e-20)
(-0.0481405 0.0235113 -6.18116e-20)
(-0.0431145 0.022179 5.78138e-20)
(-0.0374096 0.0218261 -1.08049e-19)
(-0.0302358 0.0229114 5.08341e-20)
(-0.00205284 0.00575454 -3.05536e-20)
(-0.00599197 0.0157512 0)
(-0.0101327 0.0244565 0)
(-0.0143624 0.0319548 -5.75464e-20)
(-0.0186204 0.0383126 1.09759e-19)
(-0.0228654 0.0435943 -5.22273e-20)
(-0.0270516 0.0478697 -1.00565e-22)
(-0.0311322 0.0512119 4.73056e-20)
(-0.0350622 0.0536957 0)
(-0.038798 0.0553965 7.40611e-23)
(-0.042298 0.0563891 2.01192e-23)
(-0.0455223 0.0567467 -7.6689e-20)
(-0.0484324 0.0565392 -1.53438e-22)
(-0.0509912 0.0558325 -3.43384e-20)
(-0.0531622 0.0546873 -9.73422e-20)
(-0.0549089 0.0531588 6.12855e-20)
(-0.0561944 0.0512964 -5.78043e-20)
(-0.05698 0.0491437 1.09081e-19)
(-0.0572249 0.0467396 -1.02748e-19)
(-0.0568849 0.0441199 -9.66775e-20)
(-0.0559115 0.0413198 3.45684e-23)
(-0.0542515 0.038378 -4.2734e-20)
(-0.0518465 0.035343 4.01056e-20)
(-0.0486345 0.032282 6.29742e-23)
(-0.0445529 0.0292935 -1.05902e-19)
(-0.0395426 0.0265272 -6.61049e-20)
(-0.0335779 0.0242044 1.23651e-19)
(-0.0267871 0.0226142 -1.15632e-19)
(-0.0192953 0.0221516 5.40247e-20)
(-0.00971017 0.0238199 7.60333e-23)
(-0.00229997 0.00598947 9.18255e-20)
(-0.00664122 0.0164113 -3.15093e-20)
(-0.0110748 0.0255054 -6.03832e-20)
(-0.0154999 0.0333522 1.7295e-19)
(-0.019861 0.040016 2.12321e-22)
(-0.0241201 0.0455604 0)
(-0.0282346 0.0500555 0)
(-0.0321614 0.0535756 4.74931e-20)
(-0.0358585 0.0561972 -4.50312e-20)
(-0.0392854 0.0579982 4.28015e-20)
(-0.0424031 0.0590563 -4.05984e-20)
(-0.0451738 0.0594476 -7.70289e-20)
(-0.047561 0.0592451 1.45482e-19)
(-0.0495286 0.0585179 -3.44128e-20)
(-0.0510407 0.0573293 6.48972e-20)
(-0.0520605 0.0557372 -1.22829e-19)
(-0.0525499 0.0537926 -1.35276e-23)
(-0.0524685 0.0515405 5.10154e-23)
(-0.0517725 0.0490202 1.02854e-19)
(-0.0504139 0.0462665 -4.49789e-23)
(-0.048339 0.0433125 0)
(-0.045488 0.0401933 0)
(-0.0417941 0.0369525 -4.02561e-20)
(-0.037184 0.0336514 -1.507e-19)
(-0.0315808 0.0303844 1.05942e-19)
(-0.0249065 0.0273041 -5.08064e-23)
(-0.0171125 0.0246505 -1.23704e-19)
(-0.00830921 0.0227555 1.15557e-19)
(0.00141539 0.0221685 -5.40732e-20)
(0.0133248 0.0244312 5.02998e-20)
(-0.00254932 0.0061856 0)
(-0.00729757 0.0169651 0)
(-0.0120289 0.0263891 6.07385e-20)
(-0.0166524 0.0345329 -1.15696e-19)
(-0.0211168 0.0414581 8.50102e-23)
(-0.0253861 0.0472271 -5.26559e-20)
(-0.0294203 0.0519097 1.5042e-19)
(-0.0331789 0.055581 -1.43025e-19)
(-0.0366226 0.0583192 -3.93425e-24)
(-0.0397133 0.060204 -4.29406e-20)
(-0.0424141 0.0613158 -1.22271e-19)
(-0.0446891 0.0617333 1.15574e-19)
(-0.0465027 0.0615325 0)
(-0.0478197 0.0607851 0)
(-0.0486037 0.0595574 6.51249e-20)
(-0.0488172 0.0579092 1.23187e-19)
(-0.0484202 0.0558938 -5.80633e-20)
(-0.0473695 0.0535572 0)
(-0.0456174 0.0509391 -5.15482e-20)
(-0.0431111 0.0480736 9.64382e-24)
(-0.0397911 0.0449916 -4.56876e-20)
(-0.03559 0.0417242 0)
(-0.0304319 0.0383087 -4.03234e-20)
(-0.0242323 0.0347984 3.77571e-20)
(-0.0168994 0.0312788 -7.06351e-20)
(-0.00833501 0.0278977 1.98494e-19)
(0.00153163 0.0249037 -9.34666e-23)
(0.0126044 0.0226676 5.78019e-20)
(0.0249078 0.0219043 0)
(0.0396712 0.024541 -5.07121e-20)
(-0.00279883 0.00634424 -6.1864e-20)
(-0.00795539 0.017415 6.35981e-20)
(-0.0129865 0.0271098 1.57349e-22)
(-0.017809 0.0354981 -5.81152e-20)
(-0.0223746 0.0426381 0)
(-0.0266479 0.0485909 -1.05811e-19)
(-0.0305909 0.053426 8.43681e-23)
(-0.0341648 0.057219 4.76485e-20)
(-0.0373321 0.0600492 3.50009e-24)
(-0.0400565 0.0619985 -3.21858e-24)
(-0.0423027 0.0631493 1.22391e-19)
(-0.0440356 0.0635829 3.86753e-20)
(-0.0452204 0.063378 3.66946e-20)
(-0.0458215 0.0626089 -6.91924e-20)
(-0.0458016 0.0613445 6.53613e-20)
(-0.0451213 0.0596469 -6.16256e-20)
(-0.0437377 0.0575712 5.81887e-20)
(-0.0416034 0.0551651 -5.48435e-20)
(-0.0386659 0.0524688 0)
(-0.0348661 0.0495161 -4.86871e-20)
(-0.0301371 0.046336 9.12898e-20)
(-0.0244033 0.0429557 4.29686e-20)
(-0.0175786 0.0394063 -4.03629e-20)
(-0.00956678 0.0357311 1.51138e-19)
(-0.000261206 0.0320032 -3.54183e-20)
(0.0104563 0.028357 6.62328e-20)
(0.0226817 0.0250364 -6.17866e-20)
(0.0363315 0.0224396 9.07202e-23)
(0.0515071 0.0214403 0)
(0.0697087 0.0244043 -1.00084e-19)
(-0.00304678 0.00646719 -1.15404e-22)
(-0.00860972 0.0177648 -6.39014e-20)
(-0.0139396 0.0276716 0)
(-0.0189591 0.0362508 -5.85228e-20)
(-0.0236209 0.0435575 5.57052e-20)
(-0.0278895 0.0496512 -9.67702e-23)
(-0.0317275 0.0546011 0)
(-0.0350969 0.0584831 -8.72399e-23)
(-0.0379614 0.061378 -4.54893e-20)
(-0.0402856 0.0633694 4.32297e-20)
(-0.0420348 0.0645417 0)
(-0.0431744 0.0649787 -7.75696e-20)
(-0.0436691 0.0647616 7.35946e-20)
(-0.0434822 0.0639672 0)
(-0.0425742 0.0626668 0)
(-0.0409027 0.060925 0)
(-0.0384203 0.0587992 0)
(-0.0350744 0.0563384 5.49383e-20)
(-0.0308056 0.0535843 -5.17438e-20)
(-0.0255469 0.0505708 1.45938e-19)
(-0.0192224 0.047326 -9.15159e-20)
(-0.0117464 0.0438742 -8.5866e-20)
(-0.00302169 0.0402405 1.20981e-19)
(0.00706052 0.0364587 6.97228e-23)
(0.0186211 0.0325865 -7.08466e-20)
(0.0317969 0.0287385 -6.6231e-20)
(0.0467114 0.0251391 -6.18879e-20)
(0.0632919 0.0221872 1.15495e-19)
(0.0816662 0.0208767 -1.07555e-19)
(0.103901 0.0241965 1.99827e-19)
(-0.00329178 0.00655673 1.24861e-19)
(-0.00925622 0.0180193 -1.33354e-22)
(-0.0148811 0.0280803 -1.22977e-19)
(-0.0200924 0.0367967 1.1731e-19)
(-0.0248423 0.0442205 -5.6058e-20)
(-0.029094 0.0504102 -5.32791e-20)
(-0.0328093 0.0554346 5.06892e-20)
(-0.0359504 0.0593706 4.81676e-20)
(-0.0384811 0.0623 -9.15522e-20)
(-0.0403661 0.0643082 -1.30256e-19)
(-0.0415704 0.0654819 -4.10729e-20)
(-0.0420588 0.065907 1.55606e-19)
(-0.0417946 0.0656673 -2.20663e-19)
(-0.0407386 0.0648419 6.95563e-20)
(-0.0388482 0.0635049 0)
(-0.0360761 0.0617232 0)
(-0.0323691 0.0595564 0)
(-0.0276672 0.0570559 1.10121e-19)
(-0.0219022 0.054265 -5.18317e-20)
(-0.0149972 0.051219 -4.8828e-20)
(-0.0068652 0.047946 -9.16355e-20)
(0.00259176 0.044469 8.6057e-20)
(0.0134836 0.0408091 -4.04012e-20)
(0.0259323 0.0369917 -7.57648e-20)
(0.0400724 0.0330595 -1.03735e-22)
(0.0560565 0.0291026 -1.32416e-19)
(0.074035 0.025313 1.85641e-19)
(0.0939453 0.0220568 -1.73348e-19)
(0.115876 0.0203803 5.41051e-20)
(0.142804 0.0240798 -4.96733e-20)
(-0.00353278 0.00661542 -6.25868e-20)
(-0.00989127 0.0181843 6.44061e-20)
(-0.0158043 0.028343 6.15731e-20)
(-0.0211988 0.0371427 -1.76773e-19)
(-0.0260249 0.0446333 5.60533e-20)
(-0.030243 0.0508725 5.35036e-20)
(-0.0338133 0.0559294 0)
(-0.0366971 0.0598817 0)
(-0.0388571 0.062813 4.58146e-20)
(-0.0402573 0.0648105 8.68904e-20)
(-0.0408615 0.065963 -1.65003e-19)
(-0.0406326 0.0663589 -9.04425e-23)
(-0.0395312 0.0660842 0)
(-0.0375145 0.0652209 0)
(-0.0345348 0.0638452 -6.57997e-20)
(-0.0305386 0.062027 3.4405e-23)
(-0.0254645 0.0598285 5.85473e-20)
(-0.0192433 0.0573037 -5.50884e-20)
(-0.0117958 0.0544983 -1.0386e-19)
(-0.00303253 0.0514499 9.75568e-20)
(0.00714696 0.0481884 4.58469e-20)
(0.0188549 0.0447374 -1.29275e-19)
(0.0322157 0.0411165 -8.07404e-20)
(0.0473653 0.0373457 7.5875e-20)
(0.064451 0.0334553 7.09835e-20)
(0.0836367 0.0295108 6.62697e-20)
(0.105095 0.0256639 0)
(0.128777 0.0222156 0)
(0.154629 0.0201611 1.07227e-19)
(0.18698 0.0242677 0)
(-0.00376909 0.00664605 6.32347e-20)
(-0.0105118 0.0182659 -6.49002e-20)
(-0.0167031 0.0284676 1.24175e-19)
(-0.0222683 0.0372975 -2.80415e-22)
(-0.027154 0.044804 0)
(-0.0313167 0.0510451 0)
(-0.0347138 0.0560908 0)
(-0.0373045 0.0600202 -4.85285e-20)
(-0.0390498 0.0629188 4.60801e-20)
(-0.0399115 0.0648761 0)
(-0.0398512 0.0659832 8.25781e-20)
(-0.0388285 0.0663309 7.82895e-20)
(-0.0368001 0.0660079 -7.40182e-20)
(-0.0337178 0.0650986 6.99134e-20)
(-0.0295272 0.0636821 -9.48229e-23)
(-0.0241662 0.061831 -6.22361e-20)
(-0.0175636 0.0596106 -5.86783e-20)
(-0.00963801 0.0570781 1.65705e-19)
(-0.000297071 0.0542825 5.18731e-20)
(0.0105635 0.0512649 -9.77742e-20)
(0.0230602 0.0480586 -4.5885e-20)
(0.0373215 0.0446898 4.30768e-20)
(0.0534874 0.0411799 0)
(0.0717083 0.0375473 -7.5767e-20)
(0.0921422 0.0338148 -7.08994e-20)
(0.114958 0.0300275 0)
(0.140343 0.0262962 6.1664e-20)
(0.168267 0.0228369 -1.15508e-19)
(0.198389 0.0204509 -1.60987e-19)
(0.236932 0.025027 0)
(-0.00400029 0.00665149 -1.26636e-19)
(-0.0111152 0.0182708 6.53895e-20)
(-0.0175713 0.0284627 -1.24657e-19)
(-0.0232904 0.0372704 -2.8934e-22)
(-0.0282137 0.0447422 0)
(-0.0322927 0.050937 0)
(-0.0354812 0.0559268 5.1427e-20)
(-0.0377351 0.0597929 9.76698e-20)
(-0.0390125 0.0626231 0)
(-0.0392721 0.0645096 0)
(-0.0384716 0.0655461 -1.66031e-19)
(-0.0365664 0.0658262 7.86005e-20)
(-0.0335073 0.065441 -1.39847e-22)
(-0.0292387 0.064478 0)
(-0.0236977 0.0630191 -3.59015e-23)
(-0.0168113 0.0611403 6.23586e-20)
(-0.00849612 0.05891 -1.63468e-22)
(0.0013435 0.0563894 -2.21216e-19)
(0.0128158 0.0536318 -5.20497e-20)
(0.0260423 0.0506828 9.7772e-20)
(0.041157 0.0475806 9.18258e-20)
(0.0583058 0.0443568 -8.80939e-23)
(0.077645 0.0410369 8.08862e-20)
(0.0993376 0.0376425 1.51527e-19)
(0.123549 0.0341948 7.08967e-20)
(0.150444 0.0307258 6.62128e-20)
(0.180208 0.0273126 6.15949e-20)
(0.21285 0.0240889 1.14748e-19)
(0.247532 0.0214828 -7.60274e-22)
(0.293022 0.0266584 4.81749e-20)
(-0.00422616 0.00663452 1.27677e-19)
(-0.0116991 0.0182054 -1.96673e-19)
(-0.018403 0.028337 1.25295e-19)
(-0.0242537 0.0370714 1.19557e-19)
(-0.0291862 0.0444582 5.69473e-20)
(-0.0331458 0.0505587 -3.95472e-23)
(-0.0360816 0.0554478 -5.13353e-20)
(-0.0379453 0.0592097 -9.76695e-20)
(-0.0386909 0.0619356 2.37349e-22)
(-0.0382726 0.0637206 1.7588e-19)
(-0.0366432 0.0646614 -8.35626e-20)
(-0.0337516 0.0648547 1.57486e-19)
(-0.029541 0.0643947 -1.03921e-22)
(-0.023947 0.0633718 -1.40425e-19)
(-0.0168951 0.0618715 -1.94183e-23)
(-0.00829979 0.0599729 0)
(0.00193736 0.0577489 2.94011e-19)
(0.0139285 0.0552649 5.52545e-20)
(0.0277998 0.0525795 0)
(0.0436913 0.0497441 4.89086e-20)
(0.0617559 0.0468033 -4.60033e-20)
(0.0821565 0.0437957 1.72468e-19)
(0.105063 0.0407541 -2.42642e-19)
(0.130648 0.0377069 7.58289e-20)
(0.159075 0.0346792 0)
(0.190495 0.0316985 6.60943e-20)
(0.225068 0.0288197 -1.2333e-19)
(0.262865 0.0261287 1.14727e-19)
(0.302301 0.0234717 -1.06656e-19)
(0.355378 0.0294666 -9.77394e-20)
(-0.00444662 0.00659774 -1.28198e-19)
(-0.0122612 0.0180757 -3.61901e-22)
(-0.0191913 0.028099 -6.28093e-20)
(-0.0251456 0.0367106 -5.99283e-20)
(-0.0300513 0.0439631 -1.14608e-19)
(-0.033847 0.049922 5.44929e-20)
(-0.0364759 0.0546661 8.09427e-23)
(-0.0378846 0.0582838 -9.82695e-20)
(-0.0380216 0.0608701 -1.39479e-19)
(-0.0368356 0.0625238 1.4399e-22)
(-0.0342724 0.0633453 8.33049e-20)
(-0.030273 0.0634348 -1.57702e-19)
(-0.0247709 0.0628897 7.4629e-20)
(-0.0176903 0.0618041 7.04505e-20)
(-0.00894337 0.0602672 -1.29333e-23)
(0.00157073 0.0583625 6.25893e-20)
(0.0139675 0.0561671 -1.177e-19)
(0.0283775 0.0537521 0)
(0.0449463 0.0511821 -1.04264e-19)
(0.0638331 0.0485153 9.79616e-20)
(0.0852082 0.0458043 -9.19699e-20)
(0.109249 0.0430963 -8.62751e-20)
(0.136135 0.0404333 0)
(0.166036 0.0378527 -2.27016e-19)
(0.199107 0.0353882 1.61706e-22)
(0.235463 0.0330693 -3.30364e-19)
(0.275203 0.0309385 1.85125e-19)
(0.318494 0.0291025 -2.29171e-19)
(0.362739 0.0266009 1.0665e-19)
(0.423796 0.0337268 -9.6474e-20)
(-0.00466156 0.0065434 6.4279e-20)
(-0.0127987 0.0178871 6.61002e-20)
(-0.0199286 0.0277563 6.34971e-20)
(-0.0259514 0.0361974 -1.88836e-22)
(-0.0307858 0.0432682 -1.6818e-22)
(-0.0343627 0.0490396 0)
(-0.0366188 0.0535961 0)
(-0.0374943 0.057031 0)
(-0.0369314 0.0594444 0)
(-0.0348712 0.0609394 0)
(-0.0312511 0.0616209 8.36429e-20)
(-0.0260022 0.0615928 -7.9095e-20)
(-0.0190462 0.0609568 7.48365e-20)
(-0.0102934 0.0598111 1.12793e-23)
(0.000359562 0.058249 -6.6431e-20)
(0.013031 0.0563591 1.26502e-23)
(0.0278553 0.0542239 -1.18007e-19)
(0.0449827 0.0519208 1.10996e-19)
(0.0645781 0.0495213 1.04261e-19)
(0.0868184 0.0470917 -9.78476e-20)
(0.111888 0.0446935 1.84035e-19)
(0.139973 0.0423834 0)
(0.17125 0.0402136 -1.61521e-19)
(0.205876 0.038232 3.19341e-22)
(0.243973 0.0364818 3.82846e-22)
(0.285602 0.0349983 5.61617e-22)
(0.330753 0.0338131 -6.1181e-20)
(0.379701 0.0331465 1.14443e-19)
(0.428648 0.0310168 1.06184e-19)
(0.497642 0.0396509 5.04186e-20)
(-0.00487071 0.0064733 0)
(-0.0133082 0.017644 6.66611e-20)
(-0.0206057 0.0273157 -6.33178e-20)
(-0.0266538 0.0355408 -1.35573e-22)
(-0.0313623 0.0423843 1.15663e-19)
(-0.034654 0.0479247 -5.50434e-20)
(-0.036458 0.0522532 0)
(-0.0367072 0.0554698 0)
(-0.0353359 0.0576802 -9.38223e-20)
(-0.0322764 0.0589931 8.90053e-20)
(-0.0274557 0.0595183 8.42099e-20)
(-0.0207928 0.0593644 0)
(-0.0121954 0.058638 7.50574e-20)
(-0.00155786 0.0574419 0)
(0.0112409 0.0558749 -1.33098e-19)
(0.0263385 0.054031 1.88163e-19)
(0.0438891 0.0519994 1.7705e-19)
(0.0640623 0.0498644 -5.55295e-20)
(0.0870407 0.0477055 -1.14095e-22)
(0.113015 0.0455979 -1.4705e-19)
(0.142176 0.0436124 0)
(0.174706 0.0418157 0)
(0.210766 0.0402699 8.08048e-20)
(0.250476 0.0390321 1.51059e-19)
(0.293901 0.0381542 -1.04582e-22)
(0.341012 0.0376761 1.31922e-19)
(0.391651 0.0376103 1.22874e-19)
(0.446154 0.0383786 0)
(0.499544 0.0368263 -1.06177e-19)
(0.575784 0.0473544 1.45444e-19)
(-0.00507348 0.00638865 6.54597e-20)
(-0.0137853 0.0173496 0)
(-0.0212111 0.0267824 1.61714e-22)
(-0.0272322 0.0347483 -6.1103e-20)
(-0.0317492 0.0413218 5.83203e-20)
(-0.0346759 0.0465907 5.52398e-20)
(-0.0359334 0.0506546 -1.093e-22)
(-0.0354462 0.0536212 4.99714e-20)
(-0.0331394 0.0556033 0)
(-0.0289347 0.056716 -1.78553e-19)
(-0.0227468 0.0570748 2.65026e-22)
(-0.0144805 0.0567942 0)
(-0.00402744 0.0559862 7.52663e-20)
(0.00873606 0.0547594 -2.12661e-19)
(0.0239504 0.0532189 6.68423e-20)
(0.041773 0.0514651 -6.27564e-20)
(0.0623776 0.0495947 -1.18221e-19)
(0.085951 0.0476999 -1.66838e-19)
(0.112688 0.0458689 0)
(0.142786 0.044186 0)
(0.17643 0.0427313 9.19542e-20)
(0.213783 0.0415805 8.60614e-20)
(0.254965 0.0408037 -8.08485e-20)
(0.300033 0.0404645 0)
(0.348956 0.0406188 0)
(0.40158 0.0413052 0)
(0.457565 0.0425071 1.22273e-19)
(0.517168 0.0448778 -5.66226e-20)
(0.574633 0.0440965 1.06736e-19)
(0.656541 0.0568291 9.3958e-20)
(-0.00526879 0.00629004 -1.31128e-19)
(-0.0142238 0.0170056 6.75085e-20)
(-0.0217309 0.0261602 -6.46631e-20)
(-0.0276624 0.0338263 6.16374e-20)
(-0.0319093 0.0400902 -5.83202e-20)
(-0.0343768 0.0450508 5.55327e-20)
(-0.0349769 0.048818 -5.28329e-20)
(-0.0336247 0.0515085 -9.98174e-20)
(-0.0302347 0.0532431 9.49601e-20)
(-0.0247162 0.0541444 1.79222e-19)
(-0.0169699 0.054335 8.45313e-20)
(-0.00688438 0.0539359 -8.00478e-20)
(0.00566677 0.0530657 2.2044e-22)
(0.0208265 0.0518399 2.11591e-23)
(0.0387551 0.0503706 6.6992e-20)
(0.0596294 0.0487661 0)
(0.0836399 0.047131 1.18297e-19)
(0.110985 0.0455662 2.78037e-19)
(0.141866 0.0441688 -5.23131e-20)
(0.176469 0.0430316 0)
(0.21496 0.0422428 -1.8389e-19)
(0.257456 0.0418844 -8.61291e-20)
(0.304007 0.0420309 -8.04802e-20)
(0.35457 0.0427465 7.55613e-20)
(0.40898 0.0440845 -7.01937e-20)
(0.466908 0.0460715 6.58317e-20)
(0.527828 0.0486663 -3.48033e-22)
(0.591654 0.0526569 1.13002e-19)
(0.652776 0.0528808 -1.05514e-19)
(0.737613 0.0679677 -1.89199e-19)
(-0.00545489 0.00617738 6.63658e-20)
(-0.0146157 0.0166124 6.79327e-20)
(-0.0221478 0.025451 -2.37451e-22)
(-0.0279152 0.0327795 4.01427e-22)
(-0.0318 0.0386979 0)
(-0.033698 0.0433183 -2.40822e-22)
(-0.0335117 0.0467623 -1.59544e-19)
(-0.0311459 0.0491569 0)
(-0.026503 0.0506325 -9.53517e-20)
(-0.0194783 0.0513201 -3.59959e-19)
(-0.00995675 0.0513504 8.51413e-20)
(0.00219105 0.0508521 -8.03363e-20)
(0.0171106 0.0499517 -1.5095e-19)
(0.0349646 0.0487726 1.42654e-19)
(0.0559324 0.0474348 0)
(0.0802072 0.0460553 6.29482e-20)
(0.107991 0.0447475 -1.78001e-19)
(0.139485 0.0436208 -5.57079e-20)
(0.174881 0.0427807 -1.56933e-19)
(0.214341 0.0423268 0)
(0.257981 0.0423521 1.83865e-19)
(0.305844 0.0429405 8.61247e-20)
(0.357874 0.0441641 0)
(0.413887 0.0460795 7.52408e-20)
(0.473541 0.048728 0)
(0.536286 0.0521096 -6.52061e-20)
(0.601422 0.0561943 -1.8233e-19)
(0.668178 0.0616319 -2.25638e-19)
(0.73248 0.0633082 -1.04429e-19)
(0.815938 0.0806496 -3.41176e-21)
(-0.00562917 0.0060499 -6.63658e-20)
(-0.0149508 0.0161688 2.93242e-22)
(-0.0224409 0.0246552 6.53578e-20)
(-0.0279568 0.031611 -6.20387e-20)
(-0.0313721 0.0371524 -5.9145e-20)
(-0.0325731 0.0414062 1.12147e-19)
(-0.0314525 0.0445071 5.3472e-20)
(-0.0279034 0.046594 1.01267e-19)
(-0.0218149 0.0478079 9.54137e-20)
(-0.0130671 0.0482896 9.05797e-20)
(-0.0015274 0.0481792 1.71026e-19)
(0.0129522 0.0476142 -3.04531e-22)
(0.0305366 0.0467298 0)
(0.0514073 0.0456586 -7.13097e-20)
(0.0757594 0.0445296 -2.14212e-22)
(0.103797 0.0434688 1.30168e-22)
(0.135724 0.0425983 1.78101e-19)
(0.171731 0.0420356 0)
(0.21198 0.0418921 1.04573e-19)
(0.256583 0.0422712 0)
(0.305577 0.0432654 5.41879e-25)
(0.358893 0.044953 -8.58709e-20)
(0.416327 0.0473939 1.60954e-19)
(0.477513 0.0506256 -7.54887e-20)
(0.541896 0.0546649 -1.40112e-19)
(0.608673 0.0594683 6.54208e-20)
(0.677 0.0650723 2.42848e-19)
(0.745166 0.0715979 5.60857e-20)
(0.812038 0.0756446 2.59344e-19)
(0.88786 0.0943988 4.94083e-20)
(-0.00578806 0.00590619 6.7106e-20)
(-0.015216 0.0156724 -1.37691e-19)
(-0.0225853 0.0237715 0)
(-0.0277482 0.0303229 0)
(-0.0305704 0.0354603 5.95367e-20)
(-0.0309288 0.0393271 -2.65034e-22)
(-0.0287056 0.0420728 -1.07043e-19)
(-0.0237817 0.0438491 -1.01468e-19)
(-0.0160317 0.0448091 3.97386e-22)
(-0.00531925 0.0451046 4.1519e-22)
(0.00850629 0.0448859 -8.55186e-20)
(0.0256118 0.0443009 1.61259e-19)