/*--------------------------------*- C++ -*----------------------------------*\
  =========                 |
  \\      /  F ield         | OpenFOAM: The Open Source CFD Toolbox
   \\    /   O peration     | Website:  https://openfoam.org
    \\  /    A nd           | Version:  7
     \\/     M anipulation  |
\*---------------------------------------------------------------------------*/
FoamFile
{
    version     2.0;
    format      ascii;
    class       volScalarField;
    location    "20";
    object      p;
}
// * * * * * * * * * * * * * * * * * * * * * * * * * * * * * * * * * * * * * //

dimensions      [0 2 -2 0 0 0 0];

internalField   nonuniform List<scalar> 
183
(
0.104498
0.0979334
0.0911221
0.0843609
0.0777784
0.0714963
0.0658724
0.0607592
0.05584
0.0513702
0.0475269
0.0440973
0.0408909
0.0379265
0.0353364
0.0332609
0.0315045
0.0299931
0.0288658
0.0281473
0.027762
0.0915364
0.0880269
0.0843927
0.0805985
0.0766571
0.0726322
0.0685557
0.0645706
0.0608148
0.05724
0.0537992
0.0505862
0.0477005
0.0451505
0.0428987
0.040892
0.0392249
0.0379385
0.0369593
0.0362603
0.0359588
0.108416
0.0929624
0.109292
0.0933258
0.110041
0.093649
0.110812
0.0939652
0.111568
0.0942625
0.112296
0.0945376
0.121639
0.112996
0.0947919
0.12229
0.113667
0.0950256
0.122895
0.114303
0.095239
0.123456
0.114902
0.0954324
0.123973
0.115485
0.0956056
0.124446
0.115961
0.0957584
0.124873
0.116446
0.0958953
0.125251
0.116881
0.125583
0.117264
0.125869
0.117596
0.126109
0.117876
0.126303
0.118103
0.12645
0.118274
0.126552
0.118389
0.126609
0.118447
0.126617
0.118446
0.126581
0.118395
0.126498
0.118282
0.126369
0.118115
0.126194
0.117893
0.125972
0.117615
0.125704
0.117283
0.12539
0.116915
0.0960567
0.125027
0.116437
0.0959412
0.124616
0.116059
0.0958115
0.124161
0.115496
0.0956609
0.123662
0.114947
0.0954901
0.123118
0.114351
0.0953001
0.122529
0.113719
0.0950901
0.121894
0.113055
0.0948596
0.112361
0.0946085
0.111639
0.0943365
0.11089
0.0940421
0.110125
0.0937287
0.109383
0.0934082
0.108513
0.0930487
0.104589
0.0916444
0.0980772
0.0881087
0.0913176
0.0844452
0.0844472
0.0806517
0.0777863
0.0766731
0.07168
0.072497
0.0659446
0.0683317
0.0604884
0.0643381
0.0554852
0.0605063
0.0509211
0.0568938
0.0468229
0.0535201
0.0431875
0.0504246
0.0399511
0.0476419
0.0372572
0.045111
0.035071
0.0428336
0.033211
0.0408836
0.0315761
0.0393142
0.0302864
0.0380535
0.0294088
0.0370627
0.0287895
0.0364191
0.0283846
0.0361391
)
;

boundaryField
{
    inlet
    {
        type            zeroGradient;
    }
    outlet
    {
        type            fixedValue;
        value           nonuniform 0();
    }
    cylinder
    {
        type            zeroGradient;
    }
    top
    {
        type            symmetryPlane;
    }
    bottom
    {
        type            symmetryPlane;
    }
    defaultFaces
    {
        type            empty;
    }
    procBoundary1to0
    {
        type            processor;
        value           nonuniform List<scalar> 
86
(
0.0895776
0.0869589
0.0836408
0.0801237
0.0764108
0.0726079
0.0689277
0.0653982
0.0619782
0.0587838
0.0558889
0.0532457
0.0508183
0.0486082
0.0466456
0.0449989
0.0436116
0.0424625
0.041591
0.041028
0.0407298
0.0911095
0.0915345
0.0919011
0.092276
0.092643
0.0929941
0.0933299
0.0936502
0.0939537
0.0942392
0.0945058
0.0947522
0.0949774
0.0960174
0.0960174
0.0961234
0.0962137
0.0962887
0.0963486
0.096394
0.0964251
0.0964447
0.0964476
0.0964339
0.0964075
0.0963664
0.0963088
0.0962372
0.0961654
0.0961654
0.0951909
0.0949897
0.0947661
0.0945213
0.0942562
0.093972
0.0936699
0.093351
0.0930165
0.092666
0.0922988
0.0919327
0.0915587
0.0911357
0.0896087
0.0869929
0.0837151
0.0801845
0.0764529
0.0727327
0.0690366
0.0653717
0.0619247
0.0586709
0.0556681
0.052925
0.0504315
0.0482625
0.0464181
0.0448588
0.0435399
0.0424913
0.0417335
0.0412244
0.0409579
)
;
    }
    procBoundary1to2
    {
        type            processor;
        value           nonuniform List<scalar> 
86
(
0.112302
0.102857
0.093423
0.084421
0.0761937
0.0687767
0.0617686
0.0551973
0.0494842
0.0444959
0.0398113
0.0354713
0.0315516
0.0281976
0.0255587
0.0232053
0.0211285
0.0193341
0.0182133
0.0175984
0.0169329
0.116755
0.117744
0.118575
0.119407
0.1202
0.120942
0.120942
0.164042
0.166382
0.168574
0.170613
0.172495
0.174216
0.175774
0.177166
0.178389
0.179441
0.18032
0.181026
0.181556
0.181911
0.18209
0.182093
0.181919
0.18157
0.181045
0.180346
0.179474
0.17843
0.177216
0.175835
0.174289
0.17258
0.170714
0.168692
0.166519
0.164201
0.121213
0.121213
0.120486
0.119708
0.118892
0.118075
0.117106
0.112783
0.103259
0.0936806
0.084805
0.0765576
0.0686258
0.0612631
0.0546663
0.0485617
0.043166
0.0382994
0.0340994
0.0307295
0.0278975
0.0253868
0.0231398
0.0212734
0.0200043
0.0192237
0.0185562
0.0179496
)
;
    }
}


// ************************************************************************* //
