/*--------------------------------*- C++ -*----------------------------------*\
  =========                 |
  \\      /  F ield         | OpenFOAM: The Open Source CFD Toolbox
   \\    /   O peration     | Website:  https://openfoam.org
    \\  /    A nd           | Version:  7
     \\/     M anipulation  |
\*---------------------------------------------------------------------------*/
FoamFile
{
    version     2.0;
    format      ascii;
    class       surfaceScalarField;
    location    "45";
    object      phi;
}
// * * * * * * * * * * * * * * * * * * * * * * * * * * * * * * * * * * * * * //

dimensions      [0 3 -1 0 0 0 0];

internalField   nonuniform List<scalar> 
268
(
1.30974e-05
-3.43305e-05
-0.000176069
1.49227e-05
-4.92532e-05
6.2617e-05
-0.000223763
0.000146475
-0.000475115
0.000267758
-0.000797393
-0.00117904
1.67874e-05
-6.60407e-05
6.91841e-05
-0.00027616
0.000159563
-0.000565493
0.000287601
-0.000925431
0.000448893
-0.00134033
0.000634526
-0.0017874
0.000832162
-0.00223972
0.00102843
-0.00267136
-0.00306235
1.86565e-05
7.55506e-05
0.000171772
0.000305152
0.000469024
0.000652373
-0.00197075
0.000841664
-0.00242902
0.00102371
-0.00285341
0.00118835
-0.00322698
0.00132986
-0.00354323
0.00144703
-0.00380496
0.00154208
-0.00402115
-0.00420355
0.000662266
0.000840649
0.00100675
0.00115223
0.0012736
0.00137151
0.00144942
-0.00409905
0.00151198
-0.0042661
0.00156381
-0.00441572
0.00160882
-0.00455712
0.00164991
-0.00469685
-0.00483918
0.00135068
0.00140052
0.00144175
0.00147771
0.00151075
0.00154237
0.00157346
0.00160451
0.00163563
-0.00533255
-0.00549939
0.0016666
0.00146652
0.00148977
0.00146507
0.00516593
0.00148965
0.00532849
0.00549707
0.00151383
0.00129994
0.00388265
0.00136464
0.00408121
0.0014162
0.00425031
0.00145895
0.00440166
0.00149631
0.00454458
0.00153065
0.00468571
0.00156351
0.00482941
0.00159581
0.001628
0.00166023
0.00169224
0.000483147
0.00147787
0.000662453
0.00194152
0.000842516
0.00239869
0.00101083
0.00282364
0.00115885
0.00319902
0.00128281
0.00351779
0.00138321
0.00378225
0.00146338
0.00400104
0.00152795
0.00158157
0.00162819
0.00167077
1.84418e-05
6.27708e-05
7.48682e-05
0.000266623
0.000170555
0.000549781
0.000303572
0.000903939
0.000467518
0.00131393
0.000651595
0.00175744
0.000842359
0.00220792
0.00102655
0.00263945
0.0011938
0.00133813
0.0014581
1.65628e-05
4.6208e-05
6.84401e-05
0.000214746
0.000158165
0.000460056
0.000285636
0.000776469
0.000446713
0.00115285
0.000632747
0.000831564
1.46928e-05
3.15152e-05
6.18273e-05
0.000167611
0.000144929
0.000265451
1.28665e-05
0.00150037
-0.0219946
0.00135229
-0.0214819
0.00122929
-0.021251
0.00111896
-0.0210241
0.00101946
-0.0208489
0.000929475
-0.0207146
0.000845867
-0.0205845
0.000767523
-0.0204615
0.000694619
-0.0203636
0.000626509
-0.0202896
0.000561166
-0.0202017
0.000498024
-0.0201134
0.000437156
-0.0200356
0.000378307
0.000321362
0.000266262
0.000211373
0.000157592
0.000104214
5.25917e-05
0.00132846
0.00118796
0.001073
0.000971017
0.000880108
0.000798926
0.0007242
0.000654687
0.000590612
0.000531443
0.000475047
0.000420737
0.0013515
0.0220126
0.00120879
0.021521
0.00109098
0.0213105
0.000985647
0.0210745
0.00089249
0.020917
0.000807701
0.0207607
0.000729396
0.0206173
0.000657465
0.0204893
0.000591064
0.020399
0.00052727
0.0202656
0.000468763
0.0202021
0.00041226
0.0201001
0.00035963
0.0200461
0.000309713
0.0199857
0.000262015
0.0199352
0.000215681
0.0198807
0.000170264
0.019832
0.000126414
0.0198078
8.4173e-05
0.0197997
4.22051e-05
0.0197786
0.0197561
0.00152482
0.00137425
0.00124802
0.00113399
0.00103185
0.000938029
0.000850746
0.000769901
0.000694575
0.000622031
0.00055478
0.000489644
0.000428376
0.000369764
0.00031337
0.000258412
0.000204483
0.000152105
0.000101247
5.06933e-05
)
;

boundaryField
{
    inlet
    {
        type            calculated;
        value           nonuniform 0();
    }
    outlet
    {
        type            calculated;
        value           nonuniform 0();
    }
    cylinder
    {
        type            calculated;
        value           uniform 0;
    }
    top
    {
        type            symmetryPlane;
        value           uniform 0;
    }
    bottom
    {
        type            symmetryPlane;
        value           uniform 0;
    }
    defaultFaces
    {
        type            empty;
        value           nonuniform 0();
    }
    procBoundary19to18
    {
        type            processor;
        value           nonuniform List<scalar> 
91
(
-8.46971e-05
-0.000333054
-0.000661714
-0.00105881
-0.0015042
-0.000483965
-0.00214905
-0.0026074
-0.00301951
-0.00337247
-0.0036646
-0.00390288
-0.00128792
-0.00416181
-0.00431595
-0.00445695
-0.00459308
-0.00472989
-0.0048708
-0.00501774
-0.0051716
-0.00144294
-0.00535613
-0.00552263
-0.00519066
-0.00535306
-0.00552125
-0.00396527
-0.00414591
-0.00430187
-0.00444442
-0.00458194
-0.00472005
-0.00486227
-0.00144034
-0.00501059
-0.00164231
-0.00212083
-0.00257875
-0.00299196
-0.00334703
-0.00121732
-0.00364175
-8.12126e-05
-0.000323049
-0.000645467
-0.000318706
-0.00103696
-0.0199749
-0.0199227
-0.0198876
-0.0198252
-0.0197986
-0.0197648
-0.0197713
-0.019738
-0.0218333
-0.0213414
-0.021136
-0.0209221
-0.020758
-0.0206335
-0.0205098
-0.020392
-0.0202995
-0.0202304
-0.0201453
-0.0200591
0.000368583
-0.0199835
-0.0218503
-0.0213783
-0.0211927
-0.0209692
-0.0208238
-0.0206759
-0.020539
-0.0204173
-0.0203326
-0.0202018
-0.0201436
-0.0200436
-0.0199934
-0.0199358
-0.0198875
-0.0198344
-0.0197866
-0.019764
-0.0197575
-0.0197366
-0.0197138
)
;
    }
    procBoundary19to20
    {
        type            processor;
        value           nonuniform List<scalar> 
94
(
2.12332e-05
0.000133167
5.59993e-05
0.000391257
0.00067611
0.0010226
0.000424202
0.00160176
0.00204209
0.0024751
0.00287909
0.00121169
0.00340172
0.00368779
0.00392609
0.00412644
0.00161919
0.00436389
0.00451211
0.00465576
0.00480004
0.00168905
0.00498664
0.00514055
0.00530142
0.00546842
0.0049783
0.00513373
0.00529626
0.00546506
0.00418575
0.00434804
0.00449796
0.00464313
0.00171131
0.00478887
0.00303177
0.00337345
0.00366228
0.00155577
0.00390338
0.00157141
0.00200911
0.0010298
0.00244121
0.000376954
0.000655947
0.000421389
0.000996911
1.86488e-05
5.51794e-05
0.000125298
0.0221608
0.0216299
0.021374
0.0211344
0.0209484
0.0208046
0.0206681
0.0205399
0.0204365
0.0203577
0.020267
0.0201765
0.0200965
0.0200337
0.0199796
0.0199427
0.0198801
0.0198523
0.0198182
0.0198229
0.0197906
0.02218
0.0216715
0.0214368
0.0211885
0.0210191
0.0208545
0.0207046
0.0205701
0.0204743
0.0203381
0.0202693
0.0201653
0.0201073
0.0200443
0.0199916
0.0199357
0.0198859
0.0198602
0.0198506
0.0198292
0.0198067
)
;
    }
}


// ************************************************************************* //
