/*--------------------------------*- C++ -*----------------------------------*\
  =========                 |
  \\      /  F ield         | OpenFOAM: The Open Source CFD Toolbox
   \\    /   O peration     | Website:  https://openfoam.org
    \\  /    A nd           | Version:  7
     \\/     M anipulation  |
\*---------------------------------------------------------------------------*/
FoamFile
{
    version     2.0;
    format      ascii;
    class       volVectorField;
    location    "45";
    object      U;
}
// * * * * * * * * * * * * * * * * * * * * * * * * * * * * * * * * * * * * * //

dimensions      [0 1 -1 0 0 0 0];

internalField   nonuniform List<vector> 
928
(
(0.636842 -0.000422186 -3.67217e-24)
(0.638161 -0.000418903 1.69564e-24)
(0.63947 -0.000415652 9.96947e-25)
(0.640769 -0.000412432 -2.74794e-24)
(0.642059 -0.000409241 1.99287e-24)
(0.64334 -0.000406078 5.54436e-25)
(0.637147 -0.00126589 -9.80933e-24)
(0.638463 -0.00125605 3.90777e-25)
(0.63977 -0.0012463 5.6602e-24)
(0.641068 -0.00123664 9.64313e-25)
(0.642356 -0.00122707 -3.15842e-24)
(0.643634 -0.00121759 2.23326e-24)
(0.637755 -0.00210767 -2.69143e-24)
(0.639067 -0.00209129 6.17059e-24)
(0.64037 -0.00207507 -7.24326e-24)
(0.641663 -0.00205899 1.67866e-23)
(0.642947 -0.00204307 -5.6586e-24)
(0.644222 -0.00202728 -7.95631e-24)
(0.638666 -0.00294625 8.80478e-24)
(0.639972 -0.00292337 -1.11322e-23)
(0.641268 -0.0029007 2.40324e-24)
(0.642555 -0.00287825 7.86449e-24)
(0.643833 -0.00285601 -6.64684e-24)
(0.645102 -0.00283396 4.23319e-24)
(0.639877 -0.00378037 4.06848e-23)
(0.641174 -0.00375103 -2.74515e-23)
(0.642463 -0.00372198 6.59211e-24)
(0.643742 -0.0036932 -1.00881e-23)
(0.645011 -0.00366469 7.25888e-24)
(0.646272 -0.00363642 -7.83754e-24)
(0.641385 -0.00460875 -2.53133e-23)
(0.642673 -0.00457304 -1.46851e-23)
(0.643951 -0.00453766 3.58333e-23)
(0.64522 -0.00450262 -1.15434e-23)
(0.64648 -0.00446791 1.16569e-23)
(0.64773 -0.00443349 -2.7859e-23)
(0.643189 -0.00543019 -2.40728e-23)
(0.644464 -0.00538817 -2.614e-23)
(0.64573 -0.00534655 2.25056e-23)
(0.646987 -0.00530533 3.67587e-25)
(0.648235 -0.00526449 6.02969e-24)
(0.649474 -0.00522401 1.01745e-24)
(0.646544 -0.00619522 1.41089e-23)
(0.647796 -0.00614746 -9.65113e-24)
(0.649039 -0.00610015 1.10828e-23)
(0.650273 -0.00605327 1.60707e-23)
(0.651498 -0.00600681 3.87272e-25)
(0.648908 -0.00699302 3.72718e-23)
(0.650145 -0.00693922 -3.64754e-23)
(0.651372 -0.00688593 2.50538e-23)
(0.65259 -0.00683312 -2.81851e-23)
(0.6538 -0.00678079 1.07475e-23)
(0.651552 -0.00778042 -2.33734e-23)
(0.652771 -0.0077207 -5.3245e-25)
(0.65398 -0.00766154 -1.18044e-23)
(0.655182 -0.00760293 -7.23673e-24)
(0.656374 -0.00754484 2.04841e-23)
(0.65447 -0.00855631 2.57348e-23)
(0.655669 -0.0084908 -1.09327e-23)
(0.65686 -0.00842591 -6.49112e-24)
(0.658042 -0.00836162 4.05249e-23)
(0.659216 -0.00829791 -3.29399e-23)
(0.657655 -0.00931961 6.20034e-23)
(0.658833 -0.00924845 1.46437e-23)
(0.660003 -0.00917798 -7.72679e-23)
(0.661165 -0.00910815 1.062e-23)
(0.662319 -0.00903894 -6.66519e-24)
(0.661101 -0.0100693 -5.09386e-23)
(0.662257 -0.00999263 -3.67365e-23)
(0.663405 -0.00991671 2.79996e-23)
(0.664545 -0.0098415 -4.72379e-23)
(0.665677 -0.00976696 6.87825e-23)
(0.664802 -0.0108043 2.60467e-23)
(0.665934 -0.0107223 -1.88552e-25)
(0.667058 -0.0106411 -4.34885e-23)
(0.668174 -0.0105607 1.88609e-23)
(0.669283 -0.010481 -8.12678e-24)
(0.668748 -0.0115237 8.22596e-23)
(0.669855 -0.0114366 -3.98059e-23)
(0.670954 -0.0113503 -1.83295e-23)
(0.672046 -0.0112648 5.26705e-23)
(0.67313 -0.0111801 1.08553e-23)
(0.672933 -0.0122267 7.61893e-23)
(0.674014 -0.0121346 1.57112e-23)
(0.675087 -0.0120434 -2.09884e-23)
(0.676153 -0.011953 1.82107e-23)
(0.677211 -0.0118635 -1.75128e-23)
(0.677348 -0.0129122 -1.04775e-22)
(0.678401 -0.0128154 2.1045e-22)
(0.679447 -0.0127195 -1.07598e-22)
(0.680486 -0.0126244 1.91503e-23)
(0.681518 -0.0125303 -2.38803e-23)
(0.681984 -0.0135796 -6.59724e-23)
(0.683009 -0.0134782 8.48191e-23)
(0.684026 -0.0133778 8.23945e-24)
(0.685037 -0.0132783 5.99989e-23)
(0.686042 -0.0131797 -4.90531e-23)
(0.686832 -0.0142281 1.42405e-23)
(0.687827 -0.0141223 -3.29212e-23)
(0.688816 -0.0140176 -2.50892e-23)
(0.689798 -0.0139138 1.10257e-23)
(0.690774 -0.0138109 -1.15475e-22)
(0.691883 -0.014857 1.45747e-22)
(0.692848 -0.014747 -8.30969e-23)
(0.693806 -0.0146382 6.63723e-23)
(0.694759 -0.0145303 -6.23943e-23)
(0.695706 -0.0144234 -2.45151e-23)
(0.697126 -0.0154656 4.46462e-23)
(0.69806 -0.0153517 2.11419e-23)
(0.698988 -0.0152389 6.27601e-23)
(0.699911 -0.0151272 -1.53271e-22)
(0.700828 -0.0150165 5.59147e-23)
(0.702551 -0.0160534 -5.16048e-23)
(0.703454 -0.0159358 4.80818e-23)
(0.704352 -0.0158193 -9.25275e-23)
(0.705244 -0.0157039 1.01471e-22)
(0.70613 -0.0155897 -1.41908e-23)
(0.70815 -0.0166198 -5.10342e-23)
(0.709021 -0.0164987 -2.2322e-23)
(0.709887 -0.0163787 1.04989e-22)
(0.710748 -0.01626 6.1896e-24)
(0.711604 -0.0161423 -1.4676e-22)
(0.71391 -0.0171644 4.08492e-25)
(0.714749 -0.01704 -4.7531e-23)
(0.715584 -0.0169168 5.28701e-23)
(0.716413 -0.0167949 -9.1582e-23)
(0.717238 -0.016674 -7.10513e-23)
(0.719822 -0.0176867 -9.80002e-24)
(0.720629 -0.0175593 -5.24568e-23)
(0.721432 -0.0174331 3.40641e-23)
(0.72223 -0.0173082 1.82014e-23)
(0.723023 -0.0171844 -2.09936e-23)
(0.725875 -0.0181865 -1.44699e-22)
(0.72665 -0.0180563 -4.68386e-23)
(0.727421 -0.0179273 8.83522e-23)
(0.728187 -0.0177997 -5.19281e-23)
(0.72895 -0.0176732 5.36607e-23)
(0.732058 -0.0186635 5.01075e-23)
(0.732801 -0.0185306 2.6215e-23)
(0.73354 -0.0183991 -1.14238e-23)
(0.734275 -0.0182689 1.57918e-23)
(0.735006 -0.01814 9.56967e-23)
(0.738361 -0.0191174 7.10911e-23)
(0.739072 -0.0189822 2.15366e-23)
(0.739779 -0.0188484 -1.46661e-22)
(0.740483 -0.0187159 1.34505e-22)
(0.741183 -0.0185846 -9.94866e-23)
(0.744772 -0.0195486 4.00363e-23)
(0.745451 -0.0194113 -1.67392e-23)
(0.746128 -0.0192753 -4.44082e-24)
(0.746801 -0.0191407 -8.68959e-23)
(0.74747 -0.0190074 -2.15606e-23)
(0.751281 -0.0199566 7.00855e-23)
(0.75193 -0.0198173 -8.92126e-24)
(0.752575 -0.0196794 -1.16715e-22)
(0.753218 -0.019543 1.61025e-22)
(0.753857 -0.0194078 1.46805e-23)
(0.762425 -0.0205998 0)
(0.763018 -0.0204576 0)
(0.763608 -0.0203169 0)
(0.764196 -0.0201776 0)
(0.764781 -0.0200397 0)
(0.778716 -0.0213798 0)
(0.779226 -0.0212346 0)
(0.779734 -0.021091 0)
(0.78024 -0.0209489 0)
(0.780744 -0.0208081 0)
(0.795477 -0.0220447 0)
(0.795904 -0.0218975 0)
(0.796329 -0.0217518 0)
(0.796754 -0.0216076 0)
(0.797178 -0.0214648 0)
(0.812597 -0.022592 0)
(0.812941 -0.0224435 0)
(0.813285 -0.0222966 0)
(0.813629 -0.0221512 0)
(0.813972 -0.0220074 0)
(0.829965 -0.0230226 0)
(0.830229 -0.0228738 0)
(0.830493 -0.0227266 0)
(0.830756 -0.022581 0)
(0.83102 -0.0224369 0)
(0.847474 -0.0233392 0)
(0.847659 -0.0231909 0)
(0.847844 -0.0230443 0)
(0.848031 -0.0228993 0)
(0.848217 -0.0227558 0)
(0.865019 -0.0235453 0)
(0.865128 -0.0233983 0)
(0.865237 -0.023253 0)
(0.865348 -0.0231094 0)
(0.86546 -0.0229673 0)
(0.882499 -0.0236451 5.51652e-29)
(0.882535 -0.0235002 -5.51652e-29)
(0.882572 -0.0233569 0)
(0.882611 -0.0232153 0)
(0.882652 -0.0230753 0)
(0.89982 -0.0236436 0)
(0.899786 -0.0235014 0)
(0.899754 -0.0233608 0)
(0.899725 -0.023222 0)
(0.899698 -0.0230847 0)
(0.91689 -0.0235466 4.24447e-29)
(0.916792 -0.0234076 -4.24447e-29)
(0.916695 -0.0232704 0)
(0.916602 -0.0231348 0)
(0.916511 -0.0230009 0)
(0.933629 -0.0233602 0)
(0.93347 -0.0232251 0)
(0.933313 -0.0230917 0)
(0.93316 -0.02296 0)
(0.933009 -0.0228299 0)
(0.949959 -0.0230913 0)
(0.949744 -0.0229605 0)
(0.949533 -0.0228313 0)
(0.949324 -0.0227039 0)
(0.949119 -0.0225781 0)
(0.965814 -0.0227471 0)
(0.965548 -0.0226208 0)
(0.965287 -0.0224963 0)
(0.965028 -0.0223735 0)
(0.964773 -0.0222523 0)
(0.981132 -0.0223347 0)
(0.980821 -0.0222134 0)
(0.980514 -0.0220938 0)
(0.980211 -0.0219758 0)
(0.979911 -0.0218596 0)
(0.995862 -0.0218618 0)
(0.995511 -0.0217456 0)
(0.995164 -0.0216311 0)
(0.994821 -0.0215183 0)
(0.994482 -0.0214072 0)
(1.00996 -0.0213358 0)
(1.00957 -0.021225 0)
(1.00919 -0.0211157 0)
(1.00882 -0.0210082 0)
(1.00844 -0.0209023 0)
(1.02339 -0.0207644 0)
(1.02297 -0.0206588 0)
(1.02256 -0.020555 0)
(1.02216 -0.0204528 0)
(1.02175 -0.0203522 0)
(1.03612 -0.0201547 0)
(1.03569 -0.0200545 0)
(1.03525 -0.019956 0)
(1.03482 -0.0198592 0)
(1.03439 -0.019764 0)
(1.04814 -0.0195138 0)
(1.04769 -0.019419 0)
(1.04723 -0.0193258 0)
(1.04678 -0.0192343 0)
(1.04633 -0.0191444 0)
(1.05944 -0.0188486 0)
(1.05896 -0.018759 0)
(1.05849 -0.0186711 0)
(1.05803 -0.0185848 0)
(1.05756 -0.0185002 0)
(1.07 -0.0181654 0)
(1.06951 -0.018081 0)
(1.06903 -0.0179981 0)
(1.06855 -0.0179169 0)
(1.06808 -0.0178374 0)
(1.07983 -0.0174703 3.66135e-29)
(1.07934 -0.0173908 -3.66135e-29)
(1.07885 -0.0173129 0)
(1.07836 -0.0172366 0)
(1.07788 -0.0171619 0)
(1.08893 -0.0167686 0)
(1.08844 -0.0166938 0)
(1.08795 -0.0166207 0)
(1.08746 -0.0165491 0)
(1.08698 -0.0164791 0)
(1.09733 -0.0160655 -3.81192e-29)
(1.09684 -0.0159952 3.81192e-29)
(1.09634 -0.0159265 0)
(1.09586 -0.0158594 0)
(1.09537 -0.0157939 0)
(1.10503 -0.0153653 0)
(1.10454 -0.0152993 0)
(1.10405 -0.0152349 0)
(1.10357 -0.015172 0)
(1.10309 -0.0151108 0)
(1.11206 -0.014672 0)
(1.11158 -0.01461 0)
(1.1111 -0.0145496 0)
(1.11062 -0.0144908 0)
(1.11014 -0.0144335 0)
(1.11845 -0.0139891 0)
(1.11798 -0.0139308 0)
(1.1175 -0.0138742 0)
(1.11703 -0.013819 0)
(1.11656 -0.0137655 0)
(1.12422 -0.0133193 0)
(1.12376 -0.0132646 0)
(1.12329 -0.0132114 0)
(1.12283 -0.0131598 0)
(1.12237 -0.0131097 0)
(1.12941 -0.0126652 0)
(1.12896 -0.0126137 0)
(1.1285 -0.0125638 0)
(1.12805 -0.0125153 0)
(1.12761 -0.0124684 0)
(1.12716 -0.0124231 0)
(1.13405 -0.0120285 0)
(1.1336 -0.0119801 0)
(1.13316 -0.0119331 0)
(1.13273 -0.0118876 0)
(1.13229 -0.0118437 0)
(1.13186 -0.0118013 0)
(1.13816 -0.0114108 0)
(1.13773 -0.0113651 0)
(1.13731 -0.0113209 0)
(1.13688 -0.0112782 0)
(1.13646 -0.0112369 0)
(1.13604 -0.0111972 0)
(1.1418 -0.010813 0)
(1.14138 -0.0107699 0)
(1.14097 -0.0107282 0)
(1.14056 -0.010688 0)
(1.14015 -0.0106493 0)
(1.13974 -0.010612 0)
(1.14498 -0.0102358 0)
(1.14458 -0.0101951 0)
(1.14418 -0.0101558 0)
(1.14379 -0.0101179 0)
(1.14339 -0.0100814 0)
(1.143 -0.0100464 0)
(1.14775 -0.00967955 0)
(1.14737 -0.00964101 0)
(1.14699 -0.00960383 0)
(1.14661 -0.00956805 0)
(1.14623 -0.00953367 0)
(1.14585 -0.00950073 0)
(1.15015 -0.00914419 0)
(1.14978 -0.00910766 0)
(1.14941 -0.00907247 0)
(1.14904 -0.00903865 0)
(1.14868 -0.0090062 0)
(1.14831 -0.00897514 0)
(1.1522 -0.00862945 0)
(1.15184 -0.0085948 0)
(1.15149 -0.00856146 0)
(1.15114 -0.00852944 0)
(1.15078 -0.00849876 0)
(1.15043 -0.00846945 0)
(1.15394 -0.00813487 -7.16701e-29)
(1.15359 -0.00810197 7.16701e-29)
(1.15325 -0.00807034 0)
(1.15291 -0.00804 0)
(1.15258 -0.00801096 0)
(1.15224 -0.00798325 0)
(1.15539 -0.00765976 0)
(1.15506 -0.0076285 0)
(1.15474 -0.00759848 0)
(1.15441 -0.00756971 0)
(1.15409 -0.0075422 0)
(1.15376 -0.00751597 0)
(1.1566 -0.00720331 7.31508e-29)
(1.15628 -0.0071736 -7.31508e-29)
(1.15597 -0.00714509 0)
(1.15566 -0.00711779 0)
(1.15534 -0.00709171 0)
(1.15503 -0.00706688 0)
(1.15758 -0.00676457 0)
(1.15728 -0.00673634 0)
(1.15698 -0.00670927 0)
(1.15668 -0.00668337 0)
(1.15638 -0.00665864 0)
(1.15608 -0.00663511 0)
(1.15837 -0.00634252 0)
(1.15808 -0.00631572 0)
(1.15779 -0.00629003 0)
(1.1575 -0.00626546 0)
(1.15721 -0.00624202 0)
(1.15692 -0.00621973 0)
(1.1587 -0.00591068 0)
(1.15842 -0.00588632 0)
(1.15814 -0.00586303 0)
(1.15787 -0.00584083 0)
(1.15759 -0.00581973 0)
(1.15918 -0.00552011 0)
(1.15891 -0.00549705 0)
(1.15864 -0.005475 0)
(1.15837 -0.005454 0)
(1.1581 -0.00543405 0)
(1.15953 -0.00514291 1.04374e-28)
(1.15927 -0.00512112 0)
(1.15901 -0.0051003 0)
(1.15875 -0.00508047 0)
(1.15849 -0.00506163 0)
(1.15977 -0.00477796 7.6776e-29)
(1.15952 -0.00475743 0)
(1.15927 -0.00473782 0)
(1.15902 -0.00471915 0)
(1.15877 -0.00470141 0)
(1.15992 -0.0044242 0)
(1.15968 -0.00440492 0)
(1.15943 -0.00438651 0)
(1.15919 -0.00436898 0)
(1.15895 -0.00435233 0)
(1.16 -0.00408055 0)
(1.15976 -0.00406253 0)
(1.15952 -0.00404532 0)
(1.15929 -0.00402893 0)
(1.15905 -0.00401337 0)
(1.16002 -0.00374602 0)
(1.15978 -0.00372925 0)
(1.15955 -0.00371324 0)
(1.15932 -0.003698 0)
(1.15909 -0.00368353 0)
(1.15999 -0.00341963 0)
(1.15976 -0.00340413 0)
(1.15953 -0.00338933 0)
(1.15931 -0.00337524 0)
(1.15908 -0.00336186 0)
(1.15992 -0.00310047 0)
(1.1597 -0.00308626 0)
(1.15948 -0.00307268 0)
(1.15926 -0.00305975 0)
(1.15904 -0.00304747 0)
(1.15984 -0.00278769 -7.9192e-29)
(1.15962 -0.00277477 0)
(1.1594 -0.00276243 0)
(1.15918 -0.00275067 0)
(1.15897 -0.00273951 0)
(1.15973 -0.00248048 0)
(1.15952 -0.00246886 0)
(1.1593 -0.00245777 0)
(1.15909 -0.0024472 0)
(1.15888 -0.00243717 0)
(1.15962 -0.00217809 -1.09134e-28)
(1.15941 -0.0021678 0)
(1.1592 -0.00215797 0)
(1.15899 -0.0021486 0)
(1.15878 -0.00213971 0)
(1.15951 -0.00187982 0)
(1.1593 -0.00187086 0)
(1.15909 -0.00186231 0)
(1.15889 -0.00185416 0)
(1.15868 -0.00184642 0)
(1.1594 -0.00158501 0)
(1.1592 -0.00157741 0)
(1.15899 -0.00157015 0)
(1.15879 -0.00156323 0)
(1.15858 -0.00155666 0)
(1.15931 -0.00129307 0)
(1.1591 -0.00128683 0)
(1.1589 -0.00128087 0)
(1.1587 -0.0012752 0)
(1.1585 -0.0012698 0)
(1.15923 -0.00100341 0)
(1.15902 -0.00099855 0)
(1.15882 -0.000993904 0)
(1.15862 -0.000989476 0)
(1.15842 -0.00098527 0)
(1.15916 -0.000715498 0)
(1.15896 -0.000712019 0)
(1.15876 -0.000708694 0)
(1.15856 -0.000705526 0)
(1.15836 -0.000702515 0)
(1.15912 -0.000428814 1.10309e-28)
(1.15892 -0.000426724 0)
(1.15872 -0.000424727 0)
(1.15852 -0.000422823 0)
(1.15832 -0.000421015 0)
(1.1591 -0.000142859 8.21402e-29)
(1.1589 -0.000142162 0)
(1.1587 -0.000141495 0)
(1.1585 -0.00014086 0)
(1.1583 -0.000140257 0)
(0.762425 0.0205997 0)
(0.778716 0.0213797 0)
(0.795477 0.0220447 0)
(0.812597 0.0225919 0)
(0.829965 0.0230225 0)
(0.847474 0.0233392 0)
(0.865019 0.0235453 0)
(0.882499 0.0236451 -5.51645e-29)
(0.89982 0.0236436 0)
(0.91689 0.0235465 -4.24442e-29)
(0.933629 0.0233602 0)
(0.949959 0.0230913 0)
(0.965814 0.022747 0)
(0.981132 0.0223347 0)
(0.995862 0.0218618 0)
(1.00996 0.0213358 0)
(1.02339 0.0207643 0)
(1.03612 0.0201546 0)
(1.04814 0.0195138 0)
(1.05944 0.0188486 0)
(1.07 0.0181654 0)
(1.07983 0.0174703 -3.66132e-29)
(1.08893 0.0167686 0)
(1.09733 0.0160654 3.81189e-29)
(1.10503 0.0153653 0)
(1.11206 0.014672 0)
(1.11845 0.013989 0)
(1.12422 0.0133193 0)
(1.12941 0.0126651 0)
(1.13405 0.0120285 0)
(1.13816 0.0114107 0)
(1.1418 0.010813 0)
(1.14498 0.0102358 0)
(1.14775 0.00967953 0)
(1.15015 0.00914416 0)
(1.1522 0.00862943 0)
(1.15394 0.00813485 7.16696e-29)
(1.15539 0.00765974 0)
(1.1566 0.00720329 -7.31503e-29)
(1.15758 0.00676455 0)
(1.15837 0.00634251 0)
(1.15898 0.00593609 0)
(1.15945 0.00554417 0)
(1.15979 0.00516564 0)
(1.16003 0.00479939 0)
(1.16017 0.00444432 0)
(1.16024 0.00409937 0)
(1.16025 0.00376352 0)
(1.16022 0.0034358 0)
(1.16015 0.00311531 0)
(1.16005 0.00280118 7.91915e-29)
(1.15995 0.0024926 0)
(1.15983 0.00218883 1.09134e-28)
(1.15972 0.00188916 0)
(1.15961 0.00159295 0)
(1.15951 0.00129958 0)
(1.15943 0.00100848 0)
(1.15937 0.000719128 0)
(1.15932 0.000430995 -1.10308e-28)
(1.1593 0.000143586 -8.21397e-29)
(0.763018 0.0204576 0)
(0.779226 0.0212346 0)
(0.795904 0.0218975 0)
(0.812941 0.0224435 0)
(0.830229 0.0228737 0)
(0.847659 0.0231909 0)
(0.865128 0.0233983 0)
(0.882535 0.0235001 5.51645e-29)
(0.899786 0.0235014 0)
(0.916792 0.0234076 4.24442e-29)
(0.93347 0.0232251 0)
(0.949744 0.0229605 0)
(0.965548 0.0226208 0)
(0.980821 0.0222134 0)
(0.995511 0.0217456 0)
(1.00957 0.0212249 0)
(1.02297 0.0206588 0)
(1.03569 0.0200545 0)
(1.04769 0.019419 0)
(1.05896 0.018759 0)
(1.06951 0.018081 0)
(1.07934 0.0173907 3.66132e-29)
(1.08844 0.0166938 0)
(1.09684 0.0159952 -3.81189e-29)
(1.10454 0.0152993 0)
(1.11158 0.01461 0)
(1.11798 0.0139308 0)
(1.12376 0.0132646 0)
(1.12896 0.0126137 0)
(1.1336 0.01198 0)
(1.13773 0.0113651 0)
(1.14138 0.0107699 0)
(1.14458 0.0101951 0)
(1.14737 0.00964098 0)
(1.14978 0.00910764 0)
(1.15184 0.00859478 0)
(1.15359 0.00810195 -7.16696e-29)
(1.15506 0.00762848 0)
(1.15628 0.00717358 7.31503e-29)
(1.15728 0.00673633 0)
(1.15808 0.00631571 0)
(1.1587 0.00591066 0)
(1.15918 0.0055201 0)
(1.15953 0.00514289 0)
(1.15977 0.00477795 0)
(1.15992 0.00442418 0)
(1.16 0.00408054 0)
(1.16002 0.00374601 0)
(1.15999 0.00341962 0)
(1.15992 0.00310046 0)
(1.15984 0.00278768 -7.91915e-29)
(1.15973 0.00248047 0)
(1.15962 0.00217808 -1.09134e-28)
(1.15951 0.00187981 0)
(1.1594 0.00158501 0)
(1.15931 0.00129307 0)
(1.15923 0.00100341 0)
(1.15916 0.000715496 0)
(1.15912 0.000428813 1.10308e-28)
(1.1591 0.000142858 8.21397e-29)
(0.763608 0.0203169 0)
(0.779734 0.021091 0)
(0.796329 0.0217517 0)
(0.813285 0.0222966 0)
(0.830493 0.0227266 0)
(0.847844 0.0230443 0)
(0.865237 0.023253 0)
(0.882572 0.0233569 0)
(0.899754 0.0233608 0)
(0.916695 0.0232704 0)
(0.933313 0.0230917 0)
(0.949533 0.0228313 0)
(0.965286 0.0224963 0)
(0.980514 0.0220937 0)
(0.995164 0.0216311 0)
(1.00919 0.0211157 0)
(1.02256 0.0205549 0)
(1.03525 0.019956 0)
(1.04723 0.0193258 0)
(1.05849 0.0186711 0)
(1.06903 0.0179981 0)
(1.07885 0.0173128 0)
(1.08795 0.0166206 0)
(1.09634 0.0159265 0)
(1.10405 0.0152348 0)
(1.1111 0.0145496 0)
(1.1175 0.0138741 0)
(1.12329 0.0132114 0)
(1.1285 0.0125637 0)
(1.13316 0.0119331 0)
(1.13731 0.0113209 0)
(1.14097 0.0107282 0)
(1.14418 0.0101557 0)
(1.14699 0.00960381 0)
(1.14941 0.00907245 0)
(1.15149 0.00856144 0)
(1.15325 0.00807032 0)
(1.15474 0.00759846 0)
(1.15597 0.00714507 0)
(1.15698 0.00670925 0)
(1.15779 0.00629001 0)
(1.15842 0.0058863 0)
(1.15891 0.00549703 0)
(1.15927 0.0051211 0)
(1.15952 0.00475742 0)
(1.15968 0.00440491 0)
(1.15976 0.00406252 0)
(1.15978 0.00372924 0)
(1.15976 0.00340412 0)
(1.1597 0.00308625 0)
(1.15962 0.00277476 0)
(1.15952 0.00246886 0)
(1.15941 0.00216779 0)
(1.1593 0.00187086 0)
(1.1592 0.00157741 0)
(1.1591 0.00128683 0)
(1.15902 0.000998547 0)
(1.15896 0.000712017 0)
(1.15892 0.000426723 0)
(1.1589 0.000142161 0)
(0.764196 0.0201776 0)
(0.78024 0.0209488 0)
(0.796754 0.0216075 0)
(0.813629 0.0221512 0)
(0.830756 0.0225809 0)
(0.84803 0.0228992 0)
(0.865348 0.0231093 0)
(0.882611 0.0232153 0)
(0.899725 0.0232219 0)
(0.916602 0.0231348 0)
(0.93316 0.0229599 0)
(0.949324 0.0227038 0)
(0.965028 0.0223734 0)
(0.980211 0.0219758 0)
(0.994821 0.0215183 0)
(1.00881 0.0210082 0)
(1.02216 0.0204527 0)
(1.03482 0.0198591 0)
(1.04678 0.0192343 0)
(1.05803 0.0185848 0)
(1.06855 0.0179169 0)
(1.07836 0.0172365 0)
(1.08746 0.0165491 0)
(1.09586 0.0158594 0)
(1.10357 0.015172 0)
(1.11062 0.0144907 0)
(1.11703 0.013819 0)
(1.12283 0.0131597 0)
(1.12805 0.0125153 0)
(1.13273 0.0118876 0)
(1.13688 0.0112781 0)
(1.14056 0.010688 0)
(1.14379 0.0101178 0)
(1.14661 0.00956803 0)
(1.14904 0.00903862 0)
(1.15114 0.00852942 0)
(1.15291 0.00803998 0)
(1.15441 0.00756969 0)
(1.15566 0.00711777 0)
(1.15668 0.00668335 0)
(1.1575 0.00626544 0)
(1.15814 0.00586301 0)
(1.15864 0.00547499 0)
(1.15901 0.00510028 0)
(1.15927 0.00473781 0)
(1.15943 0.0043865 0)
(1.15952 0.00404531 0)
(1.15955 0.00371323 0)
(1.15953 0.00338932 0)
(1.15948 0.00307267 0)
(1.1594 0.00276242 0)
(1.1593 0.00245776 0)
(1.1592 0.00215796 0)
(1.15909 0.00186231 0)
(1.15899 0.00157015 0)
(1.1589 0.00128087 0)
(1.15882 0.000993901 0)
(1.15876 0.000708692 0)
(1.15872 0.000424726 0)
(1.1587 0.000141495 0)
(0.764781 0.0200396 0)
(0.780744 0.0208081 0)
(0.797177 0.0214648 0)
(0.813972 0.0220074 0)
(0.83102 0.0224369 0)
(0.848217 0.0227558 0)
(0.86546 0.0229672 0)
(0.882652 0.0230753 0)
(0.899697 0.0230847 0)
(0.91651 0.0230009 0)
(0.933009 0.0228298 0)
(0.949119 0.022578 0)
(0.964773 0.0222522 0)
(0.979911 0.0218595 0)
(0.994482 0.0214071 0)
(1.00844 0.0209023 0)
(1.02175 0.0203522 0)
(1.03439 0.019764 0)
(1.04633 0.0191444 0)
(1.05756 0.0185001 0)
(1.06808 0.0178373 0)
(1.07788 0.0171619 0)
(1.08698 0.0164791 0)
(1.09537 0.0157939 0)
(1.10309 0.0151107 0)
(1.11014 0.0144335 0)
(1.11656 0.0137655 0)
(1.12237 0.0131096 0)
(1.12761 0.0124684 0)
(1.13229 0.0118436 0)
(1.13646 0.0112369 0)
(1.14015 0.0106492 0)
(1.14339 0.0100814 0)
(1.14623 0.00953365 0)
(1.14868 0.00900617 0)
(1.15078 0.00849874 0)
(1.15258 0.00801094 0)
(1.15409 0.00754218 0)
(1.15534 0.00709169 0)
(1.15638 0.00665862 0)
(1.15721 0.006242 0)
(1.15787 0.00584081 0)
(1.15837 0.00545399 0)
(1.15875 0.00508045 0)
(1.15902 0.00471913 0)
(1.15919 0.00436896 0)
(1.15929 0.00402891 0)
(1.15932 0.00369799 0)
(1.15931 0.00337523 0)
(1.15926 0.00305974 0)
(1.15918 0.00275066 0)
(1.15909 0.0024472 0)
(1.15899 0.0021486 0)
(1.15889 0.00185416 0)
(1.15879 0.00156323 0)
(1.1587 0.00127519 0)
(1.15862 0.000989473 0)
(1.15856 0.000705524 0)
(1.15852 0.000422822 0)
(1.1585 0.00014086 0)
(0.751281 0.0199566 -7.16974e-23)
(0.75193 0.0198173 9.57943e-24)
(0.752575 0.0196794 1.15256e-22)
(0.753217 0.0195429 -1.57525e-22)
(0.753857 0.0194078 -1.45849e-23)
(0.744772 0.0195486 -3.90624e-23)
(0.745451 0.0194112 1.5657e-23)
(0.746128 0.0192753 1.11985e-23)
(0.746801 0.0191407 8.44519e-23)
(0.74747 0.0190074 2.10655e-23)
(0.738361 0.0191174 -7.98353e-23)
(0.739072 0.0189822 -1.89489e-23)
(0.739779 0.0188484 1.35726e-22)
(0.740483 0.0187158 -1.3337e-22)
(0.741183 0.0185846 9.24231e-23)
(0.732058 0.0186634 -2.57812e-23)
(0.732801 0.0185306 -2.02281e-23)
(0.73354 0.0183991 2.53128e-23)
(0.734275 0.0182689 -1.60115e-23)
(0.735006 0.0181399 -7.84692e-23)
(0.725875 0.0181865 1.39798e-22)
(0.72665 0.0180563 4.10873e-23)
(0.727421 0.0179273 -9.45064e-23)
(0.728187 0.0177996 4.94332e-23)
(0.72895 0.0176731 -5.82628e-23)
(0.719822 0.0176867 4.67435e-25)
(0.720629 0.0175593 5.73123e-23)
(0.721432 0.0174331 -3.3787e-23)
(0.72223 0.0173082 -1.07991e-23)
(0.723023 0.0171844 2.34922e-23)
(0.71391 0.0171643 1.96526e-23)
(0.714749 0.01704 5.75927e-23)
(0.715584 0.0169168 -4.81784e-23)
(0.716413 0.0167948 6.93087e-23)
(0.717238 0.016674 5.74909e-23)
(0.70815 0.0166198 2.47498e-23)
(0.709021 0.0164986 2.06302e-23)
(0.709887 0.0163787 -1.1701e-22)
(0.710748 0.0162599 2.27783e-23)
(0.711604 0.0161423 1.32096e-22)
(0.702551 0.0160534 4.60216e-23)
(0.703454 0.0159357 -6.67955e-23)
(0.704352 0.0158193 7.87882e-23)
(0.705244 0.0157039 -1.24048e-22)
(0.70613 0.0155896 5.706e-23)
(0.697126 0.0154656 -5.49238e-23)
(0.69806 0.0153517 -4.12629e-23)
(0.698988 0.0152389 -4.61387e-23)
(0.699911 0.0151272 1.48333e-22)
(0.700828 0.0150165 -9.51966e-23)
(0.691883 0.014857 -9.82049e-23)
(0.692847 0.014747 9.40299e-23)
(0.693806 0.0146381 -6.32828e-23)
(0.694759 0.0145303 9.89546e-23)
(0.695706 0.0144234 4.48877e-23)
(0.686832 0.0142281 -6.36431e-23)
(0.687827 0.0141223 2.12244e-23)
(0.688816 0.0140175 3.22462e-24)
(0.689798 0.0139137 -3.79339e-23)
(0.690774 0.0138109 9.36668e-23)
(0.681984 0.0135796 1.11397e-22)
(0.683009 0.0134782 -6.40365e-23)
(0.684026 0.0133777 -2.03549e-24)
(0.685037 0.0132782 -3.6219e-23)
(0.686042 0.0131796 6.47531e-23)
(0.677348 0.0129122 5.64852e-23)
(0.678401 0.0128154 -2.05888e-22)
(0.679447 0.0127194 1.09695e-22)
(0.680486 0.0126244 -2.52451e-23)
(0.681518 0.0125302 2.77102e-23)
(0.672933 0.0122266 -4.80999e-23)
(0.674014 0.0121346 -4.42483e-23)
(0.675087 0.0120434 3.53448e-23)
(0.676153 0.011953 -3.24995e-23)
(0.677211 0.0118635 1.53086e-23)
(0.668748 0.0115237 -1.03017e-22)
(0.669855 0.0114366 8.06473e-23)
(0.670954 0.0113503 1.42118e-23)
(0.672046 0.0112648 -4.12787e-23)
(0.67313 0.0111801 1.64983e-24)
(0.664802 0.0108043 1.39006e-24)
(0.665934 0.0107223 -1.2351e-23)
(0.667058 0.0106411 3.21213e-23)
(0.668174 0.0105607 -3.99269e-23)
(0.669283 0.010481 -2.38375e-24)
(0.661101 0.0100692 2.01059e-23)
(0.662257 0.0099926 2.63271e-23)
(0.663405 0.00991668 -4.67098e-24)
(0.664545 0.00984146 3.94955e-23)
(0.665677 0.00976692 -7.74934e-23)
(0.657655 0.00931958 -4.75785e-23)
(0.658833 0.00924842 -3.24956e-24)
(0.660003 0.00917794 7.43162e-23)
(0.661165 0.00910811 1.54883e-24)
(0.662319 0.0090389 1.35571e-23)
(0.65447 0.00855629 -9.08252e-24)
(0.655669 0.00849077 1.8445e-23)
(0.65686 0.00842588 -1.94071e-24)
(0.658042 0.00836159 -2.64766e-23)
(0.659216 0.00829787 4.18602e-23)
(0.651552 0.0077804 1.86372e-23)
(0.652771 0.00772067 -3.99747e-24)
(0.65398 0.00766151 1.39948e-23)
(0.655182 0.0076029 6.66334e-24)
(0.656374 0.0075448 -2.79866e-23)
(0.648908 0.00699299 -3.69489e-23)
(0.650145 0.00693919 3.58108e-23)
(0.651372 0.00688589 -2.15772e-23)
(0.65259 0.00683309 2.50333e-23)
(0.6538 0.00678075 -1.35241e-23)
(0.645283 0.00624342 -5.68241e-23)
(0.646544 0.00619519 2.98797e-23)
(0.647796 0.00614743 2.74558e-24)
(0.649039 0.00610011 -1.25967e-23)
(0.650273 0.00605323 -8.74105e-24)
(0.651498 0.00600677 -2.15186e-25)
(0.643189 0.00543016 3.67125e-23)
(0.644464 0.00538814 1.16427e-23)
(0.64573 0.00534652 -2.22599e-23)
(0.646987 0.0053053 5.44102e-24)
(0.648235 0.00526445 -1.82328e-23)
(0.649474 0.00522396 8.45432e-24)
(0.641385 0.00460873 1.64635e-24)
(0.642673 0.00457301 1.50835e-23)
(0.643951 0.00453763 -3.39044e-23)
(0.64522 0.00450259 3.32303e-24)
(0.64648 0.00446787 -1.12913e-23)
(0.64773 0.00443345 2.05965e-23)
(0.639877 0.00378034 -3.40562e-23)
(0.641174 0.003751 2.74937e-23)
(0.642463 0.00372195 -1.27149e-23)
(0.643742 0.00369317 8.92345e-24)
(0.645011 0.00366465 -1.12937e-23)
(0.646272 0.00363638 6.12699e-24)
(0.638666 0.00294623 1.98689e-25)
(0.639972 0.00292334 7.74824e-24)
(0.641268 0.00290068 4.39211e-24)
(0.642555 0.00287822 -5.29726e-24)
(0.643833 0.00285597 7.84247e-24)
(0.645102 0.00283392 -1.28419e-24)
(0.637755 0.00210765 1.93937e-24)
(0.639067 0.00209127 -1.45581e-24)
(0.64037 0.00207504 8.94131e-24)
(0.641663 0.00205896 -1.76017e-23)
(0.642947 0.00204303 9.94583e-24)
(0.644222 0.00202724 7.25317e-24)
(0.637147 0.00126587 9.32717e-24)
(0.638463 0.00125602 -1.705e-24)
(0.63977 0.00124627 -6.93293e-24)
(0.641068 0.00123661 -2.30244e-24)
(0.642356 0.00122703 2.77363e-24)
(0.643634 0.00121755 -3.42019e-24)
(0.636842 0.000422164 3.11519e-24)
(0.638161 0.000418877 -9.98551e-25)
(0.63947 0.000415622 -1.74112e-24)
(0.640769 0.000412398 3.38317e-24)
(0.642059 0.000409203 -2.44982e-24)
(0.64334 0.000406037 -4.74284e-27)
)
;

boundaryField
{
    inlet
    {
        type            uniformFixedValue;
        uniformValue    constant (1 0 0);
        value           nonuniform 0();
    }
    outlet
    {
        type            pressureInletOutletVelocity;
        value           nonuniform 0();
    }
    cylinder
    {
        type            fixedValue;
        value           nonuniform 0();
    }
    top
    {
        type            symmetryPlane;
    }
    bottom
    {
        type            symmetryPlane;
    }
    defaultFaces
    {
        type            empty;
    }
    procBoundary58to57
    {
        type            processor;
        value           nonuniform List<vector> 
183
(
(0.635514 -0.000425501 -5.71457e-25)
(0.635821 -0.00127584 -3.38396e-24)
(0.636433 -0.00212422 6.73793e-24)
(0.63735 -0.00296937 -1.89701e-24)
(0.638569 -0.00380999 2.00815e-23)
(0.640088 -0.00464483 -7.29374e-24)
(0.641904 -0.00547263 -3.91493e-23)
(0.645283 -0.00624345 -1.08798e-23)
(0.645283 -0.00624345 -1.08798e-23)
(0.647663 -0.00704735 -1.36894e-23)
(0.650325 -0.00784073 -4.66599e-23)
(0.653262 -0.00862246 1.94739e-23)
(0.656468 -0.00939146 6.32261e-24)
(0.659937 -0.0101467 -6.31074e-23)
(0.663662 -0.0108871 4.40759e-24)
(0.667634 -0.0116117 4.21101e-23)
(0.671845 -0.0123197 1.20255e-22)
(0.676288 -0.0130101 -4.06284e-23)
(0.680953 -0.0136821 -1.9595e-24)
(0.685831 -0.014335 -4.47107e-24)
(0.690911 -0.0149681 1.23816e-22)
(0.696186 -0.0155806 2.62913e-23)
(0.701643 -0.0161722 6.36102e-23)
(0.707273 -0.0167421 4.39255e-23)
(0.713066 -0.01729 -3.0592e-23)
(0.71901 -0.0178154 -1.72103e-23)
(0.725096 -0.0183181 -1.45576e-22)
(0.731311 -0.0187976 8.05724e-23)
(0.737646 -0.019254 7.41703e-23)
(0.744089 -0.0196874 6.2693e-23)
(0.75063 -0.0200973 -8.05164e-24)
(0.76183 -0.0207434 0)
(0.778204 -0.0215264 0)
(0.795049 -0.0221936 0)
(0.812251 -0.022742 0)
(0.829702 -0.023173 0)
(0.84729 -0.0234892 0)
(0.864912 -0.023694 0)
(0.882466 -0.0237917 0)
(0.899855 -0.0237876 0)
(0.916992 -0.0236872 0)
(0.933791 -0.023497 0)
(0.950177 -0.0232239 0)
(0.966082 -0.022875 0)
(0.981446 -0.0224577 0)
(0.996216 -0.0219796 0)
(1.01035 -0.0214484 0)
(1.02381 -0.0208716 0)
(1.03657 -0.0202565 0)
(1.04861 -0.0196103 0)
(1.05991 -0.0189398 0)
(1.07049 -0.0182515 0)
(1.08032 -0.0175514 0)
(1.08943 -0.016845 0)
(1.09783 -0.0161373 0)
(1.10552 -0.0154328 0)
(1.11255 -0.0147355 0)
(1.11893 -0.0140488 0)
(1.12469 -0.0133755 0)
(1.12987 -0.0127181 0)
(1.13449 -0.0120784 0)
(1.13859 -0.0114579 0)
(1.14221 -0.0108575 0)
(1.14538 -0.0102779 0)
(1.14814 -0.00971946 0)
(1.15052 -0.00918204 0)
(1.15255 -0.0086654 0)
(1.15428 -0.00816903 0)
(1.15572 -0.00769224 0)
(1.15691 -0.00723419 0)
(1.15789 -0.00679393 0)
(1.15866 -0.00637042 0)
(1.15899 -0.0059361 0)
(1.15899 -0.0059361 0)
(1.15945 -0.00554419 0)
(1.15979 -0.00516566 1.04374e-28)
(1.16003 -0.0047994 7.6776e-29)
(1.16017 -0.00444433 0)
(1.16024 -0.00409938 0)
(1.16025 -0.00376353 0)
(1.16022 -0.00343581 0)
(1.16015 -0.00311532 0)
(1.16005 -0.00280119 -7.9192e-29)
(1.15995 -0.00249261 0)
(1.15983 -0.00218883 -1.09134e-28)
(1.15972 -0.00188916 0)
(1.15961 -0.00159295 0)
(1.15951 -0.00129958 0)
(1.15943 -0.00100849 0)
(1.15937 -0.00071913 0)
(1.15932 -0.000430996 1.10309e-28)
(1.1593 -0.000143586 8.21402e-29)
(0.76183 0.0207434 0)
(0.778204 0.0215264 0)
(0.795048 0.0221936 0)
(0.812251 0.022742 0)
(0.829702 0.023173 0)
(0.84729 0.0234891 0)
(0.864912 0.0236939 0)
(0.882466 0.0237917 0)
(0.899855 0.0237875 0)
(0.916992 0.0236872 0)
(0.933791 0.023497 0)
(0.950177 0.0232239 0)
(0.966082 0.022875 0)
(0.981446 0.0224577 0)
(0.996216 0.0219796 0)
(1.01035 0.0214484 0)
(1.02381 0.0208715 0)
(1.03657 0.0202564 0)
(1.04861 0.0196102 0)
(1.05991 0.0189398 0)
(1.07049 0.0182515 0)
(1.08032 0.0175514 0)
(1.08943 0.016845 0)
(1.09783 0.0161373 0)
(1.10552 0.0154328 0)
(1.11255 0.0147355 0)
(1.11893 0.0140488 0)
(1.12469 0.0133755 0)
(1.12987 0.0127181 0)
(1.13449 0.0120784 0)
(1.13859 0.0114578 0)
(1.14221 0.0108575 0)
(1.14538 0.0102779 0)
(1.14814 0.00971944 0)
(1.15052 0.00918202 0)
(1.15255 0.00866538 0)