/*--------------------------------*- C++ -*----------------------------------*\
  =========                 |
  \\      /  F ield         | OpenFOAM: The Open Source CFD Toolbox
   \\    /   O peration     | Website:  https://openfoam.org
    \\  /    A nd           | Version:  7
     \\/     M anipulation  |
\*---------------------------------------------------------------------------*/
FoamFile
{
    version     2.0;
    format      ascii;
    class       volScalarField;
    location    "60";
    object      p;
}
// * * * * * * * * * * * * * * * * * * * * * * * * * * * * * * * * * * * * * //

dimensions      [0 2 -2 0 0 0 0];

internalField   nonuniform List<scalar> 
183
(
0.300376
0.302636
0.303879
0.304101
0.303304
0.131865
0.111898
0.097072
0.0840259
0.0719719
0.0631091
0.0583411
0.0532052
0.0470929
0.0438365
0.0434077
0.041816
0.0392576
0.0358513
0.0345335
0.0353784
0.0343866
0.0316841
0.0307752
0.0331446
0.0302879
0.116482
0.107774
0.0992906
0.0914168
0.0844713
0.0784722
0.0729396
0.0678845
0.0636589
0.0600616
0.0567484
0.0537534
0.0510878
0.0487943
0.0471439
0.0456313
0.0442976
0.0430606
0.0423529
0.042081
0.0415229
0.147077
0.120682
0.13852
0.150834
0.121702
0.145954
0.153896
0.122584
0.153028
0.156928
0.123457
0.159858
0.159859
0.124292
0.16641
0.162641
0.125083
0.17266
0.165275
0.178591
0.167761
0.184186
0.170094
0.18943
0.172268
0.194308
0.174282
0.198806
0.176133
0.20291
0.177816
0.206611
0.179331
0.209897
0.180675
0.212759
0.181848
0.21519
0.182846
0.217182
0.183669
0.218734
0.184333
0.219839
0.184769
0.22048
0.185082
0.220689
0.185211
0.22043
0.185141
0.219725
0.184904
0.218573
0.184493
0.216975
0.183908
0.214936
0.183149
0.212462
0.182217
0.209561
0.181115
0.206241
0.179843
0.202512
0.178404
0.198384
0.1768
0.193869
0.175033
0.188982
0.173106
0.183737
0.171023
0.178149
0.168786
0.172236
0.166401
0.127358
0.166016
0.163869
0.126717
0.159512
0.161185
0.126029
0.152757
0.1584
0.125303
0.145643
0.155595
0.124567
0.152071
0.123698
0.137154
0.120022
0.118008
0.11172
0.103894
0.103504
0.0895774
0.0960934
0.0787682
0.089311
0.071508
0.0828917
0.0640347
0.077084
0.0566089
0.0719727
0.0526057
0.0673307
0.0477173
0.0632765
0.0454554
0.059721
0.0417162
0.0566933
0.03936
0.0543423
0.0388028
0.0524869
0.0399451
0.0508669
0.0392185
0.0494713
0.0368073
0.0482646
0.0365033
0.0475545
0.0383763
0.0471992
0.0381997
0.0468277
0.0359729
0.0463479
)
;

boundaryField
{
    inlet
    {
        type            zeroGradient;
    }
    outlet
    {
        type            fixedValue;
        value           nonuniform 0();
    }
    cylinder
    {
        type            zeroGradient;
    }
    top
    {
        type            symmetryPlane;
    }
    bottom
    {
        type            symmetryPlane;
    }
    defaultFaces
    {
        type            empty;
    }
    procBoundary2to1
    {
        type            processor;
        value           nonuniform List<scalar> 
86
(
0.112065
0.105937
0.0996409
0.0935266
0.0876893
0.0822626
0.0775989
0.0734764
0.069574
0.0661788
0.0633704
0.0609009
0.0585957
0.0564886
0.054671
0.0532709
0.0520409
0.0509675
0.0501806
0.049689
0.0494088
0.115914
0.116805
0.117582
0.118379
0.119161
0.11995
0.125831
0.125831
0.126533
0.127187
0.127796
0.128361
0.128881
0.129357
0.129789
0.130176
0.13052
0.130818
0.131072
0.131298
0.131419
0.13157
0.131655
0.131678
0.131661
0.1316
0.131493
0.131341
0.131142
0.130899
0.130611
0.130278
0.129901
0.12948
0.129015
0.128506
0.127954
0.127954
0.121532
0.120874
0.120188
0.119488
0.118806
0.117994
0.114374
0.108627
0.102672
0.096661
0.0909522
0.0858961
0.0812107
0.0768283
0.072928
0.0694541
0.0663981
0.0637531
0.0614462
0.059583
0.0581331
0.0568848
0.0557905
0.0549503
0.0544143
0.0540137
0.053723
)
;
    }
    procBoundary2to3
    {
        type            processor;
        value           nonuniform List<scalar> 
82
(
0.17481
0.188422
0.201528
0.214063
0.225971
0.237195
0.247684
0.257393
0.266277
0.274297
0.281418
0.287611
0.292848
0.297109
0.297109
0.313807
0.316268
0.317613
0.317838
0.316944
0.301492
0.301492
0.298674
0.294864
0.290078
0.284341
0.277677
0.270119
0.261702
0.252467
0.242457
0.231721
0.220313
0.20829
0.195714
0.182653
0.109044
0.0918088
0.0726757
0.0590361
0.0453735
0.0403991
0.037968
0.0302492
0.0255118
0.0265082
0.0280736
0.0245106
0.0223128
0.0217095
0.0207029
0.0241522
0.0213273
0.0203049
0.0193096
0.0242446
0.0193203
0.130649
0.130649
0.138143
0.138143
0.117764
0.100776
0.0834858
0.0659393
0.0588455
0.051172
0.0425173
0.0338129
0.0369562
0.0273727
0.0311179
0.024984
0.0267341
0.0259577
0.028727
0.0259664
0.0250341
0.0252752
0.0281001
0.0276787
0.0249647
)
;
    }
    procBoundary2to4
    {
        type            processor;
        value           nonuniform List<scalar> 6(0.131605 0.146336 0.160759 0.169181 0.155379 0.141333);
    }
}


// ************************************************************************* //
