/*--------------------------------*- C++ -*----------------------------------*\
  =========                 |
  \\      /  F ield         | OpenFOAM: The Open Source CFD Toolbox
   \\    /   O peration     | Website:  https://openfoam.org
    \\  /    A nd           | Version:  7
     \\/     M anipulation  |
\*---------------------------------------------------------------------------*/
FoamFile
{
    version     2.0;
    format      ascii;
    class       volVectorField;
    location    "65";
    object      U;
}
// * * * * * * * * * * * * * * * * * * * * * * * * * * * * * * * * * * * * * //

dimensions      [0 1 -1 0 0 0 0];

internalField   nonuniform List<vector> 
183
(
(0.765289 0.0382439 -4.48375e-20)
(0.763344 0.0214115 -2.7072e-20)
(0.762426 0.00447753 6.84333e-21)
(0.762549 -0.0124944 9.57133e-21)
(0.763702 -0.0294397 7.94064e-21)
(0.973827 0.056431 0)
(0.989744 0.0602813 0)
(1.0012 0.0561047 0)
(1.00661 0.0537502 0)
(1.01213 0.0468574 0)
(1.01863 0.0458525 0)
(1.02086 0.0457047 0)
(1.01985 0.0409941 0)
(1.0225 0.0359477 0)
(1.02738 0.0359154 0)
(1.02737 0.033909 0)
(1.02698 0.031096 0)
(1.02323 0.0275951 0)
(1.02805 0.0228666 0)
(1.02641 0.0206622 0)
(1.02812 0.0184833 0)
(1.0248 0.0153528 0)
(1.0261 0.011129 0)
(1.02659 0.00770715 0)
(1.02712 0.00506235 0)
(1.0265 0.00218669 0)
(0.965619 0.0526213 0)
(0.970836 0.057861 0)
(0.977014 0.0626636 0)
(0.986294 0.0631292 0)
(0.995127 0.0639741 0)
(1.00033 0.060134 0)
(1.00428 0.0542487 0)
(1.01029 0.0507035 0)
(1.0142 0.047396 0)
(1.01368 0.0408025 0)
(1.01348 0.0356297 0)
(1.01465 0.0318931 0)
(1.01877 0.0289627 0)
(1.01799 0.0259861 0)
(1.01902 0.0212681 0)
(1.01695 0.0174473 0)
(1.01932 0.0149179 0)
(1.02032 0.0123031 0)
(1.02017 0.00817427 0)
(1.01798 0.00506506 0)
(1.02023 0.00194534 0)
(0.953986 0.0603497 -7.25949e-21)
(0.967107 0.0488609 7.09301e-21)
(0.943617 0.179892 7.94492e-21)
(0.948088 0.0577228 6.05079e-21)
(0.967573 0.0468385 1.28696e-21)
(0.937143 0.173217 4.49876e-21)
(0.943306 0.0542589 1.15572e-20)
(0.967918 0.044713 -8.62992e-22)
(0.930548 0.165975 -2.0406e-20)
(0.939348 0.0511571 2.46268e-21)
(0.968094 0.0425864 -1.46645e-22)
(0.92413 0.158478 7.9986e-21)
(0.935977 0.0480572 -2.71213e-20)
(0.96811 0.0403689 -4.44731e-21)
(0.917989 0.150624 4.0572e-20)
(0.933029 0.0448992 2.24277e-20)
(0.967993 0.0380718 1.01761e-20)
(0.912165 0.142415 -1.90678e-20)
(0.930399 0.0417187 6.50853e-21)
(0.906675 0.133873 -1.47945e-20)
(0.928021 0.0385229 5.73152e-21)
(0.901532 0.125017 1.96676e-20)
(0.925854 0.0353137 -2.28727e-20)
(0.896746 0.115867 -1.9112e-21)
(0.923877 0.0320941 1.33866e-20)
(0.892327 0.106444 1.05112e-20)
(0.922078 0.0288668 -2.06595e-20)
(0.888285 0.09677 2.22615e-20)
(0.920449 0.0256336 2.81414e-20)
(0.884633 0.0868682 -4.84913e-20)
(0.918987 0.0223963 -3.95347e-20)
(0.881379 0.0767618 4.61873e-20)
(0.917693 0.0191562 2.09951e-20)
(0.878533 0.0664742 -4.44096e-22)
(0.916564 0.0159138 6.13607e-21)
(0.876105 0.0560297 -3.24548e-20)
(0.915602 0.0126707 -4.71776e-21)
(0.8741 0.0454534 3.6034e-20)
(0.914807 0.00943613 -6.61568e-21)
(0.872527 0.0347653 -1.09127e-20)
(0.914179 0.00615341 -1.41045e-20)
(0.871385 0.0239941 7.45976e-21)
(0.913714 0.00293812 8.01869e-21)
(0.870688 0.0131599 2.22203e-21)
(0.913426 -0.000139757 -5.86352e-21)
(0.870438 0.00231672 -2.77907e-21)
(0.91331 -0.00329498 8.91755e-22)
(0.870631 -0.00854659 -1.20616e-21)
(0.913361 -0.00655188 -3.94349e-22)
(0.871263 -0.0194273 4.91885e-22)
(0.913583 -0.00978404 -4.21758e-21)
(0.872336 -0.0302539 3.36451e-21)
(0.913976 -0.0129682 1.61165e-20)
(0.873847 -0.0410164 -1.63523e-20)
(0.914541 -0.0161323 -1.23745e-20)
(0.875792 -0.0516951 3.01828e-20)
(0.915279 -0.0192796 -5.13932e-22)
(0.878166 -0.0622659 -3.21424e-20)
(0.916191 -0.0224079 -1.16946e-20)
(0.880961 -0.0727059 -7.1789e-21)
(0.917279 -0.0255164 3.01895e-21)
(0.884168 -0.082993 5.15353e-20)
(0.918543 -0.0286046 2.1921e-20)
(0.887779 -0.0931055 -9.20385e-20)
(0.919985 -0.0316719 -2.34788e-20)
(0.891782 -0.103022 3.34156e-20)
(0.921606 -0.0347177 3.93609e-20)
(0.896166 -0.112723 6.40289e-21)
(0.923408 -0.0377417 -1.37529e-20)
(0.900917 -0.122187 1.08343e-20)
(0.925394 -0.0407436 2.84453e-20)
(0.906021 -0.131395 1.4387e-20)
(0.927569 -0.0437233 -5.19818e-20)
(0.911466 -0.140329 -1.67964e-20)
(0.929944 -0.0466802 1.21587e-21)
(0.917236 -0.148973 -4.56084e-20)
(0.932537 -0.0496138 1.84652e-20)
(0.923318 -0.157311 5.5405e-20)
(0.935381 -0.0525255 2.48312e-20)
(0.967001 -0.0487419 -3.94654e-20)
(0.929688 -0.165324 -1.31139e-20)
(0.938533 -0.0554116 -3.38389e-20)
(0.96712 -0.0510225 7.21384e-21)
(0.936305 -0.173014 -2.68285e-20)
(0.942088 -0.0582367 4.07195e-21)
(0.967152 -0.0532033 1.05975e-20)
(0.943069 -0.180467 -1.68178e-20)
(0.9462 -0.0610624 1.25602e-20)
(0.967064 -0.0552845 8.60519e-21)
(0.949649 -0.187416 2.0556e-20)
(0.951109 -0.0643163 9.02623e-21)
(0.966845 -0.0573597 2.37349e-21)
(0.957131 -0.0668229 -8.40417e-21)
(0.966542 -0.0593595 -2.07635e-21)
(0.977415 -0.0608017 0)
(0.96561 -0.0629405 0)
(0.993881 -0.0662548 0)
(0.971785 -0.0670178 0)
(1.00188 -0.0601129 0)
(0.981105 -0.0718453 0)
(1.01025 -0.0557084 0)
(0.989961 -0.073228 0)
(1.01642 -0.0546986 0)
(0.99718 -0.0706082 0)
(1.0187 -0.0533924 0)
(1.00371 -0.0660992 0)
(1.01953 -0.0463313 0)
(1.011 -0.0643194 0)
(1.02446 -0.0447588 0)
(1.01516 -0.0591046 0)
(1.02556 -0.0419895 0)
(1.01827 -0.0532983 0)
(1.02875 -0.0370547 0)
(1.02009 -0.0486734 0)
(1.02876 -0.0353698 0)
(1.02153 -0.0421001 0)
(1.0299 -0.029424 0)
(1.02281 -0.0377819 0)
(1.03371 -0.0266103 0)
(1.02081 -0.0316625 0)
(1.03133 -0.0228392 0)
(1.0213 -0.0265113 0)
(1.03218 -0.0212375 0)
(1.01924 -0.0213516 0)
(1.02796 -0.0174016 0)
(1.0215 -0.0182921 0)
(1.02949 -0.0133195 0)
(1.02155 -0.0150609 0)
(1.02922 -0.0102187 0)
(1.02082 -0.0106511 0)
(1.02993 -0.00727974 0)
(1.01816 -0.00735326 0)
(1.0291 -0.00518399 0)
(1.01838 -0.00486876 0)
(1.02783 -0.00194414 0)
(1.02082 -0.00194963 0)
)
;

boundaryField
{
    inlet
    {
        type            uniformFixedValue;
        uniformValue    constant (1 0 0);
        value           nonuniform 0();
    }
    outlet
    {
        type            pressureInletOutletVelocity;
        value           nonuniform 0();
    }
    cylinder
    {
        type            fixedValue;
        value           nonuniform 0();
    }
    top
    {
        type            symmetryPlane;
    }
    bottom
    {
        type            symmetryPlane;
    }
    defaultFaces
    {
        type            empty;
    }
    procBoundary2to1
    {
        type            processor;
        value           nonuniform List<vector> 
86
(
(0.992795 0.0124089 0)
(0.998581 0.0118083 0)
(1.0021 0.0108397 0)
(1.0022 0.011029 0)
(1.00172 0.0104385 0)
(1.003 0.0114281 0)
(1.00459 0.0128555 0)
(1.00413 0.0131503 0)
(1.00452 0.0129568 0)
(1.00738 0.0139389 0)
(1.00965 0.0141179 0)
(1.01014 0.0136864 0)
(1.00838 0.0126208 0)
(1.00955 0.0112734 0)
(1.00964 0.0106018 0)
(1.01131 0.00942451 0)
(1.01007 0.00759936 0)
(1.00963 0.00561338 0)
(1.01004 0.00438825 0)
(1.01146 0.00254885 0)
(1.01032 0.000692759 0)
(0.987092 0.0119397 -5.9295e-22)
(0.985368 0.0109533 9.06556e-21)
(0.983847 0.00994045 -4.84689e-21)
(0.982523 0.00902637 -9.75687e-21)
(0.981387 0.00800192 5.832e-21)
(0.980419 0.00714349 4.11206e-21)
(0.9678 0.0356994 1.33706e-20)
(0.9678 0.0356994 1.33706e-20)
(0.967555 0.0332513 2.40538e-20)
(0.967284 0.0307345 -2.74729e-20)
(0.967006 0.0281493 1.53609e-20)
(0.966735 0.0254981 -1.01415e-20)
(0.966478 0.0227841 1.89468e-20)
(0.96624 0.0200112 -3.28675e-20)
(0.966023 0.0171831 9.1848e-21)
(0.96583 0.0143038 2.4593e-20)
(0.965661 0.0113809 2.52233e-21)
(0.965515 0.00842476 -4.6645e-21)
(0.965392 0.00536025 4.29272e-21)
(0.965297 0.00238098 -7.14727e-21)
(0.965219 -0.000514007 1.73032e-21)
(0.965158 -0.00355472 -1.93906e-22)
(0.965121 -0.00665039 -6.54552e-22)
(0.965109 -0.00973499 1.08693e-21)
(0.965118 -0.0127923 -3.23194e-21)
(0.96515 -0.0158305 5.30109e-21)
(0.965204 -0.0188466 -5.71353e-21)
(0.96528 -0.0218336 -2.10975e-21)
(0.965378 -0.0247848 1.72232e-20)
(0.965498 -0.0276939 1.93402e-22)
(0.96564 -0.0305543 -3.18183e-20)
(0.965804 -0.0333599 2.04823e-20)
(0.965987 -0.0361048 -7.75552e-21)
(0.966188 -0.0387834 2.6817e-20)
(0.966401 -0.0413907 -4.30622e-20)
(0.966618 -0.0439221 9.89054e-21)
(0.966824 -0.0463736 -1.98437e-20)
(0.966824 -0.0463736 -1.98437e-20)
(0.982463 -0.0158951 1.10457e-20)
(0.983408 -0.0168713 7.69772e-21)
(0.984488 -0.017863 3.07052e-21)
(0.985722 -0.018881 -1.24983e-20)
(0.987127 -0.0200266 1.2341e-20)
(0.988718 -0.0211345 -3.77172e-21)
(0.994019 -0.0215811 0)
(0.999334 -0.021381 0)
(1.00147 -0.020057 0)
(1.00266 -0.0193355 0)
(1.00383 -0.0194085 0)
(1.00447 -0.0197502 0)
(1.0038 -0.018333 0)
(1.0045 -0.0182099 0)
(1.00562 -0.0180088 0)
(1.00687 -0.0169673 0)
(1.00779 -0.0168087 0)
(1.00854 -0.0152669 0)
(1.01095 -0.0146924 0)
(1.01146 -0.0135894 0)
(1.01261 -0.0126129 0)
(1.01102 -0.0106005 0)
(1.01084 -0.00857884 0)
(1.01137 -0.00716692 0)
(1.01299 -0.00524494 0)
(1.01272 -0.00300393 0)
(1.01107 -0.000865627 0)
)
;
    }
    procBoundary2to3
    {
        type            processor;
        value           nonuniform List<vector> 
82
(
(0.887319 0.22554 2.69936e-19)
(0.873949 0.216955 -2.49321e-20)
(0.861078 0.20743 2.9028e-19)
(0.848778 0.197004 -1.21482e-19)
(0.837105 0.185724 -9.45179e-20)
(0.826116 0.173641 -5.12537e-20)
(0.815862 0.160806 -1.09117e-19)
(0.806393 0.147276 3.06895e-20)
(0.797753 0.133108 1.12531e-19)
(0.789982 0.118364 -3.02018e-19)
(0.783116 0.103105 1.57939e-19)
(0.777189 0.0873965 5.61689e-20)
(0.772228 0.0713054 2.32083e-20)
(0.768256 0.0548984 5.84355e-20)
(0.768256 0.0548984 5.84355e-20)
(0.747275 0.0408155 -4.06776e-20)
(0.74513 0.0229088 -5.90881e-20)
(0.744111 0.00488606 1.79581e-20)
(0.744227 -0.013178 3.29533e-20)
(0.745474 -0.0312083 1.95513e-20)
(0.765882 -0.0462801 4.54931e-20)
(0.765882 -0.0462801 4.54931e-20)
(0.76908 -0.0629469 1.39592e-20)
(0.773281 -0.0793723 -1.11429e-19)
(0.778465 -0.0954887 -3.35375e-20)
(0.784608 -0.111229 -7.36636e-20)
(0.79168 -0.126529 4.94841e-20)
(0.799648 -0.141325 3.47418e-21)
(0.808473 -0.155555 2.04009e-19)
(0.818113 -0.169162 -9.24733e-20)
(0.82852 -0.182087 3.28884e-19)
(0.839643 -0.194278 -9.62071e-20)
(0.851427 -0.205684 -1.8647e-19)
(0.863812 -0.216256 -3.91038e-20)
(0.876736 -0.225947 -8.19234e-20)
(0.890116 -0.234719 -2.27911e-19)
(0.955052 0.201459 0)
(0.976728 0.162613 0)
(0.996026 0.149525 0)
(1.01387 0.139861 0)
(1.02875 0.130285 0)
(1.03131 0.101749 0)
(1.03344 0.0838333 0)
(1.04424 0.0864817 0)
(1.04746 0.0785379 0)
(1.04068 0.0526876 0)
(1.03793 0.0433645 0)
(1.03957 0.0461188 0)
(1.04665 0.0483967 0)
(1.03973 0.0426225 0)
(1.04359 0.0242962 0)
(1.03451 0.0190737 0)
(1.04151 0.0268502 0)
(1.04058 0.0242534 0)
(1.0411 0.00486573 0)
(1.03356 0.00684721 0)
(1.04063 0.0100903 0)
(0.94924 0.184179 -9.29581e-21)
(0.94924 0.184179 -9.29581e-21)
(0.955241 -0.192351 2.23841e-21)
(0.955241 -0.192351 2.23841e-21)
(0.959225 -0.211606 0)
(0.980563 -0.168625 0)
(1.00249 -0.162422 0)
(1.02164 -0.151692 0)
(1.02839 -0.123503 0)
(1.0375 -0.106924 0)
(1.04903 -0.109228 0)
(1.05372 -0.0898428 0)
(1.05037 -0.0766709 0)
(1.05619 -0.0675872 0)
(1.05012 -0.0555432 0)
(1.0557 -0.0538847 0)
(1.0439 -0.0381452 0)
(1.04967 -0.0242966 0)
(1.03881 -0.0177505 0)
(1.0462 -0.0266179 0)
(1.04322 -0.0225086 0)
(1.04233 -0.00517843 0)
(1.03562 -0.00188406 0)
(1.03627 -0.0112873 0)
(1.04138 -0.00821357 0)
)
;
    }
    procBoundary2to4
    {
        type            processor;
        value           nonuniform List<vector> 6((0.929912 0.245122 -8.07585e-20) (0.915254 0.239742 1.15664e-20) (0.901144 0.233115 1.15985e-19) (0.903921 -0.242492 -2.69613e-19) (0.917875 -0.249346 -2.22393e-20) (0.932543 -0.254849 -2.73294e-21));
    }
}


// ************************************************************************* //
