/*--------------------------------*- C++ -*----------------------------------*\
  =========                 |
  \\      /  F ield         | OpenFOAM: The Open Source CFD Toolbox
   \\    /   O peration     | Website:  https://openfoam.org
    \\  /    A nd           | Version:  7
     \\/     M anipulation  |
\*---------------------------------------------------------------------------*/
FoamFile
{
    version     2.0;
    format      ascii;
    class       volScalarField;
    location    "65";
    object      p;
}
// * * * * * * * * * * * * * * * * * * * * * * * * * * * * * * * * * * * * * //

dimensions      [0 2 -2 0 0 0 0];

internalField   nonuniform List<scalar> 
183
(
-0.263666
-0.24427
-0.226299
-0.209527
-0.193904
-0.664764
-0.632736
-0.595182
-0.554914
-0.514392
-0.475322
-0.438632
-0.404671
-0.373443
-0.344787
-0.318484
-0.294306
-0.272039
-0.251491
-0.232511
-0.214991
-0.198685
-0.183563
-0.716872
-0.70227
-0.684196
-0.658065
-0.623799
-0.584147
-0.542234
-0.500601
-0.460887
-0.423904
-0.389891
-0.358774
-0.330342
-0.304341
-0.710211
-0.695639
-0.676563
-0.648605
-0.612237
-0.570714
-0.527423
-0.484939
-0.700479
-0.686008
-0.665957
-0.63625
-0.604418
-0.589857
-0.571237
-0.544166
-0.609148
-0.594473
-0.576826
-0.551586
-0.518686
-0.480907
-0.441341
-0.402436
-0.365715
-0.610829
-0.596113
-0.579443
-0.556077
-0.525442
-0.489796
-0.451926
-0.414207
-0.378229
-0.344815
-0.314228
-0.286419
-0.261194
-0.238312
-0.217534
-0.529534
-0.496219
-0.460298
-0.424023
-0.389026
-0.356228
-0.326002
-0.298375
-0.273206
-0.250289
-0.229406
-0.210347
-0.192921
-0.176976
-0.162394
-0.148911
-0.136501
-0.203691
-0.187561
-0.172744
-0.159002
-0.14627
-0.163367
-0.12833
-0.0988005
-0.0800964
-0.0627221
-0.0510052
-0.0405558
-0.0320397
-0.0255142
-0.0203166
-0.0156687
-0.0112798
-0.00789382
-0.0048912
-0.00252879
-0.000698463
0.00113701
0.00278157
0.00367067
0.00386056
0.00474079
-0.155135
-0.123045
-0.0944217
-0.0771032
-0.0601465
-0.0490822
-0.038937
-0.0305907
-0.0242958
-0.0193495
-0.0148352
-0.0104735
-0.0071342
-0.00417088
-0.00186539
-0.000104064
0.0017423
0.00343939
0.00429195
0.00439776
0.00537293
-0.114113
-0.0898897
-0.066818
-0.0535491
-0.0397006
-0.0299234
-0.0202464
-0.0136368
-0.00746842
-0.00224482
0.00167367
0.00511872
0.00777461
0.00971516
0.0114293
0.0129118
0.0144413
0.0148633
0.0153403
0.0157032
0.0163205
-0.122299
-0.0956179
-0.0717337
-0.0570617
-0.0426649
-0.0322998
-0.0223766
-0.0154078
-0.00900862
-0.00363943
0.000446526
0.00401647
0.0067882
0.00886332
0.0106765
0.0121933
0.0137237
0.0142315
0.0147835
0.0151562
0.0157176
)
;

boundaryField
{
    inlet
    {
        type            zeroGradient;
    }
    outlet
    {
        type            fixedValue;
        value           nonuniform 0();
    }
    cylinder
    {
        type            zeroGradient;
    }
    top
    {
        type            symmetryPlane;
    }
    bottom
    {
        type            symmetryPlane;
    }
    defaultFaces
    {
        type            empty;
    }
    procBoundary16to15
    {
        type            processor;
        value           nonuniform List<scalar> 
90
(
-0.280523
-0.258658
-0.238542
-0.22002
-0.202972
-0.18707
-0.172218
-0.44481
-0.407722
-0.373812
-0.342934
-0.31483
-0.280523
-0.28922
-0.597962
-0.554828
-0.510446
-0.44481
-0.467381
-0.68752
-0.67322
-0.65224
-0.597962
-0.620902
-0.59645
-0.582072
-0.562505
-0.533692
-0.509152
-0.509152
-0.46948
-0.428498
-0.388681
-0.351455
-0.331882
-0.331882
-0.301101
-0.273251
-0.248088
-0.225346
-0.204765
-0.198635
-0.198635
-0.181411
-0.165707
-0.151392
-0.138147
-0.125953
-0.146309
-0.117593
-0.089888
-0.0738878
-0.0575129
-0.047045
-0.0372679
-0.0290879
-0.0230278
-0.0183584
-0.0139928
-0.00965527
-0.00635324
-0.00343044
-0.00118803
0.000497651
0.00235902
0.00412
0.00492625
0.00495069
0.00602155
-0.105461
-0.0841092
-0.0618203
-0.0499196
-0.0367365
-0.0274815
-0.0180887
-0.0118212
-0.00590451
-0.000824716
0.00293125
0.00624728
0.00878536
0.010583
0.0121896
0.0136438
0.0151778
0.0155106
0.0158991
0.0162561
0.0169396
)
;
    }
    procBoundary16to17
    {
        type            processor;
        value           nonuniform List<scalar> 
88
(
-0.275077
-0.255295
-0.236892
-0.219654
-0.203498
-0.668871
-0.639171
-0.6039
-0.565517
-0.526354
-0.488152
-0.451942
-0.418184
-0.386968
-0.358191
-0.331671
-0.307204
-0.284596
-0.284596
-0.720657
-0.706097
-0.689028
-0.689028
-0.609688
-0.595007
-0.579297
-0.557807
-0.557807
-0.531112
-0.500276
-0.466523
-0.431934
-0.398142
-0.366159
-0.336456
-0.309147
-0.284151
-0.261299
-0.240397
-0.221254
-0.221254
-0.213741
-0.197475
-0.182468
-0.168498
-0.155457
-0.170987
-0.133438
-0.102897
-0.082989
-0.065177
-0.0528638
-0.0421281
-0.0334351
-0.026688
-0.0212618
-0.0164905
-0.0120739
-0.00863085
-0.0055929
-0.0031803
-0.00128078
0.00054605
0.00213971
0.00306281
0.00334576
0.00412296
-0.130039
-0.101281
-0.0764635
-0.0605476
-0.0455845
-0.0346546
-0.0244766
-0.0171416
-0.0105269
-0.00501451
-0.00074326
0.00293951
0.0058253
0.00802881
0.00993256
0.0114914
0.0130212
0.0136167
0.0142296
0.0146183
0.0151291
)
;
    }
}


// ************************************************************************* //
