/*--------------------------------*- C++ -*----------------------------------*\
  =========                 |
  \\      /  F ield         | OpenFOAM: The Open Source CFD Toolbox
   \\    /   O peration     | Website:  https://openfoam.org
    \\  /    A nd           | Version:  7
     \\/     M anipulation  |
\*---------------------------------------------------------------------------*/
FoamFile
{
    version     2.0;
    format      ascii;
    class       volVectorField;
    location    "65";
    object      U;
}
// * * * * * * * * * * * * * * * * * * * * * * * * * * * * * * * * * * * * * //

dimensions      [0 1 -1 0 0 0 0];

internalField   nonuniform List<vector> 
183
(
(1.26275 0.21612 -4.67421e-21)
(1.25111 0.205543 -4.51972e-21)
(1.2403 0.195418 2.84317e-20)
(1.23005 0.18603 1.30909e-20)
(1.21994 0.177853 1.31507e-20)
(0.947092 0.204907 -1.09851e-19)
(1.12228 0.259658 1.82475e-20)
(1.24242 0.298214 5.53854e-20)
(1.3141 0.320208 1.09453e-20)
(1.34868 0.328286 -9.45162e-20)
(1.35828 0.326326 2.97116e-21)
(1.35308 0.318054 -5.41011e-20)
(1.34035 0.306349 8.28398e-20)
(1.32459 0.293119 -8.79302e-20)
(1.30825 0.279469 5.73799e-21)
(1.29251 0.265971 -2.59903e-20)
(1.27784 0.252893 3.67981e-20)
(1.26439 0.240351 6.8703e-20)
(1.25214 0.2284 2.00381e-20)
(1.24095 0.217022 1.44622e-21)
(1.2306 0.206124 -1.95442e-20)
(1.2208 0.196038 2.80336e-20)
(1.21114 0.187286 7.10782e-22)
(0.168173 0.0270443 -5.89532e-20)
(0.476458 0.0914101 -1.22223e-19)
(0.750982 0.167899 4.11406e-20)
(0.976693 0.238949 2.18609e-19)
(1.14444 0.294684 -1.91675e-19)
(1.25509 0.331519 1.28975e-20)
(1.31772 0.350408 1.09941e-19)
(1.34513 0.355049 -4.6093e-20)
(1.34984 0.349944 9.97068e-21)
(1.34177 0.339058 3.69105e-20)
(1.32764 0.325267 4.02136e-21)
(1.31141 0.310366 1.93605e-20)
(1.29512 0.295338 6.61141e-20)
(1.27968 0.280661 9.55693e-21)
(0.179654 0.0353624 6.79728e-20)
(0.50089 0.113153 2.25908e-19)
(0.779144 0.198605 1.11079e-19)
(1.00129 0.273915 1.52213e-20)
(1.16108 0.329972 -7.47421e-20)
(1.26244 0.364567 -1.26941e-19)
(1.31672 0.380052 1.37379e-19)
(1.33785 0.38115 2.17722e-19)
(0.190402 0.0444463 -3.14774e-20)
(0.522856 0.136261 -3.42942e-19)
(0.803231 0.230462 1.79699e-19)
(1.02074 0.309429 -1.0144e-19)
(0.176621 -0.0419151 4.05167e-21)
(0.4954 -0.132219 3.06042e-19)
(0.771831 -0.22851 -4.06327e-20)
(0.991679 -0.311654 1.80071e-20)
(0.165121 -0.0332084 8.36287e-20)
(0.471374 -0.109737 2.90474e-19)
(0.744777 -0.197262 5.81028e-21)
(0.968896 -0.276713 -1.22302e-19)
(1.13424 -0.337655 -6.85393e-20)
(1.24216 -0.376842 1.37707e-19)
(1.30243 -0.396033 -5.5821e-20)
(1.32839 -0.39979 -1.03317e-20)
(1.33271 -0.393273 -5.73754e-20)
(0.152945 -0.0253213 -6.75887e-20)
(0.444938 -0.088751 -9.1424e-20)
(0.713612 -0.16732 -2.47396e-19)
(0.940821 -0.242457 4.17532e-20)
(1.11419 -0.303115 1.48144e-19)
(1.23187 -0.34469 3.36256e-20)
(1.30116 -0.367493 -5.70631e-20)
(1.33407 -0.374998 -9.77795e-20)
(1.34301 -0.371776 5.44316e-20)
(1.33815 -0.361995 -8.61091e-21)
(1.32655 -0.348753 -4.57986e-20)
(1.31243 -0.334016 8.47507e-20)
(1.29801 -0.318879 -2.8302e-20)
(1.28431 -0.303883 -2.49243e-20)
(1.27171 -0.289273 -3.46181e-20)
(1.08838 -0.268954 1.0338e-19)
(1.21598 -0.312373 -1.21197e-19)
(1.295 -0.338482 6.20453e-20)
(1.33582 -0.349638 4.37745e-20)
(1.35029 -0.349736 4.40964e-21)
(1.34881 -0.342684 -3.43352e-20)
(1.33898 -0.331584 -2.38743e-20)
(1.32561 -0.318525 -7.21469e-20)
(1.31136 -0.304739 3.6911e-20)
(1.29753 -0.290875 -2.29708e-20)
(1.28466 -0.277243 4.32653e-20)
(1.27294 -0.263993 -5.3183e-20)
(1.26235 -0.251202 -1.59209e-20)
(1.25277 -0.238879 3.54715e-20)
(1.24396 -0.226958 -3.7283e-20)
(1.23556 -0.215799 -2.65449e-20)
(1.2271 -0.205822 7.64404e-22)
(1.27385 -0.240494 4.25421e-21)
(1.26391 -0.228855 -3.31433e-20)
(1.25473 -0.217564 3.05546e-20)
(1.24595 -0.206934 -4.51458e-21)
(1.23713 -0.19741 -1.12424e-20)
(1.19596 0.145569 -7.36777e-22)
(1.16128 0.131047 4.00372e-21)
(1.14491 0.101928 -2.2804e-21)
(1.12904 0.0933578 1.38475e-21)
(1.11704 0.0778244 1.41304e-21)
(1.10872 0.0690908 -4.18988e-22)
(1.09994 0.0609805 -9.64987e-22)
(1.09233 0.0533472 3.07206e-22)
(1.08747 0.0466749 2.50412e-22)
(1.0828 0.0414262 -3.99496e-22)
(1.07788 0.0367412 -1.14785e-22)
(1.07288 0.03269 1.68045e-22)
(1.06872 0.0277399 -3.29929e-23)
(1.06608 0.0247524 -1.26012e-22)
(1.06212 0.020218 4.39882e-25)
(1.06125 0.0174327 -1.10205e-24)
(1.05735 0.0143095 6.2466e-24)
(1.05614 0.0108745 3.80373e-23)
(1.05423 0.00760434 4.39925e-23)
(1.055 0.00413911 -1.698e-23)
(1.05286 0.00263666 8.40869e-23)
(1.18881 0.152138 4.84585e-21)
(1.15643 0.13682 -8.16511e-21)
(1.14106 0.105761 2.10403e-21)
(1.12627 0.0964393 1.86355e-21)
(1.11457 0.0801297 -2.2341e-23)
(1.10684 0.0708471 -6.27938e-23)
(1.09827 0.0625101 7.01794e-22)
(1.09078 0.0545363 -1.21273e-22)
(1.08615 0.047568 1.1851e-22)
(1.0817 0.0421893 4.76395e-22)
(1.07691 0.0374748 6.7582e-22)
(1.07193 0.0333503 -7.66993e-23)
(1.06782 0.0282538 1.17876e-22)
(1.06525 0.0252237 1.04296e-22)
(1.0613 0.0205495 3.4568e-23)
(1.06057 0.0177526 -4.25167e-24)
(1.05661 0.0146301 -2.95907e-23)
(1.05538 0.0111034 -1.23955e-22)
(1.05348 0.00768901 -7.53127e-23)
(1.0544 0.00421487 -4.02883e-23)
(1.05212 0.00276956 -2.05438e-22)
(1.20728 -0.167878 -3.90156e-21)
(1.17821 -0.14742 2.34583e-21)
(1.16334 -0.112192 -1.59225e-21)
(1.14655 -0.0985653 1.13592e-21)
(1.13436 -0.0799479 -7.18721e-23)
(1.12125 -0.0695321 5.12292e-23)
(1.11012 -0.0586632 3.61192e-22)
(1.10139 -0.0491152 -2.23658e-22)
(1.09381 -0.043705 1.76326e-22)
(1.08487 -0.0360275 4.97949e-23)
(1.08077 -0.031415 7.20043e-23)
(1.07331 -0.0266057 4.28345e-23)
(1.07106 -0.0220093 -9.99374e-23)
(1.06509 -0.0191957 -1.32192e-22)
(1.06422 -0.0151015 1.64089e-22)
(1.05933 -0.0137659 -1.14719e-22)
(1.05792 -0.0095674 2.02602e-22)
(1.05596 -0.00788448 1.17289e-23)
(1.0558 -0.00493955 -2.24973e-22)
(1.0546 -0.00377308 1.28216e-22)
(1.05328 -0.00109775 2.19543e-23)
(1.21582 -0.161886 8.98618e-22)
(1.18446 -0.141773 6.50691e-22)
(1.16829 -0.108006 -7.61226e-22)
(1.15016 -0.0949797 -1.02174e-21)
(1.13727 -0.0769491 -8.59547e-22)
(1.12357 -0.0669335 2.81038e-22)
(1.11215 -0.0564885 -2.23045e-22)
(1.10301 -0.0474042 -1.0298e-22)
(1.09517 -0.0421377 -7.95181e-23)
(1.08615 -0.0348119 -4.39789e-23)
(1.08178 -0.0304006 3.86072e-24)
(1.0743 -0.0257709 3.31797e-23)
(1.07185 -0.0213901 2.30722e-22)
(1.06585 -0.0186725 1.08249e-22)
(1.06481 -0.0147032 8.63517e-23)
(1.05996 -0.0133499 3.2904e-22)
(1.05851 -0.00933377 -1.15617e-22)
(1.0565 -0.0077294 3.91667e-22)
(1.05625 -0.00484035 3.5491e-22)
(1.05505 -0.0036442 7.28171e-23)
(1.0538 -0.00103725 3.37338e-22)
)
;

boundaryField
{
    inlet
    {
        type            uniformFixedValue;
        uniformValue    constant (1 0 0);
        value           nonuniform 0();
    }
    outlet
    {
        type            pressureInletOutletVelocity;
        value           nonuniform 0();
    }
    cylinder
    {
        type            fixedValue;
        value           uniform (0 0 0);
    }
    top
    {
        type            symmetryPlane;
    }
    bottom
    {
        type            symmetryPlane;
    }
    defaultFaces
    {
        type            empty;
    }
    procBoundary16to15
    {
        type            processor;
        value           nonuniform List<vector> 
90
(
(1.26543 0.266541 1.28941e-19)
(1.25246 0.253059 4.59989e-20)
(1.2407 0.240249 2.633e-20)
(1.23001 0.228063 6.62473e-20)
(1.22016 0.216379 5.98745e-20)
(1.21078 0.205564 -4.87375e-20)
(1.20145 0.196242 4.0778e-20)
(1.33851 0.372912 1.93471e-19)
(1.32825 0.359468 -1.00389e-19)
(1.31321 0.343645 -5.55921e-20)
(1.29684 0.32711 -1.19374e-19)
(1.2808 0.310722 4.78165e-20)
(1.26543 0.266541 1.28941e-19)
(1.26581 0.29487 5.49828e-21)
(1.17227 0.365177 1.00249e-19)
(1.26471 0.39708 2.17548e-19)
(1.31139 0.408936 1.22378e-20)
(1.33851 0.372912 1.93471e-19)
(1.32711 0.406442 1.29077e-19)
(0.200261 0.0542119 1.25562e-20)
(0.542073 0.160483 -3.40634e-19)
(0.823019 0.263112 -8.64034e-20)
(1.17227 0.365177 1.00249e-19)
(1.035 0.345106 -8.26002e-20)
(0.187276 -0.0513602 1.31005e-19)
(0.516701 -0.155945 5.41288e-20)
(0.794517 -0.260698 -4.66701e-20)
(1.0091 -0.346892 1.86055e-19)
(1.14861 -0.372225 1.76558e-19)
(1.14861 -0.372225 1.76558e-19)
(1.24709 -0.408553 8.864e-20)
(1.29913 -0.423903 -1.82024e-20)
(1.31906 -0.423869 -1.22257e-19)
(1.31963 -0.414117 1.67936e-19)
(1.32522 -0.380835 -2.28663e-19)
(1.32522 -0.380835 -2.28663e-19)
(1.31238 -0.365518 9.19603e-22)
(1.29787 -0.349145 2.00295e-20)
(1.28352 -0.332674 -6.69323e-20)
(1.2701 -0.316548 8.1373e-22)
(1.25788 -0.300953 -1.17826e-19)
(1.26033 -0.27516 -2.31261e-20)
(1.26033 -0.27516 -2.31261e-20)
(1.25013 -0.2616 -1.64033e-21)
(1.24095 -0.248574 6.07769e-20)
(1.23257 -0.235997 -2.25661e-20)
(1.22455 -0.224276 3.06638e-20)
(1.21641 -0.213846 -3.00652e-20)
(1.18114 0.1583 -1.01535e-20)
(1.15145 0.142417 4.42071e-21)
(1.13702 0.109523 2.0874e-21)
(1.12334 0.0994422 -1.41465e-21)
(1.11203 0.0824264 1.99355e-21)
(1.10487 0.0725657 -8.27498e-22)
(1.09658 0.0640478 -1.29905e-21)
(1.08919 0.0557297 7.95098e-22)
(1.08479 0.0484415 -1.50623e-22)
(1.0806 0.0429335 7.16824e-22)
(1.07595 0.0382096 4.63445e-22)
(1.07098 0.0340209 1.32167e-22)
(1.0669 0.0287707 3.09415e-22)
(1.06441 0.0256955 3.69344e-23)
(1.06048 0.0208745 -6.76123e-24)
(1.0599 0.0180714 -3.60868e-24)
(1.05586 0.0149639 3.99466e-23)
(1.05462 0.0113387 1.12523e-22)
(1.05273 0.00776285 -9.60852e-23)
(1.05379 0.00429312 1.48056e-22)
(1.05136 0.00291625 6.86376e-23)
(1.19836 -0.173535 7.40846e-21)
(1.17191 -0.152891 -3.18046e-21)
(1.15827 -0.116274 -1.473e-21)
(1.14285 -0.102023 9.33373e-22)
(1.13143 -0.0828983 -7.81916e-22)
(1.11889 -0.0720924 -8.10726e-22)
(1.10807 -0.0608246 4.89755e-22)
(1.09973 -0.0507944 -1.37415e-22)
(1.09244 -0.0452633 -1.41523e-23)
(1.08357 -0.037237 -1.39242e-22)
(1.07973 -0.0324187 5.03144e-24)
(1.07228 -0.0274349 -1.29404e-22)
(1.07025 -0.0226154 2.19492e-22)
(1.06431 -0.0197067 7.80093e-23)
(1.06363 -0.0154939 -4.21621e-22)
(1.05868 -0.0141891 1.12204e-22)
(1.0573 -0.00979891 6.43581e-22)
(1.0554 -0.00802683 8.72169e-22)
(1.05534 -0.00503234 -3.83386e-22)
(1.05415 -0.00391038 8.46617e-22)
(1.05274 -0.00116639 8.93891e-22)
)
;
    }
    procBoundary16to17
    {
        type            processor;
        value           nonuniform List<vector> 
88
(
(1.27256 0.203447 -3.23618e-22)
(1.2605 0.193653 1.08695e-20)
(1.24926 0.184269 2.70871e-21)
(1.23858 0.175542 2.25828e-20)
(1.22805 0.167965 -3.05754e-22)
(0.91269 0.172159 -4.34877e-20)
(1.0946 0.225246 6.97469e-21)
(1.22425 0.264935 4.88636e-20)
(1.30557 0.289661 3.193e-20)
(1.3482 0.301009 -7.37705e-20)
(1.36358 0.302167 -4.10297e-20)
(1.36202 0.296545 2.63425e-20)
(1.35125 0.286976 2.93936e-20)
(1.33634 0.275449 2.03397e-20)
(1.32019 0.263189 1.73637e-20)
(1.30429 0.25087 3.7439e-21)
(1.2893 0.238827 -1.49087e-20)
(1.27544 0.227217 1.7213e-20)
(1.27544 0.227217 1.7213e-20)
(0.156127 0.0195576 -2.44651e-20)
(0.449886 0.0712548 1.16108e-19)
(0.719038 0.138685 2.2462e-19)
(0.719038 0.138685 2.2462e-19)
(0.140274 -0.0183153 1.09455e-19)
(0.41645 -0.0694799 -1.33029e-20)
(0.67867 -0.139028 -6.83074e-20)
(0.90761 -0.209273 1.37396e-19)
(0.90761 -0.209273 1.37396e-19)
(1.05682 -0.235529 6.47978e-21)
(1.19429 -0.280177 -1.18833e-20)
(1.28363 -0.309207 6.64731e-21)
(1.33328 -0.32385 2.19678e-20)
(1.35426 -0.327257 1.43507e-20)
(1.357 -0.322989 8.08188e-20)
(1.34956 -0.314093 -1.28455e-20)
(1.33736 -0.302754 6.61172e-21)
(1.32355 -0.290336 -2.03925e-20)
(1.30976 -0.277601 -3.15876e-21)
(1.29674 -0.264936 3.35043e-21)
(1.28475 -0.252532 -3.56988e-20)
(1.28475 -0.252532 -3.56988e-20)
(1.28464 -0.22953 2.41098e-22)
(1.27441 -0.218545 -8.38527e-21)
(1.2649 -0.207851 -2.07092e-21)
(1.2558 -0.197711 -1.72503e-20)
(1.24666 -0.188638 2.61868e-22)
(1.2026 0.138647 2.43084e-21)
(1.16598 0.125125 -7.91637e-23)
(1.14849 0.0980141 -7.22606e-22)
(1.13175 0.0902099 1.0867e-21)
(1.1194 0.0755071 5.64438e-22)
(1.11057 0.0673018 -2.15503e-22)
(1.10159 0.0594597 3.23866e-22)
(1.09385 0.0521604 -8.96812e-23)
(1.08876 0.0457643 2.85379e-22)
(1.08389 0.0406479 8.30043e-23)
(1.07886 0.0360106 1.52344e-22)
(1.07384 0.0320381 1.32233e-22)
(1.06962 0.0272277 5.35698e-23)
(1.0669 0.0242829 -1.13531e-23)
(1.06293 0.0198804 1.27073e-23)
(1.06192 0.0171115 -2.87237e-25)
(1.05809 0.0140017 3.5597e-24)
(1.05687 0.0106526 -1.93484e-23)
(1.05497 0.00750755 -2.67437e-23)
(1.05558 0.00406553 -5.21658e-24)
(1.0536 0.00251928 -1.57798e-23)
(1.22403 -0.155606 -1.84677e-21)
(1.19065 -0.135971 7.07538e-23)
(1.17305 -0.103708 5.49859e-22)
(1.15375 -0.0912768 -7.87362e-22)
(1.14013 -0.0738992 -3.85941e-22)
(1.12587 -0.0642963 1.44602e-22)
(1.11413 -0.054296 -1.89009e-22)
(1.1046 -0.045661 4.82197e-23)
(1.0965 -0.0405642 -1.09429e-22)
(1.0874 -0.0335871 -1.13405e-23)
(1.08277 -0.0293744 -8.17532e-24)
(1.07527 -0.024932 4.36655e-23)
(1.07261 -0.0207584 5.17745e-23)
(1.06659 -0.0181386 -7.47332e-24)
(1.06539 -0.0142991 4.3734e-23)
(1.06058 -0.01294 -1.68071e-23)
(1.05909 -0.00909763 -9.61052e-24)
(1.05702 -0.00756297 1.09611e-22)
(1.05669 -0.00473574 1.18097e-22)
(1.0555 -0.00352247 2.13562e-23)
(1.0543 -0.000984198 5.51976e-23)
)
;
    }
}


// ************************************************************************* //
