/*--------------------------------*- C++ -*----------------------------------*\
  =========                 |
  \\      /  F ield         | OpenFOAM: The Open Source CFD Toolbox
   \\    /   O peration     | Website:  https://openfoam.org
    \\  /    A nd           | Version:  7
     \\/     M anipulation  |
\*---------------------------------------------------------------------------*/
FoamFile
{
    version     2.0;
    format      ascii;
    class       volVectorField;
    location    "10";
    object      U;
}
// * * * * * * * * * * * * * * * * * * * * * * * * * * * * * * * * * * * * * //

dimensions      [0 1 -1 0 0 0 0];

internalField   nonuniform List<vector> 
8820
(
(-0.000812995 0.000986146 0)
(-0.00455079 0.00242399 0)
(-0.0117572 0.00345926 0)
(-0.0209365 0.00419245 0)
(-0.0313783 0.00469185 -8.0106e-21)
(-0.0426394 0.00501111 -7.56905e-21)
(-0.054355 0.00519433 -1.4258e-20)
(-0.0662542 0.00527733 0)
(-0.0781473 0.00528915 2.53304e-20)
(-0.0899071 0.00525356 -1.1913e-20)
(-0.101456 0.00519032 3.59266e-23)
(-0.112757 0.00511651 2.11691e-20)
(-0.123808 0.00504783 -9.92034e-21)
(-0.134641 0.00499991 0)
(-0.145319 0.00498944 8.8086e-21)
(-0.155938 0.00503486 8.2852e-21)
(-0.166651 0.00515641 0)
(-0.177682 0.00537504 2.92416e-20)
(-0.189126 0.00571094 0)
(-0.200791 0.00618378 0)
(-0.214056 0.00679928 0)
(-0.000940197 0.00293187 0)
(-0.00481248 0.00721297 -3.78019e-20)
(-0.0120293 0.0103008 -3.5837e-20)
(-0.0211411 0.012491 0)
(-0.0314591 0.013985 0)
(-0.042552 0.0149416 1.51135e-20)
(-0.0540632 0.0154915 1.42579e-20)
(-0.0657262 0.015741 -2.69269e-20)
(-0.077353 0.0157764 2.53455e-20)
(-0.0888156 0.0156683 2.85382e-23)
(-0.100034 0.0154755 0)
(-0.110966 0.0152486 -2.11329e-20)
(-0.121604 0.0150339 0)
(-0.131971 0.0148779 0)
(-0.14212 0.0148299 0)
(-0.152136 0.0149452 1.65416e-20)
(-0.162159 0.0152847 0)
(-0.172402 0.0159129 -2.92412e-20)
(-0.18296 0.016893 2.75875e-20)
(-0.193605 0.018288 -5.17826e-20)
(-0.20571 0.0201157 2.48822e-20)
(-0.00118859 0.00479877 3.76891e-20)
(-0.00532516 0.0118257 3.78019e-20)
(-0.0125644 0.0169108 1.0765e-19)
(-0.0215458 0.020528 0)
(-0.0316222 0.0230021 6.42042e-20)
(-0.0423856 0.0245903 0)
(-0.0534951 0.0255055 2.85948e-20)
(-0.0646932 0.025921 -2.68889e-20)
(-0.0757954 0.025978 5.07719e-20)
(-0.0866729 0.0257922 0)
(-0.0972404 0.0254593 0)
(-0.107448 0.0250616 4.23836e-20)
(-0.117276 0.0246746 1.39044e-22)
(-0.126732 0.024373 -1.4975e-19)
(-0.135849 0.0242373 -1.40111e-22)
(-0.14469 0.0243586 6.61116e-20)
(-0.153369 0.0248396 0)
(-0.162082 0.0257918 -5.86387e-20)
(-0.170913 0.0273306 1.09817e-19)
(-0.179576 0.0295736 0)
(-0.18941 0.0325562 -5.039e-20)
(-0.00154667 0.00653935 -7.54332e-20)
(-0.00606824 0.0161547 0)
(-0.013345 0.0231464 -1.07819e-19)
(-0.0221418 0.02814 -3.39609e-20)
(-0.0318704 0.0315686 1.47179e-22)
(-0.0421557 0.0337776 -1.21477e-19)
(-0.05268 0.0350545 1.71732e-19)
(-0.0631992 0.0356346 1.32516e-22)
(-0.0735345 0.0357101 -1.01517e-19)
(-0.0835565 0.0354384 -9.57786e-20)
(-0.0931744 0.0349495 9.01398e-20)
(-0.102328 0.0343545 -8.47991e-20)
(-0.11098 0.0337545 1.59571e-19)
(-0.119118 0.0332493 1.50125e-19)
(-0.126749 0.0329471 -7.0298e-20)
(-0.133902 0.0329724 1.54029e-22)
(-0.140655 0.0334695 -6.20683e-20)
(-0.147174 0.0346024 0)
(-0.153535 0.0365525 1.27133e-22)
(-0.159365 0.0395135 -1.03388e-19)
(-0.165912 0.0435514 5.06585e-20)
(-0.00199841 0.00811329 -3.78849e-20)
(-0.00701287 0.0201066 0)
(-0.0143464 0.0288806 7.19618e-20)
(-0.0229165 0.0351793 -6.8115e-20)
(-0.032207 0.0395242 1.49819e-22)
(-0.041884 0.0423361 -6.08843e-20)
(-0.0516589 0.0439674 1.72273e-19)
(-0.0613054 0.0447087 5.42483e-20)
(-0.0706532 0.0447981 0)
(-0.0795738 0.0444305 9.58026e-20)
(-0.0879711 0.0437665 -1.80226e-19)
(-0.0957729 0.0429422 -8.51288e-20)
(-0.102926 0.0420796 -7.04173e-23)
(-0.109391 0.0412989 -7.49667e-20)
(-0.115146 0.0407303 -1.41036e-19)
(-0.120181 0.0405265 0)
(-0.124525 0.0408716 6.23389e-20)
(-0.128304 0.0419858 -1.75168e-19)
(-0.131584 0.0441325 0)
(-0.1339 0.0476099 -1.03546e-19)
(-0.136277 0.052541 1.98095e-19)
(-0.00252464 0.0094895 0)
(-0.00812413 0.0236065 1.53127e-19)
(-0.0155381 0.0340081 1.44672e-19)
(-0.0238538 0.0415192 6.87531e-20)
(-0.0326351 0.0467279 1.29478e-19)
(-0.0415953 0.0501151 6.10446e-20)
(-0.0504798 0.0520875 -5.71766e-20)
(-0.0590842 0.0529831 -2.16491e-19)
(-0.0672498 0.0530799 0)
(-0.0748516 0.0526055 1.92143e-19)
(-0.0817898 0.0517467 9.04796e-20)
(-0.0879819 0.0506599 3.40221e-19)
(-0.0933576 0.0494831 -7.97981e-20)
(-0.0978544 0.0483499 0)
(-0.101417 0.047405 -1.16592e-22)
(-0.103994 0.0468214 -1.3252e-19)
(-0.105561 0.0468159 1.24389e-19)
(-0.106187 0.0476646 9.23417e-23)
(-0.105938 0.0497253 -1.09595e-19)
(-0.104286 0.0534278 1.02826e-19)
(-0.101789 0.0589919 0)
(-0.00310464 0.0106475 7.66289e-20)
(-0.0093637 0.026601 -2.29701e-19)
(-0.0168862 0.0384487 0)
(-0.0249346 0.0470581 -2.05831e-19)
(-0.0331563 0.0530613 -6.46867e-20)
(-0.0413146 0.0569841 0)
(-0.0491927 0.059276 0)
(-0.0566118 0.0603136 0)
(-0.0634281 0.0604085 -1.02447e-19)
(-0.0695232 0.059816 9.66197e-20)
(-0.0747966 0.0587444 -9.04765e-20)
(-0.0791586 0.0573655 -1.70158e-19)
(-0.0825246 0.0558277 0)
(-0.0848109 0.0542708 0)
(-0.0859321 0.0528445 2.82517e-19)
(-0.0857985 0.0517305 3.33213e-22)
(-0.0843287 0.0511674 -2.4857e-19)
(-0.0815231 0.05148 1.16744e-19)
(-0.0774613 0.0531223 1.09587e-19)
(-0.0716623 0.0566962 -6.51228e-22)
(-0.0638289 0.0626636 1.97111e-19)
(-0.00371785 0.0115781 0)
(-0.0106927 0.0290599 1.54568e-19)
(-0.0183552 0.0421498 0)
(-0.0261376 0.0517224 0)
(-0.033769 0.0584329 1.30269e-19)
(-0.0410632 0.0628367 -2.45553e-19)
(-0.0478436 0.065415 1.15722e-19)
(-0.0539594 0.0665748 -2.49134e-22)
(-0.0592853 0.0666546 -2.28281e-22)
(-0.0637128 0.0659323 2.58853e-22)
(-0.0671445 0.0646332 9.06575e-20)
(-0.069487 0.06294 0)
(-0.0706461 0.061006 0)
(-0.0705215 0.0589702 0)
(-0.0690028 0.0569772 -1.23794e-22)
(-0.0659657 0.0552034 3.97594e-19)
(-0.0612752 0.0538928 -1.24154e-19)
(-0.0548535 0.0534019 0)
(-0.0467743 0.0542678 0)
(-0.0367534 0.0573702 -2.05075e-19)
(-0.0235612 0.0641127 0)
(-0.00434547 0.0122831 -1.55097e-19)
(-0.0120742 0.0309759 -1.54568e-19)
(-0.0199098 0.0450871 0)
(-0.0274391 0.0554682 0)
(-0.0344663 0.0627792 -1.30952e-19)
(-0.0408543 0.0675925 0)
(-0.0464665 0.0704105 -1.15896e-19)
(-0.0511827 0.0716627 -1.09778e-19)
(-0.0548981 0.0717087 -2.05953e-19)
(-0.0575178 0.0708439 -1.9328e-19)
(-0.0589505 0.0693065 -3.63705e-19)
(-0.0591033 0.0672866 1.70711e-19)
(-0.0578766 0.0649379 0)
(-0.0551584 0.0623926 1.50668e-19)
(-0.0508193 0.0597803 -2.82713e-19)
(-0.0447053 0.057257 2.64868e-19)
(-0.0366335 0.0550473 0)
(-0.0264446 0.0535037 0)
(-0.0141025 0.0532158 0)
(0.00082989 0.0554271 0)
(0.0195044 0.0625935 1.95968e-19)
(-0.00497185 0.0127743 -6.06813e-22)
(-0.0134757 0.0323635 1.55592e-19)
(-0.0215167 0.0472636 -2.95008e-19)
(-0.0288127 0.0582806 1.39028e-19)
(-0.0352336 0.0660662 3.937e-19)
(-0.040687 0.0711991 -2.47339e-19)
(-0.0450755 0.0741946 4.66259e-19)
(-0.0483098 0.0754978 2.19011e-19)
(-0.0503076 0.0754839 3.09358e-19)
(-0.0509889 0.0744617 1.93727e-19)
(-0.0502714 0.072679 1.8205e-19)
(-0.048065 0.0703306 0)
(-0.0442677 0.067568 -3.21405e-19)
(-0.0387597 0.0645127 1.50731e-19)
(-0.0313976 0.0612727 -1.41225e-19)
(-0.0220042 0.0579691 -1.81159e-22)
(-0.0103575 0.0547785 2.47806e-19)
(0.00376989 0.0519989 1.16061e-19)
(0.0205332 0.0501994 0)
(0.0406308 0.0508318 0)
(0.0653029 0.0570772 0)
(-0.00558554 0.0130718 -4.60475e-22)
(-0.0148709 0.0332559 1.57009e-19)
(-0.023145 0.0487067 1.47981e-19)
(-0.0302286 0.0601729 1.39684e-19)
(-0.0360449 0.068289 8.00006e-22)
(-0.0405407 0.0736333 -4.61368e-22)
(-0.0436551 0.0767278 -3.50144e-19)
(-0.0453285 0.0780277 2.19917e-19)
(-0.0455011 0.0779194 -4.13101e-19)
(-0.0441082 0.0767217 -1.94054e-19)
(-0.0410762 0.0746895 1.82537e-19)
(-0.0363179 0.072021 -1.71204e-19)
(-0.0297289 0.0688651 1.60669e-19)
(-0.0211823 0.0653321 1.50793e-19)
(-0.0105226 0.0615069 -1.41221e-19)
(0.00244501 0.0574692 -2.64756e-19)
(0.0179702 0.0533287 -2.47881e-19)
(0.0363327 0.0492847 -2.31651e-19)
(0.0577611 0.0457935 6.49311e-19)
(0.0830923 0.0443083 -2.02019e-22)
(0.114236 0.0487025 -1.90878e-19)
(-0.00617983 0.0132021 4.7222e-19)
(-0.0162398 0.033701 -3.14355e-19)
(-0.0247659 0.0494647 -1.48382e-19)
(-0.0316511 0.0611824 2.81387e-19)
(-0.0368585 0.0694696 -2.6406e-19)
(-0.0403676 0.0749007 -9.24912e-22)
(-0.0421497 0.0780003 -3.76767e-22)
(-0.0421719 0.0792302 -2.20178e-19)
(-0.0403946 0.0789846 2.07163e-19)
(-0.0367659 0.0775896 0)
(-0.0312179 0.0753062 0)
(-0.0236627 0.0723357 0)
(-0.0139891 0.0688259 1.60798e-19)
(-0.00205857 0.0648794 0)
(0.0122994 0.0605626 1.41205e-19)
(0.0292958 0.0559185 1.32148e-19)
(0.0491985 0.0509895 -2.47352e-19)
(0.0723209 0.045859 -2.3086e-19)
(0.0989169 0.0407902 -2.16211e-19)
(0.129743 0.0370004 0)
(0.168131 0.039006 -3.79684e-19)
(-0.00675264 0.0131953 -3.16612e-19)
(-0.0175687 0.0337562 1.5873e-19)
(-0.0263513 0.049601 -1.49489e-19)
(-0.0330358 0.0613672 1.42363e-19)
(-0.0376122 0.0696548 1.32821e-19)
(-0.0400851 0.0750346 1.24548e-19)
(-0.0404525 0.078033 2.34827e-19)
(-0.0387033 0.0791163 -4.41742e-19)
(-0.0348128 0.078684 2.07423e-19)
(-0.0287365 0.0770681 -3.57891e-23)
(-0.0204053 0.0745353 -5.48743e-19)
(-0.0097225 0.0712909 3.43088e-19)
(0.00343881 0.0674851 1.3594e-23)
(0.0192378 0.0632186 -1.50663e-19)
(0.037868 0.058549 0)
(0.0595609 0.053497 -2.6392e-19)
(0.0845949 0.0480572 2.46963e-19)
(0.113296 0.0422155 5.35339e-22)
(0.145919 0.0360258 6.3616e-22)
(0.18277 0.0302222 -1.99908e-19)
(0.229786 0.0297738 3.77382e-19)
(-0.00730592 0.0130824 3.1803e-19)
(-0.0188482 0.0334832 1.36281e-21)
(-0.0278711 0.0491879 0)
(-0.0343257 0.0607997 -2.82708e-19)
(-0.038217 0.0689116 -4.00777e-19)
(-0.0395675 0.0740948 1.25587e-19)
(-0.0383945 0.0768784 0)
(-0.0347017 0.0777328 0)
(-0.0284714 0.0770624 4.15753e-19)
(-0.0196569 0.0752047 -1.95257e-19)
(-0.00817747 0.0724319 1.82958e-19)
(0.00608409 0.0689558 -2.83485e-24)
(0.0232825 0.0649327 -6.8777e-23)
(0.0436092 0.0604691 1.50455e-19)
(0.0672898 0.0556254 -5.63633e-19)
(0.0945796 0.0504194 0)
(0.125758 0.0448274 0)
(0.161131 0.0387853 0)
(0.200978 0.0322174 2.14697e-19)
(0.244541 0.0251435 1.64219e-21)
(0.302128 0.0229124 3.70062e-19)
(-0.00784433 0.0128927 0)
(-0.0200707 0.0329424 -3.19237e-19)
(-0.0292887 0.0483009 -3.02979e-19)
(-0.0354455 0.0595619 1.42271e-19)
(-0.0385508 0.0673233 -5.68106e-22)
(-0.0386378 0.0721639 1.26094e-19)
(-0.0357346 0.074619 -2.36478e-19)
(-0.02985 0.0751646 2.22359e-19)
(-0.0209622 0.0742104 0)
(-0.0090099 0.0720997 -1.95309e-19)
(0.00611257 0.0691122 1.83128e-19)
(0.0245563 0.0654684 -1.71705e-19)
(0.0465159 0.0613356 0)
(0.0722235 0.0568331 3.00744e-19)
(0.101938 0.0520355 2.38544e-23)
(0.135932 0.0469752 -2.6292e-19)
(0.174461 0.0416389 0)
(0.217743 0.0359589 0)
(0.26617 0.0299076 -6.70985e-23)
(0.317051 0.0225441 -1.99016e-19)
(0.387258 0.0200119 -3.65066e-19)
(-0.00837343 0.0126509 0)
(-0.0212261 0.0321871 3.22994e-19)
(-0.0305572 0.0470126 3.02978e-19)
(-0.0362966 0.0577383 2.86926e-19)
(-0.0384527 0.0649834 0)
(-0.0370614 0.0693438 2.53442e-19)
(-0.0321519 0.0713662 2.37157e-19)
(-0.0237263 0.0715348 -2.23537e-19)
(-0.0117453 0.0702668 -2.09046e-19)
(0.0038815 0.0679133 -1.95495e-19)
(0.0232984 0.0647634 5.49822e-19)
(0.0467019 0.0610503 -3.43538e-19)
(0.0743322 0.0569567 -1.60765e-19)
(0.106459 0.0526209 3.00389e-19)
(0.143359 0.0481401 -2.81308e-19)
(0.185286 0.0435726 5.25231e-19)
(0.232419 0.0389337 -2.45474e-19)
(0.284769 0.0341635 2.28136e-19)
(0.342953 0.0295284 4.24834e-19)
(0.401431 0.0227809 -1.98081e-19)
(0.485527 0.0219559 -1.66227e-21)
(-0.00889764 0.0123755 1.62186e-19)
(-0.0222975 0.0312611 -6.48028e-19)
(-0.0316127 0.0453866 1.5262e-19)
(-0.0367523 0.05541 -5.74572e-19)
(-0.0377179 0.0619909 1.35407e-19)
(-0.0345415 0.0657516 2.54617e-19)
(-0.0272426 0.067257 -7.15123e-19)
(-0.0158035 0.0670039 4.46677e-19)
(-0.000152516 0.0654202 0)
(0.0198431 0.062868 0)
(0.0443769 0.0596497 0)
(0.0736934 0.0560144 3.43256e-19)
(0.10807 0.0521648 3.21104e-19)
(0.14779 0.0482621 3.0002e-19)
(0.193097 0.0444292 -5.61308e-19)
(0.244154 0.0407534 2.62426e-19)
(0.300971 0.0372826 2.43992e-19)
(0.363192 0.0339275 -6.8325e-19)
(0.431645 0.0314816 2.12189e-19)
(0.497551 0.0259684 1.93771e-19)
(0.594916 0.0287995 2.64391e-23)
(-0.0094175 0.0120775 0)
(-0.0232571 0.0301934 8.15174e-19)
(-0.0323708 0.0434727 -3.33703e-22)
(-0.0366524 0.0526513 -2.89247e-19)
(-0.0360948 0.0584452 1.36121e-19)
(-0.030719 0.0615147 -2.54489e-19)
(-0.0205238 0.0624499 2.37737e-19)
(-0.00545821 0.061766 -2.24381e-19)
(0.0145942 0.0599062 0)
(0.0398174 0.0572479 -1.96388e-19)
(0.0704541 0.0541106 -1.83315e-19)
(0.106784 0.050763 3.43391e-19)
(0.149087 0.0474295 -1.12349e-18)
(0.1976 0.0442941 3.00415e-19)
(0.252448 0.0415018 0)
(0.313578 0.0391598 -2.61066e-19)
(0.380689 0.0373373 8.21272e-22)
(0.452923 0.035863 -2.26432e-19)
(0.530965 0.0361097 0)
(0.603707 0.032202 -1.94801e-19)
(0.710843 0.0399439 0)
(-0.00992787 0.0117594 -3.30194e-19)
(-0.0240611 0.0289967 -1.62959e-19)
(-0.032722 0.0413062 1.56072e-19)
(-0.0358019 0.0495254 1.45748e-19)
(-0.0332855 0.0544423 2.74049e-19)
(-0.0251767 0.056766 5.1253e-19)
(-0.0114436 0.0571201 -1.02808e-21)
(0.00800879 0.0560443 0)
(0.0333482 0.0540024 -2.09765e-19)
(0.0648071 0.0513917 3.9334e-19)
(0.102659 0.0485523 0)
(0.147179 0.0457734 0)
(0.198581 0.0432987 4.77512e-22)
(0.256952 0.0413271 6.00055e-19)
(0.322163 0.0400107 0)
(0.393787 0.0394539 0)
(0.471022 0.0397113 2.43413e-19)
(0.552461 0.0405407 1.51119e-21)
(0.637875 0.0435386 2.10521e-19)
(0.716426 0.0416611 2.78081e-21)
(0.826404 0.054481 3.4675e-19)
(-0.0104162 0.0114153 1.64477e-19)
(-0.0246467 0.0276688 1.65235e-19)
(-0.0325288 0.0389064 -1.53705e-19)
(-0.0339698 0.046083 0)
(-0.0289492 0.0500718 -2.74046e-19)
(-0.0174491 0.0516411 -2.56872e-19)
(0.000599927 0.0514553 0)
(0.0253407 0.050085 -4.50869e-19)
(0.0569867 0.0480202 2.11331e-19)
(0.0957975 0.0456817 -3.94532e-19)
(0.142032 0.0434306 0)
(0.195881 0.0415729 -1.71599e-19)
(0.257383 0.0403605 1.60843e-19)
(0.326327 0.0399874 -2.99728e-19)
(0.402156 0.0405822 0)
(0.483891 0.0422077 0)
(0.570059 0.0448385 0)
(0.658738 0.0482674 0)
(0.747995 0.0535111 2.0626e-19)
(0.830688 0.0545613 5.77085e-19)
(0.933273 0.0711836 -1.17703e-21)
(-0.0108597 0.011031 1.67278e-19)
(-0.0249313 0.0261948 0)
(-0.0316253 0.036279 -3.12895e-19)
(-0.0308918 0.0423637 0)
(-0.0227094 0.0454177 2.75848e-19)
(-0.00703663 0.0462766 -1.53439e-21)
(0.0162333 0.0456524 -2.43002e-19)
(0.047283 0.0441525 4.51723e-19)
(0.0863474 0.0422967 -4.23098e-19)
(0.133663 0.04053 5.92581e-19)
(0.189392 0.0392297 0)
(0.253521 0.0387056 0)
(0.325753 0.0391941 0)
(0.405397 0.0408484 0)
(0.491282 0.0437261 0)
(0.581723 0.0477927 0)
(0.674499 0.0528681 0)
(0.767223 0.0588581 0)
(0.856351 0.0654665 -4.13709e-19)
(0.940476 0.0708265 -1.9136e-19)
(1.02394 0.0869739 -6.92882e-19)
(-0.0112256 0.0105904 -1.68942e-19)
(-0.0248087 0.0245511 0)
(-0.0298188 0.033419 -1.60365e-19)
(-0.0262749 0.0383992 -1.49099e-19)
(-0.0141634 0.0405602 -2.77736e-19)
(0.00657611 0.0408113 1.74633e-21)
(0.0360773 0.0399173 2.44469e-19)
(0.0745361 0.0385257 2.28171e-19)
(0.122158 0.0371866 2.11756e-19)
(0.17907 0.036364 1.98412e-19)
(0.245212 0.036437 0)
(0.320202 0.037693 0)
(0.403216 0.0403137 0)
(0.492889 0.0443588 0)
(0.587278 0.0497536 0)
(0.683918 0.0563019 0)
(0.779923 0.0636279 0)
(0.872465 0.0716168 0)
(0.957792 0.0789543 -6.03546e-22)
(1.03839 0.0886055 -5.70574e-19)
(1.09399 0.0948881 2.03681e-21)
(-0.0114738 0.0100734 5.14581e-19)
(-0.0241532 0.0227081 -1.69787e-19)
(-0.0268913 0.0303178 1.57097e-19)
(-0.0198028 0.0342199 0)
(-0.00289447 0.0355822 -5.62008e-19)
(0.0238998 0.0353912 -7.4776e-23)
(0.0607134 0.034467 0)
(0.107704 0.0334969 -1.52948e-22)
(0.164962 0.0330555 -2.14219e-19)
(0.23238 0.0336103 -3.97196e-19)
(0.309502 0.0355147 0)
(0.395384 0.0389911 1.7235e-19)
(0.488471 0.0441101 -1.61538e-19)
(0.586569 0.0507738 -2.99732e-19)
(0.686898 0.0587125 0)
(0.786285 0.0675183 0)
(0.881421 0.0766257 0)
(0.969287 0.0856849 0)
(1.04733 0.0935109 -2.01682e-19)
(1.11469 0.102069 9.4463e-19)
(1.1665 0.104053 3.49426e-19)
(-0.0115543 0.00945961 -3.44093e-19)
(-0.0228215 0.020639 -5.18938e-19)
(-0.0226051 0.0269714 4.82792e-19)
(-0.0111446 0.0298629 -1.52032e-19)
(0.0115148 0.0305767 2.82136e-19)
(0.0454181 0.0301765 3.03859e-24)
(0.0906497 0.0295351 4.96066e-19)
(0.147247 0.0293729 0)
(0.215057 0.030273 2.1385e-19)
(0.293567 0.0326776 -2.08021e-22)
(0.381728 0.0368691 0)
(0.477822 0.042945 0)
(0.579408 0.050796 6.4418e-19)
(0.683394 0.0601022 -1.30388e-21)
(0.786256 0.0703542 0)
(0.884374 0.0809239 0)
(0.97441 0.0910846 2.37519e-19)
(1.05377 0.100353 4.3742e-19)
(1.1207 0.107685 2.0073e-19)
(1.17503 0.114288 -3.78277e-19)
(1.21608 0.115186 3.43535e-19)
(-0.0114098 0.00873216 1.74898e-19)
(-0.0206546 0.0183254 3.48994e-19)
(-0.0167076 0.0233876 1.14049e-21)
(3.68455e-05 0.0253821 1.53763e-19)
(0.0294679 0.0256576 0)
(0.071565 0.0253503 -2.68491e-19)
(0.126286 0.0253771 -2.45732e-19)
(0.193426 0.0264743 2.3311e-19)
(0.272424 0.0292037 0)
(0.362157 0.0339348 -2.00551e-19)
(0.460768 0.0408157 0)
(0.565595 0.049745 -1.73202e-19)
(0.673241 0.0603644 -1.62376e-19)
(0.779816 0.0720855 -5.99403e-19)
(0.881327 0.0841564 2.79166e-19)
(0.974144 0.095775 0)
(1.05542 0.10615 -2.37497e-19)
(1.12345 0.114811 -2.18961e-19)
(1.17765 0.120916 0)
(1.21884 0.125664 -1.85326e-19)
(1.24785 0.124973 0)
(-0.0109771 0.00787993 -1.77985e-19)
(-0.017482 0.0157631 -7.07352e-19)
(-0.00893763 0.0195952 -1.6503e-19)
(0.0140748 0.0208575 -2.08988e-21)
(0.0513386 0.0209691 -1.45423e-19)
(0.102699 0.0211272 -2.7145e-19)
(0.167876 0.0222744 2.52631e-19)
(0.246264 0.0251319 -6.88724e-23)
(0.336688 0.0301918 0)
(0.437194 0.0376842 0)
(0.544932 0.047543 0)
(0.656216 0.0593919 3.49899e-19)
(0.766777 0.0725724 3.23427e-19)
(0.872211 0.0862236 -2.97671e-19)
(0.96851 0.0994038 5.53522e-19)
(1.05257 0.111241 -2.57208e-19)
(1.1225 0.121016 -2.32753e-19)
(1.17783 0.128403 2.16978e-19)
(1.21924 0.132887 -1.99799e-19)
(1.24843 0.135684 -1.79325e-19)
(1.26773 0.133624 1.65831e-19)
(-0.0101886 0.00689916 0)
(-0.0131262 0.0129669 3.56254e-19)
(0.000967475 0.0156511 3.3879e-19)
(0.0312869 0.016404 3.12067e-19)
(0.0774519 0.0166935 0)
(0.139077 0.0177576 -9.72241e-23)
(0.215495 0.0205326 2.76195e-21)
(0.305499 0.0256755 -2.32551e-19)
(0.407078 0.033539 2.2077e-19)
(0.517244 0.0441288 2.02784e-19)
(0.632049 0.0570801 -1.88588e-19)
(0.746844 0.0716815 -3.47652e-19)
(0.856766 0.0869646 1.63226e-19)
(0.957349 0.101849 -2.97001e-19)
(1.04511 0.115315 2.78122e-19)
(1.11797 0.12656 1.44433e-21)
(1.17532 0.135067 2.35033e-19)
(1.21799 0.140756 2.14401e-19)
(1.24773 0.143453 6.8522e-22)
(1.26702 0.144463 1.80211e-19)
(1.27826 0.141156 3.18202e-19)
(-0.00897406 0.00579489 0)
(-0.00740665 0.0099749 -3.68249e-19)
(0.0132632 0.0116457 -3.38786e-19)
(0.051961 0.0121768 -1.58459e-19)
(0.108063 0.0130553 5.96124e-19)
(0.180821 0.015527 1.35752e-19)
(0.268996 0.0204727 -3.04354e-21)
(0.370555 0.0284142 -2.40183e-19)
(0.48243 0.0394749 0)
(0.600463 0.053342 2.04187e-19)
(0.719635 0.0692795 -5.70282e-19)
(0.834584 0.0862208 1.77216e-19)
(0.940295 0.102936 0)
(1.0328 0.118239 -2.96074e-19)
(1.10964 0.131177 5.51008e-19)
(1.17007 0.141153 -2.52611e-19)
(1.21487 0.147952 0)
(1.24597 0.15176 0)
(1.2659 0.152732 -3.83013e-19)
(1.27741 0.152153 1.77221e-19)
(1.283 0.147861 -3.1571e-19)
(-0.00726121 0.00458172 2.90394e-21)
(-0.000145623 0.00685053 3.67436e-19)
(0.0281881 0.00770627 0)
(0.0763389 0.00837417 -3.26484e-19)
(0.143333 0.0103195 -1.49396e-19)
(0.227893 0.0147478 -1.41002e-19)
(0.327989 0.0224134 0)
(0.440531 0.0336093 0)
(0.561222 0.0481265 2.74276e-21)
(0.684715 0.0652462 2.08706e-19)
(0.805124 0.0838247 1.92009e-19)
(0.916795 0.102478 -3.51705e-19)
(1.01512 0.119827 3.18211e-21)
(1.09713 0.134729 -1.44231e-19)
(1.16178 0.146445 2.38563e-21)
(1.20973 0.154688 0)
(1.24297 0.159569 0)
(1.26422 0.161523 0)
(1.27639 0.160953 1.87124e-19)
(1.28219 0.159046 3.39358e-19)
(1.28381 0.154042 -5.55509e-22)
(-0.00497779 0.00328439 -3.83691e-19)
(0.0088264 0.00368388 1.87564e-19)
(0.045952 0.00399713 1.75639e-19)
(0.104598 0.00523444 -1.71483e-19)
(0.183302 0.00878453 -1.5207e-19)
(0.280059 0.0157439 4.29874e-19)
(0.391814 0.0266462 2.65805e-19)
(0.514214 0.0414449 -3.41315e-21)
(0.641658 0.0594946 -6.7747e-19)
(0.767752 0.0796126 3.57992e-21)
(0.886124 0.100268 1.93067e-19)
(0.991375 0.119861 -2.07766e-21)
(1.07985 0.137017 -3.22682e-19)
(1.14998 0.150799 1.50336e-19)
(1.20222 0.160791 0)
(1.23853 0.167057 0)
(1.26178 0.170011 0)
(1.2751 0.17027 4.03952e-19)
(1.28144 0.168399 -3.75454e-19)
(1.28322 0.165413 -1.69981e-19)
(1.28228 0.159935 7.70465e-22)
(-0.00205315 0.00193792 5.86955e-19)
(0.0196636 0.000591466 -3.89951e-19)
(0.0667226 0.000717761 -3.60948e-19)
(0.13683 0.00303025 5.01072e-19)
(0.227868 0.00876863 -3.14342e-19)
(0.336878 0.0188289 4.79855e-21)
(0.45955 0.0334087 -5.31461e-19)
(0.590138 0.0520025 7.41497e-19)
(0.721802 0.0734457 -2.30768e-19)
(0.847418 0.0960851 0)
(0.960653 0.118088 0)
(1.05693 0.137795 0)
(1.13398 0.154007 1.62219e-19)
(1.19182 0.166116 0)
(1.2323 0.174089 -1.32515e-19)
(1.25837 0.178325 1.24056e-19)
(1.27342 0.179474 0)
(1.28066 0.178264 -2.02604e-19)
(1.28279 0.17533 -1.80301e-19)
(1.28184 0.171484 -1.62413e-19)
(1.27928 0.165718 1.46466e-19)
(0.0015796 0.000587624 -3.98921e-19)
(0.0324972 -0.00228508 1.95352e-19)
(0.0906123 -0.00190202 3.67818e-19)
(0.173025 0.00205811 0)
(0.276765 0.0105927 3.11557e-19)
(0.397687 0.0242825 -5.85403e-19)
(0.530044 0.0428586 -1.36996e-19)
(0.666676 0.0652471 -2.48687e-19)
(0.799735 0.0897238 1.11046e-21)
(0.921846 0.114225 -2.13191e-19)
(1.02729 0.136763 -1.91987e-19)
(1.11282 0.155797 3.55146e-19)
(1.17778 0.170451 -1.62053e-19)
(1.22372 0.180527 4.62623e-21)
(1.25364 0.186369 1.35447e-19)
(1.27113 0.188658 -2.39675e-19)
(1.27973 0.188199 -2.16598e-19)
(1.28247 0.185754 1.94275e-19)
(1.28167 0.181965 -1.77007e-19)
(1.27893 0.17743 5.42383e-21)
(1.27537 0.1715 1.47456e-19)
(0.00598078 -0.000710927 4.11899e-19)
(0.0474269 -0.00478133 -2.03674e-19)
(0.117664 -0.00360881 5.62846e-22)
(0.213052 0.00262542 -1.75826e-19)
(0.329554 0.0145606 1.63131e-19)
(0.461622 0.0323269 2.99228e-19)
(0.601971 0.0550565 -2.1744e-21)
(0.742153 0.0810288 2.59007e-19)
(0.873715 0.107981 3.54809e-19)
(0.989598 0.133566 8.55691e-19)
(1.08525 0.155825 -1.98057e-19)
(1.15906 0.173507 0)
(1.21203 0.186162 -2.97357e-21)
(1.24706 0.19402 -2.93574e-19)
(1.26792 0.197762 0)
(1.27849 0.198267 1.21553e-19)
(1.28219 0.196415 3.22178e-19)
(1.2817 0.192948 -9.87534e-20)
(1.27892 0.188464 0)
(1.27503 0.183366 0)
(1.27086 0.177344 0)
(0.0112008 -0.00189252 -3.12463e-19)
(0.0645118 -0.00671378 -1.04852e-19)
(0.147837 -0.00413433 0)
(0.256648 0.00503545 1.76624e-19)
(0.385627 0.0209388 -3.29764e-19)
(0.527652 0.0431079 0)
(0.673917 0.0699598 -1.41566e-19)
(0.814978 0.0991003 -1.2643e-19)
(0.942304 0.127821 -2.34942e-19)
(1.04974 0.153668 -6.425e-19)
(1.1343 0.174901 3.91339e-19)
(1.19617 0.190698 -1.80452e-19)
(1.23787 0.201082 0)
(1.26329 0.206684 1.45167e-19)
(1.27666 0.208444 -1.53502e-21)
(1.28183 0.207361 -1.49279e-21)
(1.28191 0.204319 0)
(1.27917 0.200002 0)
(1.27507 0.194937 0)
(1.27046 0.18936 0)
(1.26591 0.183277 0)
(0.0172767 -0.00288321 0)
(0.0837628 -0.00788453 2.09165e-19)
(0.181003 -0.00320563 0)
(0.303421 0.00957166 0)
(0.444221 0.0299387 -1.66657e-19)
(0.594626 0.0566836 3.10425e-19)
(0.744468 0.0874285 -2.85951e-21)
(0.883749 0.119146 -1.29824e-19)
(1.00445 0.148838 1.19595e-19)
(1.10181 0.174149 1.05426e-19)
(1.17471 0.193728 -9.976e-20)
(1.22501 0.207264 0)
(1.25653 0.215251 1.55917e-19)
(1.27378 0.218657 -1.46093e-19)
(1.28113 0.218602 2.55238e-19)
(1.2822 0.216124 -1.16623e-19)
(1.27969 0.212063 1.05801e-19)
(1.2754 0.207025 0)
(1.27046 0.201449 0)
(1.2654 0.195449 -1.47923e-19)
(1.26059 0.189303 0)
(0.0242293 -0.00360166 -1.0967e-19)
(0.105135 -0.00808727 -1.09853e-19)
(0.216933 -0.000556386 0)
(0.352845 0.0164823 -9.60625e-20)
(0.504452 0.0417031 -2.60441e-19)
(0.661345 0.0730217 0)
(0.812308 0.107242 0)
(0.947337 0.140817 0)
(1.05949 0.170658 -1.19595e-19)
(1.14581 0.194711 1.0813e-19)
(1.20704 0.212144 -9.76476e-20)
(1.2466 0.223186 -8.90981e-20)
(1.26921 0.228762 -8.0648e-20)
(1.27973 0.230097 0)
(1.28238 0.228403 1.59382e-21)
(1.2804 0.224703 1.13705e-19)
(1.27605 0.219757 -1.00257e-19)
(1.27074 0.214085 8.96843e-20)
(1.26525 0.208036 8.02539e-20)
(1.25991 0.201642 1.47554e-19)
(1.25491 0.195412 -1.30518e-19)
(0.0320589 -0.00396117 0)
(0.128523 -0.00711432 2.19435e-19)
(0.255302 0.00406129 2.16355e-21)
(0.404286 0.0259669 1.90197e-19)
(0.565353 0.0562972 2.62292e-19)
(0.726628 0.0920056 -7.93278e-20)
(0.87629 0.129124 -2.17913e-19)
(1.00492 0.163758 1.81561e-21)
(1.10716 0.192956 0)
(1.18202 0.215138 2.17253e-19)
(1.23207 0.23007 9.76534e-20)
(1.26197 0.238509 1.76717e-19)
(1.27702 0.241738 7.99277e-20)
(1.28211 0.241151 0)
(1.28116 0.237988 -2.31678e-21)
(1.27697 0.233205 -1.12122e-19)
(1.27135 0.227469 1.00267e-19)
(1.26537 0.221215 -2.36607e-21)
(1.25954 0.214706 -8.02618e-20)
(1.25404 0.207934 7.18582e-20)
(1.24889 0.201581 0)
(0.0407439 -0.00387226 5.82304e-20)
(0.153758 -0.00476456 0)
(0.295694 0.0108651 -1.01816e-19)
(0.457015 0.0381648 9.82582e-20)
(0.625925 0.0737067 -1.78405e-19)
(0.789373 0.113447 2.45961e-19)
(0.935483 0.152764 -7.57127e-20)
(1.05599 0.187637 2.02831e-19)
(1.14747 0.215469 0)
(1.21097 0.235289 -1.06276e-19)
(1.25066 0.247491 2.91207e-21)
(1.2721 0.25331 8.33687e-20)
(1.28088 0.254301 -1.55375e-19)
(1.2817 0.251949 -6.78236e-20)
(1.27805 0.247459 -1.23098e-19)
(1.27228 0.241699 0)
(1.26581 0.235235 -4.71999e-20)
(1.2594 0.228424 -4.31799e-20)
(1.25337 0.221453 0)
(1.24778 0.214305 6.69749e-20)
(1.2425 0.207783 -2.64001e-21)
(0.0502382 -0.00324566 -6.71354e-22)
(0.180609 -0.000851895 0)
(0.33761 0.0200317 -2.6828e-19)
(0.510245 0.0531484 5.01841e-20)
(0.685178 0.093841 -1.57741e-21)
(0.848611 0.137102 -8.8123e-22)
(0.989193 0.17784 -7.55707e-20)
(1.10032 0.212154 3.0863e-21)
(1.18069 0.237993 1.58483e-21)
(1.23331 0.255084 -1.08389e-19)
(1.26365 0.264432 9.65888e-20)
(1.27787 0.267676 -8.59143e-20)
(1.28156 0.26656 7.63489e-20)
(1.27907 0.262588 6.88264e-20)
(1.27344 0.256888 1.19389e-19)
(1.26657 0.250223 -1.58135e-19)
(1.25954 0.243066 4.82775e-20)
(1.25287 0.235703 0)
(1.24675 0.228257 -7.27488e-20)
(1.24111 0.220729 6.61921e-20)
(1.23574 0.213988 -1.47803e-19)
(0.0604707 -0.00199575 6.02966e-20)
(0.208784 0.00478638 6.00076e-20)
(0.380485 0.0316874 1.64111e-19)
(0.563156 0.0709189 0)
(0.742185 0.116541 9.18014e-20)
(0.903534 0.16269 0)
(1.03696 0.204038 -3.70623e-20)
(1.13789 0.237051 3.4846e-20)
(1.20723 0.260378 6.06163e-20)
(1.24972 0.274484 0)
(1.27182 0.280935 0)
(1.28 0.281693 -4.08887e-20)
(1.27964 0.278605 2.18527e-21)
(1.27464 0.273135 -6.17384e-22)
(1.26759 0.266312 -1.65503e-21)
(1.25998 0.258788 3.76543e-22)
(1.25261 0.250952 0)
(1.24581 0.243028 3.93614e-20)
(1.23966 0.235089 -3.29731e-22)
(1.23403 0.227171 0)
(1.2286 0.220158 2.76484e-20)
(0.0713457 -4.40329e-05 0)
(0.237939 0.0122817 -6.00073e-20)
(0.423707 0.0459016 -5.54276e-20)
(0.614934 0.0914069 0)
(0.796105 0.141589 0)
(0.953513 0.189905 2.13128e-20)
(1.07854 0.23106 1.9084e-20)
(1.16889 0.26211 3.30534e-20)
(1.22759 0.282516 -9.03204e-20)
(1.26087 0.293475 5.39131e-20)
(1.27588 0.297048 0)
(1.2791 0.295429 -2.04333e-20)
(1.27557 0.290495 0)
(1.26872 0.283628 0)
(1.26067 0.275742 0)
(1.25259 0.267385 1.30773e-20)
(1.24503 0.258869 0)
(1.2382 0.250367 -1.90499e-20)
(1.23209 0.241912 -1.67609e-20)
(1.2265 0.233593 3.0511e-20)
(1.22105 0.226256 -1.39146e-20)
(0.0827444 0.00267731 0)
(0.267689 0.0217273 0)
(0.466636 0.0626819 0)
(0.664798 0.114477 0)
(0.846216 0.168722 1.16185e-20)
(0.998092 0.218435 -3.22536e-20)
(1.11386 0.25863 -1.90847e-20)
(1.19359 0.287147 8.21556e-21)
(1.24231 0.304324 2.2287e-20)
(1.2674 0.312057 -3.91565e-20)
(1.2764 0.312814 1.19337e-20)
(1.27563 0.308934 1.06459e-20)
(1.26969 0.302265 9.17739e-21)
(1.2615 0.29408 0)
(1.25279 0.28517 -6.63375e-21)
(1.24443 0.275987 1.84519e-20)
(1.23681 0.266779 0)
(1.23003 0.257679 1.90518e-20)
(1.22401 0.248686 0)
(1.21851 0.239948 0)
(1.21308 0.232236 0)
(0.0945271 0.00622224 0)
(0.297614 0.0331731 0)
(0.50863 0.0819733 0)
(0.712025 0.139932 0)
(0.891924 0.197643 -1.16857e-20)
(1.03698 0.247966 -1.04453e-20)
(1.14298 0.286496 -1.90057e-20)
(1.21238 0.312008 0)
(1.25192 0.325743 2.92642e-20)
(1.26986 0.330231 -1.30681e-20)
(1.27388 0.328259 -8.06872e-22)
(1.26997 0.322234 1.87098e-20)
(1.26222 0.313925 -8.92905e-21)
(1.25311 0.304478 0)
(1.244 0.294567 6.38495e-21)
(1.23552 0.284555 5.31841e-21)
(1.22793 0.274641 0)
(1.22127 0.264917 1.73574e-20)
(1.2154 0.255364 0)
(1.21004 0.246187 0)
(1.2047 0.238053 0)
(0.106537 0.0106281 0)
(0.327275 0.0466219 -6.3631e-20)
(0.549063 0.103659 -5.85274e-20)
(0.755972 0.167524 0)
(0.932767 0.22803 0)
(1.07003 0.27819 2.14498e-20)
(1.16608 0.314426 1.90068e-20)
(1.22564 0.336559 -3.20925e-20)
(1.25692 0.346719 2.88792e-20)
(1.26874 0.347991 -7.40008e-22)
(1.2687 0.343393 0)
(1.26237 0.33533 -1.94108e-20)
(1.25333 0.32546 0)
(1.24363 0.314794 0)
(1.23431 0.303891 0)
(1.22584 0.293042 1.02334e-20)
(1.21838 0.282401 0)
(1.21191 0.272032 -1.73591e-20)
(1.20625 0.261898 1.43819e-20)
(1.20108 0.252255 -2.60735e-20)
(1.19589 0.243662 1.18804e-20)
(0.118605 0.0159132 6.58297e-20)
(0.356228 0.0620279 6.3631e-20)
(0.587342 0.127566 1.76161e-19)
(0.796086 0.196963 0)
(0.968411 0.25955 9.58691e-20)
(1.09721 0.30881 0)
(1.1834 0.342209 3.61676e-20)
(1.2338 0.36068 -3.40077e-20)
(1.25776 0.3672 5.60574e-20)
(1.26444 0.365322 0)
(1.26117 0.358207 0)
(1.25305 0.348206 3.55556e-20)
(1.24314 0.336839 -2.49225e-21)
(1.23311 0.324982 -1.09855e-19)
(1.22375 0.313091 1.79766e-21)
(1.2154 0.301393 4.10398e-20)
(1.20814 0.290007 0)
(1.2019 0.27897 -3.08676e-20)
(1.19651 0.268232 5.57838e-20)
(1.19159 0.258093 0)
(1.18663 0.24902 -2.10168e-20)
(0.130551 0.0220757 -1.31803e-19)
(0.384035 0.079297 0)
(0.622927 0.153465 -1.77512e-19)
(0.831913 0.227922 -5.45345e-20)
(0.998638 0.291859 -7.19275e-22)