/*--------------------------------*- C++ -*----------------------------------*\
  =========                 |
  \\      /  F ield         | OpenFOAM: The Open Source CFD Toolbox
   \\    /   O peration     | Website:  https://openfoam.org
    \\  /    A nd           | Version:  7
     \\/     M anipulation  |
\*---------------------------------------------------------------------------*/
FoamFile
{
    version     2.0;
    format      ascii;
    class       volScalarField;
    location    "49";
    object      p;
}
// * * * * * * * * * * * * * * * * * * * * * * * * * * * * * * * * * * * * * //

dimensions      [0 2 -2 0 0 0 0];

internalField   nonuniform List<scalar> 
40000
(
-0.227689
-0.228565
-0.229225
-0.229766
-0.230254
-0.230691
-0.231083
-0.231439
-0.231768
-0.232075
-0.232366
-0.232645
-0.232915
-0.233176
-0.233429
-0.233673
-0.233905
-0.234124
-0.234326
-0.234509
-0.234668
-0.234803
-0.234911
-0.234991
-0.235043
-0.235069
-0.235073
-0.235057
-0.235026
-0.234996
-0.227779
-0.228649
-0.229304
-0.229842
-0.230326
-0.23076
-0.23115
-0.231503
-0.231829
-0.232134
-0.232422
-0.232699
-0.232966
-0.233225
-0.233476
-0.233717
-0.233947
-0.234163
-0.234362
-0.234542
-0.234698
-0.234829
-0.234932
-0.235008
-0.235055
-0.235075
-0.235073
-0.235052
-0.235013
-0.234979
-0.227972
-0.22883
-0.229476
-0.230006
-0.230484
-0.230912
-0.231296
-0.231644
-0.231965
-0.232265
-0.232549
-0.232822
-0.233085
-0.233339
-0.233586
-0.233822
-0.234048
-0.234259
-0.234454
-0.234628
-0.234778
-0.234903
-0.234999
-0.235066
-0.235104
-0.235115
-0.235103
-0.235071
-0.235019
-0.234976
-0.228265
-0.229105
-0.229738
-0.230257
-0.230726
-0.231145
-0.23152
-0.231861
-0.232175
-0.232468
-0.232745
-0.233011
-0.233268
-0.233516
-0.233757
-0.233987
-0.234206
-0.234411
-0.234599
-0.234766
-0.234908
-0.235023
-0.235109
-0.235164
-0.235189
-0.235185
-0.235159
-0.235113
-0.23504
-0.234985
-0.228655
-0.229472
-0.230087
-0.230593
-0.231048
-0.231456
-0.231821
-0.232151
-0.232456
-0.232739
-0.233008
-0.233266
-0.233514
-0.233754
-0.233986
-0.234209
-0.23442
-0.234616
-0.234795
-0.234952
-0.235084
-0.235188
-0.23526
-0.2353
-0.235307
-0.235284
-0.235238
-0.235172
-0.235073
-0.235001
-0.229139
-0.229927
-0.230521
-0.23101
-0.23145
-0.231843
-0.232194
-0.232512
-0.232804
-0.233077
-0.233335
-0.233581
-0.233819
-0.234049
-0.234271
-0.234484
-0.234685
-0.234871
-0.235039
-0.235185
-0.235304
-0.235393
-0.235448
-0.235469
-0.235455
-0.235408
-0.235337
-0.235246
-0.235112
-0.235018
-0.229711
-0.230466
-0.231036
-0.231504
-0.231925
-0.232301
-0.232637
-0.23294
-0.233218
-0.233477
-0.233721
-0.233955
-0.23418
-0.234398
-0.234608
-0.234809
-0.234998
-0.235172
-0.235327
-0.235459
-0.235562
-0.235634
-0.23567
-0.235669
-0.235628
-0.235552
-0.23545
-0.235328
-0.235153
-0.235026
-0.230366
-0.231083
-0.231626
-0.232071
-0.232471
-0.232828
-0.233145
-0.233431
-0.233692
-0.233935
-0.234164
-0.234382
-0.234593
-0.234796
-0.234992
-0.235179
-0.235354
-0.235514
-0.235654
-0.23577
-0.235856
-0.235908
-0.235921
-0.235893
-0.235822
-0.235711
-0.235571
-0.235413
-0.235187
-0.235016
-0.231099
-0.231775
-0.232287
-0.232707
-0.233083
-0.233418
-0.233714
-0.23398
-0.234222
-0.234446
-0.234657
-0.234858
-0.235052
-0.235238
-0.235418
-0.235589
-0.235747
-0.235891
-0.236014
-0.236112
-0.236179
-0.236208
-0.236196
-0.236138
-0.236032
-0.23588
-0.235696
-0.235494
-0.235208
-0.234973
-0.231902
-0.232535
-0.233013
-0.233406
-0.233757
-0.234067
-0.23434
-0.234583
-0.234804
-0.235007
-0.235197
-0.235378
-0.235552
-0.235719
-0.23588
-0.236032
-0.236173
-0.236298
-0.236402
-0.23648
-0.236525
-0.23653
-0.23649
-0.236398
-0.236252
-0.236053
-0.235817
-0.235563
-0.235211
-0.234878
-0.232769
-0.233356
-0.2338
-0.234163
-0.234486
-0.234769
-0.235017
-0.235235
-0.235431
-0.23561
-0.235777
-0.235936
-0.236087
-0.236233
-0.236372
-0.236504
-0.236624
-0.236729
-0.236812
-0.236868
-0.236889
-0.236868
-0.236796
-0.236668
-0.236478
-0.236226
-0.235929
-0.235616
-0.235194
-0.234698
-0.233695
-0.234234
-0.234642
-0.234973
-0.235266
-0.23552
-0.23574
-0.235931
-0.2361
-0.236253
-0.236394
-0.236526
-0.236652
-0.236773
-0.236889
-0.236997
-0.237094
-0.237176
-0.237236
-0.237268
-0.237264
-0.237214
-0.23711
-0.236942
-0.236705
-0.236394
-0.236025
-0.235647
-0.235164
-0.234351
-0.234671
-0.235162
-0.235533
-0.235832
-0.236093
-0.236316
-0.236506
-0.236667
-0.236806
-0.236929
-0.23704
-0.237143
-0.237241
-0.237335
-0.237423
-0.237505
-0.237576
-0.237633
-0.237668
-0.237674
-0.237643
-0.237563
-0.237424
-0.237215
-0.236927
-0.236553
-0.236104
-0.235652
-0.235127
-0.233796
-0.235693
-0.236137
-0.236469
-0.236734
-0.236962
-0.237152
-0.237309
-0.237437
-0.237543
-0.237633
-0.237712
-0.237783
-0.237848
-0.23791
-0.237968
-0.238021
-0.238064
-0.238092
-0.2381
-0.238079
-0.238018
-0.237907
-0.237732
-0.237481
-0.23714
-0.236698
-0.236165
-0.23561
-0.234942
-0.23359
-0.236756
-0.237152
-0.237445
-0.237676
-0.237869
-0.238025
-0.238146
-0.238238
-0.238308
-0.238362
-0.238404
-0.238438
-0.238468
-0.238495
-0.238519
-0.238538
-0.238549
-0.238547
-0.238525
-0.238474
-0.238383
-0.238239
-0.238028
-0.237733
-0.237338
-0.236827
-0.236205
-0.235538
-0.234679
-0.233247
-0.237854
-0.238204
-0.23846
-0.238655
-0.238811
-0.23893
-0.239013
-0.239067
-0.239097
-0.23911
-0.239112
-0.239106
-0.239096
-0.239083
-0.239069
-0.239052
-0.239027
-0.238991
-0.238936
-0.238853
-0.238729
-0.238552
-0.238303
-0.237965
-0.237516
-0.236933
-0.236219
-0.235434
-0.234391
-0.232713
-0.238985
-0.239291
-0.239509
-0.239668
-0.239787
-0.239866
-0.239908
-0.23992
-0.239907
-0.239876
-0.239832
-0.239781
-0.239727
-0.23967
-0.239614
-0.239555
-0.239491
-0.239417
-0.239326
-0.239207
-0.23905
-0.238837
-0.23855
-0.238168
-0.237665
-0.237013
-0.236202
-0.235294
-0.234073
-0.232013
-0.240146
-0.24041
-0.240591
-0.240713
-0.240793
-0.240831
-0.24083
-0.240796
-0.240735
-0.240655
-0.240562
-0.240461
-0.240357
-0.240252
-0.240148
-0.240043
-0.239935
-0.239819
-0.239688
-0.239531
-0.239336
-0.239086
-0.238761
-0.238335
-0.23778
-0.237058
-0.23615
-0.235115
-0.233722
-0.231152
-0.241338
-0.241562
-0.241707
-0.241792
-0.241831
-0.241825
-0.241777
-0.241693
-0.241581
-0.241447
-0.2413
-0.241144
-0.240985
-0.240826
-0.240669
-0.240513
-0.240356
-0.240194
-0.240018
-0.239819
-0.239584
-0.239294
-0.238927
-0.238457
-0.237849
-0.237062
-0.236057
-0.234891
-0.233346
-0.230131
-0.24256
-0.242747
-0.242857
-0.242904
-0.242901
-0.242848
-0.24275
-0.242613
-0.242444
-0.242252
-0.242045
-0.241828
-0.241609
-0.24139
-0.241174
-0.240962
-0.240751
-0.240537
-0.240312
-0.240067
-0.239787
-0.239453
-0.239043
-0.238526
-0.237866
-0.237013
-0.235915
-0.234614
-0.232953
-0.228956
-0.243816
-0.243969
-0.244044
-0.244052
-0.244005
-0.243903
-0.24375
-0.243555
-0.243325
-0.24307
-0.242797
-0.242514
-0.242229
-0.241944
-0.241665
-0.24139
-0.241119
-0.240848
-0.240569
-0.240272
-0.239943
-0.239561
-0.239103
-0.238537
-0.237821
-0.236903
-0.235714
-0.234273
-0.232549
-0.227643
-0.24511
-0.245232
-0.245272
-0.24524
-0.245146
-0.244992
-0.244781
-0.244524
-0.244228
-0.243903
-0.243559
-0.243205
-0.242847
-0.242491
-0.242141
-0.241799
-0.241462
-0.241128
-0.24079
-0.240436
-0.240052
-0.239617
-0.239106
-0.238485
-0.23771
-0.236724
-0.235446
-0.233855
-0.232131
-0.226225
-0.246449
-0.246541
-0.246546
-0.246473
-0.24633
-0.246119
-0.245847
-0.245522
-0.245155
-0.244755
-0.244335
-0.243902
-0.243466
-0.243033
-0.242607
-0.242191
-0.241783
-0.241381
-0.240978
-0.240561
-0.240117
-0.239624
-0.239054
-0.238372
-0.237531
-0.236472
-0.235106
-0.233349
-0.231691
-0.224745
-0.247842
-0.247905
-0.247875
-0.247758
-0.247563
-0.247292
-0.246953
-0.246556
-0.246111
-0.245631
-0.245128
-0.244612
-0.244092
-0.243575
-0.243068
-0.242573
-0.242089
-0.241613
-0.241139
-0.240655
-0.240144
-0.239587
-0.238952
-0.238202
-0.237288
-0.236148
-0.234692
-0.232755
-0.231205
-0.223267
-0.249298
-0.249333
-0.249266
-0.249103
-0.248851
-0.248516
-0.248106
-0.247631
-0.247104
-0.246538
-0.245946
-0.245341
-0.244731
-0.244126
-0.243532
-0.242952
-0.242387
-0.241832
-0.241282
-0.240725
-0.240143
-0.239515
-0.238808
-0.237983
-0.236987
-0.235758
-0.234207
-0.232082
-0.230647
-0.221874
-0.250831
-0.250836
-0.25073
-0.250516
-0.250205
-0.249801
-0.249313
-0.248755
-0.24814
-0.247483
-0.246798
-0.246097
-0.245393
-0.244694
-0.244008
-0.243339
-0.242687
-0.24205
-0.241419
-0.240783
-0.240125
-0.239419
-0.238633
-0.237724
-0.236638
-0.235309
-0.233655
-0.231356
-0.22998
-0.220663
-0.252453
-0.252426
-0.252277
-0.25201
-0.251634
-0.251155
-0.250585
-0.249939
-0.24923
-0.248476
-0.247691
-0.24689
-0.246087
-0.24529
-0.244508
-0.243745
-0.243003
-0.242277
-0.241561
-0.240842
-0.2401
-0.23931
-0.238437
-0.237437
-0.236251
-0.234814
-0.233037
-0.2306
-0.229133
-0.219677
-0.254181
-0.254117
-0.253921
-0.253596
-0.253149
-0.25259
-0.251932
-0.251191
-0.250383
-0.249526
-0.248637
-0.247732
-0.246824
-0.245925
-0.245043
-0.244183
-0.243346
-0.242528
-0.241722
-0.240914
-0.240082
-0.2392
-0.238231
-0.23713
-0.235836
-0.234288
-0.232369
-0.229856
-0.227984
-0.218804
-0.25603
-0.255925
-0.255676
-0.255286
-0.254762
-0.254117
-0.253365
-0.252523
-0.251611
-0.250646
-0.249649
-0.248634
-0.247618
-0.246613
-0.245627
-0.244666
-0.243731
-0.242817
-0.241916
-0.241011
-0.240082
-0.239098
-0.238022
-0.236808
-0.2354
-0.233745
-0.231698
-0.229234
-0.22656
-0.21825
-0.258019
-0.257863
-0.257555
-0.257094
-0.256487
-0.255749
-0.254896
-0.253948
-0.252925
-0.251848
-0.250737
-0.24961
-0.248482
-0.247368
-0.246275
-0.24521
-0.244172
-0.243156
-0.242153
-0.241144
-0.240107
-0.239008
-0.237811
-0.236471
-0.234937
-0.233176
-0.231048
-0.228809
-0.22542
-0.220263
-0.260164
-0.25995
-0.259574
-0.259034
-0.258336
-0.257498
-0.256538
-0.255477
-0.254339
-0.253145
-0.251916
-0.250672
-0.24943
-0.248203
-0.247
-0.245826
-0.244681
-0.243558
-0.242445
-0.241321
-0.240161
-0.238931
-0.237593
-0.236105
-0.234424
-0.232538
-0.230338
-0.228307
-0.225102
-0.227628
-0.262483
-0.2622
-0.261748
-0.26112
-0.260324
-0.259378
-0.258304
-0.257125
-0.255865
-0.254549
-0.253199
-0.251835
-0.250475
-0.249132
-0.247815
-0.246529
-0.245271
-0.244033
-0.242798
-0.241546
-0.240246
-0.238863
-0.237358
-0.235693
-0.233831
-0.231777
-0.229464
-0.227368
-0.224415
-0.226161
-0.264996
-0.264631
-0.264092
-0.263367
-0.262463
-0.261402
-0.260207
-0.258903
-0.257518
-0.256075
-0.2546
-0.253113
-0.251631
-0.250169
-0.248735
-0.24733
-0.245951
-0.244587
-0.243218
-0.241819
-0.240357
-0.238793
-0.237091
-0.235212
-0.233129
-0.230851
-0.22834
-0.225973
-0.222914
-0.223022
-0.267719
-0.267258
-0.266621
-0.26579
-0.264769
-0.263584
-0.262261
-0.260827
-0.25931
-0.257737
-0.256132
-0.254518
-0.252912
-0.251327
-0.249769
-0.248239
-0.24673
-0.245226
-0.243704
-0.242136
-0.240484
-0.238709
-0.236773
-0.234642
-0.232293
-0.229737
-0.226952
-0.224209
-0.22087
-0.219595
-0.270668
-0.270096
-0.269349
-0.268402
-0.267256
-0.265938
-0.264479
-0.262909
-0.261255
-0.259547
-0.25781
-0.256066
-0.254331
-0.252617
-0.250929
-0.249264
-0.247611
-0.245949
-0.244253
-0.242488
-0.240615
-0.238593
-0.236385
-0.233962
-0.231306
-0.228429
-0.225318
-0.222162
-0.218489
-0.21608
-0.273861
-0.273162
-0.272292
-0.271218
-0.269936
-0.268478
-0.266876
-0.265162
-0.263367
-0.26152
-0.259646
-0.257767
-0.255899
-0.25405
-0.252223
-0.25041
-0.248595
-0.246755
-0.244857
-0.242863
-0.240733
-0.238427
-0.23591
-0.233159
-0.230162
-0.226934
-0.22347
-0.219905
-0.215892
-0.212664
-0.277312
-0.276469
-0.275463
-0.27425
-0.272823
-0.271216
-0.269464
-0.267602
-0.26566
-0.263669
-0.261654
-0.259635
-0.257627
-0.255634
-0.253655
-0.251677
-0.24968
-0.247634
-0.245503
-0.243245
-0.240821
-0.238192
-0.23533
-0.23222
-0.228857
-0.225263
-0.22144
-0.217494
-0.213166
-0.20935
-0.281033
-0.28003
-0.278875
-0.277512
-0.27593
-0.274165
-0.272257
-0.270239
-0.268146
-0.266006
-0.263845
-0.26168
-0.259523
-0.257374
-0.255227
-0.253064
-0.250858
-0.248575
-0.246174
-0.243614
-0.240857
-0.237869
-0.234632
-0.231138
-0.227396
-0.223431
-0.219256
-0.214963
-0.210355
-0.206122
-0.285038
-0.283856
-0.282538
-0.281016
-0.279268
-0.277338
-0.275266
-0.273088
-0.270838
-0.268544
-0.26623
-0.263911
-0.261594
-0.259274
-0.256939
-0.254565
-0.252118
-0.249561
-0.246852
-0.24395
-0.240821
-0.237442
-0.233803
-0.22991
-0.225781
-0.221451
-0.21694
-0.212334
-0.207479
-0.202944
-0.289337
-0.287958
-0.286464
-0.284771
-0.282849
-0.280746
-0.278504
-0.27616
-0.273747
-0.271294
-0.268819
-0.266335
-0.263843
-0.261332
-0.258784
-0.256166
-0.253443
-0.250573
-0.247513
-0.244228
-0.240693
-0.236894
-0.232835
-0.228534
-0.22402
-0.219335
-0.214508
-0.209619
-0.204545
-0.199781
-0.293938
-0.292344
-0.290661
-0.288787
-0.286683
-0.284399
-0.281981
-0.279466
-0.276885
-0.274263
-0.271618
-0.268955
-0.266269
-0.263543
-0.26075
-0.257854
-0.254813
-0.251585
-0.248132
-0.244427
-0.240453
-0.236212
-0.231721
-0.22701
-0.222119
-0.217094
-0.21197
-0.206823
-0.20155
-0.1966
-0.298847
-0.297021
-0.295137
-0.293073
-0.290779
-0.288308
-0.285708
-0.283014
-0.280258
-0.277459
-0.274631
-0.271771
-0.268868
-0.265896
-0.262822
-0.259605
-0.256201
-0.252572
-0.248685
-0.244523
-0.240085
-0.235386
-0.230457
-0.22534
-0.220081
-0.214732
-0.20933
-0.203945
-0.19849
-0.193376
-0.304068
-0.301994
-0.299897
-0.297634
-0.295142
-0.292478
-0.289691
-0.286813
-0.283873
-0.280886
-0.277857
-0.274778
-0.271629
-0.268376
-0.264979
-0.261394
-0.257581
-0.253504
-0.249143
-0.244495
-0.239572
-0.234406
-0.22904
-0.223524
-0.217912
-0.212254
-0.20659
-0.200982
-0.195354
-0.190088
-0.3096
-0.307263
-0.304943
-0.302473
-0.299778
-0.296916
-0.293935
-0.290866
-0.287731
-0.284541
-0.281292
-0.277966
-0.274535
-0.270958
-0.267192
-0.263191
-0.258919
-0.254352
-0.249482
-0.244322
-0.238901
-0.233265
-0.227466
-0.221563
-0.21561
-0.209659
-0.203747
-0.197928
-0.192136
-0.186721
-0.315443
-0.312826
-0.310274
-0.307592
-0.304689
-0.301623
-0.298442
-0.295174
-0.291832
-0.288419
-0.284924
-0.281318
-0.277564
-0.273617
-0.269429
-0.264961
-0.260184
-0.255086
-0.249677
-0.243987
-0.23806
-0.231954
-0.225732
-0.219454
-0.213176
-0.206945
-0.200797
-0.194775
-0.188825
-0.183262
-0.321587
-0.318679
-0.315887
-0.312987
-0.309871
-0.306597
-0.303211
-0.299731
-0.296166
-0.292509
-0.288735
-0.28481
-0.280687
-0.276317
-0.271655
-0.266668
-0.26134
-0.255676
-0.249704
-0.243471
-0.237037
-0.230469
-0.223834
-0.217196
-0.210606
-0.204108
-0.197733
-0.191517
-0.185412
-0.1797
-0.328022
-0.324811
-0.321772
-0.318652
-0.31532
-0.311833
-0.308232
-0.304529
-0.300721
-0.29679
-0.292702
-0.288412
-0.283867
-0.279019
-0.273828
-0.268273
-0.262353
-0.256094
-0.249542
-0.24276
-0.235822
-0.228801
-0.221768
-0.214782
-0.207894
-0.20114
-0.194548
-0.188143
-0.181888
-0.176027
-0.334731
-0.331207
-0.327918
-0.324574
-0.321023
-0.317318
-0.313493
-0.309551
-0.305476
-0.301238
-0.296792
-0.292085
-0.287063
-0.28168
-0.275906
-0.269736
-0.263189
-0.256312
-0.249169
-0.241839
-0.234404
-0.226943
-0.219525
-0.212207
-0.205033
-0.198034
-0.191233
-0.184646
-0.178244
-0.172234
-0.341691
-0.337847
-0.334305
-0.330737
-0.326965
-0.323036
-0.318975
-0.314773
-0.310402
-0.305817
-0.300965
-0.295787
-0.290228
-0.284252
-0.277844
-0.271017
-0.263815
-0.256303
-0.248566
-0.240693
-0.232773
-0.224886
-0.217098
-0.209461
-0.202013
-0.19478
-0.187777
-0.181014
-0.17447
-0.168313
-0.348873
-0.344706
-0.340909
-0.337117
-0.333121
-0.328961
-0.324651
-0.320165
-0.315462
-0.310486
-0.305174
-0.299465
-0.29331
-0.286685
-0.279595
-0.272077
-0.264198
-0.256044
-0.247714
-0.239308
-0.230917
-0.222619
-0.214476
-0.206535
-0.198825
-0.191367
-0.18417
-0.177238
-0.170557
-0.164256
-0.356241
-0.351748
-0.347699
-0.343685
-0.339463
-0.335063
-0.330484
-0.325687
-0.320613
-0.315196
-0.309366
-0.303064
-0.296254
-0.288928
-0.281115
-0.272878
-0.264308
-0.25551
-0.246595
-0.237668
-0.228823
-0.220131
-0.21165
-0.203417
-0.195458
-0.187784
-0.180401
-0.173308
-0.166496
-0.160056
-0.363753
-0.358937
-0.354639
-0.350404
-0.345953
-0.341301
-0.336434
-0.331292
-0.325802
-0.319889
-0.31348
-0.306525
-0.299002
-0.290927
-0.282358
-0.273383
-0.264115
-0.254678
-0.24519
-0.23576
-0.226478
-0.21741
-0.208606
-0.200096
-0.191898
-0.184019
-0.176459
-0.169213
-0.162276
-0.155703
-0.371359
-0.366224
-0.361682
-0.357229
-0.352545
-0.34763
-0.342448
-0.336923
-0.330968
-0.324501
-0.317452
-0.309783
-0.301495
-0.292632
-0.28328
-0.273556
-0.263592
-0.253526
-0.243482
-0.233568
-0.223867
-0.214441
-0.20533
-0.196557
-0.188133
-0.18006
-0.172333
-0.164944
-0.15789
-0.151192
-0.379002
-0.373555
-0.368778
-0.364109
-0.359188
-0.353992
-0.348467
-0.342517
-0.336044
-0.328963
-0.321213
-0.312774
-0.303674
-0.293991
-0.283839
-0.273362
-0.262711
-0.252032
-0.241452
-0.231074
-0.220976
-0.211211
-0.201809
-0.192787
-0.18415
-0.175895
-0.168012
-0.160489
-0.153328
-0.146513
-0.386617
-0.380871
-0.375866
-0.370985
-0.36582
-0.360324
-0.354423
-0.348003
-0.340956
-0.333201
-0.32469
-0.31543
-0.305481
-0.294954
-0.283995
-0.27277
-0.261446
-0.250174
-0.239081
-0.228263
-0.217789
-0.207703
-0.198028
-0.188773
-0.179937
-0.171511
-0.163484
-0.155841
-0.148581
-0.14166
-0.394132
-0.388101
-0.38288
-0.37779
-0.372372
-0.366555
-0.360241
-0.353302
-0.345626
-0.337137
-0.327812
-0.317687
-0.306859
-0.295473
-0.283708
-0.271748
-0.259771
-0.247931
-0.23635
-0.225116
-0.214288
-0.203902
-0.193972
-0.1845
-0.175479
-0.166898
-0.15874
-0.150988
-0.14364
-0.136626
-0.40147
-0.395172
-0.389746
-0.38445
-0.378769
-0.372606
-0.365841
-0.358333
-0.34997
-0.340692
-0.330504
-0.319478
-0.307751
-0.295504
-0.282941
-0.270266
-0.257662
-0.245282
-0.23324
-0.221615
-0.210458
-0.199792
-0.189625
-0.179954
-0.170765
-0.162043
-0.153768
-0.145922
-0.138498
-0.131405
-0.408546
-0.402002
-0.396385
-0.390884
-0.384928
-0.378392
-0.371135
-0.363007
-0.353903
-0.343786
-0.332694
-0.320742
-0.308106
-0.295003
-0.281661
-0.268296
-0.255095
-0.242205
-0.229732
-0.217744
-0.206281
-0.195357
-0.184974
-0.175121
-0.165781
-0.156935
-0.148558
-0.140634
-0.133147
-0.12599
-0.41527
-0.408505
-0.40271
-0.397005
-0.390761
-0.383823
-0.376033
-0.367235
-0.35734
-0.346339
-0.334311
-0.321417
-0.307873
-0.293929
-0.279833
-0.265811
-0.252046
-0.23868
-0.225806
-0.213484
-0.20174
-0.190582
-0.180004
-0.169989
-0.160517
-0.151563
-0.143103
-0.135116
-0.12758
-0.120378
-0.421548
-0.414588
-0.40863
-0.402721
-0.396175
-0.388805
-0.380439
-0.370925
-0.360193
-0.348272
-0.335288
-0.321446
-0.307006
-0.292245
-0.277428
-0.262784
-0.248493
-0.234685
-0.221444
-0.208817
-0.196819
-0.185452
-0.174701
-0.164545
-0.15496
-0.145918
-0.137391
-0.129361
-0.121792
-0.114564
-0.427283
-0.420157
-0.414051
-0.407938
-0.401073
-0.39324
-0.384259
-0.373985
-0.362378
-0.349511
-0.33556
-0.320777
-0.305462
-0.289916
-0.274416
-0.259191
-0.244413
-0.230202
-0.216629
-0.203726
-0.191504
-0.179952
-0.169051
-0.158776
-0.149099
-0.139989
-0.131416
-0.12336
-0.115775
-0.108544
-0.432375
-0.425114
-0.418875
-0.412556
-0.405355
-0.397031
-0.387396
-0.376325
-0.363813
-0.349984
-0.335066
-0.31936
-0.3032
-0.286908
-0.270769
-0.255008
-0.239787
-0.225212
-0.211341
-0.198196
-0.185778
-0.174068
-0.163043
-0.152673
-0.142925
-0.133768
-0.125169
-0.117108
-0.109525
-0.102311
-0.436722
-0.429359
-0.423002
-0.416476
-0.408922
-0.400077
-0.389756
-0.377857
-0.364421
-0.349624
-0.333751
-0.31715
-0.300184
-0.283193
-0.266464
-0.250215
-0.234595
-0.219697
-0.205566
-0.192212
-0.179628
-0.167789
-0.156665
-0.146224
-0.13643
-0.127247
-0.118643
-0.110596
-0.103034
-0.0958603
-0.440225
-0.432791
-0.426332
-0.419597
-0.411675
-0.402283
-0.391247
-0.378498
-0.364127
-0.34837
-0.331565
-0.314105
-0.296381
-0.278744
-0.261478
-0.244791
-0.228819
-0.213641
-0.199288
-0.185761
-0.173042
-0.161103
-0.149908
-0.139421
-0.129604
-0.120419
-0.111832
-0.10382
-0.0962991
-0.0891902
-0.442782
-0.435313
-0.428767
-0.421821
-0.413515
-0.403555
-0.391782
-0.378169
-0.362864
-0.346164
-0.328463
-0.310191
-0.291763
-0.273536
-0.255789
-0.238718
-0.222444
-0.207029
-0.192494
-0.178829
-0.166009
-0.154
-0.142762
-0.132256
-0.122441
-0.113277
-0.10473
-0.0967747
-0.0893179
-0.0823013
-0.444298
-0.436828
-0.43021
-0.423051
-0.414349
-0.403803
-0.391279
-0.376798
-0.360571
-0.342958
-0.324403
-0.305375
-0.286304
-0.26755
-0.249382
-0.231981
-0.215454
-0.199848
-0.185172
-0.171407
-0.15852
-0.146473
-0.135222
-0.124723
-0.114935
-0.105815
-0.0973282
-0.0894502
-0.0820844
-0.0751907
-0.44468
-0.437243
-0.430568
-0.423195
-0.414087
-0.402943
-0.389662
-0.37432
-0.357195
-0.338707
-0.319353
-0.299631
-0.279983
-0.260767
-0.24224
-0.224567
-0.207839
-0.192089
-0.177313
-0.163486
-0.150568
-0.138515
-0.127281
-0.116818
-0.107082
-0.0980287
-0.08962
-0.0818344
-0.0745802
-0.0678264
-0.443841
-0.436471
-0.429753
-0.422166
-0.412646
-0.400899
-0.386863
-0.370677
-0.352686
-0.333375
-0.313284
-0.292937
-0.272783
-0.253174
-0.234351
-0.216465
-0.199588
-0.183741
-0.16891
-0.15506
-0.142148
-0.130123
-0.118937
-0.108539
-0.0988816
-0.0899174
-0.0816048
-0.0739243
-0.0667824
-0.0601219
-0.441698
-0.434429
-0.427683
-0.419884
-0.409949
-0.397599
-0.38282
-0.365818
-0.347008
-0.326932
-0.306174
-0.285276
-0.264691
-0.244759
-0.225707
-0.207666
-0.190695
-0.1748
-0.159957
-0.146126
-0.133256
-0.121295
-0.110188
-0.0998847
-0.0903342
-0.0814843
-0.0732931
-0.0657459
-0.0587147
-0.051981
-0.438179
-0.431043
-0.424284
-0.416277
-0.40593
-0.392985
-0.377484
-0.359703
-0.340127
-0.319356
-0.298006
-0.276637
-0.255698
-0.235516
-0.216301
-0.198167
-0.181155
-0.165261
-0.150453
-0.136681
-0.123892
-0.112029
-0.101036
-0.0908577
-0.0814418
-0.0727332
-0.0646952
-0.0573244
-0.0504532
-0.0435292
-0.433219
-0.426247
-0.419489
-0.411281
-0.400528
-0.387004
-0.370811
-0.352299
-0.332021
-0.310629
-0.28877
-0.267012
-0.245799
-0.225442
-0.206132
-0.187964
-0.170967
-0.155125
-0.140396
-0.126727
-0.114057
-0.102329
-0.091482
-0.0814607
-0.0722085
-0.0636692
-0.0558144
-0.0486218
-0.0418052
-0.035221
-0.42676
-0.419983
-0.413242
-0.404841
-0.393694
-0.379615
-0.362769
-0.343582
-0.322673
-0.300742
-0.278461
-0.2564
-0.234994
-0.214536
-0.195198
-0.177059
-0.160133
-0.144393
-0.12979
-0.116265
-0.103755
-0.0921979
-0.0815319
-0.0716991
-0.062641
-0.054301
-0.0466524
-0.0396486
-0.0329693
-0.0267465
-0.418758
-0.412203
-0.405496
-0.396913
-0.38539
-0.370786
-0.353335
-0.333538
-0.312077
-0.289694
-0.26708
-0.244804
-0.223286
-0.202803
-0.183506
-0.165457
-0.148657
-0.133069
-0.118639
-0.105302
-0.0929912
-0.081643
-0.0711925
-0.0615799
-0.0527454
-0.044633
-0.0372151
-0.0304277
-0.0239417
-0.0180507
-0.409176
-0.402871
-0.396212
-0.387462
-0.375587
-0.360496
-0.342495
-0.32216
-0.300232
-0.277489
-0.254633
-0.23223
-0.210685
-0.190251
-0.171063
-0.153165
-0.136547
-0.121163
-0.106951
-0.0938461
-0.0817751
-0.0706719
-0.0604713
-0.0511114
-0.0425306
-0.0346732
-0.0275118
-0.0209704
-0.0147076
-0.00913319
-0.397989
-0.39196
-0.385366
-0.376467
-0.364268
-0.348734
-0.330246
-0.309451
-0.287145
-0.264136
-0.241134
-0.218694
-0.197202
-0.176893
-0.15788
-0.140195
-0.123813
-0.108684
-0.0947391
-0.0819073
-0.0701159
-0.0592953
-0.0493791
-0.0403037
-0.0320063
-0.0244313
-0.0175527
-0.011283
-0.00526289
-8.21835e-06
-0.385183
-0.379453
-0.372943
-0.363915
-0.351425
-0.3355
-0.316594
-0.295423
-0.272833
-0.249655
-0.2266
-0.204211
-0.182854
-0.162743
-0.143973
-0.12656
-0.110471
-0.0956462
-0.0820139
-0.0694989
-0.0580267
-0.0475257
-0.0379281
-0.029169
-0.0211843
-0.0139189
-0.00734847
-0.00137337
0.00438709
0.00931085
-0.370756
-0.365347
-0.358937
-0.349805
-0.337063
-0.320803
-0.301554
-0.280096
-0.257318
-0.234067
-0.211054
-0.188805
-0.167664
-0.147823
-0.129361
-0.11228
-0.0965366
-0.082066
-0.0687919
-0.0566363
-0.0455227
-0.0353779
-0.0261327
-0.0177212
-0.0100781
-0.00314904
0.00308858
0.00874795
0.0142319
0.0188106
-0.354716
-0.349649
-0.343358
-0.334147
-0.321197
-0.304664
-0.28515
-0.263497
-0.240627
-0.217404
-0.194526
-0.172502
-0.151655
-0.132156
-0.114066
-0.0973741
-0.0820303
-0.0679626
-0.0550918
-0.0433374
-0.0326211
-0.0228684
-0.0140091
-0.00597608
0.00129693
0.00786343
0.0137443
0.0190675
0.0242578
0.0284766
-0.337083
-0.332376
-0.326224
-0.316964
-0.303852
-0.287112
-0.267415
-0.24566
-0.2228
-0.1997
-0.177049
-0.155335
-0.134859
-0.11577
-0.0981138
-0.0818684
-0.0669753
-0.0533582
-0.0409347
-0.0296223
-0.0193413
-0.010016
-0.00157532
0.00604892
0.0129238
0.0191018
0.0246025
0.0295696
0.0344484
0.038293
-0.317888
-0.313557
-0.307563
-0.298286
-0.285062
-0.268184
-0.24839
-0.226628
-0.203878
-0.180997
-0.158661
-0.13734
-0.117308
-0.0986965
-0.0815344
-0.0657899
-0.0513977
-0.0382775
-0.0263442
-0.0155135
-0.0057047
0.00315879
0.0111489
0.0183346
0.0247839
0.0305478
0.0356451
0.0402358
0.0447849
0.0482417
-0.29717
-0.293231
-0.287417
-0.278156
-0.264873
-0.24793
-0.228127
-0.20646
-0.183906
-0.161333
-0.139405
-0.118556
-0.0990405
-0.0809702
-0.0643603
-0.0491695
-0.0353267
-0.0227479
-0.011346
-0.00103543
0.00826545
0.0166339
0.0241423
0.0308604
0.0368568
0.0421812
0.0468522
0.051046
0.0552457
0.0583006
-0.274983
-0.271448
-0.265833
-0.256626
-0.24334
-0.226407
-0.206692
-0.185225
-0.162906
-0.140764
-0.119329
-0.0990281
-0.0800975
-0.0626298
-0.0466276
-0.032041
-0.0187939
-0.00679924
0.0040317
0.0137854
0.0225441
0.0303854
0.0373821
0.0436045
0.0491213
0.053981
0.0582023
0.0619779
0.0658051
0.0684398
-0.251388
-0.248267
-0.242873
-0.233756
-0.220526
-0.203683
-0.184135
-0.162893
-0.141022
-0.119354
-0.0984854
-0.0788056
-0.0605244
-0.0437174
-0.0283754
-0.014441
-0.00183354
0.00953632
0.0197586
0.0289205
0.0371045
0.0443882
0.0508445
0.056544
0.0615552
0.0659249
0.069673
0.0730071
0.0764331
0.0786233
-0.226456
-0.223755
-0.218605
-0.209617
-0.196504
-0.179821
-0.160493
-0.139641
-0.118255
-0.0971569
-0.0769313
-0.0579403
-0.0403694
-0.0242779
-0.00964572
0.00359127
0.0155175
0.0262243
0.0358026
0.0443398
0.0519184
0.0586159
0.0645048
0.0696556
0.0741361
0.077991
0.0812416
0.0841082
0.0870978
0.0888206
-0.200264
-0.197988
-0.193104
-0.184288
-0.171344
-0.154873
-0.1359
-0.115502
-0.0946809
-0.074236
-0.0547261
-0.0364875
-0.0196841
-0.00435942
0.0095166
0.0220139
0.0332202
0.0432282
0.0521295
0.0600115
0.0669563
0.073041
0.0783375
0.0829157
0.0868417
0.0901572
0.0928863
0.0952592
0.0977749
0.0990083
-0.172887
-0.171056
-0.166455
-0.157846
-0.145119
-0.128969
-0.110414
-0.0905524
-0.0703761
-0.0506595
-0.0319325
-0.0145059
0.0014771
0.0159874
0.0290643
0.0407827
0.0512332
0.0605094
0.0687033
0.075902
0.0821872
0.087635
0.0923165
0.0963003
0.0996495
0.102402
0.104588
0.106446
0.108447
0.109123
-0.144396
-0.14306
-0.138752
-0.130378
-0.117947
-0.102177
-0.0841178
-0.064873
-0.0454175
-0.0264985
-0.0086165
0.00794309
0.0230569
0.0367092
0.0489475
0.0598513
0.0695131
0.0780275
0.0854865
0.0919766
0.0975789
0.102368
0.106415
0.109786
0.112537
0.114705
0.116332
0.117659
0.119065
0.119006
-0.114871
-0.114137
-0.110088
-0.101995
-0.0899125
-0.0745913
-0.0571026
-0.0385492
-0.0198849
-0.00182727
0.0151528
0.0307954
0.0449957
0.0577504
0.0691144
0.0791711
0.0880147
0.0957403
0.10244
0.108199
0.113098
0.117211
0.120607
0.123348
0.125486
0.127055
0.128115
0.128881
0.129515
0.128484
-0.0845562
-0.084285
-0.0805699
-0.0727989
-0.0611164
-0.046309
-0.0294617
-0.0116693
0.00613913
0.0232771
0.039304
0.0539845
0.0672315
0.0790532
0.0895111
0.0986918
0.106691
0.113604
0.119522
0.124531
0.128709
0.132131
0.134863
0.136965
0.138481
0.13945
0.139959
0.140119
0.13974
0.137607
-0.0534949
-0.0536558
-0.0503085
-0.0428964
-0.0316639
-0.0174319
-0.00129173
0.0156758
0.0325695
0.0487355
0.0637634
0.0774418
0.0897005
0.100558
0.110082
0.118361
0.125493
0.131573
0.136691
0.140932
0.144376
0.147094
0.149152
0.150608
0.151503
0.151895
0.151888
0.151431
0.149964
0.146927
-0.021773
-0.0223836
-0.0194172
-0.0123975
-0.00166359
0.0119353
0.0273082
0.0433928
0.059319
0.0744666
0.0884554
0.101097
0.112337
0.122204
0.130769
0.138126
0.144371
0.1496
0.153903
0.157363
0.16006
0.162064
0.163441
0.164246
0.164525
0.164358
0.163854
0.162761
0.160275
0.158521
0.0104847
0.00941485
0.0119881
0.0185835
0.0287731
0.0416858
0.0562367
0.0713866
0.0862987
0.100388
0.113303
0.124878
0.135074
0.143928
0.151516
0.157932
0.163275
0.167638
0.171113
0.173781
0.175721
0.177004
0.177693
0.177843
0.177506
0.176773
0.175724
0.174035
0.171218
0.170147
0.0431518
0.04162
0.0437877
0.0499292
0.0595325
0.0717109
0.0853909
0.0995605
0.113419
0.126415
0.138228
0.148713
0.157844
0.165666
0.172261
0.177723
0.18215
0.185638
0.188275
0.190143
0.191319
0.191874
0.191871
0.191364
0.19041
0.1891
0.187484
0.185245
0.182154
0.181032
0.0761021
0.0741087
0.0758596
0.0815201
0.0904991
0.1019
0.114667
0.127817
0.140587
0.152463
0.163151
0.172526
0.180577
0.187355
0.192945
0.197443
0.200947
0.203551
0.205343
0.206405
0.206813
0.206637
0.205938
0.204772
0.203198
0.201304
0.199122
0.196375
0.192978
0.191528
0.109208
0.106756
0.10808
0.113235
0.121557
0.132143
0.14396
0.156058
0.167714
0.178447
0.187992
0.196245
0.203205
0.20893
0.213507
0.217034
0.21961
0.221326
0.222271
0.222524
0.222162
0.221252
0.219857
0.218031
0.215834
0.21335
0.210602
0.207348
0.203582
0.201701
0.142343
0.139435
0.140325
0.144953
0.152588
0.162328
0.173164
0.184185
0.194706
0.204281
0.212673
0.219795
0.225658
0.230325
0.233887
0.236442
0.238086
0.238914
0.239011
0.238456
0.237324
0.235681
0.23359
0.231105
0.228285
0.225209
0.221897
0.21813
0.213955
0.211596
0.175376
0.17202
0.172468
0.176553
0.183476
0.192344
0.202177
0.212101
0.221472
0.22988
0.237113
0.243101
0.247866
0.251476
0.254023
0.255607
0.256324
0.256265
0.255517
0.254157
0.252258
0.249886
0.247102
0.24396
0.240519
0.236852
0.232976
0.228692
0.224085
0.221224
0.208181
0.204383
0.204386
0.207912
0.214105
0.222081
0.230892
0.239707
0.247922
0.255159
0.261233
0.26609
0.26976
0.272317
0.273856
0.274474
0.274269
0.273331
0.271743
0.269583
0.266924
0.263828
0.260358
0.256564
0.252504
0.24825
0.243812
0.239011
0.233963
0.230585
0.24063
0.236399
0.235954
0.23891
0.244358
0.251429
0.259209
0.266909
0.273965
0.280035
0.284955
0.288688
0.291272
0.292786
0.293325
0.292988
0.29187
0.290061
0.287643
0.284693
0.281281
0.277471
0.273321
0.268883
0.264212
0.259377
0.254382
0.249067