/*--------------------------------*- C++ -*----------------------------------*\
  =========                 |
  \\      /  F ield         | OpenFOAM: The Open Source CFD Toolbox
   \\    /   O peration     | Website:  https://openfoam.org
    \\  /    A nd           | Version:  7
     \\/     M anipulation  |
\*---------------------------------------------------------------------------*/
FoamFile
{
    version     2.0;
    format      ascii;
    class       surfaceScalarField;
    location    "49";
    object      phi;
}
// * * * * * * * * * * * * * * * * * * * * * * * * * * * * * * * * * * * * * //

dimensions      [0 3 -1 0 0 0 0];

internalField   nonuniform List<scalar> 
79480
(
-7.44568e-07
6.94351e-07
5.02168e-08
-2.86772e-06
1.99054e-06
1.32614e-07
-6.31857e-06
3.25026e-06
2.00584e-07
-1.10443e-05
4.47177e-06
2.53942e-07
-1.69897e-05
5.65262e-06
2.9276e-07
-2.40976e-05
6.79064e-06
3.17343e-07
-3.23098e-05
7.88391e-06
3.28202e-07
-4.15666e-05
8.93081e-06
3.26006e-07
-5.18082e-05
9.93012e-06
3.11522e-07
-6.29748e-05
1.08811e-05
2.85539e-07
-7.50071e-05
1.17835e-05
2.48785e-07
-8.78466e-05
1.26377e-05
2.01844e-07
-0.000101436
1.34446e-05
1.45066e-07
-0.000115721
1.4206e-05
7.84953e-08
-0.000130647
1.4924e-05
1.81419e-09
-0.000146163
1.56017e-05
-8.57007e-08
-0.00016222
1.6243e-05
-1.85195e-07
-0.000178775
1.68532e-05
-2.98236e-07
-0.000195787
1.74389e-05
-4.26796e-07
-0.000213224
1.80093e-05
-5.73223e-07
-0.00023106
1.85764e-05
-7.40222e-07
-0.000249285
1.91564e-05
-9.30831e-07
-0.000267907
1.97703e-05
-1.14842e-06
-0.000286956
2.04451e-05
-1.39673e-06
-0.00030649
2.12142e-05
-1.67991e-06
-0.000326604
2.21166e-05
-2.00261e-06
-0.000347429
2.31952e-05
-2.37007e-06
-0.000369132
2.44911e-05
-2.78822e-06
-0.000391909
2.60415e-05
-3.26388e-06
2.79063e-05
-3.80592e-06
-0.00041601
-7.39138e-07
1.43349e-06
-2.84729e-06
4.09869e-06
-6.27428e-06
6.67725e-06
-1.09679e-05
9.16535e-06
-1.68733e-05
1.15581e-05
-2.3934e-05
1.38513e-05
-3.20917e-05
1.60416e-05
-4.12871e-05
1.81262e-05
-5.14603e-05
2.01033e-05
-6.25514e-05
2.19722e-05
-7.45009e-05
2.3733e-05
-8.725e-05
2.53868e-05
-0.000100741
2.69358e-05
-0.000114918
2.83831e-05
-0.000129727
2.97327e-05
-0.000145115
3.09897e-05
-0.000161033
3.21606e-05
-0.000177433
3.32536e-05
-0.000194274
3.428e-05
-0.000211519
3.52548e-05
-0.000229142
3.61988e-05
-0.000247126
3.71405e-05
-0.000265474
3.8118e-05
-0.00028421
3.91812e-05
-0.000303388
4.03921e-05
-0.000323096
4.18249e-05
-0.000343462
4.35614e-05
-0.00036465
4.56793e-05
-0.000386858
4.82487e-05
5.13822e-05
-0.000410334
-7.284e-07
2.16189e-06
-2.8069e-06
6.17719e-06
-6.18673e-06
1.00571e-05
-1.08169e-05
1.37955e-05
-1.66436e-05
1.73848e-05
-2.36109e-05
2.08187e-05
-3.16612e-05
2.40919e-05
-4.07355e-05
2.72005e-05
-5.0774e-05
3.01418e-05
-6.17165e-05
3.29147e-05
-7.35031e-05
3.55196e-05
-8.60745e-05
3.79581e-05
-9.9372e-05
4.02333e-05
-0.000113338
4.23494e-05
-0.000127917
4.43117e-05
-0.000143054
4.61269e-05
-0.000158697
4.78033e-05
-0.000174795
4.93518e-05
-0.000191302
5.07866e-05
-0.000208175
5.2128e-05
-0.00022538
5.3404e-05
-0.000242894
5.4654e-05
-0.000260708
5.59318e-05
-0.000278835
5.73089e-05
-0.000297319
5.88759e-05
-0.000316237
6.07428e-05
-0.000335708
6.30327e-05
-0.000355893
6.58643e-05
-0.000376989
6.93443e-05
7.36433e-05
-0.00039925
-7.12542e-07
2.87443e-06
-2.74722e-06
8.21187e-06
-6.05735e-06
1.33672e-05
-1.05936e-05
1.83318e-05
-1.63037e-05
2.30949e-05
-2.31328e-05
2.76478e-05
-3.1024e-05
3.19831e-05
-3.99187e-05
3.60951e-05
-4.97571e-05
3.99802e-05
-6.04789e-05
4.36366e-05
-7.20236e-05
4.70642e-05
-8.43306e-05
5.02651e-05
-9.734e-05
5.32427e-05
-0.000110993
5.60019e-05
-0.00012523
5.85488e-05
-0.000139994
6.08908e-05
-0.000155228
6.30374e-05
-0.000170876
6.50004e-05
-0.000186886
6.67964e-05
-0.000203207
6.84486e-05
-0.000219793
6.99904e-05
-0.000236609
7.14699e-05
-0.000253632
7.29544e-05
-0.000270858
7.45351e-05
-0.000288313
7.63307e-05
-0.000306057
7.84876e-05
-0.000324199
8.11743e-05
-0.000342892
8.45568e-05
-0.000362333
8.87856e-05
9.40978e-05
-0.000382787
-6.91843e-07
3.56627e-06
-2.66926e-06
1.01893e-05
-5.8882e-06
1.65861e-05
-1.03015e-05
2.27451e-05
-1.58588e-05
2.86522e-05
-2.25064e-05
3.42954e-05
-3.01884e-05
3.9665e-05
-3.88466e-05
4.47533e-05
-4.84213e-05
4.9555e-05
-5.88519e-05
5.40671e-05
-7.00767e-05
5.82891e-05
-8.2034e-05
6.22225e-05
-9.4662e-05
6.58707e-05
-0.000107899
6.92387e-05
-0.000121683
7.23325e-05
-0.000135951
7.51597e-05
-0.000150643
7.77293e-05
-0.000165696
8.00532e-05
-0.000181048
8.21479e-05
-0.000196637
8.40376e-05
-0.000212405
8.57584e-05
-0.000228299
8.7364e-05
-0.000244276
8.8932e-05
-0.000260312
9.05707e-05
-0.000276407
9.24253e-05
-0.000292599
9.46799e-05
-0.000308977
9.75527e-05
-0.000325687
0.000101266
-0.000342927
0.000106026
0.00011215
-0.000360979
-6.66665e-07
4.23294e-06
-2.57432e-06
1.20969e-05
-5.682e-06
1.96938e-05
-9.94512e-06
2.70082e-05
-1.53152e-05
3.40222e-05
-2.17402e-05
4.07204e-05
-2.91651e-05
4.70899e-05
-3.75322e-05
5.31204e-05
-4.67817e-05
5.88045e-05
-5.68523e-05
6.41377e-05
-6.76813e-05
6.9118e-05
-7.92051e-05
7.37463e-05
-9.13595e-05
7.80251e-05
-0.000104079
8.19587e-05
-0.000117299
8.55523e-05
-0.000130952
8.88122e-05
-0.000144969
9.17461e-05
-0.000159279
9.43639e-05
-0.000173812
9.66801e-05
-0.000188491
9.87171e-05
-0.000203243
0.00010051
-0.000217994
0.000102115
-0.000232676
0.000103615
-0.000247237
0.000105131
-0.000261645
0.000106833
-0.000275909
0.000108944
-0.000290091
0.000111735
-0.000304324
0.0001155
-0.00031881
0.000120512
0.000127192
-0.000333853
-6.37449e-07
4.87039e-06
-2.46399e-06
1.39235e-05
-5.44204e-06
2.26719e-05
-9.52977e-06
3.1096e-05
-1.46808e-05
3.91733e-05
-2.08447e-05
4.68843e-05
-2.79674e-05
5.42125e-05
-3.59914e-05
6.11445e-05
-4.48567e-05
6.76699e-05
-5.45011e-05
7.3782e-05
-6.48602e-05
7.94772e-05
-7.58684e-05
8.47545e-05
-8.74585e-05
8.96152e-05
-9.95616e-05
9.40618e-05
-0.000112107
9.80979e-05
-0.000125022
0.000101727
-0.000138231
0.000104955
-0.000151654
0.000107787
-0.000165206
0.000110232
-0.000178799
0.00011231
-0.000192338
0.000114049
-0.000205726
0.000115503
-0.000218867
0.000116755
-0.000231671
0.000117936
-0.000244071
0.000119233
-0.000256034
0.000120906
-0.000267588
0.000123289
-0.000278846
0.000126758
-0.000290012
0.000131677
0.000138602
-0.000301422
-6.04706e-07
5.47509e-06
-2.3401e-06
1.56589e-05
-5.17215e-06
2.55039e-05
-9.06181e-06
3.49856e-05
-1.39649e-05
4.40763e-05
-1.98323e-05
5.27517e-05
-2.66106e-05
6.09909e-05
-3.42427e-05
6.87765e-05
-4.26678e-05
7.6095e-05
-5.18223e-05
8.29365e-05
-6.16401e-05
8.92949e-05
-7.20526e-05
9.5167e-05
-8.29891e-05
0.000100552
-9.43763e-05
0.000105449
-0.000106138
0.00010986
-0.000118195
0.000113784
-0.000130462
0.000117222
-0.00014285
0.000120174
-0.00015526
0.000122643
-0.000167587
0.000124637
-0.000179716
0.000126178
-0.000191522
0.000127309
-0.000202876
0.000128109
-0.000213648
0.000128708
-0.000223722
0.000129307
-0.000233014
0.000130198
-0.000241507
0.000131782
-0.000249285
0.000134537
-0.00025655
0.000138942
0.000145721
-0.000263669
-5.69012e-07
6.04411e-06
-2.20474e-06
1.72946e-05
-4.87664e-06
2.81758e-05
-8.54836e-06
3.86573e-05
-1.31776e-05
4.87056e-05
-1.87165e-05
5.82906e-05
-2.51121e-05
6.73865e-05
-3.23069e-05
7.59713e-05
-4.02391e-05
8.40271e-05
-4.88433e-05
9.15407e-05
-5.80508e-05
9.85024e-05
-6.77897e-05
0.000104906
-7.7985e-05
0.000110747
-8.85582e-05
0.000116022
-9.94269e-05
0.000120728
-0.000110503
0.000124861
-0.000121694
0.000128413
-0.000132897
0.000131377
-0.000144001
0.000133746
-0.000154881
0.000135517
-0.000165399
0.000136696
-0.000175403
0.000137313
-0.000184723
0.00013743
-0.000193186
0.000137171
-0.000200617
0.000136738
-0.000206871
0.000136452
-0.000211867
0.000136778
-0.00021565
0.00013832
-0.000218411
0.000141703
0.000147844
-0.000220534
-5.30995e-07
6.5751e-06
-2.06015e-06
1.88237e-05
-4.5602e-06
3.06759e-05
-7.99716e-06
4.20943e-05
-1.23303e-05
5.30387e-05
-1.75125e-05
6.34728e-05
-2.34908e-05
7.33648e-05
-3.02067e-05
8.26872e-05
-3.75969e-05
9.14174e-05
-4.55937e-05
9.95375e-05
-5.4125e-05
0.000107034
-6.31147e-05
0.000113896
-7.24828e-05
0.000120115
-8.21445e-05
0.000125684
-9.20102e-05
0.000130594
-0.000101984
0.000134834
-0.00011196
0.00013839
-0.000121826
0.000141243
-0.000131453
0.000143373
-0.000140698
0.000144762
-0.000149399
0.000145397
-0.00015737
0.000145284
-0.000164406
0.000144465
-0.000170276
0.000143041
-0.000174746
0.000141208
-0.000177591
0.000139298
-0.000178653
0.000137839
-0.000177915
0.000137583
-0.000175547
0.000139334
0.000144199
-0.000171902
-4.91326e-07
7.06643e-06
-1.90875e-06
2.02412e-05
-4.22785e-06
3.2995e-05
-7.41649e-06
4.5283e-05
-1.14349e-05
5.70571e-05
-1.62362e-05
6.82741e-05
-2.17667e-05
7.88953e-05
-2.79664e-05
8.88869e-05
-3.47696e-05
9.82206e-05
-4.21053e-05
0.000106873
-4.98974e-05
0.000114826
-5.80646e-05
0.000122063
-6.65209e-05
0.000128571
-7.51743e-05
0.000134337
-8.39263e-05
0.000139346
-9.26708e-05
0.000143579
-0.000101292
0.00014701
-0.000109661
0.000149612
-0.000117633
0.000151346
-0.000125046
0.000152175
-0.00013171
0.000152061
-0.000137409
0.000150983
-0.000141893
0.000148949
-0.000144878
0.000146026
-0.000146056
0.000142386
-0.000145116
0.000138357
-0.000141794
0.000134518
-0.000135995
0.000131783
-0.000127867
0.000131207
0.00013394
-0.000117608
-4.507e-07
7.51713e-06
-1.75303e-06
2.15435e-05
-3.88478e-06
3.51267e-05
-6.81493e-06
4.82131e-05
-1.0504e-05
6.07462e-05
-1.49044e-05
7.26745e-05
-1.99609e-05
8.39518e-05
-2.56112e-05
9.45372e-05
-3.17864e-05
0.000104396
-3.84111e-05
0.000113498
-4.5404e-05
0.000121819
-5.26779e-05
0.000129337
-6.0139e-05
0.000136032
-6.76869e-05
0.000141885
-7.52132e-05
0.000146872
-8.26e-05
0.000150965
-8.97178e-05
0.000154128
-9.64226e-05
0.000156316
-0.000102552
0.000157475
-0.00010792
0.000157543
-0.000112312
0.000156453
-0.000115476
0.000154148
-0.00011712
0.000150593
-0.000116902
0.000145808
-0.000114436
0.00013992
-0.000109312
0.000133233
-0.000101142
0.000126348
-8.96942e-05
0.000120336
-7.51964e-05
0.000116709
0.000116329
-5.75855e-05
-4.09829e-07
7.92696e-06
-1.59555e-06
2.27292e-05
-3.53626e-06
3.70674e-05
-6.20119e-06
5.0878e-05
-9.55013e-06
6.40952e-05
-1.35339e-05
7.66583e-05
-1.80946e-05
8.85126e-05
-2.31667e-05
9.96093e-05
-2.86768e-05
0.000109906
-3.45441e-05
0.000119365
-4.06811e-05
0.000127956
-4.69926e-05
0.000135648
-5.33763e-05
0.000142416
-5.97213e-05
0.00014823
-6.59073e-05
0.000153058
-7.18029e-05
0.000156861
-7.72629e-05
0.000159588
-8.21255e-05
0.000161179
-8.62077e-05
0.000161558
-8.92997e-05
0.000160635
-9.11581e-05
0.000158312
-9.1497e-05
0.000154487
-8.99781e-05
0.000149074
-8.62018e-05
0.000142032
-7.97022e-05
0.000133421
-6.99597e-05
0.00012349
-5.64446e-05
0.000112833
-3.86822e-05
0.000102573
-1.65206e-05
9.45476e-05
9.26231e-05
7.18518e-06
-3.69417e-07
8.29637e-06
-1.43882e-06
2.37986e-05
-3.18753e-06
3.88161e-05
-5.58386e-06
5.32744e-05
-8.58574e-06
6.7097e-05
-1.21412e-05
8.02137e-05
-1.61887e-05
9.25601e-05
-2.06579e-05
0.000104078
-2.54697e-05
0.000114718
-3.05369e-05
0.000124432
-3.57637e-05
0.000133182
-4.10459e-05
0.000140931
-4.62703e-05
0.000147641
-5.13137e-05
0.000153274
-5.60416e-05
0.000157786
-6.03065e-05
0.000161126
-6.39448e-05
0.000163227
-6.67738e-05
0.000164008
-6.85867e-05
0.00016337
-6.9147e-05
0.000161195
-6.81799e-05
0.000157345
-6.53626e-05
0.000151669
-6.03117e-05
0.000144023
-5.25686e-05
0.000134289
-4.15875e-05
0.00012244
-2.67338e-05
0.000108637
-7.32278e-06
9.34216e-05
1.72683e-05
7.79821e-05
4.72968e-05
6.4519e-05
5.80009e-05
8.1919e-05
-3.30144e-07
8.62652e-06
-1.28526e-06
2.47538e-05
-2.84356e-06
4.03744e-05
-4.97113e-06
5.54019e-05
-7.6227e-06
6.97486e-05
-1.07421e-05
8.33331e-05
-1.42628e-05
9.60808e-05
-1.81084e-05
0.000107924
-2.21925e-05
0.000118802
-2.64196e-05
0.000128659
-3.06844e-05
0.000137447
-3.48713e-05
0.000145118
-3.88544e-05
0.000151624
-4.24955e-05
0.000156915
-4.56433e-05
0.000160934
-4.81306e-05
0.000163613
-4.97719e-05
0.000164868
-5.03598e-05
0.000164596
-4.96594e-05
0.00016267
-4.74028e-05
0.000158938
-4.32798e-05
0.000153222
-3.69275e-05
0.000145317
-2.7915e-05
0.00013501
-1.5725e-05
0.000122099
2.67159e-07
0.000106448
2.08067e-05
8.80972e-05
4.67528e-05
6.74755e-05
7.89459e-05
4.5789e-05
0.000117843
2.56217e-05
1.27483e-05
0.000163096
-2.92644e-07
8.91916e-06
-1.1371e-06
2.55982e-05
-2.50895e-06
4.17463e-05
-4.37053e-06
5.72635e-05
-6.67183e-06
7.20499e-05
-9.35102e-06
8.60123e-05
-1.23349e-05
9.90647e-05
-1.55393e-05
0.000111128
-1.88693e-05
0.000122132
-2.22189e-05
0.000132009
-2.54713e-05
0.000140699
-2.84975e-05
0.000148144
-3.11559e-05
0.000154282
-3.32909e-05
0.00015905
-3.47304e-05
0.000162374
-3.52841e-05
0.000164167
-3.474e-05
0.000164324
-3.28605e-05
0.000162716
-2.93773e-05
0.000159187
-2.39848e-05
0.000153546
-1.63315e-05
0.000145568
-6.00846e-06
0.000134994
7.46659e-06
0.000121535
2.46705e-05
0.000104895
4.6302e-05
8.48162e-05
7.3215e-05
6.11842e-05
0.000106433
3.42579e-05
0.000147051
5.17026e-06
0.000195914
-2.32407e-05
-4.4218e-05
0.00025288
-2.57481e-07
9.17664e-06
-9.9632e-07
2.63371e-05
-2.18772e-06
4.29377e-05
-3.78855e-06
5.88643e-05
-5.74238e-06
7.40037e-05
-7.98001e-06
8.82499e-05
-1.04199e-05
0.000101505
-1.29684e-05
0.000113677
-1.55197e-05
0.000124683
-1.79559e-05
0.000134445
-2.01459e-05
0.000142889
-2.19449e-05
0.000149943
-2.31929e-05
0.00015553
-2.37129e-05
0.00015957
-2.33085e-05
0.000161969
-2.17613e-05
0.00016262
-1.88274e-05
0.00016139
-1.42328e-05
0.000158122
-7.66856e-06
0.000152623
1.21641e-06
0.000144661
1.28235e-05
0.000133961
2.76158e-05
0.000120202
4.61339e-05
0.000103017
6.90177e-05
8.20111e-05
9.70386e-05
5.67953e-05
0.000131143
2.70794e-05
0.000172504
-7.10277e-06
0.000222481
-4.48061e-05
0.000282317
-8.30775e-05
-0.000114246
0.000352345
-2.25123e-07
9.40177e-06
-8.64511e-07
2.69764e-05
-1.88307e-06
4.39563e-05
-3.23033e-06
6.02116e-05
-4.84158e-06
7.5615e-05
-6.63837e-06
9.00467e-05
-8.52889e-06
0.000103395
-1.0408e-05
0.000115556
-1.21573e-05
0.000126432
-1.3644e-05
0.000135932
-1.47207e-05
0.000143966
-1.52236e-05
0.000150446
-1.49708e-05
0.000155277
-1.376e-05
0.000158359
-1.13659e-05
0.000159575
-7.53659e-06
0.00015879
-1.98975e-06
0.000155843
5.59222e-06
0.00015054
1.55678e-05
0.000142647
2.83428e-05
0.000131886
4.43793e-05
0.000117925
6.42053e-05
0.000100376
8.84299e-05
7.87926e-05
0.000117763
5.26778e-05
0.000153048
2.15102e-05
0.000195311
-1.51836e-05
0.00024584
-5.7632e-05
0.000306227
-0.000105193
0.000378119
-0.000154969
-0.00019874
0.000462613
-1.95916e-07
9.59768e-06
-7.42822e-07
2.75233e-05
-1.59723e-06
4.48107e-05
-2.69929e-06
6.13137e-05
-3.97399e-06
7.68897e-05
-5.33165e-06
9.14044e-05
-6.66814e-06
0.000104732
-7.86474e-06
0.000116753
-8.78771e-06
0.000127355
-9.28736e-06
0.000136432
-9.1967e-06
0.000143876
-8.32962e-06
0.000149579
-6.47851e-06
0.000153426
-3.41142e-06
0.000155292
1.13136e-06
0.000155032
7.44138e-06
0.00015248
1.58466e-05
0.000147438
2.67167e-05
0.00013967
4.0469e-05
0.000128895
5.75757e-05
0.000114779
7.85711e-05
9.69294e-05
0.000104061
7.48855e-05
0.000134737
4.81173e-05
0.000171388
1.60268e-05
0.000214932
-2.20346e-05
0.000266464
-6.67147e-05
0.000327344
-0.000118512
0.000399331
-0.00017718
0.000484416
-0.000240055
-0.000299082
0.000584758
-1.70059e-07
9.76774e-06
-6.31837e-07
2.79851e-05
-1.3312e-06
4.551e-05
-2.19675e-06
6.21792e-05
-3.14104e-06
7.7834e-05
-4.061e-06
9.23243e-05
-4.83792e-06
0.000105508
-5.3371e-06
0.000117252
-5.40702e-06
0.000127425
-4.87802e-06
0.000135903
-3.56036e-06
0.000142558
-1.24185e-06
0.00014726
2.31517e-06
0.000149869
7.37745e-06
0.00015023
1.4245e-05
0.000148165
2.32559e-05
0.000143469
3.47916e-05
0.000135902
4.92831e-05
0.000125178
6.72173e-05
0.000110961
8.91437e-05
9.28527e-05
0.000115682
7.03908e-05
0.000147531
4.3037e-05
0.000185474
1.01741e-05
0.000230395
-2.88939e-05
0.000283292
-7.49319e-05
0.000345316
-0.000128738
0.000417857
-0.000191054
0.000502748
-0.000262071
0.000602194
-0.000339501
-0.00041652
0.000719632
-1.47576e-07
9.91532e-06
-5.31497e-07
2.8369e-05
-1.0846e-06
4.60631e-05
-1.72164e-06
6.28162e-05
-2.3405e-06
7.84528e-05
-2.82237e-06
9.28062e-05
-3.03157e-06
0.000105718
-2.81483e-06
0.000117035
-2e-06
0.00012661
-3.94205e-07
0.000134297
2.21865e-06
0.000139945
6.08106e-06
0.000143398
1.14657e-05
0.000144484
1.86796e-05
0.000143016
2.80697e-05
0.000138775
4.00281e-05
0.000131511
5.49984e-05
0.000120932
7.34823e-05
0.000106694
9.60467e-05
8.83961e-05
0.00012333
6.55691e-05
0.00015605
3.76708e-05
0.000195008
4.07879e-06
0.000241096
-3.59131e-05
0.000295297
-8.30949e-05
0.000358696
-0.000138331
0.000432493
-0.000202535
0.000518064
-0.000276625
0.000617205
-0.000361211
0.000732139
-0.000454435
-0.000552033
0.000867653
-1.28299e-07
1.00436e-05
-4.41015e-07
2.86818e-05
-8.55469e-07
4.64776e-05
-1.27021e-06
6.3231e-05
-1.56601e-06
7.87486e-05
-1.60591e-06
9.28461e-05
-1.23464e-06
0.000105346
-2.77525e-07
0.000116078
1.46131e-06
0.000124872
4.20156e-06
0.000131557
8.18983e-06
0.000135957
1.37036e-05
0.000137884
2.10558e-05
0.000137132
3.06003e-05
0.000133471
4.27377e-05
0.000126637
5.79222e-05
0.000116327
7.66683e-05
0.000102186
9.95581e-05
8.38045e-05
0.000127248
6.07059e-05
0.000160477
3.23404e-05
0.000200068
-1.92064e-06
0.000246936
-4.27891e-05
0.000302084
-9.10606e-05
0.0003666
-0.000147611
0.00044165
-0.000213382
0.000528473
-0.000289358
0.000628387
-0.000376539
0.00074303
-0.000475854
0.000874434
-0.000585839
-0.000706151
0.00102855
-1.11847e-07
1.01555e-05
-3.58822e-07
2.89287e-05
-6.4018e-07
4.67589e-05
-8.35772e-07
6.34266e-05
-8.06813e-07
7.87197e-05
-3.95502e-07
9.24348e-05
5.75712e-07
0.000104375
2.30603e-06
0.000114348
5.01866e-06
0.000122159
8.96397e-06
0.000127611
1.44236e-05
0.000130497
2.17152e-05
0.000130592
3.1198e-05
0.000127649
4.32793e-05
0.00012139
5.84211e-05
0.000111495
7.71476e-05
9.76e-05
0.000100053
7.92805e-05
0.000127809
5.60489e-05
0.00016117
2.73448e-05
0.000200981
-7.47064e-06
0.000248178
-4.91182e-05
0.00030379
-9.84006e-05
0.000368927
-0.000156197
0.00044477
-0.000223454
0.000532552
-0.000301163
0.000633516
-0.000390322
0.000748887
-0.00049191
0.000880009
-0.000606976
0.00102856
-0.000734386
-0.000878727
0.00120113
-9.76176e-08
1.02531e-05
-2.82529e-07
2.91136e-05
-4.33336e-07
4.69097e-05
-4.08653e-07
6.34019e-05
-4.7413e-08
7.83584e-05
8.31428e-07
9.1556e-05
2.43108e-06
0.000102776
4.9786e-06
0.0001118
8.72822e-06
0.000118409
1.39654e-05
0.000122374
2.10119e-05
0.000123451
3.02311e-05
0.000121373
4.20352e-05
0.000115845
5.68917e-05
0.000106533
7.53318e-05
9.30553e-05
9.79579e-05
7.49739e-05
0.000125452
5.17867e-05
0.000158581
2.29197e-05
0.000198205
-1.22795e-05
0.000245279
-5.4544e-05
0.000300848
-0.000104688
0.000366046
-0.000163599
0.000442076
-0.000232227
0.000530183
-0.000311562
0.00063162
-0.0004026
0.000747588
-0.00050629
0.000879162
-0.000623484
0.00102725
-0.000755061
0.00119311
-0.000900248
-0.00106867
0.00138306
-8.47829e-08
1.03379e-05
-2.08929e-07
2.92378e-05
-2.27815e-07
4.69286e-05
2.39343e-08
6.31501e-05
7.31839e-07
7.76505e-05
2.10393e-06
9.01839e-05
4.37182e-06
0.000100508
7.79411e-06
0.000108378
1.26603e-05
0.000113543
1.92959e-05
0.000115739
2.80679e-05
0.000114679
3.93918e-05
0.000110049
5.37392e-05
0.000101498
7.16454e-05
8.86271e-05
9.37181e-05
7.09827e-05
0.000120645
4.80469e-05
0.000153202
1.92299e-05
0.000192257
-1.61359e-05
0.000238777
-5.87989e-05
0.00029382
-0.000109587
0.000358533
-0.000169401
0.000434133
-0.000239199
0.000521879
-0.000319974
0.000623033
-0.000412716
0.000738799
-0.000518366
0.00087025
-0.000637741
0.00101824
-0.000771472
0.00118307
-0.000919892
0.00136572
-0.0010829
-0.00127366
0.00157071
-7.23067e-08
1.04102e-05
-1.34011e-07
2.92995e-05
-1.45315e-08
4.68092e-05
4.77259e-07
6.26584e-05
1.55547e-06
7.65723e-05
3.45727e-06
8.82821e-05
6.44644e-06
9.75185e-05
1.08171e-05
0.000104007
1.68987e-05
0.000107462
2.50615e-05
0.000107576
3.57239e-05
0.000104016
4.93599e-05
9.64131e-05
6.65071e-05
8.43508e-05
8.77755e-05
6.73586e-05
0.000113856
4.49023e-05
0.000145527
1.63755e-05
0.000183663
-1.89056e-05
0.000229233
-6.17055e-05
0.000283302
-0.000112868
0.000347022
-0.000173308
0.000421618
-0.000243996
0.000508352
-0.000325933
0.000608487
-0.000420109
0.000723225
-0.000527455
0.000853629
-0.00064877
0.00100053
-0.000784639
0.00116444
-0.000935387
0.00134496
-0.00110041
0.001543
-0.00128094
-0.00148984
0.00175918
-5.89798e-08
1.04692e-05
-5.3226e-08
2.92937e-05
2.16003e-07
4.65399e-05
9.69572e-07
6.19048e-05
2.45153e-06
7.50904e-05
4.93202e-06
8.58016e-05
8.7107e-06
9.37398e-05
1.41214e-05
9.85964e-05
2.15382e-05
0.000100045
3.1382e-05
9.7732e-05
4.41282e-05
9.127e-05
6.03155e-05
8.02258e-05
8.05543e-05
6.4112e-05
0.000105535
4.23776e-05
0.000136037
1.44002e-05
0.000172933
-2.05205e-05
0.000217193
-6.31653e-05
0.000269881
-0.000114394
0.00033215
-0.000175136
0.000405218
-0.000246376
0.000490347
-0.000329125
0.000588792
-0.000424378
0.000701745
-0.000533062
0.000830253
-0.000655962
0.000975122
-0.000793638
0.0011368
-0.000946318
0.00131533
-0.00111392
0.00150954
-0.00129462
0.00172052
-0.00149192
-0.00171175
0.00194242
-4.33957e-08
1.05125e-05
3.8805e-08
2.92115e-05
4.76128e-07
4.61026e-05
1.52105e-06
6.08599e-05
3.4513e-06
7.31601e-05
6.57319e-06
8.26797e-05
1.12261e-05
8.90869e-05
1.77881e-05
9.20344e-05
2.66828e-05
9.11501e-05
3.83871e-05
8.60277e-05
5.34396e-05
7.62175e-05
7.24495e-05
6.12159e-05
9.61055e-05
4.0456e-05
0.000125183
1.32998e-05
0.000160552
-2.09686e-05
0.000203177
-6.31455e-05
0.000254118
-0.000114106
0.000314519
-0.000174795
0.000385592
-0.00024621
0.000468587
-0.000329371
0.000564745
-0.000425283
0.000675239
-0.000534871
0.000801094
-0.000658917
0.000943093
-0.000797962
0.00110166
-0.000952209
0.00127675
-0.00112141
0.00146774
-0.00130491
0.00167281
-0.00149968
0.00189285
-0.00171195
-0.00193246
0.00211355
-2.40592e-08
1.05366e-05
1.47663e-07
2.90398e-05
7.77884e-07
4.54724e-05
2.1533e-06
5.94844e-05
4.58825e-06
7.07252e-05
8.42875e-06
7.88392e-05
1.40579e-05
8.34578e-05
2.19026e-05
8.41898e-05
3.2441e-05
8.06116e-05
4.62115e-05
7.22573e-05
6.38211e-05
5.86079e-05
8.59547e-05
3.90823e-05
0.000113383
1.30279e-05
0.000146968
-2.02855e-05
0.000187668
-6.16684e-05
0.000236533
-0.00011201
0.000294696
-0.000172269
0.000363357
-0.000243456
0.000443749
-0.000326602
0.000537095
-0.000422716
0.000644542
-0.00053273
0.000767089
-0.000657418
0.000905487
-0.000797315
0.00106013
-0.000952609
0.00123097
-0.00112304
0.00141736
-0.0013078
0.00161796
-0.0015055
0.00183061
-0.00171233
0.00205416
-0.00193551
-0.0021436
0.0022653
6.06732e-10
1.0536e-05
2.79337e-07
2.87611e-05
1.13418e-06
4.46175e-05
2.88874e-06
5.77299e-05
5.89695e-06
6.7717e-05
1.05481e-05
7.4188e-05
1.7273e-05
7.67328e-05
2.65519e-05
7.49109e-05
3.89225e-05
6.8241e-05
5.49893e-05
5.61905e-05
7.54323e-05
3.8165e-05
0.000101015
1.34993e-05
0.000132592
-1.85491e-05
0.00017111
-5.88034e-05
0.000217607
-0.000108166
0.000273204
-0.000167607
0.000339083
-0.000238149
0.00041646
-0.000320833
0.000506535
-0.000416677
0.000610432
-0.000526613
0.000729117
-0.000651415
0.000863305
-0.000791607
0.00101336
-0.000947366
0.00117917
-0.00111842
0.0013601
-0.00130397
0.00155491
-0.00150261
0.00176164
-0.00171223
0.00197849
-0.00192918
0.00220005
-0.00215707
-0.00233668
0.00239313
3.21727e-08
1.05038e-05
4.39697e-07
2.83536e-05
1.55789e-06
4.34993e-05
3.74976e-06
5.5538e-05
7.41185e-06
6.40549e-05
1.29801e-05
6.86198e-05
2.09373e-05
6.87757e-05
3.18209e-05
6.40273e-05
4.62327e-05
5.38292e-05
6.48472e-05
3.7576e-05
8.84204e-05
1.45918e-05
0.000117796
-1.58763e-05
0.000153909
-5.46618e-05
0.000197783
-0.000102678
0.000250523
-0.000160906
0.000313295
-0.000230379
0.000387295
-0.000312148
0.000473702
-0.00040724
0.000573616
-0.000516591
0.000687975
-0.000640973
0.000817463
-0.000780903
0.000962401
-0.000936545
0.00112264
-0.00110761
0.0012975
-0.00129328
0.00148565
-0.00149213
0.00168524
-0.00170219
0.00189376
-0.00192076
0.00210969
-0.00214511
0.0023274
-0.00237478
-0.00258053
0.00257125
7.21731e-08
1.04317e-05
6.34501e-07
2.77912e-05
2.06152e-06
4.20723e-05
4.75802e-06
5.28415e-05
9.16606e-06
5.96468e-05
1.57717e-05
6.20142e-05
2.51129e-05
5.94345e-05
3.77887e-05
5.13514e-05
5.44681e-05
3.71499e-05
7.58983e-05
1.61458e-05
0.000102912
-1.24218e-05
0.00013643
-4.93944e-05
0.000177462
-9.56934e-05
0.000227094
-0.00015231
0.000286476
-0.000220287
0.000356784
-0.000300687
0.000439178
-0.000394543
0.000534739
-0.000502801
0.000644383
-0.000626235
0.000768771
-0.000765361
0.000908198
-0.00092033
0.00106249
-0.00109083
0.0012309
-0.00127603
0.0014121
-0.00147447
0.00160409
-0.00168412
0.00180439
-0.00190249
0.00201013
-0.0021265
0.00221884
-0.00235382
0.00242582
-0.00258175
-0.00279701
0.00264229
1.22039e-07
1.03096e-05
8.69122e-07
2.70442e-05
2.65671e-06
4.02847e-05
5.93364e-06
4.95646e-05
1.11901e-05
5.43903e-05
1.89653e-05
5.42389e-05
2.98559e-05
4.85439e-05
4.45252e-05
3.66822e-05
6.37115e-05
1.79636e-05
8.82354e-05
-8.37814e-06
0.000119004
-4.31901e-05
0.000157009
-8.73997e-05
0.000203321
-0.000142005
0.00025907
-0.000208059
0.000325415
-0.000286633
0.000403501
-0.000378772
0.00049439
-0.000485433
0.00059899
-0.0006074
0.000717946
-0.000745192
0.000851544
-0.000898959
0.000999598
-0.00106838
0.00116136
-0.00125259
0.00133545
-0.00145012
0.00151986
-0.00165888
0.00171204
-0.0018763
0.00190899
-0.00209944
0.00210754
-0.00232505
0.00230465
-0.00255093
0.00249664
-0.00277374
-0.00298754
0.00268718
1.83065e-07
1.01265e-05
1.1484e-06
2.60788e-05
3.35393e-06
3.80792e-05
7.29451e-06
4.5624e-05
1.3511e-05
4.81739e-05
2.25982e-05
4.51517e-05
3.5214e-05
3.59281e-05
5.20876e-05
1.98086e-05
7.40273e-05
-3.97615e-06
0.000101925
-3.62758e-05
0.000136756
-7.80211e-05
0.000179572
-0.000130216
0.000231486
-0.000193919
0.000293639
-0.000270213
0.000367164
-0.000360157
0.000453113
-0.000464721
0.000552387
-0.000584707
0.000665634
-0.000720647
0.000793144
-0.000872702
0.000934739
-0.00104055
0.00108968
-0.00122333
0.00125661
-0.00141952
0.00143352
-0.00162703
0.00161785
-0.00184321
0.00180657
-0.00206502
0.00199644
-0.00228931
0.00218425
-0.00251287
0.002367
-0.00273367
0.00254175
-0.00294849
-0.00315607
0.00271028
2.56371e-07
9.87018e-06
1.47653e-06
2.48587e-05
4.16214e-06
3.53936e-05
8.85586e-06
4.09303e-05
1.61511e-05
4.08787e-05
2.67004e-05
3.46024e-05
4.12241e-05
2.14044e-05
6.05179e-05
5.14765e-07
8.54581e-05
-2.89164e-05
0.000117003
-6.78203e-05
0.000156185
-0.000117203
0.000204099
-0.00017813
0.000261874
-0.000251693
0.000330627
-0.000338966
0.000411408
-0.000440938
0.000505121
-0.000558434
0.000612424
-0.00069201
0.000733629
-0.000841851
0.000868586
-0.00100766
0.00101659
-0.00118856
0.00117632
-0.00138306
0.00134582
-0.00158902
0.00152254
-0.00180375
0.00170348
-0.00202415
0.00188542
-0.00224695
0.0020651
-0.00246899
0.00223961
-0.00268738
0.0024064
-0.00290046
0.0025635
-0.00310559
-0.0033045
0.00271193
3.42891e-07
9.52729e-06
1.85695e-06
2.33446e-05
5.08864e-06
3.21619e-05
1.06297e-05
3.53892e-05
1.91277e-05
3.23807e-05
3.12939e-05
2.24362e-05
4.79113e-05
4.78701e-06
6.98404e-05
-2.14144e-05
9.80212e-05
-5.70972e-05
0.000133468
-0.000103268
0.000177259
-0.000160994
0.000230505
-0.000231377
0.000294318
-0.000315506
0.000369745
-0.000414394
0.0004577
-0.000528893
0.000558863
-0.000659596
0.000673579
-0.000806726
0.000801746
-0.000970018
0.000942716
-0.00114863
0.00109523
-0.00134107
0.00125738
-0.00154521
0.0014267
-0.00175833
0.00160023
-0.00197728
0.00177477
-0.0021987
0.00194712
-0.0024193
0.00211433
-0.0026362
0.00227399
-0.00284705
0.00242431
-0.00305078
0.00256432
-0.0032456
-0.00343514
0.00269496
4.43361e-07
9.08393e-06
2.29235e-06
2.14956e-05
6.13892e-06
2.83154e-05
1.26249e-05
2.89032e-05
2.24525e-05
2.25531e-05
3.63919e-05
8.49688e-06
5.52873e-05
-1.41084e-05
8.00603e-05
-4.61874e-05
0.000111706
-8.87433e-05
0.000151284
-0.000142845
0.000199893
-0.000209602
0.000258635
-0.000290119
0.00032856
-0.000385432
0.000410597
-0.00049643
0.000505456
-0.000623752
0.000613529
-0.000767669
0.000734774
-0.000927971
0.000868621
-0.00110386
0.00101389
-0.0012939
0.00116877
-0.00149595
0.00133086
-0.0017073
0.00149727
-0.00192475
0.00166486
-0.00214487
0.00183044
-0.00236428
0.00199109
-0.00257995
0.00214439
-0.0027895
0.00228864
-0.0029913
0.00242286
-0.00318501
0.00254702
-0.00336976
-0.00355033
0.00266221
5.58333e-07
8.52559e-06
2.78462e-06
1.92693e-05
7.31664e-06
2.37833e-05
1.48466e-05
2.13732e-05
2.61313e-05
1.12684e-05
4.19983e-05
-7.37015e-06
6.335e-05
-3.54602e-05
9.11621e-05
-7.39994e-05
0.000126475
-0.000124056
0.000170372
-0.000186743
0.00022395
-0.00026318
0.000288263
-0.000354432
0.000364257
-0.000461426
0.00045268
-0.000584853
0.000553978
-0.00072505
0.000668188
-0.000881878
0.000794828
-0.00105461
0.000932823
-0.00124186
0.00108047
-0.00144154
0.00123546
-0.00165094
0.001395
-0.00186684
0.00155599
-0.00208574
0.00171528
-0.00230416
0.00186995
-0.00251895
0.00201756
-0.00272756
0.00215636
-0.0029283
0.00228544
-0.00312038
0.00240461
-0.00330418
0.00251459
-0.00347974
-0.00365238
0.00261664
6.88184e-07
7.83741e-06
3.33491e-06
1.66226e-05
8.62366e-06
1.84946e-05
1.72966e-05
1.27003e-05
3.01637e-05
-1.59874e-06
4.81075e-05
-2.53139e-05
7.20825e-05
-5.94352e-05
0.000103109
-0.000105026
0.000142257
-0.000163203
0.000190613
-0.000235099
0.000249238
-0.000321805
0.000319097
-0.000424291
0.00040098
-0.000543309
0.000495397
-0.00067927
0.00060247
-0.000832123
0.000721824
-0.00100123
0.000852504
-0.00118529
0.000992931
-0.00138229
0.00114092
-0.00158953
0.00129376
-0.00180379
0.00144845
-0.00202152
0.00160184
-0.00223913
0.00175101
-0.00245333
0.00189349
-0.00266142
0.00202745
-0.00286153
0.00215191
-0.00305276
0.00226667
-0.00323514
0.00237225
-0.00340975
0.00246988
-0.00357737
-0.00374345
0.00256095
8.33132e-07
7.00428e-06
3.94368e-06
1.3512e-05
1.006e-05
1.23782e-05
1.9973e-05
2.78727e-06
3.45435e-05
-1.61693e-05
5.47039e-05
-4.54742e-05
8.14531e-05
-8.61845e-05
0.000115843
-0.000139416
0.000158954
-0.000206313
0.000211847
-0.000287993
0.000275512
-0.000385469
0.00035078
-0.000499559
0.000438229
-0.000630758
0.000538076
-0.000779117
0.000650065
-0.000944112
0.000773377
-0.00112454
0.000906574
-0.00131849
0.00104761
-0.00152332
0.00119389
-0.00173582