/*--------------------------------*- C++ -*----------------------------------*\
  =========                 |
  \\      /  F ield         | OpenFOAM: The Open Source CFD Toolbox
   \\    /   O peration     | Website:  https://openfoam.org
    \\  /    A nd           | Version:  7
     \\/     M anipulation  |
\*---------------------------------------------------------------------------*/
FoamFile
{
    version     2.0;
    format      ascii;
    class       surfaceScalarField;
    location    "45";
    object      phi;
}
// * * * * * * * * * * * * * * * * * * * * * * * * * * * * * * * * * * * * * //

dimensions      [0 3 -1 0 0 0 0];

internalField   nonuniform List<scalar> 
649
(
0.00141349
-1.72343e-05
1.3799e-10
0.00143034
-1.68441e-05
1.38047e-10
0.0014468
-1.64631e-05
1.37302e-10
-1.60912e-05
1.35739e-10
0.00141547
0.00143227
-3.36432e-05
0.00144869
-3.28828e-05
-3.21404e-05
0.00143612
-5.03529e-05
0.00145246
-4.92165e-05
-4.81069e-05
0.00144184
-6.69304e-05
0.00145805
-6.54228e-05
-6.39507e-05
0.00144936
-8.33346e-05
0.0014654
-8.14622e-05
-7.9634e-05
0.0014586
-9.9527e-05
0.00147443
-9.72978e-05
-9.5121e-05
0.00146943
-0.000115472
0.00148503
-0.000112896
-0.000110379
0.00148174
-0.000131139
0.00149707
-0.000128225
-0.00012538
0.00149537
-0.0001465
0.00151041
-0.000143261
-0.000140098
0.00151017
-0.000161532
0.00152489
-0.00015798
-0.000154512
0.00152597
-0.000176216
0.00154035
-0.000172366
-0.000168606
0.00154256
-0.000190541
0.0015566
-0.000186407
-0.000182369
0.00155976
-0.000204499
0.00157345
-0.000200096
-0.000195795
0.00157736
-0.000218088
0.0015907
-0.000213432
-0.000208883
0.00159516
-0.000231312
0.00160815
-0.000226419
-0.000221637
0.00161293
-0.00024418
0.00162558
-0.000239066
-0.000234068
0.00163047
0.0016428
-0.000251389
0.00165492
-0.000246191
-0.00024111
0.00165959
-0.000263408
0.00167142
-0.000258025
-0.000252763
0.00167575
-0.000275148
0.00168732
-0.000269596
-0.000264168
0.00169108
-0.00028664
0.00170241
-0.000280935
-0.000275356
0.00170538
-0.000297918
0.00171652
-0.000292074
-0.000286358
0.00171849
-0.000309021
0.00172946
-0.000303053
-0.000297215
0.0017302
-0.000319993
0.00174106
-0.000313914
-0.000307967
0.00174039
-0.000330878
0.00175118
-0.000324702
-0.000318658
0.00577742
-0.00034598
0.00579237
-0.000339651
-0.000333452
0.00611942
-0.000356476
0.00612986
-0.000350089
-0.000343829
0.00646599
-0.000362479
0.00647203
-0.000356128
-0.000349896
0.00681106
-0.000364216
0.00681292
-0.000357986
-0.000351867
0.00714898
-0.000362016
0.00714698
-0.000355985
-0.000350052
0.0074747
-0.000356292
0.00746924
-0.000350524
-0.00034484
0.00778389
-0.000347521
0.00777543
-0.000342066
-0.00033668
0.00807302
-0.000336216
0.00806206
-0.00033111
-0.000326057
0.00833941
-0.000322908
0.00832648
-0.00031817
-0.000313471
0.00858129
-0.000308115
0.00856687
-0.000303755
-0.000299418
0.0087977
-0.000292331
0.00878228
-0.000288342
-0.000284364
0.00898847
-0.000275999
0.0089725
-0.000272368
-0.000268735
0.00915415
-0.000259507
0.00913799
-0.000256212
-0.000252905
0.00929583
-0.000243176
0.00927981
-0.00024019
-0.000237183
0.00941507
-0.000227256
0.00939944
-0.000224551
-0.000221818
0.00951376
-0.000211935
0.00949869
-0.000209482
-0.000206994
0.00959396
-0.000197334
0.00957958
-0.000195105
-0.000192836
0.00965785
-0.000183523
0.00964424
-0.000181492
-0.000179419
0.00970759
-0.000170527
0.00969477
-0.000168672
-0.000166771
0.00974528
-0.000158333
0.00973324
-0.000156634
-0.000154887
0.00977286
-0.000146904
0.00976157
-0.000145344
-0.000143736
0.00979212
-0.000136183
0.00978152
-0.00013475
-0.000133269
0.00980463
-0.000126106
0.00979467
-0.000124789
-0.000123423
0.0098118
-0.000116599
0.0098024
-0.00011539
-0.000114132
0.0098148
-0.000107594
0.0098059
-0.000106485
-0.000105329
0.00981466
-9.90211e-05
0.00980618
-9.8008e-05
-9.69481e-05
0.00981221
-9.08186e-05
0.0098041
-8.98963e-05
-8.89286e-05
0.00980813
-8.29298e-05
0.00980033
-8.20944e-05
-8.12153e-05
0.00980299
-7.53052e-05
0.00979545
-7.45531e-05
-7.37595e-05
0.00979725
-6.79015e-05
0.00978992
-6.72295e-05
-6.65186e-05
0.00979125
-6.06819e-05
0.00978411
-6.00871e-05
-5.94558e-05
0.00978528
-5.36147e-05
0.00977829
-5.3094e-05
-5.25405e-05
0.00977957
-4.66731e-05
0.0097727
-4.62241e-05
0.0097659
-4.57456e-05
-4.5241e-05
0.00977428
0.00976751
-3.94544e-05
0.00976081
-3.90487e-05
-3.86203e-05
0.00976285
-3.27654e-05
0.00975624
-3.24307e-05
-3.20766e-05
0.00975884
-2.61404e-05
0.00975229
-2.58748e-05
-2.55935e-05
0.00975556
-1.95642e-05
0.00974905
-1.93665e-05
-1.91566e-05
0.00975304
-1.30236e-05
0.00974657
-1.28923e-05
-1.27531e-05
0.00975135
-6.50622e-06
0.00974489
-6.44054e-06
-6.3712e-06
0.00975049
0.00974405
-0.000345979
0.00577742
0.000330878
-0.000356476
0.00611942
-0.000362479
0.00646599
-0.000364216
0.00681106
-0.000362016
0.00714898
-0.000356292
0.0074747
-0.000347521
0.00778389
-0.000336216
0.00807302
-0.000322907
0.00833941
-0.000308115
0.00858129
-0.00029233
0.0087977
-0.000275999
0.00898847
-0.000259507
0.00915415
-0.000243175
0.00929583
-0.000227256
0.00941507
-0.000211935
0.00951376
-0.000197334
0.00959396
-0.000183523
0.00965785
-0.000170527
0.00970759
-0.000158333
0.00974528
-0.000146904
0.00977286
-0.000136183
0.00979212
-0.000126106
0.00980463
-0.000116599
0.0098118
-0.000107594
0.0098148
-9.90211e-05
0.00981466
-9.08186e-05
0.00981221
-8.29298e-05
0.00980813
-7.53052e-05
0.00980299
-6.79015e-05
0.00979725
-6.0682e-05
0.00979125
-5.36147e-05
0.00978528
-4.66731e-05
0.00977957
-3.98343e-05
0.00977428
-3.30784e-05
0.00976954
-2.63883e-05
0.00976547
-1.97489e-05
0.00976213
-1.31459e-05
0.00975958
-6.56693e-06
0.00975786
0.009757
-0.00033965
0.00579237
0.000324702
-0.000350089
0.00612986
-0.000356128
0.00647203
-0.000357986
0.00681292
-0.000355985
0.00714698
-0.000350524
0.00746924
-0.000342066
0.00777543
-0.00033111
0.00806206
-0.00031817
0.00832648
-0.000303754
0.00856687
-0.000288342
0.00878228
-0.000272368
0.0089725
-0.000256212
0.00913799
-0.00024019
0.00927981
-0.000224551
0.00939944
-0.000209482
0.00949869
-0.000195105
0.00957958
-0.000181492
0.00964424
-0.000168671
0.00969477
-0.000156634
0.00973324
-0.000145344
0.00976157
-0.00013475
0.00978152
-0.000124789
0.00979467
-0.00011539
0.0098024
-0.000106485
0.0098059
-9.8008e-05
0.00980618
-8.98963e-05
0.0098041
-8.20944e-05
0.00980033
-7.45531e-05
0.00979545
-6.72295e-05
0.00978992
-6.00868e-05
0.00978411
-5.3094e-05
0.00977829
-4.62242e-05
0.0097727
-3.94544e-05
0.00976751
-3.27654e-05
0.00976285
-2.61404e-05
0.00975884
-1.95642e-05
0.00975556
-1.30236e-05
0.00975304
-6.5061e-06
0.00975135
0.00975049
-0.000333452
0.000318658
-0.000343829
-0.000349896
-0.000351867
-0.000350051
-0.00034484
-0.000336679
-0.000326056
-0.000313471
-0.000299418
-0.000284364
-0.000268735
-0.000252905
-0.000237183
-0.000221818
-0.000206994
-0.000192836
-0.000179419
-0.000166771
-0.000154887
-0.000143736
-0.000133269
-0.000123423
-0.000114132
-0.000105329
-9.69481e-05
-8.89286e-05
-8.12153e-05
-7.37595e-05
-6.65186e-05
-5.9456e-05
-5.25405e-05
-4.57454e-05
-3.90487e-05
-3.24307e-05
-2.58748e-05
-1.93664e-05
-1.28923e-05
-6.44077e-06
0.00174039
0.000319993
0.00175118
0.000313914
0.000307967
0.0017302
0.000309021
0.00174106
0.000303053
0.000297215
0.00171849
0.000297918
0.00172946
0.000292074
0.000286358
0.00170538
0.00028664
0.00171652
0.000280934
0.000275355
0.00169108
0.000275148
0.00170241
0.000269596
0.000264168
0.00167575
0.000263408
0.00168732
0.000258025
0.000252763
0.00165959
0.000251389
0.00167142
0.000246191
0.00024111
0.00163047
0.000244179
0.0016428
0.000239066
0.00165492
0.000234068
0.00161293
0.000231311
0.00162558
0.000226419
0.000221637
0.00159516
0.000218088
0.00160815
0.000213432
0.000208883
0.00157736
0.000204499
0.0015907
0.000200096
0.000195795
0.00155976
0.000190541
0.00157345
0.000186407
0.000182369
0.00154256
0.000176216
0.0015566
0.000172366
0.000168606
0.00152597
0.000161531
0.00154035
0.00015798
0.000154511
0.00151017
0.0001465
0.00152489
0.000143261
0.000140097
0.00149537
0.000131139
0.00151041
0.000128225
0.00012538
0.00148174
0.000115472
0.00149707
0.000112895
0.000110379
0.00146943
9.95267e-05
0.00148503
9.72975e-05
9.51207e-05
0.0014586
8.33343e-05
0.00147443
8.14619e-05
7.96337e-05
0.00144936
6.69301e-05
0.0014654
6.54225e-05
6.39505e-05
0.00144184
5.03526e-05
0.00145805
4.92162e-05
4.81066e-05
0.00143612
3.36429e-05
0.00145246
3.28825e-05
3.21402e-05
0.00141547
1.72341e-05
0.00143227
1.68439e-05
0.00144869
1.64629e-05
1.60909e-05
0.00141349
0.00143034
0.0014468
)
;

boundaryField
{
    inlet
    {
        type            calculated;
        value           nonuniform 0();
    }
    outlet
    {
        type            calculated;
        value           nonuniform 0();
    }
    cylinder
    {
        type            calculated;
        value           nonuniform 0();
    }
    top
    {
        type            symmetryPlane;
        value           uniform 0;
    }
    bottom
    {
        type            symmetryPlane;
        value           uniform 0;
    }
    defaultFaces
    {
        type            empty;
        value           nonuniform 0();
    }
    procBoundary44to43
    {
        type            processor;
        value           nonuniform List<scalar> 
133
(
-0.00139626
-0.00139829
-3.44219e-05
-0.00141941
-0.00142527
-0.00143296
-0.0014424
-0.00145349
-0.00146607
-0.00148001
-0.00149514
-0.00151128
-0.00152824
-0.0015458
-0.00156378
-0.00158194
-0.00160007
-0.00161795
-0.000256707
-0.00164757
-0.00166401
-0.00167958
-0.00169411
-0.00170738
-0.00171923
-0.00172951
-0.00576232
-0.00610892
-0.00645999
-0.00680932
-0.00715118
-0.00748043
-0.00779266
-0.00808432
-0.00835272
-0.00859608
-0.00881348
-0.0090048
-0.00917064
-0.00931216
-0.00943099
-0.00952908
-0.00960856
-0.00967166
-0.00972059
-0.00975747
-0.00978429
-0.00980284
-0.00981471
-0.0098213
-0.00982381
-0.00982323
-0.00982041
-0.00981602
-0.00981062
-0.00980465
-0.00979847
-0.00979235
-0.00978651
-0.00978111
-3.98343e-05
-0.00976954
-0.00976547
-0.00976213
-0.00975958
-0.00975786
-0.009757
-0.00576232
-0.00610892
-0.00645999
-0.00680932
-0.00715118
-0.00748043
-0.00779266
-0.00808432
-0.00835272
-0.00859608
-0.00881348
-0.0090048
-0.00917064
-0.00931216
-0.00943099
-0.00952908
-0.00960856
-0.00967166
-0.00972059
-0.00975747
-0.00978429
-0.00980284
-0.00981471
-0.0098213
-0.00982381
-0.00982323
-0.00982041
-0.00981602
-0.00981062
-0.00980465
-0.00979847
-0.00979235
-0.00978651
-0.00978111
-0.0097763
-0.00977216
-0.00976877
-0.00976619
-0.00976444
-0.00976357
-0.00172951
-0.00171923
-0.00170738
-0.00169411
-0.00167958
-0.00166401
-0.00164757
-0.000256707
-0.00161795
-0.00160007
-0.00158194
-0.00156378
-0.0015458
-0.00152824
-0.00151128
-0.00149514
-0.00148001
-0.00146607
-0.00145349
-0.0014424
-0.00143296
-0.00142527
-0.00141941
-3.44216e-05
-0.00139829
-0.00139626
)
;
    }
    procBoundary44to45
    {
        type            processor;
        value           nonuniform List<scalar> 
131
(
0.00146289
0.00146474
0.00146842
0.00147389
0.00148109
0.00148992
0.00150029
0.00151207
0.00152513
0.00153931
0.00155445
0.00157036
0.00158688
0.00160379
0.0016209
0.00163801
0.000229184
0.00166685
0.00168307
0.00169872
0.0017136
0.00172753
0.00174032
0.00175181
0.00176187
0.00580717
0.00614024
0.00647809
0.00681489
0.00714516
0.00746403
0.00776727
0.00805144
0.00831389
0.00855282
0.00876723
0.00895687
0.00912216
0.00926409
0.00938407
0.00948386
0.00956542
0.00963082
0.00968212
0.00972136
0.00975042
0.00977105
0.00978482
0.00979311
0.0097971
0.0097978
0.00979608
0.00979262
0.009788
0.00978268
0.00977704
0.00977137
5.19579e-05
0.00975918
0.00975419
0.00974969
0.00974581
0.00974261
0.00974016
0.00973851
0.00973768
0.00580717
0.00614024
0.00647809
0.00681489
0.00714516
0.00746403
0.00776727
0.00805144
0.00831389
0.00855282
0.00876723
0.00895687
0.00912216
0.00926409
0.00938407
0.00948386
0.00956542
0.00963082
0.00968212
0.00972136
0.00975042
0.00977105
0.00978482
0.00979311
0.0097971
0.0097978
0.00979608
0.00979262
0.009788
0.00978268
0.00977704
0.00977137
0.0097659
0.00976081
0.00975624
0.00975229
0.00974905
0.00974657
0.00974489
0.00974405
0.00176187
0.00175181
0.00174032
0.00172753
0.0017136
0.00169872
0.00168307
0.00166685
0.000229184
0.00163801
0.0016209
0.00160379
0.00158688
0.00157036
0.00155445
0.00153931
0.00152513
0.00151207
0.00150029
0.00148992
0.00148109
0.00147389
0.00146842
0.00146474
0.00146289
)
;
    }
}


// ************************************************************************* //
