/*--------------------------------*- C++ -*----------------------------------*\
  =========                 |
  \\      /  F ield         | OpenFOAM: The Open Source CFD Toolbox
   \\    /   O peration     | Website:  https://openfoam.org
    \\  /    A nd           | Version:  7
     \\/     M anipulation  |
\*---------------------------------------------------------------------------*/
FoamFile
{
    version     2.0;
    format      ascii;
    class       volScalarField;
    location    "65";
    object      p;
}
// * * * * * * * * * * * * * * * * * * * * * * * * * * * * * * * * * * * * * //

dimensions      [0 2 -2 0 0 0 0];

internalField   nonuniform List<scalar> 
183
(
-0.0649167
-0.0655558
-0.0645737
-0.0637172
-0.0641152
-0.0617932
-0.0635489
-0.0597995
-0.0628828
-0.0577516
-0.0621251
-0.0556647
-0.0612842
-0.0535528
-0.0576896
-0.0603687
-0.0514297
-0.054839
-0.0593869
-0.0493081
-0.052
-0.0583471
-0.0471997
-0.0491859
-0.057257
-0.0451154
-0.0464086
-0.0561244
-0.0430653
-0.0436791
-0.0549563
-0.0410582
-0.0410072
-0.0391019
-0.0384021
-0.0372034
-0.0358716
-0.0353683
-0.0334229
-0.0336014
-0.031063
-0.0319059
-0.0287962
-0.0302835
-0.0266134
-0.0287373
-0.0245067
-0.0272933
-0.0226462
-0.0233931
-0.0188116
-0.0143598
-0.0109336
-0.00764503
-0.00648496
-0.00449303
-0.00460316
-0.00312089
-0.00340969
-0.00200731
-0.00163702
3.57418e-05
0.00149326
0.00333131
0.0056446
0.00749708
0.0100865
0.0117522
0.014108
0.01539
0.0173215
0.018251
0.0197175
0.0204111
0.0214695
0.0219919
0.0227358
0.0231281
0.0236349
0.0239335
0.0242553
0.0244964
0.0246696
0.024881
0.0249381
0.0251317
0.0251059
0.0252856
0.0252038
0.0253459
0.0252498
-0.056922
-0.0437507
-0.0293435
-0.013953
0.00156946
0.0151433
0.0254034
0.031635
0.0342434
0.0343164
0.0330739
0.0314257
0.0298367
0.0284714
0.0273471
0.0264444
0.0257366
0.0251993
0.024813
0.0245633
0.0244424
-0.0766317
-0.0648896
-0.0488599
-0.0317221
-0.0136438
0.00288141
0.017235
0.0256841
0.0297619
0.0310694
0.0308809
0.0299645
0.0287469
0.0274731
0.0263117
0.0253344
0.0245529
0.0239541
0.023521
0.0232396
0.0231007
-0.0634733
-0.0833021
-0.065785
-0.0853486
-0.0679187
-0.0870669
-0.0696376
-0.0884966
-0.0711011
-0.0897141
-0.0723999
-0.0907133
-0.0735233
-0.0914712
-0.055446
-0.0744419
-0.0919763
-0.0569994
-0.0751418
-0.0922245
-0.0584327
-0.0756202
-0.0922139
-0.0597396
-0.0758764
-0.0919442
-0.060915
-0.0759107
-0.0914176
-0.061954
-0.0757252
-0.0906395
-0.0628528
-0.0753244
-0.0896172
-0.0636083
-0.0747153
-0.0883605
-0.0642193
-0.0739068
-0.0646853
-0.0729094
-0.0650074
-0.0717353
-0.0651877
-0.070398
-0.0652296
-0.0689121
-0.0651374
-0.0672927
)
;

boundaryField
{
    inlet
    {
        type            zeroGradient;
    }
    outlet
    {
        type            fixedValue;
        value           nonuniform 0();
    }
    cylinder
    {
        type            zeroGradient;
    }
    top
    {
        type            symmetryPlane;
    }
    bottom
    {
        type            symmetryPlane;
    }
    defaultFaces
    {
        type            empty;
    }
    procBoundary43to42
    {
        type            processor;
        value           nonuniform List<scalar> 
86
(
-0.083206
-0.0839753
-0.0846265
-0.0851581
-0.0855692
-0.0858597
-0.0860299
-0.0860809
-0.0860139
-0.085831
-0.0855344
-0.0851268
-0.0846109
-0.0537595
-0.0537595
-0.05254
-0.0513037
-0.0500555
-0.0488
-0.0475407
-0.0462855
-0.0450493
-0.0405538
-0.0304496
-0.0201852
-0.0121186
-0.00633357
-0.00211109
0.00128429
0.00472327
0.00872439
0.0128814
0.0164733
0.0192479
0.0212704
0.022725
0.0237705
0.0245226
0.025059
0.0254331
0.0256829
0.0258345
0.0259061
-0.0380603
-0.0268038
-0.0154857
-0.00333912
0.00731107
0.0161322
0.022323
0.0261794
0.0281464
0.0290433
0.0292976
0.029143
0.0287116
0.0281256
0.0274921
0.0268865
0.0263523
0.0259121
0.0255762
0.0253488
0.0252386
-0.0421542
-0.043899
-0.0461035
-0.0482394
-0.0501952
-0.0520311
-0.0537839
-0.0537839
-0.0621451
-0.0641267
-0.0660593
-0.0679362
-0.0697511
-0.0714977
-0.0731699
-0.0747616
-0.076267
-0.0776807
-0.0789975
-0.0802126
-0.0813216
-0.0823205
)
;
    }
    procBoundary43to44
    {
        type            processor;
        value           nonuniform List<scalar> 
86
(
-0.0741794
-0.0715882
-0.0689107
-0.0661647
-0.0633681
-0.0605377
-0.0605377
-0.0646689
-0.0621636
-0.0596754
-0.0572132
-0.0547856
-0.0524003
-0.0500642
-0.0477833
-0.0455625
-0.0434064
-0.0413203
-0.0393094
-0.0373671
-0.0354619
-0.0337263
-0.0300179
-0.0160984
-0.0115268
-0.00703283
-0.00272564
0.00164226
0.00621298
0.0106649
0.0146626
0.0178649
0.0202501
0.0219483
0.0231278
0.0239233
0.0244432
0.0247642
0.024944
0.0250299
0.0250607
0.0250657
0.0250611
-0.0873131
-0.0761621
-0.0610104
-0.0453252
-0.0266428
-0.00925604
0.004814
0.014002
0.0185298
0.0206207
0.0217506
0.0225019
0.0228693
0.0228704
0.0226311
0.0222919
0.0219474
0.0216485
0.021417
0.021261
0.0211834
-0.0940024
-0.0955611
-0.0967079
-0.0976635
-0.0984135
-0.0989328
-0.0992164
-0.0992647
-0.09908
-0.098667
-0.0980316
-0.0971807
-0.0961238
-0.0948712
-0.0934353
-0.0868809
-0.0868809
-0.0851921
-0.0833092
-0.0812488
-0.0790282
-0.0766655
)
;
    }
}


// ************************************************************************* //
