/*--------------------------------*- C++ -*----------------------------------*\
  =========                 |
  \\      /  F ield         | OpenFOAM: The Open Source CFD Toolbox
   \\    /   O peration     | Website:  https://openfoam.org
    \\  /    A nd           | Version:  7
     \\/     M anipulation  |
\*---------------------------------------------------------------------------*/
FoamFile
{
    version     2.0;
    format      ascii;
    class       surfaceScalarField;
    location    "50";
    object      phi;
}
// * * * * * * * * * * * * * * * * * * * * * * * * * * * * * * * * * * * * * //

dimensions      [0 3 -1 0 0 0 0];

internalField   nonuniform List<scalar> 
34
(
-0.000244323
0.000147166
-0.00145428
0.000641715
0.0013927
-0.00354793
-0.00536245
0.00148432
0.00247424
0.00358588
-0.010343
0.00439072
0.00523052
0.00593736
0.00439072
0.010343
0.00523052
0.00593736
0.00148432
0.00354793
0.00247424
0.00536245
0.00358588
0.000641715
0.00145428
0.0013927
0.000147166
0.000244323
0.00195982
0.00145505
0.000962655
0.000478856
0.000962655
0.000478856
)
;

boundaryField
{
    inlet
    {
        type            calculated;
        value           nonuniform 0();
    }
    outlet
    {
        type            calculated;
        value           nonuniform 0();
    }
    cylinder
    {
        type            calculated;
        value           uniform 0;
    }
    top
    {
        type            symmetryPlane;
        value           uniform 0;
    }
    bottom
    {
        type            symmetryPlane;
        value           uniform 0;
    }
    defaultFaces
    {
        type            empty;
        value           nonuniform 0();
    }
    procBoundary26to24
    {
        type            processor;
        value           nonuniform List<scalar> 8(-0.00432955 -0.0112895 -0.0129815 -0.0144725 -0.0112895 -0.0129815 -0.0144725 -0.00432955);
    }
    procBoundary26to25
    {
        type            processor;
        value           nonuniform List<scalar> 
24
(
-0.000391489
-0.000171882
-0.00192411
-0.000702703
-0.00635238
-0.0083908
-0.00344425
-0.0158168
-0.0158168
-0.00635238
-0.00344425
-0.0083908
-0.000702703
-0.00192411
-0.000171882
-0.000391489
-0.0246468
-0.0245049
-0.0243988
-0.0243268
-0.0242884
-0.0243988
-0.0243268
-0.0242884
)
;
    }
    procBoundary26to27
    {
        type            processor;
        value           nonuniform List<scalar> 
26
(
0.000122828
0.000121495
0.00103611
0.000565334
0.00279695
0.00436669
0.00238846
0.00727916
0.00472548
0.0121417
0.0137657
0.00651898
0.0121417
0.0137657
0.00651898
0.00727916
0.00472548
0.00279695
0.00238846
0.00436669
0.000565334
0.00103611
0.000121495
0.000122828
-0.00248112
-0.00145505
)
;
    }
    procBoundary26to28
    {
        type            processor;
        value           nonuniform List<scalar> 
12
(
0.00920343
0.0152352
0.0152352
0.00920343
0.0251681
0.0250097
0.0248912
0.0248106
0.0247673
0.0248912
0.0248106
0.0247673
)
;
    }
}


// ************************************************************************* //
