/*--------------------------------*- C++ -*----------------------------------*\
  =========                 |
  \\      /  F ield         | OpenFOAM: The Open Source CFD Toolbox
   \\    /   O peration     | Website:  https://openfoam.org
    \\  /    A nd           | Version:  7
     \\/     M anipulation  |
\*---------------------------------------------------------------------------*/
FoamFile
{
    version     2.0;
    format      ascii;
    class       volScalarField;
    location    "65";
    object      p;
}
// * * * * * * * * * * * * * * * * * * * * * * * * * * * * * * * * * * * * * //

dimensions      [0 2 -2 0 0 0 0];

internalField   nonuniform List<scalar> 
183
(
-0.116405
-0.12805
-0.111143
-0.124261
-0.109183
-0.120415
-0.107097
-0.116542
-0.104896
-0.112666
-0.102591
-0.108811
-0.100191
-0.104995
-0.0977073
-0.101235
-0.0951508
-0.0975458
-0.0925326
-0.0939397
-0.0898639
-0.0904268
-0.0871564
-0.0870142
-0.0844215
-0.0837072
-0.0816712
-0.0805097
-0.0789172
-0.0774246
-0.0761708
-0.0744556
-0.0734398
-0.0716078
-0.0707294
-0.0688645
-0.0680479
-0.0661473
-0.0654207
-0.0634529
-0.0628974
-0.0613759
-0.0604863
-0.0588364
-0.0539498
-0.047378
-0.0389871
-0.0377843
-0.0262746
-0.025887
-0.0125033
-0.0141482
-0.00150281
-0.00360351
0.00820157
0.00489147
0.0153488
0.0112527
0.0206934
0.0158512
0.0241436
0.0190979
0.0262326
0.0317842
0.0213879
0.0273319
0.032
0.0229579
0.027816
0.0317259
0.0240214
0.027952
0.0312058
0.0247224
0.0279032
0.0306092
0.0251713
0.0277662
0.0300313
0.0254483
0.0275968
0.0295181
0.0256112
0.0274275
0.0290887
0.0257009
0.027277
0.0287486
0.0257463
0.0271569
0.0284973
0.0257671
0.0270738
0.0283319
0.0257752
0.0270309
0.0282503
-0.116459
-0.0968208
-0.0621475
-0.0273674
0.00360248
0.0222019
0.0301808
0.0330021
0.033869
0.0338004
0.0330944
0.0321242
0.0311281
0.0302124
0.0294209
0.0287647
0.0282396
0.0278357
0.0275432
0.0273534
0.0272603
-0.0981728
-0.0788175
-0.0535796
-0.0287707
-0.00840392
0.00439658
0.0112414
0.0160311
0.0201942
0.0232396
0.0250974
0.0261295
0.0266619
0.0269035
0.026983
0.0269757
0.0269269
0.0268648
0.026807
0.0267637
0.0267411
-0.1366
-0.110588
-0.140877
-0.112693
-0.144176
-0.114555
-0.14722
-0.116244
-0.149891
-0.117717
-0.152101
-0.11897
-0.153826
-0.120006
-0.155054
-0.120823
-0.155777
-0.121422
-0.155996
-0.121806
-0.155719
-0.121976
-0.154963
-0.121936
-0.153751
-0.12169
-0.15211
-0.121241
-0.150075
-0.120597
-0.147682
-0.119761
-0.144971
-0.118741
-0.141982
-0.117544
-0.138756
-0.116177
-0.124532
-0.135334
-0.114649
-0.120543
-0.131753
-0.112968
)
;

boundaryField
{
    inlet
    {
        type            zeroGradient;
    }
    outlet
    {
        type            fixedValue;
        value           nonuniform 0();
    }
    cylinder
    {
        type            zeroGradient;
    }
    top
    {
        type            symmetryPlane;
    }
    bottom
    {
        type            symmetryPlane;
    }
    defaultFaces
    {
        type            empty;
    }
    procBoundary39to38
    {
        type            processor;
        value           nonuniform List<scalar> 
86
(
-0.09394
-0.112169
-0.112169
-0.10788
-0.103584
-0.0993169
-0.0951128
-0.0909995
-0.0870008
-0.0831374
-0.0794269
-0.0758826
-0.0725123
-0.0693192
-0.066305
-0.0634723
-0.0608214
-0.0583526
-0.0560647
-0.0538955
-0.0517386
-0.050253
-0.0522738
-0.0466908
-0.0444608
-0.0348216
-0.0228373
-0.0110485
-0.000942046
0.00656759
0.0121226
0.0160611
0.0188671
0.0208078
0.0221346
0.0230222
0.0236034
0.0239748
0.0242045
0.0243409
0.0244178
0.0244576
0.0244731
-0.097404
-0.0737534
-0.0398705
-0.00807373
0.0212239
0.0353958
0.0423039
0.0430093
0.0415665
0.0393494
0.0370379
0.0349192
0.0331111
0.0316228
0.030426
0.0294811
0.0287505
0.0282023
0.0278115
0.0275607
0.0274386
-0.116991
-0.122465
-0.126833
-0.130654
-0.134177
-0.137292
-0.139901
-0.141969
-0.143473
-0.144393
-0.144718
-0.14445
-0.143603
-0.142202
-0.140278
-0.137875
-0.135044
-0.131838
-0.128315
-0.128315
-0.0998787
-0.0970242
)
;
    }
    procBoundary39to40
    {
        type            processor;
        value           nonuniform List<scalar> 
85
(
-0.0861008
-0.0858897
-0.0854928
-0.0849033
-0.0841173
-0.0831329
-0.0819513
-0.0805758
-0.0790125
-0.0772699
-0.0753584
-0.07329
-0.0710767
-0.0687328
-0.0662794
-0.0637437
-0.0611405
-0.0584402
-0.055596
-0.0527148
-0.0502215
-0.0438467
-0.0281391
-0.0144233
4.9656e-06
0.010766
0.0194029
0.0250224
0.0287006
0.0307594
0.0307594
0.0378093
0.0365292
0.0351125
0.0337537
0.0325513
0.0315401
0.030719
0.0300733
0.0295844
0.0292346
0.0290094
0.0288993
-0.0632865
-0.049018
-0.0335688
-0.0212971
-0.0122941
-0.00592124
-0.000536843
0.00543148
0.0113081
0.0160028
0.0193424
0.0216104
0.023126
0.0241339
0.0248004
0.0252376
0.0255214
0.0257023
0.0258134
0.0258763
0.025905
-0.0689577
-0.0699829
-0.0710794
-0.072168
-0.073252
-0.0743332
-0.0754114
-0.0764844
-0.0775486
-0.0785984
-0.0796265
-0.080624
-0.0815803
-0.0824835
-0.0833206
-0.0840773
-0.0847389
-0.0852902
-0.0857163
-0.0860024
-0.0861348
)
;
    }
}


// ************************************************************************* //
