/*--------------------------------*- C++ -*----------------------------------*\
  =========                 |
  \\      /  F ield         | OpenFOAM: The Open Source CFD Toolbox
   \\    /   O peration     | Website:  https://openfoam.org
    \\  /    A nd           | Version:  7
     \\/     M anipulation  |
\*---------------------------------------------------------------------------*/
FoamFile
{
    version     2.0;
    format      ascii;
    class       volScalarField;
    location    "55";
    object      p;
}
// * * * * * * * * * * * * * * * * * * * * * * * * * * * * * * * * * * * * * //

dimensions      [0 2 -2 0 0 0 0];

internalField   nonuniform List<scalar> 
392
(
-0.0137922
-0.0132367
-0.0126976
-0.0137981
-0.0132424
-0.0127031
-0.0138099
-0.0132538
-0.012714
-0.0138277
-0.0132709
-0.0127304
-0.0138513
-0.0132936
-0.0127523
-0.0138808
-0.0133219
-0.0127795
-0.0139161
-0.0133559
-0.0128122
-0.0139573
-0.0133955
-0.0128503
-0.0140042
-0.0134406
-0.0128936
-0.0140569
-0.0134912
-0.0129423
-0.0141152
-0.0135473
-0.0129962
-0.0141792
-0.0136088
-0.0130554
-0.012518
-0.0136756
-0.0131196
-0.0125798
-0.0137477
-0.0131889
-0.0126465
-0.013825
-0.0132633
-0.0127179
-0.0139075
-0.0133425
-0.0127941
-0.0139949
-0.0134266
-0.0128749
-0.0140873
-0.0135154
-0.0129603
-0.0141846
-0.0136089
-0.0130502
-0.0142861
-0.0137065
-0.0131441
-0.0143916
-0.013808
-0.0132416
-0.0145044
-0.0139165
-0.013346
-0.0146323
-0.0140391
-0.0134637
-0.014751
-0.0141531
-0.013573
-0.0142386
-0.0136569
-0.0130923
-0.0144897
-0.0139009
-0.0133293
-0.0147461
-0.0141505
-0.0135722
-0.015017
-0.0144142
-0.013829
-0.0153084
-0.0146981
-0.0141054
-0.0156179
-0.0149998
-0.0143993
-0.0159434
-0.0153171
-0.0147085
-0.0162827
-0.015648
-0.0150311
-0.0166333
-0.0159901
-0.0153647
-0.0169926
-0.0163409
-0.0157071
-0.0173579
-0.0166978
-0.0160555
-0.0177265
-0.0170581
-0.0164075
-0.0180957
-0.0174193
-0.0167605
-0.018463
-0.0177787
-0.0171121
-0.0188259
-0.0181342
-0.0174601
-0.0191823
-0.0184836
-0.0178023
-0.0195304
-0.0188251
-0.0181369
-0.0198685
-0.0191569
-0.0184623
-0.020195
-0.0194777
-0.0187772
-0.0205089
-0.0197863
-0.0190802
-0.0208092
-0.0200817
-0.0193706
-0.0210952
-0.0203632
-0.0196474
-0.0213663
-0.0206303
-0.0199102
-0.0216221
-0.0208824
-0.0201584
-0.0218623
-0.0211193
-0.0203918
-0.0220868
-0.0213409
-0.0206102
-0.0222956
-0.021547
-0.0208135
-0.0224886
-0.0217377
-0.0210016
-0.0226659
-0.021913
-0.0211747
-0.0228277
-0.022073
-0.0213327
-0.022974
-0.0222178
-0.0214758
-0.0231052
-0.0223476
-0.021604
-0.0232212
-0.0224625
-0.0217176
-0.0233223
-0.0225626
-0.0218166
-0.0234086
-0.0226482
-0.0219012
-0.0234804
-0.0227192
-0.0219715
-0.0235376
-0.0227759
-0.0220277
-0.0235804
-0.0228184
-0.0220697
-0.0236089
-0.0228467
-0.0220976
-0.0236231
-0.0228608
-0.0221116
-0.0148382
-0.0150965
-0.0153599
-0.0156379
-0.0159369
-0.0162545
-0.0165882
-0.0169359
-0.017295
-0.0176628
-0.0180365
-0.0184133
-0.0187905
-0.0191654
-0.0195356
-0.019899
-0.0202535
-0.0205975
-0.0209296
-0.0212486
-0.0215536
-0.0218438
-0.0221186
-0.0223778
-0.022621
-0.0228482
-0.0230593
-0.0232544
-0.0234335
-0.0235969
-0.0237446
-0.0238769
-0.0239939
-0.0240958
-0.0241828
-0.0242551
-0.0243127
-0.0243558
-0.0243846
-0.0243989
-0.0142386
-0.0144897
-0.0147461
-0.015017
-0.0153083
-0.0156179
-0.0159434
-0.0162827
-0.0166333
-0.0169926
-0.0173579
-0.0177265
-0.0180957
-0.0184629
-0.0188259
-0.0191823
-0.0195304
-0.0198684
-0.020195
-0.0205089
-0.0208092
-0.0210952
-0.0213663
-0.0216221
-0.0218623
-0.0220868
-0.0222955
-0.0224886
-0.0226659
-0.0228277
-0.022974
-0.0231052
-0.0232212
-0.0233223
-0.0234086
-0.0234804
-0.0235376
-0.0235804
-0.0236089
-0.0236231
-0.0136569
-0.0139009
-0.0141505
-0.0144142
-0.0146981
-0.0149998
-0.0153171
-0.015648
-0.0159901
-0.0163409
-0.0166978
-0.0170581
-0.0174193
-0.0177787
-0.0181342
-0.0184836
-0.0188251
-0.0191569
-0.0194777
-0.0197863
-0.0200817
-0.0203632
-0.0206303
-0.0208824
-0.0211193
-0.0213409
-0.021547
-0.0217377
-0.021913
-0.022073
-0.0222178
-0.0223476
-0.0224625
-0.0225626
-0.0226482
-0.0227192
-0.0227759
-0.0228184
-0.0228467
-0.0228608
-0.0130923
-0.0133293
-0.0135722
-0.013829
-0.0141054
-0.0143993
-0.014751
-0.0141531
-0.013573
-0.0146323
-0.0140391
-0.0134637
-0.0145044
-0.0139165
-0.013346
-0.0143916
-0.013808
-0.0132416
-0.0142861
-0.0137065
-0.0131441
-0.0141846
-0.0136089
-0.0130502
-0.0140873
-0.0135154
-0.0129603
-0.0139949
-0.0134266
-0.0128749
-0.0139075
-0.0133425
-0.0127941
-0.0138251
-0.0132633
-0.0127179
-0.0137477
-0.0131889
-0.0126465
-0.0136756
-0.0131196
-0.0125798
-0.0141792
-0.0136088
-0.0130554
-0.012518
-0.0141152
-0.0135473
-0.0129962
-0.0140569
-0.0134912
-0.0129423
-0.0140042
-0.0134406
-0.0128936
-0.0139573
-0.0133955
-0.0128503
-0.0139161
-0.0133559
-0.0128122
-0.0138808
-0.0133219
-0.0127795
-0.0138513
-0.0132936
-0.0127523
-0.0138277
-0.0132709
-0.0127304
-0.0138099
-0.0132538
-0.012714
-0.0137981
-0.0132424
-0.0127031
-0.0137922
-0.0132367
-0.0126976
)
;

boundaryField
{
    inlet
    {
        type            zeroGradient;
    }
    outlet
    {
        type            fixedValue;
        value           nonuniform 0();
    }
    cylinder
    {
        type            zeroGradient;
    }
    top
    {
        type            symmetryPlane;
    }
    bottom
    {
        type            symmetryPlane;
    }
    defaultFaces
    {
        type            empty;
    }
    procBoundary50to49
    {
        type            processor;
        value           nonuniform List<scalar> 
131
(
-0.0143647
-0.0143709
-0.0143832
-0.0144016
-0.0144262
-0.0144569
-0.0144936
-0.0145364
-0.0145852
-0.01464
-0.0147007
-0.0147672
-0.0142487
-0.0142487
-0.0143237
-0.0144041
-0.0144898
-0.0145807
-0.0146769
-0.014778
-0.0148837
-0.0149933
-0.0151107
-0.0152439
-0.0153677
-0.0148382
-0.0148382
-0.0150965
-0.0153599
-0.0156379
-0.0159369
-0.0162545
-0.0165882
-0.0169359
-0.017295
-0.0176628
-0.0180365
-0.0184133
-0.0187905
-0.0191654
-0.0195356
-0.019899
-0.0202535
-0.0205975
-0.0209296
-0.0212486
-0.0215536
-0.0218438
-0.0221186
-0.0223778
-0.022621
-0.0228482
-0.0230593
-0.0232544
-0.0234335
-0.0235969
-0.0237446
-0.0238769
-0.0239939
-0.0240958
-0.0241828
-0.0242551
-0.0243127
-0.0243558
-0.0243845
-0.0243989
-0.0154567
-0.0157223
-0.0159927
-0.016278
-0.0165847
-0.0169103
-0.0172523
-0.0176084
-0.017976
-0.0183522
-0.0187343
-0.0191193
-0.0195043
-0.0198867
-0.0202641
-0.0206341
-0.0209949
-0.0213447
-0.0216821
-0.0220059
-0.0223152
-0.0226093
-0.0228876
-0.0231499
-0.0233958
-0.0236254
-0.0238386
-0.0240355
-0.0242162
-0.0243808
-0.0245297
-0.0246629
-0.0247807
-0.0248833
-0.0249708
-0.0250435
-0.0251015
-0.0251448
-0.0251737
-0.0251881
-0.0153677
-0.0152439
-0.0151107
-0.0149933
-0.0148837
-0.014778
-0.0146769
-0.0145807
-0.0144898
-0.0144041
-0.0143237
-0.0142487
-0.0142487
-0.0147672
-0.0147007
-0.01464
-0.0145852
-0.0145364
-0.0144936
-0.0144569
-0.0144262
-0.0144016
-0.0143832
-0.0143709
-0.0143647
)
;
    }
    procBoundary50to51
    {
        type            processor;
        value           nonuniform List<scalar> 
133
(
-0.012174
-0.0121793
-0.0121898
-0.0122056
-0.0122266
-0.0122528
-0.0122842
-0.0123208
-0.0123625
-0.0124094
-0.0124612
-0.0124612
-0.0119962
-0.0120555
-0.0121196
-0.0121883
-0.0122616
-0.0123393
-0.0124214
-0.0125078
-0.0125981
-0.0126919
-0.0127922
-0.0129052
-0.01301
-0.01301
-0.0125441
-0.0127743
-0.0130105
-0.0132605
-0.0135295
-0.0138157
-0.0141169
-0.0144312
-0.0147565
-0.0150904
-0.0154304
-0.015774
-0.0161188
-0.0164625
-0.0168028
-0.0171377
-0.0174654
-0.0177843
-0.018093
-0.0183904
-0.0186754
-0.0189473
-0.0192056
-0.0194497
-0.0196794
-0.0198944
-0.0200946
-0.02028
-0.0204506
-0.0206064
-0.0207476
-0.0208742
-0.0209863
-0.0210841
-0.0211676
-0.0212371
-0.0212925
-0.0213341
-0.0213617
-0.0213755
-0.0147085
-0.0150311
-0.0153647
-0.0157071
-0.0160555
-0.0164075
-0.0167605
-0.0171121
-0.01746
-0.0178023
-0.0181369
-0.0184623
-0.0187772
-0.0190802
-0.0193706
-0.0196474
-0.0199102
-0.0201584
-0.0203918
-0.0206102
-0.0208135
-0.0210016
-0.0211747
-0.0213327
-0.0214758
-0.021604
-0.0217176
-0.0218166
-0.0219012
-0.0219715
-0.0220277
-0.0220697
-0.0220976
-0.0221116
-0.0125441
-0.01301
-0.0127743
-0.0130105
-0.0132605
-0.0135295
-0.0147085
-0.0138157
-0.01301
-0.0129052
-0.0127922
-0.0126919
-0.0125981
-0.0125078
-0.0124214
-0.0123393
-0.0122616
-0.0121883
-0.0121196
-0.0120556
-0.0119962
-0.0124612
-0.0124612
-0.0124094
-0.0123625
-0.0123208
-0.0122843
-0.0122528
-0.0122266
-0.0122056
-0.0121898
-0.0121793
-0.012174
)
;
    }
}


// ************************************************************************* //
