/*--------------------------------*- C++ -*----------------------------------*\
  =========                 |
  \\      /  F ield         | OpenFOAM: The Open Source CFD Toolbox
   \\    /   O peration     | Website:  https://openfoam.org
    \\  /    A nd           | Version:  7
     \\/     M anipulation  |
\*---------------------------------------------------------------------------*/
FoamFile
{
    version     2.0;
    format      ascii;
    class       surfaceScalarField;
    location    "10";
    object      phi;
}
// * * * * * * * * * * * * * * * * * * * * * * * * * * * * * * * * * * * * * //

dimensions      [0 3 -1 0 0 0 0];

internalField   nonuniform List<scalar> 
626
(
-3.84028e-06
1.11831e-06
-4.95859e-06
4.6187e-06
-1.73831e-05
-3.31801e-05
1.19973e-06
-6.15832e-06
4.94636e-06
-2.11297e-05
1.15288e-05
-3.97625e-05
2.12617e-05
-6.24987e-05
-8.98223e-05
1.27975e-06
-7.43808e-06
5.26755e-06
-2.51175e-05
1.22608e-05
-4.67558e-05
2.25821e-05
-7.282e-05
3.65803e-05
-0.00010382
5.46316e-05
-0.000140304
-0.000182856
1.35821e-06
-8.79629e-06
5.58148e-06
-2.93408e-05
1.29743e-05
-5.41487e-05
2.38654e-05
-8.37111e-05
3.86084e-05
-0.000118563
5.75824e-05
-0.000159278
8.11923e-05
-0.000206466
0.000109868
-0.000260773
-0.000322882
1.43496e-06
5.88736e-06
1.36672e-05
-6.19285e-05
2.51075e-05
-9.51514e-05
4.05643e-05
-0.00013402
6.04173e-05
-0.000179131
8.50684e-05
-0.000231117
0.000114941
-0.000290646
0.000150477
-0.000358417
0.000192132
-0.000435163
-0.000521638
1.43372e-05
2.63039e-05
4.24407e-05
6.31248e-05
-0.000199816
8.87527e-05
-0.000256745
0.000119737
-0.00032163
0.000156505
-0.000395185
0.000199491
-0.000478149
0.000249128
-0.000571275
0.000305844
-0.000675328
-0.000791069
6.56921e-05
9.22267e-05
0.000124233
0.000162117
-0.00043307
0.000206288
-0.00052232
0.000257146
-0.000622133
0.000315073
-0.000733255
0.00038042
-0.000856416
0.000453489
-0.00099231
-0.00114158
0.000167275
0.000212478
0.00026437
0.000323285
-0.000792171
0.000389518
-0.000922648
0.0004633
-0.00106609
0.000544789
-0.00122307
0.000634038
-0.00139405
-0.00157937
0.000330407
0.00039725
0.000471431
0.000553026
-0.00130467
0.000642003
-0.00148303
0.000738198
-0.00167557
0.000841297
-0.00188232
0.000950812
-0.00210311
-0.0023375
0.000559113
0.00064741
0.00074242
0.000843741
-0.00198365
0.000950807
-0.00221018
0.00106288
-0.00244957
0.00117903
-0.00270092
-0.00296299
0.000842583
0.000946708
0.00105509
0.00116678
-0.00281261
0.00128069
-0.0030769
0.00139558
-0.00334913
-0.00362688
0.00151015
0.00114937
0.00125757
0.00136606
0.0014736
0.00373442
0.00143069
0.00114937
0.00281261
0.00125757
0.0030769
0.00136606
0.00334913
0.00362688
0.0014736
0.000842583
0.00198365
0.000946707
0.00221018
0.00105509
0.00244957
0.00116678
0.00270092
0.00128069
0.00296299
0.00139558
0.00151015
0.000477779
0.00114027
0.000559113
0.00130467
0.00064741
0.00148303
0.00074242
0.00167557
0.000843741
0.00188232
0.000950806
0.00210311
0.00106287
0.0023375
0.00117903
0.000270738
0.000674026
0.000330407
0.000792172
0.00039725
0.000922649
0.000471431
0.00106609
0.000553026
0.00122307
0.000642003
0.00139405
0.000738198
0.00157937
0.000841296
0.000950811
0.000128398
0.000353637
0.000167275
0.00043307
0.000212478
0.00052232
0.00026437
0.000622134
0.000323285
0.000733256
0.000389518
0.000856417
0.0004633
0.000992311
0.000544789
0.00114158
0.000634038
6.5692e-05
0.000199816
9.22267e-05
0.000256746
0.000124233
0.000321631
0.000162117
0.000395186
0.000206288
0.000478149
0.000257146
0.000571276
0.000315073
0.000675329
0.00038042
0.00079107
0.000453489
1.43372e-05
6.19287e-05
2.63039e-05
9.51516e-05
4.24407e-05
0.000134021
6.31249e-05
0.000179132
8.87527e-05
0.000231118
0.000119737
0.000290646
0.000156505
0.000358418
0.000199491
0.000435164
0.000249128
0.000521638
0.000305844
1.43496e-06
8.79632e-06
5.88736e-06
2.93409e-05
1.36672e-05
5.41488e-05
2.51075e-05
8.37114e-05
4.05644e-05
0.000118564
6.04173e-05
0.000159279
8.50685e-05
0.000206467
0.000114941
0.000260774
0.000150477
0.000322883
0.000192132
1.35821e-06
7.4381e-06
5.58149e-06
2.51176e-05
1.29743e-05
4.6756e-05
2.38654e-05
7.28203e-05
3.86084e-05
0.000103821
5.75825e-05
0.000140305
8.11923e-05
0.000182857
0.000109868
1.27975e-06
6.15835e-06
5.26756e-06
2.11298e-05
1.22608e-05
3.97627e-05
2.25822e-05
6.2499e-05
3.65804e-05
8.98226e-05
5.46317e-05
1.19973e-06
4.95862e-06
4.94636e-06
1.73832e-05
1.15288e-05
3.31803e-05
2.12617e-05
1.11831e-06
3.84031e-06
4.61871e-06
0.000709176
-0.00903424
0.00066123
-0.0090048
0.000614012
-0.00897745
0.000567465
-0.00895214
0.000521529
-0.00892882
0.000476152
-0.00890742
0.000431281
-0.0088879
0.000386865
-0.00887024
0.000342856
-0.00885438
0.000299207
-0.0088403
0.000255873
-0.00882798
0.000212809
-0.00881737
0.000169972
-0.00880848
0.000127318
-0.00880127
8.48006e-05
-0.00879576
4.23765e-05
-0.00879194
-0.00878987
0.00163801
-0.00912718
0.00171053
-0.00953251
0.00173862
-0.00976714
0.00173209
-0.00988262
0.0017009
-0.00991626
0.00165363
-0.00989805
0.00159691
-0.00985054
0.00153537
-0.00978852
0.00147204
-0.00972094
0.00140868
-0.00965273
0.00134627
-0.00958634
0.00128527
-0.00952281
0.00122587
-0.0094625
0.00116809
-0.00940544
0.00111188
-0.00935153
0.00105717
-0.00930066
0.00100388
-0.00925268
0.000951897
-0.00920748
0.000901151
-0.00916493
0.000851551
-0.00912493
0.000803017
-0.00908738
0.00075547
-0.00905217
0.000708838
-0.00901923
0.000663051
-0.00898846
0.000618043
-0.00895979
0.000573753
-0.00893316
0.00053012
-0.00890851
0.000487089
-0.00888578
0.000444606
-0.00886493
0.00040262
-0.00884592
0.000361082
-0.0088287
0.000319945
-0.00881324
0.000279162
-0.00879952
0.000238692
-0.0087875
0.000198489
-0.00877717
0.000158512
-0.0087685
0.000118718
-0.00876148
7.90641e-05
-0.0087561
3.95062e-05
-0.00875239
-0.00875037
0.0015846
-0.00923818
0.00164301
-0.00959092
0.00166004
-0.00978417
0.00164573
-0.0098683
0.00160975
0.00156021
0.00150311
0.00144255
0.00138107
0.00132012
0.00126044
0.00120236
0.00114596
0.00109122
0.00103808
0.000986436
0.000936202
0.00088728
0.000839579
0.000793012
0.000747496
0.000702955
0.000659315
0.000616506
0.000574464
0.000533126
0.000492435
0.000452334
0.000412772
0.000373698
0.000335065
0.000296826
0.000258937
0.000221356
0.00018404
0.000146949
0.000110042
7.3277e-05
3.6611e-05
0.00152518
0.0015702
0.00157706
0.00152518
0.00923818
0.0015702
0.00959092
0.00157706
0.00978417
0.00155586
0.0098683
0.00151591
0.00988028
0.00146475
0.0098485
0.00140777
0.00979344
0.00134853
0.00972796
0.00128915
0.00965946
0.00959179
0.0015846
0.00912718
0.00164301
0.00953251
0.00166004
0.00976714
0.00164573
0.00988262
0.00160975
0.00991626
0.00156021
0.00989805
0.00150311
0.00985054
0.00144255
0.00978852
0.00138107
0.00972094
0.00132012
0.00965273
0.00126044
0.00958634
0.00120236
0.00952281
0.00114596
0.0094625
0.00109122
0.00940544
0.00103808
0.00935153
0.000986436
0.00930066
0.000936202
0.00925268
0.00088728
0.00920748
0.000839579
0.00916493
0.000793012
0.00912493
0.000747496
0.00908738
0.000702955
0.00905217
0.000659315
0.00901923
0.000616506
0.00898846
0.000574464
0.00895979
0.000533126
0.00893316
0.000492435
0.00890851
0.000452334
0.00888578
0.000412772
0.00886493
0.000373698
0.00884592
0.000335065
0.0088287
0.000296826
0.00881324
0.000258937
0.00879952
0.000221356
0.0087875
0.00018404
0.00877717
0.000146949
0.0087685
0.000110042
0.00876148
7.3277e-05
0.0087561
3.6611e-05
0.00875239
0.00875037
0.00163801
0.00171053
0.00173862
0.00173209
0.0017009
0.00165363
0.00159691
0.00153537
0.00147204
0.00140868
0.00134627
0.00128527
0.00122587
0.00116809
0.00111188
0.00105717
0.00100388
0.000951897
0.000901151
0.000851551
0.000803017
0.00075547
0.000708838
0.000663051
0.000618043
0.000573753
0.00053012
0.000487089
0.000444606
0.00040262
0.000361082
0.000319945
0.00885438
0.000279162
0.0088403
0.000238692
0.00882797
0.000198489
0.00881737
0.000158512
0.00880848
0.000118718
0.00880127
7.90641e-05
0.00879576
3.95062e-05
0.00879194
0.00878987
0.000342856
0.000299207
0.000255873
0.000212809
0.000169972
0.000127318
8.48006e-05
4.23765e-05
)
;

boundaryField
{
    inlet
    {
        type            calculated;
        value           nonuniform 0();
    }
    outlet
    {
        type            calculated;
        value           nonuniform 0();
    }
    cylinder
    {
        type            calculated;
        value           uniform 0;
    }
    top
    {
        type            symmetryPlane;
        value           uniform 0;
    }
    bottom
    {
        type            symmetryPlane;
        value           uniform 0;
    }
    defaultFaces
    {
        type            empty;
        value           nonuniform 0();
    }
    procBoundary17to16
    {
        type            processor;
        value           nonuniform List<scalar> 
146
(
-1.02312e-05
-3.37932e-05
-6.18427e-06
-7.00815e-05
-0.000107118
-0.000150157
-4.42288e-05
-0.000221279
-0.00028328
-0.000353636
-0.000128398
-0.000471947
-0.000567523
-0.000674025
-0.000270738
-0.00085184
-0.000989491
-0.00114027
-0.00047778
-0.001386
-0.00157132
-0.00177058
-0.000743514
-0.00208271
-0.0023143
-0.00255795
-0.00104262
-0.00291936
-0.0031851
-0.00345761
-0.00373442
-0.0014307
-0.00383458
-0.00291936
-0.0031851
-0.00133053
-0.00345761
-0.00208272
-0.0023143
-0.00104262
-0.00255796
-0.00121453
-0.001386
-0.00157132
-0.000743514
-0.00177058
-0.000726754
-0.000851841
-0.000403528
-0.000989492
-0.000386566
-0.000471947
-0.00021801
-0.000567523
-0.000221279
-9.54693e-05
-0.00028328
-7.00817e-05
-0.000107118
-4.42288e-05
-0.000150157
-1.02313e-05
-6.18427e-06
-3.37933e-05
-0.00988028
-0.0098485
-0.00979344
-0.00972796
-0.00965946
-0.00959179
-0.00952666
-0.00946473
-0.0094061
-0.0093507
-0.00929839
-0.00924902
-0.00920245
-0.00915856
-0.00911723
-0.00907837
-0.00904186
-0.00900763
-0.00897559
-0.00894565
-0.00891775
-0.00889182
-0.00886782
-0.00884568
-0.00882537
-0.00880684
-0.00879007
-0.008775
-0.00876163
-0.00874992
-0.00873986
-0.00873141
-0.00872457
-0.00871934
-0.00871572
-0.00871375
-0.00933267
-0.00963594
-0.00979103
0.00155586
-0.0098471
-0.00933267
-0.00963594
-0.00979103
-0.0098471
-0.00984033
-0.00979734
-0.00973646
-0.00966872
-0.00960007
-0.0095334
0.00123076
-0.00952666
-0.00946473
-0.0094061
-0.0093507
-0.00929839
-0.00924902
-0.00920245
-0.00915856
-0.00911723
-0.00907837
-0.00904186
-0.00900763
-0.00897558
-0.00894565
-0.00891775
-0.00889182
-0.00886782
-0.00884568
-0.00882537
-0.00880684
-0.00879006
-0.008775
-0.00876163
-0.00874992
-0.00873986
-0.00873141
-0.00872457
-0.00871934
-0.00871572
-0.00871375
)
;
    }
    procBoundary17to18
    {
        type            processor;
        value           nonuniform List<scalar> 
152
(
2.80461e-06
1.03568e-06
1.38827e-05
2.70185e-05
1.07803e-05
5.27658e-05
7.65969e-05
3.4487e-05
0.000122253
0.000160347
7.71405e-05
0.000232098
0.000288688
0.000144062
0.000393508
0.000473398
0.000240371
0.000618613
0.00072687
0.000370042
0.000919241
0.00106056
0.000534515
0.0013048
0.00148243
0.000730977
0.00177923
0.0019936
0.00222225
0.00106607
0.00258477
0.00284385
0.00129817
0.00323423
0.00351231
0.00323423
0.00351231
0.00258477
0.00129817
0.00284385
0.00177923
0.0019936
0.00106607
0.00222225
0.0013048
0.000730977
0.00148244
0.000919242
0.000534514
0.00106056
0.000618614
0.000370042
0.000726871
0.000393509
0.000240371
0.000473399
0.000232098
0.000144062
0.000288688
0.000122253
7.71405e-05
0.000160348
5.27661e-05
3.44871e-05
7.65972e-05
1.38828e-05
1.07803e-05
2.70187e-05
1.03568e-06
2.80463e-06
0.00908298
0.00905275
0.00902467
0.00899869
0.00897475
0.00895279
0.00893278
0.00891465
0.00889839
0.00888395
0.00887131
0.00886044
0.00885131
0.00884393
0.00883827
0.00883437
0.00883225
0.00899932
0.00945998
0.00973905
0.00988915
0.00994745
0.00994531
0.00990726
0.00985005
0.00978428
0.00971609
0.00964875
0.00958381
0.00952191
0.00946322
0.00940774
0.00935537
0.00930598
0.00925946
0.00921568
0.00917453
0.00913591
0.00909972
-0.000757916
0.00906586
0.00899933
0.00945998
0.00973906
0.00988915
0.00994745
0.00994531
0.00990726
0.00985005
0.00978428
0.00971609
0.00964875
0.00958381
0.0095219
0.00946322
0.00940774
0.00935537
0.00930598
0.00925946
0.00921568
0.00917453
0.00913591
0.00909972
0.00906586
0.00903424
0.0090048
0.00897745
0.00895214
0.00892882
0.00890742
0.0088879
0.00887024
-0.000386865
0.00889839
0.00888395
0.00887131
0.00886044
0.00885131
0.00884393
0.00883827
0.00883437
0.00883225
)
;
    }
}


// ************************************************************************* //
