/*--------------------------------*- C++ -*----------------------------------*\
  =========                 |
  \\      /  F ield         | OpenFOAM: The Open Source CFD Toolbox
   \\    /   O peration     | Website:  https://openfoam.org
    \\  /    A nd           | Version:  7
     \\/     M anipulation  |
\*---------------------------------------------------------------------------*/
FoamFile
{
    version     2.0;
    format      ascii;
    class       volScalarField;
    location    "60";
    object      p;
}
// * * * * * * * * * * * * * * * * * * * * * * * * * * * * * * * * * * * * * //

dimensions      [0 2 -2 0 0 0 0];

internalField   nonuniform List<scalar> 
183
(
-0.0903153
-0.0741291
-0.0898594
-0.0726682
-0.0886239
-0.0893153
-0.0712088
-0.0864244
-0.0887128
-0.0697794
-0.0842899
-0.0880792
-0.068406
-0.0822446
-0.0874392
-0.0671111
-0.0803072
-0.0868138
-0.0659136
-0.0784923
-0.0862197
-0.0648285
-0.0768104
-0.085669
-0.0638675
-0.0752671
-0.0630389
-0.0738644
-0.0623479
-0.0726004
-0.0617962
-0.071471
-0.0613829
-0.0704696
-0.0611045
-0.0695865
-0.0609548
-0.0688102
-0.0609259
-0.0681268
-0.0610075
-0.0675236
-0.0611854
-0.0669887
-0.061438
-0.0664439
-0.0617323
-0.065775
-0.0622573
-0.0657075
-0.0683513
-0.0724764
-0.0647188
-0.0692633
-0.0596103
-0.063893
-0.051762
-0.050532
-0.0387617
-0.0347812
-0.0200166
-0.0194968
-0.00635875
-0.00676096
0.00388496
0.00284896
0.0110272
0.0100099
0.0159354
0.0151958
0.0192931
0.018937
0.0215837
0.0216029
0.0231238
0.0234812
0.0241491
0.0247925
0.0248184
0.0256964
0.0252451
0.0263119
0.025508
0.0267237
0.0256628
0.0269927
0.0257489
0.0271618
0.0257921
0.0272598
0.0258092
0.0273044
-0.0462379
-0.0253352
-0.00411786
0.0146604
0.0292164
0.0381322
0.0427108
0.0443145
0.0438561
0.0423158
0.0402888
0.038214
0.0363017
0.0346324
0.0332259
0.0320752
0.0311612
0.0304611
0.0299549
0.0296264
0.0294649
-0.072932
-0.0535278
-0.0228789
0.00526994
0.03113
0.0463382
0.0529088
0.0529003
0.0507119
0.0476654
0.0445488
0.0417018
0.0392502
0.0372044
0.0355357
0.0342034
0.0331636
0.0323771
0.0318131
0.0314492
0.0312709
-0.0558659
-0.0860701
-0.0597163
-0.0902367
-0.0635499
-0.0937087
-0.0667469
-0.0965264
-0.0695446
-0.0990388
-0.0721306
-0.101275
-0.0744865
-0.10316
-0.0765425
-0.104659
-0.0782643
-0.105764
-0.0796451
-0.106474
-0.0806847
-0.106788
-0.081385
-0.106715
-0.0862819
-0.0817534
-0.106269
-0.0876403
-0.0818046
-0.105473
-0.0887595
-0.0815595
-0.104356
-0.0896355
-0.0810444
-0.102953
-0.0902705
-0.0802895
-0.101303
-0.0906728
-0.0793279
-0.0994488
-0.0908569
-0.078195
-0.0974344
-0.0908423
-0.0769269
-0.0906527
-0.0755598
)
;

boundaryField
{
    inlet
    {
        type            zeroGradient;
    }
    outlet
    {
        type            fixedValue;
        value           nonuniform 0();
    }
    cylinder
    {
        type            zeroGradient;
    }
    top
    {
        type            symmetryPlane;
    }
    bottom
    {
        type            symmetryPlane;
    }
    defaultFaces
    {
        type            empty;
    }
    procBoundary38to37
    {
        type            processor;
        value           nonuniform List<scalar> 
86
(
-0.126188
-0.127425
-0.128534
-0.129508
-0.130342
-0.131025
-0.131549
-0.131904
-0.132079
-0.085169
-0.085169
-0.0847222
-0.0843267
-0.083976
-0.0836598
-0.0833641
-0.0830716
-0.0827622
-0.0824125
-0.0820026
-0.0814863
-0.0810273
-0.0765734
-0.0591901
-0.0407468
-0.0290996
-0.0188078
-0.0056529
0.00606061
0.0142945
0.01934
0.0222927
0.023932
0.0247771
0.0251437
0.0252297
0.0251613
0.0250179
0.0248498
0.0246887
0.0245551
0.0244611
0.0243975
-0.0489128
-0.0293976
-0.014007
0.00153349
0.012327
0.0212685
0.0268106
0.0303734
0.0319501
0.0323761
0.032085
0.0314542
0.0306946
0.029924
0.0292071
0.0285772
0.0280492
0.0276273
0.0273123
0.0271037
0.0269999
-0.0589871
-0.0618035
-0.0640013
-0.0663843
-0.0689561
-0.0715327
-0.0740333
-0.0764418
-0.0787408
-0.0809015
-0.0828945
-0.0846947
-0.0846947
-0.110277
-0.112379
-0.114418
-0.116385
-0.118269
-0.120063
-0.121758
-0.123349
-0.124828
)
;
    }
    procBoundary38to39
    {
        type            processor;
        value           nonuniform List<scalar> 
86
(
-0.0908594
-0.0908594
-0.106942
-0.104527
-0.102149
-0.0998187
-0.0975465
-0.0953393
-0.0932015
-0.0911356
-0.0891426
-0.0872222
-0.0853733
-0.0835937
-0.0818803
-0.0802288
-0.0786361
-0.0771012
-0.0756042
-0.0740689
-0.0724964
-0.0714574
-0.0717761
-0.0626283
-0.0520134
-0.0382068
-0.0241204
-0.0117111
-0.00145535
0.00646149
0.0126234
0.0172597
0.0207409
0.0232867
0.0251227
0.026425
0.0273339
0.0279578
0.0283769
0.0286506
0.0288223
0.0289215
0.0289669
-0.100801
-0.0905786
-0.041361
-0.0109951
0.0222477
0.0425062
0.050876
0.0521636
0.0505128
0.0477955
0.0448567
0.0421264
0.03977
0.037812
0.0362243
0.0349627
0.0339824
0.0332441
0.0327166
0.0323773
0.0322117
-0.119473
-0.122182
-0.124284
-0.12617
-0.127745
-0.12899
-0.12989
-0.130438
-0.13063
-0.13047
-0.129968
-0.129141
-0.128011
-0.126606
-0.124957
-0.123097
-0.121059
-0.11888
-0.116592
-0.0953033
-0.0953033
-0.0930981
)
;
    }
}


// ************************************************************************* //
