/*--------------------------------*- C++ -*----------------------------------*\
  =========                 |
  \\      /  F ield         | OpenFOAM: The Open Source CFD Toolbox
   \\    /   O peration     | Website:  https://openfoam.org
    \\  /    A nd           | Version:  7
     \\/     M anipulation  |
\*---------------------------------------------------------------------------*/
FoamFile
{
    version     2.0;
    format      ascii;
    class       volVectorField;
    location    "5";
    object      U;
}
// * * * * * * * * * * * * * * * * * * * * * * * * * * * * * * * * * * * * * //

dimensions      [0 1 -1 0 0 0 0];

internalField   nonuniform List<vector> 
392
(
(0.965137 -0.000507311 -1.0845e-23)
(0.967522 -0.000469121 1.45648e-23)
(0.96973 -0.000433876 -1.59305e-23)
(0.965179 -0.00152037 5.07297e-23)
(0.967561 -0.0014059 -2.70298e-23)
(0.969765 -0.00130026 5.63424e-23)
(0.965263 -0.00253136 -7.84147e-23)
(0.967637 -0.00234084 3.1757e-23)
(0.969835 -0.002165 5.82019e-23)
(0.965389 -0.00353893 -9.66581e-23)
(0.967751 -0.00327272 -1.80769e-23)
(0.969938 -0.003027 -6.15291e-23)
(0.965556 -0.00454174 1.90437e-23)
(0.967902 -0.00420034 1.16999e-23)
(0.970076 -0.0038852 3.30362e-23)
(0.965762 -0.0055385 1.18025e-22)
(0.96809 -0.00512256 1.65175e-22)
(0.970246 -0.00473856 -3.37548e-23)
(0.966007 -0.00652797 -2.79825e-22)
(0.968313 -0.00603827 2.84681e-22)
(0.970449 -0.00558609 -6.95281e-23)
(0.96629 -0.00750898 -1.1105e-22)
(0.968569 -0.00694641 -1.47392e-23)
(0.970682 -0.00642684 1.94977e-22)
(0.966609 -0.00848041 -2.13749e-23)
(0.968859 -0.00784597 6.7754e-23)
(0.970946 -0.00725991 -4.42161e-23)
(0.966962 -0.00944122 -4.90495e-23)
(0.96918 -0.00873603 -6.61633e-23)
(0.971237 -0.00808446 8.22871e-23)
(0.967347 -0.0103905 2.06021e-23)
(0.96953 -0.00961572 1.33392e-22)
(0.971557 -0.00889971 4.25747e-23)
(0.967763 -0.0113273 7.94217e-22)
(0.969908 -0.0104843 -6.46416e-22)
(0.971901 -0.00970494 3.16148e-22)
(0.973753 -0.00898542 -2.5838e-22)
(0.970313 -0.0113409 1.20608e-22)
(0.97227 -0.0104995 -7.14539e-22)
(0.974089 -0.00972244 6.88989e-22)
(0.970741 -0.0121851 1.7848e-22)
(0.97266 -0.0112829 1.16989e-22)
(0.974446 -0.0104493 -3.003e-22)
(0.971192 -0.0130163 -8.62827e-23)
(0.973072 -0.0120545 8.81464e-23)
(0.974821 -0.0111657 8.21214e-23)
(0.971663 -0.013834 -3.46104e-22)
(0.973501 -0.0128139 5.38117e-22)
(0.975214 -0.011871 -9.64949e-23)
(0.972152 -0.0146378 1.46708e-22)
(0.973948 -0.0135609 -9.15882e-23)
(0.975623 -0.0125651 -2.32229e-22)
(0.972657 -0.0154276 1.09014e-23)
(0.97441 -0.0142951 -3.15381e-22)
(0.976045 -0.0132476 -9.43559e-23)
(0.973177 -0.0162029 1.65917e-22)
(0.974885 -0.0150164 -1.50223e-22)
(0.97648 -0.0139184 5.59251e-24)
(0.973709 -0.0169636 1.32809e-22)
(0.975372 -0.0157243 -1.7617e-22)
(0.976926 -0.0145771 -6.18713e-23)
(0.974251 -0.0177094 -3.62665e-22)
(0.975868 -0.0164188 -4.57247e-23)
(0.977381 -0.0152236 -1.74956e-23)
(0.974801 -0.0184417 5.10376e-23)
(0.976372 -0.0171009 2.05858e-22)
(0.977843 -0.0158588 9.87516e-23)
(0.975358 -0.0191643 -5.75937e-22)
(0.976882 -0.0177742 2.71363e-22)
(0.978312 -0.016486 -1.58671e-23)
(0.97592 -0.0198693 -3.74061e-22)
(0.977398 -0.0184314 2.22712e-22)
(0.978785 -0.0170983 2.49371e-22)
(0.978402 -0.0195917 0)
(0.979708 -0.0181828 0)
(0.980935 -0.0168773 1.06019e-12)
(0.979928 -0.0208728 0)
(0.981111 -0.0193926 0)
(0.982226 -0.0180192 4.45829e-29)
(0.98149 -0.0220861 0)
(0.982547 -0.0205404 0)
(0.983549 -0.0191044 4.42528e-29)
(0.983092 -0.0231759 0)
(0.984023 -0.021576 0)
(0.984909 -0.0200873 8.50199e-13)
(0.984732 -0.0241184 0)
(0.985535 -0.0224774 0)
(0.986305 -0.0209481 7.73693e-13)
(0.986407 -0.0249178 0)
(0.987082 -0.023248 0)
(0.987735 -0.0216892 6.94019e-13)
(0.988111 -0.0255763 0)
(0.98866 -0.0238892 0)
(0.989197 -0.0223117 6.12132e-13)
(0.989838 -0.0260953 0)
(0.990262 -0.0244022 0)
(0.990684 -0.0228161 5.28454e-13)
(0.991579 -0.026478 0)
(0.991882 -0.0247889 1.54075e-29)
(0.992191 -0.0232038 8.86783e-13)
(0.993326 -0.0267283 0)
(0.993511 -0.0250526 -1.54075e-29)
(0.99371 -0.0234771 3.57373e-13)
(0.995069 -0.0268511 0)
(0.995141 -0.0251973 0)
(0.995234 -0.0236393 0)
(0.996799 -0.0268522 0)
(0.996762 -0.0252275 0)
(0.996754 -0.0236942 0)
(0.998507 -0.0267378 0)
(0.998367 -0.0251487 0)
(0.998261 -0.0236462 1.31916e-30)
(1.00018 -0.0265144 0)
(0.999947 -0.0249665 0)
(0.999749 -0.0235002 1.16113e-14)
(1.00182 -0.026189 3.51907e-31)
(1.00149 -0.0246869 0)
(1.00121 -0.0232614 -7.34443e-14)
(1.00342 -0.0257683 -3.51907e-31)
(1.003 -0.0243158 0)
(1.00264 -0.0229351 -1.27177e-30)
(1.00496 -0.0252592 0)
(1.00447 -0.0238595 0)
(1.00403 -0.0225267 -2.75745e-13)
(1.00645 -0.0246682 0)
(1.00588 -0.0233239 0)
(1.00537 -0.0220417 -4.44457e-14)
(1.00788 -0.0240019 0)
(1.00724 -0.0227148 0)
(1.00667 -0.0214853 -7.9743e-13)
(1.00924 -0.0232662 0)
(1.00855 -0.0220378 0)
(1.00791 -0.0208628 -9.49936e-13)
(1.01055 -0.0224668 0)
(1.0098 -0.0212983 0)
(1.0091 -0.020179 -5.48731e-13)
(1.01179 -0.0216093 0)
(1.01098 -0.0205015 0)
(1.01024 -0.0194388 9.1228e-30)
(1.01296 -0.0206987 0)
(1.01211 -0.0196519 0)
(1.01131 -0.0186467 0)
(1.01406 -0.0197396 0)
(1.01317 -0.0187542 0)
(1.01233 -0.0178069 3.14529e-29)
(1.0151 -0.0187365 -5.96006e-29)
(1.01417 -0.0178126 1.46912e-29)
(1.01329 -0.0169234 -8.15141e-13)
(1.01607 -0.0176935 5.96006e-29)
(1.0151 -0.016831 -1.46912e-29)
(1.01419 -0.0160002 -8.73791e-13)
(1.01698 -0.0166143 0)
(1.01597 -0.0158132 0)
(1.01503 -0.0150407 -9.28996e-13)
(1.01781 -0.0155026 0)
(1.01678 -0.0147625 0)
(1.01581 -0.0140483 -9.80648e-13)
(1.01858 -0.0143616 6.82495e-29)
(1.01752 -0.0136823 -2.43361e-29)
(1.01652 -0.0130263 4.29573e-29)
(1.01929 -0.0131943 -6.82495e-29)
(1.01821 -0.0125756 2.43361e-29)
(1.01718 -0.0119776 -1.07291e-12)
(1.01992 -0.0120038 -7.88956e-29)
(1.01882 -0.0114453 0)
(1.01778 -0.0109051 -1.11337e-12)
(1.0205 -0.0107928 7.88956e-29)
(1.01938 -0.0102941 0)
(1.01831 -0.0098115 -2.23581e-29)
(1.021 -0.00956367 0)
(1.01987 -0.00912453 0)
(1.01879 -0.00869933 -1.18259e-12)
(1.02145 -0.00831899 0)
(1.0203 -0.00793908 0)
(1.0192 -0.00757107 -1.21126e-12)
(1.02183 -0.00706103 0)
(1.02067 -0.00674007 0)
(1.01956 -0.00642905 0)
(1.02214 -0.00579201 0)
(1.02097 -0.00552976 0)
(1.01986 -0.00527554 -1.25649e-12)
(1.02239 -0.00451404 -8.87464e-29)
(1.02122 -0.00431029 2.20317e-29)
(1.02009 -0.00411273 -1.27299e-12)
(1.02258 -0.00322919 8.87464e-29)
(1.0214 -0.00308377 -2.20317e-29)
(1.02027 -0.00294275 -1.28538e-12)
(1.02271 -0.00193947 1.41349e-12)
(1.02152 -0.00185226 -2.98619e-29)
(1.02039 -0.00176769 -3.83889e-14)
(1.02277 -0.000646819 -1.42867e-12)
(1.02158 -0.00061776 3.01827e-29)
(1.02045 -0.000589574 -1.26875e-12)
(0.977013 0.0211094 0)
(0.978676 0.0224653 0)
(0.980375 0.0237468 0)
(0.982116 0.0248924 0)
(0.983896 0.0258764 0)
(0.98571 0.0267037 0)
(0.987552 0.0273774 1.03789e-29)
(0.989413 0.0278998 -1.03789e-29)
(0.991286 0.0282747 4.1926e-13)
(0.993159 0.0285074 -4.1926e-13)
(0.995024 0.0286038 0)
(0.996868 0.0285707 0)
(0.998684 0.0284154 0)
(1.00046 0.0281456 0)
(1.0022 0.0277691 0)
(1.00388 0.0272935 0)
(1.0055 0.0267265 0)
(1.00706 0.0260753 0)
(1.00856 0.0253469 -5.45176e-13)
(1.00999 0.0245479 5.45176e-13)
(1.01136 0.0236844 0)
(1.01265 0.0227622 0)
(1.01387 0.0217866 0)
(1.01501 0.0207625 0)
(1.01609 0.0196946 -1.67842e-29)
(1.0171 0.0185869 1.67842e-29)
(1.01803 0.0174435 0)
(1.0189 0.0162679 0)
(1.0197 0.0150634 0)
(1.02042 0.0138332 0)
(1.02108 0.0125802 1.3197e-12)
(1.02167 0.0113071 -1.3197e-12)
(1.02219 0.0100163 0)
(1.02265 0.00871044 0)
(1.02304 0.00739162 0)
(1.02337 0.00606204 0)
(1.02363 0.00472378 0)
(1.02382 0.00337885 0)
(1.02395 0.0020292 3.36104e-29)
(1.02401 0.000676722 -3.39714e-29)
(0.978402 0.0195909 0)
(0.979928 0.0208721 0)
(0.98149 0.0220853 0)
(0.983092 0.0231752 0)
(0.984732 0.0241177 0)
(0.986406 0.0249171 0)
(0.98811 0.0255756 -3.78969e-29)
(0.989837 0.0260947 3.78969e-29)
(0.991579 0.0264774 0)
(0.993326 0.0267277 0)
(0.995069 0.0268505 0)
(0.996799 0.0268517 0)
(0.998506 0.0267373 1.85313e-30)
(1.00018 0.0265139 -1.85313e-30)
(1.00182 0.0261885 -3.51906e-31)
(1.00341 0.0257678 3.51906e-31)
(1.00496 0.0252587 0)
(1.00645 0.0246678 0)
(1.00788 0.0240015 -5.02492e-13)
(1.00924 0.0232658 5.02492e-13)
(1.01055 0.0224665 0)
(1.01178 0.021609 0)
(1.01296 0.0206983 0)
(1.01406 0.0197393 0)
(1.0151 0.0187362 0)
(1.01607 0.0176932 0)
(1.01697 0.0166141 0)
(1.01781 0.0155023 0)
(1.01858 0.0143613 0)
(1.01928 0.0131942 0)
(1.01992 0.0120037 1.24119e-12)
(1.0205 0.0107926 -1.24119e-12)
(1.021 0.00956354 0)
(1.02145 0.00831888 0)
(1.02183 0.00706094 0)
(1.02214 0.00579193 0)
(1.02239 0.00451398 8.87467e-29)
(1.02258 0.00322914 -8.87467e-29)
(1.02271 0.00193944 -8.34554e-29)
(1.02277 0.000646811 8.43517e-29)
(0.979707 0.018182 0)
(0.98111 0.0193919 0)
(0.982547 0.0205397 0)
(0.984022 0.0215753 0)
(0.985535 0.0224767 0)
(0.987082 0.0232473 0)
(0.988659 0.0238886 0)
(0.990262 0.0244016 0)
(0.991881 0.0247883 0)
(0.993511 0.025052 0)
(0.99514 0.0251967 0)
(0.996762 0.025227 0)
(0.998367 0.0251482 0)
(0.999946 0.024966 0)
(1.00149 0.0246864 0)
(1.003 0.0243154 0)
(1.00447 0.0238591 3.03218e-13)
(1.00588 0.0233234 -3.03218e-13)
(1.00724 0.0227144 0)
(1.00855 0.0220374 0)
(1.0098 0.021298 0)
(1.01098 0.0205011 0)
(1.01211 0.0196516 0)
(1.01317 0.0187539 0)
(1.01417 0.0178123 1.46912e-29)
(1.0151 0.0168308 -1.46912e-29)
(1.01597 0.015813 0)
(1.01678 0.0147623 0)
(1.01752 0.0136821 0)
(1.0182 0.0125755 0)
(1.01882 0.0114452 0)
(1.01938 0.0102939 0)
(1.01987 0.0091244 0)
(1.0203 0.00793897 0)
(1.02066 0.00673998 2.14766e-29)
(1.02097 0.00552968 -2.14766e-29)
(1.02122 0.00431023 -2.20318e-29)
(1.0214 0.00308373 2.20318e-29)
(1.02152 0.00185224 -1.33219e-12)
(1.02158 0.000617751 1.3465e-12)
(0.980935 0.0168765 1.06019e-12)
(0.982226 0.0180185 0)
(0.983549 0.0191037 -4.42529e-29)
(0.984908 0.0200867 1.67627e-29)
(0.986305 0.0209474 0)
(0.987735 0.0216885 0)
(0.97592 0.0198685 3.73204e-22)
(0.977398 0.0184306 -2.49957e-22)
(0.978785 0.0170976 -2.49736e-22)
(0.975358 0.0191635 5.85528e-22)
(0.976882 0.0177734 -2.61653e-22)
(0.978311 0.0164852 -1.36309e-24)
(0.974801 0.0184409 -8.93477e-23)
(0.976372 0.0171001 -2.22092e-22)
(0.977843 0.0158581 -8.12108e-23)
(0.97425 0.0177086 4.03809e-22)
(0.975868 0.016418 1.21415e-22)
(0.977381 0.0152228 2.79313e-23)
(0.973708 0.0169628 -1.89638e-22)
(0.975371 0.0157235 1.00958e-22)
(0.976926 0.0145764 5.89419e-23)
(0.973177 0.0162021 2.52825e-22)
(0.974885 0.0150156 -2.54503e-22)
(0.97648 0.0139176 -1.61009e-23)
(0.972657 0.0154267 9.57738e-23)
(0.97441 0.0142943 2.90839e-22)
(0.976045 0.0132469 1.76985e-22)
(0.972152 0.014637 -1.43161e-22)
(0.973948 0.0135601 -2.4145e-22)
(0.975623 0.0125644 6.17427e-22)
(0.971663 0.0138332 3.36188e-22)
(0.973501 0.0128132 -2.545e-22)
(0.975214 0.0118703 -4.40216e-22)
(0.971192 0.0130155 -5.27798e-23)
(0.973071 0.0120537 -6.52036e-24)
(0.974821 0.0111649 -8.52901e-23)
(0.970741 0.0121843 -5.63589e-23)
(0.97266 0.0112821 -7.61229e-23)
(0.974446 0.0104486 3.60197e-22)
(0.970312 0.0113401 -1.36544e-22)
(0.972269 0.0104987 1.95509e-22)
(0.974089 0.00972167 -2.29255e-22)
(0.967763 0.0113264 -7.33805e-22)
(0.969908 0.0104834 7.05046e-22)
(0.971901 0.00970414 -3.43835e-22)
(0.973753 0.00898465 2.53525e-22)
(0.967347 0.0103896 -1.81434e-22)
(0.96953 0.00961489 -1.62031e-22)
(0.971556 0.00889891 -8.06735e-23)
(0.966962 0.00944036 2.16383e-22)
(0.969179 0.0087352 1.01019e-22)
(0.971237 0.00808366 5.94773e-23)
(0.966609 0.00847954 -3.05619e-23)
(0.968859 0.00784514 -1.43472e-22)
(0.970945 0.0072591 -4.80444e-23)
(0.96629 0.00750811 1.56151e-22)
(0.968569 0.00694557 -5.11092e-24)
(0.970682 0.00642603 -1.56172e-22)
(0.966007 0.0065271 1.96686e-22)
(0.968312 0.00603743 -8.29271e-24)
(0.970448 0.00558528 -1.93784e-22)
(0.965762 0.00553763 1.55062e-22)
(0.96809 0.00512173 -1.52656e-22)
(0.970246 0.00473775 5.87351e-23)
(0.965556 0.00454087 1.47102e-22)
(0.967902 0.0041995 -1.09824e-22)
(0.970076 0.00388439 1.92481e-23)
(0.965389 0.00353806 -2.73182e-23)
(0.967751 0.00327188 1.1108e-22)
(0.969938 0.00302619 -2.91349e-24)
(0.965263 0.00253049 6.57222e-23)
(0.967637 0.00234 -4.16293e-23)
(0.969835 0.00216419 -3.18575e-23)
(0.965179 0.0015195 -5.96508e-23)
(0.967561 0.00140506 2.60736e-23)
(0.969765 0.00129945 -7.6489e-23)
(0.965137 0.00050644 1.47634e-23)
(0.967522 0.000468279 -1.09361e-23)
(0.96973 0.000433064 1.75172e-23)
)
;

boundaryField
{
    inlet
    {
        type            uniformFixedValue;
        uniformValue    constant (1 0 0);
        value           nonuniform 0();
    }
    outlet
    {
        type            pressureInletOutletVelocity;
        value           nonuniform 0();
    }
    cylinder
    {
        type            fixedValue;
        value           nonuniform 0();
    }
    top
    {
        type            symmetryPlane;
    }
    bottom
    {
        type            symmetryPlane;
    }
    defaultFaces
    {
        type            empty;
    }
    procBoundary50to49
    {
        type            processor;
        value           nonuniform List<vector> 
131
(
(0.962559 -0.000548634 2.19268e-24)
(0.962606 -0.00164423 2.32709e-23)
(0.962699 -0.0027375 1.33116e-23)
(0.962838 -0.00382694 1.90044e-23)
(0.963022 -0.00491104 -2.7491e-23)
(0.963249 -0.00598838 1.10853e-22)
(0.96352 -0.00705755 1.19599e-22)
(0.963831 -0.00811725 8.98974e-23)
(0.964183 -0.00916624 1.953e-23)
(0.964571 -0.0102034 -1.17646e-23)
(0.964996 -0.0112276 -3.67698e-22)
(0.965454 -0.0122379 4.63379e-22)
(0.968207 -0.0122509 -3.00454e-22)
(0.968207 -0.0122509 -3.00454e-22)
(0.968678 -0.0131606 2.06617e-22)
(0.969173 -0.0140558 -1.2255e-22)
(0.969689 -0.0149361 -2.43973e-22)
(0.970225 -0.0158009 1.85717e-22)
(0.970779 -0.0166502 -4.00541e-22)
(0.971348 -0.0174835 1.59147e-22)
(0.97193 -0.0183006 3.55787e-23)
(0.972523 -0.0191012 -5.78792e-22)
(0.973124 -0.019887 2.43859e-22)
(0.973732 -0.0206621 -4.05488e-22)
(0.974346 -0.021418 -1.24316e-22)
(0.977014 -0.0211102 0)
(0.977014 -0.0211102 0)
(0.978676 -0.0224661 0)
(0.980376 -0.0237475 0)
(0.982117 -0.0248931 0)
(0.983896 -0.0258771 0)
(0.98571 -0.0267044 0)
(0.987552 -0.0273781 0)
(0.989414 -0.0279004 0)
(0.991286 -0.0282754 -1.6305e-29)
(0.99316 -0.028508 1.6305e-29)
(0.995024 -0.0286044 0)
(0.996869 -0.0285713 0)
(0.998685 -0.028416 0)
(1.00046 -0.0281462 0)
(1.0022 -0.0277696 0)
(1.00388 -0.027294 0)
(1.0055 -0.0267269 -6.14813e-30)
(1.00707 -0.0260757 6.14813e-30)
(1.00856 -0.0253473 -1.22205e-29)
(1.00999 -0.0245483 1.22205e-29)
(1.01136 -0.0236848 0)
(1.01265 -0.0227625 0)
(1.01387 -0.0217869 0)
(1.01502 -0.0207628 0)
(1.01609 -0.0196949 0)
(1.0171 -0.0185872 0)
(1.01803 -0.0174437 0)
(1.0189 -0.0162681 0)
(1.0197 -0.0150636 0)
(1.02042 -0.0138334 0)
(1.02108 -0.0125804 2.21007e-29)
(1.02167 -0.0113072 -2.21007e-29)
(1.0222 -0.0100165 0)
(1.02265 -0.00871056 0)
(1.02304 -0.00739171 0)
(1.02337 -0.00606212 0)
(1.02363 -0.00472385 0)
(1.02382 -0.0033789 0)
(1.02395 -0.00202923 1.49941e-12)
(1.02402 -0.000676731 -1.51551e-12)
(0.975538 0.0227435 0)
(0.97735 0.0241778 0)
(0.979201 0.0255301 0)
(0.981095 0.0267329 0)
(0.983028 0.0277583 1.9248e-30)
(0.984994 0.0286124 -1.9248e-30)
(0.986985 0.0292989 0)
(0.988993 0.0298213 0)
(0.991007 0.0301845 8.5791e-13)
(0.993016 0.0303948 -8.5791e-13)
(0.995009 0.0304596 0)
(0.996976 0.0303868 0)
(0.998906 0.030185 -7.5126e-32)
(1.00079 0.029863 7.5126e-32)
(1.00262 0.0294296 4.65328e-31)
(1.0044 0.0288935 -4.65328e-31)
(1.0061 0.0282631 4.0419e-13)
(1.00774 0.0275464 -4.0419e-13)
(1.00931 0.026751 0)
(1.01081 0.0258839 0)
(1.01223 0.0249518 0)
(1.01357 0.0239607 0)
(1.01484 0.0229162 0)
(1.01603 0.0218234 0)
(1.01715 0.0206871 1.07132e-12)
(1.01819 0.0195115 -1.07132e-12)
(1.01916 0.0183008 0)
(1.02005 0.0170584 0)
(1.02087 0.0157879 0)
(1.02162 0.0144922 0)
(1.0223 0.0131743 0)
(1.02291 0.0118369 0)
(1.02345 0.0104825 0)
(1.02392 0.00911333 0)
(1.02432 0.00773173 0)
(1.02465 0.00633977 0)
(1.02492 0.00493945 -9.98838e-29)
(1.02512 0.00353272 9.98838e-29)
(1.02525 0.00212145 -1.59017e-12)
(1.02532 0.000707458 1.60725e-12)
(0.974346 0.0214172 1.2585e-22)
(0.973732 0.0206612 4.12932e-22)
(0.973124 0.0198861 -2.61632e-22)
(0.972522 0.0191004 6.11223e-22)
(0.97193 0.0182998 -3.6848e-23)
(0.971348 0.0174826 -1.77894e-22)
(0.970779 0.0166493 4.07576e-22)
(0.970225 0.0158001 -1.17392e-22)
(0.969689 0.0149352 8.51875e-23)
(0.969172 0.014055 1.23511e-22)
(0.968678 0.0131597 -6.28118e-23)
(0.968207 0.01225 2.35699e-22)
(0.968207 0.01225 2.35699e-22)
(0.965453 0.012237 -5.55428e-22)
(0.964996 0.0112267 4.00558e-22)
(0.964571 0.0102025 2.73676e-24)
(0.964182 0.00916535 5.99819e-24)
(0.963831 0.00811635 -8.38407e-23)
(0.96352 0.00705665 -1.39326e-22)
(0.963249 0.00598748 -3.05928e-22)
(0.963021 0.00491014 3.64229e-23)
(0.962838 0.00382604 -1.05446e-22)
(0.962699 0.0027366 -4.51796e-24)
(0.962606 0.00164333 -1.86479e-23)
(0.962559 0.000547733 3.43729e-24)
)
;
    }
    procBoundary50to51
    {
        type            processor;
        value           nonuniform List<vector> 
133
(
(0.971774 -0.000401389 -5.54152e-25)
(0.971806 -0.00120289 4.34116e-23)
(0.971869 -0.00200291 5.31155e-23)
(0.971964 -0.00280048 -2.04019e-22)
(0.972089 -0.00359464 8.2176e-23)
(0.972244 -0.00438447 -3.41328e-23)
(0.972428 -0.00516907 2.07553e-23)
(0.972641 -0.00594759 2.18211e-24)
(0.972881 -0.00671922 9.62993e-23)
(0.973147 -0.00748319 -5.39482e-23)
(0.973438 -0.00823881 1.28171e-22)
(0.973438 -0.00823881 1.28171e-22)
(0.975473 -0.00832185 2.78845e-23)
(0.975781 -0.00900559 4.03735e-22)
(0.976107 -0.0096802 -4.03178e-22)
(0.976451 -0.0103453 -2.48246e-22)
(0.97681 -0.0110004 -6.43078e-23)
(0.977184 -0.0116453 -2.77843e-23)
(0.977572 -0.0122798 -5.37318e-22)
(0.97797 -0.0129036 -6.0113e-23)
(0.978379 -0.0135164 -7.9043e-23)
(0.978796 -0.0141181 -1.59018e-22)
(0.979221 -0.0147096 3.9457e-22)
(0.979651 -0.0152936 -1.54851e-22)
(0.980086 -0.015864 7.79249e-13)
(0.980086 -0.015864 7.79249e-13)
(0.982088 -0.0156689 -1.06019e-12)
(0.983277 -0.0167462 4.45829e-29)
(0.984497 -0.0177715 4.42528e-29)
(0.985752 -0.0187036 -8.50199e-13)
(0.987042 -0.0195244 -7.73693e-13)
(0.988365 -0.0202357 -6.94019e-13)
(0.98972 -0.0208383 -6.12132e-13)
(0.991101 -0.021332 -5.28454e-13)
(0.992504 -0.0217178 -8.86783e-13)
(0.993921 -0.0219975 -3.57373e-13)
(0.995345 -0.0221734 0)
(0.996769 -0.0222488 0)
(0.998185 -0.0222273 -1.27493e-31)
(0.999585 -0.022113 -1.16113e-14)
(1.00096 -0.0219104 7.34443e-14)
(1.00231 -0.0216243 0)
(1.00363 -0.0212593 -2.50879e-13)
(1.0049 -0.0208205 5.7107e-13)
(1.00614 -0.0203126 7.9743e-13)
(1.00732 -0.0197403 9.49936e-13)
(1.00846 -0.0191083 5.48731e-13)
(1.00954 -0.018421 9.1228e-30)
(1.01057 -0.0176827 0)
(1.01155 -0.0168973 3.14529e-29)
(1.01247 -0.0160688 8.15141e-13)
(1.01333 -0.0152008 8.73791e-13)
(1.01414 -0.0142968 9.28996e-13)
(1.01489 -0.01336 9.80648e-13)
(1.01558 -0.0123936 4.29573e-29)
(1.01621 -0.0114004 1.07291e-12)
(1.01678 -0.0103834 1.11337e-12)
(1.0173 -0.00934518 0)
(1.01776 -0.00828827 1.18259e-12)
(1.01816 -0.00721514 1.21126e-12)
(1.01851 -0.00612813 0)
(1.01879 -0.00502951 1.25649e-12)
(1.01902 -0.00392149 1.27299e-12)
(1.01919 -0.00280621 1.28538e-12)
(1.01931 -0.00168579 2.47616e-12)
(1.01936 -0.000562278 -1.19521e-12)
(0.989196 0.0223111 0)
(0.990684 0.0228155 0)
(0.992191 0.0232032 0)
(0.99371 0.0234765 0)
(0.995234 0.0236387 -2.1554e-13)
(0.996753 0.0236936 2.1554e-13)
(0.998261 0.0236457 -9.7564e-14)
(0.999749 0.0234997 -1.16116e-14)
(1.00121 0.0232609 -1.27177e-30)
(1.00264 0.0229346 1.27177e-30)
(1.00402 0.0225263 2.75745e-13)
(1.00537 0.0220413 -2.75745e-13)
(1.00667 0.0214849 -4.27421e-13)
(1.00791 0.0208624 4.27421e-13)
(1.0091 0.0201787 0)
(1.01024 0.0194385 0)
(1.01131 0.0186463 0)
(1.01233 0.0178066 0)
(1.01329 0.0169231 8.20792e-13)
(1.01419 0.0159999 -8.20792e-13)
(1.01503 0.0150404 0)
(1.01581 0.0140481 0)
(1.01652 0.0130261 0)
(1.01718 0.0119774 0)
(1.01778 0.0109049 -2.23582e-29)
(1.01831 0.00981135 2.23582e-29)
(1.01879 0.0086992 0)
(1.0192 0.00757095 0)
(1.01956 0.00642896 -2.46035e-29)
(1.01986 0.00527547 2.46035e-29)
(1.02009 0.00411267 -1.8737e-29)
(1.02027 0.00294271 9.59026e-29)
(1.02039 0.00176766 -2.51054e-12)
(1.02045 0.000589565 2.53751e-12)
(0.982088 0.0156682 -1.06019e-12)
(0.980086 0.0158633 7.79252e-13)
(0.983277 0.0167455 0)
(0.984497 0.0177708 -4.42529e-29)
(0.985752 0.018703 1.67627e-29)
(0.987041 0.0195237 0)
(0.989196 0.0223111 0)
(0.988365 0.0202351 0)
(0.980086 0.0158633 7.79252e-13)
(0.979651 0.0152929 1.4206e-22)
(0.979221 0.0147089 -4.09064e-22)
(0.978796 0.0141174 2.05709e-22)
(0.978379 0.0135157 8.90308e-23)
(0.97797 0.0129029 -3.39126e-22)
(0.977571 0.0122791 5.42921e-22)
(0.977184 0.0116446 4.5194e-22)
(0.97681 0.0109997 -3.45632e-22)
(0.97645 0.0103445 1.5911e-22)
(0.976107 0.00967946 5.39664e-22)
(0.97578 0.00900485 -4.50982e-22)
(0.975473 0.00832111 -6.30241e-24)
(0.973438 0.00823804 -1.40609e-22)
(0.973438 0.00823804 -1.40609e-22)
(0.973147 0.00748242 1.22653e-22)
(0.972881 0.00671844 -1.0816e-22)
(0.972641 0.00594681 -4.76632e-23)
(0.972428 0.00516829 -3.4895e-23)
(0.972244 0.00438369 7.94414e-23)
(0.972089 0.00359386 -7.24828e-23)
(0.971964 0.0027997 1.79789e-22)
(0.971869 0.00200213 -7.52895e-23)
(0.971806 0.00120211 -4.11924e-23)
(0.971774 0.000400605 5.01639e-24)
)
;
    }
}


// ************************************************************************* //
