/*--------------------------------*- C++ -*----------------------------------*\
  =========                 |
  \\      /  F ield         | OpenFOAM: The Open Source CFD Toolbox
   \\    /   O peration     | Website:  https://openfoam.org
    \\  /    A nd           | Version:  7
     \\/     M anipulation  |
\*---------------------------------------------------------------------------*/
FoamFile
{
    version     2.0;
    format      ascii;
    class       volScalarField;
    location    "20";
    object      p;
}
// * * * * * * * * * * * * * * * * * * * * * * * * * * * * * * * * * * * * * //

dimensions      [0 2 -2 0 0 0 0];

internalField   nonuniform List<scalar> 
183
(
0.0895776
0.0869589
0.0836408
0.0801237
0.0764108
0.0726079
0.0689277
0.0653982
0.0619782
0.0587838
0.0558889
0.0532457
0.0508183
0.0486082
0.0466456
0.0449989
0.0436116
0.0424625
0.041591
0.041028
0.0407298
0.0834657
0.0813068
0.0790562
0.0766779
0.0742226
0.0717102
0.0691298
0.0665025
0.0638918
0.0613201
0.0588113
0.0564189
0.0541866
0.0521427
0.0503064
0.0486811
0.0473059
0.046201
0.0453648
0.0447973
0.0445209
0.0911095
0.0845826
0.0915345
0.0849389
0.0919011
0.0852781
0.092276
0.0855889
0.092643
0.0858957
0.0929941
0.0861848
0.0933299
0.0864552
0.0936502
0.0867079
0.0939537
0.0869428
0.0942392
0.0871597
0.0945058
0.0873587
0.0947522
0.0875394
0.0949774
0.0877021
0.0960174
0.0951803
0.0878466
0.0961234
0.0953601
0.0879729
0.0962137
0.0955159
0.0880811
0.0962887
0.095647
0.0881712
0.0963486
0.0957527
0.0882432
0.096394
0.0958327
0.0882971
0.0964251
0.0958866
0.0883329
0.0964447
0.095914
0.0883507
0.0964476
0.0959145
0.0883505
0.0964339
0.0958881
0.0883322
0.0964075
0.0958351
0.0882959
0.0963664
0.0957559
0.0882415
0.0963088
0.0956512
0.0881691
0.0962372
0.095522
0.0880785
0.0961654
0.0953687
0.0879697
0.0951909
0.0878428
0.0949897
0.0876976
0.0947661
0.0875343
0.0945213
0.0873528
0.0942562
0.087153
0.093972
0.0869352
0.0936699
0.0866993
0.093351
0.0864457
0.0930165
0.0861745
0.092666
0.0858834
0.0922988
0.0855713
0.0919327
0.0852674
0.0915587
0.0849234
0.0911357
0.0845647
0.0896087
0.0834427
0.0869929
0.0812631
0.0837151
0.078987
0.0801845
0.0765843
0.0764529
0.0740962
0.0727327
0.0715381
0.0690366
0.0689446
0.0653717
0.0663375
0.0619247
0.063733
0.0586709
0.0611868
0.0556681
0.0587224
0.052925
0.0563715
0.0504315
0.0541759
0.0482625
0.0521441
0.0464181
0.0503013
0.0448588
0.0486782
0.0435399
0.0473069
0.0424913
0.0461894
0.0417335
0.0453295
0.0412244
0.0447559
0.0409579
0.0444757
)
;

boundaryField
{
    inlet
    {
        type            zeroGradient;
    }
    outlet
    {
        type            fixedValue;
        value           nonuniform 0();
    }
    cylinder
    {
        type            zeroGradient;
    }
    top
    {
        type            symmetryPlane;
    }
    bottom
    {
        type            symmetryPlane;
    }
    defaultFaces
    {
        type            empty;
    }
    procBoundary0to1
    {
        type            processor;
        value           nonuniform List<scalar> 
86
(
0.0915364
0.0880269
0.0843927
0.0805985
0.0766571
0.0726322
0.0685557
0.0645706
0.0608148
0.05724
0.0537992
0.0505862
0.0477005
0.0451505
0.0428987
0.040892
0.0392249
0.0379385
0.0369593
0.0362603
0.0359588
0.0929624
0.0933258
0.093649
0.0939652
0.0942625
0.0945376
0.0947919
0.0950256
0.095239
0.0954324
0.0956056
0.0957584
0.0958953
0.0958953
0.116881
0.117264
0.117596
0.117876
0.118103
0.118274
0.118389
0.118447
0.118446
0.118395
0.118282
0.118115
0.117893
0.117615
0.117283
0.0960567
0.0960567
0.0959412
0.0958115
0.0956609
0.0954901
0.0953001
0.0950901
0.0948596
0.0946085
0.0943365
0.0940421
0.0937287
0.0934082
0.0930487
0.0916444
0.0881087
0.0844452
0.0806517
0.0766731
0.072497
0.0683317
0.0643381
0.0605063
0.0568938
0.0535201
0.0504246
0.0476419
0.045111
0.0428336
0.0408836
0.0393142
0.0380535
0.0370627
0.0364191
0.0361391
)
;
    }
}


// ************************************************************************* //
