/*--------------------------------*- C++ -*----------------------------------*\
  =========                 |
  \\      /  F ield         | OpenFOAM: The Open Source CFD Toolbox
   \\    /   O peration     | Website:  https://openfoam.org
    \\  /    A nd           | Version:  7
     \\/     M anipulation  |
\*---------------------------------------------------------------------------*/
FoamFile
{
    version     2.0;
    format      ascii;
    class       surfaceScalarField;
    location    "30";
    object      phi;
}
// * * * * * * * * * * * * * * * * * * * * * * * * * * * * * * * * * * * * * //

dimensions      [0 3 -1 0 0 0 0];

internalField   nonuniform List<scalar> 
652
(
0.000629049
-0.00819509
-0.000581616
0.000672031
-0.00819808
0.000710663
-0.00820151
0.000744664
-0.00820508
0.000773867
-0.00820873
0.000798193
-0.00821237
0.000817645
-0.00821596
0.000832296
-0.00821947
0.000842274
-0.00822288
0.000847755
-0.00822616
0.000848952
-0.0082293
0.000846108
-0.00823229
0.000839482
-0.00823513
0.000829347
-0.0082378
0.000815978
-0.00824032
0.000799647
-0.00824267
0.000780618
-0.00824486
0.000759146
-0.00824689
0.000735469
-0.00824877
0.000709811
-0.00825049
0.000682381
-0.00825207
0.000653368
-0.0082535
0.000622949
-0.0082548
0.000591282
-0.00825597
0.000558514
-0.00825703
0.000524774
-0.00825797
0.000490183
-0.00825881
0.000454847
-0.00825955
0.000418863
-0.0082602
0.000382317
-0.00826077
0.000345288
-0.00826127
0.000307845
-0.0082617
0.000270052
-0.00826207
0.000231966
-0.00826238
0.000193638
-0.00826263
0.000155115
-0.00826284
0.000116441
-0.008263
7.76563e-05
-0.00826312
3.87964e-05
-0.0082632
-0.00826328
0.000339195
-0.00822294
-0.000311343
0.000364971
-0.00822386
0.000388143
-0.00822468
0.000408599
-0.00822554
0.000426297
-0.00822643
0.000441253
-0.00822733
0.000453518
-0.00822823
0.000463167
-0.00822912
0.00047029
-0.00823
0.000474989
-0.00823085
0.000477371
-0.00823168
0.000477545
-0.00823246
0.000475627
-0.00823321
0.000471728
-0.0082339
0.000465963
-0.00823455
0.000458446
-0.00823516
0.000449289
-0.00823571
0.000438605
-0.00823621
0.000426502
-0.00823667
0.00041309
-0.00823708
0.000398474
-0.00823745
0.000382756
-0.00823778
0.000366033
-0.00823808
0.000348401
-0.00823834
0.000329947
-0.00823857
0.000310757
-0.00823878
0.00029091
-0.00823896
0.000270478
-0.00823912
0.00024953
-0.00823926
0.000228131
-0.00823938
0.000206337
-0.00823948
0.000184203
-0.00823957
0.000161779
-0.00823964
0.000139108
-0.00823971
0.000116235
-0.00823976
9.3196e-05
-0.0082398
7.00285e-05
-0.00823983
4.67668e-05
-0.00823986
2.34453e-05
-0.00823988
-0.00823983
0.000118642
-0.000109352
0.000127016
0.000134572
0.000141265
0.00014707
0.000151975
0.000155979
0.000159089
0.000161321
0.0001627
0.000163256
0.000163026
0.000162053
0.000160381
0.00015806
0.000155138
0.000151664
0.000147687
0.000143253
0.000138406
0.000133189
0.00012764
0.000121795
0.000115688
0.000109347
0.000102802
9.60759e-05
8.91917e-05
8.21697e-05
7.50276e-05
6.77822e-05
6.0448e-05
5.30382e-05
4.5565e-05
3.80391e-05
3.04706e-05
2.28688e-05
1.52421e-05
7.59776e-06
-0.00280822
-0.000496271
-0.00288177
-0.00023779
-4.48446e-05
-0.00282291
-0.000418244
-0.00288908
-0.000171623
1.2352e-05
-0.00283715
-0.000347398
-0.00289617
-0.000112595
6.24555e-05
-0.00285087
-0.000283487
-0.00290301
-6.04547e-05
0.000105724
-0.00286406
-0.000226249
-0.00290958
-1.49361e-05
0.000142427
-0.00287669
-0.000175413
-0.00291586
2.42352e-05
0.000172842
-0.00288876
-0.000130701
-0.00292187
5.7342e-05
0.000197254
-0.00290024
-9.18251e-05
-0.00292758
8.46758e-05
0.000215955
-0.00291113
-5.84879e-05
-0.00293299
0.000106536
0.000229247
-0.00292139
-3.03844e-05
-0.00293809
0.000123231
0.000237436
-0.00293104
-7.20163e-06
-0.00294288
0.000135074
0.000240835
-0.00294004
1.13821e-05
-0.00294735
0.000142386
0.000239762
-0.00294839
2.56932e-05
-0.0029515
0.000145492
0.000234541
-0.00295608
3.60649e-05
-0.00295532
0.000144727
0.000225501
-0.00296311
4.28366e-05
-0.0029588
0.000140426
0.000212974
-0.00296945
4.6353e-05
-0.00296195
0.00013293
0.000197299
-0.00297511
4.69635e-05
-0.00296476
0.000122585
0.000178816
-0.00298007
4.50221e-05
-0.00296723
0.000109739
0.000157868
-0.00298434
4.08862e-05
-0.00296934
9.4744e-05
0.000134803
-0.0029879
3.49165e-05
-0.00297111
7.79545e-05
0.00010997
-0.0029982
-9.8184e-06
-0.00299076
2.74767e-05
-0.00297253
5.97266e-05
8.37193e-05
-0.00300145
-5.93735e-06
-0.0029929
1.89323e-05
-0.00297359
4.04185e-05
5.64047e-05
-0.00300361
-2.78611e-06
-0.00299433
9.65061e-06
-0.0029743
2.03896e-05
2.838e-05
-0.0030047
-1.88603e-13
-0.00299505
-4.09427e-12
-0.00297466
-4.63734e-12
-2.72454e-12
-0.0030047
2.78611e-06
-0.00299505
-9.65061e-06
-0.00297466
-2.03896e-05
-2.838e-05
-0.00300361
5.93735e-06
-0.00299433
-1.89323e-05
-0.0029743
-4.04185e-05
-5.64048e-05
-0.00300145
9.8184e-06
-0.0029929
-2.74767e-05
-0.00297359
-5.97266e-05
-8.37194e-05
-0.0029982
-0.00299076
-3.49166e-05
-0.00297253
-7.79545e-05
-0.00010997
-0.0029879
-4.08862e-05
-0.00297111
-9.47441e-05
-0.000134803
-0.00298434
-4.50221e-05
-0.00296934
-0.000109739
-0.000157868
-0.00298007
-4.69636e-05
-0.00296723
-0.000122585
-0.000178816
-0.00297511
-4.6353e-05
-0.00296476
-0.00013293
-0.000197299
-0.00296945
-4.28366e-05
-0.00296195
-0.000140426
-0.000212974
-0.00296311
-3.60649e-05
-0.0029588
-0.000144727
-0.000225501
-0.00295608
-2.56932e-05
-0.00295532
-0.000145492
-0.000234541
-0.00294839
-1.13821e-05
-0.0029515
-0.000142386
-0.000239762
-0.00294004
7.20162e-06
-0.00294735
-0.000135074
-0.000240835
-0.00293104
3.03844e-05
-0.00294288
-0.000123231
-0.000237436
-0.00292139
5.84879e-05
-0.00293809
-0.000106536
-0.000229247
-0.00291113
9.18251e-05
-0.00293299
-8.46758e-05
-0.000215955
-0.00290024
0.000130701
-0.00292758
-5.7342e-05
-0.000197254
-0.00288876
0.000175413
-0.00292187
-2.42352e-05
-0.000172842
-0.00287669
0.000226249
-0.00291586
1.49361e-05
-0.000142427
-0.00286406
0.000283487
-0.00290958
6.04547e-05
-0.000105724
-0.00285087
0.000347398
-0.00290301
0.000112595
-6.24555e-05
-0.00283715
0.000418244
-0.00289617
0.000171623
-1.2352e-05
-0.00282291
0.000496271
-0.00288908
0.00023779
4.48446e-05
-0.00280822
0.000581616
-0.00288177
0.000311343
0.000109352
-0.00819509
0.000629049
-0.00822294
0.000339195
0.000118642
-0.00819808
0.000672031
-0.00822386
0.000364971
0.000127016
-0.00820151
0.000710663
-0.00822468
0.000388143
0.000134572
-0.00820508
0.000744664
-0.00822554
0.000408599
0.000141265
-0.00820873
0.000773867
-0.00822643
0.000426297
0.00014707
-0.00821237
0.000798193
-0.00822733
0.000441253
0.000151975
-0.00821596
0.000817645
-0.00822823
0.000453518
0.000155979
-0.00821947
0.000832296
-0.00822912
0.000463167
0.000159089
-0.00822288
0.000842274
-0.00823
0.00047029
0.000161321
-0.00822616
0.000847755
-0.00823085
0.000474989
0.0001627
-0.0082293
0.000848952
-0.00823168
0.000477371
0.000163256
-0.00823229
0.000846108
-0.00823246
0.000477545
0.000163026
-0.00823513
0.000839482
-0.00823321
0.000475627
0.000162053
-0.0082378
0.000829347
-0.0082339
0.000471728
0.000160381
-0.00824032
0.000815978
-0.00823455
0.000465963
0.00015806
-0.00824267
0.000799647
-0.00823516
0.000458446
0.000155138
-0.00824486
0.000780618
-0.00823571
0.000449289
0.000151664
-0.00824689
0.000759146
-0.00823621
0.000438605
0.000147687
-0.00824877
0.000735469
-0.00823667
0.000426502
0.000143253
-0.00825049
0.000709811
-0.00823708
0.00041309
0.000138406
-0.00825207
0.000682381
-0.00823745
0.000398474
0.000133189
-0.0082535
0.000653368
-0.00823778
0.000382756
0.00012764
-0.0082548
0.000622949
-0.00823808
0.000366033
0.000121795
-0.00825597
0.000591282
-0.00823834
0.000348401
0.000115688
-0.00825703
0.000558514
-0.00823857
0.000329947
0.000109347
-0.00825797
0.000524774
-0.00823878
0.000310757
0.000102802
-0.00825881
0.000490183
-0.00823896
0.00029091
9.60758e-05
-0.00825955
0.000454847
-0.00823912
0.000270478
8.91917e-05
-0.0082602
0.000418863
-0.00823926
0.00024953
8.21697e-05
-0.00826077
0.000382317
-0.00823938
0.000228131
7.50276e-05
-0.00826127
0.000345288
-0.00823948
0.000206337
6.77822e-05
-0.0082617
0.000307845
-0.00823957
0.000184203
6.0448e-05
-0.00826207
0.000270052
-0.00823964
0.000161779
5.30382e-05
-0.00826238
0.000231966
-0.00823971
0.000139108
4.5565e-05
-0.00826263
0.000193638
-0.00823976
0.000116235
3.80391e-05
-0.00826284
0.000155115
-0.0082398
9.3196e-05
3.04706e-05
-0.008263
0.000116441
-0.00823983
7.00285e-05
2.28687e-05
-0.00826312
7.76563e-05
-0.00823986
4.67668e-05
1.52421e-05
-0.0082632
3.87964e-05
-0.00823988
2.34454e-05
7.59776e-06
-0.00826328
-0.00823983
)
;

boundaryField
{
    inlet
    {
        type            calculated;
        value           nonuniform List<scalar> 
128
(
-0.00823223
-0.00823223
-0.00823223
-0.00823223
-0.00823223
-0.00823223
-0.00823223
-0.00823223
-0.00823223
-0.00823223
-0.00823223
-0.00823223
-0.00823223
-0.00823223
-0.00823223
-0.00823223
-0.00823223
-0.00823223
-0.00823223
-0.00823223
-0.00823223
-0.00823223
-0.00823223
-0.00823223
-0.00823223
-0.00823223
-0.00823223
-0.00823223
-0.00823223
-0.00823223
-0.00823223
-0.00823223
-0.00823223
-0.00823223
-0.00823223
-0.00823223
-0.00823223
-0.00823223
-0.00823223
-0.00823223
-0.00294628
-0.00294628
-0.00294628
-0.00294628
-0.00294628
-0.00294628
-0.00294628
-0.00294628
-0.00294628
-0.00294628
-0.00294628
-0.00294628
-0.00294628
-0.00294628
-0.00294628
-0.00294628
-0.00294628
-0.00294628
-0.00294628
-0.00294628
-0.00294628
-0.00294628
-0.00294628
-0.00294628
-0.00294628
-0.00294628
-0.00294628
-0.00294628
-0.00294628
-0.00294628
-0.00294628
-0.00294628
-0.00294628
-0.00294628
-0.00294628
-0.00294628
-0.00294628
-0.00294628
-0.00294628
-0.00294628
-0.00294628
-0.00294628
-0.00294628
-0.00294628
-0.00294628
-0.00294628
-0.00294628
-0.00294628
-0.00823223
-0.00823223
-0.00823223
-0.00823223
-0.00823223
-0.00823223
-0.00823223
-0.00823223
-0.00823223
-0.00823223
-0.00823223
-0.00823223
-0.00823223
-0.00823223
-0.00823223
-0.00823223
-0.00823223
-0.00823223
-0.00823223
-0.00823223
-0.00823223
-0.00823223
-0.00823223
-0.00823223
-0.00823223
-0.00823223
-0.00823223
-0.00823223
-0.00823223
-0.00823223
-0.00823223
-0.00823223
-0.00823223
-0.00823223
-0.00823223
-0.00823223
-0.00823223
-0.00823223
-0.00823223
-0.00823223
)
;
    }
    outlet
    {
        type            calculated;
        value           nonuniform 0();
    }
    cylinder
    {
        type            calculated;
        value           nonuniform 0();
    }
    top
    {
        type            symmetryPlane;
        value           uniform 0;
    }
    bottom
    {
        type            symmetryPlane;
        value           uniform 0;
    }
    defaultFaces
    {
        type            empty;
        value           nonuniform 0();
    }
    procBoundary0to1
    {
        type            processor;
        value           nonuniform List<scalar> 
130
(
0.00814766
0.0081551
0.00816287
0.00817108
0.00817953
0.00818805
0.00819651
0.00820482
0.0082129
0.00822067
0.0082281
0.00823513
0.00824175
0.00824794
0.00825369
0.008259
0.00826389
0.00826837
0.00827245
0.00827615
0.0082795
0.00828251
0.00828522
0.00828764
0.0082898
0.00829171
0.0082934
0.00829488
0.00829619
0.00829732
0.0082983
0.00829914
0.00829986
0.00830046
0.00830096
0.00830136
0.00830168
0.00830191
0.00830206
0.00830207
0.00272287
0.00274489
0.0027663
0.00278696
0.00280682
0.00282586
0.00284405
0.00286137
0.00287779
0.00289329
0.00290785
0.00292146
0.00293408
0.00294571
0.00295633
0.00296593
0.0029745
0.00298201
0.00298847
0.00299387
1.47931e-05
0.00299322
0.00299756
0.00300046
0.00300191
0.00300191
0.00300046
0.00299756
0.00299322
1.47931e-05
0.00299387
0.00298847
0.00298201
0.0029745
0.00296593
0.00295633
0.00294571
0.00293408
0.00292146
0.00290785
0.00289329
0.00287779
0.00286137
0.00284405
0.00282586
0.00280682
0.00278696
0.0027663
0.00274489
0.00272287
0.00814766
0.0081551
0.00816287
0.00817108
0.00817953
0.00818805
0.00819651
0.00820482
0.0082129
0.00822067
0.0082281
0.00823513
0.00824175
0.00824794
0.00825369
0.008259
0.00826389
0.00826837
0.00827245
0.00827615
0.0082795
0.00828251
0.00828522
0.00828764
0.0082898
0.00829171
0.0082934
0.00829488
0.00829619
0.00829732
0.0082983
0.00829914
0.00829986
0.00830046
0.00830096
0.00830136
0.00830168
0.00830191
0.00830206
0.00830207
)
;
    }
}


// ************************************************************************* //
