/*--------------------------------*- C++ -*----------------------------------*\
  =========                 |
  \\      /  F ield         | OpenFOAM: The Open Source CFD Toolbox
   \\    /   O peration     | Website:  https://openfoam.org
    \\  /    A nd           | Version:  7
     \\/     M anipulation  |
\*---------------------------------------------------------------------------*/
FoamFile
{
    version     2.0;
    format      ascii;
    class       volScalarField;
    location    "70";
    object      p;
}
// * * * * * * * * * * * * * * * * * * * * * * * * * * * * * * * * * * * * * //

dimensions      [0 2 -2 0 0 0 0];

internalField   nonuniform List<scalar> 
183
(
-0.415743
-0.416146
-0.417098
-0.417587
-0.414972
-0.413074
-0.419982
-0.413834
-0.408628
-0.423036
-0.412742
-0.403584
-0.426765
-0.411713
-0.39786
-0.431113
-0.410899
-0.391665
-0.43593
-0.410606
-0.385588
-0.411041
-0.380209
-0.411867
-0.375024
-0.412355
-0.368659
-0.363727
-0.358619
-0.390261
-0.397711
-0.390779
-0.404746
-0.397198
-0.411185
-0.403186
-0.416856
-0.397473
-0.408469
-0.421594
-0.402204
-0.4128
-0.425325
-0.406033
-0.415862
-0.427213
-0.408969
-0.417643
-0.427432
-0.411153
-0.41829
-0.426208
-0.412817
-0.418057
-0.423858
-0.414243
-0.417245
-0.420732
-0.426971
-0.417214
-0.407004
-0.396024
-0.383888
-0.357112
-0.37034
-0.322445
-0.355333
-0.282714
-0.33892
-0.239877
-0.321095
-0.196196
-0.301625
-0.153592
-0.280606
-0.112543
-0.258036
-0.0737971
-0.234463
-0.0382682
-0.211645
-0.00669575
-0.191474
0.0200225
-0.175462
0.0411724
-0.164435
0.0564555
-0.158283
0.0660935
-0.156831
0.0708476
-0.161563
0.0708769
-0.167061
0.0662899
0.0692191
0.0127567
-0.0103839
-0.026133
-0.0348445
-0.038316
-0.0381511
-0.0359728
-0.0326274
-0.0288069
-0.0249424
-0.0212535
-0.0178947
-0.0149113
-0.0123285
-0.0101489
-0.00835877
-0.00695036
-0.00590271
-0.00521714
-0.00486812
-0.0016585
0.00185345
0.00459557
0.00679583
0.0083901
0.00963988
0.0103421
0.0107536
-0.251153
-0.17759
-0.140271
-0.106694
-0.0820251
-0.0637315
-0.0488868
-0.0372884
-0.0278652
-0.0201799
-0.0138676
-0.00865141
-0.00434366
-0.000798141
0.00211472
0.00445842
0.00633351
0.00776107
0.00881241
0.00948266
0.00982396
-0.349853
-0.293179
-0.36346
-0.305849
-0.377513
-0.315538
-0.392029
-0.326971
-0.406614
-0.3394
-0.420368
-0.351911
-0.432518
-0.364353
-0.442643
-0.376675
-0.450717
-0.388765
-0.45701
-0.400514
-0.461912
-0.411806
-0.465666
-0.422468
-0.468253
-0.432256
-0.469404
-0.440895
-0.468829
-0.448104
-0.472157
-0.453636
-0.467571
-0.461376
-0.453901
-0.445471
-0.436415
)
;

boundaryField
{
    inlet
    {
        type            zeroGradient;
    }
    outlet
    {
        type            fixedValue;
        value           nonuniform 0();
    }
    cylinder
    {
        type            zeroGradient;
    }
    top
    {
        type            symmetryPlane;
    }
    bottom
    {
        type            symmetryPlane;
    }
    defaultFaces
    {
        type            empty;
    }
    procBoundary32to30
    {
        type            processor;
        value           nonuniform List<scalar> 
12
(
-0.305465
-0.296986
-0.319854
-0.332234
0.000807525
0.00394661
0.00637321
0.00837963
0.00978431
0.0109158
0.011556
0.0119365
)
;
    }
    procBoundary32to31
    {
        type            processor;
        value           nonuniform List<scalar> 
81
(
-0.416163
-0.42072
-0.426198
-0.432707
-0.440213
-0.448508
-0.45719
-0.440865
-0.440865
-0.445305
-0.448585
-0.411384
-0.411384
-0.408625
-0.353614
-0.353614
-0.347864
-0.341306
-0.334267
-0.327134
-0.320146
-0.313134
-0.341005
-0.347998
-0.354479
-0.361006
-0.367835
-0.375066
-0.38262
-0.38262
-0.377883
-0.384227
-0.384227
-0.379488
-0.385898
-0.391974
-0.391974
-0.388379
-0.393498
-0.398005
-0.401952
-0.405487
-0.408842
-0.412299
-0.157212
-0.157212
-0.134362
-0.120447
-0.105455
-0.0902633
-0.0763379
-0.0639086
-0.0532283
-0.0441717
-0.0365069
-0.0300576
-0.0245961
-0.0200146
-0.0161656
-0.0129671
-0.0103443
-0.0082285
-0.00658695
-0.00537282
-0.004592
-0.00418745
-0.320658
-0.320658
-0.244
-0.19123
-0.148694
-0.114191
-0.0877024
-0.0666085
-0.0501037
-0.0369889
-0.0265305
-0.01817
-0.0114304
-0.00600852
-0.00600852
)
;
    }
    procBoundary32to33
    {
        type            processor;
        value           nonuniform List<scalar> 
86
(
-0.438839
-0.425821
-0.408417
-0.385748
-0.385748
-0.278204
-0.278278
-0.277472
-0.274863
-0.269243
-0.259416
-0.244525
-0.224352
-0.199561
-0.171767
-0.143094
-0.11558
-0.0906664
-0.0690467
-0.050817
-0.0355638
-0.024158
-0.00682732
-0.0172616
-0.0185765
-0.0208536
-0.0225236
-0.0235372
-0.0239182
-0.0232948
-0.0219107
-0.0199572
-0.0178136
-0.0155943
-0.0134405
-0.0114327
-0.00962814
-0.00805915
-0.00674003
-0.0056865
-0.00489233
-0.0043693
-0.00410146
-0.158767
-0.104712
-0.0766026
-0.0498318
-0.0369241
-0.0266198
-0.0195447
-0.0142457
-0.0100035
-0.00648098
-0.00346159
-0.000827111
0.00147591
0.00347769
0.00520225
0.00665621
0.00785699
0.00880372
0.00951119
0.00997549
0.0102086
-0.196269
-0.2019
-0.202411
-0.205638
-0.210302
-0.214945
-0.219614
-0.224496
-0.22953
-0.234584
-0.239556
-0.24437
-0.24897
-0.253307
-0.257334
-0.26101
-0.457216
-0.457216
-0.458663
-0.457788
-0.454385
-0.448192
)
;
    }
}


// ************************************************************************* //
