/*--------------------------------*- C++ -*----------------------------------*\
  =========                 |
  \\      /  F ield         | OpenFOAM: The Open Source CFD Toolbox
   \\    /   O peration     | Website:  https://openfoam.org
    \\  /    A nd           | Version:  7
     \\/     M anipulation  |
\*---------------------------------------------------------------------------*/
FoamFile
{
    version     2.0;
    format      ascii;
    class       volScalarField;
    location    "70";
    object      p;
}
// * * * * * * * * * * * * * * * * * * * * * * * * * * * * * * * * * * * * * //

dimensions      [0 2 -2 0 0 0 0];

internalField   nonuniform List<scalar> 
928
(
0.245013
0.24221
0.239398
0.236428
0.233373
0.230274
0.227144
0.223991
0.220827
0.217663
0.214507
0.21137
0.20826
0.205183
0.202147
0.199157
0.196218
0.193336
0.190514
0.187755
0.185063
0.18244
0.179887
0.177407
0.175
0.172668
0.170411
0.16823
0.166124
0.164094
0.162139
0.160259
0.158454
0.156722
0.155064
0.153479
0.151965
0.150523
0.14915
0.147847
0.146613
0.145446
0.144346
0.143312
0.142344
0.141439
0.140599
0.139822
0.139107
0.138454
0.137862
0.13733
0.13686
0.136448
0.136097
0.135804
0.135571
0.135395
0.135279
0.135226
0.232551
0.230633
0.228654
0.226563
0.224401
0.22219
0.219937
0.217649
0.215335
0.213002
0.210656
0.208305
0.205954
0.20361
0.201277
0.198961
0.196665
0.194394
0.192153
0.189943
0.187769
0.185632
0.183536
0.181483
0.179475
0.177514
0.175601
0.173738
0.171926
0.170166
0.168459
0.166806
0.165208
0.163665
0.162177
0.160747
0.159372
0.158055
0.156795
0.155592
0.154447
0.153359
0.152328
0.151356
0.150441
0.149583
0.148783
0.148041
0.147356
0.146728
0.146158
0.145645
0.145189
0.144791
0.144449
0.144165
0.143937
0.143766
0.143652
0.143592
0.227432
0.22589
0.224307
0.222634
0.220893
0.219101
0.217263
0.215385
0.213472
0.211529
0.209564
0.207581
0.205585
0.203582
0.201577
0.199573
0.197576
0.195589
0.193616
0.191661
0.189727
0.187818
0.185936
0.184084
0.182265
0.18048
0.178733
0.177024
0.175357
0.173731
0.17215
0.170614
0.169124
0.167682
0.166288
0.164943
0.163649
0.162405
0.161213
0.160073
0.158985
0.15795
0.156968
0.15604
0.155165
0.154345
0.153578
0.152866
0.152208
0.151605
0.151057
0.150563
0.150124
0.149739
0.14941
0.149136
0.148916
0.148751
0.148642
0.148589
0.221911
0.22068
0.219394
0.218037
0.216623
0.21516
0.213653
0.212105
0.210521
0.208906
0.207264
0.2056
0.203918
0.202221
0.200515
0.198803
0.197088
0.195374
0.193666
0.191965
0.190275
0.188599
0.18694
0.1853
0.183683
0.18209
0.180524
0.178987
0.177481
0.176007
0.174568
0.173165
0.171799
0.170473
0.169187
0.167943
0.166741
0.165583
0.16447
0.163403
0.162382
0.161408
0.160482
0.159604
0.158776
0.157997
0.157268
0.15659
0.155962
0.155386
0.154861
0.154388
0.153967
0.153598
0.153282
0.153018
0.152807
0.152648
0.152542
0.152488
0.220776
0.21962
0.218411
0.21714
0.215815
0.214441
0.213022
0.211562
0.210065
0.208536
0.206979
0.205397
0.203795
0.202177
0.200546
0.198906
0.197261
0.195615
0.19397
0.192331
0.190699
0.189079
0.187473
0.185884
0.184314
0.182766
0.181243
0.179745
0.178277
0.176839
0.175433
0.174062
0.172726
0.171427
0.170167
0.168947
0.167768
0.166631
0.165538
0.164489
0.163485
0.162527
0.161615
0.160751
0.159935
0.159168
0.158449
0.157781
0.157162
0.156593
0.156075
0.155608
0.155193
0.154829
0.154516
0.154256
0.154047
0.15389
0.153786
0.153735
0.247628
0.23418
0.228696
0.222837
0.221593
0.24852
0.234786
0.229254
0.223296
0.222049
0.249123
0.235228
0.229714
0.223706
0.222482
0.24975
0.235679
0.23017
0.224107
0.222903
0.250397
0.236136
0.230623
0.224501
0.223312
0.251026
0.23658
0.231065
0.224882
0.223707
0.251633
0.237007
0.231491
0.22525
0.224089
0.252219
0.237419
0.231903
0.225605
0.224457
0.252784
0.237815
0.232301
0.225946
0.224811
0.253328
0.238196
0.232683
0.226274
0.22515
0.253849
0.238561
0.23305
0.226588
0.225475
0.254349
0.23891
0.233401
0.226887
0.225785
0.254825
0.239242
0.233737
0.227172
0.226079
0.255277
0.239558
0.234057
0.227442
0.226359
0.255706
0.239856
0.234355
0.227698
0.226623
0.25611
0.240137
0.23464
0.227939
0.226872
0.268316
0.256489
0.2404
0.234908
0.228164
0.227104
0.268732
0.256842
0.240646
0.235157
0.228374
0.227321
0.269118
0.25717
0.240873
0.235388
0.228569
0.227522
0.269474
0.257471
0.241082
0.235601
0.228747
0.227706
0.2698
0.257746
0.241273
0.235795
0.22891
0.227875
0.270094
0.257995
0.241446
0.23597
0.229057
0.228026
0.270357
0.258216
0.241599
0.236126
0.229188
0.228161
0.270588
0.25841
0.241734
0.236264
0.229303
0.22828
0.270787
0.258577
0.24185
0.236382
0.229402
0.228381
0.270953
0.258716
0.241946
0.23648
0.229484
0.228466
0.271086
0.258828
0.242024
0.236559
0.22955
0.228534
0.271186
0.258911
0.242082
0.236618
0.2296
0.228585
0.271253
0.258967
0.242121
0.236658
0.229633
0.228619
0.271286
0.258995
0.24214
0.236678
0.229649
0.228636
0.271286
0.258995
0.24214
0.236678
0.229649
0.228636
0.271253
0.258967
0.242121
0.236658
0.229633
0.228619
0.271186
0.258911
0.242082
0.236618
0.2296
0.228585
0.271086
0.258828
0.242024
0.236559
0.22955
0.228534
0.270953
0.258716
0.241946
0.23648
0.229484
0.228466
0.270787
0.258577
0.24185
0.236382
0.229402
0.228381
0.270588
0.25841
0.241734
0.236264
0.229303
0.22828
0.270357
0.258216
0.241599
0.236126
0.229188
0.228161
0.270094
0.257995
0.241446
0.23597
0.229057
0.228026
0.2698
0.257746
0.241273
0.235795
0.22891
0.227875
0.269474
0.257471
0.241082
0.235601
0.228747
0.227706
0.269118
0.25717
0.240873
0.235388
0.228569
0.227522
0.268732
0.256842
0.240646
0.235157
0.228374
0.227321
0.268316
0.256489
0.2404
0.234908
0.228164
0.227104
0.25611
0.240137
0.23464
0.227939
0.226872
0.255706
0.239856
0.234355
0.227698
0.226623
0.255277
0.239558
0.234057
0.227442
0.226359
0.254825
0.239242
0.233737
0.227172
0.226079
0.254349
0.23891
0.233401
0.226887
0.225785
0.253849
0.238561
0.23305
0.226588
0.225475
0.253328
0.238196
0.232683
0.226274
0.22515
0.252784
0.237815
0.232301
0.225946
0.224811
0.252219
0.237419
0.231903
0.225605
0.224457
0.251633
0.237007
0.231491
0.22525
0.224089
0.251026
0.23658
0.231065
0.224882
0.223707
0.250397
0.236136
0.230623
0.224501
0.223311
0.24975
0.235679
0.23017
0.224107
0.222903
0.249123
0.235228
0.229714
0.223706
0.222482
0.24852
0.234786
0.229254
0.223296
0.222049
0.247628
0.23418
0.228696
0.222837
0.221593
0.245013
0.232551
0.227432
0.221911
0.220776
0.24221
0.230633
0.22589
0.22068
0.21962
0.239398
0.228654
0.224307
0.219394
0.218411
0.236428
0.226563
0.222634
0.218037
0.21714
0.233373
0.224401
0.220893
0.216623
0.215815
0.230274
0.22219
0.219101
0.21516
0.214441
0.227144
0.219937
0.217263
0.213653
0.213022
0.223991
0.217649
0.215385
0.212105
0.211562
0.220827
0.215335
0.213472
0.210521
0.210065
0.217663
0.213002
0.211529
0.208906
0.208536
0.214507
0.210656
0.209564
0.207264
0.206979
0.21137
0.208305
0.207581
0.2056
0.205397
0.20826
0.205954
0.205585
0.203918
0.203795
0.205183
0.20361
0.203582
0.202221
0.202177
0.202147
0.201277
0.201577
0.200515
0.200546
0.199157
0.198961
0.199573
0.198803
0.198906
0.196218
0.196665
0.197576
0.197088
0.197261
0.193336
0.194394
0.195589
0.195374
0.195615
0.190514
0.192153
0.193616
0.193666
0.19397
0.187755
0.189943
0.191661
0.191965
0.192331
0.185063
0.187769
0.189727
0.190275
0.190699
0.18244
0.185632
0.187818
0.188599
0.189079
0.179887
0.183536
0.185936
0.18694
0.187473
0.177407
0.181483
0.184084
0.1853
0.185884
0.175
0.179475
0.182265
0.183683
0.184314
0.172668
0.177514
0.18048
0.18209
0.182766
0.170411
0.175601
0.178733
0.180524
0.181243
0.16823
0.173738
0.177024
0.178987
0.179745
0.166124
0.171926
0.175357
0.177481
0.178277
0.164094
0.170166
0.173731
0.176007
0.176839
0.162139
0.168459
0.17215
0.174568
0.175433
0.160259
0.166806
0.170614
0.173165
0.174062
0.158454
0.165208
0.169124
0.171799
0.172726
0.156722
0.163665
0.167682
0.170473
0.171427
0.155064
0.162177
0.166288
0.169187
0.170167
0.153479
0.160747
0.164943
0.167943
0.168947
0.151965
0.159372
0.163649
0.166741
0.167768
0.150523
0.158055
0.162405
0.165583
0.166631
0.14915
0.156795
0.161213
0.16447
0.165538
0.147847
0.155592
0.160073
0.163403
0.164489
0.146613
0.154447
0.158985
0.162382
0.163485
0.145446
0.153359
0.15795
0.161408
0.162527
0.144346
0.152328
0.156968
0.160482
0.161615
0.143312
0.151356
0.15604
0.159604
0.160751
0.142344
0.150441
0.155165
0.158776
0.159935
0.141439
0.149583
0.154345
0.157997
0.159168
0.140599
0.148783
0.153578
0.157268
0.158449
0.139822
0.148041
0.152866
0.15659
0.157781
0.139107
0.147356
0.152208
0.155962
0.157162
0.138454
0.146728
0.151605
0.155386
0.156593
0.137862
0.146158
0.151057
0.154861
0.156075
0.13733
0.145645
0.150563
0.154388
0.155608
0.13686
0.145189
0.150124
0.153967
0.155193
0.136448
0.144791
0.149739
0.153598
0.154829
0.136097
0.144449
0.14941
0.153282
0.154516
0.135804
0.144165
0.149136
0.153018
0.154256
0.135571
0.143937
0.148916
0.152807
0.154047
0.135395
0.143766
0.148751
0.152648
0.15389
0.135279
0.143652
0.148642
0.152542
0.153786
0.135226
0.143592
0.148589
0.152488
0.153735
)
;

boundaryField
{
    inlet
    {
        type            zeroGradient;
    }
    outlet
    {
        type            fixedValue;
        value           nonuniform 0();
    }
    cylinder
    {
        type            zeroGradient;
    }
    top
    {
        type            symmetryPlane;
    }
    bottom
    {
        type            symmetryPlane;
    }
    defaultFaces
    {
        type            empty;
    }
    procBoundary0to1
    {
        type            processor;
        value           nonuniform List<scalar> 
182
(
0.254257
0.250341
0.246429
0.242335
0.238185
0.234039
0.229913
0.225817
0.221764
0.217764
0.213829
0.209966
0.206181
0.20248
0.198868
0.195348
0.191923
0.188595
0.185365
0.182233
0.179201
0.176268
0.173433
0.170697
0.168058
0.165516
0.163068
0.160714
0.158452
0.156281
0.1542
0.152206
0.150298
0.148474
0.146733
0.145073
0.143493
0.141991
0.140565
0.139215
0.137938
0.136733
0.1356
0.134537
0.133542
0.132614
0.131754
0.130958
0.130228
0.129561
0.128957
0.128416
0.127936
0.127518
0.12716
0.126862
0.126625
0.126447
0.126327
0.126262
0.258031
0.259139
0.259784
0.260491
0.26124
0.261969
0.26267
0.263346
0.263999
0.264629
0.265234
0.265814
0.266369
0.266897
0.267398
0.267871
0.267871
0.300464
0.301154
0.301791
0.302376
0.302909
0.30339
0.303818
0.304193
0.304515
0.304783
0.304998
0.30516
0.305267
0.305321
0.305321
0.305267
0.30516
0.304998
0.304783
0.304515
0.304193
0.303818
0.30339
0.302909
0.302376
0.301791
0.301154
0.300464
0.267871
0.267871
0.267398
0.266897
0.266369
0.265814
0.265234
0.264629
0.263999
0.263346
0.26267
0.261969
0.26124
0.260491
0.259784
0.259139
0.258031
0.254257
0.250341
0.246429
0.242335
0.238185
0.234039
0.229913
0.225817
0.221764
0.217764
0.213829
0.209966
0.206181
0.20248
0.198868
0.195348
0.191923
0.188595
0.185365
0.182233
0.179201
0.176268
0.173433
0.170697
0.168058
0.165516
0.163068
0.160714
0.158452
0.156281
0.1542
0.152206
0.150298
0.148474
0.146733
0.145073
0.143493
0.141991
0.140565
0.139215
0.137938
0.136733
0.1356
0.134537
0.133542
0.132614
0.131754
0.130958
0.130228
0.129561
0.128957
0.128416
0.127936
0.127518
0.12716
0.126862
0.126625
0.126447
0.126327
0.126262
)
;
    }
}


// ************************************************************************* //
