/*--------------------------------*- C++ -*----------------------------------*\
  =========                 |
  \\      /  F ield         | OpenFOAM: The Open Source CFD Toolbox
   \\    /   O peration     | Website:  https://openfoam.org
    \\  /    A nd           | Version:  7
     \\/     M anipulation  |
\*---------------------------------------------------------------------------*/
FoamFile
{
    version     2.0;
    format      ascii;
    class       volScalarField;
    location    "40";
    object      p;
}
// * * * * * * * * * * * * * * * * * * * * * * * * * * * * * * * * * * * * * //

dimensions      [0 2 -2 0 0 0 0];

internalField   nonuniform List<scalar> 
928
(
-0.0019157
-0.00178244
-0.00165036
-0.00151942
-0.00138958
-0.0019168
-0.00178353
-0.00165144
-0.00152048
-0.00139063
-0.00191902
-0.00178571
-0.00165358
-0.0015226
-0.00139272
-0.00192233
-0.00178897
-0.0016568
-0.00152577
-0.00139585
-0.00192675
-0.00179332
-0.00166108
-0.00153
-0.00140002
-0.00193227
-0.00179875
-0.00166643
-0.00153528
-0.00140524
-0.00193888
-0.00180526
-0.00167285
-0.00154161
-0.00141149
-0.0019466
-0.00181286
-0.00168033
-0.00154899
-0.00141878
-0.0019554
-0.00182152
-0.00168887
-0.00155741
-0.0014271
-0.00196529
-0.00183126
-0.00169847
-0.00156687
-0.00143645
-0.00197627
-0.00184206
-0.00170911
-0.00157737
-0.00144681
-0.00198832
-0.00185393
-0.0017208
-0.0015889
-0.0014582
-0.00200145
-0.00186685
-0.00173353
-0.00160145
-0.00147059
-0.00201565
-0.00188082
-0.00174729
-0.00161502
-0.00148399
-0.0020309
-0.00189583
-0.00176208
-0.0016296
-0.00149838
-0.00204721
-0.00191188
-0.00177789
-0.00164519
-0.00151377
-0.00206457
-0.00192896
-0.00179471
-0.00166178
-0.00153014
-0.00208296
-0.00194706
-0.00181254
-0.00167935
-0.00154748
-0.00210239
-0.00196618
-0.00183136
-0.00169791
-0.00156579
-0.00212284
-0.0019863
-0.00185117
-0.00171743
-0.00158506
-0.0021443
-0.00200741
-0.00187196
-0.00173793
-0.00160528
-0.00216676
-0.00202951
-0.00189372
-0.00175937
-0.00162643
-0.00219021
-0.00205258
-0.00191644
-0.00178175
-0.00164851
-0.00221465
-0.00207662
-0.00194011
-0.00180508
-0.00167151
-0.00224005
-0.00210162
-0.00196471
-0.00182932
-0.00169542
-0.00226638
-0.00212752
-0.00199021
-0.00185443
-0.00172018
-0.0022936
-0.00215429
-0.00201657
-0.0018804
-0.00174579
-0.0023221
-0.00218232
-0.00204415
-0.00190756
-0.00177255
-0.00235257
-0.00221224
-0.00207354
-0.00193647
-0.001801
-0.00238121
-0.00224041
-0.00210128
-0.00196379
-0.00182794
-0.00241244
-0.00227176
-0.00213277
-0.00199546
-0.00185981
-0.00172583
-0.00248199
-0.00234041
-0.00220058
-0.00206248
-0.0019261
-0.00179145
-0.00255158
-0.0024092
-0.00226862
-0.00212981
-0.00199279
-0.00185755
-0.00262416
-0.00248093
-0.00233953
-0.00219996
-0.00206222
-0.00192633
-0.00270059
-0.00255639
-0.00241407
-0.00227363
-0.00213507
-0.0019984
-0.0027804
-0.00263513
-0.00249178
-0.00235035
-0.00221086
-0.00207331
-0.00286333
-0.00271689
-0.00257241
-0.00242989
-0.00228936
-0.00215081
-0.00294919
-0.00280146
-0.00265573
-0.00251201
-0.00237031
-0.00223064
-0.00303769
-0.00288857
-0.00274149
-0.00259644
-0.00245346
-0.00231254
-0.00312857
-0.00297794
-0.00282938
-0.0026829
-0.0025385
-0.00239621
-0.00322153
-0.00306928
-0.00291913
-0.00277108
-0.00262515
-0.00248134
-0.00331626
-0.00316228
-0.00301042
-0.00286069
-0.00271309
-0.00256764
-0.00341245
-0.00325664
-0.00310295
-0.00295141
-0.00280202
-0.00265481
-0.00350979
-0.00335202
-0.0031964
-0.00304294
-0.00289164
-0.00274252
-0.00360795
-0.00344813
-0.00329047
-0.00313496
-0.00298163
-0.00283049
-0.00370662
-0.00354465
-0.00338483
-0.00322718
-0.00307171
-0.00291843
-0.00380549
-0.00364127
-0.00347921
-0.00331931
-0.00316159
-0.00300605
-0.00390426
-0.0037377
-0.00357331
-0.00341107
-0.00325099
-0.00309308
-0.00400263
-0.00383367
-0.00366685
-0.00350218
-0.00333966
-0.00317929
-0.00410034
-0.00392889
-0.00375958
-0.0035924
-0.00342736
-0.00326444
-0.00419712
-0.00402313
-0.00385126
-0.0036815
-0.00351386
-0.00334832
-0.00429274
-0.00411615
-0.00394167
-0.00376927
-0.00359896
-0.00343074
-0.00438696
-0.00420774
-0.00403059
-0.00385551
-0.00368249
-0.00351151
-0.00447959
-0.0042977
-0.00411786
-0.00394005
-0.00376427
-0.0035905
-0.00457045
-0.00438586
-0.0042033
-0.00402273
-0.00384416
-0.00366757
-0.00465936
-0.00447207
-0.00428676
-0.00410343
-0.00392205
-0.00374261
-0.00474618
-0.00455618
-0.00436813
-0.00418201
-0.00399782
-0.00381552
-0.00483078
-0.00463807
-0.00444728
-0.00425839
-0.00407138
-0.00388622
-0.00471766
-0.00452414
-0.00433249
-0.00414267
-0.00395466
-0.00479484
-0.00459862
-0.00440423
-0.00421162
-0.00402079
-0.00486956
-0.00467067
-0.00447355
-0.0042782
-0.00408456
-0.00494175
-0.00474022
-0.00454044
-0.00434236
-0.00414597
-0.00501137
-0.00480725
-0.00460484
-0.0044041
-0.004205
-0.00507839
-0.00487174
-0.00466675
-0.0044634
-0.00426164
-0.00514278
-0.00493365
-0.00472616
-0.00452025
-0.0043159
-0.00520454
-0.004993
-0.00478305
-0.00457466
-0.00436779
-0.00526364
-0.00504976
-0.00483745
-0.00462665
-0.00441733
-0.0053201
-0.00510396
-0.00488935
-0.00467622
-0.00446453
-0.00537392
-0.0051556
-0.00493877
-0.00472339
-0.00450942
-0.0054251
-0.00520468
-0.00498573
-0.00476819
-0.00455203
-0.00547367
-0.00525124
-0.00503025
-0.00481064
-0.00459238
-0.00551963
-0.00529529
-0.00507235
-0.00485077
-0.0046305
-0.00556301
-0.00533684
-0.00511205
-0.0048886
-0.00466642
-0.00560383
-0.00537593
-0.00514939
-0.00492415
-0.00470017
-0.00564211
-0.00541257
-0.00518437
-0.00495746
-0.00473178
-0.00567786
-0.00544679
-0.00521704
-0.00498855
-0.00476127
-0.00571112
-0.00547861
-0.0052474
-0.00501744
-0.00478866
-0.00574189
-0.00550806
-0.0052755
-0.00504416
-0.004814
-0.00577022
-0.00553515
-0.00530134
-0.00506874
-0.00483729
-0.0057961
-0.0055599
-0.00532495
-0.00509119
-0.00485857
-0.00581957
-0.00558234
-0.00534634
-0.00511153
-0.00487784
-0.00584064
-0.00560248
-0.00536555
-0.00512979
-0.00489514
-0.00585932
-0.00562034
-0.00538258
-0.00514597
-0.00491047
-0.00587564
-0.00563594
-0.00539744
-0.0051601
-0.00492386
-0.0058896
-0.00564928
-0.00541016
-0.00517219
-0.0049353
-0.00590122
-0.00566038
-0.00542074
-0.00518224
-0.00494482
-0.0059105
-0.00566925
-0.0054292
-0.00519027
-0.00495243
-0.00591745
-0.0056759
-0.00543553
-0.00519629
-0.00495813
-0.00592209
-0.00568033
-0.00543975
-0.0052003
-0.00496193
-0.0059244
-0.00568254
-0.00544186
-0.0052023
-0.00496382
-0.00241248
-0.00248202
-0.00255161
-0.0026242
-0.00270063
-0.00278043
-0.00286337
-0.00294922
-0.00303772
-0.0031286
-0.00322156
-0.00331629
-0.00341248
-0.00350982
-0.00360798
-0.00370665
-0.00380552
-0.00390428
-0.00400265
-0.00410036
-0.00419714
-0.00429275
-0.00438698
-0.00447961
-0.00457046
-0.00465937
-0.00474619
-0.00483079
-0.00491307
-0.00499292
-0.00507028
-0.00514507
-0.00521724
-0.00528676
-0.00535359
-0.00541772
-0.00547913
-0.00553781
-0.00559378
-0.00564703
-0.00569758
-0.00574543
-0.00579062
-0.00583314
-0.00587303
-0.00591029
-0.00594497
-0.00597706
-0.0060066
-0.0060336
-0.00605809
-0.00608007
-0.00609957
-0.00611659
-0.00613116
-0.00614329
-0.00615298
-0.00616023
-0.00616507
-0.00616749
-0.0022718
-0.00234045
-0.00240924
-0.00248097
-0.00255643
-0.00263516
-0.00271693
-0.00280149
-0.0028886
-0.00297797
-0.00306931
-0.00316231
-0.00325667
-0.00335205
-0.00344816
-0.00354467
-0.00364129
-0.00373773
-0.00383369
-0.00392891
-0.00402315
-0.00411617
-0.00420776
-0.00429772
-0.00438587
-0.00447208
-0.00455619
-0.00463808
-0.00471767
-0.00479485
-0.00486957
-0.00494176
-0.00501138
-0.0050784
-0.00514279
-0.00520454
-0.00526364
-0.0053201
-0.00537392
-0.0054251
-0.00547367
-0.00551963
-0.00556301
-0.00560383
-0.00564211
-0.00567786
-0.00571112
-0.00574189
-0.00577022
-0.0057961
-0.00581957
-0.00584064
-0.00585932
-0.00587564
-0.0058896
-0.00590121
-0.00591049
-0.00591745
-0.00592208
-0.00592439
-0.00213281
-0.00220062
-0.00226865
-0.00233956
-0.00241411
-0.00249181
-0.00257244
-0.00265577
-0.00274152
-0.00282941
-0.00291916
-0.00301045
-0.00310298
-0.00319643
-0.00329049
-0.00338486
-0.00347923
-0.00357333
-0.00366687
-0.0037596
-0.00385128
-0.00394168
-0.00403061
-0.00411787
-0.00420331
-0.00428677
-0.00436814
-0.00444729
-0.00452415
-0.00459863
-0.00467067
-0.00474023
-0.00480726
-0.00487174
-0.00493366
-0.004993
-0.00504977
-0.00510396
-0.0051556
-0.00520469
-0.00525124
-0.00529529
-0.00533684
-0.00537593
-0.00541257
-0.00544679
-0.00547861
-0.00550806
-0.00553514
-0.0055599
-0.00558234
-0.00560248
-0.00562034
-0.00563594
-0.00564928
-0.00566038
-0.00566925
-0.0056759
-0.00568033
-0.00568253
-0.00199549
-0.00206251
-0.00212984
-0.00219999
-0.00227366
-0.00235039
-0.00242993
-0.00251205
-0.00259648
-0.00268293
-0.00277111
-0.00286072
-0.00295144
-0.00304296
-0.00313499
-0.00322721
-0.00331934
-0.00341109
-0.0035022
-0.00359242
-0.00368152
-0.00376929
-0.00385553
-0.00394006
-0.00402275
-0.00410344
-0.00418202
-0.0042584
-0.0043325
-0.00440423
-0.00447356
-0.00454044
-0.00460485
-0.00466676
-0.00472616
-0.00478306
-0.00483745
-0.00488935
-0.00493877
-0.00498573
-0.00503025
-0.00507235
-0.00511205
-0.00514939
-0.00518437
-0.00521704
-0.0052474
-0.0052755
-0.00530134
-0.00532494
-0.00534634
-0.00536555
-0.00538258
-0.00539744
-0.00541016
-0.00542074
-0.0054292
-0.00543553
-0.00543975
-0.00544185
-0.00185985
-0.00192613
-0.00199282
-0.00206226
-0.0021351
-0.00221089
-0.00228939
-0.00237035
-0.00245349
-0.00253853
-0.00262517
-0.00271312
-0.00280205
-0.00289166
-0.00298166
-0.00307174
-0.00316161
-0.00325101
-0.00333968
-0.00342737
-0.00351387
-0.00359898
-0.0036825
-0.00376428
-0.00384418
-0.00392206
-0.00399783
-0.00407139
-0.00414268
-0.00421163
-0.0042782
-0.00434237
-0.00440411
-0.0044634
-0.00452026
-0.00457467
-0.00462665
-0.00467622
-0.0047234
-0.0047682
-0.00481065
-0.00485077
-0.0048886
-0.00492415
-0.00495746
-0.00498855
-0.00501744
-0.00504416
-0.00506874
-0.00509118
-0.00511153
-0.00512978
-0.00514597
-0.0051601
-0.00517218
-0.00518224
-0.00519027
-0.00519629
-0.0052003
-0.0052023
-0.00238125
-0.00224045
-0.00210131
-0.00196382
-0.00182797
-0.0023526
-0.00221228
-0.00207358
-0.0019365
-0.00180103
-0.00232213
-0.00218236
-0.00204418
-0.00190759
-0.00177259
-0.00229363
-0.00215433
-0.0020166
-0.00188043
-0.00174582
-0.00226642
-0.00212755
-0.00199024
-0.00185447
-0.00172021
-0.00224009
-0.00210165
-0.00196474
-0.00182935
-0.00169545
-0.00221468
-0.00207666
-0.00194014
-0.0018051
-0.00167154
-0.00219024
-0.00205261
-0.00191647
-0.00178178
-0.00164854
-0.00216678
-0.00202954
-0.00189375
-0.0017594
-0.00162646
-0.00214432
-0.00200744
-0.00187199
-0.00173795
-0.0016053
-0.00212286
-0.00198632
-0.0018512
-0.00171746
-0.00158509
-0.00210241
-0.0019662
-0.00183139
-0.00169793
-0.00156582
-0.00208299
-0.00194709
-0.00181256
-0.00167937
-0.00154751
-0.00206459
-0.00192899
-0.00179473
-0.0016618
-0.00153016
-0.00204723
-0.00191191
-0.00177791
-0.00164521
-0.00151379
-0.00203092
-0.00189585
-0.0017621
-0.00162962
-0.0014984
-0.00201567
-0.00188084
-0.00174731
-0.00161504
-0.00148401
-0.00200147
-0.00186687
-0.00173354
-0.00160147
-0.00147061
-0.00198834
-0.00185395
-0.00172081
-0.00158892
-0.00145821
-0.00197629
-0.00184208
-0.00170912
-0.00157739
-0.00144683
-0.00196531
-0.00183127
-0.00169848
-0.00156689
-0.00143646
-0.00195541
-0.00182154
-0.00168888
-0.00155742
-0.00142711
-0.00194661
-0.00181287
-0.00168034
-0.001549
-0.00141879
-0.00193889
-0.00180527
-0.00167286
-0.00154162
-0.0014115
-0.00193228
-0.00179876
-0.00166644
-0.00153529
-0.00140525
-0.00192676
-0.00179333
-0.00166109
-0.00153
-0.00140003
-0.00192234
-0.00178897
-0.0016568
-0.00152578
-0.00139585
-0.00191902
-0.00178571
-0.00165358
-0.0015226
-0.00139272
-0.00191681
-0.00178353
-0.00165144
-0.00152048
-0.00139063
-0.0019157
-0.00178244
-0.00165036
-0.00151943
-0.00138958
)
;

boundaryField
{
    inlet
    {
        type            zeroGradient;
    }
    outlet
    {
        type            fixedValue;
        value           nonuniform 0();
    }
    cylinder
    {
        type            zeroGradient;
    }
    top
    {
        type            symmetryPlane;
    }
    bottom
    {
        type            symmetryPlane;
    }
    defaultFaces
    {
        type            empty;
    }
    procBoundary59to58
    {
        type            processor;
        value           nonuniform List<scalar> 
181
(
-0.00205018
-0.0020513
-0.00205355
-0.00205692
-0.00206141
-0.00206702
-0.00207375
-0.00208159
-0.00209054
-0.0021006
-0.00211176
-0.00212402
-0.00213737
-0.0021518
-0.00216732
-0.0021839
-0.00220155
-0.00222026
-0.00224002
-0.00226081
-0.00228264
-0.00230548
-0.00232934
-0.00235419
-0.00238004
-0.00240682
-0.0024345
-0.00246349
-0.00249454
-0.00252368
-0.00255481
-0.0026253
-0.00269574
-0.00276923
-0.00284667
-0.00292759
-0.00301173
-0.0030989
-0.00318883
-0.00328125
-0.00337585
-0.00347234
-0.0035704
-0.0036697
-0.00376993
-0.00387076
-0.00397187
-0.00407297
-0.00417374
-0.00427392
-0.00437323
-0.00447142
-0.00456826
-0.00466354
-0.00475706
-0.00484866
-0.00493816
-0.00502544
-0.00491306
-0.00491306
-0.00499292
-0.00507027
-0.00514506
-0.00521723
-0.00528675
-0.00535359
-0.00541771
-0.00547912
-0.00553781
-0.00559378
-0.00564703
-0.00569758
-0.00574543
-0.00579062
-0.00583314
-0.00587303
-0.00591029
-0.00594497
-0.00597706
-0.0060066
-0.0060336
-0.00605809
-0.00608007
-0.00609957
-0.0061166
-0.00613117
-0.00614329
-0.00615298
-0.00616024
-0.00616508
-0.00616749
-0.00255485
-0.00262534
-0.00269578
-0.00276926
-0.00284671
-0.00292762
-0.00301177
-0.00309894
-0.00318887
-0.00328128
-0.00337589
-0.00347237
-0.00357043
-0.00366973
-0.00376995
-0.00387078
-0.0039719
-0.00407299
-0.00417376
-0.00427394
-0.00437325
-0.00447144
-0.00456828
-0.00466356
-0.00475708
-0.00484867
-0.00493817
-0.00502545
-0.00511038
-0.00519287
-0.00527283
-0.00535019
-0.00542488
-0.00549686
-0.0055661
-0.00563257
-0.00569625
-0.00575714
-0.00581522
-0.00587052
-0.00592302
-0.00597274
-0.0060197
-0.0060639
-0.00610538
-0.00614414
-0.00618021
-0.00621361
-0.00624435
-0.00627245
-0.00629794
-0.00632082
-0.00634113
-0.00635886
-0.00637403
-0.00638666
-0.00639675
-0.00640431
-0.00640935
-0.00641186
-0.00252371
-0.00249457
-0.00246353
-0.00243453
-0.00240685
-0.00238007
-0.00235422
-0.00232937
-0.00230551
-0.00228266
-0.00226084
-0.00224004
-0.00222029
-0.00220158
-0.00218393
-0.00216734
-0.00215182
-0.00213739
-0.00212404
-0.00211178
-0.00210062
-0.00209056
-0.0020816
-0.00207376
-0.00206703
-0.00206142
-0.00205692
-0.00205355
-0.0020513
-0.00205018
)
;
    }
    procBoundary59to60
    {
        type            processor;
        value           nonuniform List<scalar> 
181
(
-0.00126078
-0.00126182
-0.00126389
-0.00126699
-0.00127112
-0.00127628
-0.00128246
-0.00128967
-0.0012979
-0.00130714
-0.00131739
-0.00132865
-0.0013409
-0.00135415
-0.00136838
-0.00138359
-0.00139976
-0.0014169
-0.00143499
-0.00145403
-0.00147399
-0.00149489
-0.00151669
-0.0015394
-0.00156299
-0.00158744
-0.00161271
-0.00163911
-0.00166712
-0.00169372
-0.00169372
-0.00159351
-0.00165853
-0.00172409
-0.00179228
-0.00186363
-0.00193772
-0.00201427
-0.00209303
-0.00217371
-0.00225604
-0.00233969
-0.00242437
-0.00250978
-0.00259561
-0.00268156
-0.00276734
-0.0028527
-0.00293736
-0.00302109
-0.00310367
-0.0031849
-0.00326459
-0.00334258
-0.00341874
-0.00349294
-0.00356509
-0.00363509
-0.00370289
-0.00376844
-0.00383169
-0.00389262
-0.00395122
-0.00400749
-0.00406144
-0.00411306
-0.00416239
-0.00420943
-0.00425423
-0.0042968
-0.00433719
-0.0043754
-0.00441149
-0.00444548
-0.0044774
-0.00450727
-0.00453514
-0.00456103
-0.00458496
-0.00460695
-0.00462704
-0.00464523
-0.00466156
-0.00467603
-0.00468866
-0.00469946
-0.00470844
-0.00471562
-0.00472099
-0.00472458
-0.00472636
-0.00172587
-0.00179148
-0.00185758
-0.00192636
-0.00199843
-0.00207334
-0.00215084
-0.00223068
-0.00231257
-0.00239624
-0.00248137
-0.00256767
-0.00265483
-0.00274255
-0.00283052
-0.00291845
-0.00300607
-0.00309311
-0.00317931
-0.00326446
-0.00334834
-0.00343075
-0.00351153
-0.00359051
-0.00366758
-0.00374262
-0.00381553
-0.00388623
-0.00395467
-0.00402079
-0.00408457
-0.00414598
-0.004205
-0.00426164
-0.0043159
-0.00436779
-0.00441733
-0.00446453
-0.00450942
-0.00455203
-0.00459238
-0.0046305
-0.00466642
-0.00470017
-0.00473178
-0.00476126
-0.00478866
-0.004814
-0.00483729
-0.00485857
-0.00487784
-0.00489514
-0.00491047
-0.00492385
-0.0049353
-0.00494482
-0.00495243
-0.00495813
-0.00496193
-0.00496382
-0.00169375
-0.00166716
-0.00163915
-0.00161274
-0.00158747
-0.00156302
-0.00153942
-0.00151672
-0.00149491
-0.00147402
-0.00145405
-0.00143502
-0.00141692
-0.00139979
-0.00138361
-0.0013684
-0.00135417
-0.00134092
-0.00132867
-0.00131741
-0.00130716
-0.00129791
-0.00128968
-0.00128247
-0.00127629
-0.00127112
-0.00126699
-0.00126389
-0.00126182
-0.00126079
)
;
    }
}


// ************************************************************************* //
