/*--------------------------------*- C++ -*----------------------------------*\
  =========                 |
  \\      /  F ield         | OpenFOAM: The Open Source CFD Toolbox
   \\    /   O peration     | Website:  https://openfoam.org
    \\  /    A nd           | Version:  7
     \\/     M anipulation  |
\*---------------------------------------------------------------------------*/
FoamFile
{
    version     2.0;
    format      ascii;
    class       surfaceScalarField;
    location    "17";
    object      phi;
}
// * * * * * * * * * * * * * * * * * * * * * * * * * * * * * * * * * * * * * //

dimensions      [0 3 -1 0 0 0 0];

internalField   nonuniform List<scalar> 
79480
(
-7.73405e-07
7.73952e-07
-5.46866e-10
-2.97652e-06
2.20462e-06
-1.50433e-09
-6.55512e-06
3.58096e-06
-2.36499e-09
-1.14537e-05
4.90169e-06
-3.12508e-09
-1.76149e-05
6.16503e-06
-3.78228e-09
-2.49803e-05
7.36969e-06
-4.33614e-09
-3.34904e-05
8.5149e-06
-4.78817e-09
-4.30856e-05
9.60036e-06
-5.14175e-09
-5.37065e-05
1.06263e-05
-5.40187e-09
-6.52945e-05
1.15936e-05
-5.57471e-09
-7.77923e-05
1.25034e-05
-5.66709e-09
-9.11444e-05
1.33578e-05
-5.68584e-09
-0.000105298
1.4159e-05
-5.63722e-09
-0.000120202
1.49098e-05
-5.52623e-09
-0.00013581
1.56134e-05
-5.35598e-09
-0.000152079
1.62735e-05
-5.12718e-09
-0.000168968
1.68945e-05
-4.83774e-09
-0.000186446
1.74817e-05
-4.48255e-09
-0.000204484
1.80421e-05
-4.05339e-09
-0.000223065
1.85846e-05
-3.53901e-09
-0.000242183
1.91216e-05
-2.9252e-09
-0.000261851
1.96696e-05
-2.19496e-09
-0.0002821
2.02505e-05
-1.32844e-09
-0.000302992
2.08928e-05
-3.02961e-10
-0.000324625
2.16317e-05
9.07196e-10
-0.000347137
2.25097e-05
2.33127e-09
-0.000370715
2.35737e-05
4.00245e-09
-0.00039559
2.48698e-05
5.9584e-09
-0.000422041
2.64421e-05
8.24356e-09
2.83665e-05
1.09161e-08
-0.000450418
-7.67379e-07
1.54133e-06
-2.95393e-06
4.39117e-06
-6.50628e-06
7.13331e-06
-1.13696e-05
9.76504e-06
-1.74873e-05
1.22827e-05
-2.4801e-05
1.46835e-05
-3.32519e-05
1.69657e-05
-4.27802e-05
1.91287e-05
-5.33267e-05
2.11728e-05
-6.48326e-05
2.30994e-05
-7.72401e-05
2.4911e-05
-9.04934e-05
2.66111e-05
-0.000104539
2.82043e-05
-0.000119325
2.96958e-05
-0.000134803
3.10918e-05
-0.000150929
3.23993e-05
-0.000167661
3.36267e-05
-0.000184963
3.47842e-05
-0.000202806
3.58849e-05
-0.000221168
3.69464e-05
-0.000240039
3.79922e-05
-0.000259424
3.90545e-05
-0.000279349
4.01763e-05
-0.00029987
4.14134e-05
-0.000321074
4.28361e-05
-0.000343094
4.4529e-05
-0.000366107
4.65872e-05
-0.000390341
4.91038e-05
-0.000416068
5.21685e-05
5.59328e-05
-0.000443634
-7.55443e-07
2.29677e-06
-2.90917e-06
6.5449e-06
-6.40948e-06
1.06336e-05
-1.1203e-05
1.45585e-05
-1.7234e-05
1.83137e-05
-2.44453e-05
2.18947e-05
-3.27783e-05
2.52987e-05
-4.21738e-05
2.85242e-05
-5.25722e-05
3.15712e-05
-6.39144e-05
3.44416e-05
-7.61422e-05
3.71388e-05
-8.91986e-05
3.96675e-05
-0.000103028
4.20341e-05
-0.000117578
4.42459e-05
-0.000132798
4.63115e-05
-0.000148639
4.82406e-05
-0.000165058
5.00448e-05
-0.000182012
5.17383e-05
-0.000199466
5.33392e-05
-0.000217391
5.48718e-05
-0.000235769
5.63695e-05
-0.000254592
5.78781e-05
-0.000273875
5.94594e-05
-0.000293658
6.11954e-05
-0.000314011
6.319e-05
-0.000335052
6.55701e-05
-0.000356945
6.84799e-05
-0.000379904
7.2063e-05
-0.000404193
7.64568e-05
8.18898e-05
-0.00043015
-7.37825e-07
3.0346e-06
-2.84306e-06
8.65013e-06
-6.26641e-06
1.4057e-05
-1.09565e-05
1.92486e-05
-1.68592e-05
2.42165e-05
-2.39186e-05
2.89541e-05
-3.20767e-05
3.34568e-05
-4.12746e-05
3.77221e-05
-5.14528e-05
4.17494e-05
-6.25515e-05
4.55404e-05
-7.45115e-05
4.90988e-05
-8.72743e-05
5.24303e-05
-0.000100783
5.55424e-05
-0.000114981
5.8444e-05
-0.000129814
6.11451e-05
-0.000145231
6.36575e-05
-0.000161181
6.59946e-05
-0.000177616
6.81732e-05
-0.000194491
7.02146e-05
-0.000211767
7.21479e-05
-0.000229411
7.40136e-05
-0.000247401
7.58681e-05
-0.000265731
7.77894e-05
-0.000284418
7.98824e-05
-0.000303511
8.22831e-05
-0.000323102
8.51602e-05
-0.000343332
8.87098e-05
-0.000364399
9.31305e-05
-0.000386555
9.86123e-05
0.000105465
-0.000410129
-7.14862e-07
3.74946e-06
-2.75679e-06
1.06921e-05
-6.07959e-06
1.73798e-05
-1.06343e-05
2.38033e-05
-1.6369e-05
2.99511e-05
-2.32289e-05
3.5814e-05
-3.11571e-05
4.13851e-05
-4.00951e-05
4.66601e-05
-4.99831e-05
5.16374e-05
-6.07605e-05
5.63178e-05
-7.23667e-05
6.0705e-05
-8.47413e-05
6.48049e-05
-9.78242e-05
6.86254e-05
-0.000111556
7.21759e-05
-0.000125879
7.54675e-05
-0.000140733
7.85123e-05
-0.000156063
8.13245e-05
-0.000171811
8.39213e-05
-0.000187922
8.63253e-05
-0.000204342
8.85675e-05
-0.00022102
9.06918e-05
-0.000237914
9.27618e-05
-0.000254991
9.48672e-05
-0.000272241
9.71322e-05
-0.00028968
9.97217e-05
-0.000307365
0.000102846
-0.000325411
0.000106755
-0.000343992
0.000111712
-0.000363345
0.000117966
0.000125916
-0.000383797
-6.8699e-07
4.43645e-06
-2.65196e-06
1.2657e-05
-5.85227e-06
2.05801e-05
-1.02419e-05
2.8193e-05
-1.57711e-05
3.54803e-05
-2.23868e-05
4.24297e-05
-3.00331e-05
4.90313e-05
-3.86515e-05
5.52786e-05
-4.81821e-05
6.11679e-05
-5.85632e-05
6.66989e-05
-6.97325e-05
7.18742e-05
-8.16269e-05
7.66993e-05
-9.41831e-05
8.11816e-05
-0.000107337
8.53303e-05
-0.000121026
8.9156e-05
-0.000135184
9.26702e-05
-0.000149746
9.5886e-05
-0.000164643
9.88192e-05
-0.000179809
0.00010149
-0.000195171
0.00010393
-0.000210659
0.00010618
-0.000226204
0.000108307
-0.000241745
0.000110408
-0.000257232
0.000112619
-0.000272643
0.000115132
-0.000287992
0.000118196
-0.000303356
0.000122119
-0.000318882
0.000127238
-0.000334792
0.000133875
0.000142537
-0.000351412
-6.5474e-07
5.09119e-06
-2.53045e-06
1.45327e-05
-5.58843e-06
2.36381e-05
-9.7858e-06
3.23903e-05
-1.50752e-05
4.07697e-05
-2.14051e-05
4.87596e-05
-2.87206e-05
5.63468e-05
-3.69635e-05
6.35215e-05
-4.6073e-05
7.02774e-05
-5.59862e-05
7.66121e-05
-6.66385e-05
8.25265e-05
-7.79639e-05
8.80246e-05
-8.9895e-05
9.31127e-05
-0.000102363
9.77986e-05
-0.000115298
0.000102091
-0.000128628
0.000106
-0.000142276
0.000109534
-0.000156164
0.000112707
-0.000170207
0.000115534
-0.000184317
0.00011804
-0.0001984
0.000120262
-0.000212356
0.000122264
-0.000226089
0.000124141
-0.000239507
0.000126037
-0.000252538
0.000128163
-0.000265146
0.000130803
-0.000277356
0.00013433
-0.000289285
0.000139166
-0.000301136
0.000145727
0.000154646
-0.000313245
-6.18722e-07
5.70991e-06
-2.39448e-06
1.63085e-05
-5.29265e-06
2.65362e-05
-9.27354e-06
3.63712e-05
-1.42922e-05
4.57883e-05
-2.02986e-05
5.47661e-05
-2.72386e-05
6.32868e-05
-3.50538e-05
7.13367e-05
-4.36825e-05
7.89061e-05
-5.306e-05
8.59896e-05
-6.31191e-05
9.25856e-05
-7.37901e-05
9.86956e-05
-8.50011e-05
0.000104324
-9.66777e-05
0.000109475
-0.000108742
0.000114156
-0.000121114
0.000118371
-0.000133707
0.000122127
-0.000146428
0.000125428
-0.000159177
0.000128284
-0.000171846
0.000130708
-0.000184314
0.00013273
-0.000196451
0.000134401
-0.000208119
0.000135809
-0.000219178
0.000137097
-0.000229498
0.000138484
-0.000238982
0.000140287
-0.000247595
0.000142943
-0.000255409
0.000146979
-0.00026261
0.000152928
0.000161574
-0.000269539
-5.7962e-07
6.28953e-06
-2.24649e-06
1.79754e-05
-4.97003e-06
2.92598e-05
-8.7136e-06
4.01148e-05
-1.34344e-05
5.05091e-05
-1.90837e-05
6.04154e-05
-2.56078e-05
6.98108e-05
-3.29477e-05
7.86766e-05
-4.10403e-05
8.69988e-05
-4.98188e-05
9.47681e-05
-5.92124e-05
0.000101979
-6.91475e-05
0.000108631
-7.95467e-05
0.000114723
-9.0329e-05
0.000120257
-0.000101409
0.000125236
-0.000112696
0.000129659
-0.000124093
0.000133524
-0.000135493
0.000136828
-0.000146779
0.000139569
-0.000157819
0.000141749
-0.000168468
0.000143379
-0.00017856
0.000144493
-0.000187915
0.000145164
-0.000196339
0.000145521
-0.000203638
0.000145782
-0.000209638
0.000146288
-0.00021423
0.000147535
-0.000217432
0.000150181
-0.000219408
0.000154905
0.000162644
-0.000220477
-5.38167e-07
6.8277e-06
-2.08913e-06
1.95263e-05
-4.62608e-06
3.17967e-05
-8.1151e-06
4.36038e-05
-1.25151e-05
5.49091e-05
-1.77784e-05
6.56787e-05
-2.38509e-05
7.58833e-05
-3.06727e-05
8.54984e-05
-3.81788e-05
9.45049e-05
-4.62993e-05
0.000102889
-5.49596e-05
0.00011064
-6.4081e-05
0.000117752
-7.358e-05
0.000124222
-8.33684e-05
0.000130046
-9.33518e-05
0.000135219
-0.000103429
0.000139736
-0.00011349
0.000143585
-0.000123414
0.000146752
-0.000133065
0.00014922
-0.00014229
0.000150974
-0.000150914
0.000152003
-0.000158738
0.000152317
-0.000165536
0.000151961
-0.000171055
0.00015104
-0.00017503
0.000149757
-0.000177202
0.000148459
-0.000177367
0.0001477
-0.000175475
0.000148289
-0.000171663
0.000151093
0.000157143
-0.000166163
-4.95139e-07
7.32284e-06
-1.92518e-06
2.09564e-05
-4.26662e-06
3.41382e-05
-7.48767e-06
4.68249e-05
-1.15485e-05
5.89699e-05
-1.64014e-05
7.05316e-05
-2.19917e-05
8.14736e-05
-2.82578e-05
9.17645e-05
-3.51318e-05
0.000101379
-4.25402e-05
0.000110297
-5.04038e-05
0.000118503
-5.86377e-05
0.000125986
-6.71515e-05
0.000132736
-7.58484e-05
0.000138743
-8.46243e-05
0.000143995
-9.33666e-05
0.000148478
-0.000101952
0.00015217
-0.000110242
0.000155042
-0.000118083
0.000157062
-0.0001253
0.00015819
-0.000131688
0.000158391
-0.000137012
0.000157641
-0.000141
0.000155949
-0.000143341
0.00015338
-0.00014369
0.000150106
-0.000141691
0.000146461
-0.000137029
0.000143038
-0.00012956
0.00014082
-0.000119432
0.000140965
0.000144332
-0.000106621
-4.51332e-07
7.77417e-06
-1.75752e-06
2.22626e-05
-3.8976e-06
3.62782e-05
-6.84117e-06
4.97684e-05
-1.05487e-05
6.26775e-05
-1.4972e-05
7.4955e-05
-2.00547e-05
8.65562e-05
-2.57325e-05
9.74423e-05
-3.19341e-05
0.000107581
-3.85812e-05
0.000116944
-4.55887e-05
0.000125511
-5.2865e-05
0.000133262
-6.03113e-05
0.000140182
-6.78212e-05
0.000146253
-7.52794e-05
0.000151454
-8.25601e-05
0.000155759
-8.95247e-05
0.000159134
-9.60187e-05
0.000161536
-0.000101867
0.00016291
-0.000106871
0.000163193
-0.000110796
0.000162317
-0.000113373
0.000160218
-0.000114282
0.000156858
-0.00011315
0.000152249
-0.000109552
0.000146508
-0.000103025
0.000139933
-9.31152e-05
0.000133128
-7.95161e-05
0.000127221
-6.25979e-05
0.000124047
0.000123846
-4.21119e-05
-4.07546e-07
8.18172e-06
-1.58901e-06
2.3444e-05
-3.52499e-06
3.82142e-05
-6.18548e-06
5.24289e-05
-9.5303e-06
6.60223e-05
-1.35096e-05
7.89342e-05
-1.80643e-05
9.11109e-05
-2.31265e-05
0.000102505
-2.86203e-05
0.000113074
-3.44614e-05
0.000122785
-4.05579e-05
0.000131607
-4.68099e-05
0.000139514
-5.31088e-05
0.000146481
-5.9337e-05
0.000152481
-6.53662e-05
0.000157483
-7.10559e-05
0.000161449
-7.62505e-05
0.000164329
-8.07762e-05
0.000166062
-8.4436e-05
0.00016657
-8.70044e-05
0.000165761
-8.82191e-05
0.000163531
-8.7772e-05
0.000159771
-8.52983e-05
0.000154384
-8.03646e-05
0.000147315
-7.24615e-05
0.000138605
-6.10124e-05
0.000128484
-4.54157e-05
0.000117531
-2.5038e-05
0.000106844
9.10194e-07
9.80986e-05
9.66492e-05
2.81072e-05
-3.6456e-07
8.54628e-06
-1.42244e-06
2.45019e-05
-3.15461e-06
3.99464e-05
-5.53019e-06
5.48045e-05
-8.50715e-06
6.89992e-05
-1.20328e-05
8.24598e-05
-1.6044e-05
9.51222e-05
-2.04683e-05
0.000106929
-2.52235e-05
0.00011783
-3.02185e-05
0.00012778
-3.53526e-05
0.000136741
-4.05163e-05
0.000144678
-4.55894e-05
0.000151554
-5.04412e-05
0.000157333
-5.49284e-05
0.00016197
-5.88929e-05
0.000165413
-6.21598e-05
0.000167596
-6.45329e-05
0.000168435
-6.57903e-05
0.000167828
-6.5678e-05
0.000165649
-6.39014e-05
0.000161755
-6.01143e-05
0.000155984
-5.39058e-05
0.000148176
-4.47836e-05
0.000138193
-3.21589e-05
0.00012598
-1.53404e-05
0.000111666
6.43644e-06
9.57545e-05
3.38758e-05
7.94043e-05
6.70681e-05
6.49063e-05
5.76797e-05
0.000106038
-3.23114e-07
8.86939e-06
-1.26046e-06
2.54393e-05
-2.7919e-06
4.14778e-05
-4.88431e-06
5.68969e-05
-7.49234e-06
7.16073e-05
-1.0559e-05
8.55265e-05
-1.4016e-05
9.85792e-05
-1.77844e-05
0.000110697
-2.17747e-05
0.00012182
-2.58868e-05
0.000131892
-3.00103e-05
0.000140865
-3.40236e-05
0.000148691
-3.77933e-05
0.000155324
-4.11728e-05
0.000160712
-4.40009e-05
0.000164798
-4.60993e-05
0.000167512
-4.72699e-05
0.000168766
-4.72903e-05
0.000168455
-4.59095e-05
0.000166447
-4.28405e-05
0.00016258
-3.77523e-05
0.000156666
-3.02573e-05
0.000148489
-1.98967e-05
0.000137815
-6.12023e-06
0.000124417
1.17373e-05
0.000108123
3.44768e-05
8.89263e-05
6.30306e-05
6.72007e-05
9.83259e-05
4.4109e-05
0.000140942
2.22901e-05
7.8752e-06
0.000190747
-2.83884e-07
9.15327e-06
-1.10544e-06
2.62608e-05
-2.4418e-06
4.28142e-05
-4.25591e-06
5.8711e-05
-6.49755e-06
7.38489e-05
-9.10382e-06
8.81328e-05
-1.19996e-05
0.000101475
-1.5098e-05
0.000113796
-1.83002e-05
0.000125022
-2.1496e-05
0.000135088
-2.45625e-05
0.000143931
-2.73643e-05
0.000151493
-2.97518e-05
0.000157711
-3.15601e-05
0.00016252
-3.26066e-05
0.000165845
-3.26889e-05
0.000167594
-3.15809e-05
0.000167659
-2.90293e-05
0.000165904
-2.47477e-05
0.000162165
-1.84104e-05
0.000156243
-9.64307e-06
0.000147899
1.98892e-06
0.000136857
1.69969e-05
0.000122807
3.59906e-05
0.000105423
5.97083e-05
8.44051e-05
8.90529e-05
5.95816e-05
0.000125118
3.11352e-05
0.000169104
1.23571e-07
0.000221995
-3.06014e-05
-5.39931e-05
0.000283864
-2.47456e-07
9.40073e-06
-9.59458e-07
2.69728e-05
-2.10851e-06
4.39632e-05
-3.65184e-06
6.02543e-05
-5.53254e-06
7.57296e-05
-7.68007e-06
9.02803e-05
-1.00107e-05
0.000103806
-1.24277e-05
0.000116213
-1.48213e-05
0.000127416
-1.70686e-05
0.000137335
-1.90324e-05
0.000145895
-2.05607e-05
0.000153021
-2.1485e-05
0.000158636
-2.16182e-05
0.000162654
-2.07527e-05
0.000164979
-1.86567e-05
0.000165498
-1.50713e-05
0.000164073
-9.70522e-06
0.000160538
-2.22979e-06
0.00015469
7.72813e-06
0.000146285
2.05948e-05
0.000135032
3.6861e-05
0.000120591
5.70982e-05
0.00010257
8.19805e-05
8.05405e-05
0.000112317
5.40683e-05
0.000149101
2.27982e-05
0.000193565
-1.33294e-05
0.00024717
-5.34812e-05
0.000311316
-9.47475e-05
-0.00012928
0.000386603
-2.14299e-07
9.61503e-06
-8.24112e-07
2.75826e-05
-1.79526e-06
4.49344e-05
-3.07727e-06
6.15364e-05
-4.60461e-06
7.7257e-05
-6.29716e-06
9.19728e-05
-8.0606e-06
0.000105569
-9.78641e-06
0.000117938
-1.13517e-05
0.000128981
-1.26184e-05
0.000138602
-1.34326e-05
0.000146709
-1.36227e-05
0.000153211
-1.29975e-05
0.00015801
-1.13443e-05
0.000161
-8.42517e-06
0.00016206
-3.97395e-06
0.000161047
2.30823e-06
0.000157791
1.07579e-05
0.000152088
2.1755e-05
0.000143693
3.57301e-05
0.00013231
5.31727e-05
0.00011759
7.46416e-05
9.9122e-05
0.00010078
7.64319e-05
0.000132334
4.89865e-05
0.000170185
1.62164e-05
0.000215403
-2.24194e-05
0.000269326
-6.72528e-05
0.000333633
-0.000117787
0.000410119
-0.000171234
-0.000219393
0.000500233
-1.84743e-07
9.79977e-06
-7.00487e-07
2.80984e-05
-1.50415e-06
4.57381e-05
-2.53542e-06
6.25676e-05
-3.71803e-06
7.84396e-05
-4.96023e-06
9.3215e-05
-6.15495e-06
0.000106764
-7.1797e-06
0.000118963
-7.89594e-06
0.000129697
-8.14814e-06
0.000138854
-7.76228e-06
0.000146324
-6.54387e-06
0.000151993
-4.27542e-06
0.000155742
-7.13414e-07
0.000157438
4.41536e-06
0.000156931
1.14181e-05
0.000154044
2.06409e-05
0.000148568
3.24743e-05
0.000140255
4.73596e-05
0.000128807
6.57963e-05
0.000113873
8.83498e-05
9.50364e-05
0.000115661
7.1811e-05
0.000148457
4.36355e-05
0.00018757
9.8732e-06
0.00023396
-3.01733e-05
0.000288759
-7.72184e-05
0.00035337
-0.000131864
0.000429615
-0.000194033
0.000519604
-0.000261223
-0.000325714
0.000625925
-1.58947e-07
9.95872e-06
-5.89036e-07
2.85285e-05
-1.23591e-06
4.63849e-05
-2.02714e-06
6.33589e-05
-2.87353e-06
7.9286e-05
-3.66943e-06
9.40109e-05
-4.29274e-06
0.000107387
-4.60451e-06
0.000119275
-4.44797e-06
0.000129541
-3.64706e-06
0.000138053
-2.0044e-06
0.000144681
7.01268e-07
0.000149287
4.71836e-06
0.000151725
1.03262e-05
0.000151831
1.78396e-05
0.000149418
2.76139e-05
0.00014427
4.00505e-05
0.000136131
5.56036e-05
0.000124702
7.47868e-05
0.000109624
9.81803e-05
9.04796e-05
0.000126439
6.67781e-05
0.000160298
3.79512e-05
0.000200587
3.34674e-06
0.000248233
-3.77727e-05
0.000304281
-8.62209e-05
0.00036992
-0.000142858
0.000446574
-0.000208518
0.000536111
-0.000283569
0.000640796
-0.000365908
-0.000449474
0.000764555
-1.36883e-07
1.00956e-05
-4.89497e-07
2.88811e-05
-9.89728e-07
4.68852e-05
-1.55066e-06
6.39198e-05
-2.0678e-06
7.98031e-05
-2.41923e-06
9.43624e-05
-2.4653e-06
0.000107433
-2.04797e-06
0.000118858
-9.8924e-07
0.000128482
9.10769e-07
0.000136153
3.87656e-06
0.000141715
8.16056e-06
0.000145003
1.40472e-05
0.000145838
2.18574e-05
0.00014402
3.19544e-05
0.000139321
4.47493e-05
0.000131475
6.0708e-05
0.000120173
8.03579e-05
0.000105052
0.000104296
8.56862e-05
0.000133194
6.15812e-05
0.000167809
3.21633e-05
0.000208985
-3.22476e-06
0.00025766
-4.53284e-05
0.000314868
-9.4981e-05
0.000381744
-0.000153096
0.000459527
-0.000220642
0.000549618
-0.000298608
0.000653818
-0.000387769
0.000774339
-0.00048643
-0.0005916
0.000916465
-1.18309e-07
1.02139e-05
-4.00826e-07
2.91636e-05
-7.63107e-07
4.72474e-05
-1.10128e-06
6.4258e-05
-1.29309e-06
7.99949e-05
-1.19788e-06
9.42672e-05
-6.55572e-07
0.000106891
5.13714e-07
0.000117688
2.51248e-06
0.000126483
5.56822e-06
0.000133097
9.93678e-06
0.000137347
1.59066e-05
0.000139033
2.38038e-05
0.000137941
3.39975e-05
0.000133827
4.69064e-05
0.000126412
6.3006e-05
0.000115375
8.28352e-05
0.000100344
0.000107005
8.08819e-05
0.000136205
5.64863e-05
0.00017121
2.65758e-05
0.000212888
-9.51396e-06
0.000262197
-5.25339e-05
0.000320191
-0.000103322
0.000388009
-0.000162799
0.000466868
-0.000231956
0.000558047
-0.00031182
0.000662879
-0.000403441
0.00078298
-0.00050787
0.000920288
-0.000623738
-0.000752517
0.00108121
-1.02762e-07
1.03167e-05
-3.21151e-07
2.9382e-05
-5.51766e-07
4.74781e-05
-6.71239e-07
6.43774e-05
-5.36919e-07
7.98606e-05
1.35514e-08
9.37167e-05
1.16245e-06
0.000105742
3.11582e-06
0.000115735
6.10408e-06
0.000123495
1.03863e-05
0.000128815
1.62545e-05
0.000131478
2.40385e-05
0.000131249
3.41122e-05
0.000127867
4.69e-05
0.000121039
6.28841e-05
0.000110428
8.26122e-05
9.56472e-05
0.000106706
7.62499e-05
0.000135868
5.17199e-05
0.000170889
2.14648e-05
0.000212655
-1.519e-05
0.000262146
-5.90049e-05
0.000320437
-0.000110825
0.00038869
-0.000171575
0.000468134
-0.000242244
0.000560045
-0.000323867
0.000665703
-0.000417477
0.000786336
-0.000524074
0.000923235
-0.000644769
0.00107791
-0.000778415
-0.000931904
0.0012573
-8.95476e-08
1.04062e-05
-2.47751e-07
2.95402e-05
-3.49606e-07
4.75799e-05
-2.49649e-07
6.42775e-05
2.17731e-07
7.93932e-05
1.23902e-06
9.26954e-05
3.02364e-06
0.000103957
5.80553e-06
0.000112953
9.84737e-06
0.000119453
1.54445e-05
0.000123218
2.29302e-05
0.000123993
3.26819e-05
0.000121498
4.51277e-05
0.000115421
6.07547e-05
0.000105412
8.01163e-05
9.10662e-05
0.000103841
7.19224e-05
0.000132641
4.74503e-05
0.000167317
1.70434e-05
0.000208768
-1.99864e-05
0.00025799
-6.44119e-05
0.000316075
-0.000117089
0.0003842
-0.000178951
0.000463616
-0.00025099
0.000555608
-0.000334236
0.000661459
-0.000429718
0.000782389
-0.000538407
0.000919461
-0.000661147
0.00107349
-0.000798801
0.00124554
-0.000950465
-0.00112843
0.00144207
-7.77412e-08
1.0484e-05
-1.77059e-07
2.96395e-05
-1.4871e-07
4.75516e-05
1.77494e-07
6.39513e-05
9.92928e-07
7.85778e-05
2.51159e-06
9.11767e-05
4.97223e-06
0.000101497
8.64158e-06
0.000109284
1.38187e-05
0.000114276
2.08401e-05
0.000116197
3.0086e-05
0.000114747
4.19876e-05
0.000109596
5.70346e-05
0.000100374
7.57837e-05
8.66627e-05
9.88674e-05
6.79825e-05
0.000127002
4.37876e-05
0.000160996
1.34562e-05
0.000201755
-2.3715e-05
0.000250282
-6.85137e-05
0.00030768
-0.00012181
0.000375137
-0.000184546
0.000453911
-0.000257725
0.000545298
-0.000342377
0.000650583
-0.000439521
0.000770981
-0.000550116
0.000907553
-0.000674978
0.00106111
-0.000814709
0.00123185
-0.000969536
0.00142051
-0.00113912
-0.00133945
0.00163153
-6.62063e-08
1.05502e-05
-1.04738e-07
2.9678e-05
6.0529e-08
4.73863e-05
6.27015e-07
6.33848e-05
1.81492e-06
7.73899e-05
3.86872e-06
8.91229e-05
7.06036e-06
9.8305e-05
1.16933e-05
0.000104651
1.81076e-05
0.000107862
2.66864e-05
0.000107618
3.7863e-05
0.00010357
5.21287e-05
9.53304e-05
7.00415e-05
8.24616e-05
9.22353e-05
6.44689e-05
0.000119428
4.07897e-05
0.00015243
1.07861e-05
0.000192147
-2.62614e-05
0.000239588
-7.11559e-05
0.000295856
-0.000124782
0.000362144
-0.000188097
0.000439709
-0.000262112
0.000529846
-0.000347863
0.000633838
-0.000446368
0.000752888
-0.000558571
0.000888039
-0.000685266
0.00104007
-0.000827006
0.00120942
-0.000984065
0.00139553
-0.00115564
0.0015991
-0.00134269
-0.0015608
0.00182045
-5.36202e-08
1.06038e-05
-2.5725e-08
2.96501e-05
2.8897e-07
4.70716e-05
1.11823e-06
6.25555e-05
2.71369e-06
7.57944e-05
5.35373e-06
8.64829e-05
9.34728e-06
9.43115e-05
1.50389e-05
9.89592e-05
2.28147e-05
0.000100086
3.31101e-05
9.73225e-05
4.64172e-05
9.02631e-05
6.32942e-05
7.84534e-05
8.43741e-05
6.13817e-05
0.000110374
3.84695e-05
0.000142101
9.06266e-06
0.000180461
-2.75739e-05
0.000226458
-7.2259e-05
0.000281195
-0.000125892
0.000345857
-0.000189444
0.000421698
-0.000263938
0.000510004
-0.000350417
0.000612043
-0.000449902
0.000729003
-0.000563329
0.000861904
-0.000691472
0.00101149
-0.000834855
0.00117812
-0.000993636
0.00136172
-0.00116766
0.00156092
-0.00135485
0.00177661
-0.00155838
-0.00178675
0.00200256
-3.85263e-08
1.06423e-05
6.53873e-08
2.95462e-05
5.48931e-07
4.65881e-05
1.67243e-06
6.1432e-05
3.72219e-06
7.37446e-05
7.01394e-06
8.31911e-05
1.18976e-05
8.94278e-05
1.87633e-05
9.20935e-05
2.80486e-05
9.08005e-05
4.02464e-05
8.51247e-05
5.5914e-05
7.45954e-05
7.56823e-05
5.86851e-05
0.000100265
3.67996e-05
0.000130464
8.26982e-06
0.000167181
-2.76543e-05
0.000211413
-7.18062e-05
0.000264254
-0.0001251
0.000326882
-0.00018852
0.000400537
-0.000263099
0.00048649
-0.000349891
0.000585992
-0.000449919
0.000700207
-0.000564117
0.000830126
-0.000693247
0.000976466
-0.000837812
0.00113955
-0.000997943
0.0013192
-0.00117328
0.00151461
-0.00136307
0.00172379
-0.00156402
0.00194741
-0.001782
-0.00201021
0.00217087
-1.93319e-08
1.06616e-05
1.74687e-07
2.93522e-05
8.53317e-07
4.59094e-05
2.31221e-06
5.99731e-05
4.87534e-06
7.11815e-05
8.89935e-06
7.91671e-05
1.47793e-05
8.35479e-05
2.29555e-05
8.39173e-05
3.39218e-05
7.98341e-05
4.82346e-05
7.0812e-05
6.65213e-05
5.63087e-05
8.94905e-05
3.57159e-05
0.000117939
8.35104e-06
0.000152758
-2.65496e-05
0.000194937
-6.98331e-05
0.000245557
-0.000122426
0.000305783
-0.000185326
0.000376841
-0.000259577
0.000459981
-0.00034624
0.000556433
-0.000446343
0.000667332
-0.000560818
0.000793638
-0.000690423
0.000936033
-0.000835642
0.00109481
-0.00099659
0.00126976
-0.0011729
0.00146009
-0.0013636
0.00166421
-0.00156719
0.00187983
-0.00177965
0.00210562
-0.00200778
-0.00222281
0.00231821
5.58485e-09
1.06561e-05
3.08235e-07
2.90496e-05
1.21542e-06
4.50023e-05
3.0607e-06
5.81279e-05
6.20878e-06
6.80334e-05
1.10608e-05
7.43151e-05
1.80609e-05
7.65478e-05
2.77045e-05
7.42738e-05
4.05465e-05
6.69921e-05
5.72111e-05
5.41473e-05
7.84009e-05
3.51189e-05
0.000104905
9.21224e-06
0.000137604
-2.4348e-05
0.000177474
-6.64203e-05
0.000225585
-0.000117943
0.000283083
-0.000179925
0.000351178
-0.000253421
0.000431101
-0.000339499
0.000524055
-0.000439194
0.000631149
-0.000553437
0.000753311
-0.00068298
0.000891185
-0.000828297
0.00104502
-0.000989482
0.00121458
-0.00116615
0.00139904
-0.00135735
0.00159694
-0.00156151
0.0018061
-0.00177635
0.00202455
-0.00199809
0.00224677
-0.00223
-0.00241634
0.0024403
3.78318e-08
1.06182e-05
4.7207e-07
2.86153e-05
1.6484e-06
4.38259e-05
3.94078e-06
5.58355e-05
7.75764e-06
6.42166e-05
1.35481e-05
6.85247e-05
2.18096e-05
6.82863e-05
3.30964e-05
6.2987e-05
4.80291e-05
5.20594e-05
6.73037e-05
3.48728e-05
9.16999e-05
1.07227e-05
0.000122088
-2.11754e-05
0.000159429
-6.16896e-05
0.000204777
-0.000111768
0.000259263
-0.000172429
0.000324075
-0.000244737
0.000400424
-0.00032977
0.000489492
-0.000428567
0.000592363
-0.000542065
0.000709937
-0.000671011
0.000842827
-0.00081587
0.000991249
-0.000976719
0.00115492
-0.00115315
0.00133297
-0.0013442
0.00152388
-0.00154826
0.00172557
-0.0017632
0.00193533
-0.00198611
0.00215142
-0.00221418
0.00236796
-0.00244655
-0.00265633
0.00260794
7.89593e-08
1.05393e-05
6.72007e-07
2.80223e-05
2.16488e-06
4.23331e-05
4.9743e-06
5.30261e-05
9.55531e-06
5.96356e-05
1.64084e-05
6.16716e-05
2.60877e-05
5.8607e-05
3.92104e-05
4.98643e-05
5.64658e-05
3.4804e-05
7.8624e-05
1.27146e-05
0.000106542
-1.71955e-05
0.000141168
-5.58012e-05
0.000183537
-0.000104058
0.000234762
-0.000162993
0.000296012
-0.00023368
0.00036848
-0.000317204
0.000453326
-0.000414616
0.000551616
-0.000526858
0.00066423
-0.000654679
0.000791758
-0.00079854
0.000934398
-0.000958509
0.00109184
-0.00113416
0.00126317
-0.00132449
0.00144686
-0.00152788
0.00164073
-0.00174213
0.00184207
-0.00196454
0.00204786
-0.0021919
0.00225547
-0.00242179
0.00246019
-0.00265126
-0.00286873
0.00267259
1.30395e-07
1.04089e-05
9.13406e-07
2.72393e-05
2.77648e-06
4.047e-05
6.1813e-06
4.96212e-05
1.16322e-05
5.41847e-05
1.96839e-05
5.36199e-05
3.09507e-05
4.73403e-05
4.61151e-05
3.46998e-05
6.59374e-05
1.49818e-05
9.12615e-05
-1.26095e-05
0.000123019
-4.89534e-05
0.000162229
-9.50107e-05
0.000209984
-0.000151814
0.000267436
-0.000220445
0.000335757
-0.000302001
0.000416094
-0.000397541
0.000509496
-0.000508019
0.000616834
-0.000634195
0.000738691
-0.000776535
0.000875256
-0.000935106
0.00102622
-0.00110947
0.00119066
-0.0012986
0.00136704
-0.00150086
0.00155315
-0.001714
0.00174625
-0.00193523
0.00194319
-0.00216149
0.00214073
-0.00238943
0.00233574
-0.00261681
0.00252467
-0.00284019
-0.00305493
0.00271088
1.93411e-07
1.02155e-05
1.20103e-06
2.62316e-05
3.49349e-06
3.81775e-05
7.57939e-06
4.55353e-05
1.40147e-05
4.77494e-05
2.3411e-05
4.42236e-05
3.64447e-05
3.43065e-05
5.38658e-05
1.72787e-05
7.65049e-05
-7.65735e-06
0.000105278
-4.13823e-05
0.000141184
-8.48594e-05
0.000185298
-0.000139125
0.000238754
-0.000205269
0.000302706
-0.000284397
0.000378289
-0.000377584
0.000466544
-0.000485797
0.000568339
-0.000609814
0.000684264
-0.000750119
0.000814518
-0.000906789
0.000958804
-0.00107939
0.00111624
-0.0012669
0.00128528
-0.00146765
0.00146375
-0.00167934
0.00164892
-0.00189916
0.00183762
-0.00212393
0.00202653
-0.0023504
0.00221243
-0.00257533
0.00239236
-0.00279674
0.00256356
-0.0030114
-0.00321911
0.00272774
2.69092e-07
9.94637e-06
1.53895e-06
2.49618e-05
4.3246e-06
3.53919e-05
9.18326e-06
4.06767e-05
1.67244e-05
4.02083e-05
2.76183e-05
3.33296e-05
4.26049e-05
1.93199e-05
6.25012e-05
-2.61765e-06
8.82064e-05
-3.33625e-05
0.000120701
-7.38773e-05
0.000161042
-0.0001252
0.000210343
-0.000188426
0.000269745
-0.000264671
0.000340372
-0.000355024
0.000423263
-0.000460474
0.000519291
-0.000581825
0.000629063
-0.000719587
0.000752808
-0.000873863
0.000890263
-0.00104425
0.00104059
-0.00122972
0.00120229
-0.00142861
0.00137325
-0.00163861
0.00155076
-0.00185685
0.0017317
-0.0020801
0.00191276
-0.00230499
0.00209068
-0.00252832
0.00226261
-0.00274725
0.00242612
-0.00296025
0.00257949
-0.00316477
-0.00336336
0.00272374
3.58329e-07
9.58804e-06
1.93044e-06
2.33897e-05
5.27673e-06
3.20456e-05
1.10043e-05
3.49491e-05
1.97775e-05
3.14351e-05
3.23262e-05
2.0781e-05
4.94536e-05
2.19246e-06
7.2042e-05
-2.5206e-05
0.000101053
-6.23739e-05
0.000137524
-0.000110348
0.000182551
-0.000170227
0.000237261
-0.000243136
0.00030277
-0.00033018
0.000380119
-0.000432373
0.000470195
-0.00055055
0.000573631
-0.000685262
0.000690698
-0.000836653
0.000821189
-0.00100436
0.000964328
-0.00118738
0.0011187
-0.00138409
0.00128225
-0.00159216
0.00145234
-0.0018087
0.0016259
-0.00203041
0.00179966
-0.00225386
0.0019704
-0.00247572
0.00213523
-0.00269315
0.00229189
-0.00290391
0.00243874
-0.0031071
0.00257506
-0.00330108
-0.00349014
0.00270184
4.61807e-07
9.12624e-06
2.37798e-06
2.14735e-05
6.35495e-06
2.80686e-05
1.30505e-05
2.82535e-05
2.31843e-05
2.13013e-05
3.75458e-05
6.41955e-06
5.69996e-05
-1.72614e-05
8.24886e-05
-5.0695e-05
0.00011503
-9.49148e-05
0.0001557
-0.000151019
0.000205615
-0.000220141
0.000265882
-0.000303403
0.000337549
-0.000401847
0.000421522
-0.000516346
0.00051847
-0.000647499
0.000628717
-0.000795509
0.000752129
-0.000960065
0.000888011
-0.00114024
0.00103505
-0.00133442
0.00119127
-0.00154031
0.00135413
-0.00175502
0.00152063
-0.0019752
0.00168755
-0.00219733
0.00185169
-0.002418
0.00201017
-0.00263421
0.0021607
-0.00284368
0.00230174
-0.00304496
0.00243252
-0.00323788
0.0025532
-0.00342177
-0.00360189
0.00266495
5.80029e-07
8.54621e-06
2.88329e-06
1.91702e-05
7.56248e-06
2.33894e-05
1.53262e-05
2.04898e-05
2.69493e-05
9.6782e-06
4.32788e-05
-9.90993e-06
6.52373e-05
-3.92199e-05
9.3821e-05
-7.92787e-05
0.000130089
-0.000131183
0.000175141
-0.000196071
0.000230081
-0.000275082
0.000295964
-0.000369286
0.000373717
-0.0004796
0.000464054
-0.000606683
0.000567361
-0.000750806
0.000683589
-0.000911737
0.000812146
-0.00108862
0.000951825
-0.00127992
0.00110078
-0.00148337
0.00125656
-0.00169609
0.00141626
-0.00191472
0.0015767
-0.00213564
0.00173472
-0.00235535
0.00188743
-0.00257071
0.0020325
-0.00277928
0.00216834
-0.00297952
0.0022942
-0.00317082
0.0024101
-0.00335378
0.00251692
-0.00352859
-0.00370093
0.00261597
7.13322e-07
7.83289e-06
3.44731e-06
1.64363e-05
8.90069e-06
1.7936e-05
1.78324e-05
1.15581e-05
3.10707e-05
-3.56013e-06
4.95173e-05
-2.83565e-05
7.41465e-05
-6.38491e-05
0.000105997
-0.00011113
0.000146155
-0.00017134
0.000195718
-0.000245634
0.000255747
-0.00033511
0.000327196
-0.000440735
0.000410825
-0.00056323
0.000507094
-0.000702951
0.000616046
-0.000859758
0.000737207
-0.0010329
0.0008695
-0.00122091
0.00101121
-0.00142163
0.00116001
-0.00163217
0.0013131
-0.00184918
0.00146737
-0.00206898
0.00161966
-0.00228794
0.00176708
-0.00250277
0.00190724
-0.00271087
0.00203848
-0.00291051
0.00215995
-0.00310099
0.00227164
-0.00328252
0.00237422
-0.00345636
0.00246904
-0.00362341
-0.00378941
0.00255752
8.6186e-07
6.97103e-06
4.0703e-06
1.32278e-05
1.03692e-05
1.16371e-05
2.05663e-05
1.36093e-06
3.55407e-05
-1.85345e-05
5.62434e-05
-4.90592e-05
8.36919e-05
-9.12976e-05
0.000118954
-0.000146392
0.000163122
-0.000215508
0.000217261
-0.000299773
0.000282353
-0.000400202
0.000359206
-0.000517588
0.000448355
-0.000652378
0.000549948
-0.000804544
0.000663641
-0.00097345
0.0007885
-0.00115776
0.000922961
-0.00135538
0.00106485
-0.00156351
0.00121146
-0.00177879
0.00135977