/*--------------------------------*- C++ -*----------------------------------*\
  =========                 |
  \\      /  F ield         | OpenFOAM: The Open Source CFD Toolbox
   \\    /   O peration     | Website:  https://openfoam.org
    \\  /    A nd           | Version:  7
     \\/     M anipulation  |
\*---------------------------------------------------------------------------*/
FoamFile
{
    version     2.0;
    format      ascii;
    class       volVectorField;
    location    "60";
    object      U;
}
// * * * * * * * * * * * * * * * * * * * * * * * * * * * * * * * * * * * * * //

dimensions      [0 1 -1 0 0 0 0];

internalField   nonuniform List<vector> 
183
(
(1.248 0.286093 1.13561e-19)
(1.2368 0.272815 4.03911e-20)
(1.2268 0.260113 2.31088e-20)
(1.21786 0.247963 5.80889e-20)
(1.20976 0.236275 5.26224e-20)
(1.20211 0.225423 -4.28152e-20)
(1.19444 0.215845 3.59637e-20)
(1.30775 0.385395 1.71566e-19)
(1.30077 0.373754 -8.91047e-20)
(1.28837 0.359204 -4.9149e-20)
(1.2742 0.343572 -1.05203e-19)
(1.26011 0.327838 4.21965e-20)
(1.24691 0.312467 4.88486e-21)
(1.2349 0.297653 -7.43606e-20)
(1.22416 0.283475 1.99996e-20)
(1.21462 0.269962 3.93218e-20)
(1.20616 0.25706 -1.38473e-19)
(1.19854 0.244669 -3.14736e-22)
(1.19127 0.233196 -2.98608e-20)
(1.12681 0.363214 8.95674e-20)
(1.22293 0.399016 1.94149e-19)
(1.27419 0.414584 1.0903e-20)
(1.29424 0.415173 1.14707e-19)
(1.29528 0.40619 2.74257e-20)
(1.28635 0.391961 8.2902e-20)
(1.27319 0.375384 1.70207e-19)
(1.25895 0.358141 7.521e-20)
(1.24515 0.341078 -6.88014e-20)
(1.2324 0.324567 -9.48567e-21)
(1.2209 0.308748 5.26641e-20)
(0.187114 0.0510987 1.142e-20)
(0.511417 0.153524 -3.04891e-19)
(0.782512 0.255296 -7.73039e-20)
(0.991154 0.338998 -7.38748e-20)
(1.13548 0.397148 1.14562e-20)
(1.223 0.429809 2.18041e-20)
(1.26709 0.441452 -6.86368e-20)
(1.28213 0.438291 -1.91584e-19)
(1.28023 0.426158 -1.66872e-20)
(1.26995 0.40944 -1.11403e-19)
(1.25643 0.390918 -1.19925e-19)
(0.196307 0.061057 -9.50815e-20)
(0.528892 0.177832 2.67229e-19)
(0.799891 0.287556 -1.25997e-19)
(1.0028 0.373688 -3.97273e-20)
(1.13889 0.430404 -2.30062e-19)
(1.21833 0.459599 7.37239e-20)
(1.25605 0.467219 -8.76561e-20)
(1.26692 0.460356 2.50083e-19)
(0.204403 0.071517 -5.58017e-20)
(0.543288 0.202769 -4.39067e-19)
(0.812769 0.31996 2.23065e-19)
(1.00928 0.40788 2.22631e-19)
(1.13724 0.462666 -2.16526e-19)
(0.211287 0.0823545 -2.33524e-19)
(0.55445 0.228029 2.91382e-20)
(0.821094 0.352124 2.85528e-20)
(0.208073 -0.0813802 3.90056e-19)
(0.550167 -0.227489 -1.2072e-20)
(0.8186 -0.353711 -1.41776e-19)
(0.20073 -0.0705244 -1.21536e-19)
(0.537998 -0.202082 -6.35607e-20)
(0.809072 -0.321314 8.1727e-20)
(1.0085 -0.411815 7.40914e-20)
(1.13939 -0.468942 7.99399e-20)
(0.192166 -0.0600763 -4.10632e-20)
(0.522545 -0.177055 1.52356e-19)
(0.794896 -0.288733 -1.80234e-19)
(1.00076 -0.377439 -1.43668e-19)
(1.14001 -0.436567 -2.32378e-19)
(1.22204 -0.467635 1.74277e-19)
(1.26159 -0.476516 -1.97467e-19)
(1.27364 -0.470397 -4.9803e-21)
(0.182506 -0.0501616 1.28536e-19)
(0.503974 -0.15272 5.31141e-20)
(0.77613 -0.256359 -4.58622e-20)
(0.987746 -0.342616 1.82911e-19)
(1.13544 -0.40324 2.12251e-19)
(1.22584 -0.437881 -5.33358e-19)
(1.27205 -0.450897 4.54858e-20)
(1.2885 -0.448572 9.88331e-20)
(1.28753 -0.436883 -2.06251e-19)
(1.27787 -0.420344 1.11742e-20)
(1.26484 -0.401834 -4.90141e-20)
(1.12547 -0.369283 1.73768e-19)
(1.22479 -0.407167 8.74635e-20)
(1.27847 -0.424222 -1.80882e-20)
(1.3002 -0.425745 -1.21383e-19)
(1.30237 -0.417273 1.67247e-19)
(1.29421 -0.403264 1.05766e-19)
(1.28163 -0.38672 4.69345e-20)
(1.26789 -0.369385 6.82236e-21)
(1.25454 -0.352132 9.1242e-20)
(1.24221 -0.335353 3.18013e-21)
(1.2311 -0.319198 9.67519e-20)
(1.30854 -0.385518 -2.2828e-19)
(1.29684 -0.371021 8.13781e-22)
(1.28326 -0.355303 2.02816e-20)
(1.2697 -0.339376 -6.7475e-20)
(1.257 -0.323726 8.88631e-22)
(1.24545 -0.308559 -1.20074e-19)
(1.23513 -0.293961 -9.52528e-20)
(1.22601 -0.279977 -5.33534e-20)
(1.21794 -0.266563 7.98951e-21)
(1.21068 -0.253629 -2.2684e-20)
(1.20376 -0.241571 3.16024e-20)
(1.24819 -0.283793 -2.3602e-20)
(1.23865 -0.270588 -1.79037e-21)
(1.23014 -0.257885 6.2904e-20)
(1.22244 -0.245609 -2.3534e-20)
(1.21515 -0.234135 3.21974e-20)
(1.20784 -0.223917 -3.17488e-20)
(1.1777 0.177426 -8.95116e-21)
(1.15141 0.160071 3.91984e-21)
(1.14 0.125309 1.86011e-21)
(1.12803 0.113524 -1.30672e-21)
(1.11787 0.0946144 1.82491e-21)
(1.11145 0.0833072 -7.61e-22)
(1.1035 0.0733521 -1.22011e-21)
(1.09631 0.0638016 7.43159e-22)
(1.0919 0.0554553 -1.48677e-22)
(1.08774 0.0490002 6.82573e-22)
(1.08297 0.0435017 4.48644e-22)
(1.07784 0.0385674 1.264e-22)
(1.07359 0.0326722 3.02457e-22)
(1.07098 0.0289831 3.60865e-23)
(1.06688 0.0236451 -6.46875e-24)
(1.06617 0.0203392 -1.9475e-24)
(1.06201 0.0167761 4.15376e-23)
(1.06067 0.0127245 1.1273e-22)
(1.05873 0.0087174 -9.49233e-23)
(1.05977 0.00487533 1.46478e-22)
(1.05728 0.00311761 6.99477e-23)
(1.08643 0.0497248 -7.26293e-23)
(1.08184 0.0442526 2.63108e-23)
(1.07673 0.0392714 -5.58278e-22)
(1.07252 0.0332153 -3.94679e-24)
(1.07 0.0294743 -4.25305e-23)
(1.06593 0.0239789 -1.93019e-23)
(1.06539 0.0206715 4.11924e-23)
(1.06116 0.0171407 -6.53965e-23)
(1.05979 0.012979 -1.74809e-22)
(1.05787 0.00878545 2.46023e-22)
(1.05906 0.00496151 -2.09297e-22)
(1.05641 0.00328236 -7.94396e-23)
(1.12748 -0.0962264 7.76175e-22)
(1.117 -0.0844918 6.63683e-23)
(1.10721 -0.072418 -5.99315e-22)
(1.09994 -0.0612827 -1.54976e-22)
(1.09358 -0.0546862 2.86728e-23)
(1.08517 -0.0461219 8.63345e-23)
(1.08163 -0.0395222 -2.01117e-23)
(1.07497 -0.0344714 3.55133e-23)
(1.07223 -0.0278552 -6.89926e-24)
(1.06855 -0.024197 -8.66474e-24)
(1.06668 -0.0200243 3.93184e-23)
(1.06254 -0.0170862 -1.22416e-22)
(1.06117 -0.0128447 -1.65098e-22)
(1.05932 -0.0097985 -2.85485e-22)
(1.0595 -0.0065152 3.29763e-22)
(1.05831 -0.0048082 -3.09737e-22)
(1.05679 -0.0015358 -4.26223e-22)
(1.19169 -0.184045 7.88184e-21)
(1.16676 -0.164106 -3.46265e-21)
(1.15512 -0.127529 -1.64205e-21)
(1.14104 -0.113262 1.16845e-21)
(1.13059 -0.0936501 -9.5588e-22)
(1.11957 -0.0822407 -1.12902e-21)
(1.10946 -0.0704736 8.02137e-22)
(1.10183 -0.0597967 -1.27238e-22)
(1.09515 -0.0532773 1.87474e-22)
(1.08668 -0.0450002 -2.36332e-22)
(1.08289 -0.0386373 -2.2369e-22)
(1.07619 -0.033691 -9.03607e-24)
(1.07329 -0.0273624 -2.30348e-23)
(1.06945 -0.0237906 3.05777e-23)
(1.06743 -0.0196424 -1.26026e-22)
(1.06334 -0.016733 3.65654e-23)
(1.06194 -0.0126369 2.81958e-22)
(1.06003 -0.00969861 4.09474e-22)
(1.06008 -0.00645095 -1.84486e-22)
(1.05889 -0.00466776 4.17044e-22)
(1.05746 -0.00146086 4.56477e-22)
)
;

boundaryField
{
    inlet
    {
        type            uniformFixedValue;
        uniformValue    constant (1 0 0);
        value           nonuniform 0();
    }
    outlet
    {
        type            pressureInletOutletVelocity;
        value           nonuniform 0();
    }
    cylinder
    {
        type            fixedValue;
        value           uniform (0 0 0);
    }
    top
    {
        type            symmetryPlane;
    }
    bottom
    {
        type            symmetryPlane;
    }
    defaultFaces
    {
        type            empty;
    }
    procBoundary15to14
    {
        type            processor;
        value           nonuniform List<vector> 
98
(
(1.18382 0.223041 -5.01378e-20)
(1.21068 0.293675 8.7277e-20)
(1.20167 0.279352 5.53045e-20)
(1.19376 0.265701 -2.81724e-21)
(1.18668 0.252658 -8.94915e-20)
(1.18382 0.223041 -5.01378e-20)
(1.17982 0.240707 3.69049e-20)
(1.24241 0.372115 -3.19448e-20)
(1.22907 0.353753 -2.89685e-19)
(1.21689 0.336119 -1.64546e-20)
(1.21068 0.293675 8.7277e-20)
(1.20598 0.319305 2.84276e-20)
(1.2628 0.445184 -1.54304e-20)
(1.25168 0.426088 2.45354e-19)
(1.24241 0.372115 -3.19448e-20)
(1.23818 0.405705 6.66473e-20)
(1.2092 0.488146 1.36242e-19)
(1.24136 0.491706 2.18766e-19)
(1.2628 0.445184 -1.54304e-20)
(1.24885 0.481229 4.77854e-20)
(1.01072 0.441206 -1.79481e-19)
(1.2092 0.488146 1.36242e-19)
(1.13075 0.49363 7.04641e-21)
(0.216862 0.0934347 1.34029e-19)
(0.562271 0.253295 -3.31371e-19)
(1.01072 0.441206 -1.79481e-19)
(0.824874 0.383669 2.9687e-19)
(0.214097 -0.0925073 -4.45269e-19)
(0.558939 -0.252952 3.43649e-19)
(0.823488 -0.385538 -1.37986e-19)
(1.01108 -0.445371 1.52076e-19)
(1.01108 -0.445371 1.52076e-19)
(1.13381 -0.50006 1.29035e-19)
(1.21366 -0.496186 2.01355e-21)
(1.21366 -0.496186 2.01355e-21)
(1.24739 -0.500898 -4.06828e-20)
(1.25586 -0.49108 -7.76009e-20)
(1.27026 -0.455604 1.22635e-19)
(1.27026 -0.455604 1.22635e-19)
(1.25965 -0.43665 2.97632e-20)
(1.24654 -0.416259 7.20607e-20)
(1.25122 -0.382938 2.24286e-20)
(1.25122 -0.382938 2.24286e-20)
(1.23826 -0.364386 4.30337e-22)
(1.22644 -0.34649 -7.75132e-20)
(1.21587 -0.329356 -5.72844e-20)
(1.22126 -0.303724 -8.2537e-20)
(1.22126 -0.303724 -8.2537e-20)
(1.21263 -0.288959 1.65731e-20)
(1.20507 -0.274837 -1.45488e-20)
(1.19832 -0.261286 1.27735e-20)
(1.19181 -0.248763 -3.18151e-20)
(1.19668 -0.230845 4.20092e-20)
(1.19668 -0.230845 4.20092e-20)
(1.1692 0.182106 5.01199e-21)
(1.14563 0.16469 3.83539e-21)
(1.13524 0.128495 -5.70176e-21)
(1.12447 0.116121 3.02099e-21)
(1.11481 0.0966852 -2.96136e-21)
(1.10904 0.0848696 -1.63952e-22)
(1.10145 0.0748253 7.16157e-22)
(1.0944 0.0649703 1.92168e-22)
(1.09027 0.0562997 -3.86622e-23)
(1.09027 0.0562997 -3.86622e-23)
(1.08511 0.0504172 -1.0755e-21)
(1.08072 0.0449993 3.19964e-22)
(1.07563 0.0399886 -3.24406e-22)
(1.07143 0.0337634 -2.33301e-22)
(1.069 0.0299649 3.33129e-23)
(1.06497 0.0243022 2.53549e-23)
(1.06462 0.0210003 1.07166e-22)
(1.0603 0.017523 -6.14904e-23)
(1.05888 0.0132419 2.44921e-22)
(1.05699 0.00883884 -7.6623e-23)
(1.05836 0.00505076 -2.3273e-22)
(1.05553 0.00346378 4.69026e-22)
(1.12434 -0.0987488 1.97998e-21)
(1.11441 -0.0867169 2.38644e-22)
(1.10492 -0.074357 2.18615e-22)
(1.09802 -0.0627432 4.16869e-22)
(1.09199 -0.0560878 3.88538e-22)
(1.08363 -0.0472468 4.40476e-22)
(1.08035 -0.0404006 -1.26168e-22)
(1.07372 -0.0352522 -6.53426e-24)
(1.07114 -0.0283318 -3.37692e-23)
(1.06763 -0.024581 -1.25881e-22)
(1.06592 -0.0204023 4.14167e-23)
(1.06174 -0.0174481 -5.14192e-23)
(1.06038 -0.0130502 -1.97525e-22)
(1.0586 -0.00988183 4.20825e-22)
(1.05893 -0.00656931 1.14957e-22)
(1.05773 -0.0049608 -3.85421e-22)
(1.0561 -0.00162238 2.58222e-22)
(1.18252 -0.188675 -6.73994e-21)
(1.16041 -0.168822 -4.94279e-21)
(1.1499 -0.131043 7.53244e-21)
(1.13714 -0.116209 -3.65749e-21)
(1.13714 -0.116209 -3.65749e-21)
)
;
    }
    procBoundary15to16
    {
        type            processor;
        value           nonuniform List<vector> 
90
(
(1.26019 0.274141 3.24537e-20)
(1.24861 0.261757 6.0692e-20)
(1.2382 0.249865 1.77095e-20)
(1.22883 0.238465 1.26185e-21)
(1.2203 0.227489 -1.74266e-20)
(1.21225 0.217269 2.47716e-20)
(1.20424 0.208222 6.20933e-22)
(1.31742 0.363879 8.82009e-21)
(1.31306 0.354917 3.26692e-20)
(1.30189 0.342469 3.4854e-21)
(1.2881 0.328498 1.71849e-20)
(1.27393 0.314121 5.83095e-20)
(1.26042 0.2999 8.38898e-21)
(1.26042 0.2999 8.38898e-21)
(1.11273 0.328932 -6.65063e-20)
(1.21786 0.367474 -1.13085e-19)
(1.27707 0.386799 1.22367e-19)
(1.303 0.391142 1.93513e-19)
(1.303 0.391142 1.93513e-19)
(0.17696 0.0417528 -2.83989e-20)
(0.491073 0.130137 -3.06262e-19)
(0.760749 0.223559 1.60358e-19)
(0.974314 0.304186 -9.05774e-20)
(0.974314 0.304186 -9.05774e-20)
(0.171888 -0.0408919 3.98996e-21)
(0.482507 -0.129371 3.00239e-19)
(0.752901 -0.224577 -3.98682e-20)
(0.96941 -0.307731 1.76274e-20)
(0.96941 -0.307731 1.76274e-20)
(1.10996 -0.335027 -6.76111e-20)
(1.21859 -0.375747 1.35833e-19)
(1.28057 -0.396675 -5.51935e-20)
(1.30848 -0.402055 -1.02911e-20)
(1.31458 -0.396892 -5.70909e-20)
(1.31458 -0.396892 -5.70909e-20)
(1.32071 -0.367202 -8.68906e-21)
(1.31039 -0.354834 -4.59473e-20)
(1.29729 -0.340783 8.52912e-20)
(1.28373 -0.326207 -2.84871e-20)
(1.27079 -0.311695 -2.52568e-20)
(1.2589 -0.297517 -3.52518e-20)
(1.2589 -0.297517 -3.52518e-20)
(1.26045 -0.27329 -5.43766e-20)
(1.25055 -0.260857 -1.64279e-20)
(1.24167 -0.24886 3.6669e-20)
(1.23357 -0.237242 -3.86502e-20)
(1.22592 -0.226341 -2.77217e-20)
(1.21826 -0.216592 8.09347e-22)
(1.18583 0.172349 4.32663e-21)
(1.15707 0.155269 -7.37222e-21)
(1.14465 0.122066 1.89661e-21)
(1.13144 0.110839 1.70559e-21)
(1.12087 0.0925298 -1.95202e-23)
(1.11379 0.0817035 -6.00635e-23)
(1.10553 0.0718782 6.68689e-22)
(1.09819 0.0626361 -1.16771e-22)
(1.0935 0.0545864 1.14053e-22)
(1.08905 0.0482491 4.6518e-22)
(1.08412 0.0427488 6.64008e-22)
(1.07896 0.0378744 -7.45691e-23)
(1.07465 0.0321324 1.18468e-22)
(1.07195 0.0284914 1.07509e-22)
(1.06782 0.0233025 3.79271e-23)
(1.06696 0.0200045 1.24104e-24)
(1.06286 0.0164271 -2.77201e-23)
(1.06153 0.0124774 -1.15184e-22)
(1.05957 0.00863638 -7.0069e-23)
(1.06046 0.00479191 -3.87954e-23)
(1.05812 0.00296827 -1.962e-22)
(1.20052 -0.179049 -4.21483e-21)
(1.17307 -0.1592 2.59331e-21)
(1.16029 -0.123939 -1.78362e-21)
(1.14481 -0.110189 1.34471e-21)
(1.1337 -0.0910367 -9.56646e-23)
(1.12208 -0.0799615 6.74697e-23)
(1.11169 -0.068521 5.52575e-22)
(1.10367 -0.0582854 -4.13802e-22)
(1.09671 -0.051862 3.42268e-22)
(1.08817 -0.0438796 1.5471e-22)
(1.08413 -0.0377448 -3.54136e-23)
(1.07739 -0.0329103 4.00593e-23)
(1.07433 -0.026854 5.3684e-23)
(1.07035 -0.0233646 -6.14359e-24)
(1.06818 -0.0192574 5.24647e-23)
(1.06412 -0.0163863 -2.55636e-23)
(1.06268 -0.0124262 8.72401e-23)
(1.06073 -0.00958447 1.11979e-23)
(1.06065 -0.0063781 -9.701e-23)
(1.05947 -0.00453759 6.29363e-23)
(1.05812 -0.00139577 1.79041e-23)
)
;
    }
}


// ************************************************************************* //
