/*--------------------------------*- C++ -*----------------------------------*\
  =========                 |
  \\      /  F ield         | OpenFOAM: The Open Source CFD Toolbox
   \\    /   O peration     | Website:  https://openfoam.org
    \\  /    A nd           | Version:  7
     \\/     M anipulation  |
\*---------------------------------------------------------------------------*/
FoamFile
{
    version     2.0;
    format      ascii;
    class       surfaceScalarField;
    location    "30";
    object      phi;
}
// * * * * * * * * * * * * * * * * * * * * * * * * * * * * * * * * * * * * * //

dimensions      [0 3 -1 0 0 0 0];

internalField   nonuniform List<scalar> 
612
(
-1.71353e-05
4.38461e-06
4.76831e-12
-2.20649e-05
4.92961e-06
6.1123e-12
-2.74867e-05
5.4217e-06
7.66297e-12
5.85478e-06
9.44631e-12
-1.68707e-05
8.69349e-06
-2.17088e-05
9.76767e-06
-2.70216e-05
1.07345e-05
1.15816e-05
-1.63437e-05
1.28515e-05
-2.09993e-05
1.44233e-05
-2.60951e-05
1.58303e-05
1.70534e-05
-1.55584e-05
1.67845e-05
-1.99421e-05
1.8807e-05
-2.47144e-05
2.06026e-05
2.21449e-05
-1.4521e-05
-1.8545e-05
2.2831e-05
-2.28895e-05
2.4947e-05
2.67336e-05
-1.68178e-05
2.64101e-05
-2.06329e-05
2.87621e-05
3.07002e-05
-1.47712e-05
2.94617e-05
-1.79586e-05
3.19495e-05
-2.11876e-05
3.39292e-05
3.53505e-05
-1.24167e-05
3.19058e-05
-1.48815e-05
3.44143e-05
-1.72614e-05
3.63091e-05
3.75286e-05
-9.76531e-06
-1.14158e-05
3.60648e-05
-1.28393e-05
3.77326e-05
3.85941e-05
-7.57464e-06
3.68126e-05
-7.93817e-06
3.80962e-05
-7.77122e-06
3.84271e-05
3.77205e-05
-3.36877e-06
-2.57215e-06
3.72995e-05
-1.05721e-06
3.69122e-05
3.53071e-05
3.24819e-06
3.52452e-05
6.22328e-06
3.39371e-05
3.1212e-05
9.51643e-06
1.40615e-05
2.9392e-05
1.99629e-05
2.53107e-05
1.94531e-05
2.24542e-05
2.31681e-05
3.02846e-05
1.74803e-05
9.75093e-06
3.14025e-05
4.12848e-05
7.59798e-06
5.33253e-05
-2.28959e-06
-1.46985e-05
5.2969e-05
6.74864e-05
-1.6807e-05
-3.20176e-05
8.24797e-05
-3.39434e-05
0.000102757
-5.22944e-05
-7.41369e-05
9.83109e-05
0.000121709
-7.56921e-05
0.00014903
-0.000101458
-0.000131445
0.000141661
0.00017267
-0.000132468
-0.000167268
0.000197481
0.000237636
-0.000207423
-0.000253099
0.000268114
-0.000252149
0.000319153
-0.000304138
-0.000362757
0.000299763
0.000356173
-0.000360548
0.000420091
-0.000426675
-0.000500546
0.000394321
0.000464596
-0.00049695
0.000543795
-0.000579745
-0.000671497
0.000509898
0.000596802
-0.000666648
0.000694654
-0.000769349
-0.000882649
0.000649275
0.000756603
-0.000876677
0.000878793
-0.00100484
-0.00114788
0.000812992
0.000943448
0.00109275
-0.00129718
-0.00148313
0.00114698
0.00131475
-0.00165091
-0.00188632
0.00135101
-0.00205687
0.00152156
0.00154393
0.00205687
0.00154393
0.00135101
0.00165091
0.00188632
0.00152156
0.00114698
0.00129718
0.00131475
0.00148313
0.000812992
0.000876677
0.000943448
0.00100484
0.00109275
0.00114788
0.000649275
0.000666648
0.000756603
0.000769349
0.000878793
0.000882649
0.000509898
0.00049695
0.000596802
0.000579745
0.000694654
0.000671497
0.000394321
0.000360548
0.000464596
0.000426675
0.000543795
0.000500546
0.000299763
0.000252149
0.000356173
0.000304138
0.000420091
0.000362757
0.000268114
0.000207423
0.000319153
0.000253098
0.000197481
0.000132467
0.000237636
0.000167268
0.000141661
7.5692e-05
0.00017267
0.000101458
0.000131445
9.83109e-05
3.39433e-05
0.000121709
5.22944e-05
0.00014903
7.41369e-05
8.24797e-05
1.6807e-05
0.000102757
3.20176e-05
5.2969e-05
-7.598e-06
6.74864e-05
2.28956e-06
1.46984e-05
3.14025e-05
-2.31681e-05
4.12848e-05
-1.74803e-05
5.33253e-05
-9.75096e-06
2.24542e-05
-2.9392e-05
3.02846e-05
-2.53107e-05
-1.94531e-05
9.51643e-06
-3.52452e-05
1.40615e-05
-3.39371e-05
1.99629e-05
-3.1212e-05
3.24819e-06
-3.72996e-05
6.22328e-06
-3.69122e-05
-3.53072e-05
-3.36877e-06
-3.68126e-05
-2.57214e-06
-3.80962e-05
-1.05721e-06
-3.84271e-05
-3.77205e-05
-7.57464e-06
-3.60648e-05
-7.93817e-06
-3.77326e-05
-7.77121e-06
-3.85941e-05
-9.76531e-06
-3.19058e-05
-1.14158e-05
-3.44143e-05
-1.28393e-05
-3.63091e-05
-3.75286e-05
-1.24167e-05
-2.94617e-05
-1.48815e-05
-3.19495e-05
-1.72614e-05
-3.39292e-05
-3.53505e-05
-1.47712e-05
-2.64101e-05
-1.79586e-05
-2.87621e-05
-2.11876e-05
-3.07002e-05
-1.68178e-05
-2.2831e-05
-2.06329e-05
-2.4947e-05
-2.67336e-05
-1.4521e-05
-1.67845e-05
-1.8545e-05
-1.8807e-05
-2.28895e-05
-2.06026e-05
-2.21449e-05
-1.55584e-05
-1.28515e-05
-1.99421e-05
-1.44233e-05
-2.47144e-05
-1.58303e-05
-1.70534e-05
-1.63437e-05
-8.6935e-06
-2.09993e-05
-9.76769e-06
-2.60951e-05
-1.07345e-05
-1.15816e-05
-1.68707e-05
-4.38462e-06
-2.17088e-05
-4.92962e-06
-2.70216e-05
-5.42172e-06
-5.8548e-06
-1.71353e-05
-2.20649e-05
-2.74867e-05
0.00193043
-0.010216
0.00184298
-0.0101514
0.0017564
-0.010089
0.00167089
-0.0100294
0.00158653
-0.00997291
0.00150335
-0.00991961
0.00142132
-0.0098695
0.0013404
-0.00982252
0.00126053
-0.00977857
0.00118164
-0.00973758
0.00110367
-0.00969945
0.00102655
-0.00966408
0.000950211
-0.0096314
0.000874592
-0.00960134
0.000799624
-0.00957381
0.000725242
-0.00954876
0.000651381
-0.00952612
0.00057798
-0.00950586
0.000504976
-0.00948792
0.000432309
-0.00947226
0.000359916
-0.00945886
0.000287739
-0.00944769
0.000215716
-0.00943873
0.000143789
-0.00943198
7.18999e-05
-0.00942745
-0.00942515
0.00180017
-0.0068308
0.00203295
-0.0078669
0.00221349
-0.00868424
0.00234079
-0.00932008
0.00241736
-0.00978325
0.00244906
-0.0100972
0.00244381
-0.0102901
0.00241005
-0.0103908
0.00235565
-0.0104254
0.00228721
-0.0104154
0.00220989
-0.0103775
0.00212743
-0.0103235
0.00204239
-0.0102612
0.00195641
-0.0101957
0.00187052
-0.0101301
0.00178531
-0.0100662
0.00170109
-0.0100048
0.00161801
-0.00994631
0.00153611
-0.00989101
0.00145541
-0.0098389
0.00137585
-0.00978995
0.00129739
-0.00974406
0.00121997
-0.00970115
0.00114353
-0.00966113
0.00106799
-0.00962391
0.000993286
-0.00958938
0.000919357
-0.00955747
0.000846135
-0.00952811
0.000773554
-0.00950123
0.00070155
-0.00947675
0.000630063
-0.00945464
0.000559029
-0.00943483
0.00048839
0.000418084
0.000348054
0.00027824
0.000208584
0.000139028
6.95165e-05
0.00181438
0.0020358
0.00220321
0.00231682
0.00238063
0.00240148
0.00238779
0.00234807
0.00228997
0.0022197
0.00214201
0.00206023
0.00197659
0.0018925
0.00180879
0.00172594
0.00164418
0.00156362
0.00148426
0.0014061
0.00132909
0.00125317
0.00117828
0.00110434
0.0010313
0.00095909
0.000887637
0.000816879
0.000746753
0.000677196
0.000608149
0.00181438
0.0068308
0.0020358
0.0078669
0.00220321
0.00868424
0.00231682
0.00932008
0.00238063
0.00978325
0.00240148
0.0100972
0.00238779
0.0102901
0.00234807
0.0103908
0.00228997
0.0104254
0.0022197
0.0104154
0.00214201
0.0103775
0.00206023
0.0103235
0.00197659
0.0102612
0.0018925
0.0101957
0.00180879
0.0101301
0.00172594
0.0100662
0.00164418
0.0100048
0.00156362
0.00994631
0.00148426
0.00989101
0.0014061
0.0098389
0.00132909
0.00978995
0.00125317
0.00974406
0.00117828
0.00970115
0.00110434
0.00966113
0.0010313
0.00962391
0.00095909
0.00958938
0.000887637
0.00955747
0.000816879
0.00952811
0.000746753
0.00950123
0.000677196
0.00947675
0.000608149
0.00945464
0.00053955
0.00943483
0.000471341
0.00941728
0.000403465
0.00940196
0.000335863
0.00938883
0.000268479
0.00937787
0.000201256
0.00936907
0.000134137
0.00936242
6.70679e-05
0.00935794
0.00935564
0.00180017
0.00203295
0.00221349
0.00234079
0.00241736
0.00244906
0.00244381
0.00241005
0.00235565
0.00228721
0.00220989
0.00212743
0.00204239
0.00195641
0.00187052
0.00178531
0.00170109
0.00161801
0.00153611
0.00145541
0.00137585
0.00129739
0.00121997
0.00114353
0.00106799
0.000993286
0.000919357
0.000846135
0.000773554
0.00070155
0.000630063
0.00952612
0.000559029
0.00950586
0.00048839
0.00948792
0.000418084
0.00947226
0.000348054
0.00945886
0.00027824
0.00944769
0.000208584
0.00943873
0.000139028
0.00943198
6.95165e-05
0.00942745
0.00942515
0.000651381
0.00057798
0.000504976
0.000432309
0.000359916
0.000287739
0.000215716
0.000143789
7.18999e-05
)
;

boundaryField
{
    inlet
    {
        type            calculated;
        value           nonuniform 0();
    }
    outlet
    {
        type            calculated;
        value           nonuniform 0();
    }
    cylinder
    {
        type            calculated;
        value           nonuniform 0();
    }
    top
    {
        type            symmetryPlane;
        value           uniform 0;
    }
    bottom
    {
        type            symmetryPlane;
        value           uniform 0;
    }
    defaultFaces
    {
        type            empty;
        value           nonuniform 0();
    }
    procBoundary22to21
    {
        type            processor;
        value           nonuniform List<scalar> 
175
(
1.27507e-05
1.25618e-05
1.21857e-05
1.16254e-05
1.08854e-05
2.04201e-05
1.32386e-05
1.17197e-05
9.9726e-06
8.00566e-06
3.36655e-05
6.82686e-06
3.60954e-06
3.65718e-05
-1.19386e-06
-6.10858e-06
3.18374e-05
-1.62303e-05
-2.33909e-05
1.51565e-05
-4.09104e-05
-4.46062e-06
-6.53433e-05
-7.84091e-05
-5.38452e-05
-0.000114972
-0.000102381
-0.000162583
-0.000167365
-0.000223387
-0.000250231
-0.00030168
-0.00033227
-0.000422599
-0.000432978
-0.00057387
-0.000554652
-0.000761271
-0.000698285
-0.000991384
-0.0011353
-0.000996111
-0.00144805
-0.00118856
-0.00181336
-0.00137958
-0.00222122
-0.00222122
-0.00137958
-0.00181336
-0.00118856
-0.00144805
-0.000991384
-0.000996111
-0.0011353
-0.000698285
-0.000761271
-0.000554652
-0.00057387
-0.000432978
-0.000422599
-0.00033227
-0.00030168
-0.000250231
-0.000223387
-0.000167365
-0.000162583
-0.000102381
-0.000114972
-5.38452e-05
-7.84091e-05
-6.53433e-05
-4.4606e-06
-4.09104e-05
1.51565e-05
-2.33909e-05
-1.62303e-05
3.18374e-05
-6.10858e-06
-1.19386e-06
3.65718e-05
3.60954e-06
6.82686e-06
3.36655e-05
8.00566e-06
9.9726e-06
1.17197e-05
1.32386e-05
2.04201e-05
1.08854e-05
1.16254e-05
1.21857e-05
1.25618e-05
1.27507e-05
-0.00941728
-0.00940196
-0.00938883
-0.00937787
-0.00936907
-0.00936242
-0.00935794
-0.00935564
-0.00710125
-0.00808831
-0.00885165
-0.00943369
-0.00984706
-0.010118
-0.0102764
-0.0103511
-0.0103673
-0.0103452
-0.0102998
-0.0102417
-0.0101775
-0.0101116
-0.0100464
-0.00998333
-0.009923
-0.00986574
-0.00981166
-0.00976075
-0.00971293
-0.00966814
-0.00962626
-0.0095872
-0.00955087
-0.00951717
-0.00948602
-0.00945736
-0.0094311
-0.0094072
-0.00938559
0.00053955
-0.00936623
-0.00710125
-0.00808831
-0.00885165
-0.00943369
-0.00984706
-0.010118
-0.0102764
-0.0103511
-0.0103673
-0.0103452
-0.0102998
-0.0102417
-0.0101775
-0.0101116
-0.0100464
-0.00998333
-0.009923
-0.00986574
-0.00981166
-0.00976075
-0.00971293
-0.00966814
-0.00962626
-0.0095872
-0.00955087
-0.00951717
-0.00948602
-0.00945736
-0.0094311
-0.0094072
-0.00938559
-0.00936623
-0.00934907
-0.00933408
-0.00932123
-0.00931049
-0.00930185
-0.0092953
-0.00929087
-0.00928857
)
;
    }
    procBoundary22to23
    {
        type            processor;
        value           nonuniform List<scalar> 
164
(
-3.33414e-05
-3.27484e-05
-3.15669e-05
-2.98059e-05
-2.74782e-05
-2.45995e-05
-3.21842e-05
-2.43539e-05
-1.94396e-05
-1.39048e-05
-3.85797e-05
-6.91205e-06
1.35614e-06
1.03184e-05
-2.69535e-05
2.74633e-05
3.99867e-05
1.80588e-07
6.78432e-05
8.48055e-05
5.03143e-05
0.000126579
9.97263e-05
0.000180748
0.000208493
0.00020713
0.000283604
0.000304791
0.000377118
0.000428466
0.000492171
0.000582686
0.000632606
0.000772823
0.00080448
0.00100716
0.00101951
0.00131097
0.00126492
0.00170709
0.00149398
0.00170709
0.00149398
0.00126492
0.00131097
0.00101951
0.00100716
0.00080448
0.000772823
0.000632606
0.000582686
0.000492171
0.000428465
0.000377118
0.000304791
0.000283604
0.00020713
0.000208493
0.000180748
9.97262e-05
0.000126579
5.03142e-05
8.48055e-05
6.78432e-05
1.80558e-07
3.99867e-05
2.74633e-05
-2.69536e-05
1.03184e-05
1.35614e-06
-6.91205e-06
-3.85797e-05
-1.39048e-05
-1.94396e-05
-2.43539e-05
-3.21842e-05
-2.45995e-05
-2.74782e-05
-2.98059e-05
-3.15669e-05
-3.27484e-05
-3.33414e-05
0.0103039
0.0102388
0.0101756
0.0101149
0.0100573
0.0100028
0.00995153
0.00990344
0.00985845
0.00981647
0.00977742
0.0097412
0.00970774
0.00967695
0.00964878
0.00962314
0.00959998
0.00957926
0.00956092
0.00954493
0.00953125
0.00951986
0.00951075
0.00950391
0.00949934
0.00949705
0.00655219
0.00763412
0.0085037
0.00919278
0.00970668
0.0100655
0.0102954
0.0104246
0.0104798
0.0104839
0.0104549
0.0104059
0.0103462
-0.00201835
0.0102817
0.00655219
0.00763412
0.0085037
0.00919278
0.00970668
0.0100655
0.0102954
0.0104246
0.0104798
0.0104839
0.0104549
0.0104059
0.0103462
0.0102817
0.010216
0.0101514
0.010089
0.0100294
0.00997291
0.00991961
0.0098695
0.00982252
0.00977857
0.00973758
0.00969945
0.00966408
0.0096314
0.00960134
0.00957381
0.00954876
-0.000725242
0.00959998
0.00957926
0.00956092
0.00954493
0.00953125
0.00951986
0.00951075
0.00950391
0.00949934
0.00949705
)
;
    }
}


// ************************************************************************* //
