/*--------------------------------*- C++ -*----------------------------------*\
  =========                 |
  \\      /  F ield         | OpenFOAM: The Open Source CFD Toolbox
   \\    /   O peration     | Website:  https://openfoam.org
    \\  /    A nd           | Version:  7
     \\/     M anipulation  |
\*---------------------------------------------------------------------------*/
FoamFile
{
    version     2.0;
    format      ascii;
    class       surfaceScalarField;
    location    "25";
    object      phi;
}
// * * * * * * * * * * * * * * * * * * * * * * * * * * * * * * * * * * * * * //

dimensions      [0 3 -1 0 0 0 0];

internalField   nonuniform List<scalar> 
278
(
-0.000530905
-0.000502274
2.45675e-05
-0.000761519
0.000240954
-0.000461573
-0.000978508
-0.00127641
-0.000339717
-0.00144939
-0.00178037
-0.000172611
-0.00191151
-0.00226865
3.10492e-05
-0.00236221
-0.00273655
0.000256532
-0.00279384
-0.00318473
0.000499205
-0.00320511
-0.00360944
0.000749432
-0.00359706
-0.0040085
0.000999989
-0.00396643
-0.00438024
0.00124517
-0.00431118
0.0015883
-0.00472337
-0.00453384
0.0014806
-0.00462967
0.00179411
-0.00503689
-0.00482049
0.00170292
-0.00492049
0.00198613
-0.0053201
-0.00508014
0.0019096
-0.00518234
0.00216213
-0.00557262
-0.00531318
0.00209873
-0.00541406
0.00232056
-0.00579445
-0.00552032
0.00226884
-0.00561471
0.00246037
-0.00598598
-0.00570263
0.00241886
0.00258098
-0.0061481
-0.00586151
0.00268227
-0.0062822
-0.00599868
0.00276426
-0.00639019
-0.00611614
0.00282642
-0.00647451
-0.00621628
0.00287013
-0.00653794
-0.00630148
0.00290032
-0.00658234
-0.00637181
0.0199179
-0.00647049
-0.00626411
0.0219102
-0.00601596
-0.00584932
0.0225767
-0.00541659
-0.00531602
0.0227537
-0.00482911
-0.00479086
0.0227715
-0.00429734
-0.00430613
0.0227389
-0.00382331
-0.00386432
0.0226901
-0.00339949
-0.00346114
0.0226334
-0.00301821
-0.0030918
0.0225728
-0.00267315
-0.00275231
0.0225114
-0.00235875
-0.0024391
0.0224489
-0.00207061
-0.00214916
0.0223853
-0.00180538
-0.00188001
0.0223226
-0.00156019
-0.0016293
0.022265
-0.00133202
-0.00139439
0.0222142
-0.00111785
-0.00117257
0.0221697
-0.000914935
-0.000961387
0.02213
-0.00072133
-0.000759002
0.0220972
-0.000534966
-0.00056349
0.0220729
-0.000353823
-0.000372943
0.022057
-0.000175955
-0.000185537
0.0220473
-0.00607919
0.0198524
0.00615805
-0.00568105
0.021844
-0.00514978
0.0225248
-0.00462123
0.02271
-0.00413565
0.0227331
-0.00369734
0.0227052
-0.0033012
0.0226604
-0.00294157
0.0226073
-0.00261288
0.0225503
-0.00231116
0.0224891
-0.00203296
0.022427
-0.00177568
0.0223658
-0.00153654
0.0223085
-0.00131288
0.0222555
-0.00110224
0.0222065
-0.000902617
0.0221611
-0.000712057
0.0221216
-0.000528354
0.022091
-0.000349404
0.022069
-0.00017373
0.022053
0.0220427
-0.00585768
0.00592244
-0.00550369
-0.00503551
-0.00456594
-0.00412674
-0.00372182
-0.00334819
-0.0030023
-0.00268082
-0.00238163
-0.00210284
-0.00184273
-0.00159914
-0.00136982
-0.00115259
-0.000945614
-0.000747093
-0.000554974
-0.000367321
-0.000182729
0.00290575
0.00610368
0.00584711
0.00287248
0.00603152
0.00575726
0.0028242
0.00593994
0.00565251
0.00275645
0.00582613
0.00553031
0.0025294
0.00552688
0.00266794
0.0056876
0.00538812
0.00239387
0.00536107
0.00255912
0.00552235
0.00522373
0.00223658
0.00516665
0.00243006
0.00532886
0.00503521
0.00205827
0.00494406
0.00228104
0.00510609
0.00482092
0.00186019
0.00469406
0.00211288
0.0048534
0.00457958
0.00164412
0.00441756
0.00192698
0.00457053
0.00431024
0.00141238
0.00411553
0.00172535
0.00425757
0.00401233
0.00116809
0.00378894
0.00151079
0.00391487
0.000915303
0.00343887
0.00354311
0.00065928
0.00306666
0.00314337
0.000406687
0.00267586
0.00271719
0.000165739
0.00226177
0.00226685
-5.43274e-05
0.00182839
0.00179526
-0.000245985
0.00138066
0.00130359
-0.000396232
0.000920488
0.000796935
-0.000497309
0.000450927
0.000280324
-0.000543141
)
;

boundaryField
{
    inlet
    {
        type            calculated;
        value           nonuniform 0();
    }
    outlet
    {
        type            calculated;
        value           nonuniform 0();
    }
    cylinder
    {
        type            calculated;
        value           nonuniform 0();
    }
    top
    {
        type            symmetryPlane;
        value           uniform 0;
    }
    bottom
    {
        type            symmetryPlane;
        value           uniform 0;
    }
    defaultFaces
    {
        type            empty;
        value           nonuniform 0();
    }
    procBoundary37to36
    {
        type            processor;
        value           nonuniform List<scalar> 
86
(
0.00100861
0.000937807
0.000810594
0.000634734
0.000419655
0.000175091
-8.79304e-05
-0.000357478
-0.000630622
-0.000900427
-0.0011621
-0.0014121
-0.00164776
-0.00186701
-0.00206818
-0.00224985
-0.00578372
-0.00254817
-0.00265627
-0.0027421
-0.0028067
-0.00285592
-0.0200298
-0.0223647
-0.023176
-0.0233412
-0.0233032
-0.0232129
-0.0231139
-0.0230147
-0.0229178
-0.0228257
-0.0227371
-0.0226505
-0.0225678
-0.0224932
-0.0224284
-0.0223726
-0.0223236
-0.0222836
-0.022254
-0.0222348
-0.0222232
-0.0199313
-0.0222421
-0.023056
-0.0232386
-0.0232187
-0.0231435
-0.0230565
-0.022967
-0.022879
-0.0227908
-0.0227052
-0.0226231
-0.0225476
-0.0224792
-0.0224172
-0.0223607
-0.0223122
-0.0222747
-0.0222479
-0.0222287
-0.0222164
-0.00285137
-0.00280033
-0.00273262
-0.00264264
-0.00566414
-0.00239214
-0.00222807
-0.00204216
-0.00183568
-0.00161019
-0.00136762
-0.00111035
-0.000841503
-0.000565227
-0.000287076
-1.58852e-05
0.00024835
0.000487708
0.000693719
0.000856401
0.00096687
0.00101864
)
;
    }
    procBoundary37to38
    {
        type            processor;
        value           nonuniform List<scalar> 
86
(
-1.03395e-05
5.33174e-05
0.000164239
0.000315674
0.000498953
0.000704711
0.00092391
0.00114849
0.00137173
0.00422008
0.00190206
0.00208077
0.00224578
0.00239517
0.0025277
0.00264267
0.00273986
0.00281944
0.00288171
0.00292656
0.00295533
0.00297065
0.0198102
0.0214954
0.0220434
0.0222285
0.0222867
0.0222971
0.0222869
0.0222641
0.0222333
0.0221981
0.022159
0.0221161
0.0220719
0.0220301
0.0219924
0.0219586
0.0219276
0.0219017
0.0218823
0.0218695
0.0218617
0.0197877
0.02149
0.0220566
0.0222404
0.0222939
0.0223003
0.0222867
0.0222614
0.0222288
0.0221899
0.0221482
0.0221057
0.0220649
0.0220262
0.0219893
0.0219541
0.0219231
0.0218989
0.0218813
0.0218684
0.02186
0.00298108
0.00296233
0.00292896
0.00287864
0.00281013
0.00272352
0.00261858
0.00249532
0.00235423
0.00219632
0.00202326
0.00183748
0.00368564
0.00128705
0.00105902
0.000832866
0.000616076
0.000417267
0.00024569
0.000110418
1.93021e-05
-2.18631e-05
)
;
    }
}


// ************************************************************************* //
