/*--------------------------------*- C++ -*----------------------------------*\
  =========                 |
  \\      /  F ield         | OpenFOAM: The Open Source CFD Toolbox
   \\    /   O peration     | Website:  https://openfoam.org
    \\  /    A nd           | Version:  7
     \\/     M anipulation  |
\*---------------------------------------------------------------------------*/
FoamFile
{
    version     2.0;
    format      ascii;
    class       surfaceScalarField;
    location    "10";
    object      phi;
}
// * * * * * * * * * * * * * * * * * * * * * * * * * * * * * * * * * * * * * //

dimensions      [0 3 -1 0 0 0 0];

internalField   nonuniform List<scalar> 
281
(
-0.00047476
5.40705e-05
-3.89246e-08
-0.000532056
5.7172e-05
1.24639e-07
-0.000593193
6.08439e-05
2.92273e-07
-0.000658979
6.53245e-05
4.61549e-07
7.09016e-05
6.29366e-07
-0.000461563
-0.000516245
0.000111853
-0.000574242
0.000118841
-0.000636257
0.000127339
0.000137916
-0.000485509
0.000161489
-0.000537461
0.000170793
-0.000592215
0.000182094
0.000196232
-0.000441338
0.000203956
-0.000484725
0.00021418
-0.000529209
0.000226578
0.000242235
-0.000385763
0.000237551
-0.0004186
0.000247017
-0.000450469
0.000258448
0.000273118
-0.00032114
0.000261041
-0.00034205
0.000267927
-0.000359738
0.000276136
0.000287042
-0.000249874
0.000273642
-0.000258064
0.000276117
-0.000260764
0.000278836
0.000283147
-0.000174119
-0.00016924
0.000271238
-0.000156714
0.00026631
-0.000134852
0.000261285
0.000258498
-7.74403e-05
0.000253159
-4.97126e-05
0.000238582
-1.00437e-05
0.000221616
0.000204261
1.64621e-05
0.000221711
5.93486e-05
0.000195695
0.000116462
0.000164503
0.000129448
0.000112861
0.000171341
0.000137215
0.000245973
8.98709e-05
0.000340828
3.45928e-05
-2.52795e-05
0.000288994
6.17203e-05
0.000382475
-3.61e-06
0.000498156
-8.10882e-05
-0.000168941
0.0004165
0.000531835
-0.000118945
0.000671255
-0.000220509
0.000839977
-0.000337663
-0.0004683
0.000700516
-0.000260649
0.000868592
-0.000388585
0.00106651
-0.000535584
-0.000712094
0.000894134
0.00109665
-0.0005911
0.00132939
-0.000768323
-0.000992166
0.00135792
-0.000832838
0.0016305
-0.0010409
-0.0013103
0.00164969
0.00196402
-0.00135523
-0.00166383
0.00231632
-0.00204334
0.00203161
0.00230553
0.00134533
0.00165275
0.00164053
0.000825106
0.00195379
0.00103207
0.00130009
0.00134992
0.000584422
0.00162145
0.000760535
0.000982889
0.000888494
0.000255929
0.0010901
0.000382812
0.00132195
0.000528692
0.00070368
0.000696186
0.000114856
0.000863572
0.000215426
0.00106081
0.000331455
0.000460611
0.000413773
-6.45567e-05
0.000528671
-4.13768e-08
0.000667614
7.64834e-05
0.000835846
0.000163223
0.000287021
-0.000139801
0.000380218
-9.32381e-05
0.000495575
-3.88742e-05
1.99305e-05
0.000111562
-0.000223476
0.000169874
-0.000198113
0.000244307
-0.000167671
0.000338916
-0.000133483
1.54088e-05
-0.000254811
5.81586e-05
-0.000240862
0.000115099
-0.000224611
-0.000208063
-7.83847e-05
-0.000272777
-5.07974e-05
-0.00026845
-1.13123e-05
-0.000264096
-0.000262049
-0.00017491
-0.000274542
-0.000170158
-0.000277529
-0.000157795
-0.000280813
-0.000136147
-0.000285745
-0.000250649
-0.000261825
-0.000258987
-0.000269191
-0.000261877
-0.000277923
-0.000289392
-0.000321893
-0.000238209
-0.000342964
-0.00024812
-0.000360859
-0.000260028
-0.000275201
-0.000386463
-0.000204488
-0.000419461
-0.000215123
-0.000451536
-0.000227953
-0.000244057
-0.000441945
-0.000161907
-0.000485477
-0.000171591
-0.000530144
-0.000183285
-0.000197823
-0.000436254
-0.000105898
-0.00048598
-0.000112181
-0.000538046
-0.000119525
-0.000592945
-0.000128386
-0.000139328
-0.000461803
-5.40085e-05
-0.000516543
-5.74414e-05
-0.000574614
-6.14538e-05
-0.000636721
-6.62792e-05
-7.21992e-05
-0.000474842
-0.000532159
-0.00059332
-0.000659138
0.003185
0.0030891
0.00284913
0.00258712
0.00231744
0.00205974
0.00182085
0.00160266
0.00140825
0.00123643
0.00108409
0.000944654
0.000813259
0.000690961
0.000579311
0.000478529
0.000379145
0.000279559
0.000182749
9.25846e-05
0.00322683
0.00312639
0.00288137
0.00261059
0.00233337
0.00207129
0.00183202
0.00161438
0.00142107
0.00124106
0.00108037
0.000932041
)
;

boundaryField
{
    inlet
    {
        type            calculated;
        value           nonuniform 0();
    }
    outlet
    {
        type            calculated;
        value           nonuniform 0();
    }
    cylinder
    {
        type            calculated;
        value           nonuniform 0();
    }
    top
    {
        type            symmetryPlane;
        value           uniform 0;
    }
    bottom
    {
        type            symmetryPlane;
        value           nonuniform 0();
    }
    defaultFaces
    {
        type            empty;
        value           nonuniform 0();
    }
    procBoundary31to30
    {
        type            processor;
        value           nonuniform List<scalar> 
88
(
0.000420728
0.00040972
0.000105914
0.000435874
0.000398871
0.000352167
0.00029765
0.000237273
0.000172844
0.000274916
9.55189e-05
1.49865e-05
-6.74831e-05
0.000176333
-0.000213499
-0.000321311
-3.34685e-05
-0.000558812
-0.000720816
-0.000433967
-0.00111618
-0.00136686
-0.00111567
-0.00196357
-0.00170799
-0.00266709
-0.0024326
-0.00242056
-0.00265642
-0.00169718
-0.00195367
-0.00110684
-0.00135879
-0.00110924
-0.000428417
-0.000716005
-0.000555113
-3.02481e-05
-0.000318969
-0.000211777
0.000178243
-6.63299e-05
1.59262e-05
9.63512e-05
0.00027592
0.000173532
0.000237932
0.000298277
0.000352742
0.000399364
0.00015358
0.000388571
0.000409914
0.000420794
-0.0247358
-0.0253432
-0.025052
-0.0246194
-0.0242018
-0.0238402
-0.02352
-0.023221
-0.0229555
-0.0227369
-0.022556
-0.0223786
-0.0222088
-0.0220637
-0.021953
-0.0218704
-0.0217827
-0.0217117
-0.0216638
-0.021644
-0.0216155
-0.0247082
-0.0253292
-0.0250432
-0.0246019
-0.0241904
-0.0238326
-0.0235103
-0.0232057
-0.0229602
-0.0227155
-0.0225214
-0.022331
-0.0221836
)
;
    }
    procBoundary31to32
    {
        type            processor;
        value           nonuniform List<scalar> 
81
(
-0.00073051
-0.000703272
-0.000650531
-0.000575212
-0.000481352
-0.000373662
-0.000256868
-0.000291422
-0.000101928
4.41934e-05
0.000191275
-9.50054e-05
0.000461113
0.000641817
0.000257475
0.0010508
0.00131031
0.00160946
0.00194863
0.00231754
0.00269584
0.00305635
0.00304538
0.00268439
0.00230645
0.00193865
0.00160116
0.00130388
0.000250382
0.00104608
0.000638868
0.000458871
-0.000100025
0.000189679
4.26739e-05
-0.00010351
-0.000294686
-0.00025823
-0.00037505
-0.00048268
-0.000576378
-0.000651441
-0.00070385
-0.000730708
-0.00252659
0.0240774
0.0254391
0.025292
0.0248814
0.0244715
0.0240979
0.0237589
0.0234392
0.0231499
0.0229087
0.0227083
0.022518
0.0223401
0.022186
0.0220647
0.0219712
0.0218821
0.0218112
0.0217606
0.0217342
0.0217081
0.0240483
-0.00256689
0.0254296
0.0252882
0.0248727
0.0244676
0.0240947
0.0237496
0.0234233
0.0231535
0.0228955
0.0226821
0.0224793
0.000798949
0.0223166
)
;
    }
}


// ************************************************************************* //
