/*--------------------------------*- C++ -*----------------------------------*\
  =========                 |
  \\      /  F ield         | OpenFOAM: The Open Source CFD Toolbox
   \\    /   O peration     | Website:  https://openfoam.org
    \\  /    A nd           | Version:  7
     \\/     M anipulation  |
\*---------------------------------------------------------------------------*/
FoamFile
{
    version     2.0;
    format      ascii;
    class       volVectorField;
    location    "10";
    object      U;
}
// * * * * * * * * * * * * * * * * * * * * * * * * * * * * * * * * * * * * * //

dimensions      [0 1 -1 0 0 0 0];

internalField   nonuniform List<vector> 
183
(
(-0.134658 0.00501977 -9.19642e-21)
(-0.145345 0.00496673 4.27421e-21)
(-0.155976 0.00497161 2.31664e-21)
(-0.166704 0.00505517 5.81144e-22)
(-0.17775 0.00523891 1.56974e-20)
(-0.131965 0.0149054 -2.8936e-20)
(-0.142118 0.0148166 1.50824e-20)
(-0.152138 0.0148931 -2.25204e-21)
(-0.162168 0.0151964 -1.13076e-20)
(-0.172418 0.0157914 -1.50487e-21)
(-0.135819 0.0242297 -8.39458e-20)
(-0.144658 0.0243133 4.61145e-20)
(-0.153336 0.0247591 -2.58899e-20)
(-0.162047 0.025679 -6.03781e-20)
(-0.126692 0.0329419 2.66956e-20)
(-0.133838 0.0329298 -1.06572e-20)
(-0.140583 0.0333919 -1.05464e-19)
(-0.147093 0.0344926 -2.14595e-20)
(-0.115066 0.0407244 1.77976e-20)
(-0.120089 0.0404832 -3.48843e-20)
(-0.12442 0.0407927 -5.65908e-21)
(-0.128182 0.0418739 6.06561e-20)
(-0.101318 0.0473963 -1.16918e-19)
(-0.103878 0.0467745 -7.43466e-20)
(-0.105428 0.0467323 1.47227e-19)
(-0.106033 0.0475463 -1.32087e-19)
(-0.085817 0.0528316 1.97589e-19)
(-0.0856642 0.0516784 8.41285e-20)
(-0.0841735 0.051077 -6.66811e-20)
(-0.0813444 0.0513527 -7.05488e-20)
(-0.0688738 0.0569597 5.49617e-20)
(-0.0658157 0.0551456 1.50494e-19)
(-0.0611024 0.0537951 -4.95903e-20)
(-0.0546552 0.0532649 2.03012e-20)
(-0.0465483 0.0540929 5.63766e-20)
(-0.04454 0.0571946 5.95941e-20)
(-0.0364438 0.0549433 -2.53338e-20)
(-0.0262279 0.0533579 -1.13376e-19)
(-0.0138553 0.0530289 -9.6514e-20)
(-0.0218202 0.0579043 -3.29804e-20)
(-0.0101473 0.0546709 5.40291e-20)
(0.00400924 0.0518474 3.77684e-20)
(0.0208059 0.0500029 -7.76116e-20)
(0.0026556 0.0574058 -3.56549e-19)
(0.0182103 0.0532219 -2.82256e-19)
(0.0366055 0.0491327 1.09102e-19)
(0.0580707 0.0455935 7.08885e-19)
(0.0834438 0.0440581 -1.78947e-19)
(0.049484 0.0508895 1.86862e-19)
(0.072645 0.045714 -3.48575e-19)
(0.099284 0.0405966 -3.77042e-19)
(0.130156 0.036753 3.3781e-19)
(0.0849464 0.0479702 2.489e-19)
(0.113696 0.0420858 1.17062e-19)
(0.146371 0.0358501 3.57715e-21)
(0.183274 0.0299933 2.1727e-21)
(0.230361 0.0294841 -2.09556e-19)
(0.161631 0.0386782 8.59141e-20)
(0.201543 0.0320695 2.38485e-19)
(0.245164 0.0249476 -1.89819e-19)
(0.302839 0.0226585 2.42709e-19)
(0.218366 0.0358791 -2.12657e-19)
(0.266872 0.0297938 -1.92826e-20)
(0.317814 0.02239 -1.32506e-19)
(0.388124 0.0198102 6.08408e-20)
(0.343801 0.0294504 5.64606e-20)
(0.402339 0.0226699 1.12875e-19)
(0.486544 0.0218117 -1.84789e-19)
(0.432632 0.0314371 -3.92392e-20)
(0.498591 0.025896 -1.2079e-19)
(0.596054 0.0287066 1.92578e-19)
(0.604848 0.0321609 -1.79803e-19)
(0.71205 0.0398886 6.15693e-20)
(0.827625 0.0544462 1.14955e-19)
(0.82406 -0.0548668 -3.4322e-19)
(0.6015 -0.0325404 1.721e-19)
(0.708484 -0.040291 -2.01071e-19)
(0.429771 -0.0317711 -3.37391e-21)
(0.495528 -0.0263081 2.60767e-20)
(0.592668 -0.0291488 6.57258e-20)
(0.341338 -0.0298352 5.55849e-20)
(0.39966 -0.0231438 -1.10225e-19)
(0.483504 -0.0223508 3.42054e-19)
(0.216591 -0.0362424 -1.92929e-19)
(0.264839 -0.030249 -1.03501e-19)
(0.315573 -0.022955 3.12404e-19)
(0.385541 -0.0204902 -4.30902e-19)
(0.160227 -0.0391022 1.80524e-20)
(0.199928 -0.0326077 4.19805e-20)
(0.243361 -0.0256225 2.52504e-19)
(0.300749 -0.0234932 1.76448e-19)
(0.0840097 -0.0483342 2.37087e-19)
(0.112609 -0.0425718 5.17973e-19)
(0.14512 -0.036471 -1.61394e-19)
(0.181862 -0.0307743 -4.66585e-19)
(0.228723 -0.0304495 1.16157e-19)
(0.048759 -0.0512946 -2.97905e-19)
(0.0718044 -0.0462525 -3.78141e-19)
(0.0983155 -0.041284 1.96365e-20)
(0.129051 -0.0376113 -6.25091e-21)
(0.00216233 -0.0577121 1.64278e-19)
(0.017634 -0.0536554 -2.55644e-19)
(0.0359368 -0.0497049 5.14052e-19)
(0.0572969 -0.0463185 -7.43957e-20)
(0.0825504 -0.0449495 1.6804e-19)
(-0.0222312 -0.0582214 6.30667e-20)
(-0.0106292 -0.0551163 2.79282e-19)
(0.00344722 -0.0524303 -2.43643e-19)
(0.0201506 -0.0507326 8.63272e-20)
(-0.0449014 -0.0575098 8.90439e-20)
(-0.036871 -0.0553837 1.30482e-19)
(-0.0267304 -0.0539298 -7.75473e-20)
(-0.0144455 -0.053736 -2.60796e-19)
(-0.0691482 -0.0571462 -1.12113e-19)
(-0.0661473 -0.0554475 6.28945e-20)
(-0.0614985 -0.0542165 -8.59847e-20)
(-0.0551257 -0.0538087 2.88736e-19)
(-0.0471039 -0.0547591 -5.32496e-20)
(-0.0860707 -0.0530013 7.28225e-20)
(-0.085974 -0.0519583 1.02003e-19)
(-0.0845473 -0.0514688 -6.84775e-20)
(-0.0817927 -0.0518564 1.21792e-19)
(-0.10155 -0.0475449 -3.41163e-20)
(-0.104165 -0.0470272 -2.47855e-20)
(-0.105776 -0.0470886 8.92411e-20)
(-0.106453 -0.0480038 3.94249e-20)
(-0.115273 -0.0408504 -1.90405e-20)
(-0.120344 -0.0407072 6.62508e-22)
(-0.124732 -0.0411125 -8.19126e-20)
(-0.12856 -0.0422852 5.20088e-20)
(-0.126865 -0.0330463 1.10969e-20)
(-0.134052 -0.033127 -1.94249e-19)
(-0.140845 -0.0336783 6.70678e-20)
(-0.147411 -0.0348629 -1.17055e-19)
(-0.126807 -0.0243998 6.18903e-20)
(-0.135949 -0.0243161 -6.03227e-20)
(-0.14482 -0.0244883 2.88551e-20)
(-0.153534 -0.0250182 3.31893e-20)
(-0.162288 -0.0260163 -7.76189e-20)
(-0.132029 -0.0148895 -8.72664e-22)
(-0.142199 -0.01489 -1.53459e-20)
(-0.152239 -0.0150522 8.48085e-21)
(-0.162292 -0.0154364 7.76706e-21)
(-0.172569 -0.016106 2.71637e-20)
(-0.13468 -0.00499839 8.88665e-21)
(-0.145373 -0.00503343 -1.4622e-20)
(-0.156011 -0.00512251 2.33491e-22)
(-0.166746 -0.00528527 1.99217e-21)
(-0.177801 -0.00554195 2.08817e-20)
(1.25494 0.0760719 0)
(1.30289 0.0798106 0)
(1.28961 0.0747556 0)
(1.26601 0.0681339 0)
(1.24328 0.0604803 0)
(1.22242 0.0539436 0)
(1.20387 0.0476666 0)
(1.1866 0.0420099 0)
(1.17122 0.0369268 0)
(1.15856 0.0324213 0)
(1.14819 0.0284502 0)
(1.1383 0.024981 0)
(1.12896 0.0215485 0)
(1.12094 0.0185497 0)
(1.11472 0.015501 0)
(1.11001 0.0130521 0)
(1.10536 0.0105535 0)
(1.10162 0.00812999 0)
(1.09902 0.00568962 0)
(1.09773 0.0032931 0)
(1.09632 0.00130864 0)
(1.25316 -0.0770859 0)
(1.30218 -0.0807162 0)
(1.28923 -0.075723 0)
(1.26531 -0.0687729 0)
(1.24286 -0.0610254 0)
(1.2221 -0.0541567 0)
(1.20339 -0.0480572 0)
(1.18584 -0.0421848 0)
(1.17152 -0.0372967 0)
(1.15781 -0.0327286 0)
(1.14664 -0.0283806 0)
(1.13602 -0.0248471 0)
(1.12764 -0.0210875 0)
)
;

boundaryField
{
    inlet
    {
        type            uniformFixedValue;
        uniformValue    constant (1 0 0);
        value           nonuniform 0();
    }
    outlet
    {
        type            pressureInletOutletVelocity;
        value           nonuniform 0();
    }
    cylinder
    {
        type            fixedValue;
        value           nonuniform 0();
    }
    top
    {
        type            symmetryPlane;
    }
    bottom
    {
        type            symmetryPlane;
    }
    defaultFaces
    {
        type            empty;
    }
    procBoundary31to30
    {
        type            processor;
        value           nonuniform List<vector> 
88
(
(-0.123817 0.00511192 -8.07618e-21)
(-0.121596 0.015104 -1.50848e-20)
(-0.126704 0.0244051 -1.23193e-19)
(-0.126704 0.0244051 -1.23193e-19)
(-0.119069 0.0332832 1.36955e-19)
(-0.109324 0.0413321 -2.9012e-20)
(-0.0977709 0.0483806 1.18362e-20)
(-0.0847138 0.0542978 -2.97208e-20)
(-0.0704123 0.0589933 6.54916e-20)
(-0.0506765 0.0597591 2.03458e-20)
(-0.0506765 0.0597591 2.03458e-20)
(-0.031238 0.0612498 3.30331e-21)
(-0.0103395 0.0614853 -3.41299e-19)
(0.0295461 0.055861 -4.48471e-20)
(0.0295461 0.055861 -4.48471e-20)
(0.0598684 0.0534506 3.61657e-20)
(0.126198 0.0447593 -4.60192e-20)
(0.126198 0.0447593 -4.60192e-20)
(0.175011 0.0415936 -2.53252e-19)
(0.285528 0.0341126 -2.31347e-21)
(0.285528 0.0341126 -2.31347e-21)
(0.364086 0.0339043 -5.3498e-19)
(0.532066 0.0360931 -2.33396e-19)
(0.532066 0.0360931 -2.33396e-19)
(0.717625 0.0416431 6.65022e-20)
(0.717625 0.0416431 6.65022e-20)
(0.934455 0.0711525 2.88408e-19)
(0.931055 -0.0716431 2.07823e-19)
(0.714133 -0.042016 -1.80084e-19)
(0.714133 -0.042016 -1.80084e-19)
(0.528888 -0.0363989 -9.39687e-20)
(0.528888 -0.0363989 -9.39687e-20)
(0.361531 -0.0341779 1.26032e-19)
(0.283358 -0.0344244 3.40267e-19)
(0.283358 -0.0344244 3.40267e-19)
(0.173473 -0.0418626 1.64497e-19)
(0.124987 -0.0450755 -1.9615e-19)
(0.124987 -0.0450755 -1.9615e-19)
(0.0590686 -0.0537018 -2.51333e-19)
(0.0289259 -0.0561444 3.05274e-19)
(0.0289259 -0.0561444 3.05274e-19)
(-0.0107568 -0.0616736 4.93323e-20)
(-0.0315845 -0.0614469 1.4051e-19)
(-0.0509787 -0.0599554 -8.53853e-20)
(-0.0509787 -0.0599554 -8.53853e-20)
(-0.0706347 -0.0590684 -1.19666e-19)
(-0.0849174 -0.0543595 1.17151e-19)
(-0.097956 -0.0484255 5.50511e-20)
(-0.109487 -0.0413589 -7.81936e-20)
(-0.119205 -0.0332926 5.77845e-20)
(-0.119205 -0.0332926 5.77845e-20)
(-0.117329 -0.0246489 -4.0241e-20)
(-0.121644 -0.014996 2.07889e-20)
(-0.123834 -0.00499933 1.10247e-21)
(1.25194 0.116223 -2.34204e-20)
(1.27439 0.115599 -4.84572e-20)
(1.26122 0.107252 1.16774e-20)
(1.23972 0.097742 1.64993e-20)
(1.21934 0.085496 1.44394e-20)
(1.20189 0.0750069 -1.2062e-20)
(1.18634 0.0653525 5.19204e-21)
(1.17182 0.0569409 9.33735e-21)
(1.1589 0.0496315 -8.04534e-22)
(1.14827 0.0432906 1.53984e-21)
(1.13946 0.0376975 -5.30409e-21)
(1.13074 0.0328176 1.43654e-21)
(1.12238 0.028147 2.14242e-22)
(1.11523 0.0241682 1.22183e-22)
(1.1098 0.0202014 2.71934e-21)
(1.10575 0.0169263 -6.3587e-21)
(1.10139 0.0136168 5.15691e-21)
(1.09787 0.0104738 -2.2049e-21)
(1.0955 0.0073317 2.14858e-21)
(1.09455 0.00422538 -7.45553e-22)
(1.09311 0.00165469 1.15085e-22)
(1.25063 -0.117052 2.64144e-20)
(1.27368 -0.116262 5.77182e-21)
(1.26077 -0.108076 2.96256e-20)
(1.23882 -0.0983033 -8.02643e-21)
(1.21875 -0.0860539 -1.26112e-20)
(1.20149 -0.0752849 1.32093e-20)
(1.18583 -0.0658958 -6.74315e-21)
(1.17104 -0.0571924 -8.31718e-21)
(1.15912 -0.0500322 2.52227e-21)
(1.14715 -0.0435684 1.42679e-20)
(1.13768 -0.0375754 -7.0022e-21)
(1.12833 -0.0327631 -1.91133e-21)
(1.12112 -0.027781 2.7864e-21)
)
;
    }
    procBoundary31to32
    {
        type            processor;
        value           nonuniform List<vector> 
81
(
(-0.189213 0.00554351 -4.97592e-21)
(-0.182984 0.0167419 -3.12869e-20)
(-0.170877 0.027189 9.94438e-20)
(-0.153444 0.0364139 -2.41291e-20)
(-0.131445 0.0439909 3.05015e-20)
(-0.105762 0.0495753 -1.14837e-19)
(-0.0772567 0.0529604 -3.85296e-20)
(-0.0772567 0.0529604 -3.85296e-20)
(-0.0365016 0.0571601 -1.46087e-19)
(0.00111086 0.0552031 3.50523e-19)
(0.0409421 0.0505919 -1.3867e-19)
(0.0409421 0.0505919 -1.3867e-19)
(0.114638 0.0484049 1.97555e-19)
(0.168603 0.0387022 -1.70881e-19)
(0.168603 0.0387022 -1.70881e-19)
(0.308963 0.0852542 4.49494e-20)
(0.381059 0.0765023 7.017e-21)
(0.460072 0.0681792 1.90656e-20)
(0.547403 0.0613267 -8.05969e-21)
(0.642735 0.0567573 4.67123e-20)
(0.743626 0.0549075 -1.41416e-21)
(0.845821 0.0556832 1.31436e-20)
(0.841893 -0.056818 -9.0531e-21)
(0.739768 -0.0561031 2.0016e-22)
(0.639132 -0.0580234 -1.23329e-20)
(0.544183 -0.0626624 -5.83083e-21)
(0.457282 -0.0695701 5.45075e-21)
(0.378667 -0.0779222 -2.64135e-20)
(0.167322 -0.0397449 1.64289e-19)
(0.306888 -0.0866702 -3.64612e-20)
(0.167322 -0.0397449 1.64289e-19)
(0.113599 -0.0494611 4.20716e-20)
(0.0401767 -0.0514707 1.07009e-19)
(0.0401767 -0.0514707 1.07009e-19)
(0.000419693 -0.0560388 2.6842e-20)
(-0.037144 -0.0579426 -4.32542e-19)
(-0.0777906 -0.0535727 9.66552e-20)
(-0.0777906 -0.0535727 9.66552e-20)
(-0.106265 -0.050128 4.8038e-20)
(-0.131898 -0.0444865 2.51904e-20)
(-0.153825 -0.0368604 -7.54226e-20)
(-0.171165 -0.027597 5.00302e-20)
(-0.183163 -0.0171238 -5.20619e-20)
(-0.189274 -0.00591213 -8.77587e-21)
(1.03634 0.0638994 -5.69645e-20)
(1.19007 0.0730129 0)
(1.29427 0.0626042 0)
(1.29297 0.0415472 0)
(1.27145 0.0290947 0)
(1.2492 0.0208246 0)
(1.22876 0.0165347 0)
(1.21029 0.0139935 0)
(1.19297 0.0123207 0)
(1.17729 0.0109885 0)
(1.1641 0.0098632 0)
(1.15309 0.00899468 0)
(1.14287 0.00830493 0)
(1.13345 0.00742262 0)
(1.12528 0.00658903 0)
(1.11869 0.00554614 0)
(1.11354 0.0048258 0)
(1.10887 0.00399614 0)
(1.10518 0.00313628 0)
(1.10249 0.00221216 0)
(1.10094 0.0012879 0)
(1.0997 0.000581526 0)
(1.1883 -0.0739461 0)
(1.03295 -0.064951 5.6319e-20)
(1.29383 -0.0635833 0)
(1.29288 -0.0424746 0)
(1.27122 -0.0297993 0)
(1.24922 -0.0214598 0)
(1.22876 -0.0168624 0)
(1.20989 -0.0143774 0)
(1.19215 -0.0124814 0)
(1.1774 -0.0113358 0)
(1.16361 -0.0102488 0)
(1.15202 -0.00911177 0)
(1.14119 -0.0082561 0)
(1.12057 -0.0182524 0)
(1.13235 -0.00703851 0)
)
;
    }
}


// ************************************************************************* //
