/*--------------------------------*- C++ -*----------------------------------*\
  =========                 |
  \\      /  F ield         | OpenFOAM: The Open Source CFD Toolbox
   \\    /   O peration     | Website:  https://openfoam.org
    \\  /    A nd           | Version:  7
     \\/     M anipulation  |
\*---------------------------------------------------------------------------*/
FoamFile
{
    version     2.0;
    format      ascii;
    class       volVectorField;
    location    "30";
    object      U;
}
// * * * * * * * * * * * * * * * * * * * * * * * * * * * * * * * * * * * * * //

dimensions      [0 1 -1 0 0 0 0];

internalField   nonuniform List<vector> 
183
(
(0.646715 -0.0074504 1.84658e-23)
(0.671844 -0.00542064 1.26408e-23)
(0.688042 -0.00346329 -3.91533e-25)
(0.651186 -0.00989305 9.42268e-24)
(0.675447 -0.0075659 -9.8505e-24)
(0.691008 -0.00545559 1.62435e-23)
(0.659142 -0.0122332 2.6373e-24)
(0.682239 -0.0096226 -3.49429e-24)
(0.696966 -0.00737451 -4.92217e-24)
(0.670339 -0.0144456 5.6127e-23)
(0.692022 -0.0115679 6.65666e-23)
(0.705749 -0.00919842 -9.22674e-23)
(0.684443 -0.0165105 -1.98147e-23)
(0.704517 -0.0133834 -2.03662e-22)
(0.717116 -0.0109091 1.00555e-22)
(0.701047 -0.0184136 -2.01516e-22)
(0.719378 -0.0150554 1.80169e-22)
(0.730762 -0.0124926 1.54005e-22)
(0.73621 -0.0165758 -1.67576e-22)
(0.746336 -0.013939 -1.17162e-22)
(0.754587 -0.0179411 -4.28939e-23)
(0.763453 -0.0152433 2.24591e-22)
(0.774073 -0.0191529 8.62939e-23)
(0.781715 -0.0164044 7.0426e-24)
(0.79424 -0.0202165 7.83125e-24)
(0.800726 -0.0174252 -1.58697e-22)
(0.814684 -0.0211407 -9.1044e-23)
(0.820106 -0.0183119 -1.28952e-22)
(0.835037 -0.0219366 2.01792e-22)
(0.839503 -0.0190731 -6.79848e-23)
(0.854978 -0.0226168 -2.64694e-23)
(0.858605 -0.0197193 2.0037e-22)
(0.874235 -0.0231943 4.21283e-23)
(0.877145 -0.0202621 4.94318e-23)
(0.892594 -0.0236824 -8.5961e-23)
(0.894902 -0.0207136 -1.59738e-22)
(0.909889 -0.0240936 -2.18242e-23)
(0.911703 -0.0210855 -8.40728e-23)
(0.926008 -0.0244397 -1.14126e-22)
(0.927424 -0.0213895 7.09851e-23)
(0.94088 -0.0247309 1.54296e-22)
(0.941981 -0.021636 -1.38898e-22)
(0.954474 -0.0249748 1.24449e-22)
(0.955331 -0.0218338 -6.50725e-23)
(0.966794 -0.0251776 -6.10301e-23)
(0.967461 -0.0219896 6.65973e-23)
(0.977866 -0.0253567 2.06569e-22)
(0.978388 -0.0221152 -7.7493e-23)
(1.00776 -0.0258828 0)
(1.0079 -0.02244 0)
(1.03331 -0.0254872 0)
(1.03299 -0.0218254 0)
(1.04347 -0.0250728 0)
(1.04298 -0.021372 0)
(1.04681 -0.0245364 0)
(1.04607 -0.0208836 0)
(1.0475 -0.0237418 0)
(1.0465 -0.0202446 0)
(1.04722 -0.0228593 0)
(1.04598 -0.0195489 0)
(1.04657 -0.0218226 0)
(1.04512 -0.0187341 0)
(1.04574 -0.0206738 0)
(1.04412 -0.0178255 0)
(1.04481 -0.019439 0)
(1.04305 -0.016836 0)
(1.04378 -0.0181282 0)
(1.0419 -0.0157688 0)
(1.04267 -0.0167521 0)
(1.04069 -0.0146305 0)
(1.04151 -0.0153205 0)
(1.03943 -0.0134286 0)
(1.04035 -0.0138404 0)
(1.03819 -0.0121698 0)
(1.03925 -0.0123164 0)
(1.037 -0.0108595 0)
(1.03823 -0.0107526 0)
(1.03591 -0.00950277 0)
(1.0373 -0.00915398 0)
(1.03492 -0.00810572 0)
(1.03648 -0.00752701 0)
(1.03405 -0.00667556 0)
(1.03579 -0.00587786 0)
(1.03333 -0.00521917 0)
(1.03526 -0.00421154 0)
(1.03277 -0.00374243 0)
(1.02914 -0.00329612 0)
(1.03491 -0.00253254 0)
(1.0324 -0.0022509 0)
(1.02873 -0.00198421 0)
(1.03473 -0.000845148 0)
(1.03221 -0.000751032 0)
(1.02853 -0.000662608 0)
(1.01041 0.0249464 0)
(1.03755 0.0248464 0)
(1.0482 0.0243712 0)
(1.05124 0.0237305 0)
(1.05135 0.0228657 0)
(1.05044 0.0219401 0)
(1.0492 0.0208998 0)
(1.04783 0.0197715 0)
(1.04643 0.0185757 0)
(1.04502 0.0173184 0)
(1.04365 0.0160059 0)
(1.04232 0.014643 0)
(1.04106 0.0132328 0)
(1.03986 0.0117782 0)
(1.03874 0.0102845 0)
(1.03771 0.00875779 0)
(1.03682 0.0072041 0)
(1.0361 0.00562776 0)
(1.03556 0.00403293 0)
(1.03518 0.0024249 0)
(1.03499 0.000809184 0)
(1.01129 0.0235484 0)
(1.03711 0.0229976 0)
(1.04724 0.0222706 0)
(1.05003 0.0214795 0)
(1.04996 0.020579 0)
(1.0489 0.0196728 0)
(1.04754 0.0187052 0)
(1.04609 0.0176876 0)
(1.0446 0.016626 0)
(1.04312 0.0155169 0)
(1.04167 0.0143594 0)
(1.04027 0.0131537 0)
(1.03893 0.0119003 0)
(1.03767 0.0106015 0)
(1.03648 0.00926289 0)
(1.03541 0.00789106 0)
(1.03448 0.0064926 0)
(1.03372 0.00507231 0)
(1.03315 0.00363457 0)
(1.03276 0.00218459 0)
(1.03256 0.000728653 0)
(0.979032 0.0240503 -1.55737e-22)
(0.981222 0.022964 6.78493e-23)
(0.967438 0.0237157 7.6915e-24)
(0.970108 0.0227172 -5.00944e-23)
(0.954573 0.0233192 -8.05206e-23)
(0.957792 0.0224068 2.32733e-23)
(0.940421 0.02284 -1.04957e-22)
(0.944263 0.0220199 8.71883e-23)
(0.924995 0.0222696 -7.61797e-23)
(0.929535 0.0215477 1.0666e-22)
(0.908339 0.0215991 1.84688e-22)
(0.913658 0.0209811 -2.73924e-23)
(0.89054 0.0208183 -6.73401e-23)
(0.896717 0.0203103 -2.82098e-24)
(0.871728 0.0199171 1.46668e-22)
(0.878839 0.0195262 -1.28536e-23)
(0.852083 0.0188864 1.79607e-23)
(0.860195 0.0186204 2.3641e-23)
(0.831836 0.0177187 4.31847e-23)
(0.841005 0.0175862 -2.94663e-23)
(0.811271 0.0164085 -1.54894e-22)
(0.821532 0.0164187 2.30059e-23)
(0.790716 0.0149531 -6.64255e-23)
(0.802083 0.0151155 1.71091e-23)
(0.770547 0.0133532 -5.23108e-24)
(0.783002 0.0136772 -2.58132e-23)
(0.751167 0.0116132 6.67067e-23)
(0.764662 0.0121078 7.57554e-23)
(0.733002 0.00974194 -5.92844e-23)
(0.747453 0.0104152 -1.52132e-22)
(0.69318 0.00759146 1.60125e-22)
(0.71648 0.00775274 6.24636e-23)
(0.731767 0.00861115 1.07319e-22)
(0.677634 0.0052012 -6.66793e-23)
(0.702018 0.0056633 -6.54819e-23)
(0.717985 0.00671117 4.21187e-24)
(0.664802 0.00272328 -4.18897e-23)
(0.689997 0.00349575 6.407e-23)
(0.706457 0.00473446 -4.17286e-23)
(0.655053 0.000186288 2.82353e-23)
(0.680748 0.00127604 -4.61196e-24)
(0.697491 0.00270341 -3.07528e-24)
(0.648678 -0.00237773 -2.86126e-23)
(0.674535 -0.000969942 -5.6594e-25)
(0.691331 0.000642595 1.39426e-23)
(0.64587 -0.00493454 7.77996e-24)
(0.671537 -0.00321272 9.97585e-24)
(0.688151 -0.00142188 4.24867e-25)
)
;

boundaryField
{
    inlet
    {
        type            uniformFixedValue;
        uniformValue    constant (1 0 0);
        value           nonuniform 0();
    }
    outlet
    {
        type            pressureInletOutletVelocity;
        value           nonuniform 0();
    }
    cylinder
    {
        type            fixedValue;
        value           nonuniform 0();
    }
    top
    {
        type            symmetryPlane;
    }
    bottom
    {
        type            symmetryPlane;
    }
    defaultFaces
    {
        type            empty;
    }
    procBoundary44to43
    {
        type            processor;
        value           nonuniform List<vector> 
86
(
(0.62481 -0.00909388 7.31558e-24)
(0.630152 -0.0117979 4.03159e-23)
(0.639232 -0.0143911 1.5605e-23)
(0.651757 -0.0168463 -2.17392e-23)
(0.667337 -0.019142 -3.27142e-23)
(0.685508 -0.0212637 1.02625e-22)
(0.719695 -0.020147 -1.56878e-22)
(0.719695 -0.020147 -1.56878e-22)
(0.739901 -0.0217083 -9.99516e-23)
(0.761178 -0.0231003 2.30194e-22)
(0.783054 -0.0243302 -2.35156e-22)
(0.805092 -0.0254085 -8.14113e-23)
(0.826903 -0.0263479 -1.49387e-23)
(0.848151 -0.0271622 3.47301e-22)
(0.868565 -0.0278657 3.32015e-23)
(0.887932 -0.0284721 -1.34234e-22)
(0.906099 -0.0289943 -1.31994e-22)
(0.922963 -0.0294441 -6.97182e-23)
(0.938471 -0.0298316 1.05429e-22)
(0.952607 -0.0301646 1.23061e-22)
(0.965386 -0.0304507 -5.17443e-23)
(0.976851 -0.030705 1.09481e-22)
(1.0078 -0.031388 0)
(1.03448 -0.0307072 0)
(1.04507 -0.0299943 0)
(1.04878 -0.029206 0)
(1.04983 -0.0281223 0)
(1.04988 -0.0269801 0)
(1.04951 -0.0256764 0)
(1.04892 -0.0242509 0)
(1.04818 -0.0227334 0)
(1.04733 -0.0211356 0)
(1.04636 -0.019472 0)
(1.04532 -0.0177559 0)
(1.04426 -0.015997 0)
(1.04325 -0.014201 0)
(1.04231 -0.0123717 0)
(1.04145 -0.0105133 0)
(1.04068 -0.00863163 0)
(1.04004 -0.00673211 0)
(1.03954 -0.00481865 0)
(1.03921 -0.00289479 0)
(1.03904 -0.000965275 0)
(1.00919 0.027712 0)
(1.03827 0.0275973 0)
(1.04967 0.0271413 0)
(1.05311 0.0265519 0)
(1.05353 0.0256893 0)
(1.0529 0.0247543 0)
(1.05191 0.0236643 0)
(1.05076 0.0224445 0)
(1.04955 0.0211214 0)
(1.04831 0.0197084 0)
(1.04707 0.0182191 0)
(1.04587 0.0166653 0)
(1.04473 0.0150554 0)
(1.04363 0.0133954 0)
(1.04259 0.0116924 0)
(1.04164 0.0099536 0)
(1.04081 0.00818574 0)
(1.04014 0.00639328 0)
(1.03963 0.0045804 0)
(1.03928 0.00275284 0)
(1.0391 0.000918146 0)
(0.975799 0.0265714 -4.90807e-23)
(0.963455 0.0261437 -5.87932e-23)
(0.94974 0.0256466 -3.22276e-23)
(0.934629 0.0250582 2.54246e-23)
(0.91813 0.0243688 -4.91353e-23)
(0.900284 0.0235684 1.66118e-22)
(0.881177 0.0226458 1.33948e-22)
(0.860946 0.0215894 -1.74942e-22)
(0.839781 0.020389 9.96101e-23)
(0.817932 0.0190357 -2.46167e-22)
(0.795707 0.0175231 1.79675e-23)
(0.77347 0.0158475 -4.71556e-23)
(0.751635 0.0140092 1.25541e-22)
(0.730656 0.0120131 -1.351e-22)
(0.71101 0.00986886 2.78495e-22)
(0.71101 0.00986886 2.78495e-22)
(0.672338 0.00749975 1.13681e-22)
(0.655902 0.00487079 -8.4528e-23)
(0.642432 0.00214283 8.69948e-24)
(0.632331 -0.000654794 6.20377e-23)
(0.625913 -0.00348634 -1.37891e-23)
(0.62338 -0.00631155 9.28603e-24)
)
;
    }
    procBoundary44to45
    {
        type            processor;
        value           nonuniform List<vector> 
85
(
(0.710373 -0.0016345 7.54765e-24)
(0.712751 -0.00339897 4.6611e-24)
(0.717855 -0.00510649 2.74116e-24)
(0.725547 -0.00673748 6.5033e-24)
(0.735627 -0.00827504 -5.51072e-23)
(0.747834 -0.00970555 1.47513e-22)
(0.761866 -0.011019 -5.07181e-23)
(0.777386 -0.0122091 -8.99237e-23)
(0.794042 -0.0132732 1.78689e-22)
(0.81148 -0.0142123 -9.22305e-23)
(0.829355 -0.0150301 -2.12945e-22)
(0.847342 -0.0157329 6.77759e-23)
(0.86515 -0.016329 1.005e-22)
(0.882522 -0.0168278 1.33721e-22)
(0.899242 -0.0172395 -2.27027e-22)
(0.915137 -0.0175746 1.54643e-22)
(0.930078 -0.0178434 -2.05984e-22)
(0.943971 -0.0180557 1.35218e-23)
(0.956763 -0.0182194 -2.64616e-23)
(0.96843 -0.0183406 -7.38378e-23)
(0.978975 -0.0184343 2.9402e-23)
(1.00749 -0.0187032 0)
(1.0319 -0.01836 0)
(1.04171 -0.0180585 0)
(1.04465 -0.0176993 0)
(1.04487 -0.0172242 0)
(1.04413 -0.0166951 0)
(1.04305 -0.0160652 0)
(1.04185 -0.0153509 0)
(1.04057 -0.0145575 0)
(1.03924 -0.0136847 0)
(1.03785 -0.012737 0)
(1.03644 -0.0117214 0)
(1.03505 -0.0106454 0)
(1.03374 -0.00951553 0)
(1.03254 -0.00833845 0)
(1.03146 -0.0071209 0)
(1.03052 -0.00587026 0)
(1.02973 -0.00459334 0)
(1.02973 -0.00459334 0)
(1.02752 -0.00293696 0)
(1.02709 -0.00176701 0)
(1.02688 -0.000589652 0)
(1.01125 0.0213383 0)
(1.03558 0.0208622 0)
(1.04525 0.0201359 0)
(1.0479 0.0193316 0)
(1.04774 0.0184593 0)
(1.0466 0.0175996 0)
(1.04514 0.0167072 0)
(1.04357 0.0157854 0)
(1.04197 0.0148314 0)
(1.04036 0.0138376 0)
(1.03878 0.012801 0)
(1.03725 0.0117213 0)
(1.0358 0.0105997 0)
(1.03442 0.00943881 0)
(1.03314 0.00824396 0)
(1.03199 0.00702104 0)
(1.031 0.00577555 0)
(1.0302 0.00451155 0)
(1.0296 0.00323285 0)
(1.02918 0.00194392 0)
(1.02897 0.000648764 0)
(0.982987 0.0209289 -3.5781e-24)
(0.972543 0.0207565 -2.3424e-23)
(0.960994 0.0205299 3.78575e-23)
(0.948333 0.0202348 1.01086e-22)
(0.93458 0.0198636 -1.00344e-22)
(0.919784 0.0194084 1.97282e-22)
(0.904029 0.0188609 -1.17916e-22)
(0.887436 0.0182129 2.19826e-23)
(0.870165 0.0174572 2.21261e-23)
(0.852418 0.0165878 7.11162e-23)
(0.834436 0.0156005 -8.30968e-23)
(0.816499 0.0144929 1.54599e-24)
(0.798917 0.0132654 2.06076e-22)
(0.782024 0.011921 -1.16018e-22)
(0.766168 0.010466 -4.74887e-23)
(0.751698 0.00891007 2.95335e-23)
(0.738952 0.00726602 -6.12724e-23)
(0.728241 0.00554982 -5.59368e-25)
(0.71984 0.00378016 -6.18825e-24)
(0.713967 0.0019779 1.95379e-24)
(0.710783 0.000165358 8.70971e-24)
)
;
    }
}


// ************************************************************************* //
