/*--------------------------------*- C++ -*----------------------------------*\
  =========                 |
  \\      /  F ield         | OpenFOAM: The Open Source CFD Toolbox
   \\    /   O peration     | Website:  https://openfoam.org
    \\  /    A nd           | Version:  7
     \\/     M anipulation  |
\*---------------------------------------------------------------------------*/
FoamFile
{
    version     2.0;
    format      ascii;
    class       surfaceScalarField;
    location    "15";
    object      phi;
}
// * * * * * * * * * * * * * * * * * * * * * * * * * * * * * * * * * * * * * //

dimensions      [0 3 -1 0 0 0 0];

internalField   nonuniform List<scalar> 
1668
(
0.00169438
-3.71113e-06
-2.56341e-10
0.00169808
-3.70443e-06
-5.8286e-10
0.00170178
-3.69775e-06
-8.8088e-10
0.00170547
-3.69108e-06
-1.19551e-09
-3.6843e-06
-1.48885e-09
0.00169491
-7.42289e-06
0.00169861
-7.40988e-06
0.00170231
-7.39694e-06
0.00170601
-7.38396e-06
-7.37078e-06
0.00169597
-1.11355e-05
0.00169968
-1.11164e-05
0.00170338
-1.10972e-05
0.00170707
-1.10781e-05
-1.10586e-05
0.00169757
-1.48495e-05
0.00170128
-1.48243e-05
0.00170498
-1.47993e-05
0.00170867
-1.47741e-05
-1.47485e-05
0.00169969
-1.85654e-05
0.0017034
-1.85345e-05
0.0017071
-1.85037e-05
0.0017108
-1.84727e-05
-1.84414e-05
0.00170233
-2.22838e-05
0.00170604
-2.22476e-05
0.00170975
-2.22113e-05
0.00171345
-2.2175e-05
-2.21381e-05
0.00170548
-2.60057e-05
0.00170919
-2.59644e-05
0.00171291
-2.59231e-05
0.00171661
-2.58817e-05
-2.58397e-05
0.00170913
-2.97319e-05
0.00171286
-2.9686e-05
0.00171657
-2.96401e-05
0.00172028
-2.9594e-05
-2.95474e-05
0.00171329
-3.34636e-05
0.00171701
-3.34135e-05
0.00172074
-3.33635e-05
0.00172446
-3.33133e-05
-3.32625e-05
0.00171792
-3.72021e-05
0.00172166
-3.71484e-05
0.00172539
-3.70948e-05
0.00172912
-3.7041e-05
-3.69866e-05
0.00172304
-4.09489e-05
0.00172678
-4.08923e-05
0.00173052
-4.08356e-05
0.00173426
-4.07788e-05
-4.07213e-05
0.00172861
-4.47059e-05
0.00173236
-4.46468e-05
0.00173612
-4.45878e-05
0.00173987
-4.45285e-05
-4.44686e-05
0.00173463
-4.84751e-05
0.0017384
-4.84142e-05
0.00174216
-4.83535e-05
0.00174593
-4.82925e-05
-4.82308e-05
0.00174108
-5.22586e-05
0.00174486
-5.21967e-05
0.00174865
-5.2135e-05
0.00175243
-5.20731e-05
-5.20104e-05
0.00174795
-5.60592e-05
0.00175175
-5.5997e-05
0.00175555
-5.59351e-05
0.00175935
-5.5873e-05
-5.581e-05
0.00175522
-5.98795e-05
0.00175904
-5.98177e-05
0.00176286
-5.97564e-05
0.00176668
-5.96949e-05
-5.96326e-05
0.00176287
-6.37228e-05
0.00176672
-6.36621e-05
0.00177056
-6.36021e-05
0.00177441
-6.35421e-05
0.00177826
-6.34812e-05
-6.34182e-05
0.00177089
-6.75924e-05
0.00177476
-6.75336e-05
0.00177863
-6.74756e-05
0.00178251
-6.74177e-05
0.00178639
-6.7359e-05
-6.7298e-05
0.00177925
-7.14921e-05
0.00178316
-7.14359e-05
0.00178706
-7.13806e-05
0.00179097
-7.13255e-05
0.00179488
-7.12697e-05
-7.12117e-05
0.00178794
-7.54259e-05
0.00179188
-7.53731e-05
0.00179582
-7.53212e-05
0.00179976
-7.52697e-05
0.00180371
-7.52175e-05
-7.51633e-05
0.00179694
-7.93981e-05
0.00180092
-7.93494e-05
0.0018049
-7.93018e-05
0.00180888
-7.92545e-05
0.00181287
-7.92068e-05
-7.91573e-05
0.00180623
-8.34135e-05
0.00181025
-8.33696e-05
0.00181427
-8.33269e-05
0.0018183
-8.32846e-05
0.00182234
-8.32422e-05
-8.31982e-05
0.00181578
-8.74771e-05
0.00181985
-8.74385e-05
0.00182392
-8.74014e-05
0.001828
-8.7365e-05
0.00183209
-8.73286e-05
-8.72909e-05
0.00182558
-9.15941e-05
0.0018297
-9.15614e-05
0.00183383
-9.15305e-05
0.00183796
-9.15006e-05
0.00184211
-9.14711e-05
-9.14407e-05
0.0018356
0.00183978
-9.57438e-05
0.00184397
-9.57197e-05
0.00184817
-9.56971e-05
0.00185237
-9.56753e-05
-9.56528e-05
0.00185007
-9.99915e-05
0.00185433
-9.99749e-05
0.00185859
-9.99603e-05
0.00186286
-9.99468e-05
-9.99331e-05
0.00186055
-0.000104311
0.00186488
-0.000104302
0.00186922
-0.000104296
0.00187356
-0.000104292
-0.000104287
0.0018712
-0.000108708
0.00187561
-0.000108708
0.00188002
-0.000108711
0.00188445
-0.000108716
-0.000108721
0.001882
-0.000113189
0.00188649
-0.000113199
0.00189099
-0.000113211
0.0018955
-0.000113226
-0.000113241
0.00189293
-0.000117762
0.00189751
-0.000117781
0.0019021
-0.000117803
0.0019067
-0.000117828
-0.000117854
0.00449597
-0.000123776
0.00450199
-0.000123808
0.00450803
-0.000123842
0.00451408
-0.000123878
-0.000123914
0.00456768
-0.000129245
0.00457316
-0.00012929
0.00457866
-0.000129337
0.00458416
-0.000129385
-0.000129433
0.00464111
-0.000134163
0.00464604
-0.000134222
0.00465099
-0.000134282
0.00465595
-0.000134344
-0.000134405
0.00471576
-0.000138524
0.00472013
-0.000138598
0.00472452
-0.000138674
0.00472893
-0.00013875
-0.000138825
0.00479112
-0.00014233
0.00479494
-0.00014242
0.00479878
-0.000142512
0.00480263
-0.000142604
-0.000142695
0.00486673
-0.000145585
0.00487
-0.000145692
0.00487329
-0.000145801
0.00487659
-0.000145909
-0.000146017
0.00494212
-0.000148297
0.00494485
-0.000148422
0.0049476
-0.000148549
0.00495037
-0.000148675
-0.0001488
0.00501688
-0.000150478
0.00501908
-0.000150622
0.0050213
-0.000150767
0.00502354
-0.000150911
-0.000151055
0.0050906
-0.000152143
0.00509229
-0.000152306
0.00509399
-0.000152469
0.00509571
-0.000152633
-0.000152794
0.00516293
-0.00015331
0.00516411
-0.000153492
0.00516532
-0.000153674
0.00516654
-0.000153856
-0.000154037
0.00523352
-0.000153998
0.00523422
-0.000154199
0.00523495
-0.0001544
0.00523569
-0.000154602
-0.000154801
0.00530208
-0.000154229
0.00530233
-0.000154449
0.0053026
-0.00015467
0.00530288
-0.00015489
-0.000155109
0.00536835
-0.000154027
0.00536816
-0.000154267
0.005368
-0.000154507
0.00536786
-0.000154746
-0.000154984
0.0054321
-0.000153418
0.00543151
-0.000153677
0.00543094
-0.000153935
0.00543039
-0.000154193
-0.00015445
0.00549316
-0.000152428
0.00549219
-0.000152705
0.00549124
-0.000152982
0.0054903
-0.000153258
-0.000153533
0.00555137
-0.000151084
0.00555004
-0.000151378
0.00554873
-0.000151672
0.00554744
-0.000151966
-0.000152259
0.00560661
-0.000149412
0.00560495
-0.000149723
0.00560331
-0.000150035
0.00560169
-0.000150345
-0.000150654
0.00565879
-0.000147441
0.00565684
-0.000147768
0.0056549
-0.000148095
0.00565298
-0.000148422
-0.000148747
0.00570788
-0.000145197
0.00570565
-0.000145538
0.00570343
-0.00014588
0.00570123
-0.000146222
-0.000146562
0.00575384
-0.000142706
0.00575136
-0.000143061
0.0057489
-0.000143417
0.00574645
-0.000143772
-0.000144126
0.00579668
-0.000139995
0.00579398
-0.000140363
0.00579129
-0.00014073
0.00578862
-0.000141098
-0.000141464
0.00583643
-0.000137088
0.00583353
-0.000137466
0.00583064
-0.000137845
0.00582777
-0.000138224
-0.000138601
0.00587314
-0.000134009
0.00587007
-0.000134396
0.00586701
-0.000134784
0.00586396
-0.000135173
-0.00013556
0.00590688
-0.000130779
0.00590366
-0.000131175
0.00590045
-0.000131571
0.00589724
-0.000131967
-0.000132363
0.00593776
-0.000127421
0.00593441
-0.000127823
0.00593106
-0.000128226
0.00592772
-0.000128628
-0.00012903
0.00596586
-0.000123954
0.0059624
-0.000124361
0.00595894
-0.000124768
0.00595549
-0.000125175
-0.000125582
0.00599131
-0.000120395
0.00598775
-0.000120805
0.0059842
-0.000121215
0.00598065
-0.000121626
-0.000122037
0.00601423
-0.000116762
0.0060106
-0.000117173
0.00600697
-0.000117585
0.00600334
-0.000117998
-0.00011841
0.00603477
-0.000113069
0.00603107
-0.00011348
0.00602738
-0.000113892
0.00602369
-0.000114305
-0.000114718
0.00605305
-0.000109329
0.00604931
-0.000109739
0.00604557
-0.000110149
0.00604182
-0.000110561
-0.000110973
0.00606922
-0.000105555
0.00606545
-0.000105962
0.00606167
-0.00010637
0.00605788
-0.000106779
-0.000107188
0.00608343
-0.000101757
0.00607963
-0.000102159
0.00607583
-0.000102563
0.00607201
-0.000102968
-0.000103373
0.00609583
-9.79447e-05
0.00609201
-9.83413e-05
0.00608819
-9.87393e-05
0.00608436
-9.91385e-05
-9.95382e-05
0.00610655
-9.41255e-05
0.00610272
-9.45151e-05
0.00609889
-9.49063e-05
0.00609505
-9.52987e-05
-9.56917e-05
0.00611574
-9.03063e-05
0.00611191
-9.06878e-05
0.00610808
-9.10709e-05
0.00610423
-9.14553e-05
-9.18403e-05
0.00612353
-8.64927e-05
0.00611971
-8.6865e-05
0.00611588
-8.72389e-05
0.00611204
-8.76141e-05
-8.79901e-05
0.00613006
-8.26893e-05
0.00612625
-8.30513e-05
0.00612243
-8.3415e-05
0.00611859
-8.37801e-05
-8.4146e-05
0.00613546
-7.88998e-05
0.00613166
-7.92506e-05
0.00612785
-7.96031e-05
0.00612403
-7.99571e-05
-8.0312e-05
0.00613985
-7.51269e-05
0.00613606
-7.54657e-05
0.00613227
-7.58063e-05
0.00612846
-7.61483e-05
-7.64912e-05
0.00614333
-7.13729e-05
0.00613957
-7.16989e-05
0.00613579
-7.20267e-05
0.00613199
-7.23559e-05
-7.26861e-05
0.00614603
-6.76392e-05
0.00614228
-6.79518e-05
0.00613852
-6.8266e-05
0.00613475
-6.85818e-05
-6.88985e-05
0.00614804
-6.39267e-05
0.00614431
-6.42252e-05
0.00614057
-6.45254e-05
0.00613682
-6.4827e-05
-6.51296e-05
0.00614945
-6.02357e-05
0.00614575
-6.05196e-05
0.00614203
-6.08052e-05
0.00613829
-6.10922e-05
-6.13802e-05
0.00615036
-5.65664e-05
0.00614668
-5.68353e-05
0.00614298
-5.71058e-05
0.00613927
-5.73776e-05
-5.76504e-05
0.00615085
-5.29184e-05
0.00614719
-5.31718e-05
0.00614351
-5.34268e-05
0.00613981
-5.36831e-05
-5.39403e-05
0.00615098
-4.92911e-05
0.00614734
-4.95287e-05
0.00614368
-4.97678e-05
0.00614001
-5.00081e-05
-5.02494e-05
0.00615083
-4.56836e-05
0.00614721
-4.59051e-05
0.00614357
-4.6128e-05
0.00613992
-4.63521e-05
-4.65771e-05
0.00615046
-4.20949e-05
0.00614686
-4.23e-05
0.00614324
-4.25065e-05
0.0061396
-4.27141e-05
-4.29225e-05
0.00614993
-3.85238e-05
0.00614634
-3.87124e-05
0.00614274
-3.89021e-05
0.00613912
-3.9093e-05
-3.92847e-05
0.00614928
-3.49691e-05
0.0061457
-3.51409e-05
0.00614212
-3.53138e-05
0.00613851
-3.54877e-05
-3.56624e-05
0.00614855
-3.14292e-05
0.006145
-3.15841e-05
0.00614142
-3.17401e-05
0.00613783
-3.1897e-05
-3.20545e-05
0.0061478
-2.79029e-05
0.00614425
-2.80408e-05
0.00614069
-2.81797e-05
0.00613712
-2.83194e-05
-2.84597e-05
0.00614704
-2.43887e-05
0.00614351
-2.45095e-05
0.00613996
-2.46311e-05
0.0061364
-2.47535e-05
-2.48764e-05
0.00614632
-2.08849e-05
0.0061428
-2.09886e-05
0.00613926
-2.1093e-05
0.00613571
-2.1198e-05
-2.13035e-05
0.00614566
-1.73903e-05
0.00614214
-1.74767e-05
0.00613861
-1.75638e-05
0.00613507
-1.76513e-05
-1.77393e-05
0.00614507
-1.39031e-05
0.00614157
-1.39723e-05
0.00613804
-1.4042e-05
0.0061345
-1.41121e-05
-1.41825e-05
0.00614458
-1.04221e-05
0.00614108
-1.0474e-05
0.00613757
-1.05262e-05
0.00613403
-1.05788e-05
-1.06315e-05
0.0061442
-6.9455e-06
0.00614071
-6.98009e-06
0.0061372
-7.01491e-06
0.00613367
-7.0499e-06
-7.08501e-06
0.00614394
-3.47198e-06
0.00614045
-3.48927e-06
0.00613695
-3.50666e-06
0.00613342
-3.52411e-06
-3.54159e-06
0.00614381
0.00614032
0.00613682
0.00613329
-3.83379e-05
0.00615351
-3.47996e-05
0.00615284
-3.12764e-05
0.0061521
-2.77669e-05
0.00615133
-2.42695e-05
0.00615056
-2.07827e-05
0.00614983
-1.7305e-05
0.00614916
-1.38349e-05
0.00614856
-1.03709e-05
0.00614807
-6.91138e-06
0.00614769
-3.45493e-06
0.00614742
0.00614729
-0.000123778
0.00449598
0.000117764
-0.000129248
0.00456769
-0.000134166
0.00464112
-0.000138527
0.00471577
-0.000142333
0.00479113
-0.000145588
0.00486674
-0.000148301
0.00494214
-0.000150482
0.0050169
-0.000152148
0.00509062
-0.000153314
0.00516294
-0.000154002
0.00523353
-0.000154233
0.00530209
-0.000154032
0.00536836
-0.000153423
0.00543212
-0.000152433
0.00549318
-0.000151088
0.00555138
-0.000149417
0.00560662
-0.000147446
0.00565881
-0.000145202
0.00570789
-0.000142711
0.00575385
-0.00014
0.00579669
-0.000137093
0.00583644
-0.000134013
0.00587315
-0.000130784
0.0059069
-0.000127426
0.00593777
-0.000123958
0.00596587
-0.0001204
0.00599132
-0.000116766
0.00601424
-0.000113073
0.00603478
-0.000109333
0.00605306
-0.000105559
0.00606923
-0.000101761
0.00608344
-9.79482e-05
0.00609584
-9.41288e-05
0.00610656
-9.03095e-05
0.00611575
-8.64958e-05
0.00612354
-8.26922e-05
0.00613007
-7.89026e-05
0.00613547
-7.51296e-05
0.00613986
-7.13754e-05
0.00614334
-6.76416e-05
0.00614604
-6.39289e-05
0.00614805
-6.02378e-05
0.00614946
-5.65684e-05
0.00615037
-5.29203e-05
0.00615086
-4.92928e-05
0.00615099
-4.56852e-05
0.00615084
-4.20963e-05
0.00615047
-3.85251e-05
0.00614993
-3.49702e-05
0.00614928
-3.14303e-05
0.00614856
-2.79038e-05
0.0061478
-2.43895e-05
0.00614705
-2.08856e-05
0.00614633
-1.73908e-05
0.00614566
-1.39036e-05
0.00614508
-1.04224e-05
0.00614459
-6.94573e-06
0.00614421
-3.4721e-06
0.00614395
0.00614382
-0.00012381
0.004502
0.000117783
-0.000129294
0.00457317
-0.000134225
0.00464605
-0.000138602
0.00472015
-0.000142424
0.00479496
-0.000145696
0.00487001
-0.000148427
0.00494487
-0.000150627
0.0050191
-0.000152311
0.0050923
-0.000153496
0.00516413
-0.000154203
0.00523424
-0.000154454
0.00530234
-0.000154272
0.00536818
-0.000153682
0.00543153
-0.00015271
0.0054922
-0.000151383
0.00555006
-0.000149728
0.00560497
-0.000147773
0.00565685
-0.000145543
0.00570566
-0.000143066
0.00575137
-0.000140367
0.00579399
-0.000137471
0.00583354
-0.000134401
0.00587008
-0.00013118
0.00590368
-0.000127828
0.00593442
-0.000124365
0.00596241
-0.000120809
0.00598777
-0.000117177
0.00601061
-0.000113484
0.00603108
-0.000109743
0.00604932
-0.000105966
0.00606546
-0.000102163
0.00607964
-9.83449e-05
0.00609202
-9.45186e-05
0.00610273
-9.06911e-05
0.00611192
-8.68681e-05
0.00611972
-8.30543e-05
0.00612626
-7.92535e-05
0.00613167
-7.54685e-05
0.00613607
-7.17015e-05
0.00613957
-6.79542e-05
0.00614229
-6.42275e-05
0.00614432
-6.05218e-05
0.00614576
-5.68373e-05
0.00614669
-5.31737e-05
0.00614719
-4.95304e-05
0.00614735
-4.59067e-05
0.00614722
-4.23015e-05
0.00614687
-3.87137e-05
0.00614635
-3.5142e-05
0.00614571
-3.15852e-05
0.006145
-2.80418e-05
0.00614426
-2.45103e-05
0.00614352
-2.09893e-05
0.00614281
-1.74773e-05
0.00614215
-1.39728e-05
0.00614157
-1.04743e-05
0.00614109
-6.98033e-06
0.00614071
-3.48939e-06
0.00614046
0.00614033
-0.000123845
0.00450804
0.000117806
-0.000129341
0.00457867
-0.000134286
0.004651
-0.000138678
0.00472454
-0.000142516
0.00479879
-0.000145805
0.0048733
-0.000148553
0.00494762
-0.000150771
0.00502131
-0.000152474
0.00509401
-0.000153679
0.00516533
-0.000154405
0.00523496
-0.000154675
0.00530261
-0.000154512
0.00536801
-0.000153941
0.00543096
-0.000152987
0.00549125
-0.000151678
0.00554875
-0.00015004
0.00560333
-0.0001481
0.00565491
-0.000145886
0.00570345
-0.000143422
0.00574891
-0.000140735
0.0057913
-0.00013785
0.00583066
-0.000134789
0.00586702
-0.000131576
0.00590046
-0.00012823
0.00593107
-0.000124772
0.00595895
-0.00012122
0.00598421
-0.00011759
0.00600698
-0.000113896
0.00602739
-0.000110154
0.00604558
-0.000106374
0.00606168
-0.000102567
0.00607584
-9.8743e-05
0.0060882
-9.49099e-05
0.0060989
-9.10743e-05
0.00610808
-8.72421e-05
0.00611589
-8.34181e-05
0.00612244
-7.96061e-05
0.00612786
-7.58091e-05
0.00613227
-7.20294e-05
0.00613579
-6.82686e-05
0.00613853
-6.45277e-05
0.00614058
-6.08075e-05
0.00614204
-5.71078e-05
0.00614299
-5.34287e-05
0.00614351
-4.97695e-05
0.00614369
-4.61296e-05
0.00614358
-4.2508e-05
0.00614324
-3.89035e-05
0.00614274
-3.5315e-05
0.00614212
-3.17412e-05
0.00614143
-2.81807e-05
0.0061407
-2.4632e-05
0.00613997
-2.10937e-05
0.00613927
-1.75644e-05
0.00613862
-1.40425e-05
0.00613805
-1.05266e-05
0.00613757
-7.01515e-06
0.0061372
-3.50678e-06
0.00613695
0.00613682
-0.000123882
0.00451409
0.000117831
-0.000129389
0.00458418
-0.000134348
0.00465596
-0.000138754
0.00472894
-0.000142608
0.00480265
-0.000145914
0.00487661
-0.00014868
0.00495038
-0.000150916
0.00502355
-0.000152638
0.00509573
-0.000153861
0.00516655
-0.000154607
0.00523571
-0.000154896
0.0053029
-0.000154752
0.00536787
-0.000154199
0.0054304
-0.000153264
0.00549031
-0.000151972
0.00554745
-0.000150351
0.00560171
-0.000148427
0.00565299
-0.000146227
0.00570125
-0.000143777
0.00574646
-0.000141103
0.00578863
-0.000138229
0.00582778
-0.000135178
0.00586397
-0.000131972
0.00589726
-0.000128633
0.00592773
-0.00012518
0.0059555
-0.000121631
0.00598066
-0.000118002
0.00600335
-0.000114309
0.0060237
-0.000110565
0.00604183
-0.000106783
0.00605789
-0.000102972
0.00607202
-9.91424e-05
0.00608437
-9.53024e-05
0.00609506
-9.14588e-05
0.00610424
-8.76175e-05
0.00611205
-8.37833e-05
0.0061186
-7.99602e-05
0.00612403
-7.61512e-05
0.00612846
-7.23587e-05
0.006132
-6.85844e-05
0.00613476
-6.48295e-05
0.00613682
-6.10945e-05
0.0061383
-5.73798e-05
0.00613927
-5.3685e-05
0.00613982
-5.00099e-05
0.00614001
-4.63538e-05
0.00613992
-4.27156e-05
0.00613961
-3.90944e-05
0.00613912
-3.5489e-05
0.00613852
-3.18981e-05
0.00613784
-2.83204e-05
0.00613712
-2.47544e-05
0.0061364
-2.11988e-05
0.00613571
-1.7652e-05
0.00613507
-1.41126e-05
0.00613451
-1.05791e-05
0.00613404
-7.05016e-06
0.00613367
-3.52424e-06
0.00613343
0.0061333
-0.000123919
0.000117858
-0.000129438
-0.000134409
-0.00013883
-0.0001427
-0.000146023
-0.000148806
-0.00015106
-0.0001528
-0.000154043
-0.000154807
-0.000155115
-0.00015499
-0.000154456
-0.000153539
-0.000152264
-0.00015066
-0.000148752
-0.000146567
-0.000144131
-0.00014147
-0.000138606
-0.000135565
-0.000132368
-0.000129035
-0.000125587
-0.000122042
-0.000118415
-0.000114722
-0.000110977
-0.000107192
-0.000103377
-9.95422e-05
-9.56955e-05
-9.1844e-05
-8.79936e-05
-8.41493e-05
-8.03151e-05
-7.64942e-05
-7.26889e-05
-6.89012e-05
-6.51322e-05
-6.13825e-05
-5.76526e-05
-5.39423e-05
-5.02512e-05
-4.65788e-05
-4.29241e-05
-3.92861e-05
-3.56637e-05
-3.20557e-05
-2.84607e-05
-2.48774e-05
-2.13043e-05
-1.774e-05
-1.4183e-05
-1.06319e-05
-7.08527e-06
-3.54172e-06
0.00189293
0.000113191
0.00189751
0.000113201
0.00190211
0.000113214
0.00190671
0.000113229
0.000113246
0.00188201
0.00010871
0.0018865
0.000108711
0.001891
0.000108714
0.00189551
0.00010872
0.000108726
0.00187121
0.000104313
0.00187561
0.000104305
0.00188003
0.0001043
0.00188445
0.000104296
0.000104292
0.00185624
0.000100011
0.00186056
9.99933e-05
0.00186489
9.99777e-05
0.00186922
9.99638e-05
0.00187357
9.99508e-05
9.99372e-05
0.00184583
9.57703e-05
0.00185008
9.57454e-05
0.00185433
9.57223e-05
0.0018586
9.57004e-05
0.00186287
9.56791e-05
9.56567e-05
0.0018356
9.15944e-05
0.00183978
9.15627e-05
0.00184397
9.15326e-05
0.00184817
9.15035e-05
0.00185237
9.14745e-05
9.14441e-05
0.00182558
8.74774e-05
0.0018297
8.74395e-05
0.00183383
8.74029e-05
0.00183797
8.73673e-05
0.00184211
8.73315e-05
8.7294e-05
0.00181578
8.34138e-05
0.00181985
8.33702e-05
0.00182392
8.3328e-05
0.00182801
8.32864e-05
0.00183209
8.32445e-05
8.32007e-05
0.00180623
7.93982e-05
0.00181025
7.93498e-05
0.00181427
7.93025e-05
0.00181831
7.92556e-05
0.00182234
7.92084e-05
7.91593e-05
0.00179694
7.54258e-05
0.00180092
7.53732e-05
0.0018049
7.53215e-05
0.00180889
7.52702e-05
0.00181288
7.52183e-05
0.00178795
7.14919e-05
0.00179188
7.14358e-05
0.00179582
7.13806e-05
0.00179977
7.13255e-05
7.12698e-05
0.00177926
6.75922e-05
0.00178316
6.75334e-05
0.00178706
6.74754e-05
0.00179097
6.74174e-05
6.73588e-05
0.00177089
6.37225e-05
0.00177476
6.3662e-05
0.00177864
6.36019e-05
0.00178251
6.35419e-05
6.34813e-05
0.00176288
5.98793e-05
0.00176672
5.98177e-05
0.00177056
5.97565e-05
0.00177441
5.96952e-05
5.96335e-05
0.00175522
5.6059e-05
0.00175904
5.59971e-05
0.00176286
5.59355e-05
0.00176669
5.58739e-05
5.58116e-05
0.00174795
5.22586e-05
0.00175175
5.21971e-05
0.00175555
5.21359e-05
0.00175935
5.20745e-05
5.20127e-05
0.00174108
4.84751e-05
0.00174487
4.84148e-05
0.00174865
4.83546e-05
0.00175243
4.82944e-05
4.82335e-05
0.00173463
4.47061e-05
0.0017384
4.46475e-05
0.00174216
4.45892e-05
0.00174593
4.45306e-05
4.44715e-05
0.00172861
4.09492e-05
0.00173237
4.08931e-05
0.00173612
4.08371e-05
0.00173987
4.0781e-05
4.07242e-05
0.00172304
3.72024e-05
0.00172678
3.71494e-05
0.00173052
3.70965e-05
0.00173426
3.70433e-05
3.69896e-05
0.00171793
3.34639e-05
0.00172166
3.34146e-05
0.00172539
3.33652e-05
0.00172912
3.33157e-05
3.32655e-05
0.00171329
2.97323e-05
0.00171702
2.96871e-05
0.00172074
2.96419e-05
0.00172446
2.95964e-05
2.95504e-05
0.00170914
2.60061e-05
0.00171286
2.59655e-05
0.00171657
2.59249e-05
0.00172029
2.58841e-05
2.58428e-05
0.00170548
2.22843e-05
0.00170919
2.22487e-05
0.00171291
2.22131e-05
0.00171661
2.21774e-05
2.21411e-05
0.00170233
1.85658e-05
0.00170604
1.85356e-05
0.00170975
1.85055e-05
0.00171345
1.84752e-05
1.84444e-05
0.00169969
1.485e-05
0.0017034
1.48255e-05
0.0017071
1.4801e-05
0.0017108
1.47765e-05
1.47515e-05
0.00169757
1.1136e-05
0.00170128
1.11175e-05
0.00170498
1.1099e-05
0.00170867
1.10805e-05
1.10616e-05
0.00169597
7.42339e-06
0.00169968
7.41103e-06
0.00170338
7.39871e-06
0.00170707
7.38636e-06
7.37378e-06
0.00169491
3.7116e-06
0.00169861
3.70555e-06
0.00170231
3.69954e-06
0.00170601
3.69348e-06
3.68732e-06
0.00169438
0.00169808
0.00170178
0.00170547
)
;

boundaryField
{
    inlet
    {
        type            calculated;
        value           nonuniform 0();
    }
    outlet
    {
        type            calculated;
        value           nonuniform 0();
    }
    cylinder
    {
        type            calculated;
        value           nonuniform 0();
    }
    top
    {
        type            symmetryPlane;
        value           uniform 0;
    }
    bottom
    {
        type            symmetryPlane;
        value           uniform 0;
    }
    defaultFaces
    {
        type            empty;
        value           nonuniform 0();
    }
    procBoundary62to61
    {
        type            processor;
        value           nonuniform List<scalar> 
183
(
-0.00169066
-0.0016912
-0.00169226
-0.00169385
-0.00169597
-0.00169861
-0.00170176
-0.00170541
-0.00170955
-0.00171419
-0.00171929
-0.00172485
-0.00173086
-0.0017373
-0.00174415
-0.0017514
-0.00175903
-0.00176702
-0.00177535
-0.00178401
-0.00179297
-0.00180221
-0.00181171
-0.00182146
-0.00183142
-9.577e-05
-0.00184582
-0.00185623
-0.00186681
-0.00187752
-0.00188835
-0.00448995
-0.00456221
-0.00463619
-0.00471139
-0.00478731
-0.00486347
-0.00493941
-0.0050147
-0.00508894
-0.00516176
-0.00523283
-0.00530184
-0.00536855
-0.00543271
-0.00549415
-0.00555271
-0.00560828
-0.00566077
-0.00571012
-0.00575633
-0.00579939
-0.00583933
-0.00587622
-0.00591011
-0.00594112
-0.00596933
-0.00599487
-0.00601787
-0.00603846
-0.00605679
-0.006073
-0.00608723
-0.00609964
-0.00611037
-0.00611956
-0.00612735
-0.00613387
-0.00613925
-0.00614362
-0.00614709
-0.00614976
-0.00615175
-0.00615315
-0.00615403
-0.0061545
-0.00615461
-0.00615444
-0.00615405
-0.0061535
-0.00615283
-0.00615209
-0.00615132
-0.00615056
-0.00614982
-0.00614915
-0.00614856
-0.00614806
-0.00614768
-0.00614742
-0.00614729
-0.00615706
-0.00615638
-0.00615562
-0.00615484
-0.00615406
-0.00615332
-0.00615263
-0.00615203
-0.00615153
-0.00615114
-0.00615088
-0.00615075
-0.00448996
-0.00456222
-0.00463621
-0.00471141
-0.00478733
-0.00486349
-0.00493942
-0.00501471
-0.00508895
-0.00516177
-0.00523284
-0.00530186
-0.00536856
-0.00543273
-0.00549417
-0.00555273
-0.00560829
-0.00566078
-0.00571014
-0.00575634
-0.0057994
-0.00583935
-0.00587623
-0.00591013
-0.00594113
-0.00596934
-0.00599488
-0.00601788
-0.00603847
-0.0060568
-0.00607301
-0.00608724
-0.00609965
-0.00611038
-0.00611957
-0.00612736
-0.00613388
-0.00613926
-0.00614363
-0.0061471
-0.00614977
-0.00615176
-0.00615315
-0.00615404
-0.0061545
-0.00615462
-0.00615445
4.18926e-05
-0.00615406
-0.00188836
-0.00187752
-0.00186681
-0.000104323
-0.00185193
-0.00184159
-0.00183142
-0.00182146
-0.00181172
-0.00180221
-0.00179297
-0.00178401
-0.00177536
-0.00176702
-0.00175903
-0.0017514
-0.00174415
-0.0017373
-0.00173086
-0.00172485
-0.00171929
-0.00171419
-0.00170956
-0.00170541
-0.00170176
-0.00169861
-0.00169597
-0.00169385
-0.00169226
-0.0016912
-0.00169067
)
;
    }
    procBoundary62to63
    {
        type            processor;
        value           nonuniform List<scalar> 
182
(
0.00170916
0.00170969
0.00171076
0.00171236
0.00171449
0.00171714
0.00172031
0.00172399
0.00172817
0.00173284
0.00173799
0.00174361
0.00174969
0.00175621
0.00176315
0.00177051
5.95685e-05
0.00178211
0.00179027
0.00179879
0.00180766
0.00181687
0.00182638
0.00183618
0.00184626
0.00185658
0.00186714
0.00187792
0.00188888
0.00190002
0.00191132
0.00452014
0.00458968
0.00466092
0.00473335
0.0048065
0.00487992
0.00495315
0.00502579
0.00509745
0.00516778
0.00523646
0.00530319
0.00536773
0.00542986
0.00548938
0.00554617
0.00560009
0.00565107
0.00569905
0.00574401
0.00578595
0.00582491
0.00586091
0.00589405
0.00592439
0.00595204
0.00597711
0.00599972
0.00601999
0.00603808
0.0060541
0.0060682
0.00608052
0.0060912
0.00610038
0.00610819
0.00611475
0.00612019
0.00612464
0.00612819
0.00613096
0.00613305
0.00613454
0.00613554
0.0061361
0.00613632
0.00613624
0.00613595
0.00613548
0.00613489
0.00613422
0.00613352
0.00613281
0.00613213
0.0061315
0.00613095
0.00613048
0.00613012
0.00612988
0.00612975
0.00452015
0.0045897
0.00466093
0.00473336
0.00480652
0.00487993
0.00495316
0.0050258
0.00509747
0.0051678
0.00523647
0.00530321
0.00536774
0.00542987
0.0054894
0.00554618
0.0056001
0.00565108
0.00569906
0.00574402
0.00578597
0.00582492
0.00586093
0.00589406
0.0059244
0.00595205
0.00597712
0.00599973
0.00602
0.00603809
0.00605411
0.00606821
0.00608053
0.00609121
0.00610039
0.00610819
0.00611476
0.0061202
0.00612464
0.0061282
0.00613097
0.00613305
0.00613455
0.00613554
0.00613611
0.00613632
0.00613625
0.00613595
0.00613548
0.00613489
0.00613423
0.00613353
0.00613282
0.00613214
0.00613151
0.00613095
0.00613049
0.00613013
0.00612988
0.00612976
0.00191132
0.00190003
0.00188889
0.00187792
0.00186715
0.00185659
0.00184626
0.00183619
0.00182638
0.00181687
7.51648e-05
0.00180372
0.00179488
0.00178639
0.00177826
0.00177051
0.00176315
0.00175621
0.00174969
0.00174361
0.00173799
0.00173284
0.00172817
0.00172399
0.00172031
0.00171715
0.00171449
0.00171236
0.00171076
0.00170969
0.00170916
)
;
    }
}


// ************************************************************************* //
