/*--------------------------------*- C++ -*----------------------------------*\
  =========                 |
  \\      /  F ield         | OpenFOAM: The Open Source CFD Toolbox
   \\    /   O peration     | Website:  https://openfoam.org
    \\  /    A nd           | Version:  7
     \\/     M anipulation  |
\*---------------------------------------------------------------------------*/
FoamFile
{
    version     2.0;
    format      ascii;
    class       surfaceScalarField;
    location    "31";
    object      phi;
}
// * * * * * * * * * * * * * * * * * * * * * * * * * * * * * * * * * * * * * //

dimensions      [0 3 -1 0 0 0 0];

internalField   nonuniform List<scalar> 
79480
(
-7.48741e-07
7.51659e-07
-2.918e-09
-2.88348e-06
2.1426e-06
-7.86333e-09
-6.3528e-06
3.48145e-06
-1.21268e-08
-1.11034e-05
4.76632e-06
-1.56931e-08
-1.70798e-05
5.9949e-06
-1.85587e-08
-2.42244e-05
7.16536e-06
-2.07325e-08
-3.24786e-05
8.27639e-06
-2.22344e-08
-4.17826e-05
9.32711e-06
-2.30937e-08
-5.20764e-05
1.03172e-05
-2.33466e-08
-6.33e-05
1.12467e-05
-2.30328e-08
-7.53941e-05
1.21163e-05
-2.21921e-08
-8.83003e-05
1.2927e-05
-2.08599e-08
-0.000101961
1.36803e-05
-1.90628e-08
-0.000116322
1.43778e-05
-1.68155e-08
-0.00013133
1.50216e-05
-1.41165e-08
-0.000146933
1.5614e-05
-1.09462e-08
-0.000163084
1.61578e-05
-7.26507e-09
-0.000179737
1.66567e-05
-3.01338e-09
-0.000196854
1.71153e-05
1.88889e-09
-0.000214402
1.75404e-05
7.54106e-09
-0.000232358
1.79412e-05
1.40608e-08
-0.00025071
1.83309e-05
2.15837e-08
-0.000269467
1.87271e-05
3.02625e-08
-0.000288661
1.91532e-05
4.02692e-08
-0.000308351
1.96384e-05
5.17964e-08
-0.000328633
2.02174e-05
6.50619e-08
-0.000349642
2.09282e-05
8.0313e-08
-0.000371546
2.18062e-05
9.7829e-08
-0.000394546
2.28822e-05
1.17937e-07
2.42078e-05
1.41064e-07
-0.000418895
-7.43257e-07
1.49492e-06
-2.86288e-06
4.26222e-06
-6.30821e-06
6.92679e-06
-1.10266e-05
9.48473e-06
-1.6963e-05
1.19313e-05
-2.40605e-05
1.42628e-05
-3.22604e-05
1.64763e-05
-4.15034e-05
1.85701e-05
-5.17295e-05
2.05432e-05
-6.28786e-05
2.23958e-05
-7.48911e-05
2.41288e-05
-8.77083e-05
2.57443e-05
-0.000101273
2.72448e-05
-0.000115529
2.86336e-05
-0.000130422
2.99146e-05
-0.0001459
3.10923e-05
-0.000161914
3.21718e-05
-0.000178418
3.31602e-05
-0.000195369
3.40665e-05
-0.000212732
3.49035e-05
-0.00023048
3.56894e-05
-0.000248599
3.64496e-05
-0.000267091
3.72192e-05
-0.000285982
3.80444e-05
-0.000305328
3.89838e-05
-0.000325218
4.01074e-05
-0.000345782
4.14928e-05
-0.000367189
4.32127e-05
-0.000389638
4.53315e-05
4.79549e-05
-0.000413385
-7.32387e-07
2.2273e-06
-2.82203e-06
6.35186e-06
-6.21976e-06
1.03245e-05
-1.08742e-05
1.41392e-05
-1.67313e-05
1.77884e-05
-2.37348e-05
2.12664e-05
-3.1827e-05
2.45685e-05
-4.09485e-05
2.76917e-05
-5.10396e-05
3.06343e-05
-6.204e-05
3.33962e-05
-7.38898e-05
3.59786e-05
-8.65296e-05
3.8384e-05
-9.99009e-05
4.06162e-05
-0.000113947
4.26794e-05
-0.000128611
4.4579e-05
-0.00014384
4.6321e-05
-0.000159581
4.79127e-05
-0.000175784
4.93635e-05
-0.000192403
5.06857e-05
-0.000209397
5.18973e-05
-0.000226732
5.30238e-05
-0.000244384
5.41017e-05
-0.000262346
5.51817e-05
-0.000280634
5.63322e-05
-0.000299291
5.76404e-05
-0.000318396
5.92128e-05
-0.000338072
6.11689e-05
-0.000358483
6.36232e-05
-0.000379829
6.66774e-05
7.04965e-05
-0.00040237
-7.16318e-07
2.94362e-06
-2.7616e-06
8.39715e-06
-6.08884e-06
1.36518e-05
-1.06484e-05
1.86988e-05
-1.63878e-05
2.35278e-05
-2.3252e-05
2.81305e-05
-3.11838e-05
3.25003e-05
-4.01246e-05
3.66324e-05
-5.00145e-05
4.05242e-05
-6.07931e-05
4.41748e-05
-7.23999e-05
4.75853e-05
-8.47744e-05
5.07586e-05
-9.78569e-05
5.36987e-05
-0.000111588
5.64107e-05
-0.00012591
5.89008e-05
-0.000140765
6.1176e-05
-0.000156097
6.32445e-05
-0.00017185
6.5117e-05
-0.000187972
6.68079e-05
-0.000204414
6.83385e-05
-0.000221129
6.97395e-05
-0.000238084
7.10561e-05
-0.000255255
7.23529e-05
-0.000272641
7.37181e-05
-0.000290268
7.52672e-05
-0.000308199
7.71439e-05
-0.000326543
7.95134e-05
-0.000345458
8.25384e-05
-0.000365146
8.63653e-05
9.12272e-05
-0.000385877
-6.95331e-07
3.63895e-06
-2.68261e-06
1.03844e-05
-5.91754e-06
1.68867e-05
-1.03528e-05
2.3134e-05
-1.59377e-05
2.91127e-05
-2.26186e-05
3.48114e-05
-3.03393e-05
4.0221e-05
-3.90416e-05
4.53347e-05
-4.86657e-05
5.01483e-05
-5.91509e-05
5.466e-05
-7.04357e-05
5.88701e-05
-8.24584e-05
6.27812e-05
-9.51572e-05
6.63974e-05
-0.00010847
6.9724e-05
-0.000122337
7.2767e-05
-0.000136694
7.55334e-05
-0.000151481
7.80315e-05
-0.000166636
8.02717e-05
-0.000182097
8.22688e-05
-0.000197803
8.40447e-05
-0.000213697
8.56331e-05
-0.000229725
8.70847e-05
-0.000245847
8.84744e-05
-0.000262036
8.99077e-05
-0.000278296
9.15269e-05
-0.000294666
9.35138e-05
-0.000311236
9.6084e-05
-0.000328156
9.94579e-05
-0.000345628
0.000103837
0.000109538
-0.000363938
-6.69791e-07
4.30874e-06
-2.58636e-06
1.2301e-05
-5.7086e-06
2.00089e-05
-9.99181e-06
2.74172e-05
-1.53874e-05
3.45083e-05
-2.18432e-05
4.12672e-05
-2.93042e-05
4.76819e-05
-3.77125e-05
5.37431e-05
-4.70085e-05
5.94443e-05
-5.71306e-05
6.47821e-05
-6.80162e-05
6.97557e-05
-7.96019e-05
7.43669e-05
-9.18234e-05
7.86189e-05
-0.000104616
8.25165e-05
-0.000117914
8.60649e-05
-0.00013165
8.927e-05
-0.000145757
9.21386e-05
-0.000160165
9.46793e-05
-0.000174801
9.69048e-05
-0.000189592
9.88352e-05
-0.000204462
0.000100503
-0.000219339
0.000101962
-0.000234156
0.000103292
-0.00024886
0.000104611
-0.00026342
0.000106087
-0.000277846
0.000107939
-0.000292201
0.00011044
-0.000306622
0.000113878
-0.000321312
0.000118528
0.000124808
-0.000336583
-6.40144e-07
4.94889e-06
-2.47446e-06
1.41353e-05
-5.46534e-06
2.29998e-05
-9.57092e-06
3.15228e-05
-1.47448e-05
3.96822e-05
-2.09365e-05
4.74589e-05
-2.80919e-05
5.48373e-05
-3.61536e-05
6.18048e-05
-4.50614e-05
6.83521e-05
-5.47531e-05
7.44737e-05
-6.51644e-05
8.01671e-05
-7.62297e-05
8.54322e-05
-8.78818e-05
9.0271e-05
-0.000100052
9.46867e-05
-0.00011267
9.86827e-05
-0.000125663
0.000102263
-0.000138955
0.000105431
-0.000152466
0.000108191
-0.000166114
0.000110552
-0.000179808
0.000112529
-0.000193455
0.00011415
-0.000206957
0.000115464
-0.000220219
0.000116553
-0.000233151
0.000117543
-0.000245684
0.00011862
-0.000257787
0.000120042
-0.000269487
0.000122141
-0.000280901
0.000125293
-0.000292235
0.000129861
0.000136403
-0.000303829
-6.06911e-07
5.5558e-06
-2.34879e-06
1.58772e-05
-5.19167e-06
2.58427e-05
-9.09658e-06
3.54277e-05
-1.40193e-05
4.4605e-05
-1.9911e-05
5.33506e-05
-2.67181e-05
6.16444e-05
-3.43834e-05
6.94701e-05
-4.28462e-05
7.6815e-05
-5.20429e-05
8.36705e-05
-6.19074e-05
9.00315e-05
-7.2371e-05
9.58958e-05
-8.3363e-05
0.000101263
-9.48102e-05
0.000106134
-0.000106637
0.000110509
-0.000118763
0.000114389
-0.000131104
0.000117772
-0.00014357
0.000120658
-0.000156065
0.000123047
-0.000168481
0.000124945
-0.000180703
0.000126373
-0.000192609
0.000127369
-0.000204065
0.00012801
-0.000214944
0.000128422
-0.000225127
0.000128803
-0.00023453
0.000129445
-0.000243136
0.000130746
-0.000251029
0.000133186
-0.000258414
0.000137246
0.000143652
-0.000265663
-5.70676e-07
6.12647e-06
-2.21144e-06
1.7518e-05
-4.89194e-06
2.85232e-05
-8.57599e-06
3.91118e-05
-1.32214e-05
4.92504e-05
-1.87804e-05
5.89096e-05
-2.52002e-05
6.80642e-05
-3.24231e-05
7.6693e-05
-4.03875e-05
8.47793e-05
-4.90278e-05
9.23108e-05
-5.82754e-05
9.9279e-05
-6.80582e-05
0.000105679
-7.83013e-05
0.000111506
-8.8926e-05
0.000116759
-9.98498e-05
0.000121433
-0.000110985
0.000125524
-0.000122239
0.000129025
-0.000133508
0.000131927
-0.000144682
0.00013422
-0.000155635
0.000135899
-0.00016623
0.000136968
-0.000176313
0.000137452
-0.000185714
0.000137412
-0.000194258
0.000136966
-0.000201769
0.000136315
-0.0002081
0.000135776
-0.000213168
0.000135814
-0.000217019
0.000137037
-0.000219842
0.000140069
0.000145837
-0.000222028
-5.3208e-07
6.65855e-06
-2.06471e-06
1.90506e-05
-4.57095e-06
3.10294e-05
-8.01704e-06
4.25579e-05
-1.23625e-05
5.35958e-05
-1.75603e-05
6.41074e-05
-2.35576e-05
7.40615e-05
-3.0296e-05
8.34314e-05
-3.77121e-05
9.21955e-05
-4.57381e-05
0.000100337
-5.43019e-05
0.000107843
-6.33273e-05
0.000114704
-7.2734e-05
0.000120913
-8.24373e-05
0.000126462
-9.23472e-05
0.000131343
-0.000102367
0.000135544
-0.000112393
0.000139051
-0.00012231
0.000141844
-0.00013199
0.0001439
-0.000141291
0.000145199
-0.000150047
0.000145725
-0.000158075
0.00014548
-0.000165165
0.000144502
-0.000171087
0.000142888
-0.000175603
0.00014083
-0.000178486
0.000138659
-0.000179573
0.000136901
-0.000178847
0.000136311
-0.000176476
0.000137699
0.000142177
-0.000172816
-4.91803e-07
7.15036e-06
-1.91107e-06
2.04699e-05
-4.23379e-06
3.33521e-05
-7.42817e-06
4.57522e-05
-1.14548e-05
5.76224e-05
-1.62668e-05
6.89195e-05
-2.18107e-05
7.96054e-05
-2.80267e-05
8.96473e-05
-3.48489e-05
9.90177e-05
-4.22062e-05
0.000107694
-5.00223e-05
0.000115659
-5.8216e-05
0.000122898
-6.67007e-05
0.000129397
-7.53843e-05
0.000135146
-8.41681e-05
0.000140127
-9.29455e-05
0.000144322
-0.0001016
0.000147706
-0.000110003
0.000150247
-0.00011801
0.000151907
-0.000125456
0.000152645
-0.000132152
0.000152421
-0.000137881
0.000151208
-0.000142389
0.00014901
-0.000145392
0.000145891
-0.000146578
0.000142016
-0.00014563
0.000137711
-0.000142282
0.000133553
-0.000136432
0.00013046
-0.00012823
0.000129497
0.000131817
-0.00011787
-4.50559e-07
7.60092e-06
-1.75305e-06
2.17724e-05
-3.88577e-06
3.54848e-05
-6.81813e-06
4.86846e-05
-1.0511e-05
6.13152e-05
-1.4917e-05
7.33255e-05
-1.99811e-05
8.46695e-05
-2.5641e-05
9.53072e-05
-3.18276e-05
0.000105204
-3.84657e-05
0.000114332
-4.54736e-05
0.000122667
-5.27637e-05
0.000130188
-6.0242e-05
0.000136876
-6.78077e-05
0.000142711
-7.53518e-05
0.000147671
-8.2756e-05
0.000151726
-8.98902e-05
0.00015484
-9.66098e-05
0.000156966
-0.000102751
0.000158049
-0.000108129
0.000158022
-0.000112525
0.000156817
-0.000115688
0.000154371
-0.000117323
0.000150644
-0.000117084
0.000145653
-0.000114583
0.000139515
-0.000109403
0.000132531
-0.000101148
0.000125299
-8.95803e-05
0.000118893
-7.49292e-05
0.000114846
0.000114031
-5.71431e-05
-4.0907e-07
8.00999e-06
-1.59327e-06
2.29566e-05
-3.53227e-06
3.74238e-05
-6.19581e-06
5.13481e-05
-9.54406e-06
6.46635e-05
-1.35281e-05
7.73095e-05
-1.80903e-05
8.92317e-05
-2.3165e-05
0.000100382
-2.86787e-05
0.000110718
-3.45506e-05
0.000120204
-4.06928e-05
0.000128809
-4.70097e-05
0.000136505
-5.33985e-05
0.000143265
-5.97478e-05
0.00014906
-6.59365e-05
0.00015386
-7.18325e-05
0.000157622
-7.72899e-05
0.000160297
-8.21459e-05
0.000161822
-8.62163e-05
0.000162119
-8.92903e-05
0.000161096
-9.11229e-05
0.00015865
-9.14262e-05
0.000154674
-8.98597e-05
0.000149078
-8.60201e-05
0.000141813
-7.94369e-05
0.000132932
-6.95838e-05
0.000122678
-5.59217e-05
0.000111637
-3.79629e-05
0.000100934
-1.55221e-05
9.2405e-05
8.99988e-05
8.50985e-06
-3.68056e-07
8.37804e-06
-1.43427e-06
2.40228e-05
-3.17862e-06
3.91682e-05
-5.56997e-06
5.37395e-05
-8.56668e-06
6.76602e-05
-1.2117e-05
8.08598e-05
-1.61597e-05
9.32744e-05
-2.06243e-05
0.000104847
-2.54318e-05
0.000115525
-3.04944e-05
0.000125267
-3.57161e-05
0.000134031
-4.09923e-05
0.000141781
-4.6209e-05
0.000148481
-5.12422e-05
0.000154094
-5.59567e-05
0.000158574
-6.02039e-05
0.000161869
-6.3819e-05
0.000163913
-6.6618e-05
0.000164622
-6.83929e-05
0.000163894
-6.89054e-05
0.000161609
-6.78788e-05
0.000157623
-6.49881e-05
0.000151784
-5.98469e-05
0.000143937
-5.1993e-05
0.000133959
-4.08752e-05
0.000121814
-2.58521e-05
0.000107655
-6.22777e-06
9.20122e-05
1.86345e-05
7.60714e-05
4.89918e-05
6.20477e-05
5.49547e-05
8.40359e-05
-3.28212e-07
8.70625e-06
-1.27855e-06
2.49731e-05
-2.82992e-06
4.07196e-05
-4.94901e-06
5.58586e-05
-7.59099e-06
7.03022e-05
-1.07e-05
8.39688e-05
-1.42096e-05
9.6784e-05
-1.80433e-05
0.00010868
-2.21148e-05
0.000119597
-2.6328e-05
0.00012948
-3.05772e-05
0.00013828
-3.47463e-05
0.00014595
-3.87083e-05
0.000152443
-4.23242e-05
0.00015771
-4.54415e-05
0.000161691
-4.78918e-05
0.000164319
-4.94881e-05
0.000165509
-5.00212e-05
0.000165155
-4.92545e-05
0.000163128
-4.69178e-05
0.000159272
-4.26988e-05
0.000153404
-3.62315e-05
0.000145316
-2.70818e-05
0.000134787
-1.47284e-05
0.000121606
1.45828e-06
0.000105627
2.22327e-05
8.68802e-05
4.84639e-05
6.5781e-05
8.10076e-05
4.35277e-05
0.000120341
2.2714e-05
9.16464e-06
0.000166131
-2.90185e-07
8.99644e-06
-1.12837e-06
2.58113e-05
-2.49087e-06
4.20821e-05
-4.34062e-06
5.77083e-05
-6.62805e-06
7.25896e-05
-9.29161e-06
8.66324e-05
-1.22582e-05
9.97506e-05
-1.54437e-05
0.000111866
-1.87527e-05
0.000122906
-2.20791e-05
0.000132806
-2.53052e-05
0.000141506
-2.83014e-05
0.000148946
-3.09251e-05
0.000155067
-3.30193e-05
0.000159804
-3.44107e-05
0.000163083
-3.49073e-05
0.000164816
-3.42952e-05
0.000164897
-3.23348e-05
0.000163194
-2.87553e-05
0.000159548
-2.32484e-05
0.000153765
-1.54597e-05
0.000145616
-4.97672e-06
0.000134834
8.68662e-06
0.000121124
2.61117e-05
0.000104181
4.8003e-05
8.37362e-05
7.52214e-05
5.96618e-05
0.000108802
3.22008e-05
0.000149858
2.47175e-06
0.000199256
-2.66842e-05
-4.84638e-05
0.000256884
-2.5455e-07
9.25099e-06
-9.85756e-07
2.65425e-05
-2.16557e-06
4.32619e-05
-3.75144e-06
5.92942e-05
-5.68737e-06
7.45255e-05
-7.9044e-06
8.88494e-05
-1.0321e-05
0.000102167
-1.28435e-05
0.000114388
-1.53659e-05
0.000125428
-1.77694e-05
0.00013521
-1.99225e-05
0.000143659
-2.16794e-05
0.000150703
-2.28788e-05
0.000156266
-2.33421e-05
0.000160267
-2.28716e-05
0.000162612
-2.12466e-05
0.000163191
-1.82211e-05
0.000161871
-1.35184e-05
0.000158491
-6.82646e-06
0.000152856
2.20898e-06
0.00014473
1.39931e-05
0.000133831
2.89932e-05
0.000119833
4.77545e-05
0.000102362
7.0922e-05
8.10131e-05
9.92729e-05
5.53853e-05
0.000133761
2.51737e-05
0.000175569
-9.60707e-06
0.000226074
-4.80329e-05
0.000286546
-8.71569e-05
-0.000119278
0.000357361
-2.21785e-07
9.47277e-06
-8.52346e-07
2.71731e-05
-1.85732e-06
4.42669e-05
-3.18677e-06
6.06237e-05
-4.77637e-06
7.61151e-05
-6.5479e-06
9.06209e-05
-8.40953e-06
0.000104029
-1.0256e-05
0.000116235
-1.19683e-05
0.000127141
-1.34134e-05
0.000136655
-1.44426e-05
0.000144688
-1.48912e-05
0.000151152
-1.45759e-05
0.000155951
-1.32926e-05
0.000158984
-1.08141e-05
0.000160134
-6.88602e-06
0.000159263
-1.22333e-06
0.000156209
6.49475e-06
0.000150773
1.66302e-05
0.000142721
2.95932e-05
0.000131767
4.58501e-05
0.000117575
6.59341e-05
9.97494e-05
9.04597e-05
7.78368e-05
0.000120143
5.13296e-05
0.000155834
1.96947e-05
0.000198564
-1.75568e-05
0.000249631
-6.06745e-05
0.000310642
-0.000109044
0.00038327
-0.000159785
-0.00020468
0.000468672
-1.92245e-07
9.66502e-06
-7.29311e-07
2.77101e-05
-1.56839e-06
4.51059e-05
-2.65011e-06
6.17054e-05
-3.8998e-06
7.73648e-05
-5.22791e-06
9.19491e-05
-6.53024e-06
0.000105331
-7.68781e-06
0.000117392
-8.56637e-06
0.000128019
-9.01547e-06
0.000137104
-8.86711e-06
0.00014454
-7.93386e-06
0.000150218
-6.00648e-06
0.000154024
-2.85107e-06
0.000155829
1.79448e-06
0.000155488
8.22445e-06
0.000152833
1.677e-05
0.000147663
2.78046e-05
0.000139739
4.17499e-05
0.000128775
5.90828e-05
0.000114434
8.03431e-05
9.63143e-05
0.000106143
7.39494e-05
0.000137179
4.68004e-05
0.00017425
1.42594e-05
0.000218279
-2.43344e-05
0.000270366
-6.96438e-05
0.00033188
-0.000122189
0.000404591
-0.000181754
0.000490511
-0.000245704
-0.000306042
0.000591872
-1.66134e-07
9.83115e-06
-6.17258e-07
2.81612e-05
-1.29983e-06
4.57885e-05
-2.14288e-06
6.25484e-05
-3.05919e-06
7.82811e-05
-3.94574e-06
9.28356e-05
-4.68367e-06
0.000106069
-5.13791e-06
0.000117846
-5.15631e-06
0.000128038
-4.56835e-06
0.000136516
-3.18304e-06
0.000143155
-7.86766e-07
0.000147822
2.86004e-06
0.000150377
8.02637e-06
0.000150662
1.50149e-05
0.0001485
2.4167e-05
0.000143681
3.58678e-05
0.000135962
5.05526e-05
0.000125054
6.87131e-05
0.000110615
9.09046e-05
9.22423e-05
0.000117753
6.94657e-05
0.000149964
4.17388e-05
0.000188329
8.43558e-06
0.000233739
-3.11505e-05
0.0002872
-7.77961e-05
0.00034987
-0.000132313
0.000423144
-0.000195463
0.000508859
-0.00026747
0.000609233
-0.000346078
-0.000424596
0.000727787
-1.43479e-07
9.97463e-06
-5.16135e-07
2.85339e-05
-1.0513e-06
4.63237e-05
-1.66404e-06
6.31612e-05
-2.25236e-06
7.88695e-05
-2.69742e-06
9.32807e-05
-2.86327e-06
0.000106235
-2.59617e-06
0.000117579
-1.72313e-06
0.000127165
-5.02813e-08
0.000134843
2.63966e-06
0.000140465
6.5911e-06
0.000143871
1.20787e-05
0.000144889
1.94123e-05
0.000143329
2.89416e-05
0.00013897
4.10625e-05
0.00013156
5.62226e-05
0.000120802
7.49286e-05
0.000106348
9.7753e-05
8.77905e-05
0.000125341
6.46546e-05
0.000158416
3.63901e-05
0.000197789
2.36605e-06
0.000244358
-3.81336e-05
0.000299117
-8.59095e-05
0.000363159
-0.000141838
0.000437689
-0.000206844
0.000524087
-0.00028186
0.000624148
-0.000367531
0.000740094
-0.000462024
-0.000561298
0.000876797
-1.2411e-07
1.00987e-05
-4.25153e-07
2.88349e-05
-8.20812e-07
4.67193e-05
-1.20981e-06
6.35502e-05
-1.47296e-06
7.91326e-05
-1.4731e-06
9.32808e-05
-1.05456e-06
0.000105816
-4.19899e-08
0.000116567
1.76111e-06
0.000125361
4.57588e-06
0.000132028
8.65048e-06
0.00013639
1.42642e-05
0.000138257
2.17325e-05
0.000137421
3.1412e-05
0.000133649
4.37068e-05
0.000126675
5.90751e-05
0.000116192
7.8036e-05
0.000101841
0.000101177
8.32069e-05
0.000129161
5.98064e-05
0.000162733
3.10825e-05
0.000202725
-3.60193e-06
0.000250059
-4.49681e-05
0.000305747
-9.38216e-05
0.000370887
-0.000151049
0.000446653
-0.000217604
0.000534288
-0.000294479
0.000635113
-0.000382686
0.00075076
-0.000483177
0.000883243
-0.000594507
-0.000716646
0.00103859
-1.07642e-07
1.02064e-05
-3.42727e-07
2.907e-05
-6.04714e-07
4.69813e-05
-7.73491e-07
6.37189e-05
-7.10146e-07
7.90693e-05
-2.56556e-07
9.28272e-05
7.6534e-07
0.000104795
2.55551e-06
0.000114777
5.33832e-06
0.000122579
9.3654e-06
0.000128001
1.49202e-05
0.000130835
2.23225e-05
0.000130855
3.19343e-05
0.000127809
4.41659e-05
0.000121417
5.94833e-05
0.000111358
7.84151e-05
9.72601e-05
0.000101561
7.86957e-05
0.000129597
5.51706e-05
0.000163286
2.61173e-05
0.00020348
-9.11122e-06
0.000251122
-5.12448e-05
0.00030725
-0.000101096
0.000372983
-0.000159554
0.000449511
-0.000227577
0.000538071
-0.000306164
0.000639914
-0.000396322
0.000756262
-0.000499034
0.000888447
-0.000615362
0.00103811
-0.000744172
-0.000890448
0.00121191
-9.34645e-08
1.02998e-05
-2.66442e-07
2.9243e-05
-3.97553e-07
4.71124e-05
-3.45275e-07
6.36667e-05
5.17014e-08
7.86723e-05
9.74957e-07
9.19039e-05
2.62838e-06
0.000103141
5.23994e-06
0.000112165
9.06515e-06
0.000118753
1.43911e-05
0.000122675
2.15413e-05
0.000123685
3.08819e-05
0.000121514
4.28278e-05
0.000115863
5.78502e-05
0.000106395
7.64844e-05
9.27238e-05
9.93376e-05
7.44069e-05
0.000127097
5.09363e-05
0.000160537
2.17308e-05
0.000200523
-1.38693e-05
0.000248018
-5.66062e-05
0.000304077
-0.000107303
0.000369839
-0.000166858
0.000446515
-0.000236231
0.000535359
-0.00031642
0.000637625
-0.00040843
0.000754518
-0.000513215
0.000887108
-0.000631624
0.00103628
-0.000764534
0.00120326
-0.000911154
-0.00108156
0.00139438
-8.07408e-08
1.03806e-05
-1.93051e-07
2.93553e-05
-1.92124e-07
4.71115e-05
8.76505e-08
6.33869e-05
8.32453e-07
7.79275e-05
2.25082e-06
9.04856e-05
4.57525e-06
0.000100817
8.06549e-06
0.000108675
1.30125e-05
0.000113806
1.97436e-05
0.000115944
2.86279e-05
0.000114801
4.00839e-05
0.000110058
5.45862e-05
0.000101361
7.26741e-05
8.83072e-05
9.49597e-05
7.04382e-05
0.000122136
4.72304e-05
0.000154985
1.80875e-05
0.000194381
-1.76656e-05
0.000241297
-6.07855e-05
0.0002968
-0.000112109
0.000362044
-0.000172546
0.000438252
-0.000243066
0.000526689
-0.000324668
0.00062862
-0.000418351
0.000745249
-0.000525059
0.000877646
-0.000645611
0.00102665
-0.000780631
0.00119255
-0.000930433
0.00137627
-0.00109488
-0.0012876
0.00158231
-6.84176e-08
1.0449e-05
-1.18501e-07
2.94054e-05
2.07061e-08
4.69723e-05
5.40983e-07
6.28666e-05
1.65693e-06
7.68115e-05
3.60664e-06
8.85359e-05
6.65495e-06
9.77684e-05
1.10973e-05
0.000104232
1.72648e-05
0.000107639
2.55299e-05
0.000107679
3.63134e-05
0.000104017
5.00924e-05
9.62791e-05
6.74079e-05
8.40453e-05
8.88744e-05
6.68407e-05
0.000115187
4.41252e-05
0.000147132
1.52864e-05
0.000185586
-2.03667e-05
0.000231527
-6.36065e-05
0.000286026
-0.000115285
0.000350244
-0.000176327
0.000425408
-0.000247711
0.000512787
-0.000330445
0.000613647
-0.000425528
0.000729188
-0.000533892
0.000860466
-0.000656338
0.0010083
-0.000793445
0.0011732
-0.000945528
0.00135471
-0.00111194
0.00155371
-0.00129388
-0.00150465
0.00177076
-5.52643e-08
1.05043e-05
-3.81264e-08
2.93883e-05
2.50753e-07
4.66834e-05
1.03296e-06
6.20844e-05
2.55345e-06
7.52911e-05
5.08342e-06
8.60059e-05
8.92379e-06
9.3928e-05
1.441e-05
9.87462e-05
2.1918e-05
0.000100131
3.1871e-05
9.77264e-05
4.47473e-05
9.11409e-05
6.1089e-05
7.99375e-05
8.15102e-05
6.36241e-05
0.000106706
4.16446e-05
0.000137461
1.33703e-05
0.000174653
-2.19059e-05
0.000219259
-6.49722e-05
0.000272349
-0.000116696
0.00033508
-0.000178017
0.000408679
-0.000249926
0.00049441
-0.000333441
0.000593529
-0.000429564
0.000707226
-0.000539225
0.000836541
-0.000663208
0.000982268
-0.000802066
0.00114484
-0.000956014
0.00132426
-0.00112496
0.00151934
-0.00130702
0.00173111
-0.00150565
-0.00172721
0.00195366
-3.98692e-08
1.05441e-05
5.34054e-08
2.9295e-05
5.10251e-07
4.62266e-05
1.58405e-06
6.10106e-05
3.55364e-06
7.33215e-05
6.72662e-06
8.28329e-05
1.14439e-05
8.92108e-05
1.80853e-05
9.21047e-05
2.70768e-05
9.11395e-05
3.88977e-05
8.59055e-05
5.40898e-05
7.59488e-05
7.32661e-05
6.07612e-05
9.71192e-05
3.9771e-05
0.00012643
1.23339e-05
0.000162073
-2.22723e-05
0.000205018
-6.48513e-05
0.000256331
-0.000116286
0.000317163
-0.000177528
0.00038873
-0.000249584
0.000472284
-0.00033348
0.000569067
-0.000430224
0.00068025
-0.000540747
0.000806851
-0.000665825
0.000949638
-0.000805995
0.00110902
-0.000961446
0.00128491
-0.00113191
0.00147666
-0.00131671
0.00168241
-0.00151277
0.00190302
-0.00172625
-0.00194831
0.00212412
-2.07062e-08
1.05648e-05
1.61859e-07
2.91124e-05
8.11498e-07
4.55769e-05
2.2161e-06
5.9606e-05
4.69133e-06
7.08462e-05
8.58472e-06
7.89395e-05
1.42811e-05
8.35144e-05
2.22096e-05
8.41763e-05
3.28507e-05
8.04983e-05
4.67457e-05
7.20104e-05
6.45052e-05
5.81893e-05
8.68178e-05
3.84486e-05
0.000114459
1.21301e-05
0.000148295
-2.15027e-05
0.00018929
-6.32674e-05
0.000238499
-0.00011406
0.000297062
-0.000174848
0.00036618
-0.000246647
0.000447091
-0.000330494
0.000541016
-0.000427405
0.000649102
-0.00053831
0.000772337
-0.000663982
0.000911459
-0.000804947
0.00106684
-0.000961381
0.0012384
-0.001133
0.00142547
-0.00131897
0.00162665
-0.00151788
0.00183976
-0.00172588
0.0020636
-0.00195009
-0.0021596
0.00227489
3.81389e-09
1.0561e-05
2.93213e-07
2.8823e-05
1.16751e-06
4.47026e-05
2.95175e-06
5.78218e-05
6.00142e-06
6.77966e-05
1.07075e-05
7.42334e-05
1.75031e-05
7.67188e-05
2.68704e-05
7.48089e-05
3.93503e-05
6.80185e-05
5.55502e-05
5.58105e-05
7.6154e-05
3.75856e-05
0.00010193
1.26731e-05
0.000133735
-1.96758e-05
0.000172524
-6.02909e-05
0.000219337
-0.000110081
0.000275301
-0.000170024
0.000341603
-0.000241149
0.000419459
-0.000324503
0.000510071
-0.000421106
0.000614558
-0.000531892
0.000733879
-0.000657631
0.000868734
-0.000798837
0.00101946
-0.000955675
0.00118593
-0.00112785
0.00136747
-0.00131454
0.00156278
-0.00151429
0.00176988
-0.00172498
0.00198692
-0.00194292
0.00220846
-0.00217163
-0.00235265
0.00240151
3.52799e-08
1.05258e-05
4.53425e-07
2.84049e-05
1.59131e-06
4.35647e-05
3.81361e-06
5.55995e-05
7.51866e-06
6.40915e-05
1.31445e-05
6.86076e-05
2.1176e-05
6.86873e-05
3.21535e-05
6.38314e-05
4.66817e-05
5.34903e-05
6.54387e-05
3.70535e-05
8.91843e-05
1.384e-05
0.000118767
-1.69092e-05
0.000155125
-5.60342e-05
0.000199288
-0.000104454
0.000252365
-0.000163158
0.000315526
-0.000233185
0.000389968
-0.000315591
0.000476871
-0.000411406
0.00057733
-0.000521566
0.000692277
-0.000646839
0.00082238
-0.000787734
0.000967941
-0.000944398
0.00112879
-0.00111652
0.00130419
-0.00130325
0.0014928
-0.00150315
0.0016927
-0.00171419
0.00190136
-0.00193364
0.00211719
-0.00215875
0.00233453
-0.00238897
-0.00259558
0.00257745
7.52418e-08
1.04505e-05
6.48303e-07
2.78318e-05
2.0955e-06
4.21175e-05
4.82353e-06
5.28714e-05
9.27645e-06
5.96386e-05
1.59426e-05
6.19415e-05
2.53626e-05
5.92673e-05
3.81383e-05
5.10557e-05
5.4942e-05
3.66866e-05
7.65247e-05
1.54708e-05
0.000103723
-1.33583e-05
0.000137462
-5.06487e-05
0.000178756
-9.7328e-05
0.000228696
-0.000154394
0.000288434
-0.000222896
0.000359148
-0.000303899
0.000441999
-0.000398442
0.000538063
-0.00050747
0.00064825
-0.000631752
0.000773206
-0.000771795
0.000913207
-0.000927735
0.00106805
-0.00109924
0.00123697
-0.00128544
0.00141857
-0.00148486
0.00161085
-0.00169542
0.00181127
-0.0019146
0.00201691
-0.00213928
0.0022253
-0.00236713
0.0024317
-0.00259538
-0.0028111
0.00264722
1.25143e-07
1.03254e-05
8.83262e-07
2.70737e-05
2.69182e-06
4.0309e-05
6.00173e-06
4.95615e-05
1.13055e-05
5.43348e-05
1.91449e-05
5.41021e-05
3.01192e-05
4.8293e-05
4.48951e-05
3.62798e-05
6.42143e-05
1.73674e-05
8.89013e-05
-9.21621e-06
0.000119867
-4.43241e-05
0.000158108
-8.88898e-05
0.000204699
-0.000143918
0.000260772
-0.000210467
0.000327488
-0.000289613
0.000405993
-0.000382404
0.000497346
-0.000489796
0.000602445
-0.000612569
0.000721927
-0.000751234
0.000856056
-0.000905924
0.00100462
-0.0010763
0.00116684
-0.00126146
0.00134131
-0.00145991
0.00152599
-0.00166953
0.00171827
-0.0018877
0.00191513
-0.00211147
0.0021134
-0.00233755
0.00230999
-0.00256373
0.00250126
-0.00278665
-0.00300065
0.00269082
1.86284e-07
1.01391e-05
1.16317e-06
2.60968e-05
3.39077e-06
3.80814e-05
7.36625e-06
4.55861e-05
1.36329e-05
4.80681e-05
2.27885e-05
4.49466e-05
3.54936e-05
3.55878e-05
5.24812e-05
1.92923e-05
7.4563e-05
-4.71447e-06
0.000102635
-3.72881e-05
0.000137676
-7.93654e-05
0.000180742
-0.000131956
0.000232949
-0.000196125
0.000295441
-0.000272959
0.000369348
-0.00036352
0.000455723
-0.000468778
0.000555457
-0.00058953
0.000669189
-0.000726301
0.000797191
-0.000879235
0.000939263
-0.001048
0.00109464
-0.00123168
0.00126192
-0.00142875
0.00143907
-0.00163707
0.0016235
-0.00185396
0.00181214
-0.00207635
0.00200175
-0.00230107
0.0021891
-0.00252491
0.00237121
-0.00274583
0.00254516
-0.00296061
-0.00316821
0.00271272
2.59791e-07
9.87929e-06
1.49224e-06
2.48644e-05
4.20136e-06
3.53723e-05
8.9323e-06
4.08551e-05
1.62812e-05
4.07193e-05
2.69035e-05
3.43243e-05
4.15228e-05
2.09684e-05
6.09384e-05
-1.2328e-07
8.60304e-05
-2.98064e-05
0.00011776
-6.9018e-05
0.000157165
-0.00011877
0.000205343
-0.000180134
0.000263423
-0.000254205
0.000332525
-0.000342061
0.000413695
-0.00044469
0.000507831
-0.000562914
0.000615582
-0.000697281
0.000737242
-0.000847961
0.000872643
-0.00101464
0.00102105
-0.00119641
0.00118112
-0.00139174
0.00135084
-0.00159847
0.00152766
-0.00181388
0.00170854
-0.00203484
0.00189024
-0.00225805
0.00206951
-0.00248034
0.00224345
-0.00269884
0.00240951
-0.0029119
0.00256579
-0.00311689
-0.00331571
0.0027133
3.46597e-07
9.53269e-06
1.8739e-06
2.33371e-05
5.13087e-06
3.21153e-05
1.0712e-05
3.5274e-05
1.92675e-05
3.21637e-05
3.15119e-05
2.20798e-05
4.82317e-05
4.24867e-06
7.02909e-05
-2.21825e-05
9.86331e-05
-5.81486e-05
0.000134277
-0.000104662
0.000178301
-0.000162795
0.000231822
-0.000233655
0.00029595
-0.000318333
0.000371732
-0.000417842
0.000460074
-0.000533033
0.00056165
-0.000664489
0.000676788
-0.000812419
0.000805368
-0.000976541
0.000946718
-0.00115599
0.00109955
-0.00134923
0.00126192
-0.00155412
0.00143134
-0.00176789
0.00160483
-0.00198737
0.00177917
-0.00220918
0.00195114
-0.00243002
0.00211782
-0.00264703
0.00227684
-0.00285785
0.00242641
-0.00306147
0.00256561
-0.00325609
-0.00344551
0.00269541
4.47435e-07
9.08526e-06
2.31083e-06
2.14737e-05
6.18476e-06
2.82414e-05
1.27139e-05
2.87449e-05
2.26034e-05
2.22742e-05
3.66267e-05
8.05655e-06
5.56316e-05
-1.47562e-05
8.0543e-05
-4.7094e-05
0.00011236
-8.99657e-05
0.000152145
-0.000144446
0.000200998
-0.000211648
0.000260023
-0.00029268
0.00033027
-0.00038858
0.00041266
-0.000500233
0.000507899
-0.000628271
0.000616362
-0.000772953
0.000737993
-0.000934051
0.000872197
-0.00111074
0.00101777
-0.00130156
0.00117287
-0.00150433
0.00133506
-0.00171631
0.00150145
-0.00193428
0.00166886
-0.00215478
0.00183411
-0.00237443
0.00199429
-0.0025902
0.002147
-0.00279973
0.00229057
-0.00300142
0.00242406
-0.00319496
0.00254747
-0.0033795
-0.00355994
0.0026619
5.62851e-07
8.52241e-06
2.8049e-06
1.92316e-05
7.36665e-06
2.36796e-05
1.49432e-05
2.11683e-05
2.62945e-05
1.0923e-05
4.22514e-05
-7.90039e-06
6.37198e-05
-3.62246e-05
9.16787e-05
-7.50529e-05
0.000127171
-0.000125458
0.000171285
-0.000188559
0.000225115
-0.000265479
0.000289717
-0.000357282
0.000366033
-0.000464895
0.000454803
-0.000589003
0.000556463
-0.000729931
0.000671032
-0.000887522
0.00079801
-0.00106103
0.000936295
-0.00124903
0.00108416
-0.00144942
0.00123926
-0.00165944
0.00139879
-0.00187584
0.00155964
-0.00209512
0.00171864
-0.00231379
0.00187289
-0.00252868
0.00201996
-0.00273727
0.00215814
-0.00293791
0.00228654
-0.00312982
0.00240502
-0.00331343
0.00251432
-0.00348881
-0.00366133
0.00261572
6.93211e-07
7.8292e-06
3.35723e-06
1.65676e-05
8.67829e-06
1.83586e-05
1.74015e-05
1.24451e-05
3.03402e-05
-2.01569e-06
4.838e-05
-2.59402e-05
7.24789e-05
-6.03235e-05
0.00010366
-0.000106234
0.000142996
-0.000164794
0.000191576
-0.000237139
0.000250459
-0.000324362
0.000320608
-0.000427432
0.000402808
-0.000547095
0.000497559
-0.000683754
0.000604967
-0.000837339
0.000724639
-0.00100719
0.000855599
-0.00119199
0.000996239
-0.00138967
0.00114435
-0.00159753
0.00129721
-0.0018123
0.00145178
-0.00203041
0.00160492
-0.00224827
0.00175372
-0.00246259
0.00189571
-0.00267067
0.00202911
-0.00287068
0.00215295
-0.00306175
0.00226707
-0.00324394
0.00237201
-0.00341838
0.00246904
-0.00358584
-0.00375184
0.00255955
8.38723e-07
6.99047e-06
3.96821e-06
1.34381e-05
1.01197e-05
1.22071e-05
2.00869e-05
2.47783e-06
3.4734e-05
-1.66628e-05
5.49965e-05
-4.62026e-05
8.18765e-05
-8.72035e-05
0.000116429
-0.000140787
0.000159734
-0.0002081
0.000212857
-0.000290261
0.000276782
-0.000388287
0.000352337
-0.000502987
0.000440092
-0.000634851
0.000540251
-0.000783913
0.000652541
-0.000949629
0.000776122
-0.00113078
0.000909532
-0.0013254
0.0010507
-0.00153084
0.00119702