/*--------------------------------*- C++ -*----------------------------------*\
  =========                 |
  \\      /  F ield         | OpenFOAM: The Open Source CFD Toolbox
   \\    /   O peration     | Website:  https://openfoam.org
    \\  /    A nd           | Version:  7
     \\/     M anipulation  |
\*---------------------------------------------------------------------------*/
FoamFile
{
    version     2.0;
    format      ascii;
    class       surfaceScalarField;
    location    "30";
    object      phi;
}
// * * * * * * * * * * * * * * * * * * * * * * * * * * * * * * * * * * * * * //

dimensions      [0 3 -1 0 0 0 0];

internalField   nonuniform List<scalar> 
17388
(
-3.44421e-06
3.34682e-06
9.73943e-08
-1.24821e-05
8.69509e-06
3.42768e-07
-2.62312e-05
1.31132e-05
6.35995e-07
-4.39021e-05
1.67067e-05
9.64124e-07
-6.47821e-05
1.95638e-05
1.31616e-06
-8.82284e-05
2.17612e-05
1.68506e-06
-0.000113658
2.33616e-05
2.06805e-06
-0.000140538
2.44132e-05
2.46649e-06
-0.000168374
2.49512e-05
2.88529e-06
-0.000196707
2.50004e-05
3.33191e-06
-0.000225103
2.4581e-05
3.81506e-06
-0.000253164
2.37177e-05
4.34341e-06
-0.00028054
2.24515e-05
4.92451e-06
-0.000306959
2.08557e-05
5.56395e-06
-0.000332278
1.90536e-05
6.26497e-06
-0.000356544
1.72371e-05
7.02857e-06
-0.000380078
1.56801e-05
7.8542e-06
-0.000403558
1.4739e-05
8.74109e-06
-0.00042807
1.48224e-05
9.68958e-06
-0.000455113
1.63406e-05
1.07021e-05
1.97102e-05
1.17881e-05
-0.000486611
-3.40535e-06
6.75217e-06
-1.23457e-05
1.76354e-05
-2.59512e-05
2.67186e-05
-4.34419e-05
3.41975e-05
-6.41133e-05
4.02352e-05
-8.73287e-05
4.49766e-05
-0.00011251
4.85432e-05
-0.000139129
5.1032e-05
-0.000166694
5.25164e-05
-0.000194745
5.30514e-05
-0.000222847
5.26826e-05
-0.000250591
5.1462e-05
-0.00027761
4.94702e-05
-0.000303601
4.68472e-05
-0.000328376
4.3828e-05
-0.00035192
4.07816e-05
-0.000374484
3.82439e-05
-0.000396672
3.69272e-05
-0.00041952
3.76703e-05
-0.000444519
4.13399e-05
4.88455e-05
-0.000473655
-3.3236e-06
1.00758e-05
-1.20586e-05
2.63704e-05
-2.53606e-05
4.00206e-05
-4.24697e-05
5.13067e-05
-6.2697e-05
6.04625e-05
-8.54183e-05
6.76979e-05
-0.000110066
7.31907e-05
-0.000136118
7.70842e-05
-0.000163089
7.94877e-05
-0.00019052
8.04821e-05
-0.000217969
8.01318e-05
-0.000245012
7.8505e-05
-0.000271248
7.57054e-05
-0.000296316
7.19159e-05
-0.000319942
6.74535e-05
-0.000341992
6.2832e-05
-0.000362571
5.88226e-05
-0.000382133
5.64888e-05
-0.000401597
5.7135e-05
-0.000422426
6.21686e-05
7.31321e-05
-0.000446713
-3.20064e-06
1.32764e-05
-1.1626e-05
3.47958e-05
-2.44688e-05
5.28634e-05
-4.09979e-05
6.78357e-05
-6.05464e-05
8.0011e-05
-8.25077e-05
8.96592e-05
-0.000106328
9.70109e-05
-0.000131496
0.000102253
-0.000157535
0.000105526
-0.000183985
0.000106933
-0.000210401
0.000106548
-0.000236337
0.000104441
-0.000261348
0.000100716
-0.000284999
9.55667e-05
-0.000306894
8.93485e-05
-0.000326731
8.26693e-05
-0.000344397
7.64886e-05
-0.000360108
7.21995e-05
-0.000374583
7.16105e-05
-0.000389198
7.67837e-05
9.01106e-05
-0.000406177
-3.03923e-06
1.63156e-05
-1.10565e-05
4.28131e-05
-2.32911e-05
6.50981e-05
-3.9047e-05
8.35915e-05
-5.76842e-05
9.86482e-05
-7.86169e-05
0.000110592
-0.000101308
0.000119702
-0.000125258
0.000126203
-0.00015
0.000130267
-0.000175079
0.000132012
-0.000200042
0.000131511
-0.000224424
0.000128823
-0.000247735
0.000124027
-0.000269455
0.000117287
-0.00028905
0.000108943
-0.00030601
9.96298e-05
-0.000319942
9.04204e-05
-0.00033073
8.29872e-05
-0.000338782
7.9663e-05
-0.000345284
8.32859e-05
9.73787e-05
-0.000352552
-2.84329e-06
1.91589e-05
-1.03625e-05
5.03322e-05
-2.18495e-05
7.65851e-05
-3.66472e-05
9.83892e-05
-5.41448e-05
0.000116146
-7.37783e-05
0.000130226
-9.50268e-05
0.00014095
-0.000117405
0.000148582
-0.000140454
0.000153316
-0.000163723
0.000155281
-0.000186758
0.000154547
-0.000209076
0.000151141
-0.000230146
0.000145096
-0.000249366
0.000136507
-0.000266064
0.000125641
-0.000279505
0.000113072
-0.000288972
9.98871e-05
-0.000293929
8.79444e-05
-0.000294346
8.00791e-05
-0.000291061
8.00013e-05
9.26604e-05
-0.000286343
-2.61793e-06
2.17769e-05
-9.55984e-06
5.72742e-05
-2.01729e-05
8.71982e-05
-3.38392e-05
0.000112055
-4.9976e-05
0.000132283
-6.80395e-05
0.000148289
-8.75227e-05
0.000160433
-0.000107951
0.00016901
-0.000128871
0.000174236
-0.000149837
0.000176248
-0.000170391
0.000175101
-0.000190039
0.000170789
-0.000208215
0.000163272
-0.000224255
0.000152547
-0.000237359
0.000138745
-0.000246582
0.000122294
-0.000250868
0.000104174
-0.000249207
8.62826e-05
-0.000241003
7.1876e-05
-0.000226599
6.55965e-05
7.39255e-05
-0.000207864
-2.36951e-06
2.41464e-05
-8.66863e-06
6.35733e-05
-1.82979e-05
9.68274e-05
-3.06748e-05
0.000124432
-4.52405e-05
0.000146848
-6.14658e-05
0.000164514
-7.8852e-05
0.00017782
-9.69277e-05
0.000187085
-0.00011524
0.000192548
-0.000133342
0.000194349
-0.000150768
0.000192528
-0.000167013
0.000187033
-0.000181487
0.000177746
-0.000193476
0.000164537
-0.000202087
0.000147356
-0.0002062
0.000126407
-0.000204453
0.000102427
-0.00019535
7.71796e-05
-0.000177655
5.41805e-05
-0.0001512
3.9142e-05
3.97211e-05
-0.000116996
-2.10557e-06
2.62519e-05
-7.71246e-06
6.91802e-05
-1.62676e-05
0.000105383
-2.72165e-05
0.000135381
-4.00157e-05
0.000159648
-5.41416e-05
0.00017864
-6.90941e-05
0.000192772
-8.43944e-05
0.000202386
-9.95781e-05
0.000207732
-0.000114182
0.000208953
-0.000127726
0.000206072
-0.000139683
0.000198989
-0.00014944
0.000187504
-0.000156247
0.000171344
-0.000159146
0.000150255
-0.000156889
0.00012415
-0.000147873
9.34105e-05
-0.000130143
5.94499e-05
-0.000101658
2.5696e-05
-6.15567e-05
-9.59707e-07
-7.49767e-06
-1.4338e-05
-1.83462e-06
2.80866e-05
-6.71792e-06
7.40635e-05
-1.41313e-05
0.000112796
-2.35361e-05
0.000144786
-3.43922e-05
0.000170504
-4.6169e-05
0.000190417
-5.83509e-05
0.000204954
-7.04361e-05
0.000214471
-8.19304e-05
0.000219226
-9.2336e-05
0.000219359
-0.000101133
0.000214869
-0.000107756
0.000205612
-0.000111551
0.000191299
-0.000111728
0.000171521
-0.00010728
0.000145807
-9.68744e-05
0.000113744
-7.87228e-05
7.52589e-05
-5.04606e-05
3.11876e-05
-9.15043e-06
-1.56141e-05
4.79683e-05
-5.80784e-05
-7.82787e-05
0.000118749
-1.56573e-06
2.96523e-05
-5.71329e-06
7.8211e-05
-1.19413e-05
0.000119024
-1.97106e-05
0.000152555
-2.84687e-05
0.000179262
-3.76621e-05
0.00019961
-4.67416e-05
0.000214033
-5.51618e-05
0.000222891
-6.2375e-05
0.00022644
-6.78199e-05
0.000224804
-7.09062e-05
0.000217955
-7.0992e-05
0.000205697
-6.73505e-05
0.000187657
-5.91222e-05
0.000163293
-4.5246e-05
0.000131931
-2.43371e-05
9.28352e-05
5.48344e-06
4.54384e-05
4.68102e-05
-1.01391e-05
0.000103093
-7.18973e-05
0.000178184
-0.00013317
-0.000174895
0.000274801
-1.30801e-06
3.09603e-05
-4.72658e-06
8.16296e-05
-9.74911e-06
0.000124047
-1.58162e-05
0.000158623
-2.23439e-05
0.000185789
-2.87361e-05
0.000206003
-3.4389e-05
0.000219686
-3.86889e-05
0.000227191
-4.1005e-05
0.000228756
-4.06775e-05
0.000224476
-3.7003e-05
0.000214281
-2.92163e-05
0.000197911
-1.64615e-05
0.000174902
2.24053e-06
0.000144591
2.80581e-05
0.000106113
6.24188e-05
5.84745e-05
0.000107226
6.31237e-07
0.000165061
-6.79742e-05
0.000239643
-0.00014648
0.000335956
-0.000229482
-0.0002986
0.000459661
-1.06979e-06
3.20301e-05
-3.78295e-06
8.43427e-05
-7.60073e-06
0.000127864
-1.192e-05
0.000162942
-1.61036e-05
0.000189973
-1.94906e-05
0.000209389
-2.1398e-05
0.000221594
-2.11159e-05
0.000226909
-1.78964e-05
0.000225536
-1.09411e-05
0.000217521
6.14604e-07
0.000202725
1.77229e-05
0.000180802
4.14329e-05
0.000151192
7.29234e-05
0.0001131
0.000113527
6.55091e-05
0.000164797
7.20475e-06
0.000228576
-6.31478e-05
0.000307363
-0.000146761
0.000404664
-0.000243781
0.000525637
-0.000350456
-0.000452522
0.000679559
-8.57716e-07
3.28878e-05
-2.90161e-06
8.63866e-05
-5.52983e-06
0.000130493
-8.06947e-06
0.000165481
-9.80541e-06
0.000191709
-9.98742e-06
0.000209571
-7.82566e-06
0.000219432
-2.48277e-06
0.000221566
6.9431e-06
0.00021611
2.14342e-05
0.00020303
4.20707e-05
0.000182088
7.00452e-05
0.000152828
0.000106679
0.000114558
0.000153429
6.63506e-05
0.00021189
7.04776e-06
0.000283802
-6.47069e-05
0.000371069
-0.000150414
0.00047592
-0.000251612
0.00060137
-0.000369231
0.00075168
-0.000500765
-0.000640547
0.000939705
-6.75701e-07
3.35635e-05
-2.0924e-06
8.78033e-05
-3.55111e-06
0.000131951
-4.2806e-06
0.000166211
-3.46069e-06
0.000190889
-2.23659e-07
0.000206334
6.35457e-06
0.000212854
1.72765e-05
0.000210644
3.36375e-05
0.000199749
5.66496e-05
0.000180018
8.76605e-05
0.000151078
0.000128168
0.000112321
0.000179826
6.29003e-05
0.000244437
1.73887e-06
0.000323931
-7.24458e-05
0.000420314
-0.00016109
0.000535603
-0.000265703
0.000671788
-0.000387798
0.000831175
-0.000528617
0.00101629
-0.000685876
-0.000866635
0.00124237
-5.23964e-07
3.40875e-05
-1.35269e-06
8.86321e-05
-1.65371e-06
0.000132252
-5.26027e-07
0.000165083
2.98167e-06
0.000187381
9.8869e-06
0.000199429
2.12867e-05
0.000201454
3.83816e-05
0.000193549
6.25052e-05
0.000175626
9.51474e-05
0.000147376
0.000137974
0.00010825
0.000192839
5.74563e-05
0.000261774
-6.03467e-06
0.000346966
-8.34529e-05
0.000450693
-0.000176174
0.000575234
-0.00028563
0.000722711
-0.00041318
0.000894884
-0.000559971
0.00109318
-0.000726918
0.00131821
-0.000910902
-0.00113341
0.00158498
-3.98122e-07
3.44856e-05
-6.65158e-07
8.88991e-05
2.069e-07
0.00013138
3.26957e-06
0.000162021
9.65012e-06
0.000181001
2.05458e-05
0.000188534
3.72616e-05
0.000184738
6.12423e-05
0.000169568
9.41046e-05
0.000142763
0.000137663
0.000103817
0.000193947
5.19667e-05
0.000265196
-1.37928e-05
0.000353836
-9.4675e-05
0.000462416
-0.000192033
0.0005935
-0.000307258
0.000749511
-0.000441641
0.000932515
-0.000596184
0.00114392
-0.000771378
0.00138397
-0.000966965
0.00165206
-0.001179
-0.00144
0.00195865
-2.88649e-07
3.47743e-05
1.46349e-08
8.85958e-05
2.09904e-06
0.000129296
7.24089e-06
0.000156879
1.67576e-05
0.000171484
3.20676e-05
0.000173224
5.47272e-05
0.000162079
8.64703e-05
0.000137825
0.000129243
9.99909e-05
0.000185226
4.78342e-05
0.000256836
-1.9644e-05
0.000346705
-0.000103661
0.000457607
-0.000205578
0.000592354
-0.000326779
0.000753613
-0.000468516
0.000943675
-0.000631704
0.00116417
-0.000816677
0.0014158
-0.00102301
0.00169711
-0.00124827
0.00200772
-0.00148961
-0.00177982
0.00234754
-1.8417e-07
3.49584e-05
7.08172e-07
8.77035e-05
4.13409e-06
0.00012587
1.15763e-05
0.000149437
2.45978e-05
0.000158463
4.48808e-05
0.000152941
7.4278e-05
0.000132681
0.000114857
9.72459e-05
0.000168934
4.59143e-05
0.000239078
-2.23094e-05
0.00032809
-0.000108656
0.000438935
-0.000214506
0.000574616
-0.000341259
0.000737991
-0.000490153
0.00093151
-0.000662036
0.0011569
-0.000857098
0.00141482
-0.00107459
0.00170463
-0.00131282
0.0020227
-0.00156634
0.00236981
-0.00183673
-0.00213944
0.00272944
-6.54461e-08
3.50239e-05
1.50921e-06
8.61288e-05
6.45002e-06
0.000120929
1.65107e-05
0.000139376
3.35324e-05
0.000141441
5.95039e-05
0.000126969
9.66179e-05
9.55674e-05
0.000147315
4.65489e-05
0.0002143
-2.10705e-05
0.000300521
-0.000108531
0.0004091
-0.000217235
0.000543196
-0.000348602
0.000705801
-0.000503864
0.000899463
-0.000683815
0.00112595
-0.000888524
0.00138589
-0.00111704
0.00167842
-0.00136712
0.00200089
-0.00163529
0.00234783
-0.00191329
0.00271854
-0.00220743
-0.00249822
0.00307732
9.32745e-08
3.49306e-05
2.48119e-06
8.37409e-05
9.20197e-06
0.000114208
2.23102e-05
0.000126268
4.39661e-05
0.000119785
7.65055e-05
9.44297e-05
0.000122498
4.95751e-05
0.000184775
-1.57286e-05
0.00026642
-0.000102715
0.000370691
-0.000212802
0.000500881
-0.000347425
0.00066009
-0.000507811
0.000850921
-0.000694695
0.00107511
-0.000908006
0.00133316
-0.00114657
0.00162398
-0.00140786
0.00194476
-0.00168791
0.00229072
-0.00198124
0.00265651
-0.00227908
0.00303362
-0.00258455
-0.0028226
0.003358
3.07762e-07
3.46228e-05
3.70255e-06
8.03461e-05
1.25541e-05
0.000105357
2.92521e-05
0.00010957
5.63122e-05
9.27248e-05
9.6451e-05
5.4291e-05
0.000152632
-6.60634e-06
0.000228068
-9.11642e-05
0.000326149
-0.000200796
0.000450297
-0.00033695
0.000603721
-0.000500848
0.000789075
-0.000693166
0.00100806
-0.000913684
0.00126102
-0.00116096
0.00154653
-0.00143208
0.00186128
-0.00172261
0.00220013
-0.00202675
0.00255619
-0.0023373
0.00292472
-0.00264761
0.00329288
-0.00295271
-0.00322612
0.00369641
6.04029e-07
3.40188e-05
5.25142e-06
7.56987e-05
1.66666e-05
9.39415e-05
3.76014e-05
8.86348e-05
7.09552e-05
5.9371e-05
0.000119842
5.40452e-06
0.000187609
-7.43733e-05
0.000277784
-0.000181339
0.000393927
-0.00031694
0.000539375
-0.000482398
0.000716874
-0.000678347
0.00092814
-0.000904432
0.00117339
-0.00115893
0.00145095
-0.00143852
0.00175705
-0.00173818
0.00208589
-0.00205145
0.00243011
-0.00237097
0.0027816
-0.00268879
0.00313306
-0.00299907
0.0034751
-0.00329476
-0.00357325
0.00382223
1.00194e-06
3.30169e-05
7.19814e-06
6.95025e-05
2.16822e-05
7.94575e-05
4.7588e-05
6.2729e-05
8.82117e-05
1.87473e-05
0.000147055
-5.34392e-05
0.000227796
-0.000155114
0.000334149
-0.000287693
0.000469613
-0.000452404
0.000637083
-0.000649868
0.000838369
-0.000879633
0.00107368
-0.00113975
0.0013412
-0.00142645
0.00163682
-0.00173414
0.00195427
-0.00205564
0.00228557
-0.00238275
0.00262184
-0.00270724
0.00295446
-0.00302141
0.00327579
-0.00332041
0.00357994
-0.0035989
-0.00386081
0.00386749
1.51858e-06
3.14983e-05
9.60096e-06
6.14202e-05
2.77159e-05
6.13426e-05
5.93863e-05
3.10586e-05
0.000108297
-3.01637e-05
0.000178294
-0.000123436
0.00027327
-0.00025009
0.000396925
-0.000411347
0.000552367
-0.000607846
0.000741601
-0.000839102
0.000964967
-0.001103
0.00122064
-0.00139542
0.00150437
-0.00171018
0.00180957
-0.00203933
0.00212779
-0.00237386
0.00244971
-0.00270467
0.00276615
-0.00302368
0.00306932
-0.00332458
0.00335342
-0.0036045
0.00361502
-0.0038605
-0.00410088
0.0038551
2.16708e-06
2.93312e-05
1.25029e-05
5.10843e-05
3.48467e-05
3.89988e-05
7.31006e-05
-7.19531e-06
0.000131301
-8.83642e-05
0.000213543
-0.000205678
0.000323762
-0.000360309
0.000465346
-0.000552931
0.000640601
-0.000783101
0.00085014
-0.00104864
0.00109232
-0.00134518
0.00136292
-0.00166602
0.00165518
-0.00200244
0.00196039
-0.00234454
0.00226882
-0.0026823
0.00257099
-0.00300684
0.00285883
-0.00331152
0.00312668
-0.00359242
0.00337143
-0.00384926
0.00359301
-0.00408208
-0.00430087
0.003793
2.95635e-06
2.63749e-05
1.59304e-05
3.81102e-05
4.31139e-05
1.18153e-05
8.87554e-05
-5.28368e-05
0.000157168
-0.000156777
0.000252551
-0.000301061
0.000378625
-0.000486383
0.000538099
-0.000712404
0.000732007
-0.000977009
0.000959079
-0.00127571
0.00121532
-0.00160142
0.001494
-0.0019447
0.00178624
-0.00229469
0.00208201
-0.00264031
0.00237148
-0.00297176
0.00264632
-0.00328168
0.00290071
-0.00356591
0.0031318
-0.00382351
0.00333944
-0.0040569
0.0035261
-0.00426874
-0.00446953
0.00369475
3.89135e-06
2.24835e-05
1.98929e-05
2.21086e-05
5.25146e-05
-2.08064e-05
0.000106291
-0.000106613
0.000185693
-0.000236179
0.000294811
-0.000410179
0.000436834
-0.000628405
0.000613357
-0.000888927
0.000823673
-0.00118733
0.00106424
-0.00151628
0.00132858
-0.00186575
0.00160777
-0.00222389
0.00189153
-0.00257845
0.00216966
-0.00291844
0.00243345
-0.00323555
0.00267678
-0.00352501
0.00289664
-0.00378577
0.00309301
-0.00401989
0.00326816
-0.00423205
0.00342615
-0.00442673
-0.00461405
0.00357067
4.97348e-06
1.751e-05
2.43837e-05
2.69846e-06
6.30037e-05
-5.94264e-05
0.000125559
-0.000169169
0.000216512
-0.000327131
0.000339572
-0.000533239
0.000497008
-0.000785842
0.00068886
-0.00108078
0.000912276
-0.00141074
0.00116126
-0.00176526
0.00142705
-0.00213155
0.0016992
-0.00249605
0.00196709
-0.00284634
0.00222149
-0.00317284
0.00245581
-0.00346986
0.00266668
-0.00373588
0.00285385
-0.00397294
0.00301961
-0.00418566
0.00316778
-0.00438021
0.00330307
-0.00456203
-0.00474021
0.00342923
6.20091e-06
1.13091e-05
2.93797e-05
-2.04804e-05
7.44937e-05
-0.00010454
0.000146327
-0.000241002
0.00024911
-0.000429914
0.000385843
-0.000669972
0.000557464
-0.000957463
0.000762047
-0.00128536
0.000994348
-0.00164304
0.00124602
-0.00201693
0.00150657
-0.0023921
0.00176497
-0.00275445
0.00201136
-0.00309273
0.00223845
-0.00339993
0.00244229
-0.0036737
0.00262223
-0.00391582
0.00278031
-0.00413102
0.00292034
-0.00432569
0.0030468
-0.00450667
0.00316433
-0.00467957
-0.00485213
0.00327626
7.56856e-06
3.74056e-06
3.48419e-05
-4.77538e-05
8.68535e-05
-0.000156552
0.000168272
-0.000322421
0.000282823
-0.000544465
0.000432432
-0.000819581
0.000616301
-0.00114133
0.000830234
-0.0014993
0.00106659
-0.00187939
0.00131506
-0.00226541
0.00156428
-0.00264132
0.00180366
-0.00299383
0.00202503
-0.00331409
0.00222361
-0.00359851
0.00239813
-0.00384822
0.00255023
-0.00406792
0.00268352
-0.00426431
0.00280252
-0.00444468
0.00291171
-0.00461586
0.00301522
-0.00478308
-0.00495259
0.00311567
9.0677e-06
-5.32715e-06
4.07136e-05
-7.93997e-05
9.99077e-05
-0.000215746
0.000190987
-0.0004135
0.000316859
-0.000670337
0.000477991
-0.000980714
0.000671512
-0.00133485
0.000890832
-0.00171861
0.00112616
-0.00211472
0.00136594
-0.00250519
0.00159884
-0.00287423
0.00181567
-0.00321065
0.00201056
-0.00350898
0.00218135
-0.0037693
0.00232911
-0.00399598
0.00245713
-0.00419594
0.00256984
-0.00437702
0.00267184
-0.00454668
0.00276718
-0.0047112
0.00285924
-0.00487514
-0.00504331
0.00294996
1.06855e-05
-1.60126e-05
4.69194e-05
-0.000115634
0.000113436
-0.000282262
0.000213984
-0.000514048
0.000350315
-0.000806668
0.000521086
-0.00115149
0.000721129
-0.0015349
0.000941558
-0.00193904
0.00117095
-0.00234411
0.00139734
-0.00273158
0.00161036
-0.00308725
0.00180286
-0.00340314
0.00197151
-0.00367763
0.00211653
-0.00391433
0.00224077
-0.00412021
0.00234847
-0.00430365
0.00244428
-0.00447283
0.00253244
-0.00463484
0.00261636
-0.00479512
0.00269868
-0.00495746
-0.0051253
0.00278067
1.24042e-05
-2.84168e-05
5.33645e-05
-0.000156594
0.000127174
-0.000356072
0.000236709
-0.000623583
0.000382225
-0.000952184
0.000560283
-0.00132954
0.000763367
-0.00173798
0.000980626
-0.0021563
0.00119971
-0.0025632
0.00140911
-0.00294098
0.00160015
-0.0032783
0.00176806
-0.00357105
0.00191193
-0.0038215
0.0020339
-0.0040363
0.00213794
-0.00422426
0.00222869
-0.0043944
0.00231056
-0.0045547
0.00238721
-0.00471148
0.00246136
-0.00486928
0.00253496
-0.00503106
-0.0051991
0.00260876
1.42007e-05
-4.26175e-05
5.99344e-05
-0.000202328
0.00014082
-0.000436958
0.000258561
-0.000741323
0.000411604
-0.00110523
0.000594245
-0.00151218
0.000796761
-0.0019405
0.00100687
-0.00236641
0.00121207
-0.00276841
0.00140209
-0.003131
0.00157039
-0.00344659
0.00171459
-0.00371525
0.00183586
-0.00394276
0.00193767
-0.00413812
0.0020246
-0.00431118
0.00210119
-0.00447098
0.00217135
-0.00462487
0.00223811
-0.00477824
0.00230353
-0.0049347
0.00236899
-0.00509652
-0.00526496
0.00243486
1.60462e-05
-5.86637e-05
6.64968e-05
-0.000252778
0.000154044
-0.000524506
0.000278917
-0.000866196
0.000437511
-0.00126382
0.000621824
-0.0016965
0.000820262
-0.00213893
0.00101977
-0.00256591
0.00120847
-0.00295712
0.00137787
-0.00330039
0.00152372
-0.00359245
0.00164584
-0.00383737
0.00174697
-0.00404389
0.00183142
-0.00422257
0.00190385
-0.00438361
0.00196845
-0.00453558
0.00202853
-0.00468495
0.00208645
-0.00483617
0.00214377
-0.00499202
0.00220139
-0.00515414
-0.00532299
0.00225941
1.79072e-05
-7.65709e-05
7.29055e-05
-0.000307777
0.000166498
-0.000618098
0.000297168
-0.000996866
0.000459103
-0.00142576
0.000642136
-0.00187953
0.000833291
-0.00233009
0.00101944
-0.00275206
0.00118997
-0.00312765
0.00133847
-0.00344888
0.00146293
-0.00371691
0.00156499
-0.00393942
0.00164845
-0.00412736
0.00171799
-0.00429211
0.00177804
-0.00444366
0.00183226
-0.00458981
0.00188335
-0.00473604
0.00193312
-0.00488593
0.00198266
-0.00504156
0.00203257
-0.00520404
-0.00537317
0.00208276
1.97454e-05
-9.63163e-05
7.90052e-05
-0.000367036
0.000177836
-0.00071693
0.000312751
-0.00113178
0.00047569
-0.00158869
0.000654611
-0.00205845
0.000835734
-0.00251121
0.00100652
-0.00292285
0.00115807
-0.0032792
0.00128615
-0.00357695
0.00139075
-0.00382151
0.00147485
-0.00402353
0.00154293
-0.00419543
0.0015996
-0.00434878
0.0016489
-0.00449296
0.00169389
-0.0046348
0.00173672
-0.00477886
0.00177871
-0.00492792
0.00182065
-0.0050835
0.00186287
-0.00524626
-0.0054155
0.0019052
2.15198e-05
-0.000117836
8.46379e-05
-0.000430155
0.000187728
-0.00082002
0.000325181
-0.00126923
0.000486775
-0.00175029
0.000659
-0.00223068
0.000827891
-0.0026801
0.000982043
-0.003077
0.00111452
-0.00341168
0.00122317
-0.0036856
0.00130963
-0.00390798
0.00137784
-0.00409174
0.00143248
-0.00425007
0.00147793
-0.00439422
0.00151767
-0.00453271
0.00155423
-0.00467136
0.00158923
-0.00481386
0.00162366
-0.00496235
0.00165805
-0.00511789
0.00169257
-0.00528078
-0.00544993
0.00172699
2.31877e-05
-0.000141024
8.96504e-05
-0.000496617
0.00019588
-0.000926249
0.000334075
-0.00140743
0.000492067
-0.00190828
0.000655366
-0.00239398
0.000810395
-0.00283513
0.000947286
-0.00321389
0.00106114
-0.00352554
0.00115166
-0.00377612
0.00122176
-0.00397808
0.00127592
-0.0041459
0.00131875
-0.00429291
0.00135422
-0.00442969
0.00138528
-0.00456376
0.0014139
-0.00469998
0.00144134
-0.00484129
0.00146829
-0.00498931
0.00149514
-0.00514474
0.00152192
-0.00530756
-0.00547642
0.00154841
2.47069e-05
-0.000165731
9.39011e-05
-0.000565811
0.000202044
-0.00103439
0.000339176
-0.00154456
0.000491487
-0.00206059
0.000644036
-0.00254653
0.000784125
-0.00297522
0.000903661
-0.00333342
0.000999708
-0.00362158
0.00107354
-0.00384995
0.00112896
-0.0040335
0.00117065
-0.00418759
0.00120299
-0.00432524
0.00122942
-0.00445613
0.00125237
-0.00458671
0.00127338
-0.004721
0.00129339
-0.0048613
0.0013129
-0.00500882
0.00133216
-0.005164
0.00135116
-0.00532656
-0.00549495
0.00136969
2.60371e-05
-0.000191768
9.72663e-05
-0.000637041
0.000206036
-0.00114316
0.00034035
-0.00167887
0.00048515
-0.00220539
0.000625546
-0.00268692
0.000750105
-0.00309978
0.000852602
-0.00343592
0.000931889
-0.00370087
0.000990479
-0.00390854
0.00103273
-0.00407575
0.00106329
-0.00421815
0.00108613
-0.00434808
0.0011042
-0.0044742
0.00111944
-0.00460195
0.00113303
-0.00473459
0.00114566
-0.00487393
0.00115771
-0.00502087
0.00116934
-0.00517563
0.0011805
-0.00533773
-0.00550549
0.00119105
2.71417e-05
-0.000218909
9.96458e-05
-0.000709545
0.000207734
-0.00125125
0.000337589
-0.00180873
0.000473333
-0.00234113
0.000600585
-0.00281417
0.00070943
-0.00320862
0.00079549
-0.00352198
0.000859167
-0.00376455
0.000903893
-0.00395327
0.000934288
-0.00410615
0.000954784
-0.00423864
0.000968904
-0.0043622
0.00097909
-0.00448438
0.000986872
-0.00460973
0.000993143
-0.00474086
0.000998409
-0.00487919
0.00100295
-0.00502541
0.00100688
-0.00517956
0.00101016
-0.00534101
-0.00550801
0.00101268
2.7989e-05
-0.000246899
0.000100966
-0.000782521
0.000207087
-0.00135737
0.000330998
-0.00193264
0.000456442
-0.00246658
0.000569926
-0.00292766
0.000663195
-0.00330189
0.000733607
-0.00359239
0.000782842
-0.00381378
0.000814957
-0.00398538
0.000834609
-0.0041258
0.000845895
-0.00424993
0.00085186
-0.00436817
0.000854492
-0.00448702
0.000854974
-0.00461022
0.000853969
-0.00473985
0.000851853
-0.00487708
0.000848836
-0.00502239
0.000845008
-0.00517573
0.000840328
-0.00533633
-0.00550246
0.000834779
2.85539e-05
-0.000275452
0.000101182
-0.000855149
0.000204108
-0.0014603
0.000320778
-0.00204931
0.000434975
-0.00258078
0.000534383
-0.00302707
0.000612453
-0.00337996
0.000668102
-0.00364804
0.00070402
-0.0038497
0.000724631
-0.00400599
0.00073446
-0.00413563
0.000737199
-0.00425267
0.000735427
-0.0043664
0.000730732
-0.00448232
0.000724009
-0.00460349
0.000715744
-0.00473159
0.000706212
-0.00486755
0.000695576
-0.00501175
0.000683914
-0.00516407
0.0006712
-0.00532361
-0.00548872
0.000657455
2.8818e-05
-0.00030427
0.000100277
-0.000926608
0.000198869
-0.00155889
0.000307203
-0.00215764
0.000409482
-0.00268306
0.000494769
-0.00311235
0.000558179
-0.00344337
0.000599985
-0.00368985
0.000623629
-0.00387334
0.000633692
-0.00401606
0.000634446
-0.00413638
0.00062915
-0.00424737
0.000619948
-0.00435719
0.000608084
-0.00447046
0.00059422
-0.00458963
0.0005787
-0.00471607
0.000561717
-0.00485056
0.000543391
-0.00499343
0.000523804
-0.00514448
0.000502969
-0.00530278
-0.00546658
0.000480834
2.877e-05
-0.00033304
9.82633e-05
-0.000996101
0.000191491
-0.00165212
0.0002906
-0.00225675
0.000380538
-0.00277299
0.00045186
-0.00318368
0.000501253
-0.00349277
0.000530125
-0.00371872
0.000542438
-0.00388566
0.000542765
-0.00401638
0.000535046
-0.00412866
0.000522108
-0.00423443
0.000505702
-0.00434079
0.000486786
-0.00445154
0.000465836
-0.00456868
0.000443082
-0.00469331
0.000418643
-0.00482612
0.000392586
-0.00496737
0.000364953
-0.00511685
0.000335793
-0.00527362
-0.00543599
0.000305197
2.84061e-05
-0.000361447
9.51764e-05
-0.00106287
0.000182134
-0.00173907
0.000271332
-0.00234595
0.000348714
-0.00285038
0.000406382
-0.00324134
0.000442454
-0.00352884
0.000459257
-0.00373552
0.000461076
-0.00388748
0.000452347
-0.00400765
0.000436637
-0.00411295
0.00041636
-0.00421416
0.000392924
-0.00431735
0.00036705
-0.00442567
0.000339067
-0.0045407
0.000309121
-0.00466337
0.000277278
-0.00479428
0.000243581
-0.00493367
0.00020796
-0.00508123
0.000169935
-0.00523559
-0.00539668
0.000130627
2.77293e-05
-0.000389176
9.10733e-05
-0.00112622
0.000170988
-0.00181899
0.000249771
-0.00242473
0.000314562
-0.00291517
0.000358994
-0.00328578
0.000382458
-0.0035523
0.000387997
-0.00374106
0.000380053
-0.00387953
0.000362834
-0.00399043
0.000339522
-0.00408964
0.000312144
-0.00418678
0.000281816
-0.00428702
0.000249063
-0.00439291
0.000214099
-0.00450573
0.000177004
-0.00462627
0.000137846
-0.00475512
9.66193e-05
-0.00489245
5.36197e-05
-0.00503823
8.95484e-06
-0.00519093
-0.00534514
-4.25831e-05
2.67485e-05
-0.000415924
8.60277e-05
-0.00118549
0.000158261
-0.00189122
0.000226294
-0.00249277
0.000278598
-0.00296747
0.000310282
-0.00331746
0.000321843
-0.00356386
0.000316855
-0.00373607
0.000299781
-0.00386246
0.000274545
-0.0039652
0.000243942
-0.00405904
0.000209656
-0.0041525
0.000172553
-0.00424992
0.000133003
-0.00435336
9.11168e-05
-0.00446384
4.6897e-05
-0.00458205
3.1696e-07
-0.00470854
-4.82922e-05
-0.00484384
-9.91182e-05
-0.00498741
-0.00015272
-0.00513733
-0.00529067
-0.000207191
2.54784e-05
-0.000441403
8.01258e-05
-0.00124014
0.000144168
-0.00195526
0.000201263
-0.00254986
0.000241295
-0.0030075
0.000260763
-0.00333693
0.0002611
-0.0035642
0.000246248
-0.00372122
0.000220591
-0.0038368
0.000187732
-0.00393234
0.000150096
-0.0040214
0.000109067
-0.00411147
6.52895e-05
-0.00420614
1.90148e-05
-0.00430709
-2.9703e-05
-0.00441513
-8.09021e-05
-0.00453086
-0.000134562
-0.00465488
-0.000190746
-0.00478765
-0.000249345
-0.00492881
-0.000310237
-0.00507643
-0.00522843
-0.000372484
2.39377e-05
-0.00046534
7.34625e-05
-0.00128967
0.000128927
-0.00201073
0.000175021
-0.00259596
0.000203078
-0.00303556
0.000210881
-0.00334473
0.000200636
-0.00355396
0.000176518
-0.0036971
0.00014275
-0.00380303
0.0001026
-0.00389219
5.81431e-05
-0.00397694
1.04923e-05
-0.00406382
-3.98308e-05
-0.00415582
-9.27125e-05
-0.00425421
-0.000148183
-0.00435966
-0.000206308
-0.00447273
-0.000267142
-0.00459405
-0.000330683
-0.00472411
-0.00039679
-0.0048627
-0.000465166
-0.00500806
-0.00515802
-0.000535568
2.21491e-05
-0.000487489
6.61374e-05
-0.00133366
0.000112751
-0.00205734
0.000147885
-0.00263109
0.000164326
-0.003052
0.000161018
-0.00334142
0.000140793
-0.00353373
0.00010794
-0.00366425
6.6471e-05
-0.00376156
1.93038e-05
-0.00384502
-3.17703e-05
-0.00392587
-8.58659e-05
-0.00400972
-0.000142658
-0.00409903
-0.000202073
-0.00419479
-0.000264189
-0.00429754
-0.000329136
-0.00440778
-0.00039702
-0.00452617
-0.000467841
-0.00465329
-0.000541435
-0.0047891
-0.000617496
-0.004932
-0.00507965
-0.000695873
2.01376e-05
-0.000507627
5.82519e-05
-0.00137177
9.58419e-05
-0.00209493
0.000120147
-0.00265539
0.000125371
-0.00305722
0.000111496
-0.00332755
8.18479e-05
-0.00350408
4.07345e-05
-0.00362314
-8.08998e-06
-0.00371274
-6.1994e-05
-0.00379112
-0.000119518
-0.00386835
-0.000179965
-0.00394927
-0.0002431
-0.00403589
-0.000308928
-0.00412897
-0.00037757
-0.0042289
-0.000449205
-0.00433615
-0.000523995
-0.00445137
-0.000601985
-0.0045753
-0.000683012
-0.00470808
-0.000766739
-0.00484827
-0.00499343
-0.000852951
1.79314e-05
-0.000525559
4.99072e-05
-0.00140375
7.83932e-05
-0.00212342
9.20669e-05
-0.00266907
8.64974e-05
-0.00305166
6.25847e-05
-0.00330364
2.40342e-05
-0.00346553
-2.49109e-05
-0.00357419
-8.07494e-05
-0.0036569
-0.000141202
-0.00373066
-0.000205022
-0.00380453
-0.000271683
-0.00388261
-0.000341042
-0.00396653
-0.000413154
-0.00405685
-0.000488181
-0.00415387
-0.000566346
-0.00425798
-0.000647878
-0.00436984
-0.000732895
-0.00449029
-0.00082127
-0.0046197
-0.0009126
-0.00475694
-0.00489952
-0.00100651
1.55614e-05
-0.00054112
4.12024e-05
-0.00142939
6.0585e-05
-0.0021428
6.38793e-05
-0.00267236
4.79494e-05
-0.00303573
1.45449e-05
-0.00327023
-3.24621e-05
-0.00341853
-8.88611e-05
-0.00351779
-0.000151449
-0.00359431
-0.000218231
-0.00366388
-0.00028819
-0.00373457
-0.00036093
-0.00380987
-0.000436383
-0.00389108
-0.00051464
-0.00397859
-0.000595893
-0.00407262
-0.000680405
-0.00417347
-0.000768475
-0.00428177
-0.000860323
-0.00439844
-0.000955897
-0.00452413
-0.00105473
-0.00465811
-0.00479807
-0.00115618
1.30648e-05
-0.000554185
3.22376e-05
-0.00144856
4.25848e-05
-0.00215315
3.57903e-05
-0.00266557
1.00561e-05
-0.00300999
-3.25024e-05
-0.00322767
-8.75105e-05
-0.00336352
-0.00015101
-0.00345429
-0.000220085
-0.00352524
-0.000293006
-0.00359096
-0.000368949
-0.00365862
-0.000447629
-0.00373119
-0.000529036
-0.00380967
-0.000613289
-0.00389434
-0.000700595
-0.00398531
-0.000791246
-0.00408282
-0.000885611
-0.00418741
-0.000984031
-0.00430002
-0.00108658
-0.00442158
-0.00119274
-0.00455195
-0.00468922
-0.0013016
1.04774e-05
-0.000564662
2.31078e-05
-0.00146119
2.45454e-05
-0.00215459
8.15446e-06
-0.00264918
-2.73036e-05
-0.00297453
-7.84058e-05
-0.00317657
-0.000140993
-0.00330093
-0.00021127
-0.00338402
-0.000286589
-0.00344992
-0.000365463
-0.00351209
-0.000447235
-0.00357685
-0.000531712
-0.00364671
-0.000618928
-0.00372246
-0.000709018
-0.00380425