/*--------------------------------*- C++ -*----------------------------------*\
  =========                 |
  \\      /  F ield         | OpenFOAM: The Open Source CFD Toolbox
   \\    /   O peration     | Website:  https://openfoam.org
    \\  /    A nd           | Version:  7
     \\/     M anipulation  |
\*---------------------------------------------------------------------------*/
FoamFile
{
    version     2.0;
    format      ascii;
    class       volScalarField;
    location    "5";
    object      p;
}
// * * * * * * * * * * * * * * * * * * * * * * * * * * * * * * * * * * * * * //

dimensions      [0 2 -2 0 0 0 0];

internalField   nonuniform List<scalar> 
36
(
-0.244481
-0.248503
-0.255709
-0.227724
-0.234253
-0.239778
-0.199528
-0.175649
-0.153224
-0.133109
-0.115783
-0.10135
-0.0896055
-0.0802869
-0.073156
-0.0679974
-0.0646497
-0.0629964
-0.199528
-0.175649
-0.153224
-0.133109
-0.115783
-0.10135
-0.0896055
-0.0802869
-0.073156
-0.0679974
-0.0646497
-0.0629964
-0.239778
-0.234253
-0.227724
-0.255709
-0.248503
-0.244481
)
;

boundaryField
{
    inlet
    {
        type            zeroGradient;
    }
    outlet
    {
        type            fixedValue;
        value           nonuniform 0();
    }
    cylinder
    {
        type            zeroGradient;
    }
    top
    {
        type            symmetryPlane;
    }
    bottom
    {
        type            symmetryPlane;
    }
    defaultFaces
    {
        type            empty;
    }
    procBoundary39to37
    {
        type            processor;
        value           nonuniform List<scalar> 4(-0.261996 -0.261996 -0.281927 -0.281927);
    }
    procBoundary39to38
    {
        type            processor;
        value           nonuniform List<scalar> 
36
(
-0.262599
-0.262373
-0.262373
-0.262599
-0.264598
-0.273254
-0.27958
-0.240224
-0.227674
-0.19852
-0.170117
-0.144641
-0.122896
-0.105148
-0.0910447
-0.0800812
-0.0718351
-0.0659462
-0.0621558
-0.0602858
-0.227674
-0.19852
-0.170117
-0.144641
-0.122896
-0.105148
-0.0910447
-0.0800812
-0.0718351
-0.0659462
-0.0621558
-0.0602858
-0.240224
-0.27958
-0.273254
-0.264598
)
;
    }
    procBoundary39to40
    {
        type            processor;
        value           nonuniform List<scalar> 
36
(
-0.2059
-0.208707
-0.213834
-0.220504
-0.192508
-0.198251
-0.203514
-0.205863
-0.170715
-0.151849
-0.134616
-0.11915
-0.10571
-0.0943825
-0.0850386
-0.077521
-0.0716913
-0.0674286
-0.0646406
-0.0632622
-0.170715
-0.205863
-0.151849
-0.134616
-0.11915
-0.10571
-0.0943825
-0.0850386
-0.077521
-0.203514
-0.198251
-0.192508
-0.220504
-0.213834
-0.208707
-0.2059
)
;
    }
    procBoundary39to41
    {
        type            processor;
        value           nonuniform List<scalar> 4(-0.0716913 -0.0674286 -0.0646406 -0.0632622);
    }
}


// ************************************************************************* //
