/*--------------------------------*- C++ -*----------------------------------*\
  =========                 |
  \\      /  F ield         | OpenFOAM: The Open Source CFD Toolbox
   \\    /   O peration     | Website:  https://openfoam.org
    \\  /    A nd           | Version:  7
     \\/     M anipulation  |
\*---------------------------------------------------------------------------*/
FoamFile
{
    version     2.0;
    format      ascii;
    class       surfaceScalarField;
    location    "5";
    object      phi;
}
// * * * * * * * * * * * * * * * * * * * * * * * * * * * * * * * * * * * * * //

dimensions      [0 3 -1 0 0 0 0];

internalField   nonuniform List<scalar> 
1670
(
0.00237337
7.27734e-07
6.97553e-10
0.00237263
7.38493e-07
6.85178e-10
0.00237188
7.48886e-07
6.73158e-10
0.00237112
7.58928e-07
6.61079e-10
7.68631e-07
6.4926e-10
0.00237318
1.44886e-06
0.00237245
1.47036e-06
0.00237171
1.49113e-06
0.00237096
1.5112e-06
1.53059e-06
0.00237282
2.15538e-06
0.0023721
2.18761e-06
0.00237138
2.21874e-06
0.00237064
2.24883e-06
2.27789e-06
0.00237228
2.83999e-06
0.00237158
2.88294e-06
0.00237088
2.92443e-06
0.00237016
2.96451e-06
3.00324e-06
0.00237155
3.49544e-06
0.00237088
3.54906e-06
0.00237021
3.60089e-06
0.00236952
3.65095e-06
3.69934e-06
0.00237065
4.11443e-06
0.00237002
4.17873e-06
0.00236938
4.24087e-06
0.00236873
4.30089e-06
4.35888e-06
0.00236956
4.68975e-06
0.00236897
4.76469e-06
0.00236838
4.8371e-06
0.00236777
4.90705e-06
4.97465e-06
0.0023683
5.21418e-06
0.00236776
5.29972e-06
0.00236722
5.38237e-06
0.00236666
5.46223e-06
5.53938e-06
0.00236685
5.68054e-06
0.00236638
5.77665e-06
0.00236589
5.8695e-06
0.00236539
5.95923e-06
6.0459e-06
0.00236523
6.08169e-06
0.00236482
6.18833e-06
0.0023644
6.29134e-06
0.00236397
6.39088e-06
6.48704e-06
0.00236344
6.41052e-06
0.0023631
6.52763e-06
0.00236275
6.64078e-06
0.00236239
6.75008e-06
6.8557e-06
0.00236146
6.66e-06
0.0023612
6.78753e-06
0.00236093
6.91073e-06
0.00236065
7.02977e-06
7.14478e-06
0.00235932
6.82312e-06
0.00235914
6.961e-06
0.00235896
7.09422e-06
0.00235877
7.22293e-06
7.34728e-06
0.002357
6.89289e-06
0.00235692
7.0411e-06
0.00235683
7.18426e-06
0.00235673
7.32259e-06
7.45624e-06
0.00235451
6.86246e-06
0.00235453
7.02092e-06
0.00235454
7.17398e-06
0.00235454
7.32186e-06
7.46474e-06
0.00235185
6.72501e-06
0.00235198
6.89363e-06
0.00235209
7.05653e-06
0.0023522
7.21392e-06
7.36596e-06
0.00234902
6.47376e-06
0.00234926
6.65249e-06
0.00234949
6.82514e-06
0.00234971
6.99196e-06
7.15311e-06
0.00234603
6.10204e-06
0.00234639
6.29079e-06
0.00234674
6.47314e-06
0.00234708
6.64932e-06
6.81953e-06
0.00234287
5.60322e-06
0.00234336
5.80193e-06
0.00234384
5.99392e-06
0.00234431
6.17938e-06
6.35855e-06
0.00233955
4.97078e-06
0.00234017
5.1794e-06
0.00234078
5.38091e-06
0.00234139
5.5756e-06
5.76369e-06
0.00233607
4.19829e-06
0.00233683
4.41672e-06
0.00233758
4.62771e-06
0.00233833
4.83154e-06
5.02847e-06
0.00233243
3.27941e-06
0.00233334
3.50756e-06
0.00233424
3.72794e-06
0.00233513
3.94085e-06
4.14653e-06
0.00232864
2.20787e-06
0.0023297
2.44566e-06
0.00233075
2.67535e-06
0.00233179
2.89727e-06
3.11163e-06
0.00232469
9.77518e-07
0.00232591
1.22486e-06
0.00232712
1.4638e-06
0.00232832
1.69463e-06
1.9176e-06
0.00232059
-4.17698e-07
0.00232198
-1.60872e-07
0.00232335
8.72036e-08
0.00232472
3.26871e-07
5.58387e-07
0.00231635
-1.98373e-06
0.0023179
-1.7175e-06
0.00231945
-1.46036e-06
0.00232099
-1.21194e-06
-9.71957e-07
0.00231196
-3.72639e-06
0.00231369
-3.45087e-06
0.00231542
-3.18472e-06
0.00231713
-2.92763e-06
-2.67928e-06
0.00230743
-5.65142e-06
0.00230934
-5.36667e-06
0.00231125
-5.09162e-06
0.00231315
-4.82592e-06
-4.56927e-06
0.00230276
-7.7644e-06
0.00230486
-7.47051e-06
0.00230695
-7.18664e-06
0.00230904
-6.91242e-06
-6.64754e-06
0.00229795
-1.00708e-05
0.00230025
-9.76785e-06
0.00230253
-9.47523e-06
0.00230481
-9.19258e-06
-8.91956e-06
0.00546863
-1.07014e-05
0.00546924
-1.03803e-05
0.00546983
-1.00701e-05
0.00547041
-9.77047e-06
0.00547097
-9.48102e-06
-9.20141e-06
0.0054693
-1.13092e-05
0.00546989
-1.09707e-05
0.00547047
-1.06436e-05
0.00547102
-1.03277e-05
0.00547157
-1.00225e-05
-9.72758e-06
0.00547
-1.18938e-05
0.00547056
-1.15386e-05
0.00547112
-1.11954e-05
0.00547165
-1.08638e-05
0.00547217
-1.05434e-05
-1.02339e-05
0.00547071
-1.24545e-05
0.00547125
-1.20834e-05
0.00547178
-1.17248e-05
0.0054723
-1.13782e-05
0.0054728
-1.10434e-05
-1.07199e-05
0.00547144
-1.29909e-05
0.00547196
-1.26046e-05
0.00547247
-1.22313e-05
0.00547296
-1.18705e-05
0.00547344
-1.15219e-05
-1.1185e-05
0.00547219
-1.35024e-05
0.00547268
-1.31016e-05
0.00547317
-1.27144e-05
0.00547364
-1.23401e-05
0.00547409
-1.19784e-05
-1.16288e-05
0.00547296
-1.39882e-05
0.00547343
-1.35739e-05
0.00547389
-1.31734e-05
0.00547433
-1.27864e-05
0.00547477
-1.24123e-05
-1.20507e-05
0.00547374
-1.44478e-05
0.00547419
-1.40207e-05
0.00547462
-1.36078e-05
0.00547505
-1.32087e-05
0.00547546
-1.2823e-05
-1.24502e-05
0.00547455
-1.48805e-05
0.00547497
-1.44414e-05
0.00547538
-1.4017e-05
0.00547578
-1.36066e-05
0.00547617
-1.321e-05
-1.28266e-05
0.00547538
-1.52857e-05
0.00547577
-1.48355e-05
0.00547616
-1.44002e-05
0.00547653
-1.39794e-05
0.00547689
-1.35726e-05
-1.31794e-05
0.00547623
-1.56627e-05
0.00547659
-1.52022e-05
0.00547695
-1.4757e-05
0.0054773
-1.43266e-05
0.00547764
-1.39104e-05
-1.3508e-05
0.0054771
-1.60108e-05
0.00547743
-1.5541e-05
0.00547776
-1.50867e-05
0.00547808
-1.46474e-05
0.0054784
-1.42226e-05
-1.38119e-05
0.00547798
-1.63295e-05
0.00547829
-1.58512e-05
0.00547859
-1.53887e-05
0.00547889
-1.49414e-05
0.00547917
-1.45088e-05
-1.40906e-05
0.00547889
-1.66181e-05
0.00547917
-1.61323e-05
0.00547944
-1.56625e-05
0.00547971
-1.5208e-05
0.00547997
-1.47685e-05
-1.43435e-05
0.00547981
-1.68762e-05
0.00548006
-1.63838e-05
0.00548031
-1.59075e-05
0.00548055
-1.54467e-05
0.00548078
-1.50011e-05
-1.45701e-05
0.00548075
-1.71032e-05
0.00548097
-1.66051e-05
0.00548119
-1.61233e-05
0.0054814
-1.56571e-05
0.0054816
-1.52062e-05
-1.47701e-05
0.0054817
-1.72987e-05
0.00548189
-1.67959e-05
0.00548208
-1.63094e-05
0.00548226
-1.58388e-05
0.00548244
-1.53834e-05
-1.4943e-05
0.00548267
-1.74624e-05
0.00548283
-1.69558e-05
0.00548298
-1.64656e-05
0.00548314
-1.59913e-05
0.00548328
-1.55324e-05
-1.50884e-05
0.00548364
-1.75938e-05
0.00548377
-1.70844e-05
0.0054839
-1.65915e-05
0.00548402
-1.61144e-05
0.00548414
-1.56528e-05
-1.52062e-05
0.00548463
-1.76929e-05
0.00548473
-1.71817e-05
0.00548482
-1.66868e-05
0.00548492
-1.62079e-05
0.00548501
-1.57445e-05
-1.5296e-05
0.00548563
-1.77594e-05
0.00548569
-1.72472e-05
0.00548576
-1.67515e-05
0.00548582
-1.62717e-05
0.00548588
-1.58072e-05
-1.53578e-05
0.00548662
-1.77932e-05
0.00548666
-1.72811e-05
0.00548669
-1.67854e-05
0.00548673
-1.63055e-05
0.00548676
-1.5841e-05
-1.53914e-05
0.00548763
-1.77943e-05
0.00548763
-1.72833e-05
0.00548763
-1.67885e-05
0.00548764
-1.63094e-05
0.00548764
-1.58456e-05
-1.53967e-05
0.00548863
-1.77629e-05
0.0054886
-1.72538e-05
0.00548857
-1.67608e-05
0.00548855
-1.62834e-05
0.00548852
-1.58212e-05
-1.53738e-05
0.00548964
-1.76989e-05
0.00548957
-1.71927e-05
0.00548952
-1.67024e-05
0.00548946
-1.62277e-05
0.00548941
-1.57679e-05
-1.53228e-05
0.00549064
-1.76027e-05
0.00549054
-1.71003e-05
0.00549045
-1.66136e-05
0.00549037
-1.61423e-05
0.00549029
-1.56858e-05
-1.52438e-05
0.00549163
-1.74745e-05
0.00549151
-1.69768e-05
0.00549139
-1.64946e-05
0.00549127
-1.60275e-05
0.00549116
-1.55752e-05
-1.51371e-05
0.00549262
0.00549246
-1.68225e-05
0.00549232
-1.63457e-05
0.00549217
-1.58837e-05
0.00549203
-1.54362e-05
-1.50028e-05
0.00549341
-1.66379e-05
0.00549323
-1.61672e-05
0.00549306
-1.57111e-05
0.00549289
-1.52693e-05
-1.48414e-05
0.00549435
-1.64233e-05
0.00549414
-1.59596e-05
0.00549394
-1.55103e-05
0.00549375
-1.50749e-05
-1.46532e-05
0.00549527
-1.61793e-05
0.00549504
-1.57234e-05
0.00549481
-1.52815e-05
0.00549459
-1.48534e-05
-1.44386e-05
0.00549619
-1.59065e-05
0.00549592
-1.54591e-05
0.00549567
-1.50255e-05
0.00549542
-1.46053e-05
-1.41981e-05
0.00549708
-1.56054e-05
0.00549679
-1.51673e-05
0.00549651
-1.47427e-05
0.00549623
-1.43311e-05
-1.39323e-05
0.00549796
-1.52768e-05
0.00549764
-1.48487e-05
0.00549733
-1.44338e-05
0.00549703
-1.40315e-05
-1.36417e-05
0.00549881
-1.49213e-05
0.00549847
-1.45039e-05
0.00549813
-1.40994e-05
0.00549781
-1.37071e-05
-1.3327e-05
0.00549965
-1.45396e-05
0.00549928
-1.41337e-05
0.00549892
-1.37402e-05
0.00549857
-1.33586e-05
-1.29887e-05
0.00550046
-1.41327e-05
0.00550007
-1.37388e-05
0.00549969
-1.33569e-05
0.00549931
-1.29866e-05
-1.26276e-05
0.00550125
-1.37012e-05
0.00550084
-1.33201e-05
0.00550043
-1.29504e-05
0.00550003
-1.25919e-05
-1.22444e-05
0.00550202
-1.32462e-05
0.00550158
-1.28783e-05
0.00550115
-1.25214e-05
0.00550073
-1.21754e-05
-1.18398e-05
0.00550276
-1.27683e-05
0.00550229
-1.24143e-05
0.00550184
-1.20708e-05
0.00550141
-1.17377e-05
-1.14147e-05
0.00550347
-1.22687e-05
0.00550298
-1.1929e-05
0.00550251
-1.15995e-05
0.00550205
-1.12798e-05
-1.09699e-05
0.00550415
-1.17481e-05
0.00550364
-1.14233e-05
0.00550315
-1.11082e-05
0.00550268
-1.08026e-05
-1.05061e-05
0.0055048
-1.12077e-05
0.00550428
-1.08983e-05
0.00550377
-1.05981e-05
0.00550327
-1.03068e-05
-1.00244e-05
0.00550542
-1.06483e-05
0.00550488
-1.03547e-05
0.00550435
-1.00699e-05
0.00550384
-9.79353e-06
-9.52545e-06
0.00550601
-1.0071e-05
0.00550545
-9.79373e-06
0.00550491
-9.52466e-06
0.00550438
-9.26358e-06
-9.01031e-06
0.00550657
-9.47686e-06
0.00550599
-9.21626e-06
0.00550543
-8.96336e-06
0.00550489
-8.71795e-06
-8.47986e-06
0.00550709
-8.8669e-06
0.0055065
-8.62336e-06
0.00550593
-8.38698e-06
0.00550537
-8.15761e-06
-7.93506e-06
0.00550758
-8.24219e-06
0.00550698
-8.01605e-06
0.00550639
-7.79655e-06
0.00550581
-7.58354e-06
-7.37686e-06
0.00550804
-7.60382e-06
0.00550742
-7.3954e-06
0.00550681
-7.1931e-06
0.00550623
-6.99675e-06
-6.80624e-06
0.00550846
-6.95288e-06
0.00550782
-6.76248e-06
0.00550721
-6.57765e-06
0.00550661
-6.39826e-06
-6.22419e-06
0.00550884
-6.29048e-06
0.0055082
-6.11836e-06
0.00550757
-5.95127e-06
0.00550696
-5.78909e-06
-5.63171e-06
0.00550919
-5.61773e-06
0.00550853
-5.46413e-06
0.0055079
-5.31502e-06
0.00550728
-5.17028e-06
-5.02982e-06
0.00550949
-4.93576e-06
0.00550883
-4.8009e-06
0.00550819
-4.66997e-06
0.00550756
-4.54288e-06
-4.41954e-06
0.00550977
-4.24571e-06
0.00550909
-4.12978e-06
0.00550844
-4.01721e-06
0.00550781
-3.90795e-06
-3.8019e-06
0.00551
-3.54873e-06
0.00550932
-3.45187e-06
0.00550866
-3.35783e-06
0.00550802
-3.26654e-06
-3.17794e-06
0.00551019
-2.84594e-06
0.00550951
-2.7683e-06
0.00550885
-2.69291e-06
0.0055082
-2.61973e-06
-2.5487e-06
0.00551035
-2.13852e-06
0.00550966
-2.0802e-06
0.00550899
-2.02356e-06
0.00550834
-1.96859e-06
-1.91523e-06
0.00551047
-1.42762e-06
0.00550978
-1.38869e-06
0.0055091
-1.35089e-06
0.00550845
-1.3142e-06
-1.27858e-06
0.00551055
-7.14391e-07
0.00550985
-6.94913e-07
0.00550918
-6.76001e-07
0.00550852
-6.57641e-07
-6.39821e-07
0.00551058
0.00550989
0.00550921
0.00550856
-1.07e-05
0.00546863
1.00694e-05
-1.13078e-05
0.0054693
-1.18924e-05
0.00547
-1.24532e-05
0.00547071
-1.29896e-05
0.00547144
-1.35011e-05
0.00547219
-1.39869e-05
0.00547295
-1.44465e-05
0.00547374
-1.48793e-05
0.00547455
-1.52845e-05
0.00547538
-1.56615e-05
0.00547623
-1.60096e-05
0.00547709
-1.63283e-05
0.00547798
-1.6617e-05
0.00547889
-1.6875e-05
0.00547981
-1.71021e-05
0.00548075
-1.72976e-05
0.0054817
-1.74613e-05
0.00548267
-1.75927e-05
0.00548364
-1.76918e-05
0.00548463
-1.77583e-05
0.00548562
-1.77922e-05
0.00548662
-1.77933e-05
0.00548763
-1.77619e-05
0.00548863
-1.7698e-05
0.00548963
-1.76018e-05
0.00549063
-1.74736e-05
0.00549163
-1.73138e-05
0.00549262
-1.71227e-05
0.0054936
-1.69009e-05
0.00549456
-1.66489e-05
0.00549552
-1.63672e-05
0.00549646
-1.60565e-05
0.00549738
-1.57175e-05
0.00549828
-1.53509e-05
0.00549917
-1.49575e-05
0.00550003
-1.45381e-05
0.00550087
-1.40936e-05
0.00550168
-1.36248e-05
0.00550247
-1.31327e-05
0.00550323
-1.26182e-05
0.00550397
-1.20823e-05
0.00550467
-1.1526e-05
0.00550534
-1.09503e-05
0.00550598
-1.03562e-05
0.00550659
-9.74493e-06
0.00550716
-9.11741e-06
0.0055077
-8.47479e-06
0.00550821
-7.81818e-06
0.00550867
-7.1487e-06
0.00550911
-6.46749e-06
0.0055095
-5.77568e-06
0.00550986
-5.07445e-06
0.00551017
-4.36494e-06
0.00551045
-3.64832e-06
0.00551069
-2.92578e-06
0.00551089
-2.1985e-06
0.00551105
-1.46765e-06
0.00551118
-7.34418e-07
0.00551126
0.0055113
-1.03789e-05
0.00546924
9.76648e-06
-1.09693e-05
0.00546989
-1.15372e-05
0.00547056
-1.20821e-05
0.00547125
-1.26033e-05
0.00547196
-1.31004e-05
0.00547268
-1.35726e-05
0.00547343
-1.40194e-05
0.00547419
-1.44402e-05
0.00547497
-1.48343e-05
0.00547577
-1.5201e-05
0.00547659
-1.55398e-05
0.00547743
-1.58501e-05
0.00547829
-1.61312e-05
0.00547917
-1.63827e-05
0.00548006
-1.6604e-05
0.00548097
-1.67948e-05
0.00548189
-1.69547e-05
0.00548283
-1.70834e-05
0.00548377
-1.71806e-05
0.00548473
-1.72462e-05
0.00548569
-1.72801e-05
0.00548666
-1.72823e-05
0.00548763
-1.72528e-05
0.0054886
-1.71918e-05
0.00548957
-1.70994e-05
0.00549054
-1.69759e-05
0.00549151
-1.68216e-05
0.00549246
-1.6637e-05
0.00549341
-1.64225e-05
0.00549435
-1.61785e-05
0.00549527
-1.59057e-05
0.00549618
-1.56047e-05
0.00549708
-1.5276e-05
0.00549795
-1.49206e-05
0.00549881
-1.4539e-05
0.00549965
-1.41321e-05
0.00550046
-1.37006e-05
0.00550125
-1.32456e-05
0.00550202
-1.27678e-05
0.00550276
-1.22681e-05
0.00550347
-1.17476e-05
0.00550415
-1.12072e-05
0.0055048
-1.06478e-05
0.00550542
-1.00706e-05
0.00550601
-9.47647e-06
0.00550657
-8.86654e-06
0.00550709
-8.24186e-06
0.00550758
-7.60351e-06
0.00550804
-6.9526e-06
0.00550846
-6.29022e-06
0.00550884
-5.6175e-06
0.00550918
-4.93557e-06
0.00550949
-4.24555e-06
0.00550976
-3.54859e-06
0.00551
-2.84583e-06
0.00551019
-2.13844e-06
0.00551035
-1.42756e-06
0.00551046
-7.14363e-07
0.00551054
0.00551058
-1.00688e-05
0.00546983
9.47389e-06
-1.06423e-05
0.00547047
-1.11941e-05
0.00547112
-1.17235e-05
0.00547178
-1.223e-05
0.00547247
-1.27131e-05
0.00547317
-1.31722e-05
0.00547389
-1.36066e-05
0.00547462
-1.40158e-05
0.00547538
-1.4399e-05
0.00547616
-1.47558e-05
0.00547695
-1.50855e-05
0.00547776
-1.53875e-05
0.00547859
-1.56613e-05
0.00547944
-1.59064e-05
0.00548031
-1.61222e-05
0.00548118
-1.63084e-05
0.00548208
-1.64645e-05
0.00548298
-1.65904e-05
0.0054839
-1.66858e-05
0.00548482
-1.67505e-05
0.00548575
-1.67844e-05
0.00548669
-1.67875e-05
0.00548763
-1.67599e-05
0.00548857
-1.67015e-05
0.00548951
-1.66127e-05
0.00549045
-1.64937e-05
0.00549139
-1.63448e-05
0.00549231
-1.61664e-05
0.00549323
-1.59588e-05
0.00549414
-1.57226e-05
0.00549504
-1.54584e-05
0.00549592
-1.51666e-05
0.00549679
-1.4848e-05
0.00549764
-1.45033e-05
0.00549847
-1.41331e-05
0.00549928
-1.37382e-05
0.00550007
-1.33195e-05
0.00550083
-1.28777e-05
0.00550158
-1.24137e-05
0.00550229
-1.19285e-05
0.00550298
-1.14229e-05
0.00550364
-1.08978e-05
0.00550428
-1.03543e-05
0.00550488
-9.79332e-06
0.00550545
-9.21588e-06
0.00550599
-8.623e-06
0.0055065
-8.01572e-06
0.00550697
-7.3951e-06
0.00550742
-6.7622e-06
0.00550782
-6.11811e-06
0.00550819
-5.46391e-06
0.00550853
-4.80071e-06
0.00550883
-4.12961e-06
0.00550909
-3.45173e-06
0.00550932
-2.76819e-06
0.00550951
-2.08011e-06
0.00550966
-1.38864e-06
0.00550977
-6.94886e-07
0.00550985
0.00550989
-9.76916e-06
0.00547041
9.19126e-06
-1.03264e-05
0.00547102
-1.08625e-05
0.00547165
-1.1377e-05
0.0054723
-1.18693e-05
0.00547296
-1.23388e-05
0.00547364
-1.27851e-05
0.00547433
-1.32075e-05
0.00547505
-1.36054e-05
0.00547578
-1.39783e-05
0.00547653
-1.43254e-05
0.0054773
-1.46462e-05
0.00547808
-1.49403e-05
0.00547889
-1.52069e-05
0.00547971
-1.54456e-05
0.00548054
-1.5656e-05
0.00548139
-1.58377e-05
0.00548226
-1.59903e-05
0.00548313
-1.61134e-05
0.00548402
-1.62069e-05
0.00548492
-1.62707e-05
0.00548582
-1.63045e-05
0.00548673
-1.63085e-05
0.00548764
-1.62825e-05
0.00548855
-1.62268e-05
0.00548946
-1.61414e-05
0.00549037
-1.60267e-05
0.00549127
-1.58829e-05
0.00549217
-1.57103e-05
0.00549306
-1.55095e-05
0.00549394
-1.52808e-05
0.00549481
-1.50248e-05
0.00549566
-1.4742e-05
0.0054965
-1.44331e-05
0.00549733
-1.40987e-05
0.00549813
-1.37395e-05
0.00549892
-1.33563e-05
0.00549968
-1.29498e-05
0.00550043
-1.25209e-05
0.00550115
-1.20703e-05
0.00550184
-1.1599e-05
0.00550251
-1.11078e-05
0.00550315
-1.05976e-05
0.00550377
-1.00695e-05
0.00550435
-9.52425e-06
0.00550491
-8.96298e-06
0.00550543
-8.38663e-06
0.00550592
-7.79623e-06
0.00550638
-7.1928e-06
0.00550681
-6.57738e-06
0.00550721
-5.95103e-06
0.00550757
-5.3148e-06
0.00550789
-4.66978e-06
0.00550818
-4.01705e-06
0.00550844
-3.35769e-06
0.00550866
-2.6928e-06
0.00550884
-2.02348e-06
0.00550899
-1.35084e-06
0.0055091
-6.75974e-07
0.00550917
0.00550921
-9.47973e-06
8.91826e-06
-1.00212e-05
-1.05422e-05
-1.10422e-05
-1.15207e-05
-1.19772e-05
-1.24111e-05
-1.28218e-05
-1.32088e-05
-1.35715e-05
-1.39092e-05
-1.42215e-05
-1.45077e-05
-1.47674e-05
-1.5e-05
-1.52052e-05
-1.53824e-05
-1.55314e-05
-1.56518e-05
-1.57435e-05
-1.58063e-05
-1.584e-05
-1.58447e-05
-1.58203e-05
-1.5767e-05
-1.5685e-05
-1.55743e-05
-1.54354e-05
-1.52685e-05
-1.50741e-05
-1.48527e-05
-1.46046e-05
-1.43304e-05
-1.40309e-05
-1.37065e-05
-1.33579e-05
-1.2986e-05
-1.25913e-05
-1.21748e-05
-1.17372e-05
-1.12793e-05
-1.08021e-05
-1.03064e-05
-9.79311e-06
-9.26318e-06
-8.71758e-06
-8.15726e-06
-7.58322e-06
-6.99646e-06
-6.398e-06
-5.78885e-06
-5.17007e-06
-4.5427e-06
-3.90779e-06
-3.2664e-06
-2.61962e-06
-1.96851e-06
-1.31414e-06
-6.57615e-07
0.00229795
7.76301e-06
0.00230025
7.46914e-06
0.00230253
7.1853e-06
0.00230481
6.9111e-06
6.64625e-06
0.00230276
5.65003e-06
0.00230486
5.3653e-06
0.00230695
5.09028e-06
0.00230904
4.82461e-06
4.56798e-06
0.00230743
3.72501e-06
0.00230934
3.4495e-06
0.00231125
3.18338e-06
0.00231315
2.92631e-06
2.67798e-06
0.00231196
1.98234e-06
0.00231369
1.71614e-06
0.00231542
1.45901e-06
0.00231713
1.21062e-06
9.70664e-07
0.00231635
4.16308e-07
0.0023179
1.59506e-07
0.00231945
-8.85455e-08
0.00232099
-3.28189e-07
-5.59681e-07
0.00232059
-9.78909e-07
0.00232198
-1.22623e-06
0.00232335
-1.46514e-06
0.00232472
-1.69595e-06
-1.91889e-06
0.00232469
-2.20926e-06
0.00232591
-2.44703e-06
0.00232712
-2.6767e-06
0.00232832
-2.89858e-06
-3.11292e-06
0.00232864
-3.2808e-06
0.0023297
-3.50893e-06
0.00233075
-3.72928e-06
0.00233179
-3.94217e-06
-4.14782e-06
0.00233243
-4.19969e-06
0.00233334
-4.41809e-06
0.00233424
-4.62906e-06
0.00233513
-4.83286e-06
-5.02977e-06
0.00233607
-4.97217e-06
0.00233683
-5.18077e-06
0.00233758
-5.38226e-06
0.00233833
-5.57692e-06
-5.76498e-06
0.00233955
-5.60461e-06
0.00234017
-5.8033e-06
0.00234078
-5.99526e-06
0.00234139
-6.1807e-06
-6.35985e-06
0.00234287
-6.10343e-06
0.00234336
-6.29216e-06
0.00234384
-6.47449e-06
0.00234431
-6.65064e-06
-6.82083e-06
0.00234603
-6.47515e-06
0.00234639
-6.65386e-06
0.00234674
-6.82649e-06
0.00234708
-6.99328e-06
-7.15441e-06
0.00234902
-6.72641e-06
0.00234926
-6.895e-06
0.00234949
-7.05787e-06
0.00234971
-7.21524e-06
-7.36726e-06
0.00235185
-6.86386e-06
0.00235197
-7.02229e-06
0.00235209
-7.17533e-06
0.0023522
-7.32318e-06
-7.46604e-06
0.00235451
-6.89429e-06
0.00235453
-7.04247e-06
0.00235454
-7.18561e-06
0.00235454
-7.32391e-06
-7.45754e-06
0.002357
-6.82451e-06
0.00235692
-6.96237e-06
0.00235683
-7.09556e-06
0.00235673
-7.22425e-06
-7.34857e-06
0.00235932
-6.6614e-06
0.00235914
-6.7889e-06
0.00235896
-6.91208e-06
0.00235877
-7.03109e-06
-7.14607e-06
0.00236146
-6.41192e-06
0.0023612
-6.529e-06
0.00236093
-6.64212e-06
0.00236065
-6.7514e-06
-6.85699e-06
0.00236344
-6.08308e-06
0.0023631
-6.18969e-06
0.00236275
-6.29268e-06
0.00236239
-6.3922e-06
-6.48834e-06
0.00236523
-5.68193e-06
0.00236482
-5.77801e-06
0.0023644
-5.87084e-06
0.00236397
-5.96054e-06
-6.04719e-06
0.00236685
-5.21557e-06
0.00236638
-5.30109e-06
0.00236589
-5.38371e-06
0.00236539
-5.46354e-06
-5.54068e-06
0.0023683
-4.69114e-06
0.00236776
-4.76605e-06
0.00236722
-4.83844e-06
0.00236666
-4.90837e-06
-4.97594e-06
0.00236956
-4.11582e-06
0.00236897
-4.1801e-06
0.00236838
-4.24221e-06
0.00236777
-4.30221e-06
-4.36018e-06
0.00237065
-3.49683e-06
0.00237002
-3.55043e-06
0.00236938
-3.60224e-06
0.00236873
-3.65227e-06
-3.70063e-06
0.00237155
-2.84139e-06
0.00237088
-2.88431e-06
0.00237021
-2.92577e-06
0.00236952
-2.96583e-06
-3.00454e-06
0.00237228
-2.15677e-06
0.00237158
-2.18898e-06
0.00237088
-2.22009e-06
0.00237016
-2.25015e-06
-2.27919e-06
0.00237282
-1.45026e-06
0.0023721
-1.47173e-06
0.00237138
-1.49247e-06
0.00237064
-1.51252e-06
-1.53188e-06
0.00237318
-7.29129e-07
0.00237245
-7.39864e-07
0.00237171
-7.50232e-07
0.00237096
-7.6025e-07
-7.69929e-07
0.00237337
0.00237263
0.00237188
0.00237112
)
;

boundaryField
{
    inlet
    {
        type            calculated;
        value           nonuniform 0();
    }
    outlet
    {
        type            calculated;
        value           nonuniform 0();
    }
    cylinder
    {
        type            calculated;
        value           nonuniform 0();
    }
    top
    {
        type            symmetryPlane;
        value           uniform 0;
    }
    bottom
    {
        type            symmetryPlane;
        value           uniform 0;
    }
    defaultFaces
    {
        type            empty;
        value           nonuniform 0();
    }
    procBoundary59to58
    {
        type            processor;
        value           nonuniform List<scalar> 
181
(
-0.00237409
-0.0023739
-0.00237353
-0.00237296
-0.00237221
-0.00237126
-0.00237014
-0.00236882
-0.00236732
-0.00236563
-0.00236376
-0.00236171
-0.00235948
-0.00235707
-0.00235448
-0.00235171
-0.00234877
-0.00234565
-0.00234237
-0.00233892
-0.0023353
-0.00233151
-0.00232756
-0.00232346
-0.0023192
-0.00231478
-0.00231022
-0.0023055
-0.00230064
-0.00229564
-0.005468
-0.0054687
-0.00546941
-0.00547015
-0.0054709
-0.00547168
-0.00547247
-0.00547328
-0.00547412
-0.00547497
-0.00547585
-0.00547675
-0.00547766
-0.0054786
-0.00547955
-0.00548052
-0.00548151
-0.0054825
-0.00548351
-0.00548453
-0.00548556
-0.00548659
-0.00548763
-0.00548866
-0.0054897
-0.00549073
-0.00549176
-0.00549278
-1.73147e-05
-0.0054936
-0.00549456
-0.00549552
-0.00549646
-0.00549738
-0.00549829
-0.00549917
-0.00550003
-0.00550087
-0.00550169
-0.00550247
-0.00550324
-0.00550397
-0.00550467
-0.00550534
-0.00550598
-0.00550659
-0.00550717
-0.0055077
-0.00550821
-0.00550868
-0.00550911
-0.0055095
-0.00550986
-0.00551018
-0.00551046
-0.0055107
-0.0055109
-0.00551106
-0.00551118
-0.00551126
-0.0055113
-0.005468
-0.00546869
-0.00546941
-0.00547015
-0.0054709
-0.00547167
-0.00547247
-0.00547328
-0.00547412
-0.00547497
-0.00547585
-0.00547675
-0.00547766
-0.0054786
-0.00547955
-0.00548052
-0.0054815
-0.0054825
-0.00548351
-0.00548453
-0.00548556
-0.00548659
-0.00548763
-0.00548866
-0.0054897
-0.00549073
-0.00549176
-0.00549278
-0.00549379
-0.00549478
-0.00549577
-0.00549674
-0.00549769
-0.00549862
-0.00549953
-0.00550042
-0.00550129
-0.00550213
-0.00550294
-0.00550373
-0.00550448
-0.0055052
-0.0055059
-0.00550656
-0.00550718
-0.00550777
-0.00550833
-0.00550885
-0.00550933
-0.00550978
-0.00551018
-0.00551055
-0.00551088
-0.00551116
-0.00551141
-0.00551162
-0.00551178
-0.00551191
-0.00551199
-0.00551203
-0.00229564
-0.00230064
-0.0023055
-0.00231022
-0.00231478
-0.0023192
-0.00232346
-0.00232756
-0.00233151
-0.0023353
-0.00233892
-0.00234237
-0.00234565
-0.00234877
-0.00235171
-0.00235448
-0.00235707
-0.00235948
-0.00236171
-0.00236376
-0.00236563
-0.00236732
-0.00236882
-0.00237014
-0.00237126
-0.00237221
-0.00237296
-0.00237353
-0.0023739
-0.00237409
)
;
    }
    procBoundary59to60
    {
        type            processor;
        value           nonuniform List<scalar> 
181
(
0.00237035
0.0023702
0.00236989
0.00236943
0.00236883
0.00236807
0.00236716
0.0023661
0.00236488
0.00236353
0.00236202
0.00236036
0.00235856
0.00235662
0.00235453
0.0023523
0.00234993
0.00234742
0.00234477
0.00234198
0.00233906
0.00233601
0.00233283
0.00232952
0.00232608
0.00232252
0.00231884
0.00231504
0.00231112
0.00230709
8.65583e-06
0.00547152
0.00547209
0.00547268
0.00547328
0.0054739
0.00547454
0.00547519
0.00547586
0.00547654
0.00547725
0.00547796
0.0054787
0.00547945
0.00548022
0.005481
0.0054818
0.00548261
0.00548343
0.00548426
0.0054851
0.00548594
0.00548679
0.00548765
0.0054885
0.00548936
0.00549021
0.00549106
0.0054919
0.00549273
0.00549356
0.00549437
0.00549518
0.00549597
0.00549674
0.0054975
0.00549823
0.00549895
0.00549965
0.00550033
0.00550098
0.00550161
0.00550221
0.00550279
0.00550334
0.00550386
0.00550436
0.00550482
0.00550525
0.00550566
0.00550603
0.00550637
0.00550668
0.00550695
0.00550719
0.0055074
0.00550757
0.00550771
0.00550781
0.00550788
0.00550792
0.00547097
0.00547157
0.00547217
0.0054728
0.00547344
0.00547409
0.00547477
0.00547546
0.00547617
0.00547689
0.00547764
0.0054784
0.00547917
0.00547997
0.00548078
0.0054816
0.00548244
0.00548328
0.00548414
0.00548501
0.00548588
0.00548676
0.00548764
0.00548852
0.00548941
0.00549029
0.00549116
0.00549203
0.00549289
0.00549375
0.00549459
0.00549542
0.00549623
0.00549703
0.00549781
0.00549857
0.00549931
0.00550003
0.00550073
0.0055014
0.00550205
0.00550267
0.00550327
0.00550384
0.00550438
0.00550488
0.00550536
0.00550581
0.00550623
0.00550661
0.00550696
0.00550727
0.00550756
0.00550781
0.00550802
0.0055082
0.00550834
0.00550845
0.00550852
0.00550855
0.00230709
0.00231112
0.00231504
0.00231884
0.00232252
0.00232608
0.00232952
0.00233283
0.00233601
0.00233906
0.00234198
0.00234477
0.00234742
0.00234993
0.0023523
0.00235453
0.00235662
0.00235856
0.00236036
0.00236202
0.00236353
0.00236488
0.0023661
0.00236716
0.00236807
0.00236883
0.00236943
0.00236989
0.0023702
0.00237035
)
;
    }
}


// ************************************************************************* //
