/*--------------------------------*- C++ -*----------------------------------*\
  =========                 |
  \\      /  F ield         | OpenFOAM: The Open Source CFD Toolbox
   \\    /   O peration     | Website:  https://openfoam.org
    \\  /    A nd           | Version:  7
     \\/     M anipulation  |
\*---------------------------------------------------------------------------*/
FoamFile
{
    version     2.0;
    format      ascii;
    class       surfaceScalarField;
    location    "25";
    object      phi;
}
// * * * * * * * * * * * * * * * * * * * * * * * * * * * * * * * * * * * * * //

dimensions      [0 3 -1 0 0 0 0];

internalField   nonuniform List<scalar> 
1665
(
0.0013496
-4.38688e-06
-1.6933e-09
0.00135394
-4.33906e-06
-1.63251e-09
0.00135823
-4.29182e-06
-1.56872e-09
0.00136248
-4.24515e-06
-1.50142e-09
0.00136668
-4.19906e-06
-1.43029e-09
-4.15353e-06
-1.35381e-09
0.00135029
-8.77027e-06
0.00135462
-8.67468e-06
0.00135891
-8.58026e-06
0.00136316
-8.48698e-06
0.00136735
-8.39484e-06
-8.30383e-06
0.00135167
-1.31433e-05
0.001356
-1.30002e-05
0.00136027
-1.28589e-05
0.00136451
-1.27192e-05
0.00136869
-1.25813e-05
-1.2445e-05
0.00135373
0.00135804
-1.73108e-05
0.00136231
-1.71229e-05
0.00136652
-1.69372e-05
0.0013707
-1.67538e-05
-1.65727e-05
0.00136075
-2.16018e-05
0.00136499
-2.13677e-05
0.00136919
-2.11365e-05
0.00137335
-2.09082e-05
-2.06826e-05
0.0013641
-2.58687e-05
0.00136833
-2.55891e-05
0.0013725
-2.5313e-05
0.00137663
-2.50402e-05
-2.47708e-05
0.00136808
-3.01074e-05
0.00137228
-2.9783e-05
0.00137643
-2.94627e-05
0.00138053
-2.91462e-05
-2.88336e-05
0.00137266
-3.43142e-05
0.00137682
-3.39458e-05
0.00138094
-3.3582e-05
0.00138502
-3.32226e-05
-3.28676e-05
0.00137781
-3.84857e-05
0.00138194
-3.80743e-05
0.00138602
-3.76679e-05
0.00139007
-3.72665e-05
-3.687e-05
0.0013835
-4.26191e-05
0.00138759
-4.21656e-05
0.00139164
-4.17177e-05
0.00139565
-4.12753e-05
-4.08382e-05
0.00138969
-4.6712e-05
0.00139374
-4.62176e-05
0.00139776
-4.57293e-05
0.00140173
-4.52468e-05
-4.47703e-05
0.00139635
-5.07627e-05
0.00140036
-5.02286e-05
0.00140434
-4.97009e-05
0.00140827
-4.91797e-05
-4.86647e-05
0.00140344
-5.477e-05
0.00140741
-5.41973e-05
0.00141134
-5.36316e-05
0.00141523
-5.30728e-05
-5.25207e-05
0.00141091
-5.87333e-05
0.00141483
-5.81234e-05
0.00141872
-5.7521e-05
0.00142257
-5.69258e-05
-5.63379e-05
0.00141871
-6.26527e-05
0.00142259
-6.2007e-05
0.00142644
-6.13692e-05
0.00143025
-6.0739e-05
0.00143403
-6.01165e-05
-5.95016e-05
0.0014268
-6.6529e-05
0.00143064
-6.58489e-05
0.00143445
-6.51771e-05
0.00143823
-6.45134e-05
0.00144197
-6.38577e-05
-6.32099e-05
0.00143513
-7.03637e-05
0.00143893
-6.96507e-05
0.0014427
-6.89463e-05
0.00144644
-6.82504e-05
0.00145014
-6.75629e-05
-6.68838e-05
0.00144365
0.00144741
-7.34144e-05
0.00145115
-7.26789e-05
0.00145485
-7.19524e-05
0.00145852
-7.12346e-05
-7.05254e-05
0.00145603
-7.7143e-05
0.00145973
-7.6378e-05
0.0014634
-7.56222e-05
0.00146704
-7.48755e-05
-7.41379e-05
0.00146474
-8.08402e-05
0.00146841
-8.00471e-05
0.00147205
-7.92635e-05
0.00147566
-7.84895e-05
-7.77248e-05
0.00147348
-8.451e-05
0.00147712
-8.36904e-05
0.00148074
-8.28807e-05
0.00148433
-8.20807e-05
-8.12905e-05
0.0014822
-8.81576e-05
0.00148582
-8.7313e-05
0.00148942
-8.64786e-05
0.00149299
-8.56542e-05
-8.48398e-05
0.00149085
-9.17885e-05
0.00149445
-9.09204e-05
0.00149804
-9.00628e-05
0.0015016
-8.92155e-05
-8.83785e-05
0.00149937
-9.54089e-05
0.00150297
-9.45189e-05
0.00150655
-9.36396e-05
0.0015101
-9.27709e-05
0.00151364
-9.19126e-05
-9.10648e-05
0.00150773
-9.90258e-05
0.00151132
-9.81153e-05
0.0015149
-9.72157e-05
0.00151845
-9.6327e-05
0.00152199
-9.5449e-05
-9.45816e-05
0.00151585
0.00151945
-0.000101717
0.00152304
-0.000100799
0.0015266
-9.98913e-05
0.00153015
-9.8995e-05
-9.81095e-05
0.00152732
-0.000105332
0.00153092
-0.000104396
0.0015345
-0.000103472
0.00153806
-0.000102559
-0.000101656
0.00153487
-0.000108969
0.00153849
-0.000108017
0.0015421
-0.000107077
0.00154569
-0.000106148
-0.00010523
0.00154206
-0.000112637
0.00154572
-0.00011167
0.00154935
-0.000110715
0.00155298
-0.000109772
-0.00010884
0.00154885
-0.000116344
0.00155255
-0.000115364
0.00155623
-0.000114396
0.0015599
-0.00011344
-0.000112495
0.00399985
-0.0001206
0.00400408
-0.000119596
0.00400829
-0.000118605
0.00401248
-0.000117626
-0.000116658
0.00411781
-0.000124154
0.00412135
-0.000123134
0.00412487
-0.000122125
0.00412837
-0.000121129
-0.000120144
0.00423827
-0.000127011
0.00424111
-0.000125979
0.00424395
-0.00012496
0.00424677
-0.000123952
-0.000122957
0.00436033
-0.000129182
0.0043625
-0.000128145
0.00436466
-0.00012712
0.00436681
-0.000126107
-0.000125107
0.00448314
-0.000130685
0.00448464
-0.000129648
0.00448614
-0.000128623
0.00448765
-0.000127611
-0.00012661
0.00460584
-0.000131542
0.00460671
-0.000130512
0.00460758
-0.000129493
0.00460845
-0.000128486
-0.00012749
0.00472766
-0.000131785
0.00472791
-0.000130765
0.00472818
-0.000129756
0.00472845
-0.00012876
-0.000127774
0.00484783
-0.000131446
0.00484751
-0.000130442
0.0048472
-0.000129448
0.00484691
-0.000128466
-0.000127495
0.00496566
-0.000130566
0.0049648
-0.00012958
0.00496396
-0.000128606
0.00496314
-0.000127643
-0.00012669
0.00508052
-0.000129185
0.00507916
-0.000128223
0.00507783
-0.000127271
0.00507651
-0.00012633
-0.000125399
0.00519183
-0.00012735
0.00519002
-0.000126413
0.00518824
-0.000125487
0.00518648
-0.00012457
-0.000123665
0.00529909
-0.000125106
0.00529688
-0.000124197
0.00529469
-0.000123299
0.00529253
-0.00012241
-0.000121531
0.00540187
-0.000122502
0.0053993
-0.000121623
0.00539676
-0.000120755
0.00539424
-0.000119895
-0.000119045
0.00549982
-0.000119585
0.00549693
-0.000118739
0.00549408
-0.000117901
0.00549126
-0.000117072
-0.000116253
0.00559264
-0.000116404
0.00558949
-0.00011559
0.00558638
-0.000114785
0.00558329
-0.000113988
-0.000113199
0.00568013
-0.000113005
0.00567677
-0.000112224
0.00567343
-0.000111451
0.00567013
-0.000110686
-0.00010993
0.00576214
-0.000109433
0.0057586
-0.000108685
0.0057551
-0.000107945
0.00575162
-0.000107212
-0.000106487
0.00583859
-0.00010573
0.00583492
-0.000105015
0.00583129
-0.000104307
0.00582768
-0.000103606
-0.000102913
0.00590947
-0.000101937
0.00590571
-0.000101253
0.00590198
-0.000100577
0.00589828
-9.99075e-05
-9.92449e-05
0.00597482
-9.80885e-05
0.005971
-9.74364e-05
0.00596722
-9.67907e-05
0.00596346
-9.61515e-05
-9.5519e-05
0.00603473
-9.42189e-05
0.00603089
-9.35967e-05
0.00602708
-9.29806e-05
0.0060233
-9.23708e-05
-9.17672e-05
0.00608933
-9.03571e-05
0.0060855
-8.97636e-05
0.0060817
-8.9176e-05
0.00607792
-8.85942e-05
-8.80184e-05
0.00613882
-8.65289e-05
0.00613502
-8.59628e-05
0.00613124
-8.54022e-05
0.0061275
-8.48471e-05
-8.42977e-05
0.00618339
-8.27562e-05
0.00617964
-8.2216e-05
0.00617592
-8.1681e-05
0.00617223
-8.11513e-05
-8.06269e-05
0.00622329
-7.90573e-05
0.00621962
-7.85415e-05
0.00621597
-7.80307e-05
0.00621234
-7.75249e-05
-7.70241e-05
0.00625878
-7.54469e-05
0.00625519
-7.49541e-05
0.00625163
-7.4466e-05
0.00624808
-7.39827e-05
-7.35042e-05
0.00629013
-7.19364e-05
0.00628664
-7.14652e-05
0.00628317
-7.09984e-05
0.00627972
-7.05362e-05
-7.00787e-05
0.00631762
-6.8534e-05
0.00631424
-6.80831e-05
0.00631087
-6.76364e-05
0.00630753
-6.71941e-05
-6.67562e-05
0.00634155
-6.52453e-05
0.00633828
-6.48135e-05
0.00633503
-6.43857e-05
0.00633179
-6.3962e-05
-6.35425e-05
0.0063622
-6.20733e-05
0.00635904
-6.16594e-05
0.00635591
-6.12493e-05
0.00635279
-6.08432e-05
-6.04412e-05
0.00637986
-5.90186e-05
0.00637682
-5.86217e-05
0.0063738
-5.82284e-05
0.0063708
-5.78389e-05
-5.74533e-05
0.00639481
-5.60801e-05
0.00639189
-5.56993e-05
0.00638898
-5.5322e-05
0.00638609
-5.49483e-05
-5.45782e-05
0.00640732
-5.32552e-05
0.00640451
-5.28897e-05
0.00640172
-5.25276e-05
0.00639894
-5.21689e-05
-5.18137e-05
0.00641765
-5.05397e-05
0.00641495
-5.0189e-05
0.00641226
-4.98415e-05
0.00640959
-4.94972e-05
-4.91563e-05
0.00642603
-4.79287e-05
0.00642344
-4.75923e-05
0.00642085
-4.72588e-05
0.00641829
-4.69285e-05
-4.66013e-05
0.00643271
-4.54164e-05
0.00643021
-4.50938e-05
0.00642773
-4.47741e-05
0.00642526
-4.44572e-05
-4.41435e-05
0.00643789
-4.29966e-05
0.00643548
-4.26875e-05
0.00643309
-4.23811e-05
0.00643071
-4.20775e-05
-4.17768e-05
0.00644177
-4.06625e-05
0.00643945
-4.03667e-05
0.00643714
-4.00735e-05
0.00643484
-3.97829e-05
-3.9495e-05
0.00644453
-3.84075e-05
0.00644229
-3.81249e-05
0.00644006
-3.78446e-05
0.00643784
-3.75669e-05
-3.72917e-05
0.00644634
-3.62249e-05
0.00644417
-3.59553e-05
0.00644201
-3.56879e-05
0.00643987
-3.54229e-05
-3.51604e-05
0.00644735
-3.41079e-05
0.00644524
-3.38513e-05
0.00644315
-3.35968e-05
0.00644107
-3.33446e-05
-3.30946e-05
0.00644769
-3.20503e-05
0.00644564
-3.18067e-05
0.00644361
-3.1565e-05
0.00644159
-3.13255e-05
-3.10881e-05
0.00644749
-3.00458e-05
0.00644549
-2.98152e-05
0.00644352
-2.95865e-05
0.00644155
-2.93597e-05
-2.91349e-05
0.00644685
-2.80889e-05
0.0064449
-2.78714e-05
0.00644297
-2.76556e-05
0.00644105
-2.74416e-05
-2.72294e-05
0.00644587
-2.6174e-05
0.00644396
-2.59697e-05
0.00644208
-2.57669e-05
0.0064402
-2.55657e-05
-2.53663e-05
0.00644463
-2.42963e-05
0.00644277
-2.41052e-05
0.00644092
-2.39155e-05
0.00643908
-2.37273e-05
-2.35407e-05
0.00644322
-2.24513e-05
0.00644138
-2.22734e-05
0.00643956
-2.20968e-05
0.00643776
-2.19216e-05
-2.17479e-05
0.00644168
-2.06346e-05
0.00643988
-2.04701e-05
0.00643809
-2.03068e-05
0.00643631
-2.01447e-05
-1.9984e-05
0.00644009
-1.88427e-05
0.00643832
-1.86916e-05
0.00643655
-1.85416e-05
0.0064348
-1.83928e-05
-1.82451e-05
0.00643849
-1.7072e-05
0.00643674
-1.69345e-05
0.00643499
-1.67979e-05
0.00643326
-1.66623e-05
-1.65278e-05
0.00643692
-1.53197e-05
0.00643519
-1.51957e-05
0.00643346
-1.50725e-05
0.00643175
-1.49503e-05
-1.48291e-05
0.00643542
-1.35828e-05
0.0064337
-1.34725e-05
0.00643199
-1.33629e-05
0.0064303
-1.32541e-05
-1.31461e-05
0.00643402
-1.18591e-05
0.00643231
-1.17624e-05
0.00643062
-1.16664e-05
0.00642893
-1.15711e-05
-1.14765e-05
0.00643275
-1.01463e-05
0.00643105
-1.00633e-05
0.00642936
-9.98096e-06
0.00642769
-9.89918e-06
0.00642603
-9.81802e-06
-9.73752e-06
0.00643162
-8.44243e-06
0.00642993
-8.37325e-06
0.00642825
-8.30454e-06
0.00642659
-8.23632e-06
0.00642494
-8.16862e-06
-8.10147e-06
0.00643065
-6.74574e-06
0.00642896
-6.69036e-06
0.0064273
-6.63536e-06
0.00642564
-6.58074e-06
0.006424
-6.52654e-06
-6.47277e-06
0.00642986
-5.0546e-06
0.00642818
-5.01305e-06
0.00642652
-4.97178e-06
0.00642487
-4.93079e-06
0.00642323
-4.89012e-06
-4.84976e-06
0.00642926
-3.36753e-06
0.00642758
-3.33982e-06
0.00642592
-3.31229e-06
0.00642428
-3.28496e-06
0.00642265
-3.25783e-06
-3.23091e-06
0.00642885
-1.68311e-06
0.00642718
-1.66925e-06
0.00642552
-1.65548e-06
0.00642388
-1.64181e-06
0.00642225
-1.62824e-06
-1.61478e-06
0.00642865
0.00642698
0.00642532
0.00642368
0.00642205
-0.000120602
0.00399985
0.000116346
-0.000124156
0.00411781
-0.000127013
0.00423827
-0.000129184
0.00436033
-0.000130686
0.00448313
-0.000131543
0.00460584
-0.000131786
0.00472766
-0.000131447
0.00484783
-0.000130567
0.00496566
-0.000129186
0.00508052
-0.00012735
0.00519183
-0.000125106
0.00529909
-0.000122502
0.00540187
-0.000119585
0.00549982
-0.000116404
0.00559264
-0.000113005
0.00568013
-0.000109433
0.00576214
-0.00010573
0.00583859
-0.000101937
0.00590947
-9.80883e-05
0.00597482
-9.42186e-05
0.00603472
-9.03568e-05
0.00608933
-8.65286e-05
0.00613882
-8.27559e-05
0.00618339
-7.90569e-05
0.00622329
-7.54465e-05
0.00625878
-7.1936e-05
0.00629012
-6.85336e-05
0.00631762
-6.52449e-05
0.00634154
-6.20729e-05
0.0063622
-5.90182e-05
0.00637986
-5.60797e-05
0.00639481
-5.32548e-05
0.00640732
-5.05393e-05
0.00641765
-4.79283e-05
0.00642603
-4.5416e-05
0.00643271
-4.29962e-05
0.00643789
-4.06622e-05
0.00644177
-3.84072e-05
0.00644453
-3.62245e-05
0.00644634
-3.41076e-05
0.00644735
-3.20499e-05
0.00644769
-3.00455e-05
0.00644748
-2.80886e-05
0.00644684
-2.61738e-05
0.00644586
-2.42961e-05
0.00644463
-2.2451e-05
0.00644321
-2.06344e-05
0.00644168
-1.88425e-05
0.00644009
-1.70719e-05
0.00643849
-1.53195e-05
0.00643692
-1.35827e-05
0.00643542
-1.1859e-05
0.00643402
-1.01462e-05
0.00643275
-8.44234e-06
0.00643161
-6.74567e-06
0.00643065
-5.05455e-06
0.00642986
-3.36749e-06
0.00642926
-1.68309e-06
0.00642885
0.00642865
-0.000119598
0.00400408
0.000115366
-0.000123135
0.00412135
-0.000125981
0.00424111
-0.000128147
0.00436249
-0.000129649
0.00448463
-0.000130513
0.0046067
-0.000130766
0.00472791
-0.000130442
0.0048475
-0.000129581
0.0049648
-0.000128223
0.00507916
-0.000126413
0.00519002
-0.000124198
0.00529687
-0.000121624
0.0053993
-0.000118739
0.00549693
-0.00011559
0.00558949
-0.000112224
0.00567676
-0.000108685
0.0057586
-0.000105015
0.00583492
-0.000101253
0.00590571
-9.74361e-05
0.005971
-9.35963e-05
0.00603088
-8.97633e-05
0.0060855
-8.59624e-05
0.00613501
-8.22156e-05
0.00617964
-7.85411e-05
0.00621961
-7.49536e-05
0.00625519
-7.14647e-05
0.00628663
-6.80826e-05
0.00631423
-6.4813e-05
0.00633827
-6.16589e-05
0.00635904
-5.86212e-05
0.00637682
-5.56988e-05
0.00639189
-5.28893e-05
0.00640451
-5.01886e-05
0.00641495
-4.75918e-05
0.00642344
-4.50934e-05
0.00643021
-4.26871e-05
0.00643548
-4.03663e-05
0.00643945
-3.81245e-05
0.00644229
-3.59549e-05
0.00644417
-3.38509e-05
0.00644524
-3.18063e-05
0.00644564
-2.98149e-05
0.00644549
-2.7871e-05
0.0064449
-2.59694e-05
0.00644396
-2.41049e-05
0.00644277
-2.22731e-05
0.00644138
-2.04699e-05
0.00643988
-1.86914e-05
0.00643831
-1.69343e-05
0.00643673
-1.51955e-05
0.00643519
-1.34723e-05
0.0064337
-1.17623e-05
0.00643231
-1.00632e-05
0.00643105
-8.37316e-06
0.00642992
-6.69029e-06
0.00642896
-5.013e-06
0.00642818
-3.33978e-06
0.00642758
-1.66923e-06
0.00642718
0.00642698
-0.000118607
0.00400829
0.000114398
-0.000122127
0.00412487
-0.000124961
0.00424395
-0.000127122
0.00436465
-0.000128625
0.00448614
-0.000129494
0.00460757
-0.000129757
0.00472817
-0.000129449
0.0048472
-0.000128607
0.00496396
-0.000127271
0.00507782
-0.000125487
0.00518823
-0.000123299
0.00529468
-0.000120755
0.00539675
-0.000117901
0.00549408
-0.000114784
0.00558638
-0.000111451
0.00567343
-0.000107945
0.00575509
-0.000104307
0.00583128
-0.000100577
0.00590198
-9.67903e-05
0.00596721
-9.29802e-05
0.00602707
-8.91756e-05
0.00608169
-8.54017e-05
0.00613124
-8.16805e-05
0.00617592
-7.80302e-05
0.00621596
-7.44655e-05
0.00625162
-7.09979e-05
0.00628317
-6.76359e-05
0.00631087
-6.43852e-05
0.00633502
-6.12488e-05
0.00635591
-5.82279e-05
0.0063738
-5.53215e-05
0.00638898
-5.25271e-05
0.00640172
-4.9841e-05
0.00641226
-4.72583e-05
0.00642085
-4.47736e-05
0.00642773
-4.23806e-05
0.00643309
-4.00731e-05
0.00643714
-3.78442e-05
0.00644006
-3.56875e-05
0.00644201
-3.35964e-05
0.00644315
-3.15647e-05
0.00644361
-2.95862e-05
0.00644351
-2.76552e-05
0.00644297
-2.57665e-05
0.00644207
-2.39152e-05
0.00644091
-2.20965e-05
0.00643956
-2.03065e-05
0.00643809
-1.85414e-05
0.00643655
-1.67977e-05
0.00643499
-1.50724e-05
0.00643346
-1.33627e-05
0.00643199
-1.16663e-05
0.00643062
-9.98085e-06
0.00642936
-8.30445e-06
0.00642825
-6.63528e-06
0.00642729
-4.97172e-06
0.00642652
-3.31225e-06
0.00642592
-1.65547e-06
0.00642552
0.00642532
-0.000117627
0.00401247
0.000113442
-0.00012113
0.00412837
-0.000123954
0.00424677
-0.000126109
0.00436681
-0.000127612
0.00448764
-0.000128486
0.00460845
-0.00012876
0.00472845
-0.000128467
0.0048469
-0.000127643
0.00496313
-0.00012633
0.00507651
-0.000124571
0.00518647
-0.00012241
0.00529252
-0.000119895
0.00539424
-0.000117072
0.00549125
-0.000113987
0.00558329
-0.000110686
0.00567013
-0.000107212
0.00575162
-0.000103606
0.00582768
-9.99071e-05
0.00589828
-9.61511e-05
0.00596346
-9.23703e-05
0.00602329
-8.85937e-05
0.00607792
-8.48466e-05
0.00612749
-8.11507e-05
0.00617222
-7.75243e-05
0.00621234
-7.39821e-05
0.00624808
-7.05357e-05
0.00627972
-6.71935e-05
0.00630753
-6.39614e-05
0.00633179
-6.08427e-05
0.00635279
-5.78384e-05
0.0063708
-5.49477e-05
0.00638609
-5.21684e-05
0.00639894
-4.94967e-05
0.00640959
-4.6928e-05
0.00641828
-4.44567e-05
0.00642525
-4.2077e-05
0.00643071
-3.97824e-05
0.00643484
-3.75664e-05
0.00643784
-3.54225e-05
0.00643987
-3.33441e-05
0.00644107
-3.13251e-05
0.00644159
-2.93593e-05
0.00644155
-2.74412e-05
0.00644105
-2.55654e-05
0.0064402
-2.37269e-05
0.00643908
-2.19214e-05
0.00643776
-2.01445e-05
0.00643631
-1.83925e-05
0.0064348
-1.66621e-05
0.00643326
-1.49501e-05
0.00643175
-1.32539e-05
0.00643029
-1.1571e-05
0.00642893
-9.89905e-06
0.00642769
-8.23622e-06
0.00642659
-6.58066e-06
0.00642564
-4.93073e-06
0.00642487
-3.28492e-06
0.00642428
-1.64179e-06
0.00642388
0.00642368
-0.000116659
0.000112497
-0.000120145
-0.000122958
-0.000125108
-0.000126611
-0.000127491
-0.000127775
-0.000127496
-0.000126691
-0.000125399
-0.000123665
-0.000121531
-0.000119045
-0.000116253
-0.000113199
-0.000109929
-0.000106487
-0.000102912
-9.92444e-05
-9.55185e-05
-9.17667e-05
-8.80178e-05
-8.42971e-05
-8.06263e-05
-7.70235e-05
-7.35035e-05
-7.0078e-05
-6.67555e-05
-6.35419e-05
-6.04405e-05
-5.74527e-05
-5.45776e-05
-5.18131e-05
-4.91557e-05
-4.66008e-05
-4.41429e-05
-4.17763e-05
-3.94945e-05
-3.72912e-05
-3.51599e-05
-3.30941e-05
-3.10876e-05
-2.91345e-05
-2.7229e-05
-2.53659e-05
-2.35403e-05
-2.17476e-05
-1.99837e-05
-1.82449e-05
-1.65276e-05
-1.48289e-05
-1.3146e-05
-1.14764e-05
-9.81788e-06
-8.16851e-06
-6.52645e-06
-4.89005e-06
-3.25778e-06
-1.62822e-06
0.00154885
0.000112639
0.00155255
0.000111672
0.00155623
0.000110717
0.00155989
0.000109774
0.000108842
0.00154206
0.000108971
0.00154571
0.000108019
0.00154935
0.000107079
0.00155298
0.00010615
0.000105232
0.00153487
0.000105334
0.00153849
0.000104398
0.0015421
0.000103474
0.00154568
0.00010256
0.000101658
0.00152732
0.000101719
0.00153092
0.000100801
0.0015345
9.98934e-05
0.00153806
9.89969e-05
9.81113e-05
0.00151585
9.90283e-05
0.00151945
9.81176e-05
0.00152304
9.72179e-05
0.0015266
9.63291e-05
0.00153015
9.5451e-05
9.45834e-05
0.00150772
9.54114e-05
0.00151132
9.45213e-05
0.0015149
9.36418e-05
0.00151845
9.2773e-05
0.00152199
9.19146e-05
0.00149937
9.1791e-05
0.00150297
9.09228e-05
0.00150655
9.00651e-05
0.0015101
8.92177e-05
8.83805e-05
0.00149085
8.81602e-05
0.00149445
8.73155e-05
0.00149804
8.64809e-05
0.0015016
8.56564e-05
8.48419e-05
0.0014822
8.45127e-05
0.00148582
8.36929e-05
0.00148942
8.28831e-05
0.00149299
8.2083e-05
8.12926e-05
0.00147348
8.08428e-05
0.00147712
8.00496e-05
0.00148074
7.9266e-05
0.00148433
7.84918e-05
7.7727e-05
0.00146474
7.71457e-05
0.00146841
7.63806e-05
0.00147205
7.56246e-05
0.00147566
7.48779e-05
7.41401e-05
0.00145603
7.34172e-05
0.00145973
7.26816e-05
0.0014634
7.19548e-05
0.00146704
7.12369e-05
7.05277e-05
0.00144365
7.03666e-05
0.00144741
6.96535e-05
0.00145114
6.89489e-05
0.00145485
6.82529e-05
0.00145852
6.75653e-05
6.6886e-05
0.00143513
6.6532e-05
0.00143893
6.58518e-05
0.0014427
6.51798e-05
0.00144644
6.45159e-05
0.00145014
6.38601e-05
6.32122e-05
0.0014268
6.26557e-05
0.00143064
6.20099e-05
0.00143445
6.13719e-05
0.00143822
6.07416e-05
0.00144197
6.0119e-05
5.95039e-05
0.00141871
5.87363e-05
0.00142259
5.81263e-05
0.00142644
5.75237e-05
0.00143025
5.69284e-05
0.00143403
5.63403e-05
0.00141091
5.4773e-05
0.00141483
5.42002e-05
0.00141872
5.36344e-05
0.00142257
5.30754e-05
5.25232e-05
0.00140344
5.07658e-05
0.00140741
5.02315e-05
0.00141134
4.97037e-05
0.00141523
4.91823e-05
4.86673e-05
0.00139635
4.67151e-05
0.00140036
4.62206e-05
0.00140433
4.57321e-05
0.00140827
4.52495e-05
4.47728e-05
0.00138969
4.26222e-05
0.00139374
4.21687e-05
0.00139776
4.17206e-05
0.00140173
4.1278e-05
4.08408e-05
0.0013835
3.84888e-05
0.00138759
3.80773e-05
0.00139164
3.76708e-05
0.00139565
3.72693e-05
3.68726e-05
0.00137781
3.43173e-05
0.00138194
3.39489e-05
0.00138602
3.35849e-05
0.00139007
3.32254e-05
3.28703e-05
0.00137266
3.01106e-05
0.00137682
2.97861e-05
0.00138094
2.94656e-05
0.00138502
2.9149e-05
2.88362e-05
0.00136808
2.58719e-05
0.00137228
2.55922e-05
0.00137642
2.53159e-05
0.00138053
2.5043e-05
2.47735e-05
0.0013641
2.1605e-05
0.00136832
2.13708e-05
0.0013725
2.11395e-05
0.00137663
2.0911e-05
2.06853e-05
0.00136075
1.73141e-05
0.00136499
1.7126e-05
0.00136919
1.69402e-05
0.00137335
1.67567e-05
1.65754e-05
0.00135373
1.31467e-05
0.00135804
1.30035e-05
0.00136231
1.2862e-05
0.00136652
1.27222e-05
0.0013707
1.25841e-05
1.24477e-05
0.00135167
8.77365e-06
0.001356
8.67794e-06
0.00136027
8.58339e-06
0.00136451
8.48998e-06
0.00136869
8.3977e-06
8.30654e-06
0.00135029
4.39027e-06
0.00135462
4.34232e-06
0.00135891
4.29496e-06
0.00136315
4.24816e-06
0.00136735
4.20192e-06
4.15624e-06
0.0013496
0.00135394
0.00135823
0.00136248
0.00136668
)
;

boundaryField
{
    inlet
    {
        type            calculated;
        value           nonuniform 0();
    }
    outlet
    {
        type            calculated;
        value           nonuniform 0();
    }
    cylinder
    {
        type            calculated;
        value           nonuniform 0();
    }
    top
    {
        type            symmetryPlane;
        value           uniform 0;
    }
    bottom
    {
        type            symmetryPlane;
        value           uniform 0;
    }
    defaultFaces
    {
        type            empty;
        value           nonuniform 0();
    }
    procBoundary48to47
    {
        type            processor;
        value           nonuniform List<scalar> 
186
(
-0.00134521
-0.00134591
-0.0013473
-0.00134937
-1.75011e-05
-0.00135646
-0.00135984
-0.00136384
-0.00136845
-0.00137364
-0.00137937
-0.0013856
-0.0013923
-0.00139943
-0.00140694
-0.00141479
-0.00142292
-0.0014313
-0.00143985
-7.41589e-05
-0.0014523
-0.00146104
-0.00146981
-0.00147855
-0.00148722
-0.00149575
-0.00150411
-0.00151223
-0.000102647
-0.0015237
-0.00153123
-0.00153839
-0.00154515
-0.00399559
-0.00411426
-0.00423541
-0.00435816
-0.00448163
-0.00460499
-0.00472742
-0.00484817
-0.00496654
-0.0050819
-0.00519366
-0.00530133
-0.00540448
-0.00550274
-0.00559582
-0.00568353
-0.00576571
-0.0058423
-0.00591327
-0.00597867
-0.0060386
-0.0060932
-0.00614265
-0.00618716
-0.00622699
-0.00626239
-0.00629364
-0.00632102
-0.00634484
-0.00636537
-0.00638292
-0.00639775
-0.00641015
-0.00642036
-0.00642865
-0.00643522
-0.00644031
-0.0064441
-0.00644678
-0.00644852
-0.00644946
-0.00644975
-0.00644949
-0.0064488
-0.00644778
-0.00644651
-0.00644506
-0.0064435
-0.00644189
-0.00644026
-0.00643868
-0.00643716
-0.00643575
-0.00643446
-0.00643332
-0.00643234
-0.00643155
-0.00643094
-0.00643054
-0.00643033
-0.00399559
-0.00411425
-0.00423541
-0.00435816
-0.00448163
-0.00460498
-0.00472741
-0.00484817
-0.00496654
-0.0050819
-0.00519366
-0.00530133
-0.00540447
-0.00550273
-0.00559582
-0.00568353
-0.00576571
-0.00584229
-0.00591326
-0.00597866
-0.00603859
-0.00609319
-0.00614264
-0.00618716
-0.00622699
-0.00626239
-0.00629363
-0.00632102
-0.00634483
-0.00636537
-0.00638291
-0.00639775
-0.00641014
-0.00642036
-0.00642864
-0.00643522
-0.00644031
-0.0064441
-0.00644678
-0.00644852
-0.00644946
-0.00644974
-0.00644949
-0.0064488
-0.00644778
-0.00644651
-0.00644506
-0.0064435
-0.00644188
-0.00644026
-0.00643868
-0.00643716
-0.00643575
-0.00643446
-0.00643332
-0.00643234
-0.00643155
-0.00643094
-0.00643053
-0.00643033
-0.00154514
-0.00153839
-0.00153123
-0.0015237
-0.000102649
-0.00151223
-0.00150411
-0.00149575
-0.00148721
-0.00147855
-0.00146981
-0.00146104
-0.0014523
-7.41617e-05
-0.00143985
-0.0014313
-0.00142292
-0.00141479
-0.00140694
-0.00139943
-0.0013923
-0.0013856
-0.00137936
-0.00137364
-0.00136845
-0.00136384
-0.00135984
-0.00135646
-1.75045e-05
-0.00134937
-0.0013473
-0.00134591
-0.00134521
)
;
    }
    procBoundary48to49
    {
        type            processor;
        value           nonuniform List<scalar> 
185
(
0.00137083
0.0013715
0.00137283
0.00137482
0.00137746
0.00138072
0.00138459
0.00138905
0.00139407
0.00139962
0.00140566
0.00141216
0.00141909
0.00142639
5.5757e-05
0.00143778
0.00144567
0.00145382
0.00146216
0.00147065
0.00147925
0.00148789
0.00149654
0.00150514
8.75516e-05
0.00151715
0.00152551
0.00153368
0.00154161
0.00154926
0.00155659
0.00156355
0.00401664
0.00413186
0.00424959
0.00436896
0.00448915
0.00460933
0.00472873
0.00484663
0.00496233
0.00507522
0.00518474
0.00529039
0.00539175
0.00548847
0.00558024
0.00566686
0.00574818
0.00582411
0.00589461
0.00595973
0.00601954
0.00607417
0.00612378
0.00616856
0.00620874
0.00624456
0.0062763
0.00630421
0.00632858
0.00634969
0.00636781
0.00638322
0.00639617
0.00640693
0.00641573
0.0064228
0.00642834
0.00643256
0.00643564
0.00643774
0.00643901
0.00643959
0.0064396
0.00643915
0.00643834
0.00643725
0.00643597
0.00643455
0.00643306
0.00643154
0.00643005
0.00642861
0.00642726
1.13827e-05
0.00642439
0.0064233
0.00642237
0.00642161
0.00642103
0.00642063
0.00642044
0.00401663
0.00413185
0.00424958
0.00436896
0.00448914
0.00460933
0.00472873
0.00484662
0.00496233
0.00507522
0.00518474
0.00529039
0.00539175
0.00548846
0.00558024
0.00566686
0.00574818
0.0058241
0.00589461
0.00595973
0.00601954
0.00607417
0.00612377
0.00616855
0.00620873
0.00624456
0.00627629
0.00630421
0.00632858
0.00634969
0.00636781
0.00638322
0.00639617
0.00640693
0.00641573
0.0064228
0.00642834
0.00643256
0.00643564
0.00643774
0.00643901
0.00643959
0.0064396
0.00643915
0.00643834
0.00643725
0.00643597
0.00643455
0.00643306
0.00643154
0.00643005
0.00642861
0.00642726
0.00642603
0.00642494
0.006424
0.00642323
0.00642264
0.00642225
0.00642205
0.00156355
0.00155659
0.00154926
0.00154161
0.00153367
0.00152551
9.10666e-05
0.00151364
0.00150514
0.00149654
0.00148789
0.00147925
0.00147065
0.00146216
0.00145382
0.00144567
0.00143778
5.57594e-05
0.00142639
0.00141909
0.00141216
0.00140566
0.00139962
0.00139407
0.00138905
0.00138459
0.00138072
0.00137746
0.00137482
0.00137283
0.0013715
0.00137083
)
;
    }
}


// ************************************************************************* //
