/*--------------------------------*- C++ -*----------------------------------*\
  =========                 |
  \\      /  F ield         | OpenFOAM: The Open Source CFD Toolbox
   \\    /   O peration     | Website:  https://openfoam.org
    \\  /    A nd           | Version:  7
     \\/     M anipulation  |
\*---------------------------------------------------------------------------*/
FoamFile
{
    version     2.0;
    format      ascii;
    class       volScalarField;
    location    "20";
    object      p;
}
// * * * * * * * * * * * * * * * * * * * * * * * * * * * * * * * * * * * * * //

dimensions      [0 2 -2 0 0 0 0];

internalField   nonuniform List<scalar> 
25088
(
-0.315815
-0.317895
-0.319626
-0.32098
-0.322115
-0.323041
-0.323743
-0.324218
-0.324465
-0.324486
-0.324281
-0.323851
-0.323198
-0.322326
-0.321238
-0.319938
-0.318434
-0.316731
-0.314837
-0.312761
-0.310513
-0.308095
-0.305498
-0.302848
-0.31635
-0.318404
-0.320109
-0.32144
-0.322553
-0.323457
-0.324137
-0.32459
-0.324817
-0.324817
-0.324591
-0.324141
-0.323468
-0.322577
-0.321469
-0.320151
-0.318628
-0.316907
-0.314996
-0.312904
-0.310642
-0.308211
-0.30559
-0.302938
-0.317419
-0.319417
-0.321072
-0.322358
-0.323426
-0.324286
-0.324923
-0.325334
-0.325518
-0.325477
-0.32521
-0.324719
-0.324007
-0.323076
-0.321931
-0.320575
-0.319015
-0.317258
-0.315312
-0.313187
-0.310898
-0.308439
-0.305771
-0.303115
-0.319016
-0.320933
-0.322513
-0.323731
-0.324732
-0.325526
-0.326098
-0.326444
-0.326566
-0.326462
-0.326134
-0.325583
-0.324811
-0.323822
-0.322618
-0.321205
-0.319589
-0.317777
-0.315779
-0.313605
-0.311273
-0.308773
-0.306033
-0.303369
-0.321133
-0.322942
-0.324423
-0.325551
-0.326465
-0.327171
-0.327656
-0.327918
-0.327955
-0.327769
-0.327359
-0.326727
-0.325876
-0.324807
-0.323525
-0.322036
-0.320345
-0.31846
-0.31639
-0.314149
-0.311759
-0.309204
-0.306367
-0.303688
-0.323761
-0.325437
-0.326796
-0.327813
-0.328617
-0.329214
-0.329592
-0.329747
-0.32968
-0.32939
-0.328878
-0.328145
-0.327193
-0.326026
-0.324646
-0.32306
-0.321274
-0.319296
-0.317137
-0.31481
-0.312345
-0.30972
-0.306756
-0.304029
-0.326889
-0.328408
-0.329622
-0.330507
-0.33118
-0.331648
-0.331897
-0.331925
-0.331733
-0.331319
-0.330684
-0.329829
-0.328757
-0.327471
-0.325973
-0.32427
-0.322369
-0.320278
-0.318008
-0.315576
-0.313018
-0.310306
-0.307176
-0.304317
-0.330506
-0.331844
-0.332891
-0.333624
-0.334146
-0.334463
-0.334563
-0.334444
-0.334105
-0.333547
-0.332769
-0.331773
-0.33056
-0.329133
-0.327497
-0.325656
-0.323619
-0.321394
-0.318992
-0.316435
-0.313766
-0.310947
-0.30765
-0.304842
-0.334598
-0.335733
-0.336592
-0.337152
-0.337503
-0.337649
-0.33758
-0.337294
-0.336789
-0.336066
-0.335125
-0.333966
-0.332593
-0.331006
-0.32921
-0.327211
-0.325015
-0.322634
-0.320078
-0.317373
-0.314573
-0.311624
-0.308119
-0.305316
-0.339152
-0.340063
-0.340714
-0.341082
-0.341242
-0.341198
-0.340939
-0.340465
-0.339774
-0.338867
-0.337742
-0.336402
-0.334847
-0.33308
-0.331104
-0.328925
-0.326549
-0.323989
-0.321256
-0.318378
-0.315422
-0.31232
-0.308569
-0.305733
-0.344155
-0.344821
-0.345243
-0.345401
-0.345351
-0.345097
-0.34463
-0.343949
-0.343053
-0.341941
-0.340614
-0.339073
-0.337317
-0.335349
-0.333172
-0.330791
-0.328214
-0.32545
-0.322514
-0.319438
-0.316299
-0.313019
-0.308981
-0.306086
-0.349596
-0.349995
-0.350169
-0.350098
-0.34982
-0.349336
-0.348642
-0.347735
-0.346614
-0.34528
-0.343732
-0.34197
-0.339995
-0.337807
-0.33541
-0.332806
-0.330004
-0.327013
-0.323848
-0.320543
-0.317192
-0.313701
-0.309329
-0.306354
-0.35546
-0.355574
-0.35548
-0.355161
-0.354636
-0.353906
-0.352965
-0.351814
-0.350451
-0.348876
-0.347089
-0.345089
-0.342875
-0.34045
-0.337813
-0.334967
-0.331918
-0.328676
-0.325253
-0.321689
-0.318092
-0.314352
-0.30959
-0.306507
-0.361737
-0.361544
-0.361163
-0.360579
-0.35979
-0.358793
-0.357589
-0.356176
-0.354553
-0.352721
-0.350677
-0.348423
-0.345955
-0.343275
-0.340381
-0.337274
-0.333958
-0.330441
-0.326733
-0.322876
-0.318993
-0.314959
-0.309742
-0.306483
-0.368414
-0.367893
-0.367207
-0.366339
-0.365267
-0.363988
-0.362503
-0.360812
-0.358913
-0.356807
-0.354492
-0.351968
-0.349232
-0.346282
-0.343115
-0.339731
-0.336129
-0.332315
-0.328294
-0.324109
-0.319898
-0.315519
-0.309765
-0.306284
-0.375478
-0.374609
-0.373597
-0.372429
-0.371058
-0.369479
-0.367697
-0.365711
-0.363522
-0.361128
-0.358529
-0.355722
-0.352705
-0.349473
-0.346022
-0.342347
-0.338444
-0.334313
-0.329954
-0.325405
-0.320819
-0.316029
-0.309638
-0.305837
-0.382914
-0.381677
-0.38032
-0.378835
-0.377148
-0.375254
-0.373159
-0.370865
-0.368371
-0.365677
-0.362781
-0.359681
-0.356373
-0.352851
-0.349107
-0.345132
-0.340918
-0.336456
-0.331737
-0.326791
-0.321777
-0.316503
-0.309347
-0.305085
-0.390708
-0.38908
-0.387361
-0.385542
-0.383523
-0.381299
-0.378878
-0.376262
-0.373451
-0.370446
-0.367244
-0.363843
-0.360238
-0.35642
-0.35238
-0.348102
-0.343573
-0.338773
-0.333679
-0.328307
-0.322816
-0.316969
-0.308887
-0.303964
-0.39884
-0.396802
-0.394702
-0.392534
-0.390169
-0.3876
-0.38484
-0.381891
-0.378753
-0.375428
-0.371913
-0.368206
-0.3643
-0.360186
-0.35585
-0.351274
-0.346435
-0.341301
-0.33583
-0.330014
-0.324001
-0.317487
-0.308277
-0.302392
-0.407289
-0.404821
-0.402323
-0.399791
-0.397066
-0.394141
-0.39103
-0.387738
-0.384266
-0.380614
-0.376781
-0.372765
-0.368559
-0.364153
-0.35953
-0.354667
-0.349533
-0.344084
-0.338253
-0.332
-0.325441
-0.31818
-0.307616
-0.30033
-0.416028
-0.413112
-0.410201
-0.407292
-0.404197
-0.400904
-0.397434
-0.393791
-0.389977
-0.385994
-0.381841
-0.377516
-0.373014
-0.368323
-0.363425
-0.358296
-0.352898
-0.347172
-0.341027
-0.334379
-0.327298
-0.319261
-0.307129
-0.297793
-0.425028
-0.421649
-0.418311
-0.415015
-0.411538
-0.407871
-0.404034
-0.400034
-0.395873
-0.391556
-0.387082
-0.382451
-0.377658
-0.372694
-0.367542
-0.362177
-0.356557
-0.350615
-0.344235
-0.337285
-0.329761
-0.320937
-0.306837
-0.294236
-0.434255
-0.4304
-0.426625
-0.422932
-0.419068
-0.415018
-0.410808
-0.406447
-0.401938
-0.397285
-0.392491
-0.387557
-0.382482
-0.377259
-0.371876
-0.366311
-0.360529
-0.354461
-0.347983
-0.340924
-0.333168
-0.323563
-0.306716
-0.288415
-0.443672
-0.439332
-0.435111
-0.431017
-0.426759
-0.422323
-0.417737
-0.413013
-0.408153
-0.403165
-0.398052
-0.392821
-0.387471
-0.382003
-0.376413
-0.370689
-0.364812
-0.358744
-0.352398
-0.345664
-0.338391
-0.3292
-0.312367
-0.290901
-0.453239
-0.448407
-0.443737
-0.439237
-0.434583
-0.429759
-0.424796
-0.419708
-0.414498
-0.409175
-0.403747
-0.398221
-0.392603
-0.386899
-0.381116
-0.37526
-0.36934
-0.363369
-0.357373
-0.351442
-0.345712
-0.34007
-0.336163
-0.346279
-0.462913
-0.457587
-0.452466
-0.44756
-0.44251
-0.437298
-0.43196
-0.426508
-0.420951
-0.415295
-0.409553
-0.403734
-0.397849
-0.39191
-0.385934
-0.379942
-0.373968
-0.368066
-0.362338
-0.356982
-0.352218
-0.348359
-0.348955
-0.362025
-0.47265
-0.466831
-0.461261
-0.45595
-0.450507
-0.44491
-0.4392
-0.433389
-0.427486
-0.421501
-0.415446
-0.409334
-0.403179
-0.396999
-0.390817
-0.384666
-0.378591
-0.372669
-0.367029
-0.361886
-0.357421
-0.353938
-0.354873
-0.364568
-0.482404
-0.476097
-0.470081
-0.464371
-0.45854
-0.452563
-0.446485
-0.44032
-0.434076
-0.427765
-0.421399
-0.414994
-0.408565
-0.402134
-0.395727
-0.389381
-0.383151
-0.377114
-0.371401
-0.366206
-0.361647
-0.357954
-0.358164
-0.364579
-0.492129
-0.48534
-0.478884
-0.472783
-0.46657
-0.460222
-0.453784
-0.447271
-0.440692
-0.434059
-0.427385
-0.420685
-0.413976
-0.407281
-0.400626
-0.39405
-0.387605
-0.381363
-0.37544
-0.369992
-0.36507
-0.360817
-0.359877
-0.363293
-0.501776
-0.494512
-0.487627
-0.481142
-0.474558
-0.467847
-0.461058
-0.454207
-0.4473
-0.44035
-0.43337
-0.426374
-0.419379
-0.412406
-0.40548
-0.398636
-0.391919
-0.385391
-0.379143
-0.373289
-0.367817
-0.362793
-0.360537
-0.361282
-0.511294
-0.503566
-0.496261
-0.489403
-0.482459
-0.475397
-0.468268
-0.461088
-0.453862
-0.446602
-0.439319
-0.432025
-0.424737
-0.417471
-0.41025
-0.403102
-0.396061
-0.389176
-0.382511
-0.376138
-0.369998
-0.364102
-0.360506
-0.358914
-0.520629
-0.512447
-0.504735
-0.497516
-0.490225
-0.482825
-0.47537
-0.467872
-0.460337
-0.452772
-0.445189
-0.437597
-0.430008
-0.422435
-0.414895
-0.407408
-0.399997
-0.392694
-0.385539
-0.378569
-0.371688
-0.364877
-0.359975
-0.356312
-0.529721
-0.521099
-0.512992
-0.505428
-0.497804
-0.490081
-0.482312
-0.474509
-0.466675
-0.458814
-0.450934
-0.443042
-0.435145
-0.42725
-0.419368
-0.411509
-0.403687
-0.395915
-0.388214
-0.38059
-0.372926
-0.36519
-0.359029
-0.353512
-0.538508
-0.529459
-0.520973
-0.513078
-0.505138
-0.497108
-0.489041
-0.480947
-0.472824
-0.464674
-0.456501
-0.448307
-0.440093
-0.431863
-0.423617
-0.415357
-0.407086
-0.398803
-0.39051
-0.382194
-0.373726
-0.365071
-0.357706
-0.350511
-0.54692
-0.537459
-0.528612
-0.520403
-0.512164
-0.503845
-0.495496
-0.487124
-0.478724
-0.470294
-0.461831
-0.453333
-0.444795
-0.436214
-0.427583
-0.418896
-0.410144
-0.401314
-0.392397
-0.383362
-0.37408
-0.364522
-0.356007
-0.347291
-0.55488
-0.545027
-0.535836
-0.527333
-0.518815
-0.510224
-0.501611
-0.492977
-0.484312
-0.475608
-0.466859
-0.458054
-0.449185
-0.44024
-0.431205
-0.422065
-0.412804
-0.4034
-0.393831
-0.384061
-0.373965
-0.363526
-0.353915
-0.34382
-0.562308
-0.552081
-0.542569
-0.533793
-0.525016
-0.516174
-0.507315
-0.498434
-0.489516
-0.480547
-0.471514
-0.462401
-0.453193
-0.44387
-0.434413
-0.4248
-0.415005
-0.405002
-0.394765
-0.384252
-0.373348
-0.362052
-0.351401
-0.340055
-0.569114
-0.558539
-0.548728
-0.539701
-0.530687
-0.521616
-0.51253
-0.503419
-0.49426
-0.485034
-0.475721
-0.466298
-0.456743
-0.447031
-0.437135
-0.427028
-0.416681
-0.406062
-0.395143
-0.383884
-0.372185
-0.36006
-0.348423
-0.335948
-0.575205
-0.564307
-0.554224
-0.544971
-0.535746
-0.526468
-0.517175
-0.507851
-0.498464
-0.488989
-0.479399
-0.469664
-0.459755
-0.449643
-0.439294
-0.428677
-0.417761
-0.406513
-0.394906
-0.382905
-0.370428
-0.357505
-0.344937
-0.331447
-0.580481
-0.569291
-0.558965
-0.549514
-0.540103
-0.530643
-0.521165
-0.511644
-0.502043
-0.492328
-0.482463
-0.472415
-0.462147
-0.451623
-0.440809
-0.429669
-0.418172
-0.406287
-0.393991
-0.381257
-0.368022
-0.354335
-0.340893
-0.326496
-0.58484
-0.573391
-0.562855
-0.553234
-0.543666
-0.534049
-0.524408
-0.514709
-0.504907
-0.49496
-0.484826
-0.474463
-0.463831
-0.452888
-0.441598
-0.429926
-0.417839
-0.405314
-0.392333
-0.37888
-0.364914
-0.3505
-0.33624
-0.321038
-0.588173
-0.576504
-0.565793
-0.556036
-0.54634
-0.536593
-0.526811
-0.516954
-0.506965
-0.496795
-0.486396
-0.475718
-0.464717
-0.45335
-0.441577
-0.429365
-0.416687
-0.403523
-0.389866
-0.375713
-0.361046
-0.345945
-0.330926
-0.315018
-0.590374
-0.578526
-0.567678
-0.557818
-0.548025
-0.538177
-0.52828
-0.518283
-0.508123
-0.49774
-0.48708
-0.476089
-0.464718
-0.452922
-0.440662
-0.427908
-0.414638
-0.400843
-0.386526
-0.371698
-0.356364
-0.34062
-0.324901
-0.308381
-0.591331
-0.57935
-0.568407
-0.55848
-0.548625
-0.538704
-0.528716
-0.518601
-0.508284
-0.497699
-0.486785
-0.475483
-0.463741
-0.451515
-0.438768
-0.425474
-0.41162
-0.397206
-0.382249
-0.366776
-0.350816
-0.334475
-0.318119
-0.301077
-0.590937
-0.578872
-0.567878
-0.557922
-0.548038
-0.538077
-0.528024
-0.517811
-0.507353
-0.496578
-0.485417
-0.473808
-0.461699
-0.449045
-0.435814
-0.421987
-0.40756
-0.392546
-0.376975
-0.360893
-0.344351
-0.327465
-0.310536
-0.29306
-0.589085
-0.576988
-0.565989
-0.556045
-0.546168
-0.536197
-0.526107
-0.515817
-0.505237
-0.494283
-0.482884
-0.470976
-0.458504
-0.445428
-0.431721
-0.417372
-0.40239
-0.386801
-0.37065
-0.353999
-0.336924
-0.31955
-0.302113
-0.284288
-0.58567
-0.573596
-0.562643
-0.55275
-0.542918
-0.53297
-0.52287
-0.512527
-0.501841
-0.490723
-0.479098
-0.466898
-0.454073
-0.440585
-0.426414
-0.411562
-0.396048
-0.379914
-0.363221
-0.34605
-0.328496
-0.310692
-0.292816
-0.274725
-0.580595
-0.568602
-0.557743
-0.547945
-0.538195
-0.528304
-0.518223
-0.50785
-0.497078
-0.485811
-0.473972
-0.461494
-0.448327
-0.434441
-0.419825
-0.404492
-0.388476
-0.371834
-0.354645
-0.337005
-0.319032
-0.300862
-0.282617
-0.264343
-0.573767
-0.561913
-0.551202
-0.541542
-0.531913
-0.522113
-0.512079
-0.501701
-0.490862
-0.479465
-0.467427
-0.454685
-0.441193
-0.426928
-0.411891
-0.396106
-0.379624
-0.362518
-0.344882
-0.326833
-0.308504
-0.290036
-0.271494
-0.253117
-0.5651
-0.553448
-0.542936
-0.533459
-0.52399
-0.514314
-0.504357
-0.493998
-0.483116
-0.471607
-0.459389
-0.446401
-0.432605
-0.417985
-0.402555
-0.386354
-0.369448
-0.351928
-0.333903
-0.315506
-0.296891
-0.278195
-0.25943
-0.24103
-0.55452
-0.54313
-0.532872
-0.52362
-0.51435
-0.504834
-0.494984
-0.484671
-0.473767
-0.462168
-0.449792
-0.436581
-0.422505
-0.40756
-0.391772
-0.375196
-0.357915
-0.340035
-0.321684
-0.303008
-0.284177
-0.265327
-0.246416
-0.22807
-0.54196
-0.530895
-0.520944
-0.511962
-0.502929
-0.493607
-0.483894
-0.473654
-0.462754
-0.451089
-0.438578
-0.42517
-0.410844
-0.395608
-0.379503
-0.362599
-0.344997
-0.326819
-0.308208
-0.289325
-0.270355
-0.251429
-0.232448
-0.214232
-0.527366
-0.516688
-0.507097
-0.498427
-0.489671
-0.480576
-0.471032
-0.460893
-0.450024
-0.438317
-0.4257
-0.412125
-0.397584
-0.382096
-0.36572
-0.348541
-0.330677
-0.312266
-0.293468
-0.274454
-0.255423
-0.236499
-0.217526
-0.199515
-0.510697
-0.500467
-0.491287
-0.482973
-0.47453
-0.465698
-0.456353
-0.446344
-0.435532
-0.423814
-0.41112
-0.397413
-0.382695
-0.367001
-0.350404
-0.333008
-0.314947
-0.296375
-0.277463
-0.258397
-0.239386
-0.220544
-0.201658
-0.183923
-0.491925
-0.482202
-0.473484
-0.465565
-0.457473
-0.448937
-0.439822
-0.429972
-0.419249
-0.407551
-0.394814
-0.381013
-0.366161
-0.35031
-0.333549
-0.315999
-0.297808
-0.279149
-0.260203
-0.241165
-0.222254
-0.203577
-0.184858
-0.167471
-0.471035
-0.461877
-0.453669
-0.446186
-0.43848
-0.430272
-0.421419
-0.411759
-0.401155
-0.38951
-0.376768
-0.362915
-0.347977
-0.332024
-0.315158
-0.29752
-0.279273
-0.260603
-0.241702
-0.222773
-0.204046
-0.185614
-0.167145
-0.150179
-0.448028
-0.43949
-0.431837
-0.424827
-0.417542
-0.409696
-0.401135
-0.391697
-0.381245
-0.369689
-0.356982
-0.343123
-0.328151
-0.312152
-0.295247
-0.277591
-0.259363
-0.24076
-0.221984
-0.203247
-0.184781
-0.166675
-0.148534
-0.132021
-0.42292
-0.415053
-0.408
-0.401499
-0.394666
-0.387212
-0.378975
-0.369791
-0.359527
-0.348098
-0.33547
-0.321653
-0.306702
-0.29072
-0.273842
-0.25624
-0.238108
-0.219652
-0.201083
-0.182616
-0.16449
-0.146786
-0.129027
-0.112892
-0.395743
-0.388595
-0.382182
-0.376221
-0.369872
-0.362842
-0.35496
-0.346062
-0.336021
-0.324761
-0.312258
-0.298535
-0.283664
-0.267762
-0.250983
-0.23351
-0.215551
-0.197322
-0.179039
-0.160921
-0.143214
-0.125987
-0.108668
-0.0928794
-0.366542
-0.360157
-0.35442
-0.349032
-0.343196
-0.336618
-0.329121
-0.320544
-0.310764
-0.299716
-0.287386
-0.273812
-0.259082
-0.243328
-0.226719
-0.209451
-0.191743
-0.17382
-0.155902
-0.138211
-0.120997
-0.104306
-0.0874885
-0.0725618
-0.335379
-0.329797
-0.32477
-0.319981
-0.314686
-0.308588
-0.301508
-0.293285
-0.283806
-0.273014
-0.260908
-0.247541
-0.233016
-0.21748
-0.201113
-0.184127
-0.166748
-0.149207
-0.131729
-0.114537
-0.0978848
-0.0817945
-0.0655497
-0.0513849
-0.302329
-0.297585
-0.293298
-0.289134
-0.284404
-0.278815
-0.272181
-0.264348
-0.255209
-0.244719
-0.232891
-0.219792
-0.205538
-0.190289
-0.174241
-0.157613
-0.140639
-0.123556
-0.106588
-0.089961
-0.0739294
-0.0585001
-0.042881
-0.0294399
-0.267481
-0.263607
-0.260085
-0.25657
-0.252429
-0.247374
-0.241217
-0.233808
-0.225051
-0.214912
-0.203417
-0.190647
-0.176731
-0.161843
-0.146188
-0.129995
-0.113501
-0.0969474
-0.0805568
-0.0645529
-0.0491935
-0.0344715
-0.019513
-0.00678365
-0.230938
-0.22796
-0.225227
-0.222379
-0.218849
-0.214353
-0.208703
-0.201754
-0.193421
-0.183683
-0.172578
-0.1602
-0.146692
-0.132239
-0.117054
-0.101371
-0.0854327
-0.0694768
-0.0537248
-0.0383962
-0.0237499
-0.00976724
0.0045148
0.0165597
-0.192814
-0.190754
-0.188829
-0.186667
-0.183768
-0.179855
-0.17474
-0.168286
-0.160421
-0.151134
-0.140477
-0.128557
-0.115529
-0.101586
-0.086948
-0.071853
-0.0565428
-0.0412523
-0.0261968
-0.0115888
0.00231375
0.0155409
0.0291526
0.0405722
-0.153234
-0.152111
-0.15101
-0.149549
-0.147299
-0.143991
-0.13944
-0.133519
-0.126164
-0.11738
-0.107231
-0.0958352
-0.0833587
-0.070002
-0.0559903
-0.0415613
-0.0269541
-0.012397
0.00190541
0.015752
0.0288897
0.0413613
0.054337
0.065246
-0.112335
-0.112163
-0.111899
-0.111153
-0.109568
-0.106887
-0.102929
-0.097574
-0.0907738
-0.0825443
-0.0729624
-0.0621586
-0.0503071
-0.0376149
-0.0243096
-0.0106273
0.00319898
0.0169516
0.0304409
0.0434839
0.0558392
0.0675671
0.0799734
0.0905737
-0.0702601
-0.0710537
-0.0716354
-0.0716146
-0.0707094
-0.0686768
-0.0653374
-0.0605846
-0.0543818
-0.0467585
-0.0378039
-0.027659
-0.0165062
-0.00455733
0.00795913
0.0208108
0.0337732
0.0466424
0.0592485
0.0714343
0.0829801
0.0939723
0.105891
0.116453
-0.0271666
-0.0289318
-0.0303682
-0.0310816
-0.0308696
-0.0295033
-0.026809
-0.0226916
-0.0171284
-0.0101618
-0.00189295
0.00752695
0.0179082
0.0290351
0.0406792
0.0526129
0.0646216
0.076517
0.0881529
0.0994059
0.110093
0.120337
0.131821
0.142629
0.0167844
0.0140417
0.0117453
0.0102906
0.00979833
0.0104811
0.0125063
0.0159563
0.0208399
0.0271016
0.0346284
0.0432598
0.0527991
0.0630273
0.0737161
0.0846424
0.0956006
0.106418
0.116972
0.127181
0.136928
0.146398
0.1575
0.169176
0.0614222
0.0576988
0.0545396
0.0523386
0.0511328
0.0511169
0.052451
0.0552042
0.0593709
0.0648826
0.0716151
0.0793988
0.0880308
0.0972884
0.106943
0.116773
0.126579
0.136196
0.145515
0.154489
0.163091
0.171591
0.182155
0.19595
0.106569
0.101864
0.0978418
0.0948916
0.0929651
0.0922379
0.0928614
0.0948912
0.0983073
0.103029
0.10892
0.115803
0.12347
0.131694
0.140245
0.148901
0.15746
0.165749
0.173638
0.181059
0.187993
0.194503
0.202089
0.215022
0.152038
0.146356
0.141472
0.137772
0.13512
0.133672
0.133568
0.134852
0.137488
0.141384
0.146394
0.152333
0.158988
0.166129
0.173525
0.180954
0.188206
0.195093
0.201439
0.207098
0.211905
0.214993
0.21395
0.212376
0.19764
0.190985
0.185245
0.180797
0.177418
0.17524
0.174397
0.174916
0.176748
0.179789
0.183885
0.188845
0.194452
0.200476
0.206688
0.212866
0.218806
0.224317
0.229222
0.233384
0.236681
0.238361
0.236637
0.236587
0.243176
0.235558
0.22897
0.223779
0.219673
0.216762
0.21517
0.214909
0.215918
0.218082
0.221239
0.225193
0.229727
0.234613
0.239624
0.244547
0.249184
0.253355
0.2569
0.259709
0.261694
0.262271
0.260501
0.261893
0.288446
0.279878
0.272452
0.266526
0.261696
0.258052
0.255705
0.254655
0.254827
0.256096
0.258296
0.261227
0.264672
0.268407
0.272212
0.275882
0.279232
0.282095
0.284333
0.285861
0.28661
0.286089
0.283758
0.284997
0.333245
0.323742
0.315493
0.308842
0.303296
0.298921
0.295818
0.293973
0.2933
0.293665
0.294896
0.296793
0.299141
0.30172
0.304321
0.306748
0.308828
0.310414
0.311386
0.311681
0.311255
0.309685
0.306624
0.307097
0.377365
0.36695
0.357896
0.350533
0.344281
0.339181
0.335326
0.332686
0.331164
0.33062
0.330878
0.331737
0.332986
0.334412
0.335815
0.337011
0.337843
0.338178
0.337915
0.337012
0.33544
0.332837
0.328966
0.328458
0.420601
0.409298
0.39946
0.391403
0.384458
0.378644
0.374042
0.370611
0.368244
0.366792
0.366078
0.365902
0.366057
0.366339
0.366557
0.36654
0.366144
0.365253
0.363783
0.361705
0.359005
0.355365
0.350627
0.349035
0.462747
0.450586
0.439989
0.431257
0.423635
0.417122
0.411785
0.407572
0.404366
0.402014
0.400336
0.399135
0.398208
0.39736
0.39641
0.395202
0.393603
0.391513
0.388861
0.385632
0.381821
0.377148
0.371515
0.368786
0.503602
0.490615
0.479287
0.469903
0.461626
0.45443
0.448373
0.443393
0.439362
0.436123
0.433495
0.431283
0.429293
0.427336
0.425243
0.422869
0.420096
0.416836
0.413032
0.408679
0.403778
0.398087
0.391551
0.387667
0.542968
0.529192
0.517164
0.507155
0.498245
0.490388
0.483632
0.477902
0.473065
0.468958
0.4654
0.462201
0.459171
0.456132
0.452926
0.449419
0.445506
0.44111
0.436189
0.430742
0.424781
0.418094
0.410666
0.405629
0.580654
0.566128
0.553436
0.54283
0.533314
0.524821
0.517389
0.510934
0.505314
0.500364
0.495904
0.491746
0.487708
0.483622
0.479338
0.474736
0.469722
0.464231
0.458231
0.45173
0.444743
0.437094
0.428794
0.422623
0.616478
0.601245
0.587924
0.576753
0.566661
0.557561
0.549481
0.542329
0.535956
0.530194
0.524864
0.519783
0.514775
0.509681
0.504363
0.498711
0.492642
0.486103
0.479069
0.471558
0.463588
0.455015
0.445874
0.4386
0.650263
0.634369
0.62046
0.608757
0.598122
0.588446
0.579752
0.571935
0.564843
0.558306
0.552145
0.546183
0.54025
0.534196
0.527893
0.521242
0.51417
0.506634
0.49862
0.490148
0.481245
0.471795
0.461851
0.453518
0.681845
0.665337
0.650882
0.638683
0.62754
0.617325
0.608051
0.599608
0.591837
0.584567
0.57762
0.570825
0.564018
0.557058
0.549826
0.542233
0.534217
0.525744
0.516807
0.507433
0.497651
0.487377
0.476674
0.467335
0.711069
0.693998
0.67904
0.666385
0.654771
0.644055
0.634242
0.625214
0.616809
0.608852
0.601172
0.593597
0.585974
0.578168
0.57007
0.561599
0.552703
0.543357
0.533562
0.523347
0.512749
0.501707
0.490296
0.480015
0.737794
0.72021
0.704795
0.691723
0.679679
0.668503
0.658194
0.648628
0.639637
0.631048
0.622689
0.614396
0.606019
0.597433
0.588537
0.579258
0.569554
0.559405
0.54882
0.537833
0.526485
0.51474
0.502677
0.491522
0.761887
0.743844
0.72802
0.714573
0.702142
0.69055
0.679791
0.669736
0.660213
0.651049
0.642073
0.633127
0.624066
0.614771
0.605151
0.59514
0.584701
0.573826
0.562526
0.55084
0.538813
0.526432
0.513777
0.501828
0.783232
0.764785
0.748599
0.734822
0.722046
0.710085
0.698926
0.688435
0.678438
0.66876
0.659235
0.649705
0.640034
0.630108
0.619842
0.609178
0.598087
0.586565
0.57463
0.562322
0.549692
0.536745
0.523563
0.510904
0.801724
0.782929
0.766431
0.752367
0.739294
0.727013
0.715506
0.704635
0.694224
0.684099
0.674094
0.664055
0.653852
0.643376
0.632548
0.621317
0.609658
0.597574
0.585086
0.572239
0.559085
0.545647
0.532007
0.518728
0.817273
0.798187
0.781427
0.767124
0.7538
0.741249
0.729448
0.718257
0.707496
0.696993
0.686582
0.676114
0.665461
0.654521
0.643218
0.631508
0.61937
0.606811
0.593858
0.580556
0.56696
0.553109
0.539082
0.525279
0.829804
0.810484
0.793514
0.779018
0.765492
0.752723
0.740685
0.729234
0.718191
0.707381
0.696642
0.685827
0.67481
0.663494
0.651808
0.63971
0.627185
0.614243
0.600913
0.587244
0.573291
0.559107
0.544767
0.53054
0.839257
0.81976
0.802632
0.78799
0.774312
0.761378
0.749161
0.737515
0.726257
0.715215
0.704228
0.693149
0.681857
0.670257
0.65828
0.64589
0.633072
0.619841
0.606227
0.59228
0.578059
0.563622
0.549046
0.534498
0.845584
0.825969
0.808736
0.793997
0.780217
0.767172
0.754835
0.743057
0.731656
0.720459
0.709304
0.698049
0.686573
0.674782
0.662611
0.650023
0.63701
0.623585
0.60978
0.595647
0.581245
0.56664
0.551906
0.537142
0.848755
0.829081
0.811795
0.797007
0.783176
0.770077
0.757679
0.745835
0.734362
0.723086
0.711848
0.700505
0.688936
0.677049
0.66478
0.652094
0.638983
0.62546
0.61156
0.597334
0.582841
0.568152
0.553338
0.538466
0.848755
0.829081
0.811795
0.797007
0.783176
0.770077
0.757679
0.745835
0.734362
0.723086
0.711848
0.700505
0.688936
0.677049
0.66478
0.652094
0.638983
0.62546
0.61156
0.597334
0.582841
0.568152
0.553338
0.538466
0.845584
0.825969
0.808736
0.793997
0.780217
0.767172
0.754835
0.743057
0.731656
0.720459
0.709304
0.698049
0.686573
0.674782
0.662611
0.650023
0.63701
0.623584
0.60978
0.595647
0.581245
0.56664
0.551906
0.537142
0.839257
0.81976
0.802632
0.78799
0.774312
0.761378
0.749161
0.737515
0.726257
0.715215
0.704228
0.693149
0.681857
0.670257
0.65828
0.64589
0.633072
0.619841
0.606227
0.59228
0.578059
0.563622
0.549046
0.534498
0.829804
0.810484
0.793514
0.779018
0.765492
0.752723
0.740685
0.729234
0.718191
0.707381
0.696642
0.685827
0.67481
0.663494
0.651808
0.63971
0.627185
0.614243
0.600913
0.587244
0.573291
0.559107
0.544767
0.53054
0.817273
0.798187
0.781427
0.767124
0.7538
0.741249
0.729448
0.718257
0.707496
0.696993
0.686582
0.676114
0.665461
0.654521
0.643218
0.631508
0.61937
0.606811
0.593858
0.580556
0.56696
0.553109
0.539082
0.525279
0.801724
0.782929
0.766431
0.752367
0.739294
0.727013
0.715506
0.704635
0.694224
0.684099
0.674094
0.664055
0.653852
0.643376
0.632548
0.621317
0.609658
0.597574
0.585086
0.572239
0.559085
0.545647
0.532007
0.518728
0.783232
0.764785
0.748599
0.734822
0.722046
0.710085
0.698926
0.688435
0.678438
0.66876
0.659235
0.649705
0.640033
0.630108
0.619842
0.609178
0.598087
0.586565
0.57463
0.562322
0.549692
0.536745
0.523563
0.510904
0.761887
0.743844
0.72802
0.714573
0.702142
0.69055
0.679791
0.669736
0.660213
0.651049
0.642073
0.633127
0.624066
0.614771
0.605151
0.59514
0.584701
0.573826
0.562526
0.55084
0.538813
0.526432
0.513777
0.501828
0.737794
0.72021
0.704795
0.691723
0.679679
0.668503
0.658194
0.648628
0.639637
0.631048
0.622689
0.614396
0.606019
0.597433
0.588537
0.579258
0.569554
0.559405
0.54882
0.537833
0.526485
0.51474
0.502677
0.491522
0.711069
0.693998
0.67904
0.666385
0.654771
0.644055
0.634242
0.625214
0.616808
0.608852
0.601172
0.593597
0.585974
0.578168
0.57007
0.561599
0.552703
0.543357
0.533562
0.523347
0.512749
0.501707
0.490296
0.480015
0.681845
0.665337
0.650882
0.638683
0.62754
0.617325
0.608051
0.599608
0.591837
0.584567
0.57762
0.570825
0.564018
0.557058
0.549826
0.542233
0.534217
0.525744
0.516807
0.507433
0.497651
0.487377
0.476674
0.467335
0.650263
0.634368
0.62046
0.608757
0.598122
0.588446
0.579752
0.571935
0.564843
0.558306
0.552145
0.546182
0.54025
0.534196
0.527893
0.521242
0.51417
0.506634
0.49862
0.490148
0.481245
0.471795
0.461851
0.453518
0.616478
0.601245
0.587924
0.576753
0.566661
0.557561
0.549481
0.542329
0.535956
0.530194
0.524864
0.519783
0.514775
0.509681
0.504363
0.498711
0.492642
0.486103
0.479069
0.471557
0.463588
0.455015
0.445874
0.4386
0.580654
0.566128
0.553436
0.542829
0.533314
0.524821
0.517389
0.510934
0.505314
0.500364
0.495904
0.491746
0.487708
0.483622
0.479338
0.474736
0.469722
0.464231
0.458231
0.45173
0.444743
0.437094
0.428794
0.422623
0.542968
0.529192
0.517164
0.507155
0.498245
0.490388
0.483632
0.477902
0.473065
0.468958
0.4654
0.462201
0.459171
0.456132
0.452926
0.449419
0.445506
0.44111
0.436188
0.430742
0.424781
0.418094
0.410666
0.405629
0.503602
0.490615
0.479287
0.469903
0.461626
0.45443
0.448373
0.443393
0.439362
0.436123
0.433495
0.431283
0.429292
0.427336
0.425243
0.422869
0.420096
0.416836
0.413032
0.408679
0.403778
0.398087
0.391551
0.387667
0.462747
0.450586
0.439989
0.431257
0.423635
0.417122
0.411785
0.407572
0.404366
0.402014
0.400336
0.399135
0.398208
0.39736
0.39641
0.395202
0.393603
0.391513
0.388861
0.385632
0.381821
0.377148
0.371515
0.368786
0.420601
0.409298
0.39946
0.391403
0.384457
0.378644
0.374042
0.370611
0.368244
0.366792
0.366078
0.365902
0.366057
0.366339
0.366557
0.36654
0.366144
0.365253
0.363783
0.361705
0.359005
0.355365
0.350627
0.349035
0.377365
0.36695
0.357896
0.350533
0.344281
0.339181
0.335325
0.332685
0.331164
0.33062
0.330878
0.331737
0.332986
0.334412
0.335815
0.337011
0.337843
0.338178
0.337915
0.337012
0.33544
0.332837
0.328966
0.328458
0.333244
0.323742
0.315493
0.308842
0.303296
0.298921
0.295818
0.293973
0.2933
0.293665
0.294896
0.296793
0.299141
0.30172
0.304321
0.306748
0.308828
0.310414
0.311386
0.311681
0.311255
0.309685
0.306624
0.307097
0.288446
0.279878
0.272451
0.266525
0.261696
0.258052
0.255705
0.254654
0.254827
0.256096
0.258296
0.261227
0.264672
0.268407
0.272212
0.275882
0.279232
0.282095
0.284333
0.285861
0.28661
0.286089
0.283758
0.284997
0.243176
0.235558
0.22897
0.223779
0.219673
0.216762
0.21517
0.214909
0.215918
0.218082
0.221238
0.225193
0.229727
0.234613
0.239624
0.244547
0.249184
0.253355
0.2569
0.259709
0.261694
0.262271
0.260501
0.261893
0.19764
0.190985
0.185245
0.180797
0.177418
0.17524
0.174397
0.174916
0.176748
0.179789
0.183885
0.188845
0.194452
0.200476
0.206688
0.212866
0.218806
0.224317
0.229222
0.233384
0.236681
0.238361
0.236637
0.236586
0.152038
0.146356
0.141472
0.137772
0.13512
0.133671
0.133568
0.134852
0.137488
0.141384
0.146394
0.152333
0.158987
0.166129
0.173525
0.180954
0.188206
0.195093
0.201439
0.207098
0.211905
0.214992
0.21395
0.212375
0.106568
0.101864
0.0978417
0.0948915
0.092965
0.0922378
0.0928614
0.0948911
0.0983072
0.103028
0.10892
0.115803
0.12347
0.131694
0.140245
0.148901
0.15746
0.165749
0.173638
0.181059
0.187993
0.194503
0.202089
0.215022
0.0614221
0.0576987
0.0545396
0.0523385
0.0511327
0.0511168
0.0524509
0.0552041
0.0593708
0.0648825
0.071615
0.0793987
0.0880307
0.0972883
0.106943
0.116773
0.126579
0.136196
0.145515
0.154489
0.163091
0.171591
0.182155
0.19595
0.0167843
0.0140416
0.0117453
0.0102905
0.00979824
0.010481
0.0125062
0.0159562
0.0208399
0.0271015
0.0346283
0.0432597
0.0527991
0.0630272
0.0737161
0.0846423
0.0956005
0.106418
0.116972
0.127181
0.136928
0.146398
0.1575
0.169176
-0.0271667
-0.0289319
-0.0303683
-0.0310817
-0.0308696
-0.0295034
-0.026809
-0.0226917
-0.0171285
-0.0101618
-0.00189303
0.00752687
0.0179081
0.029035
0.0406791
0.0526128
0.0646215
0.0765169
0.0881529
0.0994058
0.110093
0.120337
0.131821
0.142629
-0.0702602
-0.0710538
-0.0716355
-0.0716147
-0.0707095
-0.0686769
-0.0653375
-0.0605846
-0.0543819
-0.0467586
-0.037804
-0.0276591
-0.0165063
-0.00455742
0.00795905
0.0208107
0.0337731
0.0466423
0.0592484
0.0714342
0.0829801
0.0939722
0.105891
0.116453
-0.112335
-0.112163
-0.111899
-0.111153
-0.109568
-0.106887
-0.102929
-0.0975741
-0.0907739
-0.0825444
-0.0729625
-0.0621587
-0.0503072
-0.037615
-0.0243097
-0.0106274
0.0031989
0.0169516
0.0304408
0.0434838
0.0558391
0.067567
0.0799733
0.0905737
-0.153235
-0.152111
-0.15101
-0.14955
-0.147299
-0.143991
-0.139441
-0.133519
-0.126164
-0.11738
-0.107231
-0.0958353
-0.0833588
-0.0700021
-0.0559903
-0.0415614
-0.0269542
-0.012397
0.00190533
0.015752
0.0288896
0.0413612
0.0543369
0.0652459
-0.192814
-0.190754
-0.188829
-0.186667
-0.183768
-0.179855
-0.17474
-0.168287
-0.160421
-0.151134
-0.140477
-0.128557
-0.115529
-0.101586
-0.0869481
-0.0718531
-0.0565429
-0.0412524
-0.0261969
-0.0115888
0.00231368
0.0155408
0.0291526
0.0405722
-0.230938
-0.22796