/*--------------------------------*- C++ -*----------------------------------*\
  =========                 |
  \\      /  F ield         | OpenFOAM: The Open Source CFD Toolbox
   \\    /   O peration     | Website:  https://openfoam.org
    \\  /    A nd           | Version:  7
     \\/     M anipulation  |
\*---------------------------------------------------------------------------*/
FoamFile
{
    version     2.0;
    format      ascii;
    class       surfaceScalarField;
    location    "20";
    object      phi;
}
// * * * * * * * * * * * * * * * * * * * * * * * * * * * * * * * * * * * * * //

dimensions      [0 3 -1 0 0 0 0];

internalField   nonuniform List<scalar> 
49774
(
-3.82492e-07
3.82487e-07
4.72209e-12
-1.48539e-06
1.10288e-06
1.41068e-11
-3.296e-06
1.81059e-06
2.38576e-11
-5.79552e-06
2.49949e-06
3.39607e-11
-8.95838e-06
3.16281e-06
4.43913e-11
-1.27521e-05
3.79362e-06
5.51198e-11
-1.71371e-05
4.38495e-06
6.61129e-11
-2.20671e-05
4.92995e-06
7.73305e-11
-2.74892e-05
5.42203e-06
8.87184e-11
-3.33444e-05
5.85508e-06
1.00219e-10
-3.95683e-05
6.22375e-06
1.1178e-10
-4.60922e-05
6.52376e-06
1.23308e-10
-5.28446e-05
6.75235e-06
1.34724e-10
-5.97535e-05
6.90872e-06
1.45926e-10
-6.67482e-05
6.99457e-06
1.56791e-10
-7.37632e-05
7.01478e-06
1.67193e-10
-8.07413e-05
6.97798e-06
1.76944e-10
-8.76387e-05
6.89719e-06
1.85855e-10
-9.44292e-05
6.79032e-06
1.93721e-10
-0.00010111
6.68039e-06
2.00305e-10
-0.000107705
6.59501e-06
2.05377e-10
-0.000114269
6.56377e-06
2.08579e-10
-0.000120889
6.61981e-06
2.09549e-10
6.822e-06
2.07922e-10
-0.000127711
-3.77791e-07
7.60278e-07
-1.46638e-06
2.19148e-06
-3.25233e-06
3.59653e-06
-5.71597e-06
4.96313e-06
-8.83077e-06
6.27761e-06
-1.25631e-05
7.52598e-06
-1.68724e-05
8.6942e-06
-2.17108e-05
9.76841e-06
-2.7024e-05
1.07352e-05
-3.27512e-05
1.15823e-05
-3.8826e-05
1.22985e-05
-4.51775e-05
1.28753e-05
-5.17318e-05
1.33067e-05
-5.84138e-05
1.35907e-05
-6.51498e-05
1.37306e-05
-7.18706e-05
1.37356e-05
-7.85153e-05
1.36227e-05
-8.50359e-05
1.34178e-05
-9.14022e-05
1.31566e-05
-9.7607e-05
1.28852e-05
-0.000103671
1.26593e-05
-0.000109646
1.25388e-05
-0.000115618
1.2591e-05
1.29357e-05
-0.000121731
-3.68441e-07
1.12872e-06
-1.42857e-06
3.2516e-06
-3.16541e-06
5.33337e-06
-5.55759e-06
7.35532e-06
-8.57668e-06
9.2967e-06
-1.21869e-05
1.11362e-05
-1.63452e-05
1.28525e-05
-2.10012e-05
1.44244e-05
-2.60974e-05
1.58314e-05
-3.15694e-05
1.70543e-05
-3.73472e-05
1.80763e-05
-4.33552e-05
1.88833e-05
-4.95146e-05
1.9466e-05
-5.57445e-05
1.98206e-05
-6.19649e-05
1.99509e-05
-6.80994e-05
1.98701e-05
-7.40796e-05
1.96029e-05
-7.98492e-05
1.91874e-05
-8.53697e-05
1.86771e-05
-9.06258e-05
1.81413e-05
-9.56311e-05
1.76646e-05
-0.000100431
1.73387e-05
-0.000105107
1.7267e-05
1.7635e-05
-0.000109806
-3.54541e-07
1.48326e-06
-1.37231e-06
4.26937e-06
-3.03604e-06
6.99711e-06
-5.3218e-06
9.64108e-06
-8.19827e-06
1.21732e-05
-1.16265e-05
1.45644e-05
-1.55598e-05
1.67858e-05
-1.99437e-05
1.88083e-05
-2.47163e-05
2.06039e-05
-2.9808e-05
2.21461e-05
-3.51429e-05
2.34111e-05
-4.06389e-05
2.43793e-05
-4.62095e-05
2.50367e-05
-5.17654e-05
2.53766e-05
-5.72171e-05
2.54026e-05
-6.24775e-05
2.51306e-05
-6.74667e-05
2.4592e-05
-7.2116e-05
2.38367e-05
-7.63742e-05
2.29353e-05
-8.02139e-05
2.1981e-05
-8.36376e-05
2.10883e-05
-8.66817e-05
2.03828e-05
-8.94215e-05
2.00068e-05
2.02181e-05
-9.20046e-05
-3.36231e-07
1.81949e-06
-1.29813e-06
5.23127e-06
-2.86537e-06
8.56435e-06
-5.01058e-06
1.17863e-05
-7.69861e-06
1.48612e-05
-1.08863e-05
1.77521e-05
-1.45221e-05
2.04216e-05
-1.85463e-05
2.28326e-05
-2.28909e-05
2.49485e-05
-2.74797e-05
2.67349e-05
-3.22289e-05
2.81603e-05
-3.70479e-05
2.91983e-05
-4.18401e-05
2.98289e-05
-4.6505e-05
3.00415e-05
-5.09403e-05
2.98379e-05
-5.5045e-05
2.92352e-05
-5.87233e-05
2.82704e-05
-6.18903e-05
2.70037e-05
-6.44777e-05
2.55227e-05
-6.64415e-05
2.39448e-05
-6.77692e-05
2.2416e-05
-6.84856e-05
2.10992e-05
-6.86563e-05
2.01775e-05
1.99866e-05
-6.84249e-05
-3.13685e-07
2.13318e-06
-1.20669e-06
6.12427e-06
-2.65481e-06
1.00125e-05
-4.62637e-06
1.37579e-05
-7.08147e-06
1.73163e-05
-9.97159e-06
2.06422e-05
-1.32394e-05
2.36895e-05
-1.68186e-05
2.64118e-05
-2.06338e-05
2.87636e-05
-2.46003e-05
3.07014e-05
-2.86251e-05
3.21851e-05
-3.26066e-05
3.31798e-05
-3.64361e-05
3.36584e-05
-3.99991e-05
3.36046e-05
-4.31775e-05
3.30163e-05
-4.58527e-05
3.19103e-05
-4.79094e-05
3.03271e-05
-4.92417e-05
2.83361e-05
-4.97598e-05
2.60409e-05
-4.93986e-05
2.35836e-05
-4.81271e-05
2.11445e-05
-4.59565e-05
1.89287e-05
-4.29445e-05
1.71655e-05
1.62313e-05
-3.91892e-05
-2.87091e-07
2.42027e-06
-1.09869e-06
6.93587e-06
-2.4059e-06
1.13197e-05
-4.17189e-06
1.55238e-05
-6.35103e-06
1.94954e-05
-8.88853e-06
2.31797e-05
-1.17201e-05
2.6521e-05
-1.47716e-05
2.94633e-05
-1.79589e-05
3.19509e-05
-2.11877e-05
3.39302e-05
-2.43536e-05
3.5351e-05
-2.73426e-05
3.61687e-05
-3.00313e-05
3.63471e-05
-3.22889e-05
3.58622e-05
-3.39785e-05
3.47059e-05
-3.49602e-05
3.2892e-05
-3.50952e-05
3.04622e-05
-3.42523e-05
2.74931e-05
-3.23148e-05
2.41034e-05
-2.91917e-05
2.04605e-05
-2.48289e-05
1.67817e-05
-1.92213e-05
1.33211e-05
-1.24417e-05
1.03858e-05
8.51207e-06
-4.72247e-06
-2.56644e-07
2.67691e-06
-9.7486e-07
7.65409e-06
-2.12025e-06
1.24651e-05
-3.6499e-06
1.70535e-05
-5.5116e-06
2.13571e-05
-7.64329e-06
2.53114e-05
-9.97264e-06
2.88504e-05
-1.24166e-05
3.19073e-05
-1.48811e-05
3.44154e-05
-1.72607e-05
3.63098e-05
-1.94383e-05
3.75286e-05
-2.12853e-05
3.80157e-05
-2.26623e-05
3.77241e-05
-2.34192e-05
3.66191e-05
-2.33977e-05
3.46843e-05
-2.24331e-05
3.19274e-05
-2.03592e-05
2.83883e-05
-1.70142e-05
2.4148e-05
-1.22493e-05
1.93385e-05
-5.94088e-06
1.41521e-05
1.99469e-06
8.84613e-06
1.15867e-05
3.72907e-06
2.27921e-05
-8.19523e-07
-4.17625e-06
3.54804e-05
-2.22528e-07
2.89944e-06
-8.35896e-07
8.26746e-06
-1.79935e-06
1.34285e-05
-3.06308e-06
1.83172e-05
-4.56734e-06
2.28614e-05
-6.24185e-06
2.69859e-05
-8.00527e-06
3.06138e-05
-9.76463e-06
3.36666e-05
-1.14147e-05
3.60655e-05
-1.28376e-05
3.77327e-05
-1.39023e-05
3.85933e-05
-1.44643e-05
3.85778e-05
-1.43657e-05
3.76255e-05
-1.34356e-05
3.5689e-05
-1.14912e-05
3.27399e-05
-8.34022e-06
2.87764e-05
-3.78469e-06
2.38328e-05
2.37258e-06
1.79907e-05
1.03184e-05
1.13926e-05
2.02156e-05
4.25496e-06
3.21842e-05
-3.12252e-06
4.62811e-05
-1.03678e-05
6.24762e-05
-1.70146e-05
-2.2298e-05
8.05979e-05
-1.849e-07
3.08434e-06
-6.82395e-07
8.76495e-06
-1.44453e-06
1.41907e-05
-2.41374e-06
1.92864e-05
-3.52187e-06
2.39695e-05
-4.68952e-06
2.81536e-05
-5.8254e-06
3.17497e-05
-6.82558e-06
3.46668e-05
-7.57276e-06
3.68127e-05
-7.9355e-06
3.80954e-05
-7.76753e-06
3.84253e-05
-6.90709e-06
3.77173e-05
-5.17645e-06
3.58948e-05
-2.38182e-06
3.28944e-05
1.68605e-06
2.8672e-05
7.25022e-06
2.32122e-05
1.45441e-05
1.65389e-05
2.3805e-05
8.72979e-06
3.52642e-05
-6.66365e-08
4.91308e-05
-9.61156e-06
6.55689e-05
-1.95606e-05
8.46703e-05
-2.94692e-05
0.000106419
-3.87632e-05
-4.64949e-05
0.000130616
-1.4388e-07
3.22822e-06
-5.14818e-07
9.13589e-06
-1.05683e-06
1.47327e-05
-1.70372e-06
1.99333e-05
-2.3781e-06
2.46439e-05
-2.99058e-06
2.87661e-05
-3.43902e-06
3.21981e-05
-3.60763e-06
3.48354e-05
-3.36608e-06
3.65712e-05
-2.56846e-06
3.72978e-05
-1.05226e-06
3.69091e-05
1.36265e-06
3.53024e-05
4.87502e-06
3.23825e-05
9.70293e-06
2.80665e-05
1.60839e-05
2.2291e-05
2.42743e-05
1.50219e-05
3.45462e-05
6.26705e-06
4.71819e-05
-3.9059e-06
6.24632e-05
-1.5348e-05
8.0654e-05
-2.78023e-05
0.000101972
-4.08789e-05
0.000126555
-5.40515e-05
0.000154406
-6.66143e-05
-7.73927e-05
0.000185303
-9.95395e-08
3.32776e-06
-3.33452e-07
9.3698e-06
-6.36892e-07
1.50361e-05
-9.3424e-07
2.02307e-05
-1.13801e-06
2.48477e-05
-1.148e-06
2.8776e-05
-8.5037e-07
3.19005e-05
-1.16654e-07
3.41017e-05
1.19737e-06
3.52571e-05
3.25292e-06
3.52423e-05
6.22952e-06
3.39325e-05
1.03265e-05
3.12054e-05
1.57645e-05
2.69445e-05
2.27867e-05
2.10442e-05
3.16603e-05
1.34174e-05
4.26765e-05
4.00572e-06
5.61488e-05
-7.20524e-06
7.24086e-05
-2.01657e-05
9.1795e-05
-3.47344e-05
0.000114635
-5.06425e-05
0.000141213
-6.74571e-05
0.000171724
-8.45621e-05
0.000206205
-0.000101096
-0.000115604
0.000244416
-5.18897e-08
3.37965e-06
-1.38398e-07
9.45631e-06
-1.85002e-07
1.50827e-05
-1.05853e-07
2.01515e-05
1.97419e-07
2.45444e-05
8.3666e-07
2.81368e-05
1.9382e-06
3.0799e-05
3.644e-06
3.23959e-05
6.11292e-06
3.27882e-05
9.52221e-06
3.1833e-05
1.40691e-05
2.93856e-05
1.99726e-05
2.53019e-05
2.74756e-05
1.94415e-05
3.68471e-05
1.16727e-05
4.83842e-05
1.88031e-06
6.24136e-05
-1.00237e-05
7.92922e-05
-2.40838e-05
9.94034e-05
-4.0277e-05
0.000123149
-5.84802e-05
0.00015093
-7.84235e-05
0.00018311
-9.96373e-05
0.00021996
-0.000121411
0.000261565
-0.000142701
-0.000161726
0.000307688
-9.50392e-10
3.3806e-06
7.04042e-08
9.38495e-06
2.98931e-07
1.48542e-05
7.81491e-07
1.9669e-05
1.62813e-06
2.36977e-05
2.96314e-06
2.68018e-05
4.92614e-06
2.8836e-05
7.67335e-06
2.96487e-05
1.1379e-05
2.90825e-05
1.62371e-05
2.69749e-05
2.2463e-05
2.31597e-05
3.02958e-05
1.74691e-05
4.00009e-05
9.73644e-06
5.18726e-05
-1.98989e-07
6.62377e-05
-1.24848e-05
8.34582e-05
-2.72443e-05
0.000103934
-4.45597e-05
0.000128103
-6.44456e-05
0.000156433
-8.68105e-05
0.000189408
-0.000111399
0.000227488
-0.000137717
0.00027104
-0.000164963
0.000320224
-0.000191885
-0.000216274
0.000374771
5.3455e-08
3.32714e-06
2.93189e-07
9.14522e-06
8.15272e-07
1.43321e-05
1.7283e-06
1.87559e-05
3.15475e-06
2.22713e-05
5.23215e-06
2.47244e-05
8.11421e-06
2.59539e-05
1.19722e-05
2.57907e-05
1.69967e-05
2.40581e-05
2.33987e-05
2.05728e-05
3.14126e-05
1.51459e-05
4.12976e-05
7.58411e-06
5.33413e-05
-2.3073e-06
6.7863e-05
-1.47207e-05
8.52177e-05
-2.98395e-05
0.000105801
-4.78277e-05
0.000130054
-6.88129e-05
0.000158468
-9.28589e-05
0.000191579
-0.000119922
0.000229962
-0.000149782
0.000274189
-0.000181944
0.000324755
-0.00021553
0.000381936
-0.000249066
-0.000279838
0.0004455
1.11309e-07
3.21583e-06
5.30198e-07
8.72633e-06
1.3645e-06
1.34978e-05
2.73526e-06
1.73852e-05
4.77815e-06
2.02284e-05
7.64474e-06
2.18578e-05
1.15037e-05
2.2095e-05
1.65423e-05
2.07521e-05
2.29679e-05
1.76325e-05
3.10099e-05
1.25308e-05
4.09217e-05
5.23409e-06
5.29833e-05
-4.47748e-06
6.75042e-05
-1.68282e-05
8.48275e-05
-3.2044e-05
0.000105335
-5.03465e-05
0.000129452
-7.19446e-05
0.000157657
-9.70181e-05
0.000190489
-0.000125691
0.000228552
-0.000157985
0.000272513
-0.000193743
0.000323074
-0.000232504
0.000380892
-0.000273348
0.000446413
-0.000314586
-0.000352919
0.000519494
1.72751e-07
3.04308e-06
7.81684e-07
8.1174e-06
1.947e-06
1.23325e-05
3.80285e-06
1.55293e-05
6.49888e-06
1.75324e-05
1.02015e-05
1.81552e-05
1.50952e-05
1.72012e-05
2.13842e-05
1.44631e-05
2.92939e-05
9.72282e-06
3.90726e-05
2.75207e-06
5.0994e-05
-6.68731e-06
6.53591e-05
-1.88425e-05
8.24993e-05
-3.39684e-05
0.000102781
-5.23252e-05
0.000126608
-7.41744e-05
0.000154435
-9.97714e-05
0.00018677
-0.000129353
0.000224191
-0.000163112
0.00026736
-0.000201154
0.000317033
-0.000243416
0.000374049
-0.00028952
0.000439265
-0.000338564
0.000513371
-0.000388692
-0.000435955
0.000596407
2.37821e-07
2.80526e-06
1.04773e-06
7.30749e-06
2.56281e-06
1.08174e-05
4.93093e-06
1.31612e-05
8.31642e-06
1.41469e-05
1.29014e-05
1.35703e-05
1.88872e-05
1.12154e-05
2.64959e-05
6.85432e-06
3.59723e-05
2.46509e-07
4.75848e-05
-8.86049e-06
6.16284e-05
-2.07309e-05
7.84262e-05
-3.56403e-05
9.83321e-05
-5.38743e-05
0.000121735
-7.57277e-05
0.000149061
-0.000101501
0.000180786
-0.000131496
0.000217441
-0.000166008
0.000259631
-0.000205302
0.00030806
-0.000249583
0.000363555
-0.000298911
0.000427086
-0.000353052
0.000499742
-0.00041122
0.000582549
-0.000471499
-0.0005293
0.000675894
3.06498e-07
2.49876e-06
1.32815e-06
6.28584e-06
3.21132e-06
8.93424e-06
6.1182e-06
1.02543e-05
1.02285e-05
1.00366e-05
1.57408e-05
8.05795e-06
2.28743e-05
4.0819e-06
3.18704e-05
-2.14174e-06
4.2994e-05
-1.08771e-05
5.65358e-05
-2.24023e-05
7.28134e-05
-3.70086e-05
9.21738e-05
-5.50006e-05
0.000114995
-7.66953e-05
0.000141688
-0.000102421
0.000172704
-0.000132516
0.000208534
-0.000167326
0.000249724
-0.000207198
0.000296894
-0.000252472
0.000350762
-0.000303451
0.000412195
-0.000360344
0.000482266
-0.000423123
0.000562295
-0.000491249
0.000653753
-0.000562957
-0.000633167
0.00075762
3.78661e-07
2.1201e-06
1.62235e-06
5.04215e-06
3.89109e-06
6.6655e-06
7.36181e-06
6.7836e-06
1.22302e-05
5.16825e-06
1.87122e-05
1.57589e-06
2.7046e-05
-4.25182e-06
3.7493e-05
-1.25888e-05
5.03404e-05
-2.37245e-05
6.59022e-05
-3.79641e-05
8.45213e-05
-5.56277e-05
0.000106571
-7.705e-05
0.000132455
-0.00010258
0.000162613
-0.000132579
0.000197516
-0.00016742
0.000237678
-0.000207488
0.000283655
-0.000253175
0.000336064
-0.000304881
0.000395614
-0.000363001
0.000463162
-0.000427892
0.000539818
-0.000499779
0.000627084
-0.000578514
0.000726938
-0.000662811
-0.000747539
0.00084131
4.54064e-07
1.66604e-06
1.92929e-06
3.56693e-06
4.59958e-06
3.99521e-06
8.65701e-06
2.72617e-06
1.43138e-05
-4.88505e-07
2.18039e-05
-5.91421e-06
3.1385e-05
-1.38329e-05
4.33402e-05
-2.4544e-05
5.798e-05
-3.83643e-05
7.56439e-05
-5.5628e-05
9.67021e-05
-7.66858e-05
0.000121557
-0.000101905
0.000150644
-0.000131667
0.000184432
-0.000166367
0.000223424
-0.000206412
0.000268158
-0.000252222
0.000319205
-0.000304223
0.00037718
-0.000362856
0.00044276
-0.00042858
0.00051674
-0.000501872
0.000600162
-0.000583201
0.000694563
-0.000672915
0.000802371
-0.00077062
-0.000872074
0.000926906
5.32332e-07
1.13371e-06
2.24742e-06
1.85183e-06
5.33318e-06
9.09455e-07
9.99706e-06
-1.93771e-06
1.64681e-05
-6.95954e-06
2.49988e-05
-1.44449e-05
3.58671e-05
-2.47012e-05
4.93784e-05
-3.80554e-05
6.58677e-05
-5.48536e-05
8.57014e-05
-7.54616e-05
0.000109279
-0.000100264
0.000137036
-0.000129662
0.000169443
-0.000164073
0.000207007
-0.00020393
0.00025027
-0.000249676
0.000299808
-0.00030176
0.000356227
-0.000360641
0.000420155
-0.000426784
0.000492245
-0.000500671
0.000573204
-0.00058283
0.000663887
-0.000673885
0.00076559
-0.000774618
0.000880846
-0.000885876
-0.00100634
0.00101511
6.12965e-07
5.20742e-07
2.57474e-06
-1.09942e-07
6.08724e-06
-2.60304e-06
1.13734e-05
-7.22384e-06
1.86791e-05
-1.42653e-05
2.82756e-05
-2.40414e-05
4.04613e-05
-3.68869e-05
5.55641e-05
-5.31582e-05
7.39441e-05
-7.32336e-05
9.59954e-05
-9.75129e-05
0.000122149
-0.000126417
0.000152874
-0.000160387
0.00018868
-0.00019988
0.000230121
-0.000245371
0.000277788
-0.000297343
0.000332317
-0.000356289
0.000394377
-0.000422701
0.000464661
-0.000497068
0.00054387
-0.00057988
0.000632692
-0.000671652
0.000731807
-0.000773
0.000841935
-0.000884745
0.000964577
-0.00100852
-0.00114999
0.00110823
6.95374e-07
-1.74633e-07
2.90887e-06
-2.32344e-06
6.85631e-06
-6.55048e-06
1.27759e-05
-1.31434e-05
2.09303e-05
-2.24197e-05
3.16091e-05
-3.47202e-05
4.51309e-05
-5.04087e-05
6.18458e-05
-6.98731e-05
8.21384e-05
-9.35261e-05
0.00010643
-0.000121804
0.000135182
-0.000155169
0.000168899
-0.000194103
0.000208131
-0.000239112
0.000253478
-0.000290718
0.000305595
-0.000349459
0.000365189
-0.000415884
0.000433034
-0.000490545
0.000509963
-0.000573997
0.000596877
-0.000666794
0.000694741
-0.000769516
0.000804579
-0.000882838
0.000927209
-0.00100737
0.00106187
-0.00114318
-0.00129711
0.00120899
7.78922e-07
-9.53555e-07
3.24729e-06
-4.79181e-06
7.63454e-06
-1.09377e-05
1.41938e-05
-1.97026e-05
2.32039e-05
-3.14299e-05
3.49722e-05
-4.64885e-05
4.98363e-05
-6.52728e-05
6.81673e-05
-8.82042e-05
9.03726e-05
-0.000115731
0.000116899
-0.000148331
0.000148235
-0.000186505
0.000184917
-0.000230786
0.000227532
-0.000281727
0.000276724
-0.00033991
0.000333203
-0.000405937
0.000397752
-0.000480433
0.000471253
-0.000564046
0.000554717
-0.000657461
0.000649349
-0.000761427
0.000756688
-0.000876854
0.00087889
-0.00100504
0.00101962
-0.0011481
0.00118766
-0.00131122
-0.00151496
0.00140551
8.62977e-07
-1.81653e-06
3.58744e-06
-7.51627e-06
8.41605e-06
-1.57663e-05
1.56162e-05
-2.69028e-05
2.54821e-05
-4.12958e-05
3.83374e-05
-5.93437e-05
5.45373e-05
-8.14727e-05
7.44717e-05
-0.000108139
9.85678e-05
-0.000139828
0.000127294
-0.000177056
0.000161161
-0.000220372
0.00020073
-0.000270355
0.000246614
-0.000327612
0.000299489
-0.000392785
0.000360097
-0.000466545
0.000429267
-0.000549603
0.000507938
-0.000642717
0.000597198
-0.000746721
0.000698358
-0.000862587
0.000813075
-0.000991571
0.000943542
-0.00113551
0.00109286
-0.00129742
0.00126503
-0.0014834
-0.00170739
0.00145746
9.46966e-07
-2.7635e-06
3.92701e-06
-1.04963e-05
9.19541e-06
-2.10347e-05
1.70329e-05
-3.47403e-05
2.7748e-05
-5.20109e-05
4.16789e-05
-7.32746e-05
5.91963e-05
-9.89901e-05
8.07057e-05
-0.000129648
0.000106651
-0.000165772
0.000137515
-0.00020792
0.000173825
-0.000256683
0.000216157
-0.000312687
0.000265138
-0.000376592
0.00032145
-0.000449097
0.000385845
-0.00053094
0.000459147
-0.000622906
0.000542277
-0.000725847
0.000636271
-0.000840715
0.000742319
-0.000968635
0.000861786
-0.00111104
0.000996201
-0.00126992
0.00114707
-0.00144829
0.00131486
-0.00165118
-0.00188662
0.0014941
1.03041e-06
-3.7939e-06
4.26398e-06
-1.37299e-05
9.96787e-06
-2.67386e-05
1.84352e-05
-4.32076e-05
2.99868e-05
-6.35626e-05
4.4974e-05
-8.82618e-05
6.37801e-05
-0.000117796
8.68228e-05
-0.000152691
0.000114557
-0.000193506
0.000147476
-0.000240839
0.000186115
-0.000295322
0.000231053
-0.000357625
0.000282915
-0.000428454
0.000342373
-0.000508556
0.000410153
-0.000598721
0.000487038
-0.000699791
0.000573868
-0.000812677
0.000671544
-0.000938391
0.000781013
-0.0010781
0.000903227
-0.00123325
0.001039
-0.00140569
0.00118865
-0.00159795
0.00135111
-0.00181364
-0.00205718
0.00152166
1.11292e-06
-4.90683e-06
4.59674e-06
-1.72137e-05
1.07296e-05
-3.28714e-05
1.98155e-05
-5.22935e-05
3.21864e-05
-7.59335e-05
4.82039e-05
-0.000104279
6.82611e-05
-0.000137853
9.27845e-05
-0.000177214
0.000122235
-0.000222957
0.000157111
-0.000275715
0.000197945
-0.000336157
0.00024531
-0.00040499
0.000299815
-0.000482958
0.000362105
-0.000570846
0.00043286
-0.000669475
0.000512787
-0.000779718
0.000602614
-0.000902504
0.000703069
-0.00103885
0.000814838
-0.00118987
0.00093848
-0.0013569
0.00107427
-0.00154148
0.00122185
-0.00174553
0.00137967
-0.00197146
-0.00222153
0.00154402
1.19425e-06
-6.10108e-06
4.92407e-06
-2.09435e-05
1.14774e-05
-3.94248e-05
2.11679e-05
-6.1984e-05
3.43365e-05
-8.91021e-05
5.13529e-05
-0.000121296
7.26171e-05
-0.000159117
9.85599e-05
-0.000203157
0.000129645
-0.000254042
0.000166366
-0.000312436
0.00020925
-0.000379041
0.000258852
-0.000454592
0.000315755
-0.000539861
0.000380562
-0.000635653
0.000453892
-0.000742805
0.000536363
-0.000862189
0.000628576
-0.000994718
0.000731082
-0.00114135
0.000844327
-0.00130312
0.000968559
-0.00148113
0.00110368
-0.0016766
0.00124901
-0.00189086
0.00140293
-0.00212537
-0.00238111
0.0015625
1.2742e-06
-7.37528e-06
5.24503e-06
-2.49144e-05
1.2209e-05
-4.63888e-05
2.24878e-05
-7.22628e-05
3.64292e-05
-0.000103044
5.44087e-05
-0.000139275
7.68298e-05
-0.000181539
0.000104124
-0.000230452
0.000136752
-0.00028667
0.000175201
-0.000350885
0.000219981
-0.000423821
0.000271626
-0.000506236
0.000330681
-0.000598916
0.000397699
-0.000702672
0.000473229
-0.000818335
0.000557793
-0.000946753
0.000651866
-0.00108879
0.000755833
-0.00124532
0.000869938
-0.00141722
0.000994195
-0.00160539
0.00112827
-0.00181067
0.00127131
-0.0020339
0.00142177
-0.00227583
-0.00253657
0.00157723
1.35261e-06
-8.72789e-06
5.55881e-06
-2.91206e-05
1.29223e-05
-5.37523e-05
2.37709e-05
-8.31114e-05
3.84574e-05
-0.00011773
5.73603e-05
-0.000158178
8.08836e-05
-0.000205062
0.000109456
-0.000259025
0.000143532
-0.000320745
0.000183583
-0.000390936
0.000230102
-0.00047034
0.00028359
-0.000559725
0.000344553
-0.000659879
0.000413485
-0.000771605
0.000490861
-0.00089571
0.000577106
-0.001033
0.000672573
-0.00118426
0.000777504
-0.00135025
0.000891971
-0.00153169
0.00101581
-0.00172923
0.00114854
-0.0019434
0.00128921
-0.00217458
0.00143637
-0.00242299
-0.00268811
0.00158792
1.42933e-06
-1.01572e-05
5.86465e-06
-3.35559e-05
1.36152e-05
-6.15028e-05
2.50133e-05
-9.45094e-05
4.04143e-05
-0.000133131
6.01971e-05
-0.000177961
8.47633e-05
-0.000229628
0.000114536
-0.000288797
0.000149956
-0.000356165
0.00019148
-0.000432461
0.000239575
-0.000518434
0.000294706
-0.000614855
0.000357331
-0.000722504
0.000427887
-0.00084216
0.000506767
-0.000974591
0.000594305
-0.00112054
0.00069074
-0.00128069
0.000796182
-0.00145569
0.000910563
-0.00164607
0.00103358
-0.00185225
0.00116464
-0.00207445
0.00130276
-0.0023127
0.00144653
-0.00256676
-0.00283564
0.00159406
1.50417e-06
-1.16614e-05
6.16165e-06
-3.82134e-05
1.42856e-05
-6.96268e-05
2.62105e-05
-0.000106434
4.22924e-05
-0.000149213
6.29078e-05
-0.000198576
8.8453e-05
-0.000255173
0.000119341
-0.000319685
0.000155998
-0.000392823
0.000198859
-0.000475321
0.000248359
-0.000567934
0.000304927
-0.000671423
0.000368968
-0.000786546
0.000440856
-0.000914048
0.000520907
-0.00105464
0.00060936
-0.00120899
0.000706349
-0.00137768
0.000811866
-0.00156121
0.000925724
-0.00175993
0.00104751
-0.00197403
0.00117653
-0.00220348
0.00131179
-0.00244796
0.00145191
-0.00270688
-0.00297886
0.00159513
1.57687e-06
-1.32383e-05
6.44865e-06
-4.30851e-05
1.49305e-05
-7.81086e-05
2.73573e-05
-0.000118861
4.4083e-05
-0.000165939
6.54795e-05
-0.000219973
9.19342e-05
-0.000281628
0.000123847
-0.000351598
0.000161626
-0.000430601
0.000205679
-0.000519375
0.000256409
-0.000618664
0.0003142
-0.000729214
0.000379404
-0.000851751
0.000452329
-0.000986972
0.000533212
-0.00113552
0.000622202
-0.00129798
0.000719332
-0.00147481
0.000824487
-0.00166636
0.000937373
-0.00187281
0.00105748
-0.00209414
0.00118405
-0.00233005
0.00131605
-0.00257996
0.00145214
-0.00284296
-0.00311738
0.00159065
1.6471e-06
-1.48854e-05
6.72425e-06
-4.81623e-05
1.55467e-05
-8.6931e-05
2.84475e-05
-0.000131762
4.57761e-05
-0.000183267
6.7897e-05
-0.000242094
9.51858e-05
-0.000308917
0.000128026
-0.000384438
0.000166803
-0.000469378
0.000211896
-0.000564468
0.00026367
-0.000670438
0.000322461
-0.000788005
0.000388566
-0.000917856
0.000462223
-0.00106063
0.000543592
-0.00121689
0.000632734
-0.00138712
0.000729584
-0.00157166
0.000833929
-0.00177071
0.000945377
-0.00198426
0.00106334
-0.0022121
0.00118699
-0.0024537
0.00131527
-0.00270824
0.00144688
-0.00297457
-0.00325073
0.00158023
1.71442e-06
-1.65998e-05
6.98666e-06
-5.34345e-05
1.613e-05
-9.60744e-05
2.94735e-05
-0.000145105
4.73598e-05
-0.000201154
7.01427e-05
-0.000264876
9.81835e-05
-0.000336957
0.000131846
-0.0004181
0.000171489
-0.000509021
0.000217459
-0.000610438
0.00027008
-0.000723059
0.000329638
-0.000847563
0.000396371
-0.000984588
0.000470445
-0.0011347
0.000551944
-0.00129839
0.00064084
-0.00147602
0.000736978
-0.0016678
0.000840051
-0.00187378
0.00094958
-0.00209379
0.0010649
-0.00232741
0.00118514
-0.00257394
0.00130922
-0.00283232
0.00143585
-0.0031012
-0.00337843
0.00156355
1.77832e-06
-1.83781e-05
7.23383e-06
-5.889e-05
1.66759e-05
-0.000105516
3.0427e-05
-0.000158857
4.88205e-05
-0.000219547
7.2197e-05
-0.000288253
0.0001009
-0.000365661
0.00013527
-0.00045247
0.000175638
-0.000549388
0.000222312
-0.000657113
0.000275572
-0.000776319
0.000335652
-0.000907643
0.000402725
-0.00105166
0.000476891
-0.00120887
0.000558152
-0.00137965
0.000646396
-0.00156426
0.00074138
-0.00176278
0.00084271
-0.00197511
0.000949828
-0.00220091
0.001062
-0.00243959
0.00117832
-0.00269025
0.00129769
-0.0029517
0.00141887
-0.00322238
-0.00349999
0.00154044
1.83819e-06
-2.02163e-05
7.4634e-06
-6.45152e-05
1.71789e-05
-0.000115232
3.12984e-05
-0.000172976
5.01434e-05
-0.000238392
7.40383e-05
-0.000312148
0.000103306
-0.000394928
0.000138261
-0.000487425
0.000179201
-0.000590328
0.000226395
-0.000704307
0.000280074
-0.000829998
0.000340418
-0.000967987
0.000407537
-0.00111878
0.000481456
-0.00128279
0.000562101
-0.0014603
0.000649278
-0.00165144
0.000742659
-0.00185616
0.000841771
-0.00207422
0.000945983
-0.00230512
0.00105451
-0.00254811
0.0011664
-0.00280215
0.00128058
-0.00306588
0.00139582
-0.00333762
-0.00361498
0.0015108
1.89338e-06
-2.21097e-05
7.6728e-06
-7.02947e-05
1.76333e-05
-0.000125192
3.20776e-05
-0.00018742
5.13124e-05
-0.000257627
7.56438e-05
-0.000336479
0.000105371
-0.000424655
0.000140778
-0.000522833
0.000182128
-0.000631677
0.000229647
-0.000751826
0.000283516
-0.000883868
0.000343856
-0.00102833
0.000410711
-0.00118564
0.000484038
-0.00135612
0.000563682
-0.00153994
0.000649371
-0.00173713
0.0007407
-0.00194749
0.000837121
-0.00217064
0.00093794
-0.00240594
0.00104233
-0.0026525
0.00114931
-0.00290913
0.00125782
-0.00317439
0.00136668
-0.00344648
-0.00372296
0.00147466
1.94319e-06
-2.40529e-05
7.8593e-06
-7.62108e-05
1.8033e-05
-0.000135366
3.27538e-05
-0.000202141
5.23113e-05
-0.000277184
7.69898e-05
-0.000361158
0.000107062
-0.000454728
0.000142781
-0.000558552
0.000184368
-0.000673265
0.000232007
-0.000799464
0.000285825
-0.000937686
0.000345884
-0.00108839
0.000412162
-0.00125191
0.000484542
-0.0014285
0.000562797
-0.0016182
0.00064658
-0.00182091
0.00073541
-0.00203632
0.000828675
-0.00226391
0.00092563
-0.0025029
0.00102541
-0.00275227
0.00112703
-0.00301075
0.00122944
-0.0032768
0.00133152
-0.00354856
-0.00382359
0.00143215
1.98689e-06
-2.60398e-05
8.02011e-06
-8.2244e-05
1.8372e-05
-0.000145718
3.33163e-05
-0.000217086
5.31232e-05
-0.000296991
7.8053e-05
-0.000386088
0.000108349
-0.000485024
0.000144229
-0.000594431
0.000185874
-0.00071491
0.000233419
-0.000847009
0.000286937
-0.000991204
0.000346429
-0.00114788
0.000411808
-0.00131729
0.000482887
-0.00149957
0.000559366
-0.00169468
0.000640826
-0.00190237
0.000726723
-0.00212222
0.000816386
-0.00235357
0.000909028
-0.00259554
0.00100375
-0.002847
0.00109959
-0.00310659
0.00119552
-0.00337272
0.00129048
-0.00364352
-0.00391656
0.00138345
2.02376e-06
-2.80635e-05
8.15243e-06
-8.83727e-05
1.8644e-05
-0.000156209
3.37544e-05
-0.000232196
5.37319e-05
-0.000316969
7.88104e-05
-0.000411166
0.000109201
-0.000515415
0.000145085
-0.000630315
0.000186599
-0.000756425
0.000233829
-0.000894239
0.000286792
-0.00104417
0.000345428
-0.00120651
0.000409585
-0.00138145
0.000479007
-0.001569
0.000553327
-0.001769
0.000632061
-0.0019811
0.000714605
-0.00220476
0.000800242
-0.00243921
0.00088815
-0.00268345
0.000977427
-0.00293628
0.00106711
-0.00319628
0.00115622
-0.00346183
0.00124377
-0.00373107
-0.00400164
0.00132885
2.05306e-06
-3.01166e-05
8.25353e-06
-9.45731e-05
1.88431e-05
-0.000166799
3.40579e-05
-0.000247411
5.41221e-05
-0.000337033
7.92406e-05
-0.000436285
0.000109591
-0.000545765
0.000145314
-0.000666038
0.000186503
-0.000797614
0.000233191
-0.000940927
0.00028534
-0.00109632
0.000342828
-0.001264
0.00040544
-0.00144406
0.000472855
-0.00163641
0.000544643
-0.00184078
0.000620261
-0.00205672
0.000699054
-0.00228356
0.000780267
-0.00252042
0.00086306
-0.00276624
0.000946528
-0.00301975
0.00102973
-0.00327948
0.00111174
-0.00354384
0.00119166
-0.00381099
-0.00407867
0.00126868
2.07412e-06
-3.21907e-05
8.32083e-06
-0.00010082
1.89637e-05
-0.000177442
3.42172e-05
-0.000262664
5.42792e-05
-0.000357095
7.93241e-05
-0.00046133
0.000109493
-0.000575935
0.000144887
-0.000701432
0.00018555
-0.000838277
0.000231466
-0.000986842
0.000282539
-0.00114739
0.000338589
-0.00132005
0.000399337
-0.00150481
0.000464404
-0.00170148
0.0005333
-0.00190968
0.000605431
-0.00212885
0.000680101
-0.00235823
0.000756528
-0.00259685
0.00083386
-0.00284357
0.000911206
-0.00309709
0.000987662
-0.00335594
0.00106235
-0.00361853
0.00113447
-0.0038831
-0.00414752
0.00120332
2.0863e-06
-3.4277e-05
8.35194e-06
-0.000107085
1.90008e-05
-0.000188091
3.42236e-05
-0.000277887
5.41907e-05
-0.000377062
7.90436e-05
-0.000486182
0.000108887
-0.000605778
0.000143777
-0.000736321
0.000183712
-0.000878213
0.000228623
-0.00103175
0.000278361
-0.00119713
0.000332685
-0.00137438
0.00039126
-0.00156339
0.000453648
-0.00176387
0.00051931
-0.00197534
0.000587606
-0.00219715
0.00065781
-0.00242843
0.000729122
-0.00266816
0.000800692
-0.00291514
0.00087165
-0.00316805
0.000941137
-0.00342543
0.00100834
-0.00368573
0.00107255
-0.00394731
-0.00420814
0.00113317
2.08901e-06
-3.6366e-05
8.34472e-06
-0.000113341
1.89497e-05
-0.000198696
3.40698e-05
-0.000293007
5.38455e-05
-0.000396838
7.83848e-05
-0.000510722
0.000107753
-0.000635146
0.000141964
-0.000770532
0.000180968
-0.000917217
0.000224644
-0.00107543
0.000272788
-0.00124527
0.000325106
-0.00142669
0.000381207
-0.00161949
0.000440603
-0.00182326
0.000502708
-0.00203745
0.000566849
-0.00226129
0.000632276
-0.00249386
0.000698182
-0.00273407
0.000763731
-0.00298069
0.000828083
-0.0032324
0.000890432
-0.00348778
0.000950041
-0.00374534
0.00100628
-0.00400354
-0.00426052
0.00105866
2.08175e-06
-3.84478e-05
8.29732e-06
-0.000119557
1.88068e-05
-0.000209205
3.37493e-05
-0.00030795
5.3235e-05
-0.000416324
7.73366e-05
-0.000534823
0.00010608
-0.000663889
0.000139435
-0.000803887
0.000177305
-0.000955087
0.000219518
-0.00111764
0.000265818
-0.00129157
0.000315858
-0.00147673
0.000369199
-0.00167283
0.000425306
-0.00187937
0.000483555
-0.0020957
0.000543248
-0.00232098
0.000603621
-0.00255423
0.00066387
-0.00279432
0.000723182
-0.00304
0.000780756
-0.00328998
0.000835847
-0.00354287
0.000887794
-0.00379729
0.000936054
-0.0040518
-0.00430472
0.000980249
2.0641e-06
-4.05119e-05
8.20827e-06
-0.000125701
1.85688e-05
-0.000219566
3.32575e-05
-0.000322638
5.23527e-05
-0.000435419
7.58912e-05
-0.000558362
0.000103859
-0.000691857
0.000136183
-0.000836211
0.000172719
-0.000991623
0.000213246
-0.00115817
0.000257459
-0.00133578
0.000304963
-0.00152424
0.000355272
-0.00172314
0.000407814
-0.00193191
0.000461935
-0.00214982
0.000516917
-0.00237596
0.000571993
-0.00260931
0.000626373
-0.0028487
0.000679273
-0.0030929
0.000729942
-0.00334065
0.000777701
-0.00359063
0.000821966
-0.00384155
0.000862283
-0.00409212
-0.0043408
0.000898368
2.0357e-06
-4.25476e-05
8.07638e-06
-0.000131742
1.82337e-05
-0.000229723
3.25911e-05
-0.000336996
5.11945e-05
-0.000454022
7.40447e-05
-0.000581212
0.000101088
-0.0007189
0.000132207
-0.00086733
0.000167214
-0.00102663
0.00020584
-0.0011968
0.000247734
-0.00137768
0.000292456
-0.00156896
0.000339482
-0.00177016
0.000388206
-0.00198063
0.000437952
-0.00219957