/*--------------------------------*- C++ -*----------------------------------*\
  =========                 |
  \\      /  F ield         | OpenFOAM: The Open Source CFD Toolbox
   \\    /   O peration     | Website:  https://openfoam.org
    \\  /    A nd           | Version:  7
     \\/     M anipulation  |
\*---------------------------------------------------------------------------*/
FoamFile
{
    version     2.0;
    format      ascii;
    class       volVectorField;
    location    "67";
    object      U;
}
// * * * * * * * * * * * * * * * * * * * * * * * * * * * * * * * * * * * * * //

dimensions      [0 1 -1 0 0 0 0];

internalField   nonuniform List<vector> 
40000
(
(-0.000189795 0.00124858 -1.90298e-21)
(-0.00114445 0.00321484 5.89735e-21)
(-0.00315958 0.00473581 -3.76203e-21)
(-0.00599205 0.00585242 -3.92472e-24)
(-0.00950808 0.00660599 -3.38068e-24)
(-0.0136176 0.00703841 2.86593e-24)
(-0.0182273 0.00719168 -6.25493e-21)
(-0.0232463 0.00710664 1.48673e-21)
(-0.0285903 0.00682183 -4.24853e-21)
(-0.0341809 0.00637242 -1.34298e-21)
(-0.0399458 0.00578922 0)
(-0.0458185 0.005098 -4.84087e-21)
(-0.0517387 0.00431901 0)
(-0.057652 0.00346686 0)
(-0.0635094 0.00255068 -4.10404e-21)
(-0.0692677 0.00157465 3.87782e-21)
(-0.0748889 0.00053875 -1.82938e-21)
(-0.08034 -0.000560371 -1.45805e-24)
(-0.0855937 -0.00172836 1.62536e-21)
(-0.0906279 -0.00297221 0)
(-0.0954265 -0.00429944 -1.44185e-21)
(-0.0999801 -0.00571749 -4.07467e-21)
(-0.104287 -0.0072333 5.10355e-21)
(-0.108355 -0.00885334 -2.39336e-21)
(-0.112201 -0.0105838 6.74475e-21)
(-0.115853 -0.0124315 4.21967e-21)
(-0.11935 -0.0144041 -7.91078e-21)
(-0.122741 -0.0165117 7.41096e-21)
(-0.126075 -0.0187683 -1.73148e-21)
(-0.129425 -0.0211942 -3.25754e-21)
(-0.000244022 0.00182618 0)
(-0.00128363 0.00478444 3.94718e-21)
(-0.0033612 0.00715653 7.54745e-21)
(-0.00623741 0.00899675 -7.20285e-21)
(-0.0097813 0.0103563 -3.45375e-21)
(-0.0139052 0.011286 1.31463e-20)
(-0.018518 0.0118365 -3.13921e-21)
(-0.0235309 0.0120576 -5.97721e-21)
(-0.0288615 0.0119962 -2.12816e-23)
(-0.0344328 0.0116958 -1.61708e-20)
(-0.0401739 0.011195 5.1074e-21)
(-0.0460197 0.0105272 1.93905e-20)
(-0.0519106 0.00971979 -9.17974e-21)
(-0.057793 0.00879397 -4.82449e-24)
(-0.0636186 0.00776515 -4.12625e-21)
(-0.0693445 0.00664332 1.96543e-24)
(-0.0749329 0.00543387 0)
(-0.0803512 0.00413868 0)
(-0.0855719 0.0027572 1.30553e-20)
(-0.0905727 0.00128766 0)
(-0.0953373 -0.000271897 5.78228e-21)
(-0.0998561 -0.00192274 -5.44395e-21)
(-0.104127 -0.00366496 5.72729e-24)
(-0.108157 -0.0054973 0)
(-0.111964 -0.00741765 9.03203e-21)
(-0.115575 -0.00942405 -8.44563e-21)
(-0.119032 -0.0115164 7.91077e-21)
(-0.122384 -0.0136992 -7.41096e-21)
(-0.125685 -0.0159834 6.9501e-21)
(-0.129006 -0.0183823 -1.95803e-20)
(-0.000326859 0.00239529 -7.65448e-21)
(-0.00149654 0.00633247 -7.87816e-21)
(-0.00366773 0.00954618 0)
(-0.00660741 0.0121035 0)
(-0.0101889 0.014065 0)
(-0.014328 0.0154898 6.61025e-21)
(-0.0189366 0.0164373 0)
(-0.0239291 0.0169655 5.9686e-21)
(-0.0292253 0.0171295 1.13508e-20)
(-0.0347507 0.0169809 1.07822e-20)
(-0.0404363 0.016566 0)
(-0.0462184 0.0159255 2.24493e-23)
(-0.052039 0.0150939 -1.84231e-20)
(-0.0578453 0.014099 1.74377e-20)
(-0.0635899 0.0129623 8.22585e-21)
(-0.0692304 0.0116995 7.7861e-21)
(-0.0747292 0.0103215 -7.34387e-21)
(-0.0800537 0.00883516 1.38841e-20)
(-0.0851761 0.00724495 -2.61453e-20)
(-0.0900736 0.0055542 -1.2674e-23)
(-0.094729 0.00376642 -2.31976e-20)
(-0.0991317 0.00188637 2.1843e-20)
(-0.103278 -7.91092e-05 0)
(-0.107175 -0.00212094 0)
(-0.110837 -0.00422824 9.08268e-21)
(-0.114294 -0.00638975 0)
(-0.117587 -0.00859642 0)
(-0.120769 -0.0108462 0)
(-0.123892 -0.013146 -1.3975e-20)
(-0.127033 -0.0155006 1.30535e-20)
(-0.000437352 0.00295051 7.65448e-21)
(-0.00178076 0.00784488 -3.20142e-24)
(-0.00407573 0.0118839 3.71311e-23)
(-0.00709792 0.0151465 -1.44815e-20)
(-0.0107263 0.0177018 -1.38282e-20)
(-0.0148809 0.019617 2.67378e-23)
(-0.019478 0.0209591 -2.51765e-20)
(-0.0244353 0.0217942 1.19954e-20)
(-0.0296761 0.0221852 -2.28118e-20)
(-0.0351287 0.0221911 2.16691e-20)
(-0.0407265 0.0218659 -1.02744e-20)
(-0.0464079 0.0212573 1.95036e-20)
(-0.0521164 0.0204067 1.84231e-20)
(-0.0578007 0.0193483 4.56099e-23)
(-0.0634143 0.0181096 -1.65351e-20)
(-0.0689153 0.016712 0)
(-0.0742665 0.0151714 1.31057e-23)
(-0.079435 0.0134997 1.39208e-20)
(-0.0843925 0.0117062 -1.11292e-23)
(-0.0891152 0.00979901 -2.28137e-23)
(-0.0935846 0.00778687 2.32309e-20)
(-0.0977879 0.00568041 -2.18429e-20)
(-0.10172 0.00349329 0)
(-0.105384 0.00124263 1.93515e-20)
(-0.108795 -0.0010514 3.19894e-23)
(-0.11198 -0.00336718 -5.10754e-20)
(-0.114981 -0.00568525 1.59524e-20)
(-0.117856 -0.00799517 2.99513e-20)
(-0.120653 -0.0102974 1.3975e-20)
(-0.123457 -0.0125866 1.31264e-20)
(-0.000574099 0.00348663 3.08094e-20)
(-0.00213279 0.00930801 -1.58802e-20)
(-0.00458028 0.0141494 1.51753e-20)
(-0.00770305 0.0181002 1.45119e-20)
(-0.011387 0.0212375 0)
(-0.0155574 0.0236351 -2.65274e-20)
(-0.0201352 0.0253676 -1.26752e-20)
(-0.0250426 0.026508 -2.40352e-20)
(-0.0302069 0.0271267 1.13984e-20)
(-0.0355596 0.0272898 6.11714e-23)
(-0.041037 0.0270583 2.06219e-20)
(-0.0465801 0.0264868 1.95906e-20)
(-0.0521344 0.0256231 -3.6991e-20)
(-0.0576501 0.0245078 1.75458e-20)
(-0.0630817 0.0231741 -4.73446e-23)
(-0.0683881 0.0216488 0)
(-0.0735322 0.0199528 -1.47555e-20)
(-0.0784811 0.0181026 -2.79289e-20)
(-0.0832053 0.016112 3.94881e-20)
(-0.0876799 0.0139936 1.24329e-20)
(-0.0918843 0.0117609 0)
(-0.0958032 0.00943023 -2.19809e-20)
(-0.0994282 0.00702177 0)
(-0.102759 0.00456083 -5.81555e-20)
(-0.105808 0.00207751 3.63947e-20)
(-0.108599 -0.000394911 -2.60675e-23)
(-0.111177 -0.00282446 3.20745e-20)
(-0.113602 -0.00518951 -4.49529e-20)
(-0.115917 -0.00748054 2.81483e-20)
(-0.118217 -0.009679 1.31707e-20)
(-0.000735275 0.00399871 -1.54303e-20)
(-0.0025481 0.0107089 1.58907e-20)
(-0.00517502 0.0163233 -1.20461e-23)
(-0.00841534 0.0209403 -4.37743e-20)
(-0.0121629 0.0246435 0)
(-0.0163488 0.0275129 2.65273e-20)
(-0.0208996 0.0296292 -2.54132e-20)
(-0.0257425 0.031072 4.81376e-20)
(-0.030809 0.0319184 0)
(-0.0360348 0.0322409 -2.17302e-20)
(-0.0413593 0.0321071 -2.06219e-20)
(-0.0467262 0.0315782 -1.95526e-20)
(-0.0520835 0.0307081 -5.57191e-20)
(-0.057383 0.0295432 1.47578e-23)
(-0.0625806 0.0281225 -3.44885e-23)
(-0.0676359 0.0264778 -1.91459e-23)
(-0.0725121 0.0246346 4.45015e-20)
(-0.0771756 0.0226138 -8.79849e-23)
(-0.0815963 0.0204332 8.41593e-23)
(-0.0857473 0.0181094 -2.47842e-20)
(-0.0896054 0.0156604 -5.13499e-23)
(-0.0931521 0.0131073 4.40063e-20)
(-0.0963747 0.0104767 -6.21646e-20)
(-0.0992688 0.00780212 1.94161e-20)
(-0.101841 0.00512407 0)
(-0.104113 0.00248904 0)
(-0.10613 -5.57147e-05 -3.20743e-20)
(-0.107956 -0.00247358 3.01625e-20)
(-0.109623 -0.00473987 -2.81478e-20)
(-0.111241 -0.00681757 0)
(-0.000918677 0.00448218 -1.55247e-20)
(-0.00302118 0.0120354 0)
(-0.00585234 0.0183873 1.5273e-20)
(-0.00922585 0.0236435 8.78138e-20)
(-0.0130444 0.0278928 -2.79203e-20)
(-0.0172453 0.0312201 0)
(-0.0217613 0.0337115 -8.66794e-23)
(-0.026525 0.0354522 2.41889e-20)
(-0.0314728 0.036525 -2.29687e-20)
(-0.0365445 0.0370085 0)
(-0.0416833 0.0369763 0)
(-0.046836 0.0364956 -3.93503e-20)
(-0.0519528 0.0356261 5.5777e-20)
(-0.0569878 0.0344198 -1.76024e-20)
(-0.0618982 0.0329209 0)
(-0.0666444 0.031166 3.15074e-20)
(-0.0711898 0.029185 -2.96528e-20)
(-0.0755003 0.0270026 2.80504e-20)
(-0.0795445 0.0246403 -5.28641e-20)
(-0.0832934 0.022118 -7.48478e-20)
(-0.0867209 0.0194574 2.34394e-20)
(-0.0898042 0.016684 2.21007e-20)
(-0.0925257 0.01383 2.07093e-20)
(-0.0948751 0.0109367 0)
(-0.0968527 0.0080556 -3.67131e-20)
(-0.0984747 0.00524808 0)
(-0.0997854 0.0025798 0)
(-0.100855 0.000107522 -6.0429e-20)
(-0.1017 -0.00212161 -4.73144e-23)
(-0.10244 -0.00404347 -7.9654e-20)
(-0.00112177 0.00493297 1.55247e-20)
(-0.00354576 0.0132766 3.21509e-20)
(-0.0066035 0.0203249 3.07833e-20)
(-0.0101243 0.0261886 -2.93166e-20)
(-0.0140204 0.0309603 0)
(-0.0182356 0.0347285 0)
(-0.0227089 0.0375836 2.5444e-20)
(-0.027379 0.0396157 -2.42723e-20)
(-0.0321872 0.0409124 -5.61848e-23)
(-0.0370779 0.0415577 4.38877e-20)
(-0.0419982 0.0416305 0)
(-0.046898 0.0412034 3.93501e-20)
(-0.0517305 0.0403417 0)
(-0.0564516 0.0391025 0)
(-0.0610202 0.037535 3.65978e-23)
(-0.0653973 0.03568 3.15719e-20)
(-0.0695467 0.0335716 -2.98535e-20)
(-0.0734336 0.031238 5.63413e-20)
(-0.0770252 0.0287034 -2.65659e-20)
(-0.0802901 0.0259909 7.49585e-20)
(-0.0831986 0.0231247 0)
(-0.0857233 0.0201337 0)
(-0.0878405 0.017055 4.17623e-20)
(-0.0895325 0.013937 0)
(-0.0907919 0.0108422 3.6655e-20)
(-0.091627 0.00784818 -3.44996e-20)
(-0.0920794 0.00504259 3.23562e-20)
(-0.092225 0.00250881 -3.03653e-20)
(-0.0920616 0.000326212 5.67316e-20)
(-0.0917055 -0.00140182 7.97815e-20)
(-0.00134178 0.00534753 0)
(-0.00411486 0.014423 -3.21509e-20)
(-0.00741886 0.0221213 1.31022e-22)
(-0.0110996 0.0285563 0)
(-0.0150787 0.0338227 -5.63958e-20)
(-0.019307 0.0380118 -3.71258e-23)
(-0.02373 0.0412168 2.55671e-20)
(-0.0282921 0.0435316 0)
(-0.0329402 0.045048 2.3104e-20)
(-0.037623 0.0458544 -4.38875e-20)
(-0.0422917 0.0460346 0)
(-0.0468998 0.0456662 0)
(-0.0514031 0.0448193 -3.7489e-20)
(-0.0557598 0.043556 3.54419e-20)
(-0.0599301 0.0419297 -3.34845e-20)
(-0.0638761 0.0399856 0)
(-0.0675614 0.0377612 -3.00231e-20)
(-0.0709508 0.0352878 -8.47064e-20)
(-0.0740096 0.0325921 -3.23358e-23)
(-0.076704 0.0296992 -2.89028e-23)
(-0.0790002 0.026635 2.36283e-20)
(-0.0808655 0.0234309 4.45114e-20)
(-0.0822693 0.0201273 -8.35787e-20)
(-0.0831854 0.0167787 3.93768e-20)
(-0.0835964 0.0134579 -7.0259e-23)
(-0.0835003 0.0102595 -8.54161e-24)
(-0.0829329 0.00729664 -3.50064e-24)
(-0.0819772 0.00468719 3.04178e-20)
(-0.0806077 0.00255426 0)
(-0.0789056 0.00105393 0)
(-0.00157571 0.00572296 3.14415e-20)
(-0.00472106 0.0154665 1.19143e-22)
(-0.00828808 0.0237639 1.38132e-22)
(-0.0121394 0.0307298 -5.93176e-20)
(-0.0162063 0.0364598 5.64707e-20)
(-0.0204462 0.0410461 0)
(-0.024811 0.0445844 0)
(-0.029251 0.0471708 4.89069e-20)
(-0.0337183 0.0489006 -4.64397e-20)
(-0.0381663 0.0498659 6.11463e-23)
(-0.0425503 0.0501548 8.37962e-20)
(-0.0468272 0.0498491 3.9716e-20)
(-0.0509556 0.0490235 -7.51999e-20)
(-0.0548958 0.0477444 3.55672e-20)
(-0.0586095 0.0460695 3.36793e-20)
(-0.0620595 0.0440477 -3.17901e-20)
(-0.0652094 0.0417196 5.99783e-20)
(-0.068023 0.0391192 8.51678e-20)
(-0.0704641 0.0362751 5.35972e-20)
(-0.0724956 0.0332136 2.52374e-20)
(-0.0740797 0.0299616 -4.74222e-20)
(-0.0751777 0.0265513 0)
(-0.0757514 0.0230249 5.90293e-23)
(-0.0757649 0.0194412 3.9568e-20)
(-0.0751889 0.015882 3.70371e-20)
(-0.0740082 0.0124583 -6.95906e-20)
(-0.072249 0.00931233 -3.25682e-20)
(-0.0700027 0.00660487 6.11181e-20)
(-0.0672239 0.00451519 0)
(-0.0638871 0.00327182 -5.35629e-20)
(-0.00182049 0.00605705 3.15576e-20)
(-0.00535662 0.0164006 -6.49892e-20)
(-0.00920041 0.0252422 4.21267e-23)
(-0.0132311 0.0326949 -1.33868e-22)
(-0.0173894 0.0388536 0)
(-0.0216389 0.0438105 0)
(-0.0259374 0.0476621 0)
(-0.0302411 0.0505064 -4.90999e-20)
(-0.0345071 0.052441 4.66229e-20)
(-0.0386935 0.053561 -4.42123e-20)
(-0.0427593 0.0539581 -8.39973e-20)
(-0.0466647 0.0537179 -4.21327e-23)
(-0.0503712 0.0529191 7.55219e-20)
(-0.0538411 0.0516321 3.57809e-20)
(-0.0570372 0.0499184 0)
(-0.0599231 0.0478303 -6.39578e-20)
(-0.062462 0.0454115 9.05644e-20)
(-0.0646168 0.042698 -8.52308e-20)
(-0.0663488 0.0397199 -5.36255e-20)
(-0.067618 0.036504 -1.51778e-19)
(-0.0683819 0.0330772 -5.07343e-23)
(-0.0685957 0.029471 -4.15382e-23)
(-0.0682125 0.0257278 5.47935e-23)
(-0.0671859 0.021908 -7.91002e-20)
(-0.0654736 0.0180998 1.11583e-19)
(-0.0630436 0.0144296 -2.21165e-22)
(-0.0599066 0.0110698 0)
(-0.0561663 0.00823233 -6.1117e-20)
(-0.0517735 0.00616341 5.73502e-20)
(-0.0464291 0.00518999 5.37633e-20)
(-0.00207303 0.00634831 0)
(-0.00601372 0.0172209 -3.27041e-20)
(-0.0101449 0.0265484 3.12445e-20)
(-0.0143618 0.0344404 5.97155e-20)
(-0.0186139 0.0409895 2.85719e-20)
(-0.0228701 0.0462869 -5.43577e-20)
(-0.0270941 0.0504289 -8.80849e-23)
(-0.0312472 0.0535142 -4.92535e-20)
(-0.0352912 0.0556421 0)
(-0.0391886 0.0569103 4.45585e-20)
(-0.042902 0.0574129 0)
(-0.0463948 0.0572392 0)
(-0.0496308 0.0564713 -7.57514e-20)
(-0.0525742 0.0551832 -7.16458e-20)
(-0.055189 0.05344 1.01798e-19)
(-0.0574388 0.051297 6.39572e-20)
(-0.0592863 0.0488006 1.42226e-22)
(-0.0606928 0.0459888 -5.70607e-20)
(-0.0616173 0.0428926 1.07624e-19)
(-0.0620161 0.0395389 1.38619e-24)
(-0.0618416 0.0359537 9.56099e-20)
(-0.0610423 0.0321665 0)
(-0.0595627 0.0282176 0)
(-0.0573449 0.0241665 7.95498e-20)
(-0.054332 0.020104 -1.11709e-19)
(-0.0504732 0.0161685 1.04776e-19)
(-0.0457565 0.0125621 -6.56141e-20)
(-0.0403008 0.00954964 6.14459e-20)
(-0.0341114 0.00745793 -1.14837e-19)
(-0.0263207 0.0068072 5.39774e-20)
(-0.00233028 0.006596 -3.19732e-20)
(-0.00668463 0.0179246 0)
(-0.0111106 0.0276771 0)
(-0.0155185 0.0359579 -6.01931e-20)
(-0.0198653 0.042856 1.14777e-19)
(-0.0241247 0.0484604 -5.4603e-20)
(-0.0282651 0.0528664 -1.32778e-22)
(-0.0322528 0.0561728 4.94632e-20)
(-0.0360538 0.0584796 0)
(-0.0396341 0.0598863 1.06424e-22)
(-0.04296 0.0604894 3.57781e-23)
(-0.0459975 0.060381 -8.0282e-20)
(-0.0487126 0.0596462 -2.28365e-22)
(-0.0510707 0.0583624 -3.59938e-20)
(-0.0530366 0.0565977 -1.02076e-19)
(-0.0545737 0.0544106 6.43309e-20)
(-0.0556436 0.0518497 -6.06768e-20)
(-0.0562053 0.0489548 1.14712e-19)
(-0.0562151 0.0457579 -1.08106e-19)
(-0.0556246 0.0422855 -1.01815e-19)
(-0.0543812 0.0385618 1.02176e-22)
(-0.0524259 0.0346136 -4.50836e-20)
(-0.0496941 0.030477 4.2418e-20)
(-0.046116 0.0262074 2.60712e-22)
(-0.0416194 0.0218939 -1.12276e-19)
(-0.0361332 0.0176818 -7.02184e-20)
(-0.0296165 0.0137978 1.31391e-19)
(-0.0221925 0.0105501 -1.23025e-19)
(-0.013991 0.00836943 5.74867e-20)
(-0.00347294 0.00839591 -3.28139e-23)
(-0.00258939 0.00680017 9.61178e-20)
(-0.00736196 0.0185108 -3.29847e-20)
(-0.0120871 0.0286257 -6.31912e-20)
(-0.0166884 0.0372423 1.80985e-19)
(-0.0211291 0.0444449 2.71158e-22)
(-0.0253869 0.0503195 0)
(-0.0294341 0.0549598 0)
(-0.0332407 0.0584637 4.97113e-20)
(-0.0367765 0.0609317 -4.71205e-20)
(-0.0400108 0.0624643 4.48104e-20)
(-0.0429125 0.06316 -4.25322e-20)
(-0.0454501 0.0631129 -8.07691e-20)
(-0.0475911 0.0624112 1.52482e-19)
(-0.0493018 0.0611351 -3.60875e-20)
(-0.0505471 0.0593555 6.80756e-20)
(-0.0512893 0.0571338 -1.2903e-19)
(-0.0514884 0.054521 -6.85228e-23)
(-0.0511006 0.0515585 6.15175e-23)
(-0.050078 0.0482792 1.08344e-19)
(-0.0483675 0.0447091 -5.30253e-23)
(-0.0459098 0.0408706 0)
(-0.0426384 0.0367868 0)
(-0.038479 0.0324882 -4.2651e-20)
(-0.0333495 0.0280232 -1.59699e-19)
(-0.0271621 0.0234747 1.12384e-19)
(-0.0198248 0.0189873 -1.7872e-22)
(-0.0112713 0.0148026 -1.31701e-19)
(-0.00160519 0.0112663 1.2317e-19)
(0.00910027 0.00897479 -5.76808e-20)
(0.0222719 0.00966857 5.36901e-20)
(-0.00284772 0.00696156 0)
(-0.00803878 0.0189805 0)
(-0.0130642 0.0293942 6.36427e-20)
(-0.017859 0.0382914 -1.21144e-19)
(-0.0223913 0.0457513 1.13983e-22)
(-0.0266411 0.0518563 -5.51467e-20)
(-0.0305838 0.0566976 1.57562e-19)
(-0.0341924 0.0603721 -1.49835e-19)
(-0.0374394 0.0629799 -9.998e-25)
(-0.0402968 0.0646224 -4.4994e-20)
(-0.0427357 0.0653993 -1.28224e-19)
(-0.0447261 0.0654069 1.21168e-19)
(-0.0462365 0.0647355 0)
(-0.0472335 0.0634681 0)
(-0.0476811 0.0616784 6.83935e-20)
(-0.04754 0.0594302 1.29594e-19)
(-0.0467672 0.056777 -6.10827e-20)
(-0.0453152 0.053762 0)
(-0.043131 0.050419 -5.43978e-20)
(-0.0401552 0.046774 -5.26634e-23)
(-0.0363213 0.0428475 -4.83916e-20)
(-0.0315539 0.0386588 0)
(-0.0257682 0.0342321 -4.28992e-20)
(-0.0188699 0.0296068 4.00596e-20)
(-0.0107554 0.0248549 -7.51685e-20)
(-0.00131159 0.0201123 2.11333e-19)
(0.0095513 0.0156232 -1.07912e-22)
(0.0217462 0.0117664 6.17817e-20)
(0.0353224 0.00931261 0)
(0.0517528 0.0104271 -5.43089e-20)
(-0.00310296 0.00708166 -6.48659e-20)
(-0.00870881 0.0193364 6.66841e-20)
(-0.0140326 0.0299847 1.85936e-22)
(-0.0190185 0.0391061 -6.0914e-20)
(-0.0236376 0.0467737 0)
(-0.0278711 0.0530662 -1.10917e-19)
(-0.0316962 0.0580719 1.06337e-22)
(-0.0350877 0.0618864 4.99173e-20)
(-0.0380203 0.0646092 4.12409e-25)
(-0.0404675 0.0663419 -1.79618e-23)
(-0.042402 0.0671854 1.28366e-19)
(-0.0437944 0.0672376 4.06055e-20)
(-0.0446136 0.066591 3.85757e-20)
(-0.0448252 0.0653308 -7.2738e-20)
(-0.0443917 0.0635333 6.87107e-20)
(-0.043271 0.061265 -6.48319e-20)
(-0.041416 0.0585816 6.13325e-20)
(-0.038774 0.0555284 -5.78066e-20)
(-0.0352854 0.0521406 0)
(-0.0308832 0.0484444 -5.14828e-20)
(-0.0254919 0.0444592 9.66399e-20)
(-0.019026 0.0402012 4.56277e-20)
(-0.0113895 0.0356883 -4.29831e-20)
(-0.00247505 0.03095 1.60739e-19)
(0.00783621 0.026044 -3.76866e-20)
(0.0196774 0.0210898 7.06873e-20)
(0.0331645 0.0163195 -6.60451e-20)
(0.0482234 0.0121298 1.0123e-22)
(0.064977 0.00944427 0)
(0.0852827 0.0109145 -1.07327e-19)
(-0.00335315 0.00716256 -1.50895e-22)
(-0.00936656 0.0195828 -6.70497e-20)
(-0.0149839 0.030402 0)
(-0.0201556 0.03969 -6.1399e-20)
(-0.0248543 0.0475138 5.84217e-20)
(-0.0290606 0.0539481 -1.2022e-22)
(-0.0327521 0.0590785 0)
(-0.0359049 0.0629988 -1.13738e-22)
(-0.0384942 0.065808 -4.77228e-20)
(-0.0404945 0.0676078 4.53629e-20)
(-0.0418789 0.0684999 0)
(-0.042618 0.0685835 -8.15002e-20)
(-0.0426796 0.067953 7.73771e-20)
(-0.042028 0.0666959 0)
(-0.0406223 0.0648907 0)
(-0.0384165 0.0626065 0)
(-0.035358 0.0599017 0)
(-0.0313872 0.0568236 5.80214e-20)
(-0.0264362 0.0534094 -5.46476e-20)
(-0.0204284 0.0496864 1.54402e-19)
(-0.0132775 0.045674 -9.69672e-20)
(-0.00488618 0.041386 -9.1134e-20)
(0.00485425 0.0368358 1.28491e-19)
(0.0160647 0.0320433 1.59263e-22)
(0.0288784 0.027051 -7.55736e-20)
(0.0434463 0.0219554 -7.06851e-20)
(0.0599114 0.0169625 -6.62297e-20)
(0.0782108 0.0124563 1.23775e-19)
(0.0984736 0.00945764 -1.15414e-19)
(0.123273 0.0112962 2.14407e-19)
(-0.00359678 0.00720688 1.31112e-19)
(-0.0100074 0.0197253 -1.64997e-22)
(-0.0159103 0.0306527 -1.29099e-19)
(-0.0212597 0.0400494 1.23111e-19)
(-0.0260275 0.0479762 -5.88434e-20)
(-0.0301924 0.0545043 -5.59129e-20)
(-0.0337312 0.0597166 5.3195e-20)
(-0.0366195 0.0637055 5.05625e-20)
(-0.0388326 0.0665691 -9.61222e-20)
(-0.0403446 0.0684094 -1.3682e-19)
(-0.041128 0.0693287 -4.31776e-20)
(-0.0411523 0.0694274 1.63552e-19)
(-0.0403833 0.0688016 -2.32038e-19)
(-0.0387822 0.0675407 7.3173e-20)
(-0.0363038 0.0657258 0)
(-0.0328965 0.0634284 0)
(-0.0285003 0.0607093 0)
(-0.0230469 0.0576189 1.16374e-19)
(-0.0164581 0.0541966 -5.47825e-20)
(-0.00864544 0.0504716 -5.17062e-20)
(0.000490293 0.0464648 -9.71763e-20)
(0.0110602 0.0421897 9.13969e-20)
(0.0231873 0.0376566 -4.29411e-20)
(0.0370068 0.0328789 -8.0651e-20)
(0.0526654 0.0278845 -8.3419e-23)
(0.0703277 0.0227449 -1.41638e-19)
(0.0901618 0.0176292 1.98727e-19)
(0.112115 0.0128733 -1.85762e-19)
(0.136236 0.0095105 5.80138e-20)
(0.166203 0.011729 -5.3312e-20)
(-0.00383273 0.0072177 -6.57401e-20)
(-0.0106274 0.0197707 6.76313e-20)
(-0.0168051 0.0307453 6.46443e-20)
(-0.0223207 0.0401926 -1.85614e-19)
(-0.0271433 0.0481683 5.88406e-20)
(-0.0312485 0.0547401 5.6177e-20)
(-0.0346107 0.0599892 0)
(-0.0372041 0.0640063 0)
(-0.0390024 0.0668895 4.81105e-20)
(-0.0399787 0.0687406 9.12719e-20)
(-0.0401034 0.0696627 -1.73477e-19)
(-0.0393437 0.0697575 -1.34185e-22)
(-0.0376622 0.0691225 0)
(-0.0350154 0.067849 0)
(-0.0313522 0.0660206 -6.9369e-20)
(-0.0266135 0.0637111 -2.60231e-23)
(-0.0207303 0.0609844 6.17819e-20)
(-0.013623 0.0578938 -5.82086e-20)
(-0.00520117 0.0544818 -1.09939e-19)
(0.00463781 0.050781 1.03344e-19)
(0.0160085 0.0468145 4.86881e-20)
(0.0290376 0.0425979 -1.37382e-19)
(0.0438641 0.0381417 -8.60171e-20)
(0.0606377 0.0334554 8.07375e-20)
(0.0795174 0.0285569 7.57487e-20)
(0.100676 0.0234948 7.08709e-20)
(0.124301 0.0183964 0)
(0.150353 0.0135222 0)
(0.178672 0.00979577 1.15257e-19)
(0.214526 0.0124175 0)
(-0.00406032 0.00719838 6.64865e-20)
(-0.0112235 0.0197266 -6.81956e-20)
(-0.0176621 0.0306894 1.30487e-19)
(-0.0233285 0.0401299 -3.21859e-22)
(-0.0281874 0.0480996 0)
(-0.0322094 0.0546639 0)
(-0.0353655 0.0599024 0)
(-0.037627 0.0639054 -5.09916e-20)
(-0.0389652 0.0667706 4.84189e-20)
(-0.0393503 0.0686003 0)
(-0.03875 0.0694986 8.68185e-20)
(-0.0371275 0.0695683 8.23413e-20)
(-0.0344405 0.0689084 -7.7984e-20)
(-0.0306393 0.0676122 7.36235e-20)
(-0.0256651 0.0657655 -8.21248e-23)
(-0.0194492 0.0634449 -6.56431e-20)
(-0.0119113 0.0607175 -6.19938e-20)
(-0.00295884 0.0576398 1.75289e-19)
(0.00751379 0.0542584 5.49301e-20)
(0.0196253 0.0506098 -1.03681e-19)
(0.0335075 0.0467216 -4.87542e-20)
(0.0493047 0.0426133 4.57296e-20)
(0.067172 0.0382983 0)
(0.0872734 0.0337872 -8.08429e-20)
(0.109778 0.029093 -7.57754e-20)
(0.134859 0.0242475 0)
(0.16271 0.0193401 6.61572e-20)
(0.193321 0.0145458 -1.23938e-19)
(0.226141 0.0105201 -1.73017e-19)
(0.268613 0.0136152 0)
(-0.00427924 0.00715242 -1.33162e-19)
(-0.0117936 0.019601 6.87568e-20)
(-0.0184757 0.0304956 -1.31025e-19)
(-0.0242731 0.039873 -3.27189e-22)
(-0.0291442 0.0477818 0)
(-0.0330534 0.0542864 0)
(-0.0359668 0.0594659 5.40544e-20)
(-0.0378517 0.0634105 1.02672e-19)
(-0.0386755 0.0662186 0)
(-0.0384046 0.0679932 0)
(-0.0370019 0.0688396 -1.74695e-19)
(-0.0344256 0.0688617 8.27445e-20)
(-0.0306266 0.0681605 -1.38314e-22)
(-0.0255471 0.0668312 0)
(-0.0191187 0.0649619 -8.15849e-23)
(-0.0112607 0.0626324 6.57967e-20)
(-0.00187936 0.0599128 -1.66424e-22)
(0.00913331 0.056864 -2.33946e-19)
(0.0218998 0.053537 -5.50959e-20)
(0.0365571 0.0499736 1.03679e-19)
(0.0532554 0.046207 9.76028e-20)
(0.0721569 0.0422627 -3.88154e-23)
(0.0934324 0.0381603 8.61852e-20)
(0.117258 0.033915 1.61697e-19)
(0.143806 0.0295414 7.57724e-20)
(0.173242 0.0250629 7.08941e-20)
(0.205745 0.0205411 6.60974e-20)
(0.241359 0.0160833 1.23299e-19)
(0.278906 0.0118878 -7.62355e-22)
(0.32867 0.015603 5.18454e-20)
(-0.0044895 0.00708332 1.34316e-19)
(-0.0123355 0.019402 -2.06845e-19)
(-0.0192402 0.0301748 1.3174e-19)
(-0.025144 0.0394342 1.2569e-19)
(-0.0299969 0.0472279 5.9864e-20)
(-0.0337561 0.0536205 -4.08256e-23)
(-0.0363816 0.0586919 -5.39497e-20)
(-0.0378354 0.0625334 -1.02672e-19)
(-0.03808 0.0652445 2.47702e-22)
(-0.0370761 0.0669297 1.85011e-19)
(-0.0347808 0.0676956 -8.79379e-20)
(-0.0311449 0.067648 1.65832e-19)
(-0.026111 0.0668896 -6.01214e-23)
(-0.0196111 0.065518 -1.48027e-19)
(-0.0115646 0.063624 -5.52327e-23)
(-0.00187709 0.0612905 0)
(0.00956106 0.0585917 3.10789e-19)
(0.0228753 0.055593 5.84866e-20)
(0.0382068 0.0523507 0)
(0.0557117 0.0489129 5.19207e-20)
(0.0755587 0.0453198 -4.88364e-20)
(0.0979265 0.0416049 1.83567e-19)
(0.122998 0.0377958 -2.58549e-19)
(0.150955 0.0339163 8.08686e-20)
(0.181965 0.0299873 0)
(0.216171 0.0260324 7.07541e-20)
(0.253708 0.0220967 -1.32235e-19)
(0.294706 0.0182719 1.23162e-19)
(0.33709 0.0140882 -1.14669e-19)
(0.394656 0.018661 -1.05159e-19)
(-0.00469129 0.00699439 -1.34901e-19)
(-0.0128476 0.0191375 -3.97402e-22)
(-0.01995 0.0297378 -6.60503e-20)
(-0.0259292 0.0388263 -6.3012e-20)
(-0.030726 0.0464518 -1.20517e-19)
(-0.0342892 0.052681 5.7299e-20)
(-0.0365715 0.0575957 9.50497e-23)
(-0.0375284 0.0612895 -1.03346e-19)
(-0.0371159 0.0638642 -1.46716e-19)
(-0.0352879 0.0654262 1.21501e-22)
(-0.0319937 0.0660842 8.76474e-20)
(-0.027175 0.0659462 -1.66078e-19)
(-0.0207638 0.0651171 7.86073e-20)
(-0.0126797 0.0636973 7.42819e-20)
(-0.00282787 0.0617806 -5.04103e-23)
(0.00890231 0.0594536 6.60695e-20)
(0.0226383 0.0567951 -1.24416e-19)
(0.0385246 0.0538756 0)
(0.0567219 0.0507579 -1.10477e-19)
(0.0774049 0.0474973 1.03933e-19)
(0.100759 0.0441422 -9.77094e-20)
(0.126975 0.0407353 -9.17934e-20)
(0.156242 0.0373141 0)
(0.188734 0.0339126 -2.42333e-19)
(0.2246 0.0305617 1.24927e-22)
(0.263941 0.0272903 -3.53686e-19)
(0.306806 0.0241339 1.98431e-19)
(0.353443 0.0212516 -2.45954e-19)
(0.40062 0.01729 1.14662e-19)
(0.46619 0.0230393 -1.03769e-19)
(-0.00488488 0.0068886 6.76477e-20)
(-0.0133281 0.0188145 6.95423e-20)
(-0.0205982 0.0291948 6.68014e-20)
(-0.0266151 0.0380619 -2.06007e-22)
(-0.0313093 0.045468 -1.85701e-22)
(-0.03462 0.0514836 0)
(-0.0364918 0.0561946 0)
(-0.0368724 0.059698 0)
(-0.0357101 0.0620985 0)
(-0.0329502 0.0635058 0)
(-0.0285322 0.0640312 8.80431e-20)
(-0.022387 0.0637854 -8.33227e-20)
(-0.0144337 0.0628764 7.88365e-20)
(-0.00457701 0.0614076 4.39075e-23)
(0.00729424 0.0594767 -7.01028e-20)
(0.0213089 0.0571747 -1.63822e-23)
(0.0376137 0.0545854 -1.24756e-19)
(0.0563728 0.0517858 1.1747e-19)
(0.0777658 0.0488456 1.10474e-19)
(0.101984 0.0458284 -1.03886e-19)
(0.129224 0.0427918 1.95449e-19)
(0.15968 0.0397884 0)
(0.193534 0.0368664 -1.72137e-19)
(0.230939 0.0340703 2.4762e-22)
(0.271999 0.0314415 3.31748e-22)
(0.316747 0.0290163 5.77539e-22)
(0.365101 0.0268161 -6.55497e-20)
(0.417424 0.0251663 1.22791e-19)
(0.469181 0.0216392 1.13981e-19)
(0.542465 0.0289284 5.41553e-20)
(-0.00507045 0.0067684 0)
(-0.0137742 0.0184391 7.01426e-20)
(-0.0211767 0.0285549 -6.66168e-20)
(-0.0271857 0.0371526 -1.44486e-22)
(-0.0317205 0.0442906 1.21665e-19)
(-0.0347102 0.0500453 -5.78977e-20)
(-0.0360904 0.0545082 0)
(-0.0358 0.0577809 0)
(-0.0337778 0.059973 -9.87278e-20)
(-0.0299589 0.0611977 9.36588e-20)
(-0.0242714 0.0615703 8.86565e-20)
(-0.0166327 0.0612048 0)
(-0.00694695 0.060213 7.90966e-20)
(0.00489796 0.0587023 0)
(0.0190318 0.0567748 -1.40483e-19)
(0.0356029 0.0545268 1.98735e-19)
(0.0547779 0.0520484 1.872e-19)
(0.0767398 0.0494234 -5.87367e-20)
(0.101684 0.0467298 -5.50974e-23)
(0.129813 0.0440399 -1.55966e-19)
(0.161325 0.0414209 0)
(0.196406 0.0389356 0)
(0.235212 0.0366421 8.60783e-20)
(0.277846 0.0345938 1.61183e-19)
(0.324342 0.0328406 -4.08753e-23)
(0.374626 0.0314235 1.41117e-19)
(0.428442 0.0303365 1.31606e-19)
(0.486204 0.0301507 0)
(0.542172 0.0272556 -1.13973e-19)
(0.622192 0.036429 1.56183e-19)
(-0.00524787 0.00663564 6.89125e-20)
(-0.0141827 0.018016 0)
(-0.0216753 0.0278257 1.68625e-22)
(-0.0276214 0.0361092 -6.42887e-20)
(-0.0319285 0.0429334 6.13522e-20)
(-0.0345154 0.0483833 5.8109e-20)
(-0.0353075 0.0525572 -1.11846e-22)
(-0.0342337 0.0555637 5.25761e-20)
(-0.0312221 0.0575177 0)
(-0.0261958 0.0585378 -1.87938e-19)
(-0.0190692 0.0587436 2.65553e-22)
(-0.00974455 0.0582541 0)
(0.00189142 0.0571853 7.93389e-20)
(0.0159695 0.0556497 -2.24244e-19)
(0.0326392 0.053755 7.0508e-20)
(0.0520689 0.0516036 -6.63073e-20)
(0.074444 0.0492928 -1.24964e-19)
(0.0999631 0.0469143 -1.765e-19)
(0.128832 0.0445547 0)
(0.161253 0.0422953 0)
(0.197414 0.0402128 9.76294e-20)
(0.237471 0.0383787 9.15643e-20)
(0.281528 0.0368587 -8.60179e-20)
(0.329607 0.0357119 0)
(0.381632 0.0349908 0)
(0.437382 0.0347344 0)
(0.496398 0.0348976 1.30704e-19)
(0.558977 0.036302 -6.06316e-20)
(0.618678 0.0342242 1.14161e-19)
(0.703565 0.0455242 1.00924e-19)
(-0.00541648 0.00649141 -1.38035e-19)
(-0.0145482 0.0175485 7.106e-20)
(-0.0220811 0.0270131 -6.8041e-20)
(-0.0278986 0.0349407 6.48486e-20)
(-0.0318971 0.0414094 -6.13522e-20)
(-0.0339839 0.0465146 5.84192e-20)
(-0.0340741 0.0503641 -5.5579e-20)
(-0.0320853 0.0530743 -1.05014e-19)
(-0.0279335 0.0547672 9.99191e-20)
(-0.0215279 0.0555678 1.88625e-19)
(-0.0127674 0.0556016 8.9013e-20)
(-0.00153686 0.0549931 -8.42918e-20)
(0.0122959 0.0538642 2.26788e-22)
(0.0288816 0.0523333 -5.73646e-25)
(0.0483899 0.0505149 7.066e-20)
(0.0710077 0.0485186 0)
(0.0969359 0.0464497 1.2504e-19)
(0.126382 0.0444081 2.94178e-19)
(0.159552 0.0424892 -5.53737e-20)
(0.196634 0.040783 0)
(0.237784 0.0393739 -1.952e-19)
(0.283101 0.038339 -9.15125e-20)
(0.332602 0.0377474 -8.56834e-20)
(0.386193 0.0376575 8.04463e-20)
(0.443641 0.0381167 -7.48895e-20)
(0.504527 0.0391492 7.02357e-20)
(0.568197 0.0406807 -5.46547e-22)
(0.634544 0.0436476 1.20685e-19)
(0.697438 0.0426123 -1.12933e-19)
(0.784223 0.0560999 -2.02784e-19)
(-0.00557496 0.00633606 6.98614e-20)
(-0.0148638 0.017038 7.14877e-20)
(-0.0223777 0.026121 -2.5592e-22)
(-0.0279894 0.0336544 4.20397e-22)
(-0.0315835 0.0397302 0)
(-0.0330566 0.0444565 -2.51519e-22)
(-0.0323124 0.0479521 -1.67834e-19)
(-0.0292562 0.050343 0)
(-0.0237904 0.05176 -1.00317e-19)
(-0.0158086 0.0523355 -3.78836e-19)
(-0.00519271 0.0522023 8.96191e-20)
(0.0081916 0.0514917 -8.46029e-20)
(0.0244964 0.0503328 -1.59077e-19)
(0.0438924 0.0488511 1.50368e-19)
(0.0665678 0.0471687 0)
(0.0927248 0.0454036 6.6488e-20)
(0.122573 0.0436692 -1.8805e-19)
(0.156317 0.0420743 -5.89074e-20)
(0.194149 0.0407219 -1.66106e-19)
(0.236221 0.0397088 0)
(0.282627 0.0391232 1.95085e-19)
(0.333379 0.0390434 9.15077e-20)
(0.388367 0.0395344 0)
(0.447334 0.0406443 8.0048e-20)
(0.509849 0.0424058 0)
(0.575251 0.0448112 -6.9537e-20)
(0.642712 0.0478006 -1.94501e-19)
(0.711378 0.0521153 -2.40754e-19)
(0.776855 0.0525485 -1.11329e-19)
(0.86115 0.068013 -3.09025e-21)
(-0.00572111 0.0061691 -6.98614e-20)
(-0.0151198 0.0164843 3.1082e-22)
(-0.0225451 0.0251511 6.87737e-20)
(-0.02786 0.0322558 -6.52689e-20)
(-0.0309388 0.0379062 -6.22166e-20)
(-0.0316667 0.0422254 1.17974e-19)
(-0.0299354 0.0453451 5.62432e-20)
(-0.0256374 0.0474025 1.06529e-19)
(-0.0186597 0.0485382 1.00392e-19)
(-0.00887944 0.0488941 9.53082e-20)
(0.00384042 0.0486112 1.80015e-19)
(0.0196538 0.0478293 -3.10945e-22)
(0.0387325 0.0466854 0)
(0.0612659 0.0453137 -7.51744e-20)
(0.0874569 0.043845 -1.93444e-22)
(0.117515 0.0424057 1.20026e-22)
(0.151649 0.0411177 1.88141e-19)
(0.190045 0.0400973 0)
(0.232857 0.0394534 1.10698e-19)
(0.280174 0.0392852 0)
(0.331997 0.0396798 -5.44997e-23)
(0.388203 0.0407079 -9.11954e-20)
(0.448518 0.0424202 1.71009e-19)
(0.512479 0.0448429 -8.03218e-20)
(0.579422 0.0479808 -1.48992e-19)
(0.648417 0.0517754 6.95234e-20)
(0.718493 0.0562413 2.58708e-19)
(0.787845 0.0615216 5.98491e-20)
(0.855133 0.0642808 2.76183e-19)
(0.930891 0.0807626 5.23208e-20)
(-0.00585165 0.00598925 7.06202e-20)
(-0.015304 0.0158852 -1.44897e-19)
(-0.0225587 0.0241035 0)
(-0.0274716 0.0307486 0)
(-0.029907 0.0359468 6.26236e-20)
(-0.029739 0.0398378 -2.77476e-22)
(-0.0268473 0.0425678 -1.12597e-19)
(-0.0211101 0.0442871 -1.06742e-19)
(-0.0123986 0.0451478 4.01451e-22)
(-0.000571888 0.0453019 4.22422e-22)
(0.0145262 0.0449007 -9.00174e-20)