/*--------------------------------*- C++ -*----------------------------------*\
  =========                 |
  \\      /  F ield         | OpenFOAM: The Open Source CFD Toolbox
   \\    /   O peration     | Website:  https://openfoam.org
    \\  /    A nd           | Version:  7
     \\/     M anipulation  |
\*---------------------------------------------------------------------------*/
FoamFile
{
    version     2.0;
    format      ascii;
    class       volVectorField;
    location    "60";
    object      U;
}
// * * * * * * * * * * * * * * * * * * * * * * * * * * * * * * * * * * * * * //

dimensions      [0 1 -1 0 0 0 0];

internalField   nonuniform List<vector> 
183
(
(0.932021 0.291902 3.89114e-23)
(0.906086 0.4987 -6.81431e-23)
(0.921979 0.288915 8.3639e-22)
(0.892621 0.501956 2.90888e-22)
(0.911519 0.285812 -3.53901e-21)
(0.879059 0.504665 3.71409e-21)
(0.900593 0.28253 -1.21225e-21)
(0.865454 0.506807 2.88407e-22)
(0.889168 0.278994 5.80015e-22)
(0.851852 0.508366 -4.34306e-22)
(0.877226 0.275112 -1.03584e-20)
(0.838289 0.509324 2.41044e-22)
(0.864784 0.270783 1.20716e-20)
(0.824792 0.509669 -5.82132e-22)
(0.851887 0.265907 6.07531e-22)
(0.811377 0.509391 -6.21995e-22)
(0.838604 0.260388 -1.18964e-22)
(0.798053 0.508482 -7.01086e-22)
(0.825025 0.254134 1.79713e-21)
(0.784818 0.506935 -7.10286e-22)
(0.773438 0.579547 -2.45469e-21)
(0.81125 0.247062 -4.03211e-21)
(0.77167 0.504746 1.68256e-21)
(0.761819 0.578415 3.03483e-21)
(0.797383 0.239103 3.37825e-21)
(0.758599 0.501912 -2.44381e-21)
(0.749911 0.577215 -2.79863e-21)
(0.783515 0.230194 1.78457e-20)
(0.745599 0.49843 -1.40664e-20)
(0.737784 0.575937 1.00053e-20)
(0.769716 0.220285 -9.17177e-22)
(0.732663 0.494294 -7.3189e-21)
(0.725514 0.574565 -3.25394e-21)
(0.75603 0.209338 1.63438e-20)
(0.719784 0.489496 6.04288e-22)
(0.713179 0.573074 2.52656e-21)
(0.742466 0.197325 4.60482e-21)
(0.706963 0.484023 -6.02863e-21)
(0.700857 0.571438 -3.80636e-21)
(0.694201 0.477855 1.0657e-21)
(0.688623 0.569625 8.01813e-22)
(0.681502 0.470973 -7.14331e-21)
(0.676541 0.567607 7.95953e-22)
(0.668863 0.463306 -5.48565e-22)
(0.664642 0.565318 1.7263e-21)
(0.656326 0.455024 -2.74941e-22)
(0.653061 0.562934 -4.3187e-21)
(0.642911 0.443841 5.42049e-21)
(0.640498 0.559415 -3.05807e-21)
(0.599742 0.443501 0)
(0.608113 0.554216 0)
(0.513538 0.457139 0)
(0.614977 0.488884 0)
(0.52605 0.409258 0)
(0.722196 0.373731 0)
(0.669276 0.341511 0)
(0.891557 0.257076 0)
(0.87406 0.274659 0)
(1.05663 0.168322 0)
(1.02866 0.208359 0)
(1.15388 0.110909 0)
(1.09632 0.151755 0)
(1.1789 0.0788846 0)
(1.10841 0.109919 0)
(1.16636 0.0587913 0)
(1.10221 0.0793293 0)
(1.14478 0.0442697 0)
(1.09388 0.0568485 0)
(1.125 0.0326883 0)
(1.08691 0.0403982 0)
(1.10912 0.0236487 0)
(1.08118 0.0284451 0)
(1.09663 0.016697 0)
(1.07636 0.0197861 0)
(1.08684 0.0114461 0)
(1.07236 0.0135836 0)
(1.07924 0.00755444 0)
(1.06907 0.00917755 0)
(1.07339 0.0047326 0)
(1.06634 0.00608923 0)
(1.06888 0.00276301 0)
(1.06405 0.00394612 0)
(1.06536 0.00145416 0)
(1.06223 0.0024718 0)
(1.06273 0.000645853 0)
(1.06091 0.00146802 0)
(1.06088 0.000210279 0)
(1.06006 0.000762846 0)
(1.0597 2.70344e-05 0)
(1.0596 0.000241739 0)
(1.0591 -1.96707e-06 0)
(1.11664 0.326189 0)
(1.10636 0.32014 0)
(1.0999 0.264075 0)
(1.07708 0.244383 0)
(1.07419 0.195047 0)
(1.06807 0.165441 0)
(1.06701 0.130451 0)
(1.06289 0.104689 0)
(1.05887 0.0826828 0)
(1.05527 0.0651689 0)
(1.05277 0.0511547 0)
(1.05113 0.0400607 0)
(1.05014 0.0313714 0)
(1.04952 0.0245478 0)
(1.04909 0.0191653 0)
(1.04872 0.0148358 0)
(1.04847 0.0112943 0)
(1.04838 0.00830108 0)
(1.04836 0.0056866 0)
(1.0483 0.003311 0)
(1.0482 0.00108672 0)
(1.04326 0.401114 0)
(1.02631 0.364053 0)
(1.04073 0.304819 0)
(1.01911 0.268349 0)
(1.0126 0.224081 0)
(1.0053 0.191398 0)
(1.00665 0.153801 0)
(1.01298 0.122377 0)
(1.01993 0.0945964 0)
(1.02621 0.0729642 0)
(1.03175 0.0562168 0)
(1.03646 0.0434095 0)
(1.04028 0.033546 0)
(1.04315 0.0258597 0)
(1.04515 0.0198167 0)
(1.04641 0.0150119 0)
(1.0472 0.0111655 0)
(1.04773 0.00802392 0)
(1.04807 0.0053908 0)
(1.0482 0.00309538 0)
(1.04819 0.00100824 0)
(1.10256 0.356645 -4.04243e-21)
(1.0204 0.439936 2.22198e-21)
(1.09749 0.364324 -1.51084e-21)
(1.01293 0.451386 -7.76531e-22)
(1.09199 0.371293 3.23108e-21)
(1.00554 0.46209 -1.91441e-21)
(1.08606 0.379086 3.63488e-21)
(0.99817 0.472948 -9.21894e-21)
(1.08413 0.311633 -1.64281e-21)
(1.07973 0.387235 -1.76439e-21)
(0.990749 0.483763 6.42206e-21)
(1.07558 0.31393 -1.05071e-20)
(1.073 0.395326 5.33562e-21)
(0.983287 0.494248 -3.5367e-21)
(1.06691 0.315592 -1.80456e-21)
(1.06588 0.403314 4.32634e-21)
(0.975797 0.504306 4.55083e-21)
(1.05814 0.316674 -2.99764e-21)
(1.05835 0.411238 2.79166e-22)
(0.968284 0.513913 2.34478e-22)
(1.0493 0.317208 -1.43659e-20)
(1.05039 0.41909 5.46585e-21)
(0.960749 0.52303 -5.61563e-21)
(1.04042 0.317218 -1.20091e-20)
(1.04199 0.426835 8.51064e-21)
(0.953189 0.531606 -2.06189e-22)
(1.03152 0.316733 8.86423e-21)
(1.03313 0.434432 -1.45931e-21)
(0.945604 0.539591 2.6162e-21)
(1.02262 0.315789 3.15565e-21)
(1.0238 0.441847 -2.59204e-22)
(0.937996 0.546947 6.31247e-22)
(1.01373 0.31443 -2.75358e-21)
(1.01399 0.449047 6.96165e-21)
(1.00486 0.312705 -1.04645e-20)
(1.00368 0.456001 -1.8774e-21)
(0.996 0.310666 3.41002e-21)
(0.9929 0.462673 3.07105e-21)
(0.987143 0.308371 6.23824e-22)
(0.981645 0.46903 -5.79566e-21)
(0.978265 0.305876 3.08002e-21)
(0.969941 0.475038 -9.16555e-22)
(0.969332 0.303234 -3.15346e-22)
(0.957819 0.480663 -3.30107e-21)
(0.9603 0.30049 3.82115e-21)
(0.945321 0.485872 2.98048e-22)
(0.951114 0.297679 1.29956e-21)
(0.932496 0.490634 -1.40488e-21)
(0.941708 0.294816 -4.01438e-23)
(0.919398 0.494919 3.89613e-23)
)
;

boundaryField
{
    inlet
    {
        type            uniformFixedValue;
        uniformValue    constant (1 0 0);
        value           nonuniform 0();
    }
    outlet
    {
        type            pressureInletOutletVelocity;
        value           nonuniform 0();
    }
    cylinder
    {
        type            fixedValue;
        value           nonuniform 0();
    }
    top
    {
        type            symmetryPlane;
    }
    bottom
    {
        type            symmetryPlane;
    }
    defaultFaces
    {
        type            empty;
    }
    procBoundary37to36
    {
        type            processor;
        value           nonuniform List<vector> 
86
(
(0.857428 -0.0197476 -3.55706e-22)
(0.85656 -0.0303149 -4.02983e-22)
(0.855353 -0.04107 -2.6751e-21)
(0.853465 -0.0520577 -2.4892e-21)
(0.850608 -0.0632468 1.31815e-21)
(0.846566 -0.074725 -8.77973e-21)
(0.841208 -0.0866169 3.61717e-22)
(0.834489 -0.0989337 5.16704e-21)
(0.826444 -0.111685 3.50676e-21)
(0.817169 -0.124886 -7.45146e-21)
(0.806808 -0.138514 4.47617e-21)
(0.795535 -0.1525 -2.91593e-21)
(0.783539 -0.166789 1.05333e-20)
(0.771008 -0.18128 -2.92489e-21)
(0.758116 -0.19581 1.04697e-20)
(0.74501 -0.210191 1.23609e-20)
(0.728993 0.18424 6.9081e-21)
(0.728993 0.18424 6.9081e-21)
(0.715541 0.170127 -1.20299e-20)
(0.702002 0.154925 -4.7362e-21)
(0.688247 0.137999 7.5886e-21)
(0.674158 0.120994 3.01045e-21)
(0.635239 0.0996281 0)
(0.534883 0.163858 0)
(0.517244 0.18618 0)
(0.606159 0.219916 0)
(0.761815 0.224561 0)
(0.895106 0.196601 0)
(0.974738 0.15124 0)
(1.01334 0.111041 0)
(1.03201 0.0805112 0)
(1.04259 0.058231 0)
(1.04916 0.0419774 0)
(1.05318 0.0300943 0)
(1.05549 0.0213674 0)
(1.05679 0.0150066 0)
(1.05743 0.0103891 0)
(1.05764 0.00707016 0)
(1.0575 0.0046993 0)
(1.05725 0.00301404 0)
(1.05703 0.0018309 0)
(1.05687 0.000969177 0)
(1.05674 0.000311327 0)
(1.13836 0.279477 0)
(1.17696 0.285263 0)
(1.17517 0.231 0)
(1.1723 0.20076 0)
(1.15952 0.158334 0)
(1.14038 0.132403 0)
(1.12407 0.109909 0)
(1.10891 0.0918928 0)
(1.09751 0.0771967 0)
(1.08857 0.0642822 0)
(1.08151 0.0533891 0)
(1.07587 0.044044 0)
(1.07141 0.0361087 0)
(1.06786 0.0293484 0)
(1.06499 0.0236003 0)
(1.06261 0.0186655 0)
(1.06074 0.0144195 0)
(1.0594 0.0106958 0)
(1.05847 0.00736694 0)
(1.05779 0.00430251 0)
(1.05737 0.00141454 0)
(1.11638 0.296883 -5.0534e-21)
(1.10879 0.301469 -4.06279e-21)
(1.10079 0.305181 3.55598e-21)
(1.09255 0.308665 4.17057e-22)
(1.09255 0.308665 4.17057e-22)
(1.00675 0.112242 6.94039e-21)
(0.99124 0.109995 -1.276e-20)
(0.97622 0.106816 1.44069e-21)
(0.961701 0.102697 6.93876e-21)
(0.947734 0.0976665 -2.2124e-20)
(0.934399 0.0917625 -1.37483e-21)
(0.921804 0.0850368 1.17496e-21)
(0.910076 0.0775551 4.37025e-21)
(0.899354 0.0693952 6.24743e-21)
(0.889777 0.060646 -2.9291e-21)
(0.881466 0.0514053 -2.68659e-21)
(0.874504 0.0417741 7.40997e-22)
(0.868921 0.0318498 2.06868e-21)
(0.864675 0.0217211 -1.05236e-21)
(0.861642 0.011461 4.37336e-21)
(0.859618 0.00113974 1.11393e-21)
(0.858325 -0.00926291 -2.1803e-22)
)
;
    }
    procBoundary37to38
    {
        type            processor;
        value           nonuniform List<vector> 
86
(
(0.860618 0.583808 -2.01301e-22)
(0.852344 0.584334 8.96885e-22)
(0.843803 0.584485 -5.75583e-23)
(0.834945 0.584322 1.84932e-21)
(0.825723 0.583903 1.49098e-21)
(0.816104 0.583282 -3.963e-21)
(0.806064 0.582502 -4.09901e-21)
(0.795596 0.581603 2.15477e-21)
(0.784712 0.580612 -5.25864e-21)
(0.784712 0.580612 -5.25864e-21)
(0.820752 0.406724 -9.79046e-22)
(0.81214 0.40455 1.86858e-21)
(0.803697 0.402522 -1.29991e-21)
(0.795515 0.400618 1.60687e-21)
(0.787673 0.39882 -5.30279e-21)
(0.780233 0.39711 7.21621e-21)
(0.773248 0.395472 -6.23461e-21)
(0.766764 0.393891 -2.01004e-21)
(0.760831 0.39234 5.39434e-21)
(0.755528 0.390815 1.39257e-21)
(0.751127 0.389644 -1.46182e-21)
(0.749078 0.388921 -3.59274e-22)
(0.771415 0.360888 0)
(0.859631 0.251593 0)
(0.987595 0.148416 0)
(1.10487 0.0615039 0)
(1.18577 0.00921039 0)
(1.21441 -0.0122828 0)
(1.20511 -0.0165362 0)
(1.18273 -0.0146727 0)
(1.15916 -0.012157 0)
(1.13854 -0.0102874 0)
(1.12128 -0.00896361 0)
(1.10705 -0.00797816 0)
(1.09548 -0.00710136 0)
(1.08617 -0.00625964 0)
(1.07875 -0.00541521 0)
(1.07284 -0.00455951 0)
(1.06815 -0.00370647 0)
(1.06457 -0.00286573 0)
(1.06202 -0.00203632 0)
(1.06037 -0.0012192 0)
(1.05954 -0.000402504 0)
(0.909458 0.450274 0)
(0.891166 0.377998 0)
(0.897448 0.325382 0)
(0.898497 0.247896 0)
(0.91085 0.188973 0)
(0.920141 0.136542 0)
(0.926952 0.0982481 0)
(0.939974 0.0694436 0)
(0.957779 0.0477464 0)
(0.976384 0.0323296 0)
(0.992387 0.0219015 0)
(1.00492 0.0150039 0)
(1.01446 0.0105112 0)
(1.0217 0.00757304 0)
(1.02717 0.00563533 0)
(1.03125 0.00429122 0)
(1.03432 0.00329122 0)
(1.03662 0.00246462 0)
(1.03825 0.00172331 0)
(1.03923 0.0010187 0)
(1.03965 0.000337251 0)
(0.899958 0.465563 2.51741e-22)
(0.897441 0.471117 6.48314e-21)
(0.895561 0.475653 -7.33412e-22)
(0.894256 0.478781 4.23139e-22)
(0.893464 0.481028 6.4948e-22)
(0.893129 0.482649 8.34642e-21)
(0.893194 0.4836 -3.02135e-21)
(0.893605 0.483814 -6.00376e-22)
(0.894309 0.483295 -3.87509e-21)
(0.895244 0.482083 -9.07883e-22)
(0.896332 0.480225 -4.61677e-22)
(0.897473 0.477768 1.99917e-21)
(0.930369 0.553641 3.57271e-21)
(0.930369 0.553641 3.57271e-21)
(0.92273 0.559651 5.24776e-21)
(0.915083 0.564964 3.48037e-21)
(0.907432 0.569578 -1.81166e-21)
(0.899773 0.573502 1.62013e-22)
(0.892095 0.576755 -1.88321e-21)
(0.884375 0.579369 -1.43215e-21)
(0.876584 0.581382 9.45295e-23)
(0.868681 0.582844 2.00082e-22)
)
;
    }
}


// ************************************************************************* //
