/*--------------------------------*- C++ -*----------------------------------*\
  =========                 |
  \\      /  F ield         | OpenFOAM: The Open Source CFD Toolbox
   \\    /   O peration     | Website:  https://openfoam.org
    \\  /    A nd           | Version:  7
     \\/     M anipulation  |
\*---------------------------------------------------------------------------*/
FoamFile
{
    version     2.0;
    format      ascii;
    class       volScalarField;
    location    "35";
    object      p;
}
// * * * * * * * * * * * * * * * * * * * * * * * * * * * * * * * * * * * * * //

dimensions      [0 2 -2 0 0 0 0];

internalField   nonuniform List<scalar> 
219
(
0.00192003
0.000957745
0.00105479
0.00184294
0.000918382
0.00104801
0.00176416
0.000878707
0.00103799
0.00168473
0.00083942
0.00102487
0.0016055
0.000801074
0.00100876
0.00152708
0.000764056
0.000989788
0.00144986
0.000728581
0.00096802
0.00137398
0.000694693
0.000943529
0.00129938
0.000662288
0.00091638
0.00122588
0.000631141
0.000886637
0.00115315
0.000600939
0.000854374
0.00108081
0.000571317
0.000819683
0.00100845
0.000541892
0.000782674
0.000935686
0.000512295
0.000743484
0.000862159
0.000482197
0.000702271
0.000787577
0.000451333
0.000659213
0.000711733
0.000419496
0.000614517
0.000634587
0.000386457
0.000568443
0.000556205
0.000351957
0.000521266
0.000316542
0.00047282
0.000283212
0.000421918
0.000191701
0.000267407
-5.77502e-05
7.4993e-05
-0.000311851
-6.26281e-05
-0.000550658
-0.00016958
-0.000770776
-0.000257576
-0.000973071
-0.000332956
-0.0011601
-0.000400124
-0.00133318
-0.000460722
-0.00149313
-0.000515837
-0.00164061
-0.000566173
-0.00177589
-0.000612014
-0.00189906
-0.000653519
-0.00201014
-0.000690803
-0.00210911
-0.000723931
-0.00219589
-0.000752931
-0.00227042
-0.000777808
-0.00233262
-0.000798551
-0.00238244
-0.000815147
-0.00241984
-0.000827571
-0.00244482
-0.000835732
-0.00245742
-0.000839474
-0.0023591
-0.00264843
-0.00290955
-0.00314277
-0.00334849
-0.00352715
-0.00367921
-0.00380513
-0.00390529
-0.00398004
-0.00402958
-0.00405401
0.00079313
0.000527189
0.000258526
-9.16618e-06
-0.000269342
-0.000517905
-0.000753159
-0.000973645
-0.00117856
-0.00136743
-0.00153995
-0.001696
-0.00183561
-0.00195893
-0.00206612
-0.00215742
-0.00223304
-0.00229322
-0.00233817
-0.00236806
-0.00238305
0.000344468
0.000193068
9.16719e-05
7.99058e-07
-8.57822e-05
-0.000168898
-0.000248599
-0.000323905
-0.000394252
-0.000459297
-0.000518799
-0.000572646
-0.000620824
-0.000663366
-0.000700328
-0.00073179
-0.000757843
-0.000778569
-0.000794024
-0.000804189
-0.000808951
0.00087968
0.000470673
0.0017964
0.000912158
0.000515011
0.00187854
0.000947469
0.000559027
0.00195632
0.000982192
0.00060273
0.00202933
0.00101517
0.000646194
0.00209641
0.00104616
0.000689246
0.00215666
0.00107478
0.000731588
0.00220926
0.00110051
0.000772872
0.0022534
0.00112277
0.000812722
0.00228827
0.00114096
0.000850738
0.00231318
0.00115454
0.000886509
0.00232754
0.00116301
0.00091964
0.00233094
0.00116606
0.00094977
0.00232318
0.00116343
0.000976596
0.00230435
0.00115472
0.000999843
0.00227481
0.00114039
0.0010193
0.00223514
0.00112043
0.00103484
0.00218556
0.00109526
0.00104644
0.00212834
0.00106561
0.00105414
0.00206409
0.00103224
0.00105801
0.00199419
0.000995988
0.00105818
)
;

boundaryField
{
    inlet
    {
        type            zeroGradient;
    }
    outlet
    {
        type            fixedValue;
        value           uniform 0;
    }
    cylinder
    {
        type            zeroGradient;
    }
    top
    {
        type            symmetryPlane;
    }
    bottom
    {
        type            symmetryPlane;
    }
    defaultFaces
    {
        type            empty;
    }
    procBoundary47to46
    {
        type            processor;
        value           nonuniform List<scalar> 
87
(
0.00199787
0.00187991
0.0017608
0.0016421
0.00152511
0.00141084
0.00129994
0.00119276
0.00108936
0.00098957
0.000893015
0.000799207
0.000707584
0.000617559
0.000528567
0.000440109
0.000351766
0.000263096
0.000173425
0.000476024
0.000476024
0.000392003
0.000131778
-0.000281277
-0.000676133
-0.00104781
-0.00139486
-0.00171807
-0.00201999
-0.00230191
-0.00256431
-0.00280752
-0.00303151
-0.00323607
-0.00342099
-0.00358602
-0.00373094
-0.00385553
-0.00395961
-0.00404301
-0.0041056
-0.00414722
-0.00416774
-0.00345316
-0.00385917
-0.00422497
-0.00455125
-0.00483881
-0.00508839
-0.00530074
-0.00547654
-0.00561639
-0.00572082
-0.00579027
-0.00582508
0.00141251
0.000911776
0.000425464
-4.51632e-05
-0.000495117
-0.000921164
-0.00132187
-0.00169557
-0.00204143
-0.00204143
0.00170644
0.00170644
0.00223676
0.0023268
0.00241075
0.00248711
0.00255495
0.00261338
0.00266143
0.00269812
0.0027225
0.00273374
0.00273118
0.00271435
0.00268307
0.00263747
0.00257801
0.00250554
0.00242123
0.00232655
0.00222304
0.00211289
)
;
    }
}


// ************************************************************************* //
