/*--------------------------------*- C++ -*----------------------------------*\
  =========                 |
  \\      /  F ield         | OpenFOAM: The Open Source CFD Toolbox
   \\    /   O peration     | Website:  https://openfoam.org
    \\  /    A nd           | Version:  7
     \\/     M anipulation  |
\*---------------------------------------------------------------------------*/
FoamFile
{
    version     2.0;
    format      ascii;
    class       volVectorField;
    location    "32";
    object      U;
}
// * * * * * * * * * * * * * * * * * * * * * * * * * * * * * * * * * * * * * //

dimensions      [0 1 -1 0 0 0 0];

internalField   nonuniform List<vector> 
40000
(
(-0.000177678 0.000295259 -2.02406e-21)
(-0.00111561 0.000802202 6.26803e-21)
(-0.003122 0.00123702 -3.99995e-21)
(-0.0059529 0.00160655 -3.94536e-24)
(-0.0094739 0.00191586 -8.98759e-25)
(-0.0135944 0.00216953 2.88767e-24)
(-0.0182204 0.00237212 -6.64521e-21)
(-0.0232606 0.00252816 1.58002e-21)
(-0.0286301 0.00264205 -4.51012e-21)
(-0.0342499 0.00271804 -1.42706e-21)
(-0.0400474 0.00276022 0)
(-0.045956 0.0027725 -5.13907e-21)
(-0.0519152 0.00275859 0)
(-0.0578706 0.00272194 0)
(-0.0637736 0.0026658 -4.35596e-21)
(-0.0695815 0.00259319 4.1156e-21)
(-0.075257 0.00250695 -1.9433e-21)
(-0.0807681 0.00240978 -1.5356e-24)
(-0.0860887 0.00230435 1.72656e-21)
(-0.0911981 0.00219333 0)
(-0.0960817 0.00207956 -1.53171e-21)
(-0.100732 0.0019661 -4.32174e-21)
(-0.105149 0.00185632 5.41515e-21)
(-0.109341 0.00175389 -2.54307e-21)
(-0.113327 0.00166269 7.16017e-21)
(-0.117135 0.00158663 4.4778e-21)
(-0.120806 0.00152922 -8.39536e-21)
(-0.124385 0.00149275 7.86572e-21)
(-0.127922 0.00147831 -1.84122e-21)
(-0.131485 0.001489 -3.45237e-21)
(-0.000206979 0.000874757 0)
(-0.00119119 0.00237696 4.18209e-21)
(-0.00322984 0.00366564 8.01252e-21)
(-0.00608146 0.00476099 -7.64668e-21)
(-0.00961314 0.00567807 -3.66285e-21)
(-0.0137353 0.00643031 1.39476e-20)
(-0.018355 0.00703124 -3.32861e-21)
(-0.0233818 0.00749419 -6.33717e-21)
(-0.0287314 0.00783212 -8.52118e-24)
(-0.0343258 0.00805759 -1.7147e-20)
(-0.0400928 0.00818268 5.41836e-21)
(-0.0459662 0.00821891 2.05639e-20)
(-0.0518859 0.0081772 -9.73643e-21)
(-0.0577979 0.00806778 -4.67389e-24)
(-0.0636539 0.00790025 -4.36353e-21)
(-0.0694111 0.00768355 -1.5134e-24)
(-0.0750322 0.00742609 0)
(-0.0804852 0.00713591 0)
(-0.0857437 0.0068209 1.38243e-20)
(-0.0907864 0.00648911 0)
(-0.0955985 0.00614899 6.12809e-21)
(-0.100171 0.00580975 -5.76235e-21)
(-0.104505 0.00548152 -6.68812e-25)
(-0.108606 0.00517541 0)
(-0.112493 0.00490326 9.55032e-21)
(-0.116194 0.00467703 -8.95567e-21)
(-0.119749 0.00450758 8.39534e-21)
(-0.123206 0.00440218 -7.86571e-21)
(-0.12661 0.00436458 7.36545e-21)
(-0.130034 0.00440432 -2.07163e-20)
(-0.000265015 0.00144619 -8.11148e-21)
(-0.00134098 0.00393068 -8.35925e-21)
(-0.0034436 0.00606309 0)
(-0.00633638 0.0078765 0)
(-0.00988931 0.00939554 0)
(-0.0140149 0.0106422 6.98956e-21)
(-0.0186221 0.0116387 0)
(-0.0236221 0.012407 6.3286e-21)
(-0.0289324 0.0129683 1.20342e-20)
(-0.0344761 0.0133433 1.14303e-20)
(-0.0401821 0.013552 0)
(-0.0459853 0.0136133 7.01054e-24)
(-0.0518264 0.0135452 -1.94913e-20)
(-0.0576518 0.0133647 1.84455e-20)
(-0.0634137 0.0130875 8.71521e-21)
(-0.0690694 0.0127285 8.23985e-21)
(-0.0745818 0.0123013 -7.77184e-21)
(-0.0799186 0.0118194 1.46744e-20)
(-0.0850527 0.0112957 -2.76562e-20)
(-0.0899622 0.0107434 -2.09539e-25)
(-0.0946311 0.0101764 -2.45158e-20)
(-0.0990495 0.00961008 2.30641e-20)
(-0.103215 0.00906123 0)
(-0.107135 0.00854851 0)
(-0.110824 0.008092 9.55687e-21)
(-0.11431 0.00771223 0)
(-0.117634 0.00742812 0)
(-0.120845 0.00725282 0)
(-0.123983 0.00719387 -1.47356e-20)
(-0.127127 0.00726772 1.38103e-20)
(-0.00035088 0.00200436 8.11148e-21)
(-0.00156271 0.00544979 7.95544e-24)
(-0.00376025 0.00840925 3.7092e-23)
(-0.00671417 0.0109278 -1.53179e-20)
(-0.0102988 0.0130392 -1.46351e-20)
(-0.0144294 0.0147734 1.70962e-23)
(-0.0190181 0.0161608 -2.66285e-20)
(-0.0239784 0.0172317 1.26805e-20)
(-0.02923 0.0180152 -2.41112e-20)
(-0.034698 0.0185398 2.29e-20)
(-0.040313 0.0188331 -1.08639e-20)
(-0.0460111 0.0189213 2.05967e-20)
(-0.0517344 0.0188292 1.94913e-20)
(-0.05743 0.0185802 1.635e-23)
(-0.0630507 0.0181963 -1.74563e-20)
(-0.0685543 0.0176977 0)
(-0.0739034 0.0171035 8.5923e-25)
(-0.0790655 0.016432 1.46835e-20)
(-0.0840128 0.015701 8.41719e-25)
(-0.0887222 0.0149287 -7.80983e-24)
(-0.093176 0.0141343 2.45233e-20)
(-0.0973623 0.0133388 -2.3064e-20)
(-0.101277 0.0125658 0)
(-0.104923 0.0118416 2.03691e-20)
(-0.108315 0.0111949 4.41099e-24)
(-0.111478 0.0106558 -5.37766e-20)
(-0.114454 0.0102525 1.6802e-20)
(-0.117294 0.0100054 3.14855e-20)
(-0.120031 0.00992799 1.47355e-20)
(-0.122752 0.0100447 1.38173e-20)
(-0.000463239 0.00254431 3.25614e-20)
(-0.00185311 0.00692131 -1.67752e-20)
(-0.00417527 0.0106848 1.6041e-20)
(-0.00720967 0.0138907 1.53482e-20)
(-0.010836 0.016581 0)
(-0.0149736 0.018793 -2.80075e-20)
(-0.0195379 0.0205648 -1.33607e-20)
(-0.0244458 0.0219341 -2.538e-20)
(-0.0296198 0.0229379 1.2056e-20)
(-0.0349875 0.0236121 2.89955e-23)
(-0.0404816 0.0239912 2.17552e-20)
(-0.0460402 0.0241086 2.06435e-20)
(-0.0516065 0.0239956 -3.90375e-20)
(-0.0571291 0.0236819 1.84826e-20)
(-0.0625615 0.0231951 -1.89223e-23)
(-0.0678618 0.0225609 0)
(-0.0729928 0.0218034 -1.55688e-20)
(-0.0779215 0.0209455 -2.94004e-20)
(-0.082619 0.0200095 4.15632e-20)
(-0.0870608 0.0190181 1.306e-20)
(-0.0912271 0.0179955 0)
(-0.0951033 0.0169683 -2.30979e-20)
(-0.0986817 0.0159664 0)
(-0.101963 0.0150241 -6.11284e-20)
(-0.104957 0.0141791 3.82421e-20)
(-0.107688 0.0134722 -5.0259e-24)
(-0.110197 0.0129426 3.36256e-20)
(-0.112539 0.0126206 -4.72281e-20)
(-0.114738 0.0125285 2.94902e-20)
(-0.116889 0.0127009 1.38172e-20)
(-0.000600377 0.00306146 -1.6301e-20)
(-0.00220794 0.00833313 1.67747e-20)
(-0.00468287 0.0128715 -1.66833e-24)
(-0.0078162 0.0167422 -4.61719e-20)
(-0.0114942 0.0199941 0)
(-0.0156404 0.0226714 2.80075e-20)
(-0.0201748 0.0248189 -2.6766e-20)
(-0.025018 0.0264814 5.07927e-20)
(-0.030096 0.0277029 0)
(-0.0353392 0.028526 -2.29289e-20)
(-0.040683 0.0289923 -2.17551e-20)
(-0.0460676 0.0291415 -2.06225e-20)
(-0.0514381 0.0290114 -5.86694e-20)
(-0.0567444 0.0286374 2.63658e-24)
(-0.061941 0.0280527 -1.77323e-23)
(-0.0669867 0.027288 -1.38052e-23)
(-0.0718441 0.0263719 4.67936e-20)
(-0.0764798 0.0253317 -3.43562e-23)
(-0.0808638 0.0241939 3.11778e-23)
(-0.0849698 0.0229851 -2.60894e-20)
(-0.0887753 0.021734 -1.98398e-23)
(-0.0922625 0.0204722 4.62088e-20)
(-0.0954196 0.0192359 -6.51627e-20)
(-0.0982427 0.018067 2.03832e-20)
(-0.100738 0.0170132 0)
(-0.102925 0.016127 0)
(-0.104847 0.0154612 -3.36253e-20)
(-0.106561 0.0150593 3.15107e-20)
(-0.108079 0.0149568 -2.94855e-20)
(-0.109508 0.0152024 0)
(-0.000760237 0.00355161 -1.63524e-20)
(-0.0026221 0.00967413 0)
(-0.00527607 0.0149528 1.61071e-20)
(-0.00852574 0.019461 9.25288e-20)
(-0.0122646 0.0232537 -2.94183e-20)
(-0.0164214 0.0263808 0)
(-0.0209205 0.0288932 -5.18581e-23)
(-0.0256872 0.0308419 2.54722e-20)
(-0.0306512 0.0322772 -2.41873e-20)
(-0.0357462 0.0332483 0)
(-0.0409107 0.0338028 0)
(-0.0460873 0.0339867 -4.13712e-20)
(-0.0512231 0.0338436 5.86978e-20)
(-0.0562697 0.0334145 -1.8512e-20)
(-0.0611827 0.0327377 0)
(-0.0659216 0.0318484 3.30944e-20)
(-0.0704491 0.0307798 -3.11835e-20)
(-0.0747312 0.0295628 2.94544e-20)
(-0.0787367 0.0282274 -5.54908e-20)
(-0.0824372 0.0268039 -7.84427e-20)
(-0.0858073 0.0253247 2.45863e-20)
(-0.0888252 0.0238257 2.31341e-20)
(-0.0914742 0.0223489 2.17167e-20)
(-0.093745 0.0209437 0)
(-0.0956381 0.019668 -3.83156e-20)
(-0.0971685 0.0185879 0)
(-0.0983777 0.0177725 0)
(-0.099329 0.0172827 -6.30349e-20)
(-0.10002 0.0171738 -1.02964e-23)
(-0.100562 0.017515 -8.29241e-20)
(-0.000940481 0.00401109 1.63524e-20)
(-0.00308978 0.0109345 3.38104e-20)
(-0.00594689 0.0169135 3.23691e-20)
(-0.00932907 0.0220276 -3.08687e-20)
(-0.0131376 0.0263367 0)
(-0.0173066 0.0298953 0)
(-0.0217655 0.0327595 2.67807e-20)
(-0.0264443 0.0349857 -2.55222e-20)
(-0.0312768 0.0366298 -3.88561e-23)
(-0.0362005 0.0377468 4.6098e-20)
(-0.041157 0.0383902 0)
(-0.0460915 0.0386115 4.1371e-20)
(-0.0509537 0.0384598 0)
(-0.0556969 0.0379812 0)
(-0.0602779 0.0372186 1.74133e-23)
(-0.0646569 0.0362119 3.31192e-20)
(-0.0687969 0.0349978 -3.12826e-20)
(-0.0726633 0.0336106 5.90017e-20)
(-0.0762234 0.0320833 -2.78025e-20)
(-0.0794467 0.0304492 7.84846e-20)
(-0.0823044 0.0287433 0)
(-0.0847702 0.0270054 0)
(-0.086822 0.0252822 4.35432e-20)
(-0.0884437 0.0236303 0)
(-0.0896286 0.0221179 3.82903e-20)
(-0.0903851 0.0208259 -3.59446e-20)
(-0.0907527 0.019843 3.36625e-20)
(-0.0908009 0.0192536 -3.15346e-20)
(-0.090511 0.0191405 5.90186e-20)
(-0.089987 0.0196042 8.29584e-20)
(-0.00113855 0.00443679 0)
(-0.00360464 0.0121057 -3.38104e-20)
(-0.00668657 0.0187404 9.08821e-23)
(-0.010216 0.024425 0)
(-0.0141023 0.0292227 -5.92232e-20)
(-0.018285 0.0331915 -3.52021e-23)
(-0.0226989 0.0363918 2.6854e-20)
(-0.0272788 0.0388848 0)
(-0.0319629 0.0407311 2.42735e-20)
(-0.0366925 0.0419909 -4.60979e-20)
(-0.0414124 0.0427229 0)
(-0.0460712 0.0429838 0)
(-0.0506205 0.0428277 -3.92987e-20)
(-0.0550158 0.0423054 3.71528e-20)
(-0.0592154 0.0414643 -3.51046e-20)
(-0.0631801 0.0403479 0)
(-0.0668731 0.0389964 -3.13678e-20)
(-0.0702593 0.0374471 -8.85952e-20)
(-0.0733045 0.0357353 -1.32003e-23)
(-0.0759758 0.0338962 -9.61855e-24)
(-0.0782409 0.0319671 2.46591e-20)
(-0.0800685 0.0299902 4.63755e-20)
(-0.0814301 0.0280159 -8.71109e-20)
(-0.0823019 0.0261068 4.09226e-20)
(-0.0826686 0.0243415 -7.574e-24)
(-0.0825297 0.0228164 2.15958e-23)
(-0.0819203 0.0216434 2.35987e-23)
(-0.0809177 0.020937 3.15563e-20)
(-0.0794854 0.0208183 0)
(-0.0776913 0.0214332 0)
(-0.00135176 0.00482622 3.29936e-20)
(-0.00415991 0.0131807 9.95204e-23)
(-0.00748577 0.0204227 9.88991e-23)
(-0.0111756 0.0266385 -6.22105e-20)
(-0.015147 0.0318934 5.92633e-20)
(-0.0193447 0.0362483 0)
(-0.0237089 0.0397666 0)
(-0.0281792 0.0425133 5.12775e-20)
(-0.0326981 0.0445533 -4.86907e-20)
(-0.037211 0.0459513 3.87932e-23)
(-0.0416661 0.0467705 8.77723e-20)
(-0.0460149 0.0470725 4.15877e-20)
(-0.0502117 0.0469158 -7.87255e-20)
(-0.0542139 0.0463556 3.72261e-20)
(-0.0579811 0.0454431 3.52113e-20)
(-0.0614751 0.0442256 -3.32361e-20)
(-0.0646592 0.042746 6.26992e-20)
(-0.0674976 0.041044 8.88242e-20)
(-0.0699548 0.0391567 5.58195e-20)
(-0.0719951 0.0371207 2.62619e-20)
(-0.0735825 0.0349741 -4.93904e-20)
(-0.0746804 0.0327606 0)
(-0.0752534 0.0305327 3.43147e-23)
(-0.0752689 0.0283578 4.09972e-20)
(-0.0747013 0.0263232 3.83895e-20)
(-0.0735389 0.0245415 -7.20408e-20)
(-0.071809 0.0231508 -3.37256e-20)
(-0.0695988 0.0223038 6.31217e-20)
(-0.0668571 0.0221706 0)
(-0.063551 0.0229597 -5.52378e-20)
(-0.00157732 0.00517753 3.30685e-20)
(-0.00474862 0.0141543 -6.81211e-20)
(-0.00833476 0.0219515 2.22794e-23)
(-0.0121966 0.0286559 -9.7617e-23)
(-0.0162593 0.0343337 0)
(-0.0204729 0.0390474 0)
(-0.0247825 0.0428628 0)
(-0.0291325 0.0458478 -5.14088e-20)
(-0.0334698 0.0480709 4.88154e-20)
(-0.0377434 0.0496005 -4.63052e-20)
(-0.0419052 0.0505042 -8.79047e-20)
(-0.0459095 0.0508475 -2.60528e-23)
(-0.0497131 0.0506932 7.89275e-20)
(-0.0532755 0.0501004 3.73561e-20)
(-0.0565575 0.0491239 0)
(-0.0595219 0.0478141 -6.66854e-20)
(-0.0621318 0.0462165 9.43672e-20)
(-0.0643508 0.0443727 -8.88617e-20)
(-0.0661418 0.042321 -5.58484e-20)
(-0.0674663 0.0400985 -1.57796e-19)
(-0.0682842 0.0377434 -2.82009e-24)
(-0.0685537 0.0352992 5.58391e-24)
(-0.0682316 0.032819 3.28166e-23)
(-0.0672758 0.0303727 -8.19452e-20)
(-0.0656492 0.0280545 1.1537e-19)
(-0.0633259 0.0259922 -5.48211e-23)
(-0.0603209 0.0243525 0)
(-0.0567345 0.023334 -6.31206e-20)
(-0.0525193 0.0231667 5.90279e-20)
(-0.047403 0.0241412 5.54763e-20)
(-0.00181249 0.00548956 0)
(-0.00536378 0.0150228 -3.42205e-20)
(-0.00922373 0.0233204 3.26932e-20)
(-0.0132671 0.0304679 6.24998e-20)
(-0.0174264 0.0365313 2.98879e-20)
(-0.0216561 0.0415736 -5.68667e-20)
(-0.025906 0.0456623 -6.23504e-23)
(-0.0301249 0.0488674 -5.15119e-20)
(-0.0342637 0.0512605 0)
(-0.0382753 0.0529131 4.6542e-20)
(-0.0421146 0.0538965 0)
(-0.0457389 0.0542799 0)
(-0.0491075 0.0541298 -7.90748e-20)
(-0.0521814 0.0535089 -7.47607e-20)
(-0.0549229 0.0524754 1.06095e-19)
(-0.0572952 0.0510823 6.66849e-20)
(-0.0592614 0.0493775 7.05973e-23)
(-0.0607841 0.047404 -5.93754e-20)
(-0.0618242 0.045201 1.11856e-19)
(-0.0623405 0.0428054 4.22156e-24)
(-0.0622886 0.0402545 9.91263e-20)
(-0.0616208 0.0375901 0)
(-0.060286 0.0348642 0)
(-0.0582321 0.0321464 8.21222e-20)
(-0.055409 0.029535 -1.15371e-19)
(-0.0517743 0.0271705 1.08132e-19)
(-0.0473242 0.0252487 -6.75007e-20)
(-0.0421745 0.0240182 6.31466e-20)
(-0.036334 0.0237845 -1.18052e-19)
(-0.029067 0.0250053 5.55236e-20)
(-0.00205459 0.00576182 -3.33883e-20)
(-0.00599851 0.0157841 0)
(-0.0101429 0.0245252 0)
(-0.0143755 0.0320678 -6.2858e-20)
(-0.0186353 0.0384766 1.19886e-19)
(-0.0228804 0.0438145 -5.70498e-20)
(-0.0270647 0.0481498 -9.90783e-23)
(-0.0311411 0.0515542 5.16652e-20)
(-0.0350642 0.0541014 0)
(-0.0387901 0.0558659 7.25517e-23)
(-0.0422769 0.056922 1.92627e-23)
(-0.0454844 0.0573423 -8.3732e-20)
(-0.0483739 0.0571968 -1.49763e-22)
(-0.0509081 0.0565512 -3.74863e-20)
(-0.0530503 0.0554668 -1.06261e-19)
(-0.0547638 0.0539992 6.6896e-20)
(-0.0560114 0.0521983 -6.30961e-20)
(-0.0567541 0.0501085 1.1905e-19)
(-0.0569507 0.0477692 -1.12135e-19)
(-0.0565567 0.0452167 -1.05512e-19)
(-0.0555231 0.0424868 3.22014e-23)
(-0.0537961 0.0396185 -4.66387e-20)
(-0.0513165 0.0366602 4.37732e-20)
(-0.0480212 0.0336788 5.56172e-23)
(-0.0438465 0.0307725 -1.15593e-19)
(-0.0387315 0.0280904 -7.21647e-20)
(-0.0326481 0.025854 1.35023e-19)
(-0.0257152 0.0243553 -1.26292e-19)
(-0.01805 0.0239936 5.90237e-20)
(-0.00842058 0.0257551 7.72812e-23)
(-0.0023011 0.0059945 1.00328e-19)
(-0.00664627 0.0164378 -3.44225e-20)
(-0.0110829 0.0255641 -6.59481e-20)
(-0.0155103 0.0334518 1.88881e-19)
(-0.0198726 0.0401634 2.1002e-22)
(-0.0241312 0.0457611 0)
(-0.0282431 0.0503134 0)
(-0.0321647 0.053893 5.18496e-20)
(-0.0358536 0.0565756 -4.91685e-20)
(-0.039269 0.0584381 4.6725e-20)
(-0.0423716 0.0595575 -4.43153e-20)
(-0.0451232 0.0600093 -8.40643e-20)
(-0.0474871 0.0598666 1.588e-19)
(-0.0494271 0.0591983 -3.75595e-20)
(-0.0509068 0.0580682 7.08426e-20)
(-0.0518894 0.0565344 -1.34043e-19)
(-0.0523365 0.0546486 -1.18183e-23)
(-0.0522074 0.0524564 4.96914e-23)
(-0.0514579 0.0499975 1.12236e-19)
(-0.0500396 0.0473075 -4.35327e-23)
(-0.0478983 0.0444198 0)
(-0.0449736 0.0413698 0)
(-0.0411979 0.0382008 -4.3916e-20)
(-0.036497 0.034974 -1.64463e-19)
(-0.0307925 0.031783 1.1563e-19)
(-0.0240045 0.0287792 -4.40227e-23)
(-0.0160827 0.0262018 -1.35063e-19)
(-0.00713254 0.0243824 1.26208e-19)
(0.00278184 0.0238739 -5.90597e-20)
(0.014822 0.0261998 5.49997e-20)
(-0.00254973 0.0061884 0)
(-0.00730094 0.0169853 0)
(-0.0120348 0.0264376 6.63e-20)
(-0.0166601 0.0346187 -1.26313e-19)
(-0.0211254 0.0415883 8.42423e-23)
(-0.0253937 0.0474072 -5.74731e-20)
(-0.0294249 0.0521438 1.64167e-19)
(-0.0331776 0.0558718 -1.56088e-19)
(-0.0366123 0.058668 -3.9766e-24)
(-0.0396903 0.0606117 -4.6862e-20)
(-0.0423745 0.0617821 -1.33414e-19)
(-0.0446284 0.0622576 1.26128e-19)
(-0.0464166 0.062114 0)
(-0.0477032 0.0614229 0)
(-0.0484518 0.0602509 7.10647e-20)
(-0.0486247 0.0586582 1.34388e-19)
(-0.0481815 0.0566984 -6.33466e-20)
(-0.0470788 0.0544183 0)
(-0.0452685 0.0518581 -5.62332e-20)
(-0.0426973 0.0490523 1.10231e-23)
(-0.0393052 0.0460324 -4.98287e-20)
(-0.0350243 0.0428295 0)
(-0.0297779 0.0394809 -4.39752e-20)
(-0.0234804 0.0360393 4.11931e-20)
(-0.0160387 0.0325895 -7.70844e-20)
(-0.00735277 0.0292775 2.16646e-19)
(0.00264998 0.0263501 -8.91651e-23)
(0.0138774 0.0241784 6.31173e-20)
(0.0263686 0.023485 0)
(0.0413145 0.0261779 -5.53933e-20)
(-0.00279847 0.00634493 -6.75266e-20)
(-0.007957 0.0174291 6.94194e-20)
(-0.01299 0.0271484 1.5574e-22)
(-0.0178142 0.03557 -6.34212e-20)
(-0.0223804 0.0427507 0)
(-0.0266527 0.0487498 -1.15441e-19)
(-0.0305924 0.0536353 8.37407e-23)
(-0.0341601 0.0574815 5.20027e-20)
(-0.0373178 0.0603667 3.55707e-24)
(-0.0400287 0.0623716 -2.05762e-24)
(-0.0422571 0.063578 1.33533e-19)
(-0.0439676 0.0640666 4.21896e-20)
(-0.0451251 0.063916 4.00164e-20)
(-0.0456936 0.0632002 -7.54747e-20)
(-0.0456358 0.0619884 7.12958e-20)
(-0.0449119 0.060343 -6.72259e-20)
(-0.0434787 0.0583196 6.34656e-20)
(-0.0412885 0.0559663 -5.9817e-20)
(-0.0382886 0.0533239 0)
(-0.0344191 0.0504266 -5.30883e-20)
(-0.0296129 0.0473039 9.95759e-20)
(-0.0237935 0.0439833 4.68563e-20)
(-0.0168743 0.0404954 -4.40109e-20)
(-0.00875777 0.0368834 1.64863e-19)
(0.000663826 0.0332191 -3.8639e-20)
(0.0115105 0.029635 7.22722e-20)
(0.0238803 0.0263726 -6.74548e-20)
(0.0376935 0.0238294 8.63288e-23)
(0.0530593 0.0228843 0)
(0.0714694 0.0259024 -1.09424e-19)
(-0.00304564 0.00646598 -1.14502e-22)
(-0.00860955 0.0177732 -6.97201e-20)
(-0.0139409 0.0277006 0)
(-0.0189619 0.0363093 -6.3825e-20)
(-0.0236243 0.0436527 6.07597e-20)
(-0.0278921 0.0497887 -9.61258e-23)
(-0.0317268 0.0547852 0)
(-0.0350899 0.0587167 -8.56037e-23)
(-0.0379446 0.0616629 -4.9619e-20)
(-0.0402548 0.0637063 4.71469e-20)
(-0.0419855 0.0649307 0)
(-0.0431016 0.0654194 -8.4594e-20)
(-0.0435676 0.0652531 8.02367e-20)
(-0.0433463 0.0645086 0)
(-0.0423983 0.0632574 0)
(-0.0406805 0.0615642 0)
(-0.0381456 0.0594868 0)
(-0.0347404 0.0570749 5.99054e-20)
(-0.0304052 0.0543703 -5.64221e-20)
(-0.0250725 0.0514077 1.59142e-19)
(-0.0186658 0.0482154 -9.97911e-20)
(-0.0110987 0.0448179 -9.36451e-20)
(-0.00227319 0.0412404 1.31941e-19)
(0.00792052 0.0375161 6.26315e-23)
(0.0196046 0.0337015 -7.72778e-20)
(0.0329176 0.0299092 -7.22702e-20)
(0.0479853 0.0263603 -6.75455e-20)
(0.0647389 0.0234519 1.26103e-19)
(0.0833099 0.0221787 -1.17499e-19)
(0.105776 0.0255432 2.18494e-19)
(-0.0032899 0.00655389 1.36177e-19)
(-0.0092544 0.0180227 -1.32439e-22)
(-0.0148804 0.0281005 -1.34087e-19)
(-0.0200932 0.0368424 1.27912e-19)
(-0.024844 0.0442988 -6.11098e-20)
(-0.029095 0.0505267 -5.80897e-20)
(-0.0328073 0.0555936 5.52659e-20)
(-0.0359424 0.0595749 5.25154e-20)
(-0.0384632 0.0625515 -9.98075e-20)
(-0.040334 0.0646078 -1.41997e-19)
(-0.0415193 0.0658297 -4.47797e-20)
(-0.0419835 0.0663027 1.69649e-19)
(-0.0416894 0.06611 -2.40588e-19)
(-0.0405976 0.0653308 7.5833e-20)
(-0.0386653 0.0640391 0)
(-0.0358447 0.0623021 0)
(-0.0320824 0.0601796 0)
(-0.027318 0.0577236 1.20046e-19)
(-0.0214829 0.0549777 -5.6506e-20)
(-0.0144996 0.0519776 -5.32216e-20)
(-0.0062804 0.048752 -9.99029e-20)
(0.00327335 0.0453239 9.38258e-20)
(0.0142724 0.0417146 -4.40499e-20)
(0.02684 0.0379488 -8.26147e-20)
(0.0411119 0.0340684 -1.00418e-22)
(0.0572424 0.0301611 -1.44474e-19)
(0.0753842 0.0264158 2.02609e-19)
(0.095479 0.0231946 -1.89256e-19)
(0.117615 0.0215402 5.90763e-20)
(0.144799 0.0252694 -5.43422e-20)
(-0.00353027 0.00661128 -6.82433e-20)
(-0.00988801 0.0181833 7.02205e-20)
(-0.015802 0.0283553 6.71274e-20)
(-0.0211981 0.0371767 -1.92669e-19)
(-0.0260254 0.0446957 6.1106e-20)
(-0.0302433 0.0509687 5.83131e-20)
(-0.0338111 0.0560637 0)
(-0.0366891 0.0600569 0)
(-0.0388395 0.063031 4.99414e-20)
(-0.0402254 0.0650723 9.47177e-20)
(-0.0408103 0.0662688 -1.79827e-19)
(-0.0405566 0.0667083 -8.70786e-23)
(-0.0394244 0.0664766 0)
(-0.0373706 0.0656553 0)
(-0.0343473 0.0643209 -7.17191e-20)
(-0.0303004 0.0625431 3.74144e-23)
(-0.0251685 0.0603845 6.38144e-20)
(-0.0188815 0.0578995 -6.00505e-20)
(-0.01136 0.0551343 -1.13195e-19)
(-0.00251387 0.0521267 1.06346e-19)
(0.00775812 0.0489072 4.9976e-20)
(0.0195691 0.0454996 -1.40914e-19)
(0.0330444 0.0419234 -8.80292e-20)
(0.0483214 0.0381984 8.27217e-20)
(0.0655486 0.034354 7.74048e-20)
(0.0848916 0.0304538 7.22963e-20)
(0.106526 0.026646 0)
(0.130406 0.0232265 0)
(0.156474 0.0211816 1.17155e-19)
(0.189109 0.0253008 0)
(-0.00376608 0.00664098 6.88863e-20)
(-0.0105074 0.0182616 -7.07106e-20)
(-0.0166996 0.0284733 1.35276e-19)
(-0.0222667 0.037321 -2.78364e-22)
(-0.0271541 0.0448518 0)
(-0.0313171 0.0511223 0)
(-0.0347121 0.0562014 0)
(-0.0372975 0.0601671 -5.28724e-20)
(-0.0390333 0.0631038 5.02048e-20)
(-0.0398809 0.0651003 0)
(-0.039801 0.0662468 8.99902e-20)
(-0.038753 0.0666337 8.53055e-20)
(-0.036693 0.0663491 -8.06463e-20)
(-0.0335724 0.0654774 7.61826e-20)
(-0.0293364 0.0640977 -9.48029e-23)
(-0.0239224 0.0622826 -6.78198e-20)
(-0.017259 0.0600976 -6.39385e-20)
(-0.00926415 0.0576001 1.8057e-19)
(0.000155084 0.0548397 5.65409e-20)
(0.0111037 0.0518578 -1.06549e-19)
(0.0236991 0.0486879 -5.00106e-20)
(0.0380707 0.0453568 4.69611e-20)
(0.0543598 0.0418857 0)
(0.0727182 0.0382931 -8.26012e-20)
(0.0933052 0.034601 -7.73125e-20)
(0.116292 0.0308529 0)
(0.141867 0.0271565 6.73104e-20)
(0.170006 0.0237224 -1.26084e-19)
(0.200356 0.0213364 -1.75874e-19)
(0.239216 0.0259089 0)
(-0.00399695 0.00664589 -1.37937e-19)
(-0.0111101 0.018264 7.11969e-20)
(-0.0175673 0.028463 -1.35754e-19)
(-0.0232886 0.037285 -2.87443e-22)
(-0.028214 0.0447769 0)
(-0.0322939 0.0509967 0)
(-0.0354808 0.0560152 5.59968e-20)
(-0.0377297 0.0599127 1.06354e-19)
(-0.0389979 0.0627762 0)
(-0.0392433 0.0646969 0)
(-0.0384231 0.065768 -1.80841e-19)
(-0.0364919 0.0660824 8.56095e-20)
(-0.0334 0.0657311 -1.39963e-22)
(-0.0290916 0.0648011 0)
(-0.0235031 0.0633744 -3.24909e-23)
(-0.0165611 0.0615268 6.7939e-20)
(-0.00818171 0.0593272 -1.60446e-22)
(0.00173139 0.0568368 -2.41032e-19)
(0.0132872 0.0541094 -5.67135e-20)
(0.0266079 0.0511909 1.06547e-19)
(0.0418288 0.0481198 1.00071e-19)
(0.0590969 0.044928 -8.68314e-23)
(0.0785696 0.0416412 8.81609e-20)
(0.100412 0.0382811 1.65191e-19)
(0.12479 0.0348682 7.73096e-20)
(0.151871 0.0314335 7.22247e-20)
(0.181843 0.0280516 6.72372e-20)
(0.214719 0.0248517 1.25334e-19)
(0.249642 0.0222394 -7.5497e-22)
(0.295483 0.027398 5.28233e-20)
(-0.00422273 0.00662879 1.38972e-19)
(-0.0116939 0.0181971 -2.14092e-19)
(-0.018399 0.0283334 1.36388e-19)
(-0.0242525 0.0370787 1.30143e-19)
(-0.0291875 0.0444817 6.19918e-20)
(-0.0331485 0.0506028 -4.06348e-23)
(-0.036083 0.0555157 -5.59064e-20)
(-0.037942 0.0593041 -1.06354e-19)
(-0.0386784 0.0620582 2.37673e-22)
(-0.0382457 0.0638723 1.91511e-19)
(-0.0365959 0.0648428 -9.09654e-20)
(-0.0336773 0.0650656 1.71498e-19)
(-0.0294326 0.0646345 -1.0768e-22)
(-0.0237967 0.0636399 -1.52947e-19)
(-0.0166947 0.0621669 -1.62839e-23)
(-0.00804032 0.060295 0)
(0.00226538 0.0580968 3.20287e-19)
(0.0143353 0.0556383 6.02059e-20)
(0.0282966 0.0529782 0)
(0.0442902 0.0501682 5.32905e-20)
(0.0624702 0.0472534 -5.01249e-20)
(0.0830009 0.0442725 1.87951e-19)
(0.106054 0.0412587 -2.64461e-19)
(0.131802 0.0382402 8.26522e-20)
(0.160413 0.035242 0)
(0.192037 0.032291 7.20995e-20)
(0.226834 0.02944 -1.34602e-19)
(0.264887 0.026773 1.25296e-19)
(0.304575 0.0241066 -1.1657e-19)
(0.358039 0.030075 -1.07034e-19)
(-0.00444334 0.00659228 -1.39491e-19)
(-0.0122563 0.0180669 -3.60119e-22)
(-0.0191881 0.0280928 -6.83552e-20)
(-0.0251456 0.0367123 -6.52204e-20)
(-0.0300543 0.0439773 -1.24694e-19)
(-0.0338516 0.0499524 5.92957e-20)
(-0.0364794 0.0547157 7.95472e-23)
(-0.0378833 0.0583548 -1.06949e-19)
(-0.0380108 0.0609642 -1.51836e-19)
(-0.0368097 0.062642 1.47517e-22)
(-0.034225 0.063488 9.07104e-20)
(-0.0301971 0.0636019 -1.71712e-19)
(-0.0246588 0.0630809 8.1255e-20)
(-0.0175335 0.0620187 7.67079e-20)
(-0.00873285 0.0605045 -9.77572e-24)
(0.0018448 0.0586216 6.81642e-20)
(0.0143157 0.0564476 -1.28209e-19)
(0.0288114 0.0540535 0)
(0.0454784 0.0515041 -1.13576e-19)
(0.064477 0.0488581 1.06721e-19)
(0.085979 0.0461684 -1.00205e-19)
(0.110163 0.0434823 -9.40161e-20)
(0.13721 0.040842 0)
(0.167292 0.0382853 -2.47486e-19)
(0.200564 0.0358455 1.6263e-22)
(0.237143 0.0335518 -3.60401e-19)
(0.277127 0.031445 2.02028e-19)
(0.320694 0.029634 -2.50303e-19)
(0.365199 0.027122 1.16563e-19)
(0.426672 0.0342155 -1.05763e-19)
(-0.0046587 0.00653858 6.99243e-20)
(-0.0127948 0.0178787 7.19037e-20)
(-0.019927 0.0277489 6.904e-20)
(-0.0259532 0.0361952 -1.88651e-22)
(-0.0307909 0.0432749 -1.67908e-22)
(-0.0343695 0.0490584 0)
(-0.0366243 0.0536294 0)
(-0.0374945 0.057081 0)
(-0.0369212 0.0595124 0)
(-0.0348446 0.0610264 0)
(-0.0312013 0.0617273 9.1043e-20)
(-0.0259215 0.0617187 -8.60958e-20)
(-0.0189262 0.0611019 8.14603e-20)
(-0.0101249 0.0599748 8.23449e-24)
(0.000586605 0.0584308 -7.23378e-20)
(0.0133276 0.0565583 1.53224e-23)
(0.0282333 0.0544401 -1.28507e-19)
(0.0454551 0.0521535 1.20886e-19)
(0.0651589 0.0497705 1.13573e-19)
(0.0875231 0.0473575 -1.06606e-19)
(0.112733 0.0449764 2.00504e-19)
(0.140977 0.0426841 0)
(0.172432 0.0405329 -1.76049e-19)
(0.207257 0.0385709 3.21529e-22)
(0.245575 0.0368411 3.83294e-22)
(0.287445 0.0353787 5.61631e-22)
(0.332857 0.0342133 -6.68143e-20)
(0.382098 0.0335722 1.25007e-19)
(0.431309 0.031432 1.16094e-19)
(0.500735 0.0400302 5.50679e-20)
(-0.00486855 0.00646943 0)
(-0.0133059 0.0176369 7.24624e-20)
(-0.0206062 0.0273084 -6.88612e-20)
(-0.0266581 0.0355362 -1.3465e-22)
(-0.0313699 0.0423854 1.25746e-19)
(-0.0346629 0.047934 -5.98439e-20)
(-0.0364648 0.0522727 0)
(-0.0367076 0.0555012 0)
(-0.0353244 0.0577248 -1.02055e-19)
(-0.0322465 0.0590517 9.68156e-20)
(-0.0274 0.0595913 9.16065e-20)
(-0.0207028 0.059452 0)
(-0.0120619 0.0587401 8.1677e-20)
(-0.00137059 0.0575581 0)
(0.0114932 0.0560048 -1.44905e-19)
(0.026668 0.0541742 2.04872e-19)
(0.0443092 0.0521555 1.92796e-19)
(0.0645876 0.0500332 -6.04765e-20)
(0.087687 0.0478872 -1.16923e-22)
(0.113799 0.0457926 -1.60184e-19)
(0.143116 0.0438208 0)
(0.175823 0.0420384 0)
(0.212079 0.0405079 8.80686e-20)
(0.252008 0.0392862 1.64696e-19)
(0.295671 0.0384252 -1.03642e-22)
(0.343041 0.0379642 1.43929e-19)
(0.393955 0.0379136 1.34137e-19)
(0.44876 0.0387065 0)
(0.502409 0.0371436 -1.16086e-19)
(0.579077 0.0476318 1.59383e-19)
(-0.00507226 0.006386 7.11011e-20)
(-0.013785 0.0173444 0)
(-0.0212143 0.0267762 1.61045e-22)
(-0.0272394 0.0347429 -6.63912e-20)
(-0.0317592 0.0413192 6.33604e-20)
(-0.0346864 0.0465926 6.00385e-20)
(-0.0359406 0.0506626 -1.1064e-22)
(-0.0354453 0.0536367 5.43074e-20)
(-0.0331242 0.0556273 0)
(-0.028898 0.0567492 -1.94165e-19)
(-0.0226805 0.0571178 2.66314e-22)
(-0.0143752 0.0568472 0)
(-0.00387295 0.0560491 8.18822e-20)
(0.00895118 0.0548323 -2.3142e-19)
(0.0242387 0.0533013 7.27474e-20)
(0.0421482 0.0515571 -6.83226e-20)
(0.0628547 0.0496961 -1.28718e-19)
(0.0865463 0.0478107 -1.81669e-19)
(0.11342 0.0459895 0)
(0.143672 0.0443169 0)
(0.17749 0.0428731 1.00183e-19)
(0.215038 0.041734 9.37924e-20)
(0.256435 0.0409699 -8.81112e-20)
(0.301738 0.0406439 0)
(0.350915 0.0408119 0)
(0.403809 0.0415119 0)
(0.460074 0.0427238 1.33535e-19)
(0.519977 0.0451156 -6.19073e-20)
(0.577691 0.0443229 1.16636e-19)
(0.659997 0.0570081 1.03248e-19)
(-0.00526875 0.00628878 -1.4241e-19)
(-0.0142259 0.0170029 7.3308e-20)
(-0.0217371 0.026156 -7.02038e-20)
(-0.0276725 0.0338213 6.69247e-20)
(-0.0319216 0.0400854 -6.33604e-20)
(-0.0343881 0.0450473 6.03309e-20)
(-0.0349829 0.0488168 -5.73979e-20)
(-0.0336199 0.0515106 -1.08491e-19)
(-0.0302122 0.0532494 1.03193e-19)
(-0.0246681 0.0541556 1.94835e-19)
(-0.0168871 0.0543515 9.19244e-20)
(-0.00675647 0.0539581 -8.70488e-20)
(0.00585121 0.0530939 2.20062e-22)
(0.0210802 0.0518741 2.34537e-23)
(0.0390922 0.0504109 7.28964e-20)
(0.0600651 0.0488125 0)
(0.0841908 0.0471838 1.28793e-19)
(0.11167 0.0456258 3.02749e-19)
(0.142702 0.0442358 -5.69668e-20)
(0.177478 0.0431068 0)
(0.216161 0.0423269 -2.00347e-19)
(0.25887 0.0419783 -9.38613e-20)
(0.305653 0.0421353 -8.77417e-20)
(0.356466 0.0428618 8.23789e-20)
(0.411141 0.0442104 -7.65929e-20)
(0.469342 0.046207 7.18333e-20)
(0.530538 0.0488061 -3.46751e-22)
(0.594646 0.0528109 1.23562e-19)
(0.655996 0.0530214 -1.15422e-19)
(0.741175 0.0680474 -2.07794e-19)
(-0.00545619 0.00617762 7.20067e-20)
(-0.0146206 0.0166124 7.37321e-20)
(-0.0221572 0.0254494 -2.37334e-22)
(-0.0279281 0.0327758 4.01389e-22)
(-0.0318138 0.0386922 0)
(-0.0337088 0.0433111 -2.41492e-22)
(-0.0335144 0.046754 -1.73238e-19)
(-0.0311341 0.0491482 0)
(-0.026469 0.050624 -1.03586e-19)
(-0.0194133 0.0513125 -3.91183e-19)
(-0.00985041 0.0513442 9.2538e-20)
(0.00235014 0.0508479 -8.73352e-20)
(0.0173352 0.0499498 -1.64183e-19)
(0.035269 0.0487732 1.55161e-19)
(0.0563322 0.0474385 0)
(0.0807194 0.0460624 6.85138e-20)
(0.108634 0.0447586 -1.93746e-19)
(0.140278 0.0436368 -6.06517e-20)
(0.175844 0.0428022 -1.70892e-19)
(0.215494 0.0423548 0)
(0.259344 0.0423877 2.00323e-19)
(0.307436 0.0429844 9.38564e-20)
(0.359712 0.0442167 0)
(0.415984 0.0461405 8.20596e-20)
(0.475904 0.0487961 0)
(0.538915 0.0521825 -7.12114e-20)
(0.604311 0.0562652 -1.99226e-19)
(0.671316 0.0617057 -2.4676e-19)
(0.735813 0.0633648 -1.14336e-19)
(0.819536 0.0806235 -3.41216e-21)
(-0.00563193 0.00605165 -7.20067e-20)
(-0.0149586 0.0161718 2.93513e-22)
(-0.0224535 0.0246566 7.08985e-20)
(-0.027972 0.0316094 -6.7326e-20)
(-0.0313864 0.0371469 -6.41844e-20)
(-0.0325816 0.0413967 1.21744e-19)
(-0.0314491 0.0444935 5.80373e-20)
(-0.0278808 0.0465768 1.09942e-19)
(-0.0217644 0.0477875 1.03646e-19)
(-0.0129787 0.0482666 9.83881e-20)
(-0.00138975 0.0481541 1.85818e-19)
(0.013152 0.0475876 -3.05136e-22)
(0.0308128 0.0467025 0)
(0.0517756 0.045631 -7.75623e-20)
(0.076237 0.0445025 -2.16558e-22)
(0.104402 0.043443 1.31134e-22)
(0.136476 0.0425748 1.93846e-19)
(0.172651 0.0420154 0)
(0.213088 0.0418763 1.13878e-19)
(0.257899 0.0422608 0)
(0.307119 0.0432614 2.56946e-24)
(0.360676 0.0449559 -9.36036e-20)
(0.418364 0.0474036 1.75482e-19)
(0.479808 0.0506408 -8.23063e-20)
(0.544448 0.054683 -1.52913e-19)
(0.611472 0.0594849 7.14242e-20)
(0.680026 0.0650792 2.65374e-19)
(0.748395 0.0715929 6.1368e-20)
(0.815417 0.0756124 2.84115e-19)
(0.891423 0.0942553 5.40619e-20)
(-0.00579234 0.0059094 7.27477e-20)
(-0.0152268 0.0156782 -1.49291e-19)
(-0.0226007 0.023776 0)
(-0.0277649 0.0303237 0)
(-0.0305837 0.0354558 6.45765e-20)
(-0.0309327 0.0393165 -2.65724e-22)
(-0.028693 0.0420555 -1.16172e-19)
(-0.0237441 0.0438254 -1.1014e-19)
(-0.0159592 0.0447792 4.00724e-22)
(-0.0052006 0.0450691 4.17312e-22)
(0.00868382 0.0448455 -9.29139e-20)
(0.0258624 0.0442562 1.75256e-19)
(0.0465197 0.0434467 -1.65455e-19)