/*--------------------------------*- C++ -*----------------------------------*\
  =========                 |
  \\      /  F ield         | OpenFOAM: The Open Source CFD Toolbox
   \\    /   O peration     | Website:  https://openfoam.org
    \\  /    A nd           | Version:  7
     \\/     M anipulation  |
\*---------------------------------------------------------------------------*/
FoamFile
{
    version     2.0;
    format      ascii;
    class       volScalarField;
    location    "50";
    object      p;
}
// * * * * * * * * * * * * * * * * * * * * * * * * * * * * * * * * * * * * * //

dimensions      [0 2 -2 0 0 0 0];

internalField   nonuniform List<scalar> 
183
(
0.0629568
0.0660216
0.0745686
0.0795108
0.0877603
0.0920109
0.10231
0.106107
0.118019
0.121578
0.135085
0.13834
0.153676
0.156588
0.173874
0.176429
0.195723
0.197917
0.219232
0.221075
0.221594
0.245888
0.24593
0.272292
0.271892
0.300159
0.299387
0.297098
0.328255
0.325488
0.358254
0.355133
0.350443
0.385749
0.38063
0.4116
0.40459
0.442916
0.435645
0.426867
0.466778
0.457732
0.488381
0.477723
0.507588
0.495491
0.536185
0.524274
0.510925
0.551389
0.538332
0.563653
0.549671
0.572897
0.558218
0.579061
0.563917
0.582102
0.566733
0.582002
0.566645
0.57876
0.563655
0.572397
0.557781
0.562955
0.549062
0.550496
0.537553
0.535101
0.523329
0.510101
0.50648
0.494527
0.487115
0.476621
0.465359
0.456498
0.44135
0.434284
0.425685
0.410119
0.403304
0.384155
0.379246
0.356554
0.353659
0.349163
0.326698
0.324138
0.298528
0.297973
0.29587
0.270822
0.270616
0.244572
0.244784
0.217884
0.2199
0.220564
0.194527
0.196867
0.17281
0.175484
0.15272
0.155723
0.134208
0.137527
0.117188
0.120783
0.101483
0.105284
0.0868851
0.0910989
0.0735909
0.0784549
0.080538
0.0647774
0.0443586
0.0578274
0.0317015
0.0275694
0.0216688
0.021465
0.0185861
0.0160003
0.0189252
0.0218366
0.0188943
0.0159978
0.018232
0.0224897
0.0259575
0.0250309
0.0226287
0.0250048
0.0295407
0.028694
0.0254054
0.0300406
0.0239038
0.0281956
0.0268651
0.0231052
0.0259649
0.0314595
0.0303459
0.0258964
0.0318178
0.0197268
0.0224909
0.0241212
0.026554
0.0279674
0.0234215
0.0198079
0.0216099
0.0269419
0.0261056
0.0202235
0.0207867
0.0269715
0.056275
0.0284613
0.0243215
0.0182487
0.0148707
0.0119152
0.015434
0.0174773
0.0174747
0.0202598
0.0219042
0.0240247
0.0252349
0.0217683
0.0193767
0.0209534
0.0250577
0.0243202
0.0199752
0.020548
0.0251683
)
;

boundaryField
{
    inlet
    {
        type            zeroGradient;
    }
    outlet
    {
        type            fixedValue;
        value           nonuniform 0();
    }
    cylinder
    {
        type            zeroGradient;
    }
    top
    {
        type            symmetryPlane;
    }
    bottom
    {
        type            symmetryPlane;
    }
    defaultFaces
    {
        type            empty;
    }
    procBoundary7to6
    {
        type            processor;
        value           nonuniform List<scalar> 
124
(
0.0816914
0.0816914
0.0961635
0.0961635
0.109534
0.109534
0.124405
0.124405
0.140737
0.140737
0.158536
0.158536
0.177912
0.177912
0.198921
0.198921
0.221045
0.244784
0.244784
0.270156
0.270156
0.293621
0.321363
0.321363
0.344548
0.374102
0.374102
0.396325
0.416979
0.447324
0.447324
0.465833
0.48228
0.496563
0.523925
0.523925
0.534411
0.542315
0.547586
0.550192
0.550116
0.547357
0.541934
0.53388
0.523247
0.523247
0.495847
0.481441
0.464874
0.446251
0.446251
0.415951
0.395208
0.3729
0.3729
0.343436
0.32019
0.32019
0.292551
0.269045
0.269045
0.243781
0.243781
0.220136
0.197991
0.197991
0.177062
0.177062
0.157742
0.157742
0.139972
0.139972
0.123633
0.123633
0.108697
0.108697
0.0951933
0.0951933
0.096194
0.06901
0.0704456
0.0397652
0.0326021
0.0256644
0.0253631
0.0220055
0.0179338
0.0209258
0.0249846
0.0212563
0.0167289
0.018559
0.018559
0.0253226
0.0304618
0.0286077
0.0235247
0.0267996
0.0333832
0.0319108
0.0263906
0.0335573
0.0218838
0.0247292
0.0262682
0.0291175
0.0307007
0.0250478
0.0201713
0.022264
0.0288865
0.0278782
0.0204175
0.0210111
0.0288024
0.06901
0.0364887
0.0293014
0.0226821
0.0183377
0.0141267
0.0176358
0.0203937
0.0203937
)
;
    }
    procBoundary7to8
    {
        type            processor;
        value           nonuniform List<scalar> 
130
(
0.0465798
0.0503803
0.0503803
0.0573124
0.0573124
0.0695214
0.0695214
0.0830407
0.0830407
0.0976474
0.0976474
0.113492
0.113492
0.130767
0.130767
0.149584
0.149584
0.170009
0.170009
0.192072
0.192072
0.215757
0.244362
0.244362
0.271014
0.271014
0.299021
0.329284
0.329284
0.359378
0.389044
0.416949
0.416949
0.44825
0.47403
0.497378
0.518142
0.518142
0.546242
0.562666
0.575917
0.585906
0.592564
0.595847
0.595732
0.59222
0.585334
0.57512
0.561646
0.545003
0.51687
0.51687
0.495924
0.4724
0.446451
0.415244
0.415244
0.387207
0.357418
0.327488
0.327488
0.297138
0.269318
0.269318
0.242845
0.242845
0.214203
0.1907
0.1907
0.168799
0.168799
0.148512
0.148512
0.129804
0.129804
0.112606
0.112606
0.0967984
0.0967984
0.0821822
0.0821822
0.0686015
0.0686015
0.0562799
0.0618274
0.0618274
0.0490554
0.0309679
0.0221696
0.0221696
0.0210871
0.016536
0.0171933
0.0149098
0.0134439
0.0166812
0.0190785
0.0165961
0.0147938
0.0174185
0.0211384
0.0240738
0.0234047
0.0218719
0.0240415
0.0278971
0.0272528
0.0246955
0.0285249
0.0426843
0.0188761
0.0177934
0.0128464
0.0106918
0.008888
0.012838
0.0147498
0.0151874
0.0181675
0.0198454
0.0218587
0.0229254
0.0201506
0.0186003
0.0201129
0.0234604
0.022777
0.0194203
0.0200286
0.0236503
)
;
    }
}


// ************************************************************************* //
