/*--------------------------------*- C++ -*----------------------------------*\
  =========                 |
  \\      /  F ield         | OpenFOAM: The Open Source CFD Toolbox
   \\    /   O peration     | Website:  https://openfoam.org
    \\  /    A nd           | Version:  7
     \\/     M anipulation  |
\*---------------------------------------------------------------------------*/
FoamFile
{
    version     2.0;
    format      ascii;
    class       surfaceScalarField;
    location    "75";
    object      phi;
}
// * * * * * * * * * * * * * * * * * * * * * * * * * * * * * * * * * * * * * //

dimensions      [0 3 -1 0 0 0 0];

internalField   nonuniform List<scalar> 
231
(
-0.00484552
-0.00138149
-0.00140272
-0.00129441
-0.00427472
-0.00128556
-0.00406363
-0.00126625
-0.00386076
-0.00112027
-0.00359341
-0.00123688
-0.0036647
-0.00107885
-0.00341118
-0.00119763
-0.00347463
-0.00102771
-0.00323435
-0.0011487
-0.00329018
-0.000967096
-0.00306272
-0.0010903
-0.00311114
-0.00102271
-0.00293731
-0.000946208
-0.00276838
-0.000861123
-0.00260371
-0.00263671
-0.000767824
-0.00244182
-0.000901446
-0.00247009
-0.000802215
-0.00230642
-0.000695589
-0.0021423
-0.00216743
-0.000722531
-0.00200213
-0.000604193
-0.00183003
-0.00185869
-0.000624407
-0.00168658
-0.00171224
-0.000642983
-0.00154018
-0.000510838
-0.00135326
-0.00139111
-0.000523691
-0.00120663
-0.00123962
-0.000535139
-0.00105765
-0.00108598
-0.000394153
-0.000855647
-0.000545175
-0.000906632
-0.000401011
-0.000712077
-0.000753852
-0.000406735
-0.000566892
-0.000599607
-0.000411317
-0.000420415
-0.000444187
-0.000414754
-0.000272968
-0.000287885
-0.000417041
-0.000124875
-0.000130993
-0.000418175
2.35415e-05
2.61974e-05
-0.000418153
0.000171958
0.000183393
-0.000416975
0.000320052
0.000340302
-0.000414639
0.000467498
0.00049663
-0.000411146
0.000613971
0.000652084
-0.000406496
0.000759146
0.000806369
-0.000400691
0.000902698
0.000959192
-0.000393734
-0.000544798
0.00111026
0.0011411
-0.000534638
0.00125927
0.00129485
-0.000523035
0.00140592
0.00144645
-0.000509994
0.00159563
-0.000642012
0.00174213
0.00176886
-0.00062315
0.00188566
0.0019155
-0.000602594
0.00205912
-0.000720694
0.00219946
0.00222513
-0.000693255
0.00236438
-0.000799547
0.00252877
-0.000898433
0.00266275
0.00269627
-0.000857278
0.00282841
-0.000941858
0.00299864
-0.00101782
0.00317409
-0.00108485
0.00329804
0.00335509
-0.00102074
-0.00114264
0.00347699
0.00354186
-0.00107105
-0.00119089
0.0036617
0.00373456
-0.00111157
-0.0012294
0.00393356
-0.00125808
0.0041401
-0.0012771
0.00435674
-0.00128622
-0.00140399
0.00470981
-0.0013978
0.0049563
-0.00151377
-0.00137487
-0.00147255
-0.00148746
-0.0203602
-0.00147689
-0.0203457
-0.0014448
-0.0203305
-0.00140161
-0.0202527
-0.00133984
-0.0202802
-0.00126082
-0.0202407
-0.00118598
-0.0201055
-0.00111271
-0.020064
-0.0200857
-0.00161766
-0.0016013
-0.00156362
-0.00151533
-0.0014478
-0.00136054
-0.0012781
-0.00119926
-0.00110639
-0.000999886
-0.000895101
-0.000797722
-0.000701983
-0.000604628
-0.000496421
-0.000392894
-0.00029914
-0.000202264
-9.48562e-05
-0.00160244
0.0206787
-0.00162468
0.0207284
-0.00162162
0.0207633
-0.00159454
0.0207309
-0.00153788
0.0207331
-0.00146064
0.0206251
-0.00138455
0.0204552
-0.00130488
-0.00121238
-0.00112143
-0.00102484
-0.000931973
-0.000835877
-0.000736059
-0.000626117
-0.000520762
-0.000423407
-0.000322534
-0.000210057
-9.86567e-05
-0.00146688
-0.00149455
-0.00149703
-0.00147449
-0.00142417
-0.00135541
)
;

boundaryField
{
    inlet
    {
        type            calculated;
        value           nonuniform 0();
    }
    outlet
    {
        type            calculated;
        value           nonuniform 0();
    }
    cylinder
    {
        type            calculated;
        value           nonuniform 0();
    }
    top
    {
        type            symmetryPlane;
        value           uniform 0;
    }
    bottom
    {
        type            symmetryPlane;
        value           uniform 0;
    }
    defaultFaces
    {
        type            empty;
        value           nonuniform 0();
    }
    procBoundary8to7
    {
        type            processor;
        value           nonuniform List<scalar> 
130
(
-0.00461082
-0.00473177
-0.00151647
-0.00140891
-0.00438036
-0.00140197
-0.00415831
-0.00138411
-0.00394577
-0.00135639
-0.00374125
-0.00131906
-0.00354328
-0.00127218
-0.00335115
-0.00121587
-0.00316462
-0.00115033
-0.00298353
-0.00107586
-0.00280766
-0.000992787
-0.00103701
-0.00250115
-0.000939565
-0.00233274
-0.000834576
-0.000864888
-0.00202507
-0.000747625
-0.000770855
-0.000792208
-0.00156302
-0.00065991
-0.000675179
-0.000688778
-0.0007007
-0.00093046
-0.000553791
-0.00056098
-0.000566737
-0.000571056
-0.000573933
-0.000575365
-0.000575349
-0.000573883
-0.000570967
-0.0005666
-0.000560781
-0.000553514
-0.00098547
-0.000700428
-0.000688388
-0.000674636
-0.000659176
-0.00161944
-0.000791432
-0.00076979
-0.000746208
-0.00208249
-0.000863328
-0.000832507
-0.00239105
-0.000937268
-0.00256022
-0.00103449
-0.000989418
-0.00286837
-0.00107212
-0.00304571
-0.00114621
-0.0032286
-0.00121134
-0.00341728
-0.00126722
-0.00361189
-0.00131356
-0.00381262
-0.00135034
-0.00402037
-0.00137781
-0.00423768
-0.00139616
-0.00446782
-0.00458852
-0.00152528
-0.00484033
-0.0202617
0.00160664
-0.0203492
-0.0203621
-0.0203682
-0.020301
-0.0203477
-0.020328
-0.0201879
-0.0201428
-0.0201785
-0.0201718
-0.0200711
-0.0199726
-0.0199359
-0.0198785
-0.0199356
-0.01983
-0.0197633
-0.0197478
-0.0198329
-0.0197131
-0.0205901
-0.0207061
-0.0207664
-0.020758
-0.0207897
-0.0207023
-0.0205313
-0.0204462
-0.0204037
-0.0202351
-0.0202228
-0.0200635
-0.0200745
-0.0199862
-0.0200405
-0.0199178
-0.0198632
-0.0198542
-0.0199169
-0.0198871
-0.0197968
)
;
    }
    procBoundary8to9
    {
        type            processor;
        value           nonuniform List<scalar> 
138
(
0.00495229
0.00127472
0.00472205
0.00438548
0.00129149
0.00449485
0.00118364
0.00417629
0.00117291
0.00397531
0.00370735
0.0011517
0.00378131
0.00100633
0.00352746
0.000962561
0.003353
0.000909056
0.00318372
0.000846091
0.0008973
0.00289596
0.000818621
0.00273341
0.000731422
0.00257343
0.000636215
0.000666811
0.00227899
0.0005589
0.000582353
0.00197027
0.000463949
0.000480957
0.00049659
0.00149725
0.000366842
0.000377061
0.000386167
0.000997279
0.000252521
0.000257441
0.00026155
0.00026484
0.000267307
0.000268948
0.000269758
0.000269736
0.000268881
0.000267193
0.000264672
0.00026132
0.00025714
0.000252135
0.0010443
0.000385628
0.000376378
0.000365988
0.00154993
0.000495519
0.000479615
0.000462288
0.00202597
0.000580351
0.000556426
0.00233629
0.000663898
0.00250003
0.000764457
0.000727248
0.00279278
0.000813818
0.00295645
0.000891825
0.00312464
0.000960902
0.000901383
0.0034174
0.000953898
0.00359414
0.000996607
0.00377666
0.00385239
0.00114206
0.00404959
0.00116246
0.00425474
0.00117277
0.00447019
0.0045856
0.00128361
0.00482399
0.00126616
0.00506501
0.0203528
0.0203751
0.0203352
0.0202985
0.0202096
0.0202184
0.0201617
0.0200307
0.0199907
0.019999
-0.001026
0.0200653
0.0199663
0.0198752
0.0198401
0.0197811
0.0198274
0.0197264
0.0196695
0.0196509
0.0197255
0.0196182
0.0203666
0.0203112
0.0201441
0.0201262
0.0199707
0.0199784
0.0198864
0.0199305
0.0198124
0.0197658
0.0197533
0.0198045
0.0197757
0.0196982
0.0207707
0.020756
0.0207658
0.0207083
0.0206828
0.0205563
-0.00128692
0.0203868
)
;
    }
}


// ************************************************************************* //
