/*--------------------------------*- C++ -*----------------------------------*\
  =========                 |
  \\      /  F ield         | OpenFOAM: The Open Source CFD Toolbox
   \\    /   O peration     | Website:  https://openfoam.org
    \\  /    A nd           | Version:  7
     \\/     M anipulation  |
\*---------------------------------------------------------------------------*/
FoamFile
{
    version     2.0;
    format      ascii;
    class       volScalarField;
    location    "45";
    object      p;
}
// * * * * * * * * * * * * * * * * * * * * * * * * * * * * * * * * * * * * * //

dimensions      [0 2 -2 0 0 0 0];

internalField   nonuniform List<scalar> 
183
(
-0.441185
-0.430832
-0.422161
-0.413182
-0.402975
-0.451726
-0.440706
-0.431462
-0.421686
-0.410294
-0.397053
-0.381934
-0.365214
-0.347432
-0.329219
-0.311143
-0.461866
-0.45024
-0.440411
-0.429738
-0.416999
-0.402011
-0.384916
-0.3662
-0.346581
-0.326794
-0.307439
-0.288916
-0.27145
-0.255124
-0.239935
-0.225833
-0.212742
-0.200578
-0.189275
-0.471355
-0.459194
-0.448761
-0.437083
-0.422832
-0.405937
-0.386759
-0.366016
-0.344599
-0.32332
-0.30278
-0.283341
-0.265174
-0.248316
-0.232725
-0.218323
-0.205014
-0.192703
-0.181315
-0.170729
-0.160698
-0.166811
-0.156677
-0.147155
-0.456972
-0.444862
-0.43453
-0.423059
-0.409142
-0.392699
-0.374056
-0.353895
-0.333074
-0.312384
-0.292416
-0.273532
-0.255902
-0.239566
-0.224487
-0.210589
-0.197779
-0.185961
-0.175062
-0.164963
-0.155415
-0.447298
-0.43573
-0.425993
-0.415501
-0.40306
-0.388485
-0.371894
-0.353738
-0.334705
-0.315508
-0.29673
-0.278771
-0.261854
-0.246064
-0.231404
-0.217823
-0.205249
-0.1936
-0.437007
-0.426052
-0.416893
-0.407272
-0.396141
-0.38327
-0.368617
-0.352429
-0.335215
-0.317583
-0.426346
-0.416067
-0.407473
-0.398628
-0.0351778
-0.0332307
-0.0315438
-0.0299925
-0.0287301
-0.0278374
-0.027543
-0.0269333
-0.140608
-0.118078
-0.0985977
-0.0866123
-0.0751759
-0.0673857
-0.060301
-0.0544453
-0.0496509
-0.0458019
-0.0422546
-0.0388819
-0.036167
-0.0336726
-0.0318237
-0.0302164
-0.028696
-0.0274444
-0.0265929
-0.02635
-0.0257108
-0.128904
-0.109411
-0.0918938
-0.0815676
-0.0712674
-0.0641186
-0.0569834
-0.0516722
-0.0470097
-0.0427123
-0.0395469
-0.0366894
-0.0344444
-0.0329539
-0.0313328
-0.0300925
-0.0288153
-0.0281614
-0.0278066
-0.0273277
-0.0269365
-0.136435
-0.115557
-0.0971602
-0.0860142
-0.0751263
-0.0674921
-0.0600093
-0.0543838
-0.0494544
-0.0449639
-0.0416035
-0.0385837
-0.0361789
-0.034515
-0.0327778
-0.0314656
-0.030147
-0.0294198
-0.0289854
-0.0284893
-0.0281163
)
;

boundaryField
{
    inlet
    {
        type            zeroGradient;
    }
    outlet
    {
        type            fixedValue;
        value           nonuniform 0();
    }
    cylinder
    {
        type            zeroGradient;
    }
    top
    {
        type            symmetryPlane;
    }
    bottom
    {
        type            symmetryPlane;
    }
    defaultFaces
    {
        type            empty;
    }
    procBoundary18to17
    {
        type            processor;
        value           nonuniform List<scalar> 
85
(
-0.479925
-0.467309
-0.456245
-0.443447
-0.42753
-0.408596
-0.387272
-0.364521
-0.341381
-0.318714
-0.297098
-0.276845
-0.258065
-0.240748
-0.224819
-0.210173
-0.196697
-0.184286
-0.172857
-0.162256
-0.152274
-0.158028
-0.147904
-0.138469
-0.46576
-0.453188
-0.442236
-0.429672
-0.414123
-0.395674
-0.374909
-0.352753
-0.330211
-0.308129
-0.287076
-0.267364
-0.249107
-0.232298
-0.216865
-0.202705
-0.18971
-0.177772
-0.177772
-0.132984
-0.11192
-0.0933752
-0.0822342
-0.071386
-0.064131
-0.0574537
-0.0518903
-0.0473795
-0.0438062
-0.040447
-0.0371837
-0.0345637
-0.0321542
-0.0304071
-0.0288828
-0.0273897
-0.0261432
-0.0253348
-0.0251505
-0.0244725
-0.121106
-0.103127
-0.0865178
-0.0770707
-0.067374
-0.0607348
-0.0539418
-0.0489474
-0.0445543
-0.0404427
-0.037475
-0.034776
-0.0326895
-0.031388
-0.0298826
-0.028713
-0.0274672
-0.0268915
-0.0266272
-0.0261624
-0.0257425
)
;
    }
    procBoundary18to19
    {
        type            processor;
        value           nonuniform List<scalar> 
91
(
-0.430465
-0.420831
-0.412725
-0.404459
-0.395283
-0.391299
-0.391299
-0.378014
-0.363217
-0.347271
-0.330682
-0.313965
-0.293631
-0.293631
-0.276947
-0.261223
-0.246497
-0.232747
-0.21992
-0.207948
-0.196772
-0.178745
-0.178745
-0.16872
-0.182808
-0.172787
-0.16327
-0.300086
-0.283142
-0.267017
-0.251843
-0.23766
-0.224449
-0.212159
-0.182808
-0.200723
-0.388645
-0.377295
-0.36443
-0.350127
-0.334723
-0.300086
-0.3187
-0.415538
-0.405984
-0.39795
-0.388645
-0.389799
-0.03667
-0.0346271
-0.0328633
-0.0312781
-0.0300005
-0.029069
-0.0287266
-0.0281407
-0.147983
-0.124083
-0.103714
-0.0909237
-0.0789223
-0.0706106
-0.0631271
-0.0569778
-0.051904
-0.04779
-0.0440592
-0.0405733
-0.0377581
-0.0377581
-0.143719
-0.121564
-0.102337
-0.0904122
-0.0789614
-0.0708499
-0.0630248
-0.0570799
-0.0518847
-0.0472
-0.0436422
-0.0404596
-0.0378965
-0.0360669
-0.0342168
-0.0328294
-0.0314648
-0.0306667
-0.0301594
-0.0296446
-0.0292832
)
;
    }
}


// ************************************************************************* //
