/*--------------------------------*- C++ -*----------------------------------*\
  =========                 |
  \\      /  F ield         | OpenFOAM: The Open Source CFD Toolbox
   \\    /   O peration     | Website:  https://openfoam.org
    \\  /    A nd           | Version:  7
     \\/     M anipulation  |
\*---------------------------------------------------------------------------*/
FoamFile
{
    version     2.0;
    format      ascii;
    class       surfaceScalarField;
    location    "30";
    object      phi;
}
// * * * * * * * * * * * * * * * * * * * * * * * * * * * * * * * * * * * * * //

dimensions      [0 3 -1 0 0 0 0];

internalField   nonuniform List<scalar> 
272
(
1.97454e-05
-9.63163e-05
7.90052e-05
-0.000367036
0.000177836
-0.00071693
0.000312751
-0.00113178
-0.00158869
2.15198e-05
-0.000117836
8.46379e-05
-0.000430155
0.000187728
-0.00082002
0.000325181
-0.00126923
0.000486775
-0.00175029
0.000659
-0.00223068
0.000827891
-0.0026801
0.000982043
-0.003077
0.00111452
-0.00341168
0.00122317
-0.0036856
-0.00390798
2.31877e-05
-0.000141024
8.96504e-05
-0.000496617
0.00019588
-0.000926249
0.000334075
-0.00140743
0.000492067
-0.00190828
0.000655366
-0.00239398
0.000810395
-0.00283513
0.000947286
-0.00321389
0.00106114
-0.00352554
0.00115166
-0.00377612
0.00122176
-0.00397808
0.00127592
-0.0041459
0.00131875
-0.00429291
0.00135422
-0.00442969
0.00138528
-0.00456376
0.0014139
-0.00469998
0.00144134
-0.00484129
0.00146829
-0.00498931
-0.00514474
2.47069e-05
9.39011e-05
0.000202044
0.000339176
0.000491487
0.000644036
0.000784125
0.000903661
0.000999708
0.00107354
0.00112896
0.00117065
0.00120299
0.00122942
0.00125237
0.00127338
0.00129339
0.0013129
0.00133216
0.00135116
0.00136969
0.00117083
0.00516544
0.00118218
0.00532819
0.00549675
0.00119293
2.47327e-05
0.000141027
9.39963e-05
0.000496711
0.000202242
0.000926485
0.00033949
0.00140782
0.000491912
0.00190879
0.000644549
0.00239454
0.0007847
0.00283568
0.000904276
0.00321437
0.00100035
0.00352594
0.00107421
0.00377645
0.00112968
0.00397837
0.00117143
0.0041462
0.00120384
0.00429327
0.00123037
0.00443015
0.00125344
0.00456435
0.00127458
0.00470073
0.00129473
0.00484221
0.0013144
0.0049904
0.00133384
0.00135303
0.00137176
2.32108e-05
0.000117816
8.97388e-05
0.000430183
0.000196069
0.000820155
0.000334386
0.0012695
0.000492502
0.00175067
0.00065591
0.00223113
0.000811025
0.00268057
0.000947977
0.00307742
0.00106188
0.00341204
0.00115244
0.00368588
0.0012226
0.00127682
0.00131974
0.00135532
0.00138649
0.00141526
0.00144284
2.15398e-05
9.62764e-05
8.47177e-05
0.000367005
0.000187904
0.000716969
0.000325479
0.00113193
0.000487207
0.000659559
0.000828557
0.000982795
0.00111534
1.97623e-05
7.90752e-05
0.000177996
0.000340396
-0.0200564
0.000288804
-0.0200104
0.000239155
-0.0199805
0.000189655
-0.0199206
0.000141211
-0.0198963
9.32247e-05
-0.0198643
4.71707e-05
-0.0198738
-0.0198393
0.00121569
0.00108205
0.000973432
0.000877468
0.000792242
0.000716543
0.00064736
0.000583276
0.000524511
0.000470919
0.000420098
0.00037131
0.000324567
0.000279721
0.000236884
0.000196049
0.000155235
0.000115375
7.59649e-05
3.86414e-05
0.00104474
0.0215631
0.000919395
0.0211389
0.000819134
0.0210048
0.000731967
0.0208201
0.000656642
0.0207107
0.000589312
0.0205958
0.000527721
0.0204874
0.000471931
0.0203909
0.000421366
0.0203297
0.000372688
0.020217
0.000328964
0.0201768
0.000286765
0.0200901
0.000248333
0.0200545
0.000212692
0.0200095
0.000179176
0.0199705
0.000146823
0.0199255
0.000115039
0.0198823
8.48932e-05
0.0198656
5.66312e-05
0.0198641
2.85725e-05
0.0198454
0.0198224
0.0012183
0.00108537
0.000977318
0.000881497
0.00079737
0.000721038
0.00065051
0.000585818
0.000526275
0.000468794
0.000416262
0.000365361
0.000318209
0.000273721
0.000231341
0.000190216
0.000149807
0.000111012
7.39615e-05
3.71615e-05
)
;

boundaryField
{
    inlet
    {
        type            calculated;
        value           nonuniform 0();
    }
    outlet
    {
        type            calculated;
        value           nonuniform 0();
    }
    cylinder
    {
        type            calculated;
        value           uniform 0;
    }
    top
    {
        type            symmetryPlane;
        value           uniform 0;
    }
    bottom
    {
        type            symmetryPlane;
        value           uniform 0;
    }
    defaultFaces
    {
        type            empty;
        value           nonuniform 0();
    }
    procBoundary18to17
    {
        type            processor;
        value           nonuniform List<scalar> 
85
(
-0.000165731
-0.000565811
-0.00103439
-0.00154456
-0.00206059
-0.00254653
-0.00297522
-0.00333342
-0.00362158
-0.00384995
-0.0040335
-0.00418759
-0.00432524
-0.00445613
-0.00458671
-0.004721
-0.0048613
-0.00500882
-0.005164
-0.00532656
-0.00549495
-0.00517724
-0.00533954
-0.0055075
-0.00016576
-0.000565974
-0.00103473
-0.00154507
-0.00206121
-0.00254718
-0.00297583
-0.00333395
-0.00362201
-0.00385031
-0.00403384
-0.00418795
-0.00432568
-0.00445668
-0.00458742
-0.00472187
-0.00486236
-0.00115903
-0.00501007
-0.0215548
-0.02113
-0.0209893
-0.0208223
-0.0206972
-0.0206043
-0.0205082
-0.0204123
-0.0203357
-0.0202835
-0.0202092
-0.0201326
-0.0200643
-0.0200116
-0.0199676
-0.0199396
-0.0198797
-0.0198564
-0.0198249
-0.0198365
-0.0198007
-0.0214149
-0.0210135
-0.0209046
-0.0207329
-0.0206354
-0.0205285
-0.0204258
-0.0203352
-0.0202791
-0.0201683
-0.0201331
-0.0200479
-0.0200161
-0.0199738
-0.019937
-0.0198932
-0.0198505
-0.0198354
-0.0198359
-0.0198173
-0.0197938
)
;
    }
    procBoundary18to19
    {
        type            processor;
        value           nonuniform List<scalar> 
91
(
7.65709e-05
0.000307777
0.000618098
0.000996866
0.00142576
0.00047569
0.00205845
0.00251121
0.00292285
0.0032792
0.00357695
0.00382151
0.00130963
0.00409174
0.00425007
0.00439422
0.00453271
0.00467136
0.00481386
0.00496235
0.00511789
0.00149514
0.00530756
0.00547642
0.005146
0.005309
0.00547802
0.00390822
0.00409198
0.00425035
0.00439458
0.00453318
0.00467196
0.00481462
0.00146997
0.00496328
0.00158895
0.00205878
0.00251157
0.00292318
0.00327949
0.00122405
0.00357718
7.65141e-05
0.000307692
0.000618048
0.00031303
0.000996891
0.02011
0.020062
0.0200301
0.0199701
0.0199447
0.0199123
0.0199199
0.0198865
0.0217088
0.0212637
0.0210979
0.0209183
0.0207825
0.02068
0.0205773
0.0204764
0.0203945
0.0203371
0.02026
0.0201814
-0.000393982
0.0201111
0.0217166
0.0212718
0.0211129
0.0209159
0.0207949
0.0206721
0.020558
0.0204556
0.0203892
0.0202744
0.0202293
0.020141
0.0201017
0.020054
0.0200129
0.0199667
0.0199227
0.0199044
0.0199012
0.0198822
0.0198596
)
;
    }
}


// ************************************************************************* //
