/*--------------------------------*- C++ -*----------------------------------*\
  =========                 |
  \\      /  F ield         | OpenFOAM: The Open Source CFD Toolbox
   \\    /   O peration     | Website:  https://openfoam.org
    \\  /    A nd           | Version:  7
     \\/     M anipulation  |
\*---------------------------------------------------------------------------*/
FoamFile
{
    version     2.0;
    format      ascii;
    class       volVectorField;
    location    "61";
    object      U;
}
// * * * * * * * * * * * * * * * * * * * * * * * * * * * * * * * * * * * * * //

dimensions      [0 1 -1 0 0 0 0];

internalField   nonuniform List<vector> 
40000
(
(-0.000184084 0.0009243 -1.83651e-21)
(-0.00112674 0.00250341 5.69043e-21)
(-0.00312583 0.00386096 -3.63131e-21)
(-0.00594031 0.00501204 -3.91074e-24)
(-0.00943747 0.00597081 -1.77687e-24)
(-0.0135278 0.00675202 2.86363e-24)
(-0.0181186 0.00737135 -6.03779e-21)
(-0.0231194 0.00784506 1.43549e-21)
(-0.028446 0.00818972 -4.09977e-21)
(-0.0340203 0.00842178 -1.29683e-21)
(-0.0397701 0.0085573 0)
(-0.0456292 0.00861148 -4.67269e-21)
(-0.0515376 0.00859832 0)
(-0.0574409 0.00853028 0)
(-0.0632908 0.00841803 -3.96191e-21)
(-0.0690446 0.00827036 3.74368e-21)
(-0.0746648 0.00809404 -1.76735e-21)
(-0.0801196 0.00789402 -1.53555e-24)
(-0.0853825 0.00767351 1.57036e-21)
(-0.0904328 0.00743431 0)
(-0.0952557 0.00717707 -1.39345e-21)
(-0.0998433 0.00690158 -3.93418e-21)
(-0.104195 0.00660705 4.92919e-21)
(-0.108321 0.00629223 -2.31387e-21)
(-0.112237 0.00595542 6.51746e-21)
(-0.115973 0.00559428 4.07703e-21)
(-0.119568 0.00520538 -7.64464e-21)
(-0.123068 0.0047834 7.16304e-21)
(-0.126524 0.00432035 -1.67559e-21)
(-0.130004 0.00380663 -3.14738e-21)
(-0.000228685 0.0014961 0)
(-0.00124093 0.00405811 3.80161e-21)
(-0.00328734 0.00625974 7.2791e-21)
(-0.00613108 0.00812907 -6.94674e-21)
(-0.00964209 0.0096899 -3.32989e-21)
(-0.0137328 0.0109656 1.26776e-20)
(-0.0183124 0.0119804 -3.02683e-21)
(-0.0232919 0.0127592 -5.76342e-21)
(-0.0285888 0.0133269 -1.2735e-23)
(-0.0341261 0.0137081 -1.55951e-20)
(-0.0398329 0.0139266 4.92721e-21)
(-0.0456439 0.0140051 1.87047e-20)
(-0.0514996 0.0139646 -8.85636e-21)
(-0.0573466 0.0138244 -4.73208e-24)
(-0.0631368 0.0136013 -3.97424e-21)
(-0.0688277 0.0133101 -3.91882e-25)
(-0.0743822 0.0129629 0)
(-0.0797683 0.0125702 0)
(-0.0849595 0.0121403 1.25885e-20)
(-0.0899346 0.0116804 0)
(-0.0946783 0.0111967 5.57983e-21)
(-0.0991823 0.0106952 -5.24954e-21)
(-0.103445 0.0101819 1.49709e-24)
(-0.107476 0.00966304 0)
(-0.11129 0.00914483 8.70756e-21)
(-0.114918 0.0086331 -8.15638e-21)
(-0.118398 0.0081319 7.64463e-21)
(-0.121779 0.00764102 -7.16303e-21)
(-0.125108 0.00715528 6.71417e-21)
(-0.128457 0.00667199 -1.89026e-20)
(-0.000301475 0.00205674 -7.37176e-21)
(-0.00142798 0.00558388 -7.59406e-21)
(-0.00355298 0.00861591 0)
(-0.0064462 0.0111932 0)
(-0.0099816 0.0133487 0)
(-0.0140745 0.0151138 6.3618e-21)
(-0.0186368 0.0165211 0)
(-0.0235821 0.0176037 5.75491e-21)
(-0.02883 0.0183945 1.09446e-20)
(-0.0343056 0.0189258 1.03966e-20)
(-0.0399393 0.019229 0)
(-0.0456674 0.0193341 1.19516e-23)
(-0.0514316 0.0192691 -1.77456e-20)
(-0.0571793 0.0190597 1.67958e-20)
(-0.062863 0.0187289 7.93179e-21)
(-0.0684406 0.0182971 7.50314e-21)
(-0.0738753 0.0177821 -7.07697e-21)
(-0.0791348 0.0171993 1.33703e-20)
(-0.0841922 0.0165623 -2.51934e-20)
(-0.0890256 0.0158833 -3.96918e-24)
(-0.0936187 0.0151743 -2.23441e-20)
(-0.0979617 0.0144471 2.10309e-20)
(-0.102052 0.0137146 0)
(-0.105897 0.0129906 0)
(-0.109511 0.0122896 8.7306e-21)
(-0.112923 0.0116262 0)
(-0.116172 0.0110126 0)
(-0.119309 0.0104548 0)
(-0.122378 0.00995176 -1.34634e-20)
(-0.125456 0.00950855 1.26012e-20)
(-0.000401337 0.00260115 7.37176e-21)
(-0.00168513 0.00706745 3.55529e-24)
(-0.00391896 0.0109098 3.63163e-23)
(-0.00688129 0.0141797 -1.39364e-20)
(-0.0104514 0.0169186 -1.3314e-20)
(-0.0145483 0.0191654 2.0161e-23)
(-0.0190875 0.0209603 -2.42358e-20)
(-0.0239858 0.0223442 1.15446e-20)
(-0.0291658 0.0233573 -2.1954e-20)
(-0.0345549 0.0240396 2.08536e-20)
(-0.0400859 0.0244297 -9.89196e-21)
(-0.0456966 0.0245644 1.87631e-20)
(-0.0513304 0.0244784 1.77456e-20)
(-0.0569357 0.0242037 2.54546e-23)
(-0.0624661 0.0237694 -1.59075e-20)
(-0.0678799 0.0232012 0)
(-0.0731402 0.0225223 4.41711e-24)
(-0.0782148 0.0217529 1.33884e-20)
(-0.0830758 0.0209116 -2.76195e-24)
(-0.0877004 0.0200156 -1.32241e-23)
(-0.0920708 0.0190821 2.23602e-20)
(-0.0961751 0.0181288 -2.10308e-20)
(-0.100009 0.0171753 0)
(-0.103575 0.0162431 1.86015e-20)
(-0.106889 0.0153556 1.6646e-23)
(-0.109976 0.0145368 -4.91248e-20)
(-0.112877 0.0138087 1.53481e-20)
(-0.115644 0.013185 2.87975e-20)
(-0.118316 0.0126708 1.34633e-20)
(-0.120977 0.0122808 1.2643e-20)
(-0.000526744 0.00312453 2.96296e-20)
(-0.00200861 0.00849623 -1.52692e-20)
(-0.00438011 0.0131225 1.45978e-20)
(-0.0074304 0.0170649 1.39661e-20)
(-0.0110451 0.0203722 0)
(-0.0151478 0.0230901 -2.55083e-20)
(-0.0196583 0.0252658 -1.21773e-20)
(-0.0244974 0.026947 -2.31163e-20)
(-0.0295908 0.0281812 1.09747e-20)
(-0.0348692 0.0290151 3.89731e-23)
(-0.0402679 0.0294942 1.98255e-20)
(-0.0457271 0.0296619 1.8822e-20)
(-0.0511917 0.0295593 -3.55741e-20)
(-0.0566117 0.0292242 1.68547e-20)
(-0.0619416 0.0286915 -2.75374e-23)
(-0.0671405 0.0279922 0)
(-0.0721715 0.0271542 -1.41926e-20)
(-0.0770021 0.0262028 -2.68264e-20)
(-0.0816036 0.0251608 3.79306e-20)
(-0.0859516 0.0240501 1.1929e-20)
(-0.0900264 0.0228929 0)
(-0.0938134 0.0217124 -2.10997e-20)
(-0.0973048 0.0205349 0)
(-0.100501 0.0193896 -5.58558e-20)
(-0.103413 0.0183092 3.49547e-20)
(-0.106064 0.0173287 -1.09767e-23)
(-0.108496 0.0164813 3.07805e-20)
(-0.110764 0.0157911 -4.321e-20)
(-0.112899 0.0152727 2.70182e-20)
(-0.114992 0.0149527 1.2657e-20)
(-0.0006758 0.00362247 -1.48365e-20)
(-0.00239372 0.00985851 1.5273e-20)
(-0.00492999 0.0152365 -5.4883e-24)
(-0.00808609 0.0198264 -4.2063e-20)
(-0.0117549 0.0236834 0)
(-0.0158653 0.026859 2.55082e-20)
(-0.0203417 0.0294064 -2.44041e-20)
(-0.0251095 0.0313797 4.62764e-20)
(-0.0300984 0.0328327 0)
(-0.0352423 0.0338185 -2.08924e-20)
(-0.0404797 0.0343887 -1.98255e-20)
(-0.0457532 0.0345931 -1.87958e-20)
(-0.05101 0.0344786 -5.35096e-20)
(-0.0562015 0.0340888 6.26166e-24)
(-0.0612837 0.0334637 -2.28979e-23)
(-0.0662161 0.0326395 -1.58143e-23)
(-0.0709622 0.0316486 4.27095e-20)
(-0.0754889 0.0305204 -5.03987e-23)
(-0.0797667 0.0292821 4.72322e-23)
(-0.0837692 0.0279598 -2.38122e-20)
(-0.0874742 0.0265799 -3.0897e-23)
(-0.090864 0.025171 4.22245e-20)
(-0.0939267 0.0237654 -5.95886e-20)
(-0.0966583 0.0224003 1.86333e-20)
(-0.099065 0.0211183 0)
(-0.101167 0.0199665 0)
(-0.103006 0.0189919 -3.07803e-20)
(-0.104642 0.0182323 2.88984e-20)
(-0.106094 0.0177165 -2.70216e-20)
(-0.107461 0.0174874 0)
(-0.000846286 0.00409097 -1.49032e-20)
(-0.00283497 0.0111437 0)
(-0.00556104 0.0172357 1.46738e-20)
(-0.00883965 0.0224438 8.43344e-20)
(-0.0125717 0.0268282 -2.68139e-20)
(-0.0166914 0.030445 0)
(-0.0211287 0.0333529 -6.23236e-23)
(-0.0258137 0.0356113 2.32269e-20)
(-0.0306804 0.0372797 -2.20552e-20)
(-0.0356667 0.0384167 0)
(-0.0407141 0.03908 0)
(-0.0457682 0.0393248 -3.77524e-20)
(-0.0507784 0.0392035 5.35465e-20)
(-0.0556983 0.0387651 -1.68918e-20)
(-0.0604848 0.0380545 0)
(-0.0650985 0.0371125 3.0217e-20)
(-0.0695031 0.0359757 -2.84588e-20)
(-0.0736649 0.0346774 2.69023e-20)
(-0.0775532 0.0332483 -5.06882e-20)
(-0.0811398 0.0317182 -7.17044e-20)
(-0.0843993 0.0301173 2.24706e-20)
(-0.0873102 0.0284788 2.11647e-20)
(-0.0898558 0.0268405 1.98586e-20)
(-0.0920265 0.0252475 0)
(-0.0938228 0.0237526 -3.51135e-20)
(-0.0952598 0.0224164 0)
(-0.0963788 0.021303 0)
(-0.0972443 0.020468 -5.78454e-20)
(-0.0978605 0.0199607 -1.6301e-23)
(-0.0983323 0.0198473 -7.62428e-20)
(-0.00103572 0.00452659 1.49032e-20)
(-0.00332621 0.0123424 3.08399e-20)
(-0.0062648 0.0191058 2.95281e-20)
(-0.00968127 0.0248985 -2.81436e-20)
(-0.0134849 0.0297843 0)
(-0.0176157 0.0338232 0)
(-0.022009 0.0370779 2.44238e-20)
(-0.0266002 0.0396126 -2.32866e-20)
(-0.0313278 0.0414914 -4.32038e-23)
(-0.0361336 0.0427782 4.20794e-20)
(-0.0409628 0.0435357 0)
(-0.0457638 0.0438243 3.77523e-20)
(-0.0504889 0.0437014 0)
(-0.0550934 0.043221 0)
(-0.0595358 0.0424323 2.19099e-23)
(-0.0637775 0.0413804 3.02517e-20)
(-0.0677825 0.0401058 -2.85892e-20)
(-0.0715166 0.038645 5.39346e-20)
(-0.0749479 0.0370319 -2.54254e-20)
(-0.0780457 0.0352991 7.17652e-20)
(-0.0807816 0.03348 0)
(-0.0831294 0.0316114 0)
(-0.0850667 0.029736 3.98966e-20)
(-0.0865775 0.0279061 0)
(-0.0876549 0.0261848 3.50847e-20)
(-0.0883071 0.0246478 -3.29671e-20)
(-0.088573 0.023379 3.09172e-20)
(-0.0885233 0.0224582 -2.89923e-20)
(-0.0881455 0.0219631 5.42429e-20)
(-0.0875339 0.021993 7.63361e-20)
(-0.00124144 0.00492646 0)
(-0.00386076 0.0134469 -3.08399e-20)
(-0.00703209 0.0208346 1.02516e-22)
(-0.0106003 0.0271743 0)
(-0.0144832 0.0325322 -5.40615e-20)
(-0.0186265 0.0369709 -3.42044e-23)
(-0.0229713 0.0405563 2.45121e-20)
(-0.0274581 0.0433562 0)
(-0.03203 0.0454389 2.2155e-20)
(-0.036633 0.0468726 -4.20793e-20)
(-0.041216 0.0477245 0)
(-0.0457306 0.0480597 0)
(-0.0501315 0.0479402 -3.59023e-20)
(-0.0543763 0.0474243 3.39418e-20)
(-0.0584251 0.0465654 -3.20711e-20)
(-0.0622403 0.0454123 0)
(-0.0657858 0.0440088 -2.8694e-20)
(-0.0690272 0.0423944 -8.10239e-20)
(-0.0719309 0.0406055 -2.15416e-23)
(-0.0744641 0.0386769 -1.86842e-23)
(-0.0765946 0.036644 2.25757e-20)
(-0.0782913 0.0345462 4.24978e-20)
(-0.0795256 0.0324302 -7.98213e-20)
(-0.0802733 0.0303543 3.7548e-20)
(-0.0805189 0.0283917 -3.5269e-23)
(-0.0802614 0.026634 -4.16317e-24)
(-0.0795349 0.0251884 -3.17583e-24)
(-0.078418 0.0241655 2.90146e-20)
(-0.0768805 0.0236817 0)
(-0.0749723 0.0238819 0)
(-0.00146065 0.00528834 3.01245e-20)
(-0.00443165 0.0144507 1.02462e-22)
(-0.00785321 0.0224118 1.09664e-22)
(-0.0115854 0.0292575 -5.68202e-20)
(-0.0155544 0.0350549 5.41131e-20)
(-0.0197116 0.0398681 0)
(-0.0240033 0.0437653 0)
(-0.0283754 0.0468171 4.68413e-20)
(-0.0327754 0.0490951 -4.44783e-20)
(-0.0371537 0.0506711 4.47917e-23)
(-0.0414626 0.0516164 8.02087e-20)
(-0.045657 0.052 3.80083e-20)
(-0.0496944 0.0518882 -7.19563e-20)
(-0.0535345 0.051343 3.40283e-20)
(-0.0571388 0.0504218 3.2201e-20)
(-0.0604707 0.0491766 -3.03947e-20)
(-0.0634944 0.0476542 5.73462e-20)
(-0.0661749 0.0458964 8.13131e-20)
(-0.068477 0.0439416 5.11309e-20)
(-0.0703653 0.0418257 2.40701e-20)
(-0.071804 0.0395857 -4.52484e-20)
(-0.0727564 0.0372622 0)
(-0.0731868 0.0349042 3.37219e-23)
(-0.0730625 0.0325746 3.76495e-20)
(-0.0723573 0.0303557 3.5275e-20)
(-0.0710586 0.0283549 -6.62235e-20)
(-0.069192 0.0267056 -3.10137e-20)
(-0.0668465 0.0255582 5.81509e-20)
(-0.063981 0.025078 0)
(-0.0605236 0.025464 -5.09901e-20)
(-0.00169051 0.00561067 3.02128e-20)
(-0.00503174 0.0153491 -6.22316e-20)
(-0.00871823 0.0238297 2.92407e-23)
(-0.0126249 0.031137 -1.06892e-22)
(-0.0166859 0.0373381 0)
(-0.0208577 0.0424976 0)
(-0.0250919 0.046685 0)
(-0.029339 0.0499727 -4.69881e-20)
(-0.0335512 0.052435 4.46176e-20)
(-0.0376828 0.0541469 -4.23172e-20)
(-0.0416896 0.0551827 -8.0357e-20)
(-0.0455299 0.0556153 -2.95754e-23)
(-0.0491635 0.0555144 7.21863e-20)
(-0.0525524 0.0549457 3.4178e-20)
(-0.0556596 0.0539699 0)
(-0.0584492 0.0526419 -6.10426e-20)
(-0.0608855 0.0510111 8.6406e-20)
(-0.0629328 0.0491213 -8.13535e-20)
(-0.0645543 0.0470121 -5.11505e-20)
(-0.0657119 0.0447202 -1.44635e-19)
(-0.0663655 0.0422826 -2.59906e-23)
(-0.066473 0.03974 -1.92158e-23)
(-0.0659911 0.037142 3.21602e-23)
(-0.0648772 0.0345542 -7.52743e-20)
(-0.0630934 0.0320656 1.06069e-19)
(-0.0606127 0.0297986 -1.03518e-22)
(-0.0574469 0.0279155 0)
(-0.0536989 0.0266158 -5.81498e-20)
(-0.0493476 0.0261269 5.44904e-20)
(-0.044033 0.0266913 5.12447e-20)
(-0.00192824 0.00589259 0)
(-0.00565393 0.0161394 -3.12875e-20)
(-0.0096172 0.0250827 2.98911e-20)
(-0.013707 0.0328047 5.71372e-20)
(-0.0178648 0.0393709 2.73298e-20)
(-0.0220514 0.0448455 -5.19976e-20)
(-0.0262231 0.0492983 -6.94062e-23)
(-0.0303349 0.0528032 -4.71055e-20)
(-0.0343433 0.0554363 0)
(-0.0382059 0.0572749 4.25793e-20)
(-0.0418823 0.0583964 0)
(-0.0453336 0.0588767 0)
(-0.0485221 0.0587887 -7.23517e-20)
(-0.0514115 0.0582012 -6.84132e-20)
(-0.0539664 0.0571778 9.71281e-20)
(-0.0561512 0.0557764 6.10421e-20)
(-0.0579305 0.0540482 9.0031e-23)
(-0.0592672 0.0520388 -5.43918e-20)
(-0.0601229 0.0497885 1.02525e-19)
(-0.0604564 0.0473343 1.82543e-24)
(-0.0602232 0.0447121 9.09484e-20)
(-0.0593755 0.0419614 0)
(-0.0578618 0.0391306 0)
(-0.055629 0.036285 7.55123e-20)
(-0.0526261 0.0335176 -1.06122e-19)
(-0.0488093 0.0309632 9.95172e-20)
(-0.0441683 0.0288142 -6.22252e-20)
(-0.0388181 0.0273248 5.82724e-20)
(-0.0328474 0.0268004 -1.09039e-19)
(-0.0253526 0.0275978 5.13468e-20)
(-0.00217114 0.00613391 -3.05553e-20)
(-0.00629134 0.01682 0)
(-0.0105404 0.0261678 0)
(-0.01482 0.0342552 -5.75238e-20)
(-0.0190779 0.0411451 1.09698e-19)
(-0.0232786 0.0469005 -5.21949e-20)
(-0.0273824 0.0515912 -1.0528e-22)
(-0.0313482 0.0552915 4.72713e-20)
(-0.035136 0.0580789 0)
(-0.038707 0.0600327 7.93185e-23)
(-0.0420237 0.0612326 2.20489e-23)
(-0.0450497 0.0617572 -7.66396e-20)
(-0.0477498 0.0616821 -1.65386e-22)
(-0.0500891 0.0610791 -3.43265e-20)
(-0.0520332 0.0600145 -9.73183e-20)
(-0.053547 0.0585483 6.12904e-20)
(-0.0545941 0.056734 -5.78089e-20)
(-0.0551366 0.0546183 1.09154e-19)
(-0.0551334 0.052242 -1.02837e-19)
(-0.05454 0.0496416 -9.68063e-20)
(-0.0533073 0.0468518 5.48323e-23)
(-0.0513812 0.0439092 -4.28261e-20)
(-0.0487018 0.0408591 4.02473e-20)
(-0.0452051 0.0377638 1.22287e-22)
(-0.0408258 0.0347159 -1.0641e-19)
(-0.035501 0.0318581 -6.65047e-20)
(-0.0291911 0.0294083 1.2451e-19)
(-0.0219954 0.0276573 -1.16582e-19)
(-0.0141803 0.0269556 5.45484e-20)
(-0.00438343 0.0283957 3.05763e-23)
(-0.00241673 0.00633515 9.18343e-20)
(-0.00693748 0.0173917 -3.15114e-20)
(-0.0114784 0.0270844 -6.03691e-20)
(-0.0159524 0.0354859 1.72902e-19)
(-0.0203122 0.0426557 2.22456e-22)
(-0.0245252 0.048655 0)
(-0.0285546 0.0535528 0)
(-0.0323626 0.0574236 4.74665e-20)
(-0.0359122 0.0603458 -4.50026e-20)
(-0.0391675 0.0624002 4.27772e-20)
(-0.0420937 0.0636685 -4.05779e-20)
(-0.0446565 0.0642314 -7.70007e-20)
(-0.0468223 0.0641674 1.4542e-19)
(-0.0485577 0.0635505 -3.44019e-20)
(-0.0498285 0.0624495 6.48885e-20)
(-0.0505994 0.0609266 -1.22847e-19)
(-0.0508332 0.059037 -3.06507e-23)
(-0.0504896 0.0568287 4.73467e-23)
(-0.0495248 0.0543429 1.02975e-19)
(-0.0478903 0.0516154 -3.91039e-23)
(-0.0455317 0.0486787 0)
(-0.042388 0.0455663 0)
(-0.0383909 0.0423184 -4.03874e-20)
(-0.0334649 0.0389914 -1.51331e-19)
(-0.0275302 0.0356731 1.06463e-19)
(-0.0205046 0.0325076 -7.48162e-23)
(-0.0123311 0.0297264 -1.2462e-19)
(-0.0031032 0.0276461 1.16593e-19)
(0.00708656 0.0267854 -5.45838e-20)
(0.0193571 0.0288761 5.08865e-20)
(-0.00266279 0.00649745 0)
(-0.0075864 0.0178562 0)
(-0.0124224 0.0278341 6.07426e-20)
(-0.0170932 0.036497 -1.15675e-19)
(-0.0215549 0.0439007 9.23605e-23)
(-0.0257766 0.0501043 -5.2639e-20)
(-0.0297236 0.0551755 1.50371e-19)
(-0.0333605 0.0591888 -1.42972e-19)
(-0.0366527 0.062223 -2.71814e-24)
(-0.0395665 0.0643602 -4.29227e-20)
(-0.042069 0.0656838 -1.2223e-19)
(-0.0441278 0.0662767 1.15529e-19)
(-0.0457103 0.0662192 0)
(-0.0467835 0.0655879 0)
(-0.0473134 0.0644537 6.5124e-20)
(-0.0472634 0.062881 1.23231e-19)
(-0.0465945 0.0609266 -5.80867e-20)
(-0.0452636 0.0586397 0)
(-0.043223 0.0560619 -5.16253e-20)
(-0.0404192 0.0532284 -1.49731e-23)
(-0.0367917 0.0501698 -4.58101e-20)
(-0.0322719 0.0469156 0)
(-0.0267822 0.0435002 -4.05021e-20)
(-0.0202358 0.0399718 3.79108e-20)
(-0.0125379 0.0364091 -7.1059e-20)
(-0.00358618 0.0329503 1.99789e-19)
(0.00669621 0.0298328 -6.62408e-23)
(0.0182247 0.0274163 5.8339e-20)
(0.0310442 0.0264174 0)
(0.0463314 0.0288176 -5.13756e-20)
(-0.0029074 0.00662253 -6.1888e-20)
(-0.0082328 0.0182173 6.36227e-20)
(-0.0133646 0.0284206 1.583e-22)
(-0.018232 0.0372913 -5.812e-20)
(-0.0227934 0.0448811 0)
(-0.027018 0.0512468 -1.05796e-19)
(-0.0308725 0.0564549 8.93005e-23)
(-0.0343228 0.0605794 4.76298e-20)
(-0.0373359 0.0636997 2.31278e-24)
(-0.0398796 0.0658988 -3.59666e-24)
(-0.0419222 0.0672617 1.22352e-19)
(-0.0434322 0.0678729 3.86681e-20)
(-0.0443777 0.067815 3.66934e-20)
(-0.0447254 0.0671665 -6.91968e-20)
(-0.04444 0.0660005 6.53655e-20)
(-0.0434832 0.0643834 -6.16453e-20)
(-0.0418129 0.0623738 5.82351e-20)
(-0.0393821 0.0600221 -5.48873e-20)
(-0.0361377 0.0573707 0)
(-0.0320201 0.0544544 -4.8766e-20)
(-0.0269612 0.0513023 9.15311e-20)
(-0.0208838 0.0479404 4.31168e-20)
(-0.0137001 0.0443967 -4.05424e-20)
(-0.00531143 0.0407102 1.51849e-19)
(0.00439197 0.0369469 -3.56008e-20)
(0.0155324 0.0332312 6.66865e-20)
(0.0282121 0.0297942 -6.23258e-20)
(0.0423576 0.0270224 5.89538e-23)
(0.0580861 0.02579 0)
(0.0769176 0.0284952 -1.01374e-19)
(-0.00314901 0.00671264 -1.23829e-22)
(-0.0088721 0.0184796 -6.39332e-20)
(-0.0142974 0.0288494 0)
(-0.0193588 0.0378739 -5.85331e-20)
(-0.0240149 0.0456006 5.57048e-20)
(-0.0282342 0.0520841 -1.01864e-22)
(-0.0319831 0.0573898 0)
(-0.0352282 0.0615913 -8.88187e-23)
(-0.037937 0.0647685 -4.5477e-20)
(-0.0400781 0.0670055 4.32207e-20)
(-0.0416202 0.0683884 0)
(-0.042532 0.0690037 -7.75608e-20)
(-0.042781 0.0689357 7.35899e-20)
(-0.0423328 0.068265 0)
(-0.0411498 0.0670667 0)
(-0.0391907 0.0654092 0)
(-0.0364088 0.0633529 0)
(-0.0327518 0.0609499 5.50048e-20)
(-0.0281597 0.0582437 -5.18064e-20)
(-0.0225647 0.0552695 1.46225e-19)
(-0.0158897 0.0520555 -9.17421e-20)
(-0.00804705 0.0486251 -8.61612e-20)
(0.00106246 0.045001 1.21431e-19)
(0.0115502 0.0412129 7.41852e-23)
(0.0235403 0.0373118 -7.12565e-20)
(0.0371736 0.0334021 -6.66847e-20)
(0.0525804 0.0296939 -6.23983e-20)
(0.0696987 0.0265706 1.16614e-19)
(0.0886633 0.0250157 -1.08773e-19)
(0.111614 0.0280637 2.02424e-19)
(-0.00338645 0.00677042 1.24944e-19)
(-0.00950051 0.018649 -1.39524e-22)
(-0.0152144 0.0291279 -1.23024e-19)
(-0.0204642 0.038252 1.17335e-19)
(-0.025207 0.0460653 -5.60661e-20)
(-0.0294089 0.0526204 -5.32787e-20)
(-0.0330355 0.057982 5.06888e-20)
(-0.0360526 0.0622236 4.81619e-20)
(-0.0384276 0.0654257 -9.15414e-20)
(-0.0401285 0.0676735 -1.30237e-19)
(-0.0411239 0.0690546 -4.10686e-20)
(-0.0413814 0.069657 1.5559e-19)
(-0.040867 0.0695668 -2.20655e-19)
(-0.0395438 0.0688667 6.95573e-20)
(-0.0373709 0.0676338 0)
(-0.0343021 0.0659385 0)
(-0.0302849 0.0638433 0)
(-0.0252594 0.0614024 1.10243e-19)
(-0.0191569 0.0586608 -5.18945e-20)
(-0.0118995 0.055655 -4.89047e-20)
(-0.00339846 0.0524136 -9.18622e-20)
(0.00644602 0.0489589 8.6327e-20)
(0.0177463 0.04531 -4.05424e-20)
(0.0306273 0.0414887 -7.60868e-20)
(0.0452269 0.0375317 -6.82995e-23)
(0.0617018 0.0335195 -1.3338e-19)
(0.0802093 0.0296292 1.87179e-19)
(0.100699 0.0262071 -1.74988e-19)
(0.123255 0.0242748 5.46672e-20)
(0.150979 0.0276817 -5.03659e-20)
(-0.00361891 0.00679882 -6.263e-20)
(-0.010115 0.0187321 6.44383e-20)
(-0.0161099 0.0292645 6.15953e-20)
(-0.021539 0.0384345 -1.76817e-19)
(-0.0263565 0.0462833 5.60667e-20)
(-0.030525 0.0528625 5.35104e-20)
(-0.0340077 0.0582364 0)
(-0.0367688 0.0624789 0)
(-0.0387743 0.0656715 4.58092e-20)
(-0.0399911 0.0679006 8.68784e-20)
(-0.0403861 0.0692554 -1.64984e-19)
(-0.0399249 0.0698256 -9.12042e-23)
(-0.0385707 0.0696992 0)
(-0.0362829 0.0689608 0)
(-0.0330153 0.0676896 -6.58201e-20)
(-0.0287154 0.0659583 2.04482e-23)
(-0.0233228 0.0638318 5.85785e-20)
(-0.0167678 0.0613664 -5.51435e-20)
(-0.0089708 0.0586099 -1.03999e-19)
(0.000158816 0.0556008 9.77391e-20)
(0.0107233 0.0523696 4.5972e-20)
(0.0228373 0.0489394 -1.29653e-19)
(0.0366278 0.0453281 -8.10856e-20)
(0.0522343 0.0415529 7.61632e-20)
(0.0698076 0.0376389 7.13551e-20)
(0.0895158 0.0336431 6.67305e-20)
(0.111539 0.0297027 0)
(0.135841 0.026097 0)
(0.16235 0.0237787 1.08454e-19)
(0.195575 0.0275672 0)
(-0.00384596 0.00680097 6.32804e-20)
(-0.010713 0.0187362 -6.49317e-20)
(-0.0169783 0.0292684 1.24232e-19)
(-0.0225741 0.0384314 -2.81838e-22)
(-0.0274498 0.0462647 0)
(-0.0315635 0.0528194 0)
(-0.0348746 0.0581605 0)
(-0.0373449 0.062363 -4.85258e-20)
(-0.038938 0.0655098 4.60775e-20)
(-0.0396183 0.0676888 0)
(-0.0393501 0.0689911 8.25679e-20)
(-0.0380956 0.0695082 7.82786e-20)
(-0.0358137 0.0693302 -7.4018e-20)
(-0.0324583 0.0685437 6.99127e-20)
(-0.0279764 0.0672302 -8.66911e-23)
(-0.0223069 0.0654648 -6.22524e-20)
(-0.0153793 0.0633151 -5.8711e-20)
(-0.00711197 0.0608404 1.6586e-19)
(0.00258821 0.0580914 5.19545e-20)
(0.0138269 0.0551104 -9.79403e-20)
(0.0267225 0.0519308 -4.60059e-20)
(0.0414061 0.0485789 4.32003e-20)
(0.058021 0.0450745 0)
(0.0767213 0.0414339 -7.61124e-20)
(0.097669 0.0376757 -7.12955e-20)
(0.121038 0.0338376 0)
(0.147021 0.0300181 6.22138e-20)
(0.175605 0.0264119 -1.16525e-19)
(0.206409 0.0237589 -1.62781e-19)
(0.245902 0.0279919 0)
(-0.00406746 0.00678002 -1.26727e-19)
(-0.0112928 0.0186684 6.54252e-20)
(-0.0178147 0.0291495 -1.2471e-19)
(-0.0235601 0.0382539 -2.89659e-22)
(-0.0284721 0.0460206 0)
(-0.0325029 0.0525021 0)
(-0.0356077 0.0577646 5.14292e-20)
(-0.0377443 0.0618852 9.76668e-20)
(-0.0388728 0.0649485 0)
(-0.0389541 0.067045 0)
(-0.0379485 0.0682676 -1.66006e-19)
(-0.0358133 0.0687102 7.859e-20)
(-0.0325015 0.0684649 -1.3677e-22)
(-0.0279595 0.0676207 0)
(-0.0221256 0.0662616 -3.93769e-23)
(-0.0149278 0.0644655 6.23705e-20)
(-0.00628298 0.062303 -1.45957e-22)
(0.00390462 0.059837 -2.21376e-19)
(0.0157442 0.0571222 -5.21014e-20)
(0.0293588 0.0542052 9.79381e-20)
(0.0448846 0.0511247 9.20556e-20)
(0.0624707 0.0479117 -5.37577e-23)
(0.0822766 0.044591 8.11702e-20)
(0.10447 0.0411822 1.52206e-19)
(0.129219 0.0377031 7.12929e-20)
(0.156696 0.0341802 6.66494e-20)
(0.18709 0.0306802 6.2135e-20)
(0.220432 0.0273209 1.15945e-19)
(0.255816 0.0244499 -6.72166e-22)
(0.302325 0.0292621 4.88494e-20)
(-0.00428351 0.006739 1.27759e-19)
(-0.0118526 0.018536 -1.96783e-19)
(-0.0186137 0.0289175 1.25346e-19)
(-0.0244864 0.037913 1.19594e-19)
(-0.0294064 0.0455633 5.6957e-20)
(-0.033319 0.051923 -4.43193e-23)
(-0.0361737 0.0570611 -5.13402e-20)
(-0.0379237 0.0610575 -9.76665e-20)
(-0.0385244 0.0639999 2.38128e-22)
(-0.037932 0.0659813 1.75855e-19)
(-0.0361011 0.0670973 -8.35455e-20)
(-0.0329826 0.0674444 1.57456e-19)
(-0.0285215 0.0671172 -1.00423e-22)
(-0.022655 0.0662075 -1.40414e-19)
(-0.0153099 0.0648019 -1.99559e-23)
(-0.00640147 0.0629816 0)
(0.00416861 0.0608209 2.94137e-19)
(0.0165128 0.0583869 5.53075e-20)
(0.0307584 0.0557391 0)
(0.0470473 0.0529299 4.89945e-20)
(0.0655346 0.0500042 -4.60841e-20)
(0.0863868 0.0470003 1.72952e-19)
(0.109778 0.0439499 -2.43483e-19)
(0.135883 0.0408798 7.61064e-20)
(0.164874 0.0378125 0)
(0.196903 0.0347712 6.65019e-20)
(0.232133 0.0318027 -1.24282e-19)
(0.270666 0.0289864 1.15782e-19)
(0.310816 0.0260706 -1.07829e-19)
(0.364973 0.0316887 -9.90192e-20)
(-0.00449429 0.0066807 -1.2828e-19)
(-0.0123908 0.0183454 -3.59631e-22)
(-0.0193696 0.0285816 -6.28348e-20)
(-0.0253415 0.0374201 -5.99466e-20)
(-0.0302335 0.0449051 -1.14628e-19)
(-0.0339833 0.0510954 5.45014e-20)
(-0.036534 0.0560642 7.84501e-23)
(-0.0378328 0.0598953 -9.8264e-20)
(-0.0378295 0.0626801 -1.39458e-19)
(-0.036474 0.064515 1.48133e-22)
(-0.0337136 0.0654991 8.32922e-20)
(-0.029491 0.0657318 -1.57668e-19)
(-0.0237414 0.0653109 7.46118e-20)
(-0.01639 0.0643311 7.04353e-20)
(-0.00735037 0.0628826 -1.45168e-23)
(0.00347804 0.0610502 6.25892e-20)
(0.0162106 0.0589125 -1.17741e-19)
(0.0309786 0.0565417 0)
(0.0479288 0.0540032 -1.0435e-19)
(0.0672224 0.0513561 9.80838e-20)
(0.0890325 0.0486531 -9.21323e-20)
(0.11354 0.0459407 -8.64976e-20)
(0.140928 0.0432602 0)
(0.171371 0.0406474 -2.27983e-19)
(0.205029 0.0381336 1.3417e-22)
(0.24202 0.0357451 -3.32476e-19)
(0.282443 0.0335173 1.86504e-19)
(0.326502 0.0315635 -2.31245e-19)
(0.371462 0.0288115 1.07823e-19)
(0.433639 0.0355542 -9.76939e-20)
(-0.00469998 0.00660746 6.43186e-20)
(-0.0129052 0.0181024 6.61322e-20)
(-0.0200755 0.0281501 6.35187e-20)
(-0.0261115 0.0367854 -1.90524e-22)
(-0.0309308 0.0440584 -1.70183e-22)
(-0.0344628 0.0500337 0)
(-0.0366434 0.05479 0)
(-0.037413 0.0584164 0)
(-0.0367143 0.0610091 0)
(-0.0344892 0.0626689 0)
(-0.0306765 0.0634989 8.36219e-20)
(-0.0252083 0.0636021 -7.90712e-20)
(-0.0180077 0.0630801 7.48139e-20)
(-0.00898598 0.0620313 1.09699e-23)
(0.0019594 0.06055 -6.64243e-20)
(0.0149466 0.0587254 1.20379e-23)
(0.0301102 0.0566414 -1.18017e-19)
(0.0476013 0.0543761 1.11033e-19)
(0.0675863 0.0520017 1.04347e-19)
(0.0902444 0.049585 -9.80026e-20)
(0.115763 0.0471874 1.84328e-19)
(0.144331 0.0448652 0)
(0.17613 0.0426694 -1.62034e-19)
(0.21132 0.0406464 2.67639e-22)
(0.250027 0.0388371 3.26307e-22)
(0.292315 0.037274 5.18503e-22)
(0.338169 0.0359814 -6.16527e-20)
(0.387906 0.0352002 1.15463e-19)
(0.43756 0.0328285 1.07283e-19)
(0.507683 0.0410776 5.1092e-20)
(-0.00490054 0.00652113 0)
(-0.013393 0.0178116 6.66856e-20)
(-0.0207228 0.02763 -6.33437e-20)
(-0.0267797 0.0360186 -1.31879e-22)
(-0.0314716 0.0430352 1.1568e-19)
(-0.034719 0.0487522 -5.50488e-20)
(-0.0364498 0.0532556 0)
(-0.0365965 0.0566412 0)
(-0.0350935 0.059011 -9.37995e-20)
(-0.0318733 0.0604712 8.89836e-20)
(-0.026864 0.0611296 8.41791e-20)
(-0.0199852 0.0610939 0)
(-0.0111456 0.0604702 7.50261e-20)
(-0.000240171 0.0593612 0)
(0.0128518 0.0578664 -1.33068e-19)
(0.0282679 0.0560802 1.88139e-19)
(0.0461628 0.0540927 1.77059e-19)
(0.0667075 0.0519889 -5.55435e-20)
(0.090086 0.0498487 -9.52086e-23)
(0.116491 0.0477475 -1.47194e-19)
(0.146118 0.045756 0)
(0.17915 0.0439402 0)
(0.215753 0.042361 8.10406e-20)
(0.25605 0.0410737 1.51655e-19)
(0.300107 0.0401278 -6.10495e-23)
(0.347896 0.0395605 1.32698e-19)
(0.39925 0.0393751 1.23756e-19)
(0.454545 0.0400267 0)
(0.508621 0.0382393 -1.07276e-19)
(0.585955 0.0483803 1.47235e-19)
(-0.0050956 0.00642288 6.54871e-20)
(-0.0138501 0.017476 0)
(-0.0213005 0.0270268 1.57773e-22)
(-0.0273261 0.0351276 -6.11173e-20)
(-0.0318244 0.0418463 5.83254e-20)
(-0.0347069 0.0472652 5.52383e-20)
(-0.0358928 0.0514794 -1.1405e-22)
(-0.0353057 0.0545924 4.9959e-20)
(-0.0328702 0.0567135 0)
(-0.0285081 0.0579553 -1.78489e-19)
(-0.0221344 0.0584314 2.6527e-22)
(-0.0136543 0.0582551 0)
(-0.00295988 0.0575376 7.5227e-20)
(0.0100722 0.0563876 -2.12566e-19)
(0.0255824 0.05491 6.68148e-20)
(0.0437287 0.0532061 -6.27444e-20)
(0.0646853 0.0513727 -1.18207e-19)
(0.0886408 0.0495027 -1.66846e-19)
(0.115792 0.0476845 0)
(0.146338 0.0460025 0)
(0.180467 0.0445363 9.20677e-20)
(0.218343 0.0433608 8.62548e-20)
(0.26009 0.0425446 -8.10302e-20)
(0.305764 0.0421493 0)
(0.355336 0.0422279 0)
(0.408648 0.0428165 0)
(0.465346 0.0438864 1.23074e-19)
(0.525721 0.0461319 -5.71248e-20)
(0.583838 0.0451203 1.07653e-19)
(0.66675 0.0574572 9.49837e-20)
(-0.00528421 0.00631321 -1.31178e-19)
(-0.0142709 0.0170974 6.75319e-20)
(-0.0217952 0.0263442 -6.46766e-20)
(-0.0277264 0.0341188 6.16457e-20)
(-0.0319522 0.0405015 -5.83253e-20)
(-0.0343746 0.0455869 5.55293e-20)
(-0.0349035 0.0494803 -5.28297e-20)
(-0.0334527 0.0522947 -9.97991e-20)
(-0.0299356 0.0541479 9.49307e-20)
(-0.0242613 0.05516 1.79155e-19)
(-0.0163302 0.0554515 8.44913e-20)
(-0.00603085 0.0551423 -8.001e-20)
(0.00676309 0.0543503 2.15437e-22)
(0.0221948 0.0531905 2.23399e-23)
(0.0404249 0.051775 6.69587e-20)
(0.0616311 0.0502124 0)
(0.0860049 0.0486077 1.18278e-19)
(0.113747 0.047062 2.78046e-19)
(0.145058 0.0456725 -5.23208e-20)
(0.18013 0.0445319 0)
(0.219126 0.0437275 -1.84103e-19)
(0.262167 0.0433405 -8.62705e-20)
(0.309303 0.0434432 -8.07053e-20)
(0.360488 0.0440975 7.57726e-20)
(0.415554 0.0453534 -7.05195e-20)
(0.474164 0.047234 6.61373e-20)
(0.535777 0.0496851 -3.92781e-22)
(0.600323 0.0535341 1.13846e-19)
(0.662046 0.0535302 -1.06514e-19)
(0.747743 0.0682 -1.91321e-19)
(-0.00546471 0.00619185 6.63853e-20)
(-0.0146473 0.0166756 6.79478e-20)
(-0.0221896 0.0255838 -2.38341e-22)
(-0.0279517 0.0329966 3.99423e-22)
(-0.031812 0.0390094 0)
(-0.0336629 0.0437306 -2.42608e-22)
(-0.0334043 0.0472776 -1.59524e-19)
(-0.0309394 0.0497745 0)
(-0.026169 0.0513486 -9.5325e-20)
(-0.0189878 0.0521287 -3.5981e-19)
(-0.00927985 0.0522438 8.51028e-20)
(0.00308452 0.0518212 -8.02905e-20)
(0.0182514 0.0509866 -1.50863e-19)
(0.036384 0.0498628 1.42568e-19)
(0.0576626 0.0485701 0)
(0.0822814 0.0472253 6.29235e-20)
(0.110443 0.0459419 -1.77936e-19)
(0.142352 0.0448297 -5.57002e-20)
(0.178199 0.0439937 -1.56948e-19)
(0.218149 0.0435333 0)
(0.262316 0.0435406 1.8405e-19)
(0.310744 0.0440978 8.62661e-20)
(0.363373 0.0452747 0)
(0.420013 0.0471246 7.54576e-20)
(0.480316 0.0496847 0)
(0.543716 0.0529506 -6.55605e-20)
(0.609501 0.0568799 -1.83462e-19)
(0.676893 0.0621502 -2.27273e-19)
(0.741722 0.063597 -1.05309e-19)
(0.825856 0.0804777 -3.41105e-21)
(-0.00563451 0.00605778 -6.63853e-20)
(-0.0149693 0.016209 2.94059e-22)
(-0.0224628 0.0247452 6.53697e-20)
(-0.027968 0.0317638 -6.20451e-20)
(-0.0313544 0.0373772 -5.91433e-20)
(-0.0325048 0.0417093 1.1214e-19)
(-0.0313089 0.0448914 5.34662e-20)
(-0.0276578 0.0470599 1.01246e-19)
(-0.0214389 0.048353 9.53813e-20)
(-0.012531 0.0489097 9.05436e-20)
(-0.000800317 0.0488683 1.70939e-19)
(0.0139021 0.0483652 -3.01844e-22)
(0.0317421 0.0475348 0)
(0.052902 0.046509 -7.12659e-20)
(0.0775783 0.0454169 -2.10144e-22)
(0.105976 0.0443844 1.25428e-22)
(0.1383 0.0435336 1.78031e-19)
(0.174742 0.0429817 0)
(0.215465 0.04284 1.04587e-19)
(0.26058 0.043211 0)
(0.31012 0.0441859 -1.08877e-23)
(0.364014 0.0458408 -8.6018e-20)
(0.422051 0.0482326 1.61285e-19)
(0.483854 0.0513947 -7.56859e-20)
(0.548857 0.055339 -1.40599e-19)
(0.616238 0.0600155 6.56629e-20)
(0.685136 0.0654509 2.44238e-19)
(0.753826 0.0717759 5.65269e-20)
(0.821124 0.0755775 2.61495e-19)
(0.897441 0.0937979 4.99376e-20)
(-0.00579 0.00590933 6.71193e-20)
(-0.0152236 0.0156945 -1.37719e-19)
(-0.0225896 0.0238266 0)
(-0.0277356 0.0304216 0)
(-0.0305233 0.0356109 5.95339e-20)
(-0.0308258 0.0395354 -2.66918e-22)
(-0.0285221 0.042342 -1.07025e-19)
(-0.0234909 0.0441806 -1.01435e-19)
(-0.0156046 0.0452017 4.06296e-22)
(-0.00472517 0.0455556 4.18546e-22)
(0.00929964 0.0453912 -8.54729e-20)
(0.026638 0.0448552 1.61159e-19)
(0.0474743 0.044092 -1.52118e-19)
(0.0720066 0.0432434 7.17415e-20)