/*--------------------------------*- C++ -*----------------------------------*\
  =========                 |
  \\      /  F ield         | OpenFOAM: The Open Source CFD Toolbox
   \\    /   O peration     | Website:  https://openfoam.org
    \\  /    A nd           | Version:  7
     \\/     M anipulation  |
\*---------------------------------------------------------------------------*/
FoamFile
{
    version     2.0;
    format      ascii;
    class       volScalarField;
    location    "30";
    object      p;
}
// * * * * * * * * * * * * * * * * * * * * * * * * * * * * * * * * * * * * * //

dimensions      [0 2 -2 0 0 0 0];

internalField   nonuniform List<scalar> 
928
(
-0.108824
-0.106435
-0.104103
-0.101826
-0.0996025
-0.108858
-0.106469
-0.104136
-0.101858
-0.0996339
-0.108927
-0.106536
-0.104202
-0.101922
-0.0996968
-0.10903
-0.106637
-0.1043
-0.102019
-0.0997909
-0.109167
-0.106771
-0.104431
-0.102147
-0.0999163
-0.109339
-0.106939
-0.104595
-0.102307
-0.100073
-0.109544
-0.107139
-0.104791
-0.102499
-0.10026
-0.109782
-0.107373
-0.10502
-0.102722
-0.100479
-0.110054
-0.107639
-0.10528
-0.102976
-0.100727
-0.110359
-0.107937
-0.105572
-0.103262
-0.101007
-0.110697
-0.108267
-0.105895
-0.103578
-0.101316
-0.0991071
-0.108629
-0.106249
-0.103924
-0.101655
-0.0994386
-0.109022
-0.106634
-0.104301
-0.102023
-0.099799
-0.109446
-0.107049
-0.104707
-0.10242
-0.100188
-0.109901
-0.107493
-0.105142
-0.102847
-0.100605
-0.110385
-0.107967
-0.105606
-0.103301
-0.101049
-0.110898
-0.10847
-0.106099
-0.103783
-0.101521
-0.099313
-0.109001
-0.106619
-0.104292
-0.10202
-0.0998013
-0.10956
-0.107166
-0.104828
-0.102545
-0.100316
-0.110146
-0.10774
-0.105391
-0.103096
-0.100855
-0.110758
-0.108341
-0.105979
-0.103673
-0.10142
-0.0992197
-0.108967
-0.106593
-0.104274
-0.102009
-0.0997969
-0.109617
-0.107231
-0.1049
-0.102622
-0.100397
-0.110293
-0.107893
-0.105549
-0.103259
-0.101021
-0.10858
-0.106222
-0.103919
-0.101669
-0.0994702
-0.109288
-0.106917
-0.1046
-0.102336
-0.100125
-0.110008
-0.107623
-0.105293
-0.103015
-0.100791
-0.108364
-0.106019
-0.103728
-0.101489
-0.0993015
-0.109229
-0.106869
-0.104562
-0.102307
-0.100104
-0.110039
-0.107666
-0.105346
-0.103078
-0.100862
-0.107804
-0.105478
-0.103204
-0.100981
-0.09881
-0.107773
-0.105475
-0.103227
-0.10103
-0.0988821
-0.107613
-0.105344
-0.103125
-0.100954
-0.0988303
-0.107419
-0.105181
-0.102991
-0.100848
-0.0987506
-0.107171
-0.104968
-0.10281
-0.100698
-0.0986308
-0.106863
-0.104698
-0.102577
-0.100499
-0.0984643
-0.106496
-0.104372
-0.10229
-0.10025
-0.09825
-0.106067
-0.103987
-0.101948
-0.0999476
-0.0979862
-0.105575
-0.103543
-0.101549
-0.0995917
-0.0976713
-0.105021
-0.103039
-0.101093
-0.0991816
-0.0973047
-0.104404
-0.102476
-0.10058
-0.0987172
-0.0968861
-0.103728
-0.101855
-0.100012
-0.0981993
-0.0964163
-0.102994
-0.101179
-0.0993903
-0.0976296
-0.0958966
-0.102206
-0.100449
-0.0987172
-0.0970103
-0.0953288
-0.101368
-0.0996705
-0.097996
-0.0963443
-0.0947155
-0.100483
-0.0988467
-0.0972306
-0.0956349
-0.0940598
-0.0995569
-0.0979822
-0.0964251
-0.094886
-0.0933653
-0.0985949
-0.0970817
-0.0955838
-0.0941017
-0.0926357
-0.0976018
-0.0961501
-0.0947114
-0.0932862
-0.0918751
-0.0965831
-0.0951924
-0.0938125
-0.0924441
-0.0910875
-0.0955439
-0.0942135
-0.0928918
-0.0915796
-0.0902773
-0.094489
-0.0932181
-0.0919539
-0.0906971
-0.0894484
-0.0934234
-0.0922108
-0.0910031
-0.0898009
-0.0886049
-0.0923515
-0.091196
-0.0900435
-0.0888949
-0.0877506
-0.0912776
-0.0901777
-0.0890792
-0.0879829
-0.0868893
-0.0902055
-0.0891598
-0.0881139
-0.0870685
-0.0860244
-0.0891389
-0.0881458
-0.087151
-0.0861552
-0.0851592
-0.0880811
-0.0871389
-0.0861936
-0.085246
-0.0842967
-0.0870351
-0.0861422
-0.0852448
-0.0843437
-0.0834398
-0.0860038
-0.0851583
-0.0843072
-0.0834512
-0.082591
-0.0849896
-0.0841898
-0.0833833
-0.0825707
-0.0817528
-0.0839948
-0.0832391
-0.0824754
-0.0817046
-0.0809275
-0.0830216
-0.082308
-0.0815855
-0.0808549
-0.080117
-0.0820719
-0.0813987
-0.0807156
-0.0800236
-0.0793232
-0.0811472
-0.0805127
-0.0798674
-0.0792123
-0.078548
-0.0802493
-0.0796516
-0.0790424
-0.0784226
-0.0777927
-0.0793795
-0.0788169
-0.0782422
-0.0776559
-0.077059
-0.078539
-0.0780099
-0.0774679
-0.0769137
-0.0763482
-0.077729
-0.0772317
-0.0767207
-0.0761971
-0.0756614
-0.0769506
-0.0764833
-0.0760019
-0.0755071
-0.0749997
-0.0762047
-0.0757658
-0.0753122
-0.0748448
-0.0743642
-0.075492
-0.0750799
-0.0746527
-0.0742111
-0.0737559
-0.0748135
-0.0744266
-0.0740241
-0.0736068
-0.0731754
-0.0741696
-0.0738064
-0.0734272
-0.0730327
-0.0726237
-0.0735611
-0.07322
-0.0728625
-0.0724894
-0.0721013
-0.0729885
-0.072668
-0.0723307
-0.0719775
-0.071609
-0.0724523
-0.0721508
-0.0718324
-0.0714976
-0.0711473
-0.0719528
-0.071669
-0.0713679
-0.0710502
-0.0707166
-0.0714906
-0.0712229
-0.0709377
-0.0706357
-0.0703175
-0.0710658
-0.0708129
-0.0705422
-0.0702545
-0.0699504
-0.0706788
-0.0704392
-0.0701817
-0.0699069
-0.0696156
-0.0703298
-0.0701022
-0.0698565
-0.0695933
-0.0693134
-0.0700191
-0.0698021
-0.0695668
-0.0693139
-0.0690441
-0.0697469
-0.0695391
-0.0693129
-0.069069
-0.068808
-0.0695133
-0.0693133
-0.0690949
-0.0688587
-0.0686052
-0.0693184
-0.069125
-0.068913
-0.0686832
-0.068436
-0.0691623
-0.0689742
-0.0687674
-0.0685426
-0.0683004
-0.0690452
-0.068861
-0.0686581
-0.0684371
-0.0681987
-0.0689671
-0.0687855
-0.0685851
-0.0683667
-0.0681308
-0.0689281
-0.0687478
-0.0685487
-0.0683315
-0.0680969
-0.0912502
-0.0901295
-0.0890193
-0.0879228
-0.0868427
-0.0857816
-0.0847419
-0.0837255
-0.0827344
-0.0817703
-0.0808347
-0.079929
-0.0790544
-0.0782121
-0.077403
-0.0766281
-0.0758882
-0.075184
-0.0745161
-0.0738852
-0.0732917
-0.072736
-0.0722187
-0.07174
-0.0713002
-0.0708997
-0.0705386
-0.0702172
-0.0699356
-0.069694
-0.0694925
-0.0693312
-0.0692101
-0.0691293
-0.069089
-0.107804
-0.107773
-0.107613
-0.107419
-0.107171
-0.106863
-0.106496
-0.106067
-0.105575
-0.105021
-0.104405
-0.103728
-0.102995
-0.102206
-0.101368
-0.100483
-0.0995569
-0.0985949
-0.0976018
-0.0965831
-0.0955439
-0.094489
-0.0934234
-0.0923515
-0.0912776
-0.0902055
-0.0891389
-0.0880811
-0.0870351
-0.0860038
-0.0849896
-0.0839948
-0.0830216
-0.0820719
-0.0811472
-0.0802493
-0.0793795
-0.078539
-0.077729
-0.0769506
-0.0762047
-0.075492
-0.0748134
-0.0741696
-0.0735611
-0.0729885
-0.0724523
-0.0719528
-0.0714905
-0.0710658
-0.0706788
-0.0703298
-0.0700191
-0.0697469
-0.0695132
-0.0693184
-0.0691623
-0.0690452
-0.0689671
-0.0689281
-0.105478
-0.105475
-0.105344
-0.105181
-0.104968
-0.104698
-0.104372
-0.103987
-0.103543
-0.103039
-0.102476
-0.101855
-0.101179
-0.100449
-0.0996706
-0.0988467
-0.0979822
-0.0970816
-0.0961501
-0.0951924
-0.0942135
-0.0932181
-0.0922108
-0.091196
-0.0901777
-0.0891598
-0.0881458
-0.0871389
-0.0861421
-0.0851583
-0.0841898
-0.0832391
-0.082308
-0.0813987
-0.0805127
-0.0796516
-0.0788169
-0.0780099
-0.0772316
-0.0764833
-0.0757658
-0.0750799
-0.0744266
-0.0738064
-0.07322
-0.072668
-0.0721508
-0.071669
-0.0712229
-0.0708128
-0.0704392
-0.0701022
-0.0698021
-0.0695391
-0.0693133
-0.069125
-0.0689742
-0.068861
-0.0687855
-0.0687478
-0.103204
-0.103227
-0.103125
-0.102991
-0.10281
-0.102577
-0.10229
-0.101948
-0.101549
-0.101093
-0.10058
-0.100012
-0.0993903
-0.0987172
-0.097996
-0.0972306
-0.0964251
-0.0955838
-0.0947114
-0.0938125
-0.0928918
-0.0919539
-0.0910031
-0.0900435
-0.0890792
-0.0881139
-0.087151
-0.0861936
-0.0852448
-0.0843072
-0.0833833
-0.0824754
-0.0815855
-0.0807156
-0.0798674
-0.0790424
-0.0782421
-0.0774678
-0.0767207
-0.0760019
-0.0753122
-0.0746527
-0.0740241
-0.0734272
-0.0728625
-0.0723307
-0.0718324
-0.0713679
-0.0709377
-0.0705422
-0.0701817
-0.0698565
-0.0695668
-0.0693129
-0.0690949
-0.068913
-0.0687674
-0.0686581
-0.0685851
-0.0685487
-0.100981
-0.10103
-0.100954
-0.100848
-0.100698
-0.100499
-0.10025
-0.0999476
-0.0995918
-0.0991816
-0.0987172
-0.0981993
-0.0976296
-0.0970103
-0.0963443
-0.0956349
-0.094886
-0.0941017
-0.0932862
-0.0924441
-0.0915796
-0.0906971
-0.0898009
-0.0888948
-0.0879829
-0.0870685
-0.0861552
-0.085246
-0.0843437
-0.0834511
-0.0825707
-0.0817046
-0.0808549
-0.0800236
-0.0792122
-0.0784226
-0.0776559
-0.0769137
-0.076197
-0.0755071
-0.0748448
-0.0742111
-0.0736068
-0.0730327
-0.0724894
-0.0719775
-0.0714976
-0.0710502
-0.0706357
-0.0702545
-0.0699069
-0.0695933
-0.0693139
-0.0690689
-0.0688586
-0.0686831
-0.0685426
-0.0684371
-0.0683666
-0.0683315
-0.09881
-0.0988822
-0.0988303
-0.0987506
-0.0986308
-0.0984643
-0.0982501
-0.0979862
-0.0976713
-0.0973047
-0.0968862
-0.0964164
-0.0958966
-0.0953288
-0.0947155
-0.0940598
-0.0933653
-0.0926357
-0.0918751
-0.0910875
-0.0902773
-0.0894483
-0.0886048
-0.0877506
-0.0868893
-0.0860244
-0.0851592
-0.0842967
-0.0834397
-0.082591
-0.0817528
-0.0809275
-0.080117
-0.0793232
-0.0785479
-0.0777927
-0.077059
-0.0763482
-0.0756614
-0.0749997
-0.0743642
-0.0737559
-0.0731754
-0.0726237
-0.0721013
-0.071609
-0.110039
-0.107666
-0.105346
-0.103078
-0.100862
-0.109229
-0.106869
-0.104562
-0.102307
-0.100104
-0.108364
-0.106019
-0.103728
-0.101489
-0.0993016
-0.110008
-0.107623
-0.105293
-0.103015
-0.100791
-0.109288
-0.106917
-0.1046
-0.102336
-0.100125
-0.10858
-0.106222
-0.103919
-0.101669
-0.0994703
-0.110293
-0.107893
-0.105549
-0.103259
-0.101021
-0.109618
-0.107231
-0.1049
-0.102622
-0.100397
-0.108967
-0.106593
-0.104274
-0.102009
-0.0997969
-0.110758
-0.108341
-0.105979
-0.103673
-0.10142
-0.0992198
-0.110146
-0.10774
-0.105391
-0.103096
-0.100855
-0.10956
-0.107166
-0.104829
-0.102545
-0.100316
-0.109001
-0.106619
-0.104292
-0.10202
-0.0998014
-0.110898
-0.10847
-0.106099
-0.103783
-0.101521
-0.099313
-0.110385
-0.107967
-0.105606
-0.103301
-0.101049
-0.109901
-0.107493
-0.105142
-0.102847
-0.100605
-0.109446
-0.107049
-0.104707
-0.102421
-0.100188
-0.109023
-0.106634
-0.104301
-0.102023
-0.099799
-0.111067
-0.108629
-0.106249
-0.103925
-0.101655
-0.0994387
-0.110697
-0.108267
-0.105895
-0.103578
-0.101316
-0.0991071
-0.110359
-0.107937
-0.105572
-0.103262
-0.101007
-0.110054
-0.107639
-0.10528
-0.102976
-0.100727
-0.109782
-0.107373
-0.10502
-0.102722
-0.100479
-0.109544
-0.107139
-0.104791
-0.102499
-0.10026
-0.109339
-0.106939
-0.104595
-0.102307
-0.100073
-0.109167
-0.106771
-0.104431
-0.102147
-0.0999163
-0.10903
-0.106637
-0.1043
-0.102019
-0.0997909
-0.108927
-0.106536
-0.104202
-0.101922
-0.0996968
-0.108858
-0.106469
-0.104136
-0.101858
-0.0996339
-0.108824
-0.106435
-0.104103
-0.101826
-0.0996025
)
;

boundaryField
{
    inlet
    {
        type            zeroGradient;
    }
    outlet
    {
        type            fixedValue;
        value           nonuniform 0();
    }
    cylinder
    {
        type            zeroGradient;
    }
    top
    {
        type            symmetryPlane;
    }
    bottom
    {
        type            symmetryPlane;
    }
    defaultFaces
    {
        type            empty;
    }
    procBoundary28to27
    {
        type            processor;
        value           nonuniform List<scalar> 
193
(
-0.11127
-0.111305
-0.111375
-0.111481
-0.111621
-0.111796
-0.112006
-0.11225
-0.112528
-0.11284
-0.113185
-0.111067
-0.111067
-0.111469
-0.111901
-0.112365
-0.112859
-0.113383
-0.11144
-0.11144
-0.11201
-0.112608
-0.113232
-0.111397
-0.111397
-0.11206
-0.112749
-0.110993
-0.110993
-0.111714
-0.112448
-0.110763
-0.110763
-0.111644
-0.112467
-0.110185
-0.110185
-0.110124
-0.109933
-0.109706
-0.109421
-0.109073
-0.108662
-0.108186
-0.107644
-0.107037
-0.106366
-0.105631
-0.104838
-0.103988
-0.103087
-0.102139
-0.101149
-0.100123
-0.0990661
-0.0979842
-0.0968824
-0.0957661
-0.0946403
-0.0935095
-0.0923781
-0.0912502
-0.0901295
-0.0890193
-0.0879228
-0.0868427
-0.0857817
-0.0847419
-0.0837255
-0.0827344
-0.0817703
-0.0808347
-0.079929
-0.0790544
-0.0782121
-0.077403
-0.0766281
-0.0758882
-0.075184
-0.0745161
-0.0738852
-0.0732917
-0.072736
-0.0722187
-0.07174
-0.0713003
-0.0708997
-0.0705387
-0.0702172
-0.0699356
-0.069694
-0.0694925
-0.0693312
-0.0692101
-0.0691293
-0.069089
-0.0922931
-0.0911168
-0.0899528
-0.0888044
-0.0876743
-0.0865652
-0.0854794
-0.0844188
-0.0833855
-0.082381
-0.0814069
-0.0804646
-0.0795553
-0.07868
-0.0778397
-0.0770354
-0.0762677
-0.0755374
-0.0748451
-0.0741914
-0.0735766
-0.0730013
-0.0724658
-0.0719705
-0.0715156
-0.0711013
-0.070728
-0.0703957
-0.0701047
-0.069855
-0.0696467
-0.06948
-0.069355
-0.0692715
-0.0692299
-0.110185
-0.110185
-0.110124
-0.109933
-0.109706
-0.109421
-0.109073
-0.108662
-0.108186
-0.107644
-0.107037
-0.106366
-0.105632
-0.104838
-0.103988
-0.103087
-0.102139
-0.101149
-0.100123
-0.0990661
-0.0979842
-0.0968824
-0.0957661
-0.0946403
-0.0935095
-0.0923781
-0.0923781
-0.112467
-0.111644
-0.110763
-0.110763
-0.112448
-0.111714
-0.110993
-0.110993
-0.112749
-0.11206
-0.111397
-0.111397
-0.113233
-0.112608
-0.11201
-0.11144
-0.11144
-0.113383
-0.11286
-0.112365
-0.111902
-0.111469
-0.111469
-0.113563
-0.113185
-0.11284
-0.112528
-0.11225
-0.112006
-0.111796
-0.111621
-0.111481
-0.111375
-0.111305
-0.11127
)
;
    }
    procBoundary28to29
    {
        type            processor;
        value           nonuniform List<scalar> 
193
(
-0.0974319
-0.0974626
-0.097524
-0.0976161
-0.0977387
-0.0978917
-0.098075
-0.0982884
-0.0985317
-0.0988047
-0.0988047
-0.0969507
-0.0972749
-0.0976275
-0.0980079
-0.0984159
-0.098851
-0.098851
-0.0971567
-0.0976347
-0.0981382
-0.0986667
-0.0986667
-0.097071
-0.0976363
-0.0982247
-0.0988359
-0.0988359
-0.0973229
-0.0979641
-0.0986169
-0.0986169
-0.0971644
-0.097951
-0.0986965
-0.0986965
-0.0966884
-0.0967825
-0.096754
-0.0966991
-0.0966072
-0.0964715
-0.0962908
-0.0960632
-0.0957872
-0.095462
-0.0950872
-0.0946632
-0.0941911
-0.0936725
-0.0931098
-0.0925056
-0.0918632
-0.0911862
-0.0904783
-0.0897433
-0.0889853
-0.0882081
-0.0874156
-0.0866114
-0.0857991
-0.0849821
-0.0841636
-0.0833465
-0.0825336
-0.0817274
-0.0809304
-0.0801447
-0.0793724
-0.0786153
-0.0778753
-0.0771537
-0.0764522
-0.075772
-0.0751144
-0.0744804
-0.0738712
-0.0732877
-0.0727306
-0.0722008
-0.0716991
-0.0712259
-0.070782
-0.0703679
-0.0699839
-0.0696306
-0.0693083
-0.0690173
-0.068758
-0.0685306
-0.0683352
-0.0681722
-0.0680416
-0.0679435
-0.067878
-0.0678454
-0.0711473
-0.0707166
-0.0703175
-0.0699504
-0.0696156
-0.0693134
-0.0690441
-0.068808
-0.0686052
-0.068436
-0.0683004
-0.0681987
-0.0681307
-0.0680969
-0.0966884
-0.0986965
-0.0967825
-0.096754
-0.0966992
-0.0966072
-0.0964715
-0.0962908
-0.0960632
-0.0957872
-0.095462
-0.0950872
-0.0946632
-0.0941911
-0.0936725
-0.0931097
-0.0925056
-0.0918632
-0.0911862
-0.0904783
-0.0897433
-0.0889853
-0.0882081
-0.0874155
-0.0866114
-0.0857991
-0.0849821
-0.0841636
-0.0833465
-0.0825336
-0.0817274
-0.0809304
-0.0801447
-0.0793724
-0.0786153
-0.0778752
-0.0771537
-0.0764522
-0.075772
-0.0751144
-0.0744804
-0.0738712
-0.0732876
-0.0727306
-0.0722008
-0.0716991
-0.0711473
-0.0712259
-0.0986965
-0.0979511
-0.0971644
-0.098617
-0.098617
-0.0979641
-0.0973229
-0.098836
-0.098836
-0.0982247
-0.0976363
-0.0970711
-0.0986667
-0.0986667
-0.0981382
-0.0976347
-0.0971567
-0.0988511
-0.0988511
-0.0984159
-0.0980079
-0.0976275
-0.097275
-0.0969507
-0.0988047
-0.0988047
-0.0985317
-0.0982884
-0.098075
-0.0978917
-0.0977387
-0.0976161
-0.0975241
-0.0974626
-0.0974319
)
;
    }
}


// ************************************************************************* //
