/*--------------------------------*- C++ -*----------------------------------*\
  =========                 |
  \\      /  F ield         | OpenFOAM: The Open Source CFD Toolbox
   \\    /   O peration     | Website:  https://openfoam.org
    \\  /    A nd           | Version:  7
     \\/     M anipulation  |
\*---------------------------------------------------------------------------*/
FoamFile
{
    version     2.0;
    format      ascii;
    class       surfaceScalarField;
    location    "75";
    object      phi;
}
// * * * * * * * * * * * * * * * * * * * * * * * * * * * * * * * * * * * * * //

dimensions      [0 3 -1 0 0 0 0];

internalField   nonuniform List<scalar> 
17388
(
-7.60673e-06
-1.09256e-05
1.85323e-05
-2.63016e-05
-6.42711e-05
8.2966e-05
-5.39131e-05
-0.000138736
0.000166347
-8.89724e-05
-0.000224929
0.000259988
-0.000130286
-0.000316451
0.000357764
-0.000176642
-0.000410387
0.000456744
-0.000226621
-0.000507031
0.00055701
-0.000278491
-0.000609085
0.000660955
-0.000330172
-0.000720519
0.000772199
-0.000379206
-0.000845379
0.000894413
-0.000422725
-0.000986748
0.00103027
-0.000457401
-0.00114592
0.0011806
-0.000479422
-0.00132173
0.00134375
-0.00048457
-0.00150985
0.001515
-0.000468471
-0.00170215
0.00168606
-0.000427111
-0.00188625
0.00184489
-0.000357618
-0.00204558
0.00197609
-0.000259176
-0.0021606
0.00206216
-0.000133684
-0.00221177
0.00208628
1.45348e-05
-0.00218422
0.002036
-0.00207285
0.00190475
0.00018264
-8.54359e-06
-2.382e-06
-2.96068e-05
-4.32079e-05
-6.07041e-05
-0.000107638
-0.000100092
-0.000185541
-0.000146366
-0.000270176
-0.000198214
-0.00035854
-0.000254239
-0.000451006
-0.000312875
-0.000550449
-0.000372324
-0.000661071
-0.000430494
-0.000787208
-0.000484911
-0.000932331
-0.000532593
-0.00109824
-0.000569939
-0.00128439
-0.000592688
-0.0014871
-0.000596043
-0.0016988
-0.000575077
-0.00190722
-0.000525512
-0.00209514
-0.000444841
-0.00224127
-0.000333315
-0.0023233
-0.00019402
-0.00232351
-0.00223465
-3.22272e-05
-9.16077e-06
6.77877e-06
-3.18596e-05
-2.05091e-05
-6.53999e-05
-7.4098e-05
-0.000107816
-0.000143125
-0.000157529
-0.000220464
-0.000213141
-0.000302928
-0.000273307
-0.00039084
-0.000336646
-0.00048711
-0.000401675
-0.000596041
-0.000466719
-0.000722164
-0.000529779
-0.000869271
-0.000588357
-0.00103966
-0.000639264
-0.00123348
-0.000678465
-0.0014479
-0.000701042
-0.00167622
-0.000701426
-0.00190684
-0.000674078
-0.00212249
-0.000614696
-0.00230065
-0.000521633
-0.00241636
-0.000397406
-0.00244774
-0.00238134
-0.000250712
-9.40964e-06
1.61884e-05
-3.29074e-05
2.98869e-06
-6.7717e-05
-3.92884e-05
-0.000111722
-9.91201e-05
-0.0001632
-0.000168985
-0.000220691
-0.000245437
-0.000282897
-0.000328634
-0.000348616
-0.00042139
-0.000416675
-0.000527983
-0.000485822
-0.000653017
-0.000554577
-0.000800516
-0.000621032
-0.00097321
-0.00068261
-0.0011719
-0.000735813
-0.00139469
-0.000776028
-0.00163601
-0.000797528
-0.00188534
-0.000793925
-0.00212609
-0.000759296
-0.00233528
-0.000690012
-0.00248564
-0.000587382
-0.00255037
-0.00250844
-0.00046028
-9.26597e-06
2.54544e-05
-3.26758e-05
2.63985e-05
-6.75142e-05
-4.44998e-06
-0.000111597
-5.50369e-05
-0.000163102
-0.000117481
-0.000220506
-0.000188032
-0.000282544
-0.000266596
-0.000348158
-0.000355776
-0.000416437
-0.000459704
-0.000486513
-0.000582942
-0.000557413
-0.000729616
-0.000627864
-0.000902759
-0.000696043
-0.00110372
-0.000759276
-0.00133146
-0.000813715
-0.00158157
-0.000854108
-0.00184495
-0.00087391
-0.00210629
-0.000866143
-0.00234305
-0.000825441
-0.00252635
-0.000751349
-0.00262446
-0.00260803
-0.000651762
-8.73604e-06
3.41904e-05
-3.11705e-05
4.8833e-05
-6.48022e-05
2.91817e-05
-0.000107462
-1.23772e-05
-0.000157264
-6.76782e-05
-0.000212631
-0.000132666
-0.000272293
-0.000206934
-0.000335281
-0.000292789
-0.000400868
-0.000394117
-0.000468486
-0.000515323
-0.000537596
-0.000660505
-0.00060752
-0.000832835
-0.000677222
-0.00103402
-0.000745022
-0.00126366
-0.00080821
-0.00151838
-0.000862626
-0.00179053
-0.000902391
-0.00206653
-0.000920317
-0.00232512
-0.000909813
-0.00253685
-0.000868279
-0.00266599
-0.00267554
-0.000800769
-7.85123e-06
4.20416e-05
-2.84822e-05
6.94639e-05
-5.97411e-05
6.04406e-05
-9.95576e-05
2.74393e-05
-0.000146023
-2.12125e-05
-0.000197505
-8.11847e-05
-0.000252697
-0.000151742
-0.000310645
-0.000234841
-0.000370716
-0.000334046
-0.000432525
-0.000453514
-0.000495839
-0.000597192
-0.000560447
-0.000768227
-0.000626009
-0.000968457
-0.000691816
-0.00119785
-0.000756446
-0.00145375
-0.000817239
-0.00172974
-0.000869705
-0.00201406
-0.000907346
-0.00228748
-0.000922995
-0.0025212
-0.000911586
-0.0026774
-0.00271408
-0.000873042
-6.66823e-06
4.87099e-05
-2.47742e-05
8.75699e-05
-5.26245e-05
8.82909e-05
-8.83302e-05
6.31451e-05
-0.00012999
2.04471e-05
-0.000175928
-3.52463e-05
-0.000224769
-0.000102901
-0.000275508
-0.000184102
-0.000327506
-0.000282047
-0.000380441
-0.000400579
-0.000434225
-0.000543408
-0.000488932
-0.00071352
-0.000544702
-0.000912688
-0.000601595
-0.00114096
-0.000659334
-0.00139601
-0.000716819
-0.00167225
-0.000771359
-0.00195952
-0.000817897
-0.00224094
-0.000849372
-0.00248973
-0.000858204
-0.00266857
-0.0027344
-0.00083789
-5.2627e-06
5.39726e-05
-2.02686e-05
0.000102576
-4.38576e-05
0.00011188
-7.43767e-05
9.36642e-05
-0.000110013
5.60835e-05
-0.000148988
3.72868e-06
-0.000189891
-6.19977e-05
-0.000231592
-0.000142402
-0.000273368
-0.000240271
-0.00031484
-0.000359107
-0.000355919
-0.000502329
-0.000396756
-0.000672682
-0.00043771
-0.000871734
-0.000479277
-0.00109939
-0.000521964
-0.00135332
-0.000565933
-0.00162828
-0.00061029
-0.00191516
-0.000651948
-0.00219929
-0.000684786
-0.00245689
-0.00069946
-0.0026539
-0.00275084
-0.000683022
-3.72249e-06
5.76951e-05
-1.52287e-05
0.000114082
-3.39232e-05
0.000130574
-5.84377e-05
0.000118179
-8.7042e-05
8.46878e-05
-0.000117988
3.46751e-05
-0.000149683
-3.03028e-05
-0.000180908
-0.000111177
-0.000210782
-0.000210397
-0.00023878
-0.000331109
-0.00026468
-0.000476429
-0.000288542
-0.000648821
-0.000310691
-0.000849585
-0.000331724
-0.00107836
-0.000352481
-0.00133257
-0.000373866
-0.0016069
-0.000396399
-0.00189263
-0.000419099
-0.00217658
-0.000437804
-0.00243818
-0.000444427
-0.00264727
-0.0027758
-0.000419459
-2.13922e-06
5.98343e-05
-9.93441e-06
0.000121877
-2.3341e-05
0.000143981
-4.12955e-05
0.000136133
-6.21927e-05
0.000105585
-8.42726e-05
5.6755e-05
-0.000105858
-8.71763e-06
-0.000125562
-9.14731e-05
-0.000142315
-0.000193643
-0.000155387
-0.000318037
-0.000164334
-0.000467482
-0.000168992
-0.000644163
-0.000169484
-0.000849092
-0.000166243
-0.0010816
-0.000160089
-0.00133872
-0.000152109
-0.00161488
-0.000143579
-0.00190116
-0.000135038
-0.00218512
-0.000123272
-0.00244995
-0.000101734
-0.00266881
-0.00279734
-8.01992e-05
-6.01817e-07
6.04361e-05
-4.66137e-06
0.000125937
-1.26274e-05
0.000151947
-2.37347e-05
0.000147241
-3.65193e-05
0.00011837
-4.92269e-05
6.94626e-05
-6.01025e-05
2.15795e-06
-6.7589e-05
-8.39866e-05
-7.03884e-05
-0.000190844
-6.75467e-05
-0.000320879
-5.83328e-05
-0.000476696
-4.22867e-05
-0.000660209
-1.92583e-05
-0.000872121
1.05764e-05
-0.00111143
4.67471e-05
-0.00137489
8.81753e-05
-0.00165631
0.000133517
-0.0019465
0.000181509
-0.00223312
0.000232602
-0.00250104
0.00029376
-0.00272997
-0.00287077
0.000367189
8.17412e-07
5.96187e-05
3.43912e-07
0.00012641
-2.25978e-06
0.000154551
-6.48772e-06
0.000151469
-1.10172e-05
0.000122899
-1.41153e-05
7.25607e-05
-1.39527e-05
1.99532e-06
-8.80995e-06
-8.91293e-05
2.79459e-06
-0.000202449
2.22356e-05
-0.00034032
5.04913e-05
-0.000504952
8.828e-05
-0.000697998
0.000136086
-0.000919926
0.000193989
-0.00116934
0.000261569
-0.00144247
0.000337934
-0.00173267
0.000421659
-0.00203023
0.000511289
-0.00232275
0.000606617
-0.00259637
0.000708392
-0.00283174
-0.00300082
0.000838443
2.0472e-06
5.75715e-05
4.86564e-06
0.000123592
7.3568e-06
0.000152059
9.81927e-06
0.000149006
1.3458e-05
0.00011926
1.999e-05
6.60287e-05
3.13258e-05
-9.34048e-06
4.93634e-05
-0.000107167
7.58722e-05
-0.000228957
0.000112374
-0.000376822
0.000160214
-0.000552791
0.000220455
-0.000758239
0.000293769
-0.000993241
0.000380354
-0.00125592
0.000479765
-0.00154188
0.000590871
-0.00184378
0.00071193
-0.00215129
0.000840916
-0.00245173
0.000975877
-0.00273133
0.0011178
-0.00297367
-0.00316737
0.00128435
3.05274e-06
5.45187e-05
8.76365e-06
0.000117881
1.59238e-05
0.000144899
2.47151e-05
0.000140215
3.6266e-05
0.000107709
5.2291e-05
5.00037e-05
7.47934e-05
-3.18429e-05
0.000105847
-0.000138221
0.00014746
-0.00027057
0.000201468
-0.00043083
0.000269487
-0.00062081
0.000352785
-0.000841537
0.000452127
-0.00109258
0.000567578
-0.00137137
0.000698329
-0.00167263
0.00084263
-0.00198808
0.000997944
-0.0023066
0.00116133
-0.00261512
0.00132982
-0.00289982
0.00150306
-0.00314691
-0.0033558
0.00169149
3.81251e-06
5.07062e-05
1.19532e-05
0.00010974
2.32647e-05
0.000133588
3.79115e-05
0.000125568
5.70077e-05
8.86132e-05
8.2305e-05
2.47063e-05
0.000115921
-6.54585e-05
0.00016012
-0.00018242
0.000217158
-0.000327607
0.000289142
-0.000502814
0.000377895
-0.000709563
0.000484759
-0.000948402
0.000610347
-0.00121817
0.000754274
-0.0015153
0.000914958
-0.00183332
0.00108961
-0.00216273
0.00127449
-0.00249148
0.00146554
-0.00280617
0.00165896
-0.00309324
0.00185291
-0.00334086
-0.00355436
0.00205147
4.32951e-06
4.63767e-05
1.44262e-05
9.96436e-05
2.9343e-05
0.000118671
4.93388e-05
0.000105572
7.5591e-05
6.2361e-05
0.000109943
-9.6454e-06
0.00015466
-0.000110175
0.000212214
-0.000239974
0.000285094
-0.000400488
0.000375613
-0.000593333
0.000485669
-0.000819619
0.000616451
-0.00107918
0.00076809
-0.00136981
0.000939342
-0.00168655
0.00112742
-0.0020214
0.00132814
-0.00236344
0.00153637
-0.00269971
0.00174689
-0.00301669
0.00195531
-0.00330167
0.00215918
-0.00354473
-0.00375329
0.0023581
4.62913e-06
4.17476e-05
1.62474e-05
8.80253e-05
3.42651e-05
0.000100653
5.91493e-05
8.0688e-05
9.22301e-05
2.92802e-05
0.000135508
-5.29234e-05
0.000191436
-0.000166103
0.000262699
-0.000311237
0.000351976
-0.000489765
0.000461661
-0.000703018
0.00059351
-0.000951469
0.000748234
-0.00123391
0.000925063
-0.00154664
0.00112145
-0.00188294
0.00133304
-0.00223299
0.00155402
-0.00258442
0.00177795
-0.00292364
0.00199874
-0.00323747
0.00221197
-0.0035149
0.00241536
-0.00374812
-0.00394467
0.00260674
4.75668e-06
3.69909e-05
1.75489e-05
7.5233e-05
3.82706e-05
7.99316e-05
6.77069e-05
5.12518e-05
0.000107433
-1.0446e-05
0.000159674
-0.000105164
0.000227104
-0.000233533
0.0003126
-0.000396734
0.000418936
-0.000596101
0.000548386
-0.000832467
0.000702249
-0.00110533
0.000880336
-0.00141199
0.00108052
-0.00174683
0.00129856
-0.00210098
0.0015283
-0.00246273
0.00176239
-0.00281851
0.00199341
-0.00315467
0.00221496
-0.00345902
0.00242341
-0.00372335
0.00261711
-0.00394182
-0.00412233
0.00279478
4.77332e-06
3.22176e-05
1.85175e-05
6.14889e-05
4.17098e-05
5.67393e-05
7.55506e-05
1.7411e-05
0.000121947
-5.68422e-05
0.000183404
-0.000166622
0.000262828
-0.000312956
0.000363222
-0.000497128
0.000487281
-0.00072016
0.000636866
-0.000982053
0.000812412
-0.00128088
0.00101236
-0.00161194
0.00123281
-0.00196728
0.0014676
-0.00233576
0.00170884
-0.00270397
0.00194807
-0.00305774
0.0021775
-0.0033841
0.00239112
-0.00367264
0.00258652
-0.00391874
0.00276267
-0.00411797
-0.00428227
0.00292261
4.75036e-06
2.74672e-05
1.93761e-05
4.68631e-05
4.50063e-05
3.11091e-05
8.3335e-05
-2.09177e-05
0.000136666
-0.000110173
0.000207819
-0.000237775
0.000299894
-0.000405031
0.000415886
-0.00061312
0.00055815
-0.000862424
0.000727748
-0.00115165
0.000923783
-0.00147691
0.00114289
-0.00183105
0.00137914
-0.00220353
0.00162447
-0.00258109
0.00186974
-0.00294925
0.0021061
-0.00329409
0.00232631
-0.00360431
0.00252562
-0.00387195
0.00270244
-0.00409557
0.00285406
-0.00426959
-0.00442084
0.00299263
4.76205e-06
2.27052e-05
2.03602e-05
3.1265e-05
4.86096e-05
2.85962e-06
9.17484e-05
-6.40565e-05
0.000152513
-0.000170938
0.000234024
-0.000319286
0.000339476
-0.000510483
0.000471633
-0.000745278
0.000632163
-0.00102295
0.000820877
-0.00134037
0.00103509
-0.00169113
0.00126934
-0.00206529
0.00151563
-0.00244982
0.00176445
-0.00282991
0.00200612
-0.00319092
0.00223237
-0.00352034
0.00243749
-0.00380943
0.00261896
-0.00405343
0.00277694
-0.00425354
0.00291097
-0.00440362
-0.0045421
0.00303222
4.87784e-06
1.78273e-05
2.16913e-05
1.44516e-05
5.29426e-05
-2.83917e-05
0.000101426
-0.00011254
0.000170306
-0.000239818
0.000262926
-0.000411906
0.000382399
-0.000629955
0.000530952
-0.000893831
0.000709142
-0.00120114
0.000915078
-0.0015463
0.00114395
-0.00192
0.0013881
-0.00230945
0.00163786
-0.00269958
0.00188292
-0.00307498
0.00211403
-0.00342203
0.0023244
-0.00373071
0.00251052
-0.00399555
0.00267238
-0.00421529
0.00281239
-0.00439355
0.0029385
-0.00452973
-0.00465725
0.00305365
5.15545e-06
1.26719e-05
2.35549e-05
-3.94785e-06
5.83502e-05
-6.3187e-05
0.000112869
-0.000167059
0.000190636
-0.000317585
0.000295079
-0.000516349
0.00042896
-0.000763837
0.000593595
-0.00105847
0.000787986
-0.00139553
0.00100816
-0.00176648
0.00124705
-0.00215888
0.00149507
-0.00255746
0.00174148
-0.00294599
0.00197613
-0.00330963
0.0021911
-0.003637
0.00238176
-0.00392136
0.00254708
-0.00416086
0.00268932
-0.00435753
0.00281295
-0.00451718
0.00292535
-0.00464213
-0.00475919
0.0030273
5.6352e-06
7.03669e-06
2.60801e-05
-2.43928e-05
6.5066e-05
-0.000102173
0.000126383
-0.000228376
0.000213792
-0.000404994
0.000330581
-0.000633138
0.000478835
-0.000912091
0.000658534
-0.00123817
0.000866733
-0.00160373
0.00109718
-0.00199692
0.00134066
-0.00240236
0.00158623
-0.00280303
0.00182297
-0.00318274
0.00204182
-0.00352848
0.00223689
-0.00383207
0.00240604
-0.00409051
0.00255059
-0.00430542
0.00267463
-0.00448157
0.00278371
-0.00462627
0.00288507
-0.00474349
-0.00485625
0.00298212
6.33818e-06
6.98511e-07
2.93321e-05
-4.73867e-05
7.3192e-05
-0.000146033
0.00014205
-0.000297234
0.000239719
-0.000502662
0.000369058
-0.000762477
0.00053109
-0.00107412
0.000724059
-0.00143113
0.000942794
-0.00182247
0.00117878
-0.0022329
0.00142112
-0.00264471
0.0016583
-0.00304022
0.00188015
-0.00340459
0.00207945
-0.00372778
0.00225277
-0.00400539
0.00240039
-0.00423813
0.00252558
-0.00443061
0.00263359
-0.00458959
0.00273038
-0.00472305
0.0028228
-0.00483591
-0.00494683
0.00291338
7.26673e-06
-6.56822e-06
3.33138e-05
-7.34338e-05
8.27014e-05
-0.00019542
0.000159739
-0.000374272
0.000268043
-0.000610966
0.000409707
-0.000904141
0.000584296
-0.00124871
0.000787986
-0.00163482
0.00101329
-0.00204777
0.00124972
-0.00246934
0.00148541
-0.00288039
0.00170916
-0.00326396
0.00191235
-0.00360778
0.00209012
-0.00390555
0.00224151
-0.00415678
0.0023689
-0.00436551
0.00247692
-0.00453863
0.00257138
-0.00468405
0.00265813
-0.0048098
0.00274317
-0.00492095
-0.0050327
0.00282905
8.40808e-06
-1.49763e-05
3.79751e-05
-0.000103001
9.34559e-05
-0.000250901
0.00017913
-0.000459946
0.000298124
-0.000729959
0.000451395
-0.00105741
0.000636688
-0.00143401
0.000847915
-0.00184605
0.00107541
-0.00227527
0.00130728
-0.0027012
0.00153147
-0.00310459
0.00173798
-0.00347047
0.00192033
-0.00379014
0.00207615
-0.00406137
0.00220671
-0.00428734
0.00231596
-0.00447476
0.0024093
-0.00463198
0.00249257
-0.00476731
0.00257111
-0.00488834
0.00265002
-0.00499985
-0.00511383
0.00273115
9.73901e-06
-2.47153e-05
4.3226e-05
-0.000136488
0.000105233
-0.000312908
0.000199764
-0.000554477
0.000329128
-0.000859323
0.000492778
-0.00122106
0.000686362
-0.00162759
0.000901505
-0.00206119
0.00112674
-0.0025005
0.00134947
-0.00292394
0.00155835
-0.00331347
0.0017452
-0.00365732
0.00190598
-0.00395091
0.00204063
-0.00419602
0.00215225
-0.00439895
0.00224577
-0.00456829
0.00232684
-0.00471304
0.00240091
-0.00484138
0.00247264
-0.00496008
0.00254615
-0.00507337
-0.00519049
0.00262281
1.12304e-05
-3.59457e-05
4.89512e-05
-0.000174209
0.000117753
-0.00038171
0.000221088
-0.000657812
0.000360106
-0.000998341
0.000532429
-0.00139339
0.000731447
-0.00182661
0.000946688
-0.00227644
0.00116546
-0.00271927
0.00137526
-0.00313375
0.00156617
-0.00350437
0.00173225
-0.0038234
0.00187186
-0.00409052
0.00198697
-0.00431113
0.00208189
-0.00449388
0.00216206
-0.00464845
0.00223292
-0.00478391
0.00229934
-0.0049078
0.00236519
-0.00502593
0.00243369
-0.00514187
-0.0052625
0.0025057
1.28504e-05
-4.87961e-05
5.50207e-05
-0.000216379
0.000130701
-0.00045739
0.000242497
-0.000769608
0.000390064
-0.00114591
0.000568939
-0.00157226
0.000770262
-0.00202793
0.000981845
-0.00248802
0.00119046
-0.00292789
0.00138448
-0.00332777
0.00155591
-0.00367581
0.00170121
-0.00396869
0.0018209
-0.00421022
0.00191848
-0.00440871
0.00199901
-0.00457441
0.00206794
-0.00471738
0.00213026
-0.00484623
0.00219012
-0.00496766
0.00225062
-0.00508644
0.00231422
-0.00520546
-0.00532964
0.00238136
1.45665e-05
-6.33626e-05
6.12965e-05
-0.000263109
0.000143744
-0.000539837
0.000263364
-0.000889229
0.00041802
-0.00130056
0.000601019
-0.00175526
0.000801428
-0.00222834
0.00100589
-0.00269248
0.00120137
-0.00312336
0.00137773
-0.00350412
0.0015292
-0.00382728
0.00165453
-0.00409402
0.00175603
-0.00431172
0.00183823
-0.00449091
0.00190647
-0.00464265
0.0019659
-0.00477681
0.00202091
-0.00490124
0.0020749
-0.00502165
0.0021303
-0.00514184
0.0021889
-0.00526406
-0.0053916
0.00225086
1.63455e-05
-7.9708e-05
6.76363e-05
-0.0003144
0.000156541
-0.000628741
0.000283071
-0.00101576
0.000443056
-0.00146055
0.000627567
-0.00193977
0.000823945
-0.00242472
0.00101829
-0.00288683
0.00119844
-0.00330352
0.00135618
-0.00366186
0.00148803
-0.00395913
0.00159474
-0.00420073
0.00167998
-0.00439696
0.00174884
-0.00455976
0.00180658
-0.00470039
0.00185786
-0.00482809
0.0019064
-0.00494978
0.00195491
-0.00507015
0.00200524
-0.00519217
0.00205866
-0.00531749
-0.00544806
0.00211513
1.81533e-05
-9.78614e-05
7.38946e-05
-0.000370141
0.000168752
-0.000723599
0.000301025
-0.00114803
0.00046436
-0.00162388
0.000647728
-0.00212314
0.000837216
-0.0026142
0.00101905
-0.00306866
0.00118247
-0.00346694
0.0013214
-0.00380079
0.00143454
-0.00407227
0.00152428
-0.00429047
0.00159517
-0.00446786
0.0016525
-0.00461709
0.00170118
-0.00474907
0.0017453
-0.00487221
0.00178789
-0.00499237
0.00183107
-0.00511334
0.00187623
-0.00523733
0.00192423
-0.00536549
-0.00549873
0.00197489
1.99548e-05
-0.000117816
7.99246e-05
-0.000430111
0.000180048
-0.000823722
0.000316687
-0.00128467
0.000481262
-0.00178846
0.000660918
-0.00230279
0.000841047
-0.00279433
0.00100859
-0.0032362
0.00115459
-0.00361293
0.00127514
-0.00392135
0.00137084
-0.00416797
0.00144533
-0.00436496
0.00150365
-0.00452618
0.00155095
-0.00466439
0.00159169
-0.00478981
0.0016293
-0.00490982
0.00166623
-0.00502929
0.00170409
-0.0051512
0.0017439
-0.00527713
0.00178622
-0.00540781
-0.00554332
0.00183082
2.17128e-05
-0.000139529
8.55801e-05
-0.000493978
0.000190117
-0.000928259
0.000329587
-0.00142414
0.000493259
-0.00195213
0.000666837
-0.00247637
0.000835597
-0.00296309
0.000987693
-0.0033883
0.00111617
-0.00374141
0.00121918
-0.00402436
0.0012989
-0.00424769
0.00135981
-0.00442586
0.00140709
-0.00457346
0.00144558
-0.00470288
0.00147917
-0.0048234
0.00151069
-0.00494134
0.00154206
-0.00506067
0.00157451
-0.00518365
0.00160875
-0.00531138
0.00164516
-0.00544421
-0.00558162
0.00168345
2.33896e-05
-0.000162919
9.07192e-05
-0.000561308
0.000198677
-0.00103622
0.000339346
-0.00156481
0.000500029
-0.00211281
0.000665454
-0.0026418
0.000821322
-0.00311896
0.000957367
-0.00352434
0.00106868
-0.00385272
0.00115527
-0.00411095
0.00122049
-0.00431291
0.00126932
-0.00447469
0.00130685
-0.004611
0.00133745
-0.00473348
0.00136443
-0.00485038
0.00139009
-0.00496699
0.0014159
-0.00508648
0.00144279
-0.00521054
0.00147125
-0.00533985
0.00150151
-0.00547447
-0.00561343
0.00153332
2.4947e-05
-0.000187866
9.52087e-05
-0.000631569
0.000205486
-0.00114649
0.000345688
-0.00170501
0.000501433
-0.00226856
0.000656971
-0.00279734
0.000798898
-0.00326089
0.000918748
-0.00364419
0.00101359
-0.00394756
0.00108497
-0.00418233
0.00113712
-0.00436507
0.0011752
-0.00451276
0.00120401
-0.0046398
0.00122739
-0.00475686
0.00124811
-0.00487109
0.00126798
-0.00498686
0.00128816
-0.00510666
0.0013093
-0.00523169
0.00133178
-0.00536233
0.00135571
-0.00549839
-0.00563859
0.00138086
2.63479e-05
-0.000214213
9.89292e-05
-0.000704151
0.000210352
-0.00125792
0.000348444
-0.0018431
0.000497502
-0.00241762
0.000641784
-0.00294162
0.00076915
-0.00338826
0.000873023
-0.00374806
0.000952277
-0.00402682
0.00100971
-0.00423976
0.00105009
-0.00440545
0.00107851
-0.00454119
0.00109938
-0.00466067
0.00111602
-0.0047735
0.00113067
-0.00488574
0.00114476
-0.00500096
0.00115918
-0.00512107
0.00117441
-0.00524691
0.0011907
-0.00537863
0.00120812
-0.00551581
-0.00565697
0.0012265
2.75575e-05
-0.000241771
0.000101779
-0.000778372
0.000213137
-0.00136928
0.000347556
-0.00197752
0.000488417
-0.00255848
0.000620432
-0.00307363
0.00073298
-0.0035008
0.000821361
-0.00383644
0.000886024
-0.00409148
0.000930703
-0.00428444
0.000960438
-0.00443518
0.000980105
-0.00456086
0.000993638
-0.00467421
0.00100383
-0.00478369
0.0010125
-0.00489441
0.00102076
-0.00500922
0.00102927
-0.00512958
0.0010384
-0.00525604
0.00104833
-0.00538856
0.00105909
-0.00552656
-0.00566847
0.00107059
2.85448e-05
-0.000270316
0.000103678
-0.000853505
0.000213762
-0.00147936
0.000343067
-0.00210683
0.00047448
-0.00268989
0.000593548
-0.0031927
0.000691319
-0.00359858
0.000764868
-0.00390999
0.000815964
-0.00414258
0.000848995
-0.00431747
0.000869049
-0.00445524
0.000880665
-0.00457247
0.000887282
-0.00468082
0.000891221
-0.00478763
0.000893924
-0.00489711
0.00089625
-0.00501155
0.000898701
-0.00513203
0.000901562
-0.00525891
0.000904971
-0.00539197
0.000908935
-0.00553053
-0.005673
0.000913463
2.92834e-05
-0.000299599
0.00010457
-0.000928792
0.000212203
-0.00158699
0.000335107
-0.00222973
0.000456085
-0.00281087
0.000561817
-0.00329843
0.000645078
-0.00368184
0.000704557
-0.00396947
0.000743085
-0.0041811
0.00076545
-0.00433983
0.000776621
-0.00446641
0.000780728
-0.00457658
0.000780724
-0.00468082
0.000778508
-0.00478541
0.000775211
-0.00489382
0.000771492
-0.00500783
0.000767738
-0.00512828
0.000764169
-0.00525534
0.000760891
-0.00538869
0.000757918
-0.00552755
-0.00567044
0.000755358
2.97525e-05
-0.000329352
0.000104423
-0.00100346
0.000208494
-0.00169106
0.000323882
-0.00234512
0.000433687
-0.00292067
0.000525939
-0.00339068
0.000595119
-0.00375102
0.000641336
-0.00401569
0.000668231
-0.004208
0.000680784
-0.00435239
0.00068372
-0.00446935
0.000680724
-0.00457358
0.000674296
-0.00467439
0.000665964
-0.00477708
0.000656606
-0.00488446
0.000646726
-0.00499795
0.000636619
-0.00511817
0.000626464
-0.00524518
0.000616348
-0.00537858
0.000606294
-0.0055175
-0.0056606
0.00059646
2.9937e-05
-0.000359289
0.000103231
-0.00107676
0.000202712
-0.00179055
0.00030965
-0.00245206
0.000407774
-0.0030188
0.0004866
-0.00346951
0.000542235
-0.00380665
0.000576
-0.00404945
0.000592116
-0.00422411
0.000595583
-0.00435585
0.000590799
-0.00446456
0.000581002
-0.00456379
0.000568274
-0.00466166
0.000553832
-0.00476264
0.000538345
-0.00486897
0.000522191
-0.00498179
0.000505594
-0.00510157
0.000488691
-0.00522828
0.000471575
-0.00536146
0.000454293
-0.00550022
-0.00564326
0.000436946
2.98284e-05
-0.000389117
0.000101008
-0.00114793
0.000194976
-0.00188451
0.000292711
-0.00254979
0.000378846
-0.00310493
0.000444453
-0.00353512
0.000487145
-0.00384934
0.000509239
-0.00407155
0.000515336
-0.00423021
0.000510325
-0.00435084
0.000498228
-0.00445247
0.000481848
-0.00454741
0.000462898
-0.00464271
0.000442331
-0.00474207
0.000420653
-0.0048473
0.000398141
-0.00495928
0.000374952
-0.00507838
0.000351172
-0.0052045
0.000326844
-0.00533713
0.000302063
-0.00547544
-0.0056183
0.000277107
2.9424e-05
-0.000418541
9.77898e-05
-0.0012163
0.000185433
-0.00197216
0.000273383
-0.00263774
0.000347395
-0.00317894
0.000400104
-0.00358783
0.00043048
-0.00387972
0.000441638
-0.00408271
0.000438385
-0.00422696
0.000425399
-0.00433785
0.000406306
-0.00443337
0.000383501
-0.0045246
0.000358373
-0.00461759
0.000331662
-0.00471536
0.000303743
-0.00481938
0.000274817
-0.00493036
0.000245002
-0.00504857
0.000214356
-0.00517385
0.000182784
-0.00530556
0.000149763
-0.00544242
-0.0055855
0.000116965
2.87269e-05
-0.000447268
9.36304e-05
-0.0012812
0.000174256
-0.00205278
0.000251998
-0.00271548
0.000313892
-0.00324084
0.000354102
-0.00362804
0.000372794
-0.00389841
0.000373691
-0.0040836
0.000361668
-0.00421494
0.000341122
-0.00431731
0.000315281
-0.00440753
0.000286165
-0.00449548
0.000254888
-0.00458631
0.000222012
-0.00468249
0.000187807
-0.00478517
0.000152419
-0.00489497
0.000115953
-0.0050121
7.84946e-05
-0.00513639
4.03107e-05
-0.00526738
1.73842e-06
-0.00540384
-0.00554054
-4.32244e-05
2.77454e-05
-0.000475013
8.85956e-05
-0.00134205
0.000161628
-0.00212582
0.000228881
-0.00278274
0.000278777
-0.00329074
0.00030694
-0.0036562
0.000314564
-0.00390604
0.000305815
-0.00407485
0.000285518
-0.00419464
0.000257754
-0.00428954
0.000225358
-0.00437514
0.000190017
-0.00446014
0.000152611
-0.0045489
0.000113561
-0.00464344
7.30329e-05
-0.00474464
3.11336e-05
-0.00485307
-1.20671e-05
-0.0049689
-5.64027e-05
-0.00509206
-0.000101915
-0.00522187
-0.000149362
-0.0053564
-0.00549351
-0.000196389
2.64923e-05
-0.000501506
8.27625e-05
-0.00139832
0.00014774
-0.00219079
0.000204347
-0.00283934
0.000242456
-0.00332884
0.000259051
-0.00367279
0.000256196
-0.00390318
0.000238352
-0.00405701
0.00021021
-0.0041665
0.000175508
-0.00425484
0.000136712
-0.00433634
9.52263e-05
-0.00441866
5.16857e-05
-0.00450536
6.42359e-06
-0.00459817
-4.03983e-05
-0.00469782
-8.87762e-05
-0.00480469
-0.000138636
-0.00491904
-0.000189927
-0.00504077
-0.000242676
-0.00516912
-0.000296816
-0.00530226
-0.00543901
-0.000351315
2.49839e-05
-0.00052649
7.62147e-05
-0.00144956
0.000132783
-0.00224736
0.000178696
-0.00288526
0.000205293
-0.00335544
0.000210812
-0.00367831
0.000198034
-0.0038904
0.000171588
-0.00403056
0.000135971
-0.00413088
9.45649e-05
-0.00421344
4.94777e-05
-0.00429125
1.82861e-06
-0.00437101
-4.77263e-05
-0.00445581
-9.91095e-05
-0.00454679
-0.00015227
-0.00464466
-0.000207157
-0.0047498
-0.000263738
-0.00486246
-0.000321951
-0.00498255
-0.000381725
-0.00510934
-0.000442869
-0.00524111
-0.00537671
-0.000505176
2.324e-05
-0.00054973
6.904e-05
-0.00149536
0.000116944
-0.00229527
0.000152203
-0.00292052
0.000167615
-0.00337085
0.000162551
-0.00367325
0.000140366
-0.00386822
0.00010576
-0.00399596
6.2985e-05
-0.00408811
1.50599e-05
-0.00416551
-3.61666e-05
-0.00424003
-8.97753e-05
-0.0043174
-0.000145445
-0.00440014
-0.000202999
-0.00448924
-0.00026245
-0.00458521
-0.000323818
-0.00468843
-0.000387094
-0.00479918
-0.000452213
-0.00491744
-0.000519058
-0.0050425
-0.00058748
-0.00517269
-0.00530675
-0.000657434
2.1283e-05
-0.000571013
6.13281e-05
-0.0015354
0.000100403
-0.00233434
0.000125123
-0.00294524
0.00012971
-0.00337544
0.000114545
-0.00365808
8.34335e-05
-0.00383711
4.10571e-05
-0.00395358
-8.61585e-06
-0.00403843
-6.28388e-05
-0.00411129
-0.000120122
-0.00418274
-0.000179729
-0.00425779
-0.000241397
-0.00433847
-0.000305061
-0.00442557
-0.00037076
-0.00451951
-0.00043856
-0.00462064
-0.000508483
-0.00472926
-0.000580474
-0.00484545
-0.000654397
-0.00496857
-0.000730121
-0.00509697
-0.00522925
-0.000807622
1.91378e-05
-0.00059015
5.31685e-05
-0.00156943
8.33292e-05
-0.0023645
9.76888e-05
-0.0029596
9.18309e-05
-0.00336958
6.70311e-05
-0.00363328
2.74419e-05
-0.00379752
-2.23482e-05
-0.00390379
-7.86357e-05
-0.00398215
-0.000139052
-0.00405087
-0.000202302
-0.00411949
-0.000267825
-0.00419227
-0.00033544
-0.00427086
-0.000405148
-0.00435587
-0.000477031
-0.00444763
-0.000551191
-0.00454648
-0.000627692
-0.00465276
-0.000706503
-0.00476663
-0.000787487
-0.00488759
-0.000870483
-0.00501397
-0.00514429
-0.000955448
1.6834e-05
-0.000606984
4.46501e-05
-0.00159725
6.58852e-05
-0.00238574
7.0109e-05
-0.00296382
5.4195e-05
-0.00335367
2.02398e-05
-0.00359933
-2.74433e-05
-0.00374983
-8.43343e-05
-0.0038469
-0.000147044
-0.00391944
-0.000213488
-0.00398443
-0.000282603
-0.00405038
-0.000353959
-0.00412091
-0.00042745
-0.00419736
-0.000503125
-0.00428019
-0.000581101
-0.00436965
-0.000661523
-0.00446605
-0.000744503
-0.00456978
-0.000830049
-0.00468109
-0.00091803
-0.00479961
-0.00100824
-0.00492377
-0.00505193
-0.00110059
1.44075e-05
-0.000621392
3.58639e-05
-0.0016187
4.82236e-05
-0.0023981
4.25697e-05
-0.00295817
1.70709e-05
-0.00332817
-2.57139e-05
-0.00355654
-8.11e-05
-0.00369445
-0.000144801
-0.0037832
-0.000213727
-0.00385051
-0.000286061
-0.00391209
-0.000360936
-0.0039755
-0.000438035
-0.00404381
-0.000517315
-0.00411808
-0.000598859
-0.00419865
-0.000682817
-0.00428569
-0.000769376
-0.00437949
-0.000858703
-0.00448045
-0.000950865
-0.00458893
-0.00104575
-0.00470472
-0.0011431
-0.00482642
-0.00495229
-0.00124273
1.18713e-05
-0.000633263
2.68927e-05
-0.00163373
3.04804e-05
-0.00240168
1.53268e-05
-0.00294301
-1.95517e-05
-0.00329329
-7.06961e-05
-0.0035054
-0.000133421
-0.00363172
-0.000203662
-0.00371296
-0.00027861
-0.00377556
-0.000356697
-0.00383401
-0.000437223
-0.00389498
-0.000519966
-0.00396107
-0.00060493
-0.00403312
-0.000692229
-0.00411135
-0.000782037
-0.00419589
-0.000874578
-0.00428695
-0.000970082
-0.00438495
-0.00106869
-0.00449032
-0.00117035
-0.00460307
-0.00127472
-0.00472205
-0.00484552
-0.00138149
9.25218e-06
-0.000642515
1.78173e-05
-0.00164229
1.28133e-05
-0.00239668
-1.16532e-05
-0.00291855
-5.55126e-05
-0.00324943
-0.000114587
-0.00344632
-0.000184318
-0.00356199
-0.000260845
-0.00363643
-0.000341632
-0.00369478
-0.000425335
-0.0037503
-0.000511395
-0.00380892
-0.000599669
-0.0038728
-0.000690202
-0.00394259
-0.000783126
-0.00401842
-0.000878634
-0.00410038
-0.000976978
-0.00418861
-0.00107845
-0.00428348
-0.00118328
-0.00438548
-0.00129149
-0.00449485
-0.00140272
-0.00461082
-0.00473177
-0.00151647
6.58212e-06
-0.000649098
8.6476e-06
-0.00164436
-4.53646e-06
-0.0023835
-3.84246e-05
-0.00288466
-9.06622e-05
-0.00319719
-0.000157293
-0.00337969
-0.000233718
-0.00348557
-0.000316293
-0.00355386
-0.000402741
-0.00360833
-0.000491919
-0.00366113
-0.000583389
-0.00371745
-0.000677073