/*--------------------------------*- C++ -*----------------------------------*\
  =========                 |
  \\      /  F ield         | OpenFOAM: The Open Source CFD Toolbox
   \\    /   O peration     | Website:  https://openfoam.org
    \\  /    A nd           | Version:  7
     \\/     M anipulation  |
\*---------------------------------------------------------------------------*/
FoamFile
{
    version     2.0;
    format      ascii;
    class       volVectorField;
    location    "75";
    object      U;
}
// * * * * * * * * * * * * * * * * * * * * * * * * * * * * * * * * * * * * * //

dimensions      [0 1 -1 0 0 0 0];

internalField   nonuniform List<vector> 
8820
(
(-0.00127327 -0.00651873 -8.01002e-22)
(-0.00676742 -0.0312395 -1.78382e-20)
(-0.0172599 -0.0624356 -8.31984e-21)
(-0.0304615 -0.0957982 -3.56689e-21)
(-0.0453792 -0.128627 1.13524e-21)
(-0.0613433 -0.159795 -6.57135e-21)
(-0.0776403 -0.18942 -1.4038e-20)
(-0.0935324 -0.218411 -8.63797e-21)
(-0.108269 -0.247968 1.97982e-20)
(-0.121093 -0.279139 -3.55429e-21)
(-0.131253 -0.312511 5.60888e-21)
(-0.137996 -0.348034 8.12707e-21)
(-0.140574 -0.384923 -1.15247e-20)
(-0.13826 -0.421611 -1.29312e-20)
(-0.130399 -0.455742 5.94256e-21)
(-0.116521 -0.484238 3.21322e-21)
(-0.0964849 -0.50352 7.95281e-22)
(-0.0706088 -0.509947 2.16513e-20)
(-0.0397893 -0.500538 -6.82278e-21)
(-0.00579069 -0.473869 -4.51413e-20)
(0.0291078 -0.430639 3.39419e-22)
(-0.00138897 -0.00304807 2.4527e-20)
(-0.00697545 -0.0231444 -2.67228e-20)
(-0.0179067 -0.0512211 5.07366e-21)
(-0.0317345 -0.0824678 2.89389e-20)
(-0.0474083 -0.113944 -1.17428e-20)
(-0.0642194 -0.144419 -1.46191e-20)
(-0.0814192 -0.173978 -2.24026e-20)
(-0.0982603 -0.203531 2.14613e-20)
(-0.114016 -0.234284 3.22253e-20)
(-0.127985 -0.267302 -2.57328e-20)
(-0.139484 -0.303201 -3.0914e-20)
(-0.14784 -0.34197 -4.90455e-20)
(-0.152362 -0.382866 -2.1897e-20)
(-0.152343 -0.424345 -4.19547e-20)
(-0.147098 -0.464001 2.12734e-20)
(-0.136046 -0.498584 -3.25706e-21)
(-0.118859 -0.524159 -1.58206e-20)
(-0.0956157 -0.536538 -1.76465e-21)
(-0.0670212 -0.532109 -4.30587e-20)
(-0.0347778 -0.50902 -2.61822e-20)
(-0.000936436 -0.468039 2.75453e-20)
(-0.00173547 0.000746603 7.20421e-20)
(-0.00757375 -0.014245 -1.60923e-20)
(-0.0188011 -0.0388825 5.69355e-20)
(-0.0329397 -0.0678251 3.90001e-20)
(-0.0489349 -0.0978542 3.91032e-20)
(-0.0660678 -0.127586 1.76338e-20)
(-0.0835762 -0.157023 -2.91127e-20)
(-0.100721 -0.187028 5.03309e-20)
(-0.116814 -0.218788 7.60332e-20)
(-0.131223 -0.253369 4.00922e-20)
(-0.143357 -0.291423 -6.0044e-20)
(-0.152642 -0.333007 1.00278e-19)
(-0.158485 -0.377473 -8.90251e-21)
(-0.160252 -0.423371 -1.81963e-19)
(-0.157281 -0.468349 -1.23242e-19)
(-0.148939 -0.509099 6.70188e-20)
(-0.134747 -0.54143 -3.62119e-20)
(-0.114567 -0.560645 -8.35415e-20)
(-0.0889059 -0.562435 1.35634e-19)
(-0.059196 -0.544193 -5.81344e-20)
(-0.0273282 -0.505893 -6.72638e-20)
(-0.00232057 0.00470469 -2.22144e-20)
(-0.00856669 -0.00487659 1.52509e-19)
(-0.0199151 -0.0258386 -2.0205e-20)
(-0.0340049 -0.0523232 -2.05223e-19)
(-0.0498391 -0.080815 -2.07214e-20)
(-0.0667197 -0.109739 -1.91498e-19)
(-0.0838926 -0.138969 9.93119e-20)
(-0.100639 -0.169278 1.86358e-19)
(-0.116317 -0.2018 -1.69019e-19)
(-0.13037 -0.237591 -2.26205e-19)
(-0.142307 -0.277334 1.28223e-19)
(-0.151676 -0.321168 -1.20952e-19)
(-0.158015 -0.368576 1.47169e-19)
(-0.160818 -0.418266 2.06036e-19)
(-0.159524 -0.46804 3.95572e-20)
(-0.153536 -0.514667 -1.6033e-20)
(-0.142314 -0.553849 -1.51514e-19)
(-0.125581 -0.58049 -3.05559e-20)
(-0.103622 -0.589546 -3.32938e-20)
(-0.0773476 -0.577277 -8.6728e-21)
(-0.0489238 -0.5424 -1.81077e-20)
(-0.00313178 0.00865087 -1.01595e-19)
(-0.00992782 0.00459547 -1.49683e-19)
(-0.0212022 -0.0125417 8.83876e-20)
(-0.0348608 -0.0364462 -1.18537e-19)
(-0.0500287 -0.0633122 1.33953e-19)
(-0.0660604 -0.0913496 6.90615e-20)
(-0.0822286 -0.120263 1.45144e-19)
(-0.0978434 -0.150702 -1.09651e-20)
(-0.11231 -0.183715 -1.45465e-19)
(-0.125143 -0.220323 7.7892e-20)
(-0.135953 -0.261229 1.74963e-20)
(-0.144415 -0.306652 2.93671e-20)
(-0.150226 -0.356216 -4.49563e-20)
(-0.153057 -0.408828 -4.43913e-20)
(-0.152525 -0.462522 2.64621e-20)
(-0.14818 -0.514278 -5.39344e-20)
(-0.139554 -0.559876 -9.08111e-21)
(-0.126371 -0.594013 8.41963e-20)
(-0.10873 -0.610961 4.25001e-20)
(-0.0868461 -0.605621 -5.10626e-20)
(-0.063426 -0.575145 1.49951e-19)
(-0.00413735 0.0124083 2.1939e-20)
(-0.0116009 0.0137998 4.74089e-19)
(-0.0225994 0.000546933 -3.06499e-20)
(-0.0354449 -0.0206882 3.1486e-19)
(-0.0494441 -0.045842 8.2471e-20)
(-0.0640345 -0.0729013 -8.33652e-20)
(-0.0785332 -0.101378 -5.9087e-20)
(-0.0922838 -0.131763 1.10804e-19)
(-0.104733 -0.164993 -3.87224e-20)
(-0.115457 -0.202025 3.53984e-19)
(-0.124156 -0.243558 -1.16343e-19)
(-0.130629 -0.28987 4.50516e-19)
(-0.134734 -0.340713 7.35822e-21)
(-0.136352 -0.395194 1.96786e-20)
(-0.135342 -0.451622 -1.85812e-19)
(-0.131499 -0.507289 -1.16362e-19)
(-0.124575 -0.558245 2.20312e-19)
(-0.114461 -0.599229 -1.88071e-19)
(-0.101174 -0.623991 -1.61168e-19)
(-0.0841428 -0.626005 -2.03987e-20)
(-0.0665552 -0.600741 4.49066e-20)
(-0.00528739 0.0158123 1.089e-19)
(-0.0135031 0.0223824 -1.53796e-19)
(-0.0240307 0.0129805 -8.54e-20)
(-0.0357033 -0.00553164 -3.24243e-19)
(-0.0480596 -0.0288929 -1.08738e-19)
(-0.0606475 -0.0548784 3.45882e-19)
(-0.0728449 -0.0827938 6.3537e-20)
(-0.0840315 -0.11295 1.49549e-19)
(-0.0936888 -0.146143 -1.46531e-19)
(-0.101439 -0.183238 6.76165e-20)
(-0.107053 -0.224902 5.5632e-20)
(-0.110435 -0.271438 -1.80967e-19)
(-0.111593 -0.322684 3.11968e-19)
(-0.110615 -0.377918 -4.73279e-20)
(-0.107625 -0.435709 3.1509e-19)
(-0.102733 -0.493712 1.24531e-19)
(-0.0960182 -0.548397 -1.03054e-19)
(-0.0876824 -0.594814 -1.02996e-19)
(-0.0778227 -0.62648 -5.75693e-20)
(-0.0650959 -0.63564 -9.60462e-20)
(-0.0525456 -0.616208 9.92556e-20)
(-0.00651878 0.0187215 7.55088e-20)
(-0.0155309 0.0300273 1.16059e-19)
(-0.0254104 0.0243495 1.13455e-19)
(-0.0355909 0.00857238 -1.84038e-20)
(-0.0458815 -0.0129269 4.29167e-19)
(-0.0559595 -0.0377469 -2.52735e-19)
(-0.0652817 -0.0649827 2.99774e-19)
(-0.0732675 -0.0947538 -4.03387e-19)
(-0.0794253 -0.127693 1.50381e-21)
(-0.0834096 -0.164552 -2.13681e-19)
(-0.0850393 -0.205932 -2.74229e-20)
(-0.0842952 -0.252122 -5.63807e-20)
(-0.0813073 -0.303 -4.28511e-19)
(-0.0763391 -0.357949 1.12439e-19)
(-0.0697622 -0.415744 9.35757e-20)
(-0.0620053 -0.474377 2.39833e-19)
(-0.0535249 -0.530811 -7.7684e-20)
(-0.0448991 -0.580636 3.32744e-20)
(-0.0364957 -0.617556 8.221e-20)
(-0.0264505 -0.633139 -1.93892e-19)
(-0.0162008 -0.620028 -6.85523e-20)
(-0.00776053 0.0210286 -2.06847e-19)
(-0.0175673 0.0364758 1.9566e-19)
(-0.0266469 0.0343024 -1.89906e-19)
(-0.0350686 0.0212216 -8.28948e-20)
(-0.0429379 0.00162889 4.82096e-21)
(-0.0500758 -0.0219362 -2.95454e-20)
(-0.056023 -0.0483888 -2.71533e-19)
(-0.0602541 -0.0776436 -6.32719e-19)
(-0.0622983 -0.11016 -1.89115e-19)
(-0.0618297 -0.146555 -2.96012e-20)
(-0.0586961 -0.18734 -6.6907e-21)
(-0.0529269 -0.232753 4.89849e-19)
(-0.0447345 -0.282665 -2.04284e-20)
(-0.0345126 -0.336499 8.56789e-21)
(-0.0228277 -0.393146 3.55614e-20)
(-0.0103858 -0.450852 9.28861e-20)
(0.002008 -0.507031 -4.33878e-20)
(0.0134145 -0.55793 -1.69166e-19)
(0.022982 -0.597914 -1.39362e-19)
(0.0324388 -0.618806 4.48276e-19)
(0.0444103 -0.61219 -7.09411e-21)
(-0.00894025 0.0226659 2.11721e-19)
(-0.0194908 0.0415406 1.62658e-20)
(-0.0276486 0.0425606 -5.12116e-19)
(-0.0341082 0.0320798 -1.48766e-19)
(-0.0392677 0.0144069 2.93811e-19)
(-0.0431151 -0.00783953 -3.35876e-19)
(-0.0452838 -0.0334174 1.49975e-19)
(-0.0452965 -0.0620485 5.84366e-19)
(-0.042715 -0.0940153 2.75338e-19)
(-0.0372251 -0.129788 2.57314e-19)
(-0.0286879 -0.169769 -1.19156e-19)
(-0.0171582 -0.214123 4.15465e-20)
(-0.00289699 -0.262674 -2.69666e-19)
(0.013619 -0.314829 3.55847e-19)
(0.0316871 -0.369512 5.95426e-21)
(0.0503931 -0.425105 -5.34207e-20)
(0.0686535 -0.479334 9.37395e-20)
(0.0852399 -0.529037 5.99042e-20)
(0.0986289 -0.569602 -1.06893e-19)
(0.109189 -0.594091 -1.78275e-19)
(0.12647 -0.592363 -2.61985e-19)
(-0.00999046 0.0236086 -3.35132e-19)
(-0.0211838 0.0451129 5.85305e-19)
(-0.0283253 0.0489321 2.82153e-19)
(-0.0326821 0.0408917 -7.10475e-20)
(-0.0349287 0.02511 -8.69436e-20)
(-0.03521 0.00421729 -2.02276e-19)
(-0.0332727 -0.0204128 -1.13276e-19)
(-0.0286978 -0.0483396 1.93815e-19)
(-0.0210744 -0.0796688 4.18423e-19)
(-0.0101017 -0.114717 1.96714e-19)
(0.00435399 -0.15377 2.72077e-19)
(0.0222286 -0.196903 2.62758e-19)
(0.0432342 -0.243872 -4.24543e-19)
(0.0668445 -0.294035 1.89866e-19)
(0.0922626 -0.346289 -5.90174e-19)
(0.118433 -0.399053 -6.02073e-19)
(0.144072 -0.450192 -4.51413e-19)
(0.16776 -0.496947 1.79748e-19)
(0.187409 -0.535812 9.92478e-19)
(0.200976 -0.561601 -2.41698e-19)
(0.224457 -0.559267 2.20257e-19)
(-0.0108544 0.023873 5.90358e-19)
(-0.0225411 0.0471648 -2.5599e-19)
(-0.0285935 0.0533147 8.80683e-20)
(-0.0307602 0.047487 4.70232e-19)
(-0.0299572 0.0335179 -4.35158e-19)
(-0.0264788 0.0139862 1.59525e-19)
(-0.0201838 -0.00965641 -2.66447e-19)
(-0.0107222 -0.0368226 -6.49954e-19)
(0.00228743 -0.0674547 9.28132e-19)
(0.0191267 -0.101712 -4.30343e-20)
(0.0399285 -0.13977 2.6012e-19)
(0.0646251 -0.181603 -1.1812e-19)
(0.0929091 -0.226887 2.55573e-19)
(0.124215 -0.274917 -1.32173e-20)
(0.157667 -0.324551 3.12906e-19)
(0.192087 -0.374173 -8.7176e-20)
(0.226045 -0.421689 2.93871e-19)
(0.257942 -0.464576 -5.4583e-19)
(0.285535 -0.500187 -5.31973e-19)
(0.306367 -0.524424 4.14521e-19)
(0.337177 -0.519297 -1.66784e-19)
(-0.0114902 0.0235116 -5.79489e-19)
(-0.0234769 0.0477442 3.62597e-19)
(-0.0283791 0.0556977 -2.88587e-19)
(-0.0283088 0.0517856 1.61189e-19)
(-0.0243732 0.0394911 -1.37852e-19)
(-0.0169983 0.0212807 6.44327e-19)
(-0.00615155 -0.00136144 -5.22753e-20)
(0.0084434 -0.0277307 1.84513e-19)
(0.0271387 -0.0576167 -1.63923e-19)
(0.0501968 -0.0910535 4.29372e-19)
(0.0777313 -0.128083 -8.6065e-19)
(0.109676 -0.168573 -1.04812e-19)
(0.145695 -0.212122 -9.1718e-20)
(0.185154 -0.257959 3.94095e-19)
(0.227087 -0.304895 -4.99229e-19)
(0.270171 -0.351271 6.97264e-20)
(0.312794 -0.395021 4.09148e-19)
(0.353164 -0.433782 1.88788e-19)
(0.389101 -0.46534 2.45672e-20)
(0.417759 -0.486794 -3.3122e-21)
(0.457687 -0.481181 -2.43343e-19)
(-0.0118732 0.0226072 5.23146e-19)
(-0.0239282 0.0469669 -4.16979e-19)
(-0.0276183 0.056154 2.66632e-19)
(-0.0252853 0.0537966 -7.53622e-20)
(-0.0181659 0.0429767 -5.28236e-19)
(-0.00679146 0.0259981 -6.05573e-19)
(0.00877379 0.00433529 6.90246e-19)
(0.0287364 -0.0212216 -1.15346e-19)
(0.0533974 -0.0503398 7.9792e-19)
(0.0830137 -0.0829277 -5.07386e-20)
(0.117683 -0.118889 2.35469e-20)
(0.1573 -0.157995 3.38149e-19)
(0.201475 -0.199761 3.62493e-19)
(0.249467 -0.243342 5.05857e-19)
(0.300143 -0.287493 2.17979e-19)
(0.351965 -0.330549 4.46545e-21)
(0.40306 -0.370489 -7.1068e-20)
(0.451378 -0.405107 1.264e-19)
(0.494917 -0.4323 3.18259e-19)
(0.529686 -0.450644 -2.32637e-19)
(0.576654 -0.445113 2.68891e-19)
(-0.0119978 0.0212627 -1.04031e-19)
(-0.0238581 0.0449996 -6.64831e-19)
(-0.0262576 0.0548303 -3.10304e-19)
(-0.0216321 0.0536134 3.09049e-19)
(-0.0112819 0.0440085 -7.56923e-20)
(0.00419063 0.0281214 -3.08923e-20)
(0.024642 0.00737894 -5.04253e-19)
(0.0502153 -0.017377 1.34833e-19)
(0.0811672 -0.0457118 -6.67654e-19)
(0.117722 -0.0774026 -5.81538e-19)
(0.159952 -0.112243 -3.65711e-19)
(0.207686 -0.149898 -3.79109e-19)
(0.260419 -0.189785 4.46867e-20)
(0.317228 -0.230987 3.00973e-19)
(0.376718 -0.272211 6.00347e-19)
(0.43703 -0.311799 -9.28323e-20)
(0.495945 -0.347817 -4.04703e-19)
(0.551091 -0.378242 -3.34327e-19)
(0.600603 -0.400988 -4.64907e-20)
(0.639481 -0.416112 -1.67304e-19)
(0.689654 -0.410338 5.61883e-20)
(-0.0118749 0.0195905 4.9893e-19)
(-0.0232524 0.0420447 5.4973e-19)
(-0.0242498 0.0519333 3.64301e-19)
(-0.0172707 0.0514049 3.06539e-19)
(-0.00361328 0.0427054 1.22983e-19)
(0.0160873 0.0277232 5.32578e-19)
(0.0416316 0.00780923 7.4973e-19)
(0.0731092 -0.0161702 -8.62545e-19)
(0.110732 -0.0436974 7.7589e-19)
(0.154677 -0.0744361 -3.52752e-20)
(0.20495 -0.108066 -3.35985e-19)
(0.261262 -0.144142 5.43391e-20)
(0.322907 -0.181983 4.37567e-19)
(0.388669 -0.220597 3.06579e-19)
(0.45677 -0.258657 -3.68995e-19)
(0.524925 -0.294537 3.39773e-19)
(0.590497 -0.326433 -6.38986e-20)
(0.650802 -0.352561 -6.97107e-21)
(0.704004 -0.370957 6.88667e-20)
(0.744761 -0.382702 1.18867e-19)
(0.79403 -0.376289 -1.96124e-19)
(-0.0115281 0.0177032 -1.11482e-18)
(-0.0221139 0.0383222 3.81115e-19)
(-0.0215468 0.0477101 -3.36253e-19)
(-0.0120926 0.0474033 -6.29355e-19)
(0.00501318 0.0392662 -4.92374e-19)
(0.0291415 0.0249682 -2.58245e-19)
(0.060063 0.00576732 -7.86353e-19)
(0.0978246 -0.0174666 8.89178e-20)
(0.142586 -0.0441488 4.4981e-19)
(0.194449 -0.0738425 3.47771e-20)
(0.253293 -0.106114 4.17593e-19)
(0.318619 -0.140407 3.87027e-19)
(0.389404 -0.175941 4.66066e-19)
(0.464 -0.211659 7.16128e-19)
(0.540119 -0.246227 3.93771e-20)
(0.61496 -0.278094 -3.59738e-19)
(0.685461 -0.305642 -1.92636e-19)
(0.748733 -0.32736 -7.82425e-19)
(0.802891 -0.341621 -7.43409e-20)
(0.843189 -0.34992 -1.61367e-19)
(0.887804 -0.342695 1.8107e-19)
(-0.0109889 0.0157047 3.13884e-19)
(-0.0204534 0.0340507 4.53988e-19)
(-0.0180906 0.04243 -2.81073e-19)
(-0.00595014 0.0418876 2.22036e-19)
(0.0148451 0.0339597 9.19042e-19)
(0.0437082 0.0201109 2.7119e-19)
(0.0804042 0.00150118 3.67139e-19)
(0.124943 -0.0210082 3.60424e-19)
(0.177411 -0.0467779 -7.8557e-19)
(0.237784 -0.0752785 6.65719e-20)
(0.305724 -0.105967 8.18168e-20)
(0.380395 -0.138179 7.37539e-19)
(0.460302 -0.171049 -6.76234e-19)
(0.543217 -0.203481 1.18521e-19)
(0.626233 -0.234176 -5.10175e-19)
(0.706015 -0.261716 2.93412e-19)
(0.77915 -0.284745 2.65763e-19)
(0.842764 -0.302022 -2.79259e-20)
(0.894955 -0.312512 -3.02724e-19)
(0.932492 -0.317516 -2.01747e-19)
(0.969511 -0.309721 7.22542e-20)
(-0.0102897 0.0136824 -1.77184e-19)
(-0.0182783 0.0294317 5.82648e-20)
(-0.0138022 0.0363644 -1.20992e-19)
(0.0013516 0.0351667 -4.33601e-19)
(0.0262089 0.0271122 -8.75926e-20)
(0.060253 0.0134889 3.25412e-19)
(0.103259 -0.00463455 4.91067e-19)
(0.155191 -0.0264091 -9.27577e-20)
(0.216023 -0.0511479 6.18116e-20)
(0.285516 -0.0782366 6.58862e-19)
(0.362987 -0.107032 -6.38055e-19)
(0.447097 -0.136777 -2.0105e-19)
(0.535714 -0.16655 1.4626e-19)
(0.625894 -0.195262 -7.39936e-20)
(0.714075 -0.221713 4.5357e-19)
(0.796459 -0.244689 -1.26776e-19)
(0.869483 -0.263151 4.53033e-20)
(0.930569 -0.276123 3.75164e-19)
(0.977976 -0.283374 3.85279e-19)
(1.01068 -0.285363 8.1339e-20)
(1.03814 -0.277628 1.13013e-19)
(-0.0094569 0.0117021 -6.7551e-20)
(-0.0155806 0.0246366 -4.66432e-19)
(-0.0085717 0.0297704 -1.65107e-19)
(0.0100591 0.0275608 -7.05245e-20)
(0.0395052 0.0190911 1.80921e-19)
(0.0793354 0.00551029 -2.59107e-19)
(0.129334 -0.0121875 -3.53832e-19)
(0.189387 -0.0331621 -8.06676e-19)
(0.259279 -0.0566832 2.38275e-19)
(0.338433 -0.0820615 -9.14127e-19)
(0.425649 -0.108572 7.32428e-19)
(0.518904 -0.1354 -1.02582e-19)
(0.615271 -0.161614 -6.66576e-21)
(0.711033 -0.186203 -2.69926e-19)
(0.802035 -0.208137 -9.11817e-19)
(0.884233 -0.226465 4.64242e-19)
(0.954213 -0.240495 2.43853e-20)
(1.00998 -0.249497 -1.94031e-20)
(1.05022 -0.25412 2.76359e-19)
(1.07639 -0.253206 1.11938e-19)
(1.09312 -0.246669 3.00613e-19)
(-0.00850382 0.00980519 -4.17715e-20)
(-0.0123259 0.0197981 -1.27574e-19)
(-0.00225079 0.0228766 -5.82825e-19)
(0.0204695 0.0193845 -1.174e-18)
(0.0551952 0.010286 3.59672e-19)
(0.101576 -0.00336546 4.75094e-19)
(0.159377 -0.0206275 8.62341e-20)
(0.228343 -0.0406612 6.30824e-19)
(0.307948 -0.0626981 -5.02069e-19)
(0.397107 -0.0859916 -7.82536e-19)
(0.493911 -0.10977 -9.12098e-19)
(0.595478 -0.133211 1.51167e-19)
(0.697994 -0.155452 4.28459e-19)
(0.797022 -0.175629 -3.17469e-19)
(0.888034 -0.192957 3.97338e-19)
(0.967072 -0.206777 -3.4888e-19)
(1.03126 -0.216714 2.03907e-19)
(1.07941 -0.222278 3.38967e-20)
(1.11098 -0.224745 1.55308e-19)
(1.12937 -0.220776 -5.16488e-19)
(1.13423 -0.218197 -3.97688e-19)
(-0.00742594 0.00800891 -2.09485e-19)
(-0.00844555 0.0150075 -6.14526e-19)
(0.0053497 0.0158747 9.21981e-20)
(0.0329213 0.010932 1.04528e-19)
(0.0737738 0.00108957 2.37218e-19)
(0.127605 -0.0126511 9.99075e-19)
(0.194103 -0.0293752 -4.31633e-19)
(0.272754 -0.0482387 2.22253e-19)
(0.362561 -0.0684456 4.24609e-19)
(0.46173 -0.0892241 -1.5247e-19)
(0.567449 -0.109809 4.27733e-19)
(0.675854 -0.129446 -9.13209e-19)
(0.782275 -0.14742 5.1633e-19)
(0.881758 -0.163096 3.67523e-20)
(0.969759 -0.175967 -3.48868e-19)
(1.04282 -0.185669 -1.39694e-19)
(1.09899 -0.192065 1.63324e-19)
(1.13811 -0.194871 -5.50847e-19)
(1.16075 -0.195386 4.36076e-19)
(1.17105 -0.188968 -5.40711e-19)
(1.1633 -0.195225 -3.98032e-20)
(-0.00619769 0.00630969 8.5851e-19)
(-0.0038337 0.0103172 6.56421e-20)
(0.0144558 0.00891668 -2.75124e-20)
(0.0477784 0.00246813 -6.32274e-19)
(0.0957347 -0.00811923 -2.87497e-19)
(0.158007 -0.0218566 -4.68829e-19)
(0.234097 -0.0378365 4.1654e-20)
(0.32308 -0.05521 5.66742e-19)
(0.42328 -0.0731779 -1.46816e-19)
(0.531986 -0.0909922 2.01027e-20)
(0.64533 -0.107967 -4.89609e-19)
(0.758459 -0.123504 -8.02859e-19)
(0.866024 -0.137113 1.70985e-19)
(0.962911 -0.148438 -5.68286e-19)
(1.04501 -0.157254 4.91971e-19)
(1.10977 -0.163441 4.428e-19)
(1.15645 -0.167016 3.64985e-19)
(1.18601 -0.167821 -2.3182e-20)
(1.20024 -0.166731 -2.33554e-20)
(1.20298 -0.160262 5.32915e-19)
(1.1927 -0.163348 -7.15378e-20)
(-0.00477228 0.00468854 -2.80898e-19)
(0.00165111 0.00574848 -9.03132e-19)
(0.0253215 0.0021181 -2.77176e-19)
(0.0654072 -0.00577591 -1.70857e-19)
(0.12153 -0.0169873 6.58683e-19)
(0.193253 -0.0305107 -2.07807e-19)
(0.279739 -0.0454353 9.16933e-19)
(0.379448 -0.0609212 -9.42645e-20)
(0.489806 -0.0762074 -2.36468e-19)
(0.607001 -0.090639 1.12489e-19)
(0.726053 -0.103696 7.45411e-19)
(0.84126 -0.115017 -6.07257e-20)
(0.946933 -0.124396 1.21736e-18)
(1.03826 -0.131763 7.48583e-19)
(1.11202 -0.13713 4.24053e-19)
(1.1669 -0.140542 2.3641e-19)
(1.20345 -0.142075 3.70208e-19)
(1.22372 -0.141592 1.64388e-19)
(1.23029 -0.139743 -3.01502e-19)
(1.22723 -0.133722 4.67111e-19)
(1.21421 -0.135674 4.02373e-19)
(-0.00308437 0.00311806 -5.91306e-19)
(0.00817869 0.00130279 6.65852e-19)
(0.0382144 -0.00443264 4.46345e-19)
(0.0861525 -0.0135985 -3.68062e-19)
(0.151531 -0.0251919 3.56447e-19)
(0.233648 -0.0381756 -1.41733e-19)
(0.331132 -0.0516406 -4.89839e-19)
(0.441595 -0.0647888 7.78672e-19)
(0.561354 -0.0769593 -2.45376e-19)
(0.685389 -0.0876742 2.07938e-19)
(0.807694 -0.0966666 5.77349e-19)
(0.922017 -0.103874 4.00832e-19)
(1.0228 -0.10939 -5.42057e-19)
(1.10603 -0.113388 -3.81884e-19)
(1.16972 -0.11604 6.64265e-20)
(1.21397 -0.117456 1.73113e-19)
(1.24054 -0.117682 -3.57442e-19)
(1.25233 -0.116557 1.68103e-19)
(1.2525 -0.114487 1.21385e-19)
(1.24495 -0.109128 -3.13085e-19)
(1.22973 -0.110549 4.16857e-19)
(-0.00105464 0.00157026 3.63632e-19)
(0.015937 -0.00302398 4.13499e-19)
(0.0533993 -0.0106601 2.41538e-19)
(0.110312 -0.0208179 3.05505e-19)
(0.185995 -0.0324381 -4.27212e-19)
(0.279295 -0.0444539 -4.4493e-19)
(0.388073 -0.0559845 8.0519e-20)
(0.508861 -0.0663281 -2.79394e-19)
(0.636704 -0.0750053 -8.99354e-20)
(0.765388 -0.0818048 6.0604e-19)
(0.88813 -0.0867821 -6.98475e-19)
(0.998576 -0.0901975 2.70376e-19)
(1.09181 -0.0924083 -3.58176e-19)
(1.16505 -0.0937514 -5.91001e-19)
(1.21776 -0.0944565 6.83932e-19)
(1.2514 -0.0946055 3.1149e-19)
(1.26877 -0.0941566 -9.33452e-20)
(1.27332 -0.0928832 -2.14369e-20)
(1.26841 -0.0909651 9.01084e-20)
(1.25759 -0.0865206 -2.2076e-19)
(1.24148 -0.0875894 -9.45068e-20)
(0.00140414 2.3484e-05 -3.46199e-20)
(0.02512 -0.00722749 -1.90184e-19)
(0.0711213 -0.0164862 7.95333e-19)
(0.138118 -0.0272591 2.80436e-19)
(0.225043 -0.03845 -9.70201e-21)
(0.330074 -0.0489881 -9.60154e-20)
(0.450055 -0.0580704 2.81178e-19)
(0.580226 -0.0651696 2.01071e-19)
(0.714303 -0.0700803 -6.70254e-19)
(0.845045 -0.0729373 -2.62621e-19)
(0.965291 -0.0741536 -6.41404e-19)
(1.06912 -0.0742857 -9.25808e-19)
(1.15274 -0.0738748 9.02622e-19)
(1.21486 -0.0733171 -8.20511e-19)
(1.25645 -0.0728007 -4.40515e-19)
(1.28016 -0.0723082 2.51263e-19)
(1.2895 -0.0716744 -3.61318e-20)
(1.28816 -0.0705977 -2.76581e-19)
(1.27946 -0.0690747 1.09531e-19)
(1.26651 -0.0655675 -2.4711e-21)
(1.2499 -0.0666555 1.12155e-19)
(0.00438113 -0.00153196 -4.96173e-19)
(0.0359149 -0.0112826 -1.14585e-19)
(0.0915909 -0.0218153 -3.08755e-19)
(0.169718 -0.0327385 1.20683e-19)
(0.268646 -0.0429609 5.35888e-19)
(0.38564 -0.0514566 1.98237e-19)
(0.516284 -0.0575768 2.03501e-19)
(0.654392 -0.0610649 -9.50502e-19)
(0.792415 -0.0620809 1.94112e-19)
(0.922419 -0.0611573 1.51352e-19)
(1.03738 -0.0590516 -3.75733e-19)
(1.13233 -0.0565419 1.4501e-19)
(1.20497 -0.0542445 5.37663e-19)
(1.25562 -0.0525076 1.74156e-19)
(1.28661 -0.051398 6.71517e-19)
(1.30148 -0.050757 4.06759e-19)
(1.30413 -0.0502908 -8.26852e-20)
(1.29825 -0.049631 4.88803e-19)
(1.28689 -0.0486316 -7.78521e-20)
(1.27263 -0.0460927 -1.03793e-20)
(1.25612 -0.0472589 -7.1601e-20)
(0.00796196 -0.0030903 7.04539e-20)
(0.0484908 -0.0151348 3.54983e-19)
(0.114969 -0.026522 -1.34689e-19)
(0.205161 -0.0370533 -2.52203e-19)
(0.316619 -0.0457051 4.19698e-20)
(0.445437 -0.0515723 2.7269e-19)
(0.585739 -0.0542601 -1.04772e-19)
(0.72988 -0.0538872 2.55549e-20)
(0.869276 -0.0510518 -2.12852e-19)
(0.995764 -0.0466925 2.31448e-20)
(1.10301 -0.0418472 2.01265e-19)
(1.18746 -0.0374051 -4.78301e-19)
(1.24849 -0.0339401 -1.25242e-19)
(1.28796 -0.0316612 2.10628e-19)
(1.30932 -0.0304637 -8.3827e-19)
(1.31665 -0.0300351 -5.72868e-20)
(1.31398 -0.0299695 2.51519e-19)
(1.30475 -0.0298517 -2.52061e-20)
(1.29164 -0.029443 2.3392e-19)
(1.27672 -0.0278281 5.1885e-20)
(1.26054 -0.0291715 -3.34902e-20)
(0.0122244 -0.00462885 -1.02517e-19)
(0.0629888 -0.0186953 6.93435e-20)
(0.141358 -0.0304452 3.77897e-19)
(0.244394 -0.0399757 3.20204e-19)
(0.368618 -0.0464165 -2.66197e-19)
(0.508716 -0.0490852 -2.33478e-19)
(0.657226 -0.0479574 3.93385e-19)
(0.805144 -0.0436249 -1.69571e-19)
(0.943237 -0.0371614 -1.19566e-19)
(1.06366 -0.0298674 5.61918e-20)
(1.1613 -0.0229541 1.25703e-19)
(1.23429 -0.0172946 -5.65901e-19)
(1.28373 -0.0133137 -2.06112e-19)
(1.31281 -0.0110181 -1.00764e-19)
(1.32576 -0.010112 -4.04286e-19)
(1.32693 -0.0101414 3.89116e-19)
(1.32018 -0.0106178 7.15546e-20)
(1.3086 -0.011104 2.744e-19)
(1.29444 -0.0113101 -6.60529e-20)
(1.27929 -0.0105764 7.41134e-20)
(1.26361 -0.0121215 -1.90623e-19)
(0.0172351 -0.00610838 5.34821e-19)
(0.0795134 -0.0218413 1.30113e-20)
(0.170786 -0.0333879 -2.88646e-19)
(0.287247 -0.041255 2.028e-19)
(0.424149 -0.0448346 -5.05447e-19)
(0.574574 -0.0437906 8.99587e-20)
(0.729451 -0.0385905 -1.08774e-19)
(0.878682 -0.0303718 8.65913e-19)
(1.01288 -0.0206716 5.77507e-19)
(1.1251 -0.0110578 4.75744e-19)
(1.21183 -0.00278103 6.82674e-20)
(1.27305 0.0034263 3.98615e-19)
(1.31144 0.00736902 2.21829e-19)
(1.33123 0.00927488 -1.36544e-19)
(1.33709 0.00962315 -7.9049e-20)
(1.33337 0.00898104 -2.21697e-19)
(1.32362 0.00788493 1.39151e-19)
(1.31049 0.00677054 2.93982e-19)
(1.29578 0.0059428 6.76989e-20)
(1.28068 0.00584859 1.27749e-19)
(1.26552 0.00406924 1.48396e-19)
(0.023047 -0.00747468 -5.72394e-19)
(0.0981253 -0.024419 4.41597e-19)
(0.203203 -0.0351223 -1.86977e-19)
(0.333433 -0.040627 -8.13031e-20)
(0.482578 -0.0407168 -9.34443e-20)
(0.641989 -0.0355406 -1.28445e-19)
(0.801103 -0.0261671 -2.73829e-19)
(0.949127 -0.0143106 -1.43774e-19)
(1.0771 -0.00190417 -1.71125e-19)
(1.17946 0.0093497 -1.1273e-20)
(1.25459 0.0183028 -8.20952e-20)
(1.30428 0.0244672 5.0379e-19)
(1.33253 0.0279275 9.27199e-20)
(1.34427 0.0291477 1.4619e-19)
(1.34435 0.0287638 4.1554e-19)
(1.33688 0.0274193 -3.03815e-19)
(1.325 0.0256652 -2.63383e-20)
(1.3109 0.0239166 -3.12782e-19)
(1.29599 0.0224672 -2.87244e-19)
(1.2811 0.0215897 -1.6154e-19)
(1.26646 0.0195537 -2.06067e-19)
(0.0296975 -0.00866091 2.16136e-19)
(0.118835 -0.02625 -6.38909e-20)
(0.238474 -0.0354007 3.56928e-20)
(0.38255 -0.0378274 -6.80127e-20)
(0.543152 -0.033854 1.82354e-19)
(0.709874 -0.0242538 9.93573e-20)
(0.87092 -0.0107773 -5.80337e-19)
(1.01532 0.00430821 2.97008e-19)
(1.13511 0.0187913 -9.95581e-20)
(1.22652 0.030989 9.67897e-19)
(1.28991 0.0399861 -4.12447e-19)
(1.32871 0.0456139 5.29674e-20)
(1.34793 0.0482543 3.23838e-19)
(1.35291 0.0485866 -2.17589e-19)
(1.34839 0.0473647 -3.06787e-19)
(1.33814 0.0452704 1.89152e-19)
(1.32481 0.0428411 6.06604e-21)
(1.31017 0.040458 -1.12882e-19)
(1.29528 0.0383855 -4.32977e-19)
(1.28067 0.0367631 3.52562e-21)
(1.26651 0.0344423 -1.63798e-19)
(0.0372063 -0.00959033 5.55375e-20)
(0.1416 -0.0271393 -5.47798e-20)
(0.276373 -0.0339677 4.45919e-19)
(0.434084 -0.0326093 -1.99383e-20)
(0.605023 -0.0240862 -3.21681e-19)
(0.777125 -0.00992261 1.59348e-19)
(0.93776 0.00741553 -5.82568e-20)
(1.07636 0.0251897 -1.44479e-19)
(1.18647 0.0410648 2.37094e-19)
(1.26636 0.0535341 -3.68864e-19)
(1.31833 0.0620218 -3.03473e-19)
(1.34715 0.0667201 2.39621e-20)
(1.35856 0.0682985 -2.28812e-19)
(1.35799 0.0676137 2.19079e-19)
(1.34992 0.0654949 2.9593e-20)
(1.33765 0.0626275 4.70958e-20)
(1.32339 0.0595145 -6.80733e-20)
(1.30851 0.0564951 1.17677e-19)
(1.29376 0.0537938 2.56357e-19)
(1.27948 0.0514558 -1.38295e-19)
(1.26573 0.0488197 1.34608e-19)
(0.0455736 -0.0101791 -4.8891e-20)
(0.166319 -0.0268839 1.87185e-19)
(0.316587 -0.0305746 2.97768e-19)
(0.487425 -0.024759 -1.00261e-19)
(0.667286 -0.0113152 -2.12651e-19)
(0.842678 0.00738662 1.81329e-19)
(1.00064 0.0281891 -6.57156e-20)
(1.13161 0.0480168 -3.92514e-20)
(1.23102 0.0645862 5.03049e-19)
(1.2993 0.0767094 7.23008e-20)
(1.34048 0.0842246 -1.28467e-19)
(1.36041 0.0876954 -5.0017e-20)
(1.36522 0.0880477 3.69538e-19)
(1.36021 0.0862697 -7.54367e-20)
(1.34945 0.0832242 2.08761e-19)
(1.33578 0.0795716 -2.35653e-19)
(1.32096 0.0757671 2.38745e-19)
(1.30604 0.072105 -1.23753e-19)
(1.29151 0.0687645 5.85204e-20)
(1.27756 0.0657331 5.5848e-20)
(1.26416 0.0627466 -6.35729e-20)
(0.0547788 -0.0103395 1.5379e-19)
(0.192831 -0.025282 6.39296e-20)
(0.358718 -0.0249931 -5.82706e-20)
(0.541886 -0.0141104 2.35219e-19)
(0.729018 0.00448849 2.97264e-19)
(0.905555 0.0275391 -4.02524e-19)
(1.05879 0.0512787 -1.43995e-19)
(1.18068 0.0724699 3.12085e-19)
(1.26884 0.0890578 -3.3759e-19)
(1.32579 0.10029 -1.05682e-19)
(1.35706 0.106462 -1.31913e-19)
(1.36926 0.10849 -8.38391e-20)
(1.3686 0.107513 -1.04597e-20)
(1.36011 0.104601 3.60412e-20)
(1.34738 0.100614 -5.61409e-20)
(1.33277 0.0961668 1.15714e-19)
(1.31767 0.0916601 5.64166e-20)
(1.30283 0.0873431 6.27787e-20)
(1.28856 0.083349 2.27918e-19)
(1.27494 0.0796405 -5.38803e-21)
(1.26184 0.0762655 -1.08752e-19)
(0.0647788 -0.00998249 -3.11046e-19)
(0.220919 -0.0221419 1.54108e-19)
(0.402295 -0.0170276 -2.60311e-19)
(0.596728 -0.000555871 9.18492e-20)
(0.789313 0.0232833 1.57544e-19)
(0.964897 0.0503413 1.22297e-19)
(1.11162 0.076394 -2.46339e-20)
(1.2234 0.0982407 -1.83615e-19)
(1.30017 0.114219 2.74099e-19)
(1.34638 0.1241 2.3631e-20)
(1.36875 0.128641 -1.96775e-19)
(1.37436 0.12908 9.16999e-21)
(1.36927 0.126713 1.73233e-19)
(1.35811 0.122649 -8.08705e-20)
(1.34397 0.117712 9.99592e-20)
(1.32877 0.11246 -1.21163e-19)
(1.31358 0.107235 4.07626e-20)
(1.29891 0.102246 2.11346e-21)
(1.28493 0.0975817 1.72017e-19)
(1.27161 0.0932075 -7.43423e-20)
(1.25878 0.0894034 3.16975e-20)
(0.0755079 -0.00902161 7.12571e-20)
(0.25031 -0.0172909 4.05104e-21)
(0.446786 -0.00652587 1.44055e-19)
(0.651187 0.0159479 -8.94018e-20)
(0.84732 0.0449601 -9.11403e-20)
(1.01999 0.0755533 -3.12482e-20)
(1.15875 0.103233 -1.13912e-20)
(1.25979 0.125041 3.57297e-19)
(1.32537 0.139849 -4.1196e-20)
(1.36163 0.147999 -1.91514e-19)
(1.37619 0.150701 2.03985e-21)
(1.37627 0.149458 3.22702e-20)
(1.36767 0.145671 -1.15394e-19)
(1.3545 0.140445 -6.29609e-21)
(1.3394 0.134551 -1.23318e-19)
(1.32388 0.128478 -1.76453e-19)
(1.30873 0.122517 -1.02883e-19)
(1.29428 0.116835 -1.99975e-19)
(1.2806 0.111482 -5.02477e-20)
(1.2676 0.106449 3.64384e-20)
(1.25501 0.102175 1.59693e-20)
(0.0868776 -0.00737573 -8.05934e-20)
(0.280682 -0.0105826 -1.09409e-19)
(0.491615 0.00661294 -3.00425e-19)
(0.704502 0.0353771 4.98176e-20)
(0.902271 0.0693488 1.88432e-19)
(1.07027 0.102901 8.70128e-20)
(1.19996 0.131493 -2.21097e-19)
(1.29001 0.152608 1.02678e-19)
(1.34487 0.165759 -2.42913e-20)
(1.37211 0.171881 -1.40565e-20)
(1.37992 0.172596 -7.37021e-20)
(1.37546 0.169618 9.59026e-20)
(1.36413 0.1644 -2.65407e-20)
(1.34951 0.158009 2.08271e-20)
(1.33379 0.151147 1.61842e-20)
(1.31813 0.144236 -2.42252e-21)
(1.30312 0.137515 -2.84046e-21)
(1.28895 0.131116 -9.21561e-20)
(1.27559 0.125056 -8.10035e-20)
(1.26289 0.119369 6.69429e-20)
(1.25054 0.114583 -5.29224e-20)
(0.0987781 -0.00497243 2.22425e-19)
(0.311673 -0.00190429 1.01187e-19)
(0.536181 0.022433 1.07018e-19)
(0.755942 0.0576418 -3.81044e-20)
(0.953497 0.0962272 1.64227e-19)
(1.11533 0.132089 -1.57204e-19)
(1.23519 0.16088 8.24703e-20)
(1.31431 0.180703 6.01922e-20)
(1.35912 0.191789 6.28085e-21)
(1.37833 0.195659 -4.88894e-20)
(1.38042 0.194293 -3.39288e-20)
(1.37231 0.189555 4.47442e-20)
(1.35889 0.182904 -8.08722e-21)
(1.34327 0.175345 3.32224e-20)
(1.32719 0.167502 -4.65689e-20)
(1.31156 0.159729 -8.3972e-20)
(1.29676 0.152223 -2.56236e-20)
(1.28289 0.145084 5.4787e-20)
(1.26986 0.1383 -6.01962e-20)
(1.25748 0.131959 3.5478e-20)
(1.24539 0.12662 8.21615e-21)
(0.11108 -0.00175102 -6.37113e-20)
(0.342887 0.00881779 -8.97354e-20)
(0.579875 0.0409187 -8.94802e-20)
(0.804823 0.0825906 -6.09534e-20)
(1.00044 0.125331 -2.69453e-20)
(1.15488 0.162808 6.81887e-20)
(1.26449 0.191111 -2.05415e-20)
(1.33299 0.209112 3.56522e-20)
(1.36857 0.217803 -9.66156e-20)
(1.38075 0.219259 6.25929e-20)
(1.37807 0.215758 1.84906e-20)
(1.36708 0.209254 3.26542e-20)
(1.35214 0.201174 -2.7187e-20)
(1.33586 0.192442 3.22801e-20)
(1.31964 0.183601 1.71736e-20)
(1.30415 0.174944 8.25167e-21)
(1.28963 0.166628 -7.76739e-21)
(1.2761 0.158723 -5.02117e-20)
(1.26343 0.151199 4.78689e-20)
(1.25138 0.1442 -1.43534e-20)
(1.23957 0.138271 -1.47044e-20)
(0.123637 0.00233472 -1.41409e-21)
(0.373911 0.0216143 -3.00163e-20)
(0.6221 0.061995 9.66167e-21)
(0.850531 0.110017 -5.99511e-21)