/*--------------------------------*- C++ -*----------------------------------*\
  =========                 |
  \\      /  F ield         | OpenFOAM: The Open Source CFD Toolbox
   \\    /   O peration     | Website:  https://openfoam.org
    \\  /    A nd           | Version:  7
     \\/     M anipulation  |
\*---------------------------------------------------------------------------*/
FoamFile
{
    version     2.0;
    format      ascii;
    class       surfaceScalarField;
    location    "70";
    object      phi;
}
// * * * * * * * * * * * * * * * * * * * * * * * * * * * * * * * * * * * * * //

dimensions      [0 3 -1 0 0 0 0];

internalField   nonuniform List<scalar> 
254
(
-0.00421164
-0.00201421
-0.00197873
-0.00396181
-0.00406471
-0.00212565
-0.00193367
-0.00372838
-0.00207868
-0.0038168
-0.00188462
-0.00350543
-0.00202508
-0.00358792
-0.00182826
-0.00328678
-0.00197214
-0.00336155
-0.0019073
-0.00314134
-0.00183338
-0.00292742
-0.00175052
-0.00271991
-0.00277643
-0.00181122
-0.00256806
-0.00171298
-0.00236615
-0.0024125
-0.00176333
-0.00221013
-0.0016511
-0.00201407
-0.00205088
-0.00169172
-0.00185472
-0.00156703
-0.00166456
-0.00169264
-0.00159865
-0.0015027
-0.00152805
-0.00162719
-0.00133858
-0.0014865
-0.0011547
-0.00117246
-0.00150702
-0.000989331
-0.00100457
-0.00152463
-0.000822453
-0.000835166
-0.0015393
-0.000654318
-0.000664488
-0.00138187
-0.000478456
-0.00155101
-0.000485175
-0.000492789
-0.00138985
-0.000310817
-0.00155975
-0.000315274
-0.000320324
-0.0013951
-0.000142679
-0.00156551
-0.000144869
-0.00139762
2.57056e-05
2.5788e-05
-0.00139739
0.000194083
0.000196441
-0.00139441
0.000362201
-0.0015648
0.000366836
0.000372098
-0.00138868
-0.00155857
0.000536719
0.000544562
-0.00154933
0.000705834
0.000716256
-0.0015371
0.000873931
0.000886926
-0.00152188
0.00104076
0.00105632
-0.00150369
0.00120606
0.00122418
-0.00148255
0.00139026
-0.00162251
0.00155431
0.00158017
-0.00159323
0.0017161
0.00174474
-0.00156082
0.00190678
-0.00168457
0.00206605
0.0021036
-0.00164298
0.00226282
-0.00175409
0.00241876
0.00246603
-0.00170258
0.00262154
-0.00179946
0.00277328
0.00283088
-0.00173737
-0.00188823
0.00298174
0.00304691
-0.00181858
0.00319665
-0.00189054
0.00341767
-0.00195343
0.00356118
0.00364476
-0.00186363
-0.00200277
0.00378389
0.00387276
-0.00191076
-0.0020562
0.0040182
0.004126
-0.00195926
0.00427742
-0.00211069
-0.00199974
-0.00210006
-0.0198034
-0.00210128
-0.020335
-0.0020629
-0.0205046
-0.0020045
-0.0205945
-0.00194114
-0.0205521
-0.00185709
-0.0206667
-0.00174074
-0.0207548
-0.00162908
-0.0206036
-0.00152955
-0.0205151
-0.00141459
-0.0206013
-0.00127462
-0.0206801
-0.00113496
-0.0205806
-0.00100986
-0.0204415
-0.00089049
-0.0203763
-0.000769435
-0.0203325
-0.000627641
-0.0204477
-0.000493484
-0.0203259
-0.000378368
-0.0201944
-0.000257529
-0.0201985
-0.000117176
-0.0203416
-0.0201523
-0.00219497
-0.00219549
-0.00216005
-0.00210392
-0.00204309
-0.00195175
-0.00182428
-0.00171278
-0.00161028
-0.00148353
-0.00133434
-0.00118559
-0.00106303
-0.000931195
-0.000812582
-0.000653691
-0.000517401
-0.000396506
-0.000274113
-0.000119393
-0.00218813
0.0200447
-0.00219359
0.0205952
-0.00216785
0.0208038
-0.00213169
0.0208552
-0.00205384
0.0210256
-0.00194196
0.0210604
-0.00184011
0.0208871
-0.0017345
0.0208034
-0.00160466
0.0208201
-0.00148378
0.0206575
-0.0013466
0.0206621
-0.00122861
0.0204956
-0.00109482
0.0205046
-0.000973751
0.020445
-0.000813735
0.0205507
-0.000678346
-0.00055426
-0.00043033
-0.000272446
-0.000118878
-0.00209263
-0.00210041
-0.002072
-0.0020312
-0.00195943
-0.0018536
-0.00175001
-0.00164767
-0.00152975
-0.00141002
-0.00128642
-0.00116721
-0.00104806
-0.00092398
)
;

boundaryField
{
    inlet
    {
        type            calculated;
        value           nonuniform 0();
    }
    outlet
    {
        type            calculated;
        value           nonuniform 0();
    }
    cylinder
    {
        type            calculated;
        value           nonuniform 0();
    }
    top
    {
        type            symmetryPlane;
        value           uniform 0;
    }
    bottom
    {
        type            symmetryPlane;
        value           uniform 0;
    }
    defaultFaces
    {
        type            empty;
        value           nonuniform 0();
    }
    procBoundary5to4
    {
        type            processor;
        value           nonuniform List<scalar> 
106
(
-0.00391871
-0.00222467
-0.00216509
-0.00367679
-0.00211859
-0.00344147
-0.0020557
-0.00321314
-0.00198329
-0.00299143
-0.0019015
-0.0019662
-0.00262146
-0.00186854
-0.0019224
-0.00225343
-0.00181035
-0.00185398
-0.00188863
-0.00172911
-0.00176324
-0.00179406
-0.00136118
-0.00165262
-0.00167491
-0.00169404
-0.00170998
-0.00172271
-0.00173222
-0.00173849
-0.000147346
-0.00156827
-0.00156804
-0.000199121
-0.00173778
-0.00173103
-0.00172102
-0.00170777
-0.00169128
-0.00167156
-0.00164863
-0.0014133
-0.00178938
-0.00175781
-0.00172286
-0.00194135
-0.00184682
-0.0018022
-0.00230696
-0.00191316
-0.00185809
-0.00267596
-0.00195439
-0.00289282
-0.00204232
-0.00196832
-0.00326966
-0.00203855
-0.00349873
-0.00209946
-0.00373452
-0.002141
-0.00397353
-0.00220866
-0.0197341
-0.0203345
-0.02054
-0.0206507
-0.020613
-0.0207581
-0.0208822
-0.0207151
-0.0206176
-0.020728
-0.0208293
-0.0207294
-0.0205641
-0.0205081
-0.0204511
-0.0206066
-0.0204622
-0.0203152
-0.0203209
-0.0204963
-0.0202717
-0.0199673
-0.0205898
-0.0208296
-0.0208914
-0.0211034
-0.0211723
-0.020989
-0.020909
-0.02095
-0.0207783
-0.0207993
-0.0206136
-0.0206383
-0.0205661
-0.0207108
-0.0205496
-0.0204259
-0.0204344
-0.0206028
-0.0205656
-0.0203581
)
;
    }
    procBoundary5to6
    {
        type            processor;
        value           nonuniform List<scalar> 
115
(
0.00435013
0.00187572
0.00410173
0.0018388
0.00386692
0.00179512
0.00364436
0.00174569
0.00342782
0.00168722
0.00176185
0.00307424
0.00168655
0.00286786
0.00160257
0.00165937
0.00251872
0.00156041
0.00160731
0.00217044
0.00149473
0.00153238
0.00182395
0.00140764
0.00143678
0.00146307
0.00131833
0.00132287
0.00134165
0.00135776
0.00137117
0.000645345
0.00121498
0.00122221
0.00122697
0.00122923
0.00122901
0.00122629
0.00122108
0.000529806
0.00138021
0.001369
0.00135506
0.00133839
0.00131901
0.0013696
0.00145846
0.00143145
0.00140154
0.00187538
0.0015253
0.00148672
0.00222232
0.00159815
0.00155013
0.00257121
0.00164772
0.0015896
0.00292106
0.00167195
0.00312837
0.00174543
0.00334176
0.00180992
0.00172553
0.00369929
0.00177277
0.00392188
0.00181678
0.00416068
0.00185746
0.00441971
0.0198892
0.0203363
0.0204662
0.0205361
0.0204888
0.0205827
0.0206384
0.0204919
0.0204156
0.0204863
0.0205401
0.0204409
0.0203164
0.0202569
0.0202114
0.0203059
0.0201917
0.0200792
0.0200777
0.0202013
0.0200352
0.0204142
0.0203019
0.0203104
0.0204449
0.0204121
0.0202392
0.0201376
0.020603
0.0207754
0.0208144
0.0209538
0.0209546
0.0207835
0.020701
0.0207022
0.0205377
0.0205385
0.0203764
0.0203854
0.0203209
-0.000781786
0.0204085
)
;
    }
}


// ************************************************************************* //
