/*--------------------------------*- C++ -*----------------------------------*\
  =========                 |
  \\      /  F ield         | OpenFOAM: The Open Source CFD Toolbox
   \\    /   O peration     | Website:  https://openfoam.org
    \\  /    A nd           | Version:  7
     \\/     M anipulation  |
\*---------------------------------------------------------------------------*/
FoamFile
{
    version     2.0;
    format      ascii;
    class       surfaceScalarField;
    location    "55";
    object      phi;
}
// * * * * * * * * * * * * * * * * * * * * * * * * * * * * * * * * * * * * * //

dimensions      [0 3 -1 0 0 0 0];

internalField   nonuniform List<scalar> 
4488
(
-4.44077e-05
4.44077e-05
1.92062e-13
-0.000121487
7.70792e-05
3.96635e-13
-0.00020183
8.03432e-05
4.82012e-13
-0.000263306
6.14757e-05
4.67305e-13
-0.00028671
2.34039e-05
4.59091e-13
-0.000253996
-3.2714e-05
4.60885e-13
-0.000147411
-0.000106584
4.81572e-13
4.8739e-05
-0.00019615
5.04746e-13
0.000341272
-0.000292533
5.78427e-13
-0.000365774
6.63566e-13
0.000707046
-3.87306e-05
8.31383e-05
-0.000101532
0.00013988
-0.00015907
0.000137882
-0.000188624
9.10295e-05
-0.00016997
4.74973e-06
-8.39812e-05
-0.000118703
8.86952e-05
-0.000279261
0.00036619
-0.000473645
0.000760744
-0.000687087
-0.00086343
0.0012584
-2.79102e-05
0.000111048
-6.31945e-05
0.000175165
-7.65468e-05
0.000151234
-4.40335e-05
5.85162e-05
5.62013e-05
-9.54851e-05
0.000245768
-0.000308269
0.000546497
-0.00057999
0.000980409
-0.000907557
0.00156676
-0.00127343
-0.00160442
0.00230775
-1.29091e-05
0.000123957
-9.15752e-06
0.000171413
4.03196e-05
0.000101757
0.000161385
-6.25488e-05
0.000378442
-0.000312543
0.000715672
-0.000645499
0.00119756
-0.00106188
0.00184927
-0.00155927
0.00269537
-0.00211953
-0.00266192
0.00375286
5.44947e-06
0.000118508
5.70376e-05
0.000119825
0.000184789
-2.5994e-05
0.000416245
-0.000294005
0.000778457
-0.000674755
0.00129784
-0.00116488
0.00200004
-0.00176408
0.0029102
-0.00246942
0.00405249
-0.00326182
-0.00405666
0.00544723
2.58607e-05
9.26474e-05
0.00013253
1.31555e-05
0.000350084
-0.000243548
0.000707961
-0.000651882
0.00123485
-0.00120165
0.00195755
-0.00188758
0.00289926
-0.0027058
0.00407908
-0.00364924
0.00551241
-0.00469514
-0.00574911
0.00720485
4.79979e-05
4.46494e-05
0.000214576
-0.000153423
0.000529869
-0.000558841
0.00102367
-0.00114568
0.001724
-0.00190199
0.00265419
-0.00281776
0.00382945
-0.00388105
0.00525448
-0.00507427
0.00692367
-0.00636434
-0.0076379
0.00881247
7.14433e-05
-2.67938e-05
0.000301251
-0.00038323
0.000718126
-0.000975716
0.00134967
-0.00177723
0.00221892
-0.00277124
0.00333995
-0.00393879
0.00471403
-0.00525513
0.00632617
-0.00668642
0.00813496
-0.00817312
-0.00955843
0.0100555
9.60338e-05
-0.000122828
0.000390549
-0.000677745
0.000908165
-0.00149333
0.00166985
-0.00253891
0.00268717
-0.00378856
0.00395722
-0.00520883
0.00546037
-0.00675828
0.00716301
-0.00838905
0.00904035
-0.0100505
-0.0117265
0.0112084
0.000121495
-0.000244323
0.000479858
-0.00103611
0.00109151
-0.00210498
0.00196468
-0.00341209
0.00309182
-0.00491569
0.00444516
-0.00656217
0.00597775
-0.00829088
0.00763067
-0.010042
0.00934744
-0.0117672
-0.0134602
0.0110812
0.000147166
-0.000391489
0.000565334
-0.00145428
0.0012573
-0.00279695
0.0022119
-0.00436669
0.00339604
-0.00609983
0.0047541
-0.00792024
0.00621502
-0.00975179
0.007705
-0.0115319
0.00916086
-0.0132231
-0.0148202
0.0105208
0.000171882
-0.000563371
0.000641715
-0.00192411
0.0013927
-0.00354793
0.00238846
-0.00536245
0.00356779
-0.00727916
0.00485098
-0.00920343
0.00615436
-0.0110552
0.00740699
-0.0127846
0.00856228
-0.0143784
-0.0158511
0.00959315
0.000193995
-0.000757366
0.000702703
-0.00243282
0.00148432
-0.00432955
0.00247424
-0.00635238
0.00358588
-0.0083908
0.00472548
-0.010343
0.00581205
-0.0121417
0.00679313
-0.0137657
0.00764997
-0.0152352
-0.0165906
0.00838951
0.000211545
-0.00096891
0.000741805
-0.00296308
0.00152053
-0.00510827
0.00245602
-0.00728787
0.00344425
-0.00937903
0.00439072
-0.0112895
0.00523052
-0.0129815
0.00593736
-0.0144725
0.00651898
-0.0158168
-0.0170751
0.00700346
0.000222524
-0.00119143
0.000753367
-0.00349392
0.00149356
-0.00584846
0.00232988
-0.00812419
0.00315213
-0.0102013
0.00387752
-0.0120149
0.00446495
-0.013569
0.00491384
-0.0149214
0.00525058
-0.0161536
-0.0173362
0.00551172
0.000225169
-0.0014166
0.000733491
-0.00400224
0.00140077
-0.00651574
0.00210134
-0.00882476
0.00273049
-0.0108304
0.00322565
-0.01251
0.00357082
-0.0139142
0.00378539
-0.015136
0.00390535
-0.0162735
-0.0173983
0.00396739
0.000218201
-0.0016348
0.000680608
-0.00446465
0.00124487
-0.00708
0.0017835
-0.00936339
0.00220687
-0.0112538
0.00247613
-0.0127793
0.0025969
-0.0140349
0.00260074
-0.0151398
0.00252557
-0.0161984
-0.017277
0.00240428
0.000200992
-0.0018358
0.000595618
-0.00485928
0.00103304
-0.00751742
0.0013942
-0.00972455
0.0016106
-0.0114702
0.00166647
-0.0128352
0.00158318
-0.0139516
0.00139713
-0.0149537
0.00114176
-0.015943
-0.0169776
0.000842371
0.00017364
-0.00200944
0.000481643
-0.00516728
0.000775548
-0.00781133
0.000953057
-0.00990206
0.000969357
-0.0114865
0.000828546
-0.0126943
0.000560878
-0.013684
0.00020313
-0.014596
-0.000216454
-0.0155234
-0.016507
-0.000687004
0.000136958
-0.00214639
0.00034353
-0.00537385
0.000484443
-0.00795224
0.000479331
-0.00989695
0.000307487
-0.0113147
-1.35128e-05
-0.0123733
-0.0004463
-0.0132512
-0.000960003
-0.0140823
-0.0015339
-0.0149495
-0.0158892
-0.0021517
9.24121e-05
-0.00223881
0.000187292
-0.00546873
0.000172741
-0.00793769
-6.16092e-06
-0.00971805
-0.000353685
-0.0109671
-0.000836143
-0.0118909
-0.00141951
-0.0126678
-0.0020773
-0.0134245
-0.00279437
-0.0142324
-0.0151251
-0.00355848
4.21159e-05
-0.00228092
2.1876e-05
-0.00544849
-0.000149421
-0.00776639
-0.000496193
-0.00937127
-0.00100008
-0.0104633
-0.00162773
-0.0112632
-0.00234606
-0.0119495
-0.00313526
-0.0126353
-0.00398636
-0.0133814
-0.0142216
-0.00488986
-1.35868e-05
-0.00226734
-0.000153532
-0.00530855
-0.000472122
-0.0074478
-0.000970265
-0.00887313
-0.0016172
-0.00981632
-0.00237518
-0.0105053
-0.00321525
-0.0111094
-0.00412337
-0.0117272
-0.00509473
-0.01241
-0.0131847
-0.00613165
-7.02216e-05
-0.00219711
-0.000326574
-0.00505219
-0.000784086
-0.00699029
-0.00142042
-0.0082368
-0.00219505
-0.00904169
-0.00306991
-0.0096304
-0.00402054
-0.0101588
-0.00503828
-0.0107095
-0.00612853
-0.0113197
-0.0120463
-0.00726698
-0.00012682
-0.00207029
-0.000493162
-0.00468585
-0.00107791
-0.00640554
-0.00183772
-0.00747699
-0.00272511
-0.00815429
-0.00370403
-0.00865148
-0.00475532
-0.0091075
-0.00587201
-0.00959277
-0.0070539
-0.0101378
-0.010736
-0.00836412
-0.00018104
-0.00188925
-0.000648658
-0.00421823
-0.00134709
-0.00570711
-0.00221494
-0.00660914
-0.00320005
-0.00716919
-0.00426891
-0.00758261
-0.00540658
-0.00796983
-0.00661075
-0.0083886
-0.00789072
-0.00885787
-0.00936896
-0.00925779
-0.000231018
-0.00165824
-0.000788988
-0.00366026
-0.00158634
-0.00490975
-0.00254672
-0.00564877
-0.00361499
-0.00610092
-0.00476059
-0.00643701
-0.00597263
-0.00675779
-0.00725258
-0.00710865
-0.00860897
-0.00750148
-0.00793354
-0.0100444
-0.000275143
-0.00138309
-0.000910778
-0.00302463
-0.00179151
-0.00402902
-0.00282891
-0.00461136
-0.00396628
-0.00496355
-0.00517605
-0.00522724
-0.00645087
-0.00548297
-0.0077944
-0.00576511
-0.00921434
-0.00608154
-0.00643265
-0.0107152
-0.00031206
-0.00107103
-0.00101131
-0.00232538
-0.00195929
-0.00308105
-0.00305827
-0.00351237
-0.00425085
-0.00377098
-0.0055122
-0.00396589
-0.00683783
-0.00415733
-0.00823299
-0.00436995
-0.0097056
-0.00460893
-0.00487581
-0.0112624
-0.000340689
-0.000730344
-0.00108849
-0.00157758
-0.00208719
-0.00208234
-0.00323234
-0.00236722
-0.00446632
-0.002537
-0.00576656
-0.00266565
-0.00713073
-0.00279317
-0.00856522
-0.00293547
-0.0100785
-0.00309568
-0.00327536
-0.0116789
-0.000360222
-0.000370122
-0.00114077
-0.000797035
-0.00217343
-0.00104968
-0.00334935
-0.0011913
-0.00461094
-0.00127541
-0.00593724
-0.00133935
-0.00732731
-0.0014031
-0.00878835
-0.00147442
-0.0103292
-0.00155481
-0.00164519
-0.0119594
-0.000370122
2.211e-13
-0.00116716
3.83802e-13
-0.00221684
4.16351e-13
-0.00340814
4.05332e-13
-0.00468355
3.94243e-13
-0.0060229
3.92681e-13
-0.007426
3.98371e-13
-0.00890042
3.90514e-13
-0.0104552
4.0206e-13
4.16898e-13
-0.0121004
-0.000370122
0.000370122
-0.00116716
0.000797035
-0.00221684
0.00104968
-0.00340814
0.0011913
-0.00468355
0.00127541
-0.0060229
0.00133935
-0.007426
0.0014031
-0.00890042
0.00147442
-0.0104552
0.00155481
0.00164519
-0.0121004
-0.000360222
0.000730344
-0.00114077
0.00157758
-0.00217343
0.00208234
-0.00334935
0.00236722
-0.00461094
0.002537
-0.00593724
0.00266565
-0.00732731
0.00279317
-0.00878835
0.00293547
-0.0103292
0.00309568
0.00327536
-0.0119594
-0.000340689
0.00107103
-0.00108849
0.00232538
-0.00208719
0.00308105
-0.00323234
0.00351237
-0.00446632
0.00377098
-0.00576656
0.00396589
-0.00713073
0.00415733
-0.00856522
0.00436995
-0.0100785
0.00460893
0.00487581
-0.0116789
-0.00031206
0.00138309
-0.00101131
0.00302463
-0.00195929
0.00402902
-0.00305827
0.00461136
-0.00425085
0.00496355
-0.0055122
0.00522724
-0.00683783
0.00548297
-0.00823299
0.00576511
-0.0097056
0.00608154
0.00643265
-0.0112624
-0.000275143
0.00165824
-0.000910778
0.00366026
-0.00179151
0.00490975
-0.00282891
0.00564877
-0.00396628
0.00610092
-0.00517605
0.00643701
-0.00645087
0.00675779
-0.0077944
0.00710865
-0.00921434
0.00750148
0.00793354
-0.0107152
-0.000231018
0.00188925
-0.000788988
0.00421823
-0.00158634
0.00570711
-0.00254672
0.00660914
-0.00361499
0.00716919
-0.00476059
0.00758261
-0.00597263
0.00796983
-0.00725258
0.0083886
-0.00860897
0.00885787
0.00936896
-0.0100444
-0.00018104
0.00207029
-0.000648658
0.00468585
-0.00134709
0.00640554
-0.00221494
0.00747699
-0.00320005
0.00815429
-0.00426891
0.00865148
-0.00540658
0.0091075
-0.00661075
0.00959277
-0.00789072
0.0101378
0.010736
-0.00925779
-0.00012682
0.00219711
-0.000493162
0.00505219
-0.00107791
0.00699029
-0.00183772
0.0082368
-0.00272511
0.00904169
-0.00370403
0.0096304
-0.00475532
0.0101588
-0.00587201
0.0107095
-0.0070539
0.0113197
0.0120463
-0.00836412
-7.02216e-05
0.00226734
-0.000326574
0.00530855
-0.000784086
0.0074478
-0.00142042
0.00887313
-0.00219505
0.00981632
-0.00306991
0.0105053
-0.00402054
0.0111094
-0.00503828
0.0117272
-0.00612853
0.01241
0.0131847
-0.00726698
-1.35868e-05
0.00228092
-0.000153532
0.00544849
-0.000472122
0.00776639
-0.000970265
0.00937127
-0.0016172
0.0104633
-0.00237518
0.0112632
-0.00321525
0.0119495
-0.00412337
0.0126353
-0.00509473
0.0133814
0.0142216
-0.00613165
4.21159e-05
0.00223881
2.1876e-05
0.00546873
-0.000149421
0.00793769
-0.000496193
0.00971805
-0.00100008
0.0109671
-0.00162773
0.0118909
-0.00234606
0.0126678
-0.00313526
0.0134245
-0.00398636
0.0142324
0.0151251
-0.00488986
9.24121e-05
0.00214639
0.000187292
0.00537385
0.000172741
0.00795224
-6.16092e-06
0.00989695
-0.000353685
0.0113147
-0.000836143
0.0123733
-0.00141951
0.0132512
-0.0020773
0.0140823
-0.00279437
0.0149495
0.0158892
-0.00355848
0.000136958
0.00200944
0.00034353
0.00516728
0.000484443
0.00781133
0.000479331
0.00990206
0.000307487
0.0114865
-1.35128e-05
0.0126943
-0.0004463
0.013684
-0.000960003
0.014596
-0.0015339
0.0155234
0.016507
-0.0021517
0.00017364
0.0018358
0.000481643
0.00485928
0.000775548
0.00751742
0.000953057
0.00972455
0.000969357
0.0114702
0.000828546
0.0128352
0.000560878
0.0139516
0.00020313
0.0149537
-0.000216454
0.015943
0.0169776
-0.000687004
0.000200992
0.0016348
0.000595618
0.00446465
0.00103304
0.00708
0.0013942
0.00936339
0.0016106
0.0112538
0.00166647
0.0127793
0.00158318
0.0140349
0.00139713
0.0151398
0.00114176
0.0161984
0.017277
0.000842371
0.000218201
0.0014166
0.000680608
0.00400224
0.00124487
0.00651574
0.0017835
0.00882476
0.00220687
0.0108304
0.00247613
0.01251
0.0025969
0.0139142
0.00260074
0.015136
0.00252557
0.0162735
0.0173983
0.00240428
0.000225169
0.00119143
0.000733491
0.00349392
0.00140077
0.00584846
0.00210134
0.00812419
0.00273049
0.0102013
0.00322565
0.0120149
0.00357082
0.013569
0.00378539
0.0149214
0.00390535
0.0161536
0.0173362
0.00396739
0.000222524
0.00096891
0.000753367
0.00296308
0.00149356
0.00510827
0.00232988
0.00728787
0.00315213
0.00937903
0.00387752
0.0112895
0.00446495
0.0129815
0.00491384
0.0144725
0.00525058
0.0158168
0.0170751
0.00551172
0.000211545
0.000757366
0.000741805
0.00243282
0.00152053
0.00432955
0.00245602
0.00635238
0.00344425
0.0083908
0.00439072
0.010343
0.00523052
0.0121417
0.00593736
0.0137657
0.00651898
0.0152352
0.0165906
0.00700346
0.000193995
0.000563371
0.000702703
0.00192411
0.00148432
0.00354793
0.00247424
0.00536245
0.00358588
0.00727916
0.00472548
0.00920343
0.00581205
0.0110552
0.00679313
0.0127846
0.00764997
0.0143784
0.0158511
0.00838951
0.000171882
0.000391489
0.000641715
0.00145428
0.0013927
0.00279695
0.00238846
0.00436669
0.00356779
0.00609983
0.00485098
0.00792024
0.00615436
0.00975179
0.00740699
0.0115319
0.00856228
0.0132231
0.0148202
0.00959315
0.000147166
0.000244323
0.000565334
0.00103611
0.0012573
0.00210498
0.0022119
0.00341209
0.00339604
0.00491569
0.0047541
0.00656217
0.00621502
0.00829088
0.007705
0.010042
0.00916086
0.0117672
0.0134602
0.0105208
0.000121495
0.000122828
0.000479858
0.000677745
0.00109151
0.00149333
0.00196468
0.00253891
0.00309182
0.00378856
0.00444516
0.00520883
0.00597775
0.00675828
0.00763067
0.00838905
0.00934744
0.0100505
0.0117265
0.0110812
9.60338e-05
2.67938e-05
0.000390549
0.00038323
0.000908165
0.000975716
0.00166985
0.00177723
0.00268717
0.00277124
0.00395722
0.00393879
0.00546037
0.00525513
0.00716301
0.00668642
0.00904035
0.00817312
0.00955843
0.0112084
7.14433e-05
-4.46494e-05
0.000301251
0.000153423
0.000718126
0.000558841
0.00134967
0.00114568
0.00221892
0.00190199
0.00333995
0.00281776
0.00471403
0.00388105
0.00632617
0.00507427
0.00813496
0.00636434
0.0076379
0.0100555
4.79979e-05
-9.26474e-05
0.000214576
-1.31555e-05
0.000529869
0.000243548
0.00102367
0.000651882
0.001724
0.00120165
0.00265419
0.00188758
0.00382945
0.0027058
0.00525448
0.00364924
0.00692367
0.00469514
0.00574911
0.00881247
2.58607e-05
-0.000118508
0.00013253
-0.000119825
0.000350084
2.5994e-05
0.000707961
0.000294005
0.00123485
0.000674755
0.00195755
0.00116488
0.00289926
0.00176408
0.00407908
0.00246942
0.00551241
0.00326182
0.00405666
0.00720485
5.44947e-06
-0.000123957
5.70376e-05
-0.000171413
0.000184789
-0.000101757
0.000416245
6.25488e-05
0.000778457
0.000312543
0.00129784
0.000645499
0.00200004
0.00106188
0.0029102
0.00155927
0.00405249
0.00211953
0.00266192
0.00544723
-1.29091e-05
-0.000111048
-9.15752e-06
-0.000175165
4.03196e-05
-0.000151234
0.000161385
-5.85162e-05
0.000378442
9.54851e-05
0.000715672
0.000308269
0.00119756
0.00057999
0.00184927
0.000907557
0.00269537
0.00127343
0.00160442
0.00375286
-2.79102e-05
-8.31383e-05
-6.31945e-05
-0.00013988
-7.65468e-05
-0.000137882
-4.40335e-05
-9.10295e-05
5.62013e-05
-4.74973e-06
0.000245768
0.000118703
0.000546497
0.000279261
0.000980409
0.000473645
0.00156676
0.000687087
0.00086343
0.00230775
-3.87306e-05
-4.44077e-05
-0.000101532
-7.70792e-05
-0.00015907
-8.03432e-05
-0.000188624
-6.14757e-05
-0.00016997
-2.34039e-05
-8.39812e-05
3.2714e-05
8.86952e-05
0.000106584
0.00036619
0.00019615
0.000760744
0.000292533
0.000365774
0.0012584
-4.44077e-05
-0.000121487
-0.00020183
-0.000263306
-0.00028671
-0.000253996
-0.000147411
4.8739e-05
0.000341272
0.000707046
0.00104039
-0.000333345
1.43926e-12
0.00142264
-0.000382247
1.59184e-12
0.00183565
-0.000413011
1.67652e-12
0.0022614
-0.000425749
1.56374e-12
0.00269575
-0.000434348
1.18769e-12
0.00313093
-0.000435187
5.2961e-13
0.00355882
-0.000427892
-3.5845e-13
0.00397324
-0.00041441
-1.40615e-12
0.00436983
-0.000396598
-2.5069e-12
0.00474585
-0.000376017
-3.53166e-12
0.0050998
-0.000353949
-4.36581e-12
0.00543116
-0.000331357
-4.88544e-12
0.00574008
-0.000308929
-5.01579e-12
0.00602721
-0.000287126
-4.68778e-12
0.00629347
-0.000266257
-3.89381e-12
0.00653995
-0.000246479
-2.64584e-12
0.00676788
-0.000227938
-1.00634e-12
0.00697843
-0.000210545
9.18936e-13
0.007173
-0.000194574
3.00006e-12
0.00735227
-0.000179265
5.04595e-12
0.00751854
-0.000166274
6.94808e-12
0.00766965
-0.000151104
8.29457e-12
0.00781352
-0.00014387
9.4759e-12
-0.000120585
8.86901e-12
0.00157122
-0.00064617
0.001924
-0.000735026
0.00231071
-0.000799721
0.00271223
-0.000827267
0.00312245
-0.000844571
0.00353344
-0.000846172
0.00393732
-0.000831777
0.00432828
-0.000805371
0.00470234
-0.000770652
0.00505699
-0.00073067
0.00539093
-0.000687886
0.00570372
-0.000644146
0.00599555
-0.000600761
0.00626703
-0.000558606
0.00651905
-0.000518272
0.00675262
-0.000480052
0.00696891
-0.000444233
0.00716899
-0.000410623
0.00735422
-0.000379802
0.00752515
-0.000350195
0.0076841
-0.000325221
0.00782883
-0.000295839
0.00796702
-0.000282053
-0.000237617
0.00257284
-0.000911259
0.00286942
-0.00103161
0.00320492
-0.00113522
0.00355938
-0.00118173
0.00392322
-0.0012084
0.00428795
-0.00121091
0.0046463
-0.00119013
0.00499314
-0.00115221
0.00532509
-0.0011026
0.00564009
-0.00104567
0.00593709
-0.00098488
0.00621576
-0.000922815
0.0064763
-0.000861301
0.00671924
-0.000801551
0.00694536
-0.000744395
0.00715554
-0.00069023
0.0073508
-0.000639492
0.00753202
-0.000591846
0.00770048
-0.000548254
0.00785651
-0.000506224
0.0080024
-0.000471119
0.00813589
-0.000429328
0.00826405
-0.000410215
-0.00034854
0.00393299
-0.00109139
0.00415163
-0.00125025
0.00441438
-0.00139797
0.00470163
-0.00146899
0.00500022
-0.00150699
0.00530073
-0.00151142
0.00559675
-0.00148614
0.00588405
-0.00143952
0.00615992
-0.00137847
0.0064227
-0.00130845
0.00667151
-0.00123369
0.00690606
-0.00115736
0.00712642
-0.00108167
0.00733297
-0.0010081
0.00752628
-0.0009377
0.00770698
-0.000870936
0.0078759
-0.000808412
0.00803368
-0.000749619
0.00818141
-0.000695993
0.00831921
-0.000644022
0.00844928
-0.000601188
0.00856938
-0.000549425
0.00868567
-0.000526504
-0.000452658
0.00550093
-0.00114509
0.00562691
-0.00137623
0.0058009
-0.00157195
0.00600479
-0.00167288
0.00622382
-0.00172601
0.00644779
-0.0017354
0.00667125
-0.0017096
0.00689082
-0.00165908
0.00710418
-0.00159183
0.00730977
-0.00151404
0.00750663
-0.00143056
0.00769424
-0.00134496
0.00787239
-0.00125982
0.00804114
-0.00117685
0.00820074
-0.0010973
0.00835152
-0.00102172
0.00849403
-0.000950919
0.00862861
-0.0008842
0.00875618
-0.000823558
0.00887657
-0.000764416
0.00899182
-0.000716439
0.0090999
-0.000657501
0.00920571
-0.000632318
-0.000551753
0.00710466
-0.0010449
0.00713193
-0.00140349
0.00720693
-0.00164695
0.00731655
-0.0017825
0.00744757
-0.00185704
0.00759001
-0.00187784
0.00773903
-0.00185862
0.00789143
-0.00181148
0.00804467
-0.00174506
0.00819675
-0.00166612
0.00834616
-0.00157997
0.00849185
-0.00149064
0.0086331
-0.00140107
0.00876951
-0.00131326
0.00890091
-0.0012287
0.00902727
-0.00114808
0.0091488
-0.00107245
0.00926555
-0.00100096
0.00937821
-0.000936214
0.00948643
-0.000872639
0.00959192
-0.000821929
0.00969311
-0.000758685
0.00979335
-0.000732558
-0.000650341
0.00857518
-0.000807617
0.00850484
-0.00133315
0.00847426
-0.00161637
0.00848459
-0.00179283
0.00852654
-0.00189899
0.00859137
-0.00194267
0.00867363
-0.00194089
0.00876895
-0.00190679
0.00887354
-0.00184966
0.00898426
-0.00177684
0.00909859
-0.00169431
0.00921462
-0.00160668
0.00933097
-0.00151741
0.00944664
-0.00142893
0.00956102
-0.00134308
0.00967369
-0.00126074
0.00978454
-0.0011833
0.00989338
-0.0011098
0.0100006
-0.00104345
0.0101058
-0.000977873
0.0102103
-0.000926395
0.0103131
-0.000861491
0.010416
-0.000835425
-0.000755489
0.00982844
-0.000580568
0.00963457
-0.00113928
0.00948338
-0.00146519
0.00939266
-0.00170211
0.00935206
-0.0018584
0.00935139
-0.00194199
0.00938208
-0.00197158
0.00943698
-0.0019617
0.00951019
-0.00192287
0.00959687
-0.00186352
0.00969318
-0.00179062
0.00979615
-0.00170965
0.00990361
-0.00162487
0.010014
-0.00153928
0.0101261
-0.00145522
0.0102392
-0.00137389
0.010353
-0.00129703
0.0104669
-0.00122375
0.0105812
-0.0011577
0.0106955
-0.00109221
0.0108103
-0.0010412
0.0109261
-0.000977286
0.0110417
-0.000950968
-0.000876786
0.027776
0.000616046
-0.0289726
0.0267898
-0.000153061
0.0260088
-0.000684165
0.0253805
-0.00107385
0.0248681
-0.00134598
0.0244457
-0.0015196
0.0240942
-0.00162005
0.0237997
-0.00166725
0.0235519
-0.00167506
0.0233425
-0.00165408
0.0231647
-0.00161287
0.0230133
-0.00155821
0.0228838
-0.0014954
0.0227728
-0.00142828
0.0226775
-0.00135987
0.0225954
-0.00129186
0.0225249
-0.00122653
0.0224645
-0.00116337
0.022413
-0.00110613
0.0223702
-0.00104938
0.0223335
-0.00100454
0.0223078
-0.000951592
0.0222823
-0.000925451
-0.000872411
0.0304463
0.00120907
-0.0310393
0.0298076
0.000485695
0.0291956
-7.21893e-05
0.0286298
-0.000508111
0.0281107
-0.000826815
0.0276434
-0.00105233
0.0272265
-0.00120319
0.0268556
-0.00129628
0.0265257
-0.00134524
0.0262325
-0.0013608
0.0259713
-0.00135173
0.0257382
-0.00132512
0.0255295
-0.0012867
0.025342
-0.00124073
0.0251729
-0.00119075
0.0250199
-0.00113887
0.024881
-0.00108769
0.0247549
-0.00103726
0.0246399
-0.000991082
0.0245359
-0.000945418
0.0244402
-0.000908805
0.0243568
-0.000868254
0.0242777
-0.000846335
-0.000811477
0.0312613
0.00146649
-0.0315187
0.0309408
0.000806166
0.0305824
0.000286282
0.0301968
-0.000122543
0.0298088
-0.000438816
0.0294317
-0.000675247
0.0290734
-0.000844831
0.0287372
-0.000960121
0.0284245
-0.0010325
0.0281351
-0.00107148
0.0278684
-0.00108498
0.0276228
-0.00107953
0.0273967
-0.00106057
0.0271882
-0.00103232
0.0269958
-0.000998336
0.0268179
-0.000960951
0.026653
-0.000922749
0.0265
-0.000884331
0.0263576
-0.000848593
0.0262258
-0.000813637
0.026102
-0.000784992
0.0259897
-0.000755971
0.025882
-0.00073871
-0.000718721
0.0312614
0.00149667
-0.0312916
0.0311423
0.000925269
0.0309609
0.000467667
0.0307343
0.000104091
0.030481
-0.000185571
0.0302163
-0.000410516
0.0299498
-0.00057838
0.029688
-0.000698226
0.0294345
-0.000779088
0.029192
-0.000828988
0.0289618
-0.000854728
0.0287443
-0.000862011
0.0285394
-0.000855681
0.0283467
-0.000839627
0.0281655
-0.000817157
0.0279952
-0.000790621
0.0278348
-0.000762361
0.0276839
-0.000733434
0.0275413
-0.00070598
0.0274074
-0.000679699
0.0272799
-0.000657504
0.0271614
-0.000637504
0.0270469
-0.000624191
-0.000614653
0.0309444
0.00139937
-0.0308471
0.0309436
0.000926131
0.0308759
0.000535368
0.0307592
0.000220779
0.0306071
-3.35012e-05
0.030433
-0.000236418
0.0302466
-0.000391951
0.0300547
-0.000506379
0.0298623
-0.000586634
0.0296726
-0.000639296
0.0294879
-0.000670083
0.0293098
-0.000683853
0.0291389
-0.000684781
0.0289756
-0.000676331
0.0288199
-0.000661439
0.0286716
-0.000642369
0.0285304
-0.000621128
0.028396
-0.000599079
0.0282677
-0.000577673
0.0281458
-0.000557742
0.0280286
-0.000540312
0.0279176
-0.000526517
0.0278096
-0.000516177
-0.000512748
0.0305513
0.00123843
-0.0303904
0.0306193
0.00085812
0.0306215
0.000533189
0.0305745
0.00026776
0.0304906
5.04247e-05
0.0303799
-0.000125677
0.0302516
-0.000263668
0.0301126
-0.000367359
0.0299678
-0.000441915
0.0298211
-0.000492593
0.0296751
-0.000524095
0.0295318
-0.000540475
0.0293922
-0.000545244
0.0292573
-0.000541405
0.0291274
-0.000531482
0.0290025
-0.000517568
0.0288828
-0.000501336
0.028768
-0.000484274
0.0286576
-0.000467326
0.0285518
-0.00045193
0.0284495
-0.000438027
0.0283512
-0.000428173
0.028255
-0.000420022
-0.00041942
0.0301816
0.00104776
-0.0299909
0.0302895
0.000750261
0.0303345
0.000488139
0.0303319
0.000270419
0.0302921
9.02238e-05
0.0302239
-5.74817e-05
0.0301353
-0.000175104
0.0300329
-0.00026498
0.0299218
-0.000330793
0.0298058
-0.000376598
0.0296879
-0.00040615
0.0295701
-0.000422747
0.0294542
-0.000429259
0.029341
-0.000428203
0.0292312
-0.000421681
0.0291251
-0.000411539
0.0290229
-0.00039914
0.0289246
-0.000385931
0.0288298
-0.000372532
0.0287384
-0.00036054
0.0286498
-0.000349451
0.0285638
-0.000342101
0.0284794
-0.000335658
-0.000335917
0.0298672
0.000844061
-0.0296635
0.0299985
0.000619008
0.0300709
0.000415706
0.0300972
0.00024407
0.0300868
0.000100672
0.0300473
-1.79702e-05
0.0299857
-0.000113562
0.0299083
-0.000187582
0.0298201
-0.00024256
0.029725
-0.000281491
0.0296261
-0.000307254
0.0295258
-0.000322429
0.0294258
-0.000329271
0.0293274
-0.000329796
0.0292314
-0.000325681
0.0291383
-0.000318464
0.0290484
-0.00030922
0.0289617
-0.000299223
0.028878
-0.000288896
0.0287972
-0.000279701
0.0287188
-0.000271069
0.0286422
-0.000265486
0.028567
-0.000260495
-0.000260737
0.0296154
0.000635014
-0.0294063
0.0297608
0.000473628
0.0298513
0.000325165
0.0298973
0.000198091
0.0299069
9.1046e-05
0.0298871
1.84736e-06
0.0298442
-7.06431e-05
0.0297839
-0.000127345
0.0297113
-0.000169924
0.0296303
-0.000200463
0.0295441
-0.000221039
0.0294552
-0.000233549
0.0293656
-0.000239655
0.0292766
-0.000240871
0.0291894
-0.000238445
0.0291045
-0.000233565
0.0290223
-0.000227031
0.0289429
-0.000219857
0.0288664
-0.000212328
0.0287923
-0.000205626
0.0287205
-0.000199262
0.0286502
-0.000195161
0.0285812
-0.000191478
-0.000191505
0.029427
0.000423951
-0.0292159
0.0295809
0.000319703
0.0296834
0.000222709
0.0297426
0.000138867
0.0297659
6.77869e-05
0.0297595
8.23135e-06
0.0297293
-4.0437e-05
0.0296807
-7.87892e-05
0.0296186
-0.000107811
0.0295469
-0.000128813
0.029469
-0.000143138
0.0293875
-0.000152029
0.0293045
-0.00015658
0.0292214
-0.000157798
0.0291394
-0.000156509
0.0290594
-0.000153525
0.0289817
-0.000149366
0.0289066
-0.000144749
0.0288341
-0.000139827
0.028764
-0.000135461
0.0286959
-0.000131243
0.0286293
-0.000128558
0.028564
-0.000126084
-0.000126028
0.0293017
0.000212165
-0.0290899
0.0294606
0.000160854
0.0295703
0.000112967
0.0296378
7.13803e-05
0.0296696
3.59637e-05
0.0296717
6.16699e-06
0.0296495
-1.82684e-05
0.0296083
-3.76034e-05
0.0295528
-5.22981e-05
0.029487
-6.29903e-05
0.0294142
-7.03366e-05
0.0293371
-7.49526e-05
0.0292579
-7.73753e-05
0.0291782
-7.81132e-05
0.0290993
-7.75686e-05
0.0290219
-7.61672e-05
0.0289467
-7.41405e-05
0.0288739
-7.1902e-05
0.0288035
-6.9443e-05
0.0287354
-6.73415e-05
0.0286693
-6.51509e-05
0.0286047
-6.39584e-05
0.028541
-6.2468e-05
-6.2711e-05
0.0292397
-0.0290275
0.0294005
0.0295135
0.0295849
0.0296208
0.029627
0.0296087
0.0295711
0.0295188
0.0294558
0.0293855
0.0293105
0.0292332
0.0291551
0.0290775
0.0290013
0.0289272
0.0288553
0.0287858
0.0287185
0.0286533
0.0285894
0.0285269
0.0116256
-0.0293898
0.0111768
-0.0305906
0.0102248
-0.0305667
0.00906742
-0.0301342
0.00786335
-0.0296431
0.0066726
-0.0291996
0.00551053
-0.0288289
0.00437632
-0.0285293
0.00326456
-0.0282946
0.00216894
-0.0281203
0.00108302
-0.028004
-0.0279445
0.0111502
-0.0294588
0.0104027
-0.0298431
0.00934825
-0.0295122
0.00821394
-0.0289999
0.00709387
-0.028523
0.00601034
-0.0281161
0.00496068
-0.0277792
0.00393834
-0.027507
0.00293701
-0.0272932
0.00195073
-0.027134
0.000973666
-0.027027
-0.0269708
0.0101674
-0.0291054
0.00929851
-0.0289742
0.00828895
-0.0285026
0.00726765
-0.0279786
0.00627219
-0.0275275
0.00531136
-0.0271553
0.00438149
-0.0268493
0.00347665
-0.0266021
0.00259134
-0.0264079
0.00172027
-0.026263
0.000858196
-0.0261649
-0.0261126
0.00901032
-0.0285226
0.00813378
-0.0280977
0.00719531
-0.0275641
0.00628318
-0.0270665
0.00541057
-0.0266549
0.00457486
-0.0263196
0.00376972
-0.0260442
0.00298851
-0.0258209
0.00222575
-0.0256452
0.00147651
-0.0255137
0.000736115
-0.0254245
-0.0253765
0.00769237
-0.0278255
0.0068629
-0.0272682
0.00603418
-0.0267354
0.00525154
-0.0262838
0.00451285
-0.0259162
0.00380927
-0.025616
0.00313401
-0.0253689
0.00248115
-0.0251681
0.00184566
-0.0250097
0.00122308
-0.0248912
0.000609219
-0.0248106
-0.0247673
0.0062905
-0.0271125
0.00554842
-0.0265261
0.00484612
-0.0260331
0.00419726
-0.025635
0.00359339
-0.0253124
0.00302375
-0.0250464
0.00248112
-0.0248263
0.00195982
-0.0246468
0.00145505
-0.0245049
0.000962655
-0.0243988
0.000478856
-0.0243268
-0.0242884
0.004842
-0.0264428
0.00420779
-0.0258919
0.00363888
-0.0254642
0.00312727
-0.0251234
0.00266005
-0.0248451
0.00222611
-0.0246124
0.00181803
-0.0244182
0.00143028
-0.024259
0.00105829
-0.0241329
0.000698189
-0.0240387
0.000346521
-0.0239752
-0.0239419
0.003378
-0.0258534
0.00286305
-0.0253769
0.00242942
-0.0250306
0.00205458
-0.0247485
0.00172343
-0.024514
0.00142503
-0.024314
0.00115182
-0.024145
0.000898209
-0.0240054
0.0006597
-0.0238944
0.000432584
-0.0238115
0.000213709
-0.0237563
-0.0237282
0.00191815
-0.0253673
0.00152869
-0.0249875
0.00122964
-0.0247315
0.000988575
-0.0245075
0.000792022
-0.0243174
0.000628152
-0.0241501
0.000489079
-0.0240059
0.000368974
-0.0238853
0.000263352
-0.0237888
0.000168612
-0.0237168
8.17825e-05
-0.0236694
-0.0236464
0.000455368
-0.0249803
0.000198697
-0.0247308
2.60213e-05
-0.0245588
-7.44103e-05
-0.024407
-0.000134103
-0.0242578
-0.000162516
-0.0241217
-0.000167562
-0.0240009
-0.000154795
-0.0238981
-0.000128528
-0.0238151
-9.21819e-05
-0.0237531
-4.86468e-05
-0.023713
-0.023695
-0.000956768
-0.0247105
-0.00108193
-0.0246057
-0.00111867
-0.0245221
-0.00109572
-0.02443
-0.00102787
-0.0243256
-0.000927874
-0.0242217
-0.000804138
-0.0241246
-0.000662869
-0.0240393
-0.000508655
-0.0239693
-0.000345026
-0.0239168
-0.000174708
-0.0238833
-0.0238698
-0.00231255
-0.0245496
-0.00232057
-0.0245976
-0.00223611
-0.0246066
-0.00208886
-0.0245772
-0.0018957
-0.0245188
-0.00166991
-0.0244475
-0.00142062
-0.0243739
-0.00115439
-0.0243056
-0.000876013
-0.0242477
-0.000589079
-0.0242037
-0.000296305
-0.0241761
-0.0241661
-0.00361464
-0.0244935
-0.00350812
-0.0247042
-0.00330673
-0.0248079
-0.00303998
-0.024844
-0.00272663
-0.0248321
-0.00238027
-0.0247939
-0.00201058
-0.0247436
-0.0016245
-0.0246916
-0.00122706
-0.0246451
-0.000822028
-0.0246087
-0.000412219
-0.0245859
-0.0245783
-0.00483932
-0.024544
-0.00462361
-0.0249199
-0.0043132
-0.0251183
-0.0039363
-0.0252209
-0.00351134
-0.0252571
-0.00305206
-0.0252532
-0.0025688
-0.0252269
-0.00206922
-0.0251912
-0.0015589
-0.0251554
-0.00104197
-0.0251257
-0.000521495
-0.0251064
-0.0250998
-0.00596391
-0.0247118
-0.00565671
-0.0252271
-0.00525126
-0.0255238
-0.0047751
-0.025697
-0.00424721
-0.025785
-0.0036824
-0.025818
-0.00309237
-0.0258169
-0.00248592
-0.0257977