/*--------------------------------*- C++ -*----------------------------------*\
  =========                 |
  \\      /  F ield         | OpenFOAM: The Open Source CFD Toolbox
   \\    /   O peration     | Website:  https://openfoam.org
    \\  /    A nd           | Version:  7
     \\/     M anipulation  |
\*---------------------------------------------------------------------------*/
FoamFile
{
    version     2.0;
    format      ascii;
    class       surfaceScalarField;
    location    "30";
    object      phi;
}
// * * * * * * * * * * * * * * * * * * * * * * * * * * * * * * * * * * * * * //

dimensions      [0 3 -1 0 0 0 0];

internalField   nonuniform List<scalar> 
49774
(
-3.82444e-07
3.82444e-07
1.62828e-13
-1.48521e-06
1.10277e-06
5.88598e-13
-3.29562e-06
1.81041e-06
1.12185e-12
-5.79487e-06
2.49925e-06
1.79113e-12
-8.9574e-06
3.16253e-06
2.61569e-12
-1.27507e-05
3.7933e-06
3.6031e-12
-1.71353e-05
4.38461e-06
4.76831e-12
-2.20649e-05
4.92961e-06
6.1123e-12
-2.74867e-05
5.4217e-06
7.66297e-12
-3.33414e-05
5.85478e-06
9.44631e-12
-3.95649e-05
6.22349e-06
1.14889e-11
-4.60885e-05
6.52357e-06
1.37981e-11
-5.28408e-05
6.75224e-06
1.64298e-11
-5.97495e-05
6.9087e-06
1.94139e-11
-6.67442e-05
6.99468e-06
2.2789e-11
-7.37593e-05
7.01502e-06
2.65532e-11
-8.07377e-05
6.97837e-06
3.07774e-11
-8.76354e-05
6.89774e-06
3.55058e-11
-9.44265e-05
6.79104e-06
4.07646e-11
-0.000101108
6.68128e-06
4.65424e-11
-0.000107704
6.59605e-06
5.29012e-11
-0.000114269
6.56494e-06
5.98558e-11
-0.00012089
6.62108e-06
6.74732e-11
6.82329e-06
7.5801e-11
-0.000127713
-3.77745e-07
7.60189e-07
-1.46621e-06
2.19123e-06
-3.25196e-06
3.59615e-06
-5.71534e-06
4.96263e-06
-8.82983e-06
6.27702e-06
-1.25618e-05
7.52531e-06
-1.68707e-05
8.69349e-06
-2.17088e-05
9.76767e-06
-2.70216e-05
1.07345e-05
-3.27484e-05
1.15816e-05
-3.88229e-05
1.2298e-05
-4.51741e-05
1.28748e-05
-5.17282e-05
1.33064e-05
-5.84101e-05
1.35906e-05
-6.51461e-05
1.37307e-05
-7.18671e-05
1.3736e-05
-7.85121e-05
1.36234e-05
-8.50333e-05
1.34189e-05
-9.14002e-05
1.3158e-05
-9.76059e-05
1.2887e-05
-0.000103671
1.26614e-05
-0.000109647
1.25411e-05
-0.00011562
1.25935e-05
1.29384e-05
-0.000121735
-3.68397e-07
1.12859e-06
-1.4284e-06
3.25124e-06
-3.16506e-06
5.33281e-06
-5.557e-06
7.35458e-06
-8.5758e-06
9.29581e-06
-1.21857e-05
1.11352e-05
-1.63437e-05
1.28515e-05
-2.09993e-05
1.44233e-05
-2.60951e-05
1.58303e-05
-3.15669e-05
1.70534e-05
-3.73444e-05
1.80754e-05
-4.33523e-05
1.88827e-05
-4.95115e-05
1.94656e-05
-5.57415e-05
1.98206e-05
-6.1962e-05
1.99512e-05
-6.80969e-05
1.98708e-05
-7.40776e-05
1.96041e-05
-7.98479e-05
1.91892e-05
-8.53692e-05
1.86794e-05
-9.06264e-05
1.81442e-05
-9.5633e-05
1.7668e-05
-0.000100434
1.73426e-05
-0.000105112
1.72713e-05
1.76394e-05
-0.000109813
-3.54501e-07
1.48309e-06
-1.37216e-06
4.2689e-06
-3.03572e-06
6.99637e-06
-5.32127e-06
9.64012e-06
-8.19748e-06
1.2172e-05
-1.16254e-05
1.45632e-05
-1.55584e-05
1.67845e-05
-1.99421e-05
1.8807e-05
-2.47144e-05
2.06026e-05
-2.98059e-05
2.21449e-05
-3.51406e-05
2.34101e-05
-4.06365e-05
2.43786e-05
-4.62072e-05
2.50363e-05
-5.17633e-05
2.53767e-05
-5.72153e-05
2.54032e-05
-6.24763e-05
2.51318e-05
-6.74662e-05
2.4594e-05
-7.21164e-05
2.38394e-05
-7.63759e-05
2.29388e-05
-8.02171e-05
2.19854e-05
-8.36425e-05
2.10934e-05
-8.66887e-05
2.03887e-05
-8.94307e-05
2.00134e-05
2.02251e-05
-9.20163e-05
-3.36197e-07
1.81928e-06
-1.298e-06
5.23071e-06
-2.8651e-06
8.56347e-06
-5.01013e-06
1.17851e-05
-7.69795e-06
1.48598e-05
-1.08854e-05
1.77506e-05
-1.4521e-05
2.04201e-05
-1.8545e-05
2.2831e-05
-2.28895e-05
2.4947e-05
-2.74782e-05
2.67336e-05
-3.22274e-05
2.81593e-05
-3.70464e-05
2.91977e-05
-4.18388e-05
2.98288e-05
-4.65042e-05
3.0042e-05
-5.094e-05
2.98391e-05
-5.50455e-05
2.92372e-05
-5.87249e-05
2.82734e-05
-6.18932e-05
2.70078e-05
-6.44823e-05
2.55279e-05
-6.6448e-05
2.39511e-05
-6.7778e-05
2.24235e-05
-6.84971e-05
2.11078e-05
-6.86708e-05
2.01871e-05
1.9997e-05
-6.84428e-05
-3.13656e-07
2.13294e-06
-1.20658e-06
6.12363e-06
-2.6546e-06
1.00115e-05
-4.62602e-06
1.37566e-05
-7.08096e-06
1.73148e-05
-9.97094e-06
2.06406e-05
-1.32386e-05
2.36878e-05
-1.68178e-05
2.64101e-05
-2.06329e-05
2.87621e-05
-2.45995e-05
3.07002e-05
-2.86243e-05
3.21842e-05
-3.26061e-05
3.31794e-05
-3.6436e-05
3.36587e-05
-3.99997e-05
3.36057e-05
-4.3179e-05
3.30184e-05
-4.58553e-05
3.19135e-05
-4.79134e-05
3.03315e-05
-4.92475e-05
2.83418e-05
-4.97678e-05
2.60481e-05
-4.94091e-05
2.35924e-05
-4.81405e-05
2.11549e-05
-4.59734e-05
1.89406e-05
-4.29652e-05
1.7179e-05
1.62463e-05
-3.92145e-05
-2.87069e-07
2.42001e-06
-1.09861e-06
6.93518e-06
-2.40575e-06
1.13186e-05
-4.17164e-06
1.55225e-05
-6.35069e-06
1.94938e-05
-8.88813e-06
2.3178e-05
-1.17197e-05
2.65193e-05
-1.47712e-05
2.94617e-05
-1.79586e-05
3.19495e-05
-2.11876e-05
3.39292e-05
-2.43539e-05
3.53505e-05
-2.73433e-05
3.61688e-05
-3.00327e-05
3.63482e-05
-3.22913e-05
3.58642e-05
-3.39821e-05
3.47092e-05
-3.49652e-05
3.28967e-05
-3.51022e-05
3.04684e-05
-3.42614e-05
2.75011e-05
-3.23267e-05
2.41134e-05
-2.92068e-05
2.04725e-05
-2.48477e-05
1.67958e-05
-1.92443e-05
1.33373e-05
-1.24694e-05
1.0404e-05
8.53168e-06
-4.75475e-06
-2.56629e-07
2.67664e-06
-9.74812e-07
7.65336e-06
-2.12016e-06
1.2464e-05
-3.64978e-06
1.70521e-05
-5.51147e-06
2.13555e-05
-7.64317e-06
2.53097e-05
-9.9726e-06
2.88487e-05
-1.24167e-05
3.19058e-05
-1.48815e-05
3.44143e-05
-1.72614e-05
3.63091e-05
-1.94396e-05
3.75286e-05
-2.12874e-05
3.80166e-05
-2.26653e-05
3.77261e-05
-2.34235e-05
3.66224e-05
-2.34035e-05
3.46892e-05
-2.24409e-05
3.1934e-05
-2.03693e-05
2.83969e-05
-1.70271e-05
2.41589e-05
-1.22655e-05
1.93518e-05
-5.96109e-06
1.41681e-05
1.96993e-06
8.8648e-06
1.15567e-05
3.7505e-06
2.27561e-05
-7.95405e-07
-4.14958e-06
3.54374e-05
-2.22521e-07
2.89916e-06
-8.35881e-07
8.26672e-06
-1.79934e-06
1.34274e-05
-3.06309e-06
1.83158e-05
-4.56741e-06
2.28598e-05
-6.24204e-06
2.69844e-05
-8.00566e-06
3.06124e-05
-9.76531e-06
3.36655e-05
-1.14158e-05
3.60648e-05
-1.28393e-05
3.77326e-05
-1.39048e-05
3.85941e-05
-1.44678e-05
3.85797e-05
-1.43705e-05
3.76287e-05
-1.34419e-05
3.56939e-05
-1.14995e-05
3.27467e-05
-8.35088e-06
2.87854e-05
-3.79822e-06
2.38443e-05
2.35562e-06
1.8005e-05
1.02975e-05
1.14099e-05
2.01899e-05
4.27562e-06
3.21531e-05
-3.09838e-06
4.62436e-05
-1.03401e-05
6.24315e-05
-1.69833e-05
-2.22633e-05
8.05452e-05
-1.84902e-07
3.08406e-06
-6.82415e-07
8.76423e-06
-1.4446e-06
1.41896e-05
-2.41389e-06
1.92851e-05
-3.52216e-06
2.39681e-05
-4.69004e-06
2.81522e-05
-5.82624e-06
3.17486e-05
-6.82686e-06
3.46661e-05
-7.57464e-06
3.68126e-05
-7.93817e-06
3.80962e-05
-7.77122e-06
3.84271e-05
-6.91205e-06
3.77205e-05
-5.18299e-06
3.58997e-05
-2.39032e-06
3.29012e-05
1.67517e-06
2.86812e-05
7.23649e-06
2.32241e-05
1.45269e-05
1.65538e-05
2.37838e-05
8.74814e-06
3.52383e-05
-4.45213e-08
4.90993e-05
-9.58535e-06
6.5531e-05
-1.95301e-05
8.46251e-05
-2.94342e-05
0.000106365
-3.87236e-05
-4.64508e-05
0.000130553
-1.43891e-07
3.22795e-06
-5.14873e-07
9.13521e-06
-1.05697e-06
1.47317e-05
-1.70402e-06
1.99322e-05
-2.37862e-06
2.46427e-05
-2.99143e-06
2.8765e-05
-3.44032e-06
3.21975e-05
-3.60954e-06
3.48353e-05
-3.36877e-06
3.65718e-05
-2.57215e-06
3.72995e-05
-1.05721e-06
3.69122e-05
1.35614e-06
3.53071e-05
4.8666e-06
3.23892e-05
9.69217e-06
2.80756e-05
1.60704e-05
2.2303e-05
2.42574e-05
1.50371e-05
3.45253e-05
6.28595e-06
4.71563e-05
-3.88287e-06
6.24322e-05
-1.53204e-05
8.06166e-05
-2.77697e-05
0.000101928
-4.0841e-05
0.000126501
-5.4008e-05
0.000154343
-6.65652e-05
-7.73379e-05
0.00018523
-9.95596e-08
3.32751e-06
-3.33542e-07
9.3692e-06
-6.37117e-07
1.50353e-05
-9.3468e-07
2.02297e-05
-1.13877e-06
2.48468e-05
-1.14919e-06
2.87755e-05
-8.52148e-07
3.19004e-05
-1.19194e-07
3.41023e-05
1.19386e-06
3.52588e-05
3.24819e-06
3.52452e-05
6.22328e-06
3.39371e-05
1.03184e-05
3.1212e-05
1.57541e-05
2.69535e-05
2.27737e-05
2.10561e-05
3.16441e-05
1.34326e-05
4.26564e-05
4.02477e-06
5.61241e-05
-7.18182e-06
7.23787e-05
-2.01374e-05
9.17588e-05
-3.47005e-05
0.000114592
-5.06027e-05
0.000141162
-6.74109e-05
0.000171663
-8.45092e-05
0.000206133
-0.000101036
-0.000115537
0.000244333
-5.19191e-08
3.37943e-06
-1.38524e-07
9.4558e-06
-1.85308e-07
1.50821e-05
-1.0644e-07
2.01509e-05
1.9643e-07
2.45439e-05
8.35124e-07
2.81368e-05
1.93594e-06
3.07996e-05
3.64082e-06
3.23975e-05
6.10858e-06
3.2791e-05
9.51643e-06
3.18374e-05
1.40615e-05
2.9392e-05
1.99629e-05
2.53107e-05
2.74633e-05
1.94531e-05
3.68317e-05
1.16877e-05
4.83651e-05
1.89917e-06
6.23903e-05
-1.00004e-05
7.92638e-05
-2.40553e-05
9.93691e-05
-4.02427e-05
0.000123108
-5.84394e-05
0.000150881
-7.83758e-05
0.000183052
-9.95819e-05
0.000219891
-0.000121348
0.000261484
-0.00014263
-0.000161647
0.000307594
-9.87443e-10
3.38042e-06
7.02431e-08
9.38457e-06
2.98545e-07
1.48538e-05
7.80758e-07
1.96687e-05
1.62691e-06
2.36978e-05
2.96126e-06
2.68024e-05
4.92341e-06
2.88375e-05
7.66954e-06
2.96513e-05
1.13739e-05
2.90867e-05
1.62303e-05
2.69809e-05
2.24542e-05
2.31681e-05
3.02846e-05
1.74803e-05
3.99867e-05
9.75093e-06
5.1855e-05
-1.80588e-07
6.6216e-05
-1.24618e-05
8.34317e-05
-2.72161e-05
0.000103902
-4.45256e-05
0.000128064
-6.44048e-05
0.000156387
-8.67622e-05
0.000189353
-0.000111342
0.000227423
-0.000137651
0.000270963
-0.000164888
0.000320134
-0.0001918
-0.000216179
0.000374666
5.34084e-08
3.32701e-06
2.92993e-07
9.14499e-06
8.14807e-07
1.43319e-05
1.72742e-06
1.8756e-05
3.15331e-06
2.22719e-05
5.22994e-06
2.47258e-05
8.11102e-06
2.59564e-05
1.19678e-05
2.57945e-05
1.69907e-05
2.40638e-05
2.33909e-05
2.05808e-05
3.14025e-05
1.51565e-05
4.12848e-05
7.59798e-06
5.33253e-05
-2.28959e-06
6.78432e-05
-1.46985e-05
8.51934e-05
-2.9812e-05
0.000105772
-4.77943e-05
0.000130019
-6.87727e-05
0.000158425
-9.2811e-05
0.000191528
-0.000119865
0.000229901
-0.000149716
0.000274117
-0.000181867
0.000324671
-0.000215442
0.000381838
-0.000248967
-0.000279727
0.000445386
1.11255e-07
3.21575e-06
5.29969e-07
8.72627e-06
1.36396e-06
1.3498e-05
2.73424e-06
1.73858e-05
4.77649e-06
2.02297e-05
7.64221e-06
2.18601e-05
1.15001e-05
2.20985e-05
1.65372e-05
2.07574e-05
2.29611e-05
1.76399e-05
3.10011e-05
1.25408e-05
4.09104e-05
5.24721e-06
5.2969e-05
-4.46062e-06
6.74864e-05
-1.6807e-05
8.48055e-05
-3.20176e-05
0.000105308
-5.03143e-05
0.000129419
-7.19056e-05
0.000157618
-9.69713e-05
0.000190442
-0.000125635
0.000228497
-0.00015792
0.000272448
-0.000193667
0.000322997
-0.000232417
0.000380802
-0.000273247
0.000446308
-0.000314472
-0.000352792
0.000519373
1.72688e-07
3.04307e-06
7.81423e-07
8.11754e-06
1.94639e-06
1.2333e-05
3.80171e-06
1.55304e-05
6.497e-06
1.75344e-05
1.01986e-05
1.81584e-05
1.50911e-05
1.7206e-05
2.13786e-05
1.44699e-05
2.92864e-05
9.73209e-06
3.90629e-05
2.76433e-06
5.09815e-05
-6.67146e-06
6.53433e-05
-1.88224e-05
8.24797e-05
-3.39434e-05
0.000102757
-5.22944e-05
0.000126579
-7.41369e-05
0.0001544
-9.97263e-05
0.000186727
-0.000129299
0.00022414
-0.000163048
0.0002673
-0.00020108
0.000316963
-0.00024333
0.000373967
-0.00028942
0.000439169
-0.00033845
0.000513259
-0.000388562
-0.00043581
0.000596278
2.37751e-07
2.80532e-06
1.04744e-06
7.30785e-06
2.56212e-06
1.08183e-05
4.92966e-06
1.31629e-05
8.31434e-06
1.41497e-05
1.28982e-05
1.35745e-05
1.88827e-05
1.12216e-05
2.64898e-05
6.8628e-06
3.5964e-05
2.57823e-07
4.75741e-05
-8.84576e-06
6.16148e-05
-2.07121e-05
7.84091e-05
-3.56167e-05
9.83109e-05
-5.38452e-05
0.000121709
-7.56921e-05
0.00014903
-0.000101458
0.000180748
-0.000131445
0.000217396
-0.000165946
0.000259578
-0.00020523
0.000307997
-0.000249499
0.00036348
-0.000298813
0.000427
-0.00035294
0.000499641
-0.000411091
0.000582432
-0.000471354
-0.000529137
0.000675759
3.06421e-07
2.49889e-06
1.32783e-06
6.28644e-06
3.21058e-06
8.93556e-06
6.11681e-06
1.02567e-05
1.02262e-05
1.00403e-05
1.57373e-05
8.06338e-06
2.28694e-05
4.0895e-06
3.18637e-05
-2.13147e-06
4.29852e-05
-1.08636e-05
5.65243e-05
-2.23849e-05
7.27988e-05
-3.69866e-05
9.21554e-05
-5.49733e-05
0.000114972
-7.66619e-05
0.000141661
-0.000102381
0.00017267
-0.000132468
0.000208493
-0.000167268
0.000249677
-0.00020713
0.000296837
-0.000252391
0.000350695
-0.000303357
0.000412117
-0.000360235
0.000482175
-0.000422998
0.000562189
-0.000491106
0.000653631
-0.000562795
-0.000632986
0.00075748
3.78577e-07
2.12032e-06
1.622e-06
5.04302e-06
3.89028e-06
6.66729e-06
7.36031e-06
6.78663e-06
1.22277e-05
5.17289e-06
1.87086e-05
1.58256e-06
2.70407e-05
-4.24265e-06
3.74858e-05
-1.25766e-05
5.03309e-05
-2.37087e-05
6.58899e-05
-3.79439e-05
8.45057e-05
-5.56024e-05
0.000106551
-7.70188e-05
0.000132431
-0.000102542
0.000162583
-0.000132533
0.000197481
-0.000167365
0.000237636
-0.000207423
0.000283604
-0.000253099
0.000336005
-0.000304791
0.000395544
-0.000362896
0.000463081
-0.000427771
0.000539724
-0.000499641
0.000626975
-0.000578356
0.000726813
-0.000662633
-0.00074734
0.000841167
4.53975e-07
1.66634e-06
1.92892e-06
3.56807e-06
4.59871e-06
3.99749e-06
8.65541e-06
2.72993e-06
1.43112e-05
-4.82861e-07
2.18e-05
-5.90624e-06
3.13794e-05
-1.38221e-05
4.33326e-05
-2.45298e-05
5.797e-05
-3.8346e-05
7.56309e-05
-5.56049e-05
9.66856e-05
-7.66571e-05
0.000121536
-0.00010187
0.000150618
-0.000131624
0.000184401
-0.000166315
0.000223387
-0.000206351
0.000268114
-0.000252149
0.000319153
-0.000304138
0.000377118
-0.000362757
0.000442688
-0.000428466
0.000516656
-0.00050174
0.000600065
-0.00058305
0.000694452
-0.000672743
0.000802244
-0.000770425
-0.000871856
0.00092676
5.32236e-07
1.13411e-06
2.24703e-06
1.85327e-06
5.33226e-06
9.12261e-07
9.99537e-06
-1.93317e-06
1.64653e-05
-6.95284e-06
2.49947e-05
-1.44356e-05
3.58613e-05
-2.46887e-05
4.93705e-05
-3.8039e-05
6.58572e-05
-5.48328e-05
8.56878e-05
-7.54355e-05
0.000109262
-0.000100231
0.000137015
-0.000129622
0.000169417
-0.000164026
0.000206975
-0.000203873
0.000250231
-0.000249608
0.000299763
-0.00030168
0.000356173
-0.000360548
0.000420091
-0.000426675
0.000492171
-0.000500546
0.000573118
-0.000582686
0.000663789
-0.000673721
0.000765477
-0.000774431
0.000880717
-0.000885666
-0.0010061
0.00101496
6.12864e-07
5.21242e-07
2.57433e-06
-1.08188e-07
6.08627e-06
-2.59969e-06
1.13716e-05
-7.21848e-06
1.86762e-05
-1.42575e-05
2.82713e-05
-2.40306e-05
4.04551e-05
-3.68726e-05
5.55558e-05
-5.31397e-05
7.39331e-05
-7.32101e-05
9.59812e-05
-9.74836e-05
0.000122131
-0.000126381
0.000152852
-0.000160343
0.000188653
-0.000199827
0.000230088
-0.000245308
0.000277749
-0.000297269
0.00033227
-0.000356202
0.000394321
-0.000422599
0.000464596
-0.00049695
0.000543795
-0.000579745
0.000632606
-0.000671497
0.000731708
-0.000772823
0.000841821
-0.000884545
0.000964449
-0.00100829
-0.00114974
0.00110808
6.9527e-07
-1.74028e-07
2.90844e-06
-2.32136e-06
6.85531e-06
-6.54655e-06
1.2774e-05
-1.31372e-05
2.09273e-05
-2.24108e-05
3.16046e-05
-3.47079e-05
4.51245e-05
-5.03925e-05
6.18372e-05
-6.98523e-05
8.2127e-05
-9.34999e-05
0.000106415
-0.000121772
0.000135164
-0.000155129
0.000168876
-0.000194055
0.000208103
-0.000239055
0.000253445
-0.00029065
0.000305554
-0.000349379
0.000365142
-0.000415789
0.000432978
-0.000490435
0.000509898
-0.00057387
0.000596802
-0.000666648
0.000694654
-0.000769349
0.00080448
-0.000882649
0.000927096
-0.00100716
0.00106174
-0.00114294
-0.00129684
0.00120885
7.78813e-07
-9.52841e-07
3.24684e-06
-4.78939e-06
7.6335e-06
-1.09332e-05
1.41919e-05
-1.96956e-05
2.32008e-05
-3.14197e-05
3.49676e-05
-4.64746e-05
4.98297e-05
-6.52547e-05
6.81584e-05
-8.8181e-05
9.03609e-05
-0.000115702
0.000116884
-0.000148295
0.000148216
-0.000186462
0.000184894
-0.000230733
0.000227504
-0.000281665
0.00027669
-0.000339836
0.000333162
-0.00040585
0.000397704
-0.000480331
0.000471197
-0.000563928
0.000554652
-0.000657325
0.000649275
-0.000761271
0.000756603
-0.000876677
0.000878793
-0.00100484
0.00101951
-0.00114788
0.00118754
-0.00131097
-0.00151468
0.00140537
8.62864e-07
-1.81571e-06
3.58698e-06
-7.5135e-06
8.41498e-06
-1.57612e-05
1.56142e-05
-2.68948e-05
2.54789e-05
-4.12844e-05
3.83326e-05
-5.93283e-05
5.45306e-05
-8.14526e-05
7.44626e-05
-0.000108113
9.85559e-05
-0.000139796
0.000127278
-0.000177017
0.000161142
-0.000220325
0.000200706
-0.000270298
0.000246586
-0.000327544
0.000299455
-0.000392705
0.000360056
-0.000466452
0.00042922
-0.000549495
0.000507883
-0.000642591
0.000597134
-0.000746576
0.000698285
-0.000862422
0.000812992
-0.000991384
0.000943448
-0.0011353
0.00109275
-0.00129718
0.00126492
-0.00148313
-0.00170709
0.00145733
9.46849e-07
-2.76255e-06
3.92653e-06
-1.04932e-05
9.19431e-06
-2.1029e-05
1.70309e-05
-3.47314e-05
2.77447e-05
-5.19983e-05
4.1674e-05
-7.32576e-05
5.91894e-05
-9.8968e-05
8.06965e-05
-0.00012962
0.000106638
-0.000165738
0.000137499
-0.000207878
0.000173806
-0.000256632
0.000216134
-0.000312625
0.000265109
-0.00037652
0.000321416
-0.000449012
0.000385804
-0.00053084
0.0004591
-0.00062279
0.000542222
-0.000725714
0.000636209
-0.000840563
0.000742248
-0.000968461
0.000861706
-0.00111084
0.000996111
-0.0012697
0.00114698
-0.00144805
0.00131475
-0.00165091
-0.00188632
0.00149398
1.03029e-06
-3.79284e-06
4.26349e-06
-1.37264e-05
9.96674e-06
-2.67322e-05
1.84331e-05
-4.31977e-05
2.99835e-05
-6.35487e-05
4.49691e-05
-8.82432e-05
6.37731e-05
-0.000117772
8.68135e-05
-0.000152661
0.000114545
-0.000193469
0.000147461
-0.000240794
0.000186096
-0.000295267
0.00023103
-0.000357559
0.000282886
-0.000428376
0.000342339
-0.000508465
0.000410114
-0.000598615
0.000486992
-0.000699669
0.000573815
-0.000812537
0.000671483
-0.000938231
0.000780945
-0.00107792
0.000903151
-0.00123305
0.00103891
-0.00140546
0.00118856
-0.00159769
0.00135101
-0.00181336
-0.00205687
0.00152156
1.1128e-06
-4.90564e-06
4.59625e-06
-1.72098e-05
1.07284e-05
-3.28644e-05
1.98134e-05
-5.22827e-05
3.2183e-05
-7.59183e-05
4.81989e-05
-0.000104259
6.82541e-05
-0.000137827
9.27751e-05
-0.000177182
0.000122223
-0.000222917
0.000157095
-0.000275666
0.000197926
-0.000336098
0.000245287
-0.00040492
0.000299787
-0.000482876
0.000362072
-0.00057075
0.00043282
-0.000669364
0.000512742
-0.00077959
0.000602563
-0.000902358
0.000703011
-0.00103868
0.000814772
-0.00118968
0.000938408
-0.00135668
0.00107419
-0.00154124
0.00122176
-0.00174527
0.00137958
-0.00197117
-0.00222122
0.00154393
1.19413e-06
-6.09977e-06
4.92357e-06
-2.09393e-05
1.14763e-05
-3.94171e-05
2.11658e-05
-6.19723e-05
3.43331e-05
-8.90856e-05
5.13479e-05
-0.000121274
7.261e-05
-0.000159089
9.85505e-05
-0.000203122
0.000129632
-0.000253999
0.00016635
-0.000312384
0.00020923
-0.000378978
0.000258829
-0.000454518
0.000315727
-0.000539775
0.00038053
-0.000635552
0.000453854
-0.000742688
0.00053632
-0.000862055
0.000628527
-0.000994565
0.000731027
-0.00114118
0.000844265
-0.00130292
0.000968492
-0.00148091
0.00110361
-0.00167636
0.00124893
-0.00189059
0.00140285
-0.00212508
-0.00238079
0.00156242
1.27407e-06
-7.37385e-06
5.24452e-06
-2.49097e-05
1.22078e-05
-4.63804e-05
2.24857e-05
-7.22501e-05
3.64258e-05
-0.000103026
5.44037e-05
-0.000139252
7.68228e-05
-0.000181509
0.000104115
-0.000230414
0.00013674
-0.000286624
0.000175186
-0.000350829
0.000219963
-0.000423755
0.000271603
-0.000506158
0.000330654
-0.000598825
0.000397668
-0.000702566
0.000473192
-0.000818213
0.000557751
-0.000946614
0.000651818
-0.00108863
0.000755781
-0.00124514
0.000869881
-0.00141702
0.000994133
-0.00160516
0.0011282
-0.00181043
0.00127124
-0.00203364
0.0014217
-0.00227554
-0.00253625
0.00157716
1.35248e-06
-8.72633e-06
5.5583e-06
-2.91155e-05
1.29211e-05
-5.37432e-05
2.37688e-05
-8.30977e-05
3.8454e-05
-0.000117711
5.73553e-05
-0.000158153
8.08766e-05
-0.00020503
0.000109447
-0.000258985
0.00014352
-0.000320697
0.000183568
-0.000390878
0.000230084
-0.00047027
0.000283568
-0.000559643
0.000344526
-0.000659784
0.000413455
-0.000771495
0.000490826
-0.000895584
0.000577066
-0.00103285
0.000672529
-0.00118409
0.000777454
-0.00135007
0.000891917
-0.00153149
0.00101576
-0.001729
0.00114848
-0.00194315
0.00128915
-0.00217431
0.00143631
-0.0024227
-0.0026878
0.00158785
1.4292e-06
-1.01555e-05
5.86414e-06
-3.35505e-05
1.36141e-05
-6.14932e-05
2.50112e-05
-9.44948e-05
4.04109e-05
-0.000133111
6.01921e-05
-0.000177934
8.47564e-05
-0.000229594
0.000114527
-0.000288755
0.000149944
-0.000356114
0.000191466
-0.000432399
0.000239557
-0.000518361
0.000294684
-0.00061477
0.000357306
-0.000722405
0.000427857
-0.000842046
0.000506734
-0.00097446
0.000594268
-0.00112039
0.000690699
-0.00128053
0.000796136
-0.0014555
0.000910514
-0.00164586
0.00103353
-0.00185202
0.00116459
-0.0020742
0.00130271
-0.00231243
0.00144648
-0.00256647
-0.00283533
0.00159401
1.50404e-06
-1.16596e-05
6.16114e-06
-3.82076e-05
1.42844e-05
-6.96164e-05
2.62084e-05
-0.000106419
4.2289e-05
-0.000149191
6.29029e-05
-0.000198548
8.84462e-05
-0.000255137
0.000119332
-0.000319641
0.000155986
-0.000392769
0.000198845
-0.000475257
0.000248342
-0.000567859
0.000304906
-0.000671334
0.000368944
-0.000786443
0.000440828
-0.00091393
0.000520875
-0.00105451
0.000609325
-0.00120884
0.000706311
-0.00137751
0.000811825
-0.00156102
0.00092568
-0.00175972
0.00104746
-0.0019738
0.00117649
-0.00220323
0.00131174
-0.00244769
0.00145186
-0.00270659
-0.00297855
0.00159509
1.57675e-06
-1.32363e-05
6.44815e-06
-4.3079e-05
1.49293e-05
-7.80976e-05
2.73552e-05
-0.000118845
4.40797e-05
-0.000165916
6.54747e-05
-0.000219943
9.19276e-05
-0.00028159
0.000123838
-0.000351551
0.000161615
-0.000430545
0.000205665
-0.000519308
0.000256392
-0.000618586
0.00031418
-0.000729122
0.000379382
-0.000851645
0.000452303
-0.000986851
0.000533182
-0.00113539
0.000622169
-0.00129783
0.000719297
-0.00147464
0.00082445
-0.00166617
0.000937334
-0.0018726
0.00105744
-0.00209391
0.00118401
-0.0023298
0.00131601
-0.00257969
0.0014521
-0.00284268
-0.00311708
0.00159063
1.64698e-06
-1.48833e-05
6.72375e-06
-4.81557e-05
1.55455e-05
-8.69194e-05
2.84454e-05
-0.000131745
4.57729e-05
-0.000183243
6.78923e-05
-0.000242062
9.51794e-05
-0.000308877
0.000128018
-0.00038439
0.000166792
-0.00046932
0.000211883
-0.000564399
0.000263654
-0.000670357
0.000322443
-0.00078791
0.000388545
-0.000917747
0.000462199
-0.00106051
0.000543565
-0.00121675
0.000632704
-0.00138696
0.000729553
-0.00157149
0.000833896
-0.00177052
0.000945344
-0.00198405
0.0010633
-0.00221187
0.00118696
-0.00245345
0.00131524
-0.00270798
0.00144685
-0.00297429
-0.00325043
0.00158021
1.7143e-06
-1.65976e-05
6.98618e-06
-5.34276e-05
1.61289e-05
-9.60622e-05
2.94715e-05
-0.000145087
4.73567e-05
-0.000201129
7.01382e-05
-0.000264844
9.81773e-05
-0.000336916
0.000131838
-0.00041805
0.000171479
-0.000508961
0.000217447
-0.000610367
0.000270065
-0.000722975
0.000329621
-0.000847466
0.000396351
-0.000984477
0.000470423
-0.00113458
0.000551919
-0.00129825
0.000640814
-0.00147586
0.000736951
-0.00166762
0.000840023
-0.00187359
0.000949553
-0.00209358
0.00106487
-0.00232719
0.00118511
-0.00257369
0.0013092
-0.00283206
0.00143584
-0.00310093
-0.00337814
0.00156355
1.7782e-06
-1.83758e-05
7.23336e-06
-5.88828e-05
1.66748e-05
-0.000105504
3.04251e-05
-0.000158837
4.88175e-05
-0.000219521
7.21927e-05
-0.000288219
0.000100894
-0.000365618
0.000135263
-0.000452419
0.000175628
-0.000549326
0.0002223
-0.000657039
0.000275558
-0.000776233
0.000335636
-0.000907544
0.000402707
-0.00105155
0.000476871
-0.00120874
0.00055813
-0.00137951
0.000646373
-0.0015641
0.000741356
-0.00176261
0.000842687
-0.00197492
0.000949806
-0.0022007
0.00106198
-0.00243936
0.0011783
-0.00269001
0.00129768
-0.00295144
0.00141887
-0.00322211
-0.00349972
0.00154044
1.83808e-06
-2.02139e-05
7.46294e-06
-6.45076e-05
1.71778e-05
-0.000115218
3.12966e-05
-0.000172956
5.01405e-05
-0.000238365
7.40342e-05
-0.000312113
0.000103301
-0.000394884
0.000138254
-0.000487372
0.000179192
-0.000590264
0.000226384
-0.000704231
0.000280062
-0.000829911
0.000340404
-0.000967886
0.000407521
-0.00111867
0.000481438
-0.00128266
0.000562082
-0.00146015
0.000649258
-0.00165128
0.00074264
-0.00185599
0.000841753
-0.00207403
0.000945967
-0.00230492
0.0010545
-0.00254789
0.00116639
-0.00280191
0.00128058
-0.00306563
0.00139582
-0.00333736
-0.00361471
0.00151081
1.89327e-06
-2.21071e-05
7.67236e-06
-7.02867e-05
1.76323e-05
-0.000125178
3.20758e-05
-0.0001874
5.13097e-05
-0.000257599
7.56399e-05
-0.000336443
0.000105366
-0.00042461
0.000140772
-0.000522778
0.000182119
-0.000631612
0.000229637
-0.000751748
0.000283504
-0.000883778
0.000343843
-0.00102822
0.000410697
-0.00118552
0.000484022
-0.00135598
0.000563666
-0.0015398
0.000649356
-0.00173697
0.000740685
-0.00194732
0.000837107
-0.00217045
0.00093793
-0.00240574
0.00104232
-0.00265228
0.00114931
-0.0029089
0.00125783
-0.00317414
0.00136669
-0.00344623
-0.0037227
0.00147469
1.94309e-06
-2.40502e-05
7.85888e-06
-7.62025e-05
1.80321e-05
-0.000135352
3.27522e-05
-0.00020212
5.23087e-05
-0.000277155
7.69862e-05
-0.000361121
0.000107057
-0.000454681
0.000142775
-0.000558495
0.000184361
-0.000673198
0.000231998
-0.000799386
0.000285815
-0.000937595
0.000345872
-0.00108828
0.000412149
-0.0012518
0.000484529
-0.00142836
0.000562785
-0.00161805
0.000646568
-0.00182075
0.000735399
-0.00203615
0.000828667
-0.00226372
0.000925625
-0.0025027
0.00102541
-0.00275206
0.00112703
-0.00301053
0.00122945
-0.00327656
0.00133154
-0.00354832
-0.00382334
0.00143218
1.98679e-06
-2.6037e-05
8.01972e-06
-8.22354e-05
1.83711e-05
-0.000145703
3.33148e-05
-0.000217064
5.31209e-05
-0.000296962
7.80497e-05
-0.000386049
0.000108345
-0.000484976
0.000144223
-0.000594374
0.000185868
-0.000714842
0.000233411
-0.000846929
0.000286929
-0.000991112
0.00034642
-0.00114777
0.000411798
-0.00131718
0.000482877
-0.00149944
0.000559356
-0.00169453
0.000640818
-0.00190221
0.000726717
-0.00212205
0.000816383
-0.00235339
0.000909028
-0.00259534
0.00100376
-0.00284679
0.00109961
-0.00310638
0.00119554
-0.00337249
0.00129051
-0.00364329
-0.00391632
0.00138349
2.02366e-06
-2.80607e-05
8.15207e-06
-8.83639e-05
1.86432e-05
-0.000156194
3.3753e-05
-0.000232173
5.37298e-05
-0.000316938
7.88074e-05
-0.000411127
0.000109197
-0.000515366
0.00014508
-0.000630257
0.000186594
-0.000756356
0.000233822
-0.000894158
0.000286785
-0.00104407
0.000345421
-0.00120641
0.000409577
-0.00138133
0.000478999
-0.00156886
0.000553321
-0.00176885
0.000632056
-0.00198095
0.000714603
-0.0022046
0.000800243
-0.00243903
0.000888156
-0.00268326
0.000977439
-0.00293607
0.00106713
-0.00319607
0.00115625
-0.00346161
0.00124381
-0.00373085
-0.00400142
0.0013289
2.05297e-06
-3.01137e-05
8.2532e-06
-9.45641e-05
1.88424e-05
-0.000166783
3.40566e-05
-0.000247388
5.41202e-05
-0.000337002
7.9238e-05
-0.000436245
0.000109588
-0.000545716
0.00014531
-0.000665979
0.000186498
-0.000797544
0.000233185
-0.000940845
0.000285334
-0.00109622
0.000342822
-0.0012639
0.000405434
-0.00144394
0.00047285
-0.00163628
0.00054464
-0.00184064
0.000620259
-0.00205657
0.000699056
-0.00228339
0.000780273
-0.00252024
0.000863071
-0.00276605
0.000946545
-0.00301955
0.00102976
-0.00327928
0.00111178
-0.00354363
0.0011917
-0.00381077
-0.00407845
0.00126874
2.07404e-06
-3.21877e-05
8.32054e-06
-0.000100811
1.89631e-05
-0.000177426
3.42161e-05
-0.000262641
5.42776e-05
-0.000357063
7.93218e-05
-0.000461289
0.000109491
-0.000575885
0.000144883
-0.000701372
0.000185546
-0.000838207
0.000231461
-0.000986761
0.000282534
-0.0011473
0.000338584
-0.00131995
0.000399334
-0.00150469
0.000464402
-0.00170135
0.0005333
-0.00190954
0.000605433
-0.0021287
0.000680106
-0.00235806
0.000756538
-0.00259668
0.000833876
-0.00284339
0.000911229
-0.0030969
0.000987693
-0.00335574
0.00106239
-0.00361833
0.00113452
-0.0038829
-0.00414731
0.00120338
2.08623e-06
-3.42739e-05
8.35168e-06
-0.000107076
1.90002e-05
-0.000188074
3.42227e-05
-0.000277863
5.41893e-05
-0.00037703
7.90417e-05
-0.000486142
0.000108884
-0.000605727
0.000143774
-0.000736261
0.000183709
-0.000878142
0.00022862
-0.00103167
0.000278358
-0.00119703
0.000332682
-0.00137427
0.000391258
-0.00156327
0.000453648
-0.00176374
0.000519312
-0.0019752
0.000587611
-0.002197
0.000657819
-0.00242827
0.000729136
-0.00266799
0.000800712
-0.00291497
0.000871677
-0.00316787
0.000941172
-0.00342524
0.00100839
-0.00368554
0.0010726
-0.00394711
-0.00420794
0.00113323
2.08895e-06
-3.63629e-05
8.34449e-06
-0.000113332
1.89493e-05
-0.000198679
3.4069e-05
-0.000292983
5.38444e-05
-0.000396805
7.83833e-05
-0.00051068
0.000107751
-0.000635095
0.000141962
-0.000770472
0.000180966
-0.000917146
0.000224642
-0.00107535
0.000272787
-0.00124518
0.000325105
-0.00142659
0.000381208
-0.00161937
0.000440605
-0.00182314
0.000502713
-0.00203731
0.000566857
-0.00226114
0.000632288
-0.0024937
0.0006982
-0.0027339
0.000763755
-0.00298052
0.000828115
-0.00323223
0.000890472
-0.0034876
0.00095009
-0.00374516
0.00100634
-0.00400336
-0.00426034
0.00105873
2.0817e-06
-3.84446e-05
8.29713e-06
-0.000119547
1.88064e-05
-0.000209188
3.37487e-05
-0.000307925
5.32341e-05
-0.000416291
7.73354e-05
-0.000534782
0.000106079
-0.000663838
0.000139434
-0.000803827
0.000177304
-0.000955016
0.000219517
-0.00111756
0.000265818
-0.00129148
0.00031586
-0.00147663
0.000369202
-0.00167271
0.00042531
-0.00187925
0.000483563
-0.00209556
0.00054326
-0.00232084
0.000603637
-0.00255408
0.000663892
-0.00279416
0.000723209
-0.00303984
0.000780791
-0.00328981
0.000835891
-0.0035427
0.000887847
-0.00379712
0.000936116
-0.00405163
-0.00430454
0.000980321
2.06405e-06
-4.05086e-05
8.20812e-06
-0.000125691
1.85685e-05
-0.000219549
3.3257e-05
-0.000322614
5.23521e-05
-0.000435386
7.58905e-05
-0.00055832
0.000103858
-0.000691806
0.000136182
-0.00083615
0.000172718
-0.000991553
0.000213246
-0.00115809
0.00025746
-0.00133569
0.000304966
-0.00152414
0.000355277
-0.00172303
0.000407821
-0.00193179
0.000461946
-0.00214969
0.000516931
-0.00237583
0.000572012
-0.00260916
0.000626398
-0.00284855
0.000679304
-0.00309275
0.000729981
-0.00334048
0.000777747
-0.00359046
0.000822021
-0.00384139
0.000862348
-0.00409196
-0.00434064
0.000898443
2.03567e-06
-4.25443e-05
8.07627e-06
-0.000131732
1.82335e-05
-0.000229706
3.25908e-05
-0.000336971
5.11941e-05
-0.000453989
7.40443e-05
-0.00058117
0.000101088
-0.00071885
0.000132207
-0.00086727
0.000167214
-0.00102656
0.000205841
-0.00119672
0.000247736
-0.00137759
0.00029246
-0.00156886
0.000339488
-0.00177005
0.000388215
-0.00198052
0.000437965