/*--------------------------------*- C++ -*----------------------------------*\
  =========                 |
  \\      /  F ield         | OpenFOAM: The Open Source CFD Toolbox
   \\    /   O peration     | Website:  https://openfoam.org
    \\  /    A nd           | Version:  7
     \\/     M anipulation  |
\*---------------------------------------------------------------------------*/
FoamFile
{
    version     2.0;
    format      ascii;
    class       volVectorField;
    location    "25";
    object      U;
}
// * * * * * * * * * * * * * * * * * * * * * * * * * * * * * * * * * * * * * //

dimensions      [0 1 -1 0 0 0 0];

internalField   nonuniform List<vector> 
392
(
(0.451072 -0.00123343 -8.20384e-23)
(0.456944 -0.00120841 2.19931e-23)
(0.462702 -0.00118399 9.92271e-23)
(0.468349 -0.00116016 -9.74275e-23)
(0.452068 -0.0036971 -4.45529e-22)
(0.457922 -0.00362219 5.4467e-22)
(0.463663 -0.00354908 -1.58454e-22)
(0.469293 -0.00347773 -1.58274e-22)
(0.459875 -0.0060246 2.38013e-22)
(0.465581 -0.0059031 3.14745e-22)
(0.471177 -0.00578451 -1.13227e-22)
(0.46279 -0.00840815 -2.05285e-22)
(0.468445 -0.00823874 7.72493e-22)
(0.47399 -0.00807339 -2.10101e-22)
(0.466655 -0.0107655 -6.02253e-22)
(0.47224 -0.0105488 1.35128e-21)
(0.477719 -0.0103374 -6.7638e-22)
(0.471447 -0.0130894 1.3056e-22)
(0.476948 -0.0128264 -1.50218e-22)
(0.482343 -0.0125697 6.69389e-22)
(0.477143 -0.0153731 -1.29632e-21)
(0.482543 -0.0150647 1.73243e-21)
(0.487841 -0.0147637 -1.58011e-21)
(0.483713 -0.0176097 3.86767e-22)
(0.488998 -0.0172572 1.73679e-22)
(0.494183 -0.0169131 -6.45906e-22)
(0.491125 -0.0197931 1.67571e-21)
(0.49628 -0.0193978 -8.75351e-22)
(0.501338 -0.0190119 -2.74851e-22)
(0.499341 -0.0219172 -1.3663e-21)
(0.504353 -0.0214807 1.15713e-21)
(0.509272 -0.0210545 -1.41108e-21)
(0.50832 -0.0239766 -1.51269e-22)
(0.513177 -0.0235004 -2.62588e-21)
(0.517944 -0.0230355 2.66029e-21)
(0.518019 -0.0259661 2.20589e-21)
(0.522709 -0.025452 -9.02699e-23)
(0.527313 -0.02495 -1.28779e-21)
(0.52839 -0.027881 2.83884e-21)
(0.532903 -0.027331 -1.43157e-22)
(0.537335 -0.0267937 -1.8869e-21)
(0.539386 -0.0297173 1.25537e-21)
(0.543713 -0.0291332 -1.87357e-21)
(0.547963 -0.0285626 -1.29636e-21)
(0.550954 -0.0314713 1.20844e-21)
(0.555087 -0.0308551 1.91272e-21)
(0.559148 -0.0302531 6.68201e-22)
(0.563043 -0.0331398 3.47271e-21)
(0.566975 -0.0324936 -4.29887e-21)
(0.57084 -0.0318623 3.87969e-21)
(0.575598 -0.0347203 8.34414e-21)
(0.579323 -0.0340463 -2.86008e-21)
(0.582986 -0.0333876 -2.47107e-21)
(0.586589 -0.0327441 1.11809e-21)
(0.592078 -0.0355111 3.90301e-21)
(0.595536 -0.0348272 -4.35438e-21)
(0.598937 -0.0341589 9.25704e-22)
(0.605188 -0.0368866 -9.92206e-22)
(0.608436 -0.0361795 -2.28965e-22)
(0.611633 -0.0354885 -3.76638e-21)
(0.618596 -0.0381714 -7.31788e-22)
(0.621633 -0.0374433 -4.7352e-21)
(0.624624 -0.0367316 1.70202e-21)
(0.632252 -0.0393643 5.1523e-21)
(0.635076 -0.0386173 -7.17074e-21)
(0.63786 -0.0378869 -1.58249e-22)
(0.646101 -0.0404666 3.87304e-21)
(0.648713 -0.0397027 2.17888e-21)
(0.65129 -0.0389557 -5.18457e-21)
(0.660093 -0.0414893 -5.85166e-21)
(0.662494 -0.0407099 7.15375e-22)
(0.664864 -0.0399476 4.34792e-21)
(0.674177 -0.0424332 2.41274e-21)
(0.676369 -0.0416397 -1.87272e-21)
(0.678535 -0.0408635 4.39975e-21)
(0.701085 -0.0439572 0)
(0.702917 -0.0431474 0)
(0.70473 -0.0423548 0)
(0.7429 -0.0455706 0)
(0.744178 -0.0447488 0)
(0.745449 -0.0439439 0)
(0.785261 -0.0466362 0)
(0.785999 -0.0458133 0)
(0.78674 -0.0450064 0)
(0.827424 -0.047136 0)
(0.827648 -0.0463236 0)
(0.827887 -0.0455261 0)
(0.868696 -0.0470998 0)
(0.868447 -0.0463085 0)
(0.868221 -0.0455309 3.04035e-28)
(0.90846 -0.0465788 0)
(0.907786 -0.0458179 0)
(0.907143 -0.0450689 -3.04035e-28)
(0.946185 -0.0456315 0)
(0.945143 -0.0449085 0)
(0.944138 -0.0441954 0)
(0.98144 -0.0443225 0)
(0.980092 -0.0436428 0)
(0.978786 -0.0429711 0)
(1.0139 -0.0427198 0)
(1.01231 -0.042087 0)
(1.01076 -0.0414602 -3.22988e-28)
(1.04335 -0.0408918 0)
(1.04158 -0.0403077 0)
(1.03986 -0.0397277 3.22988e-28)
(1.06968 -0.0389046 0)
(1.06779 -0.0383693 0)
(1.06594 -0.0378363 0)
(1.09287 -0.0368191 0)
(1.09091 -0.0363312 0)
(1.08899 -0.035844 0)
(1.11299 -0.0346893 9.4017e-12)
(1.111 -0.0342464 0)
(1.10906 -0.0338027 0)
(1.13017 -0.032561 -9.4017e-12)
(1.12821 -0.0321599 0)
(1.12628 -0.0317568 0)
(1.14461 -0.0304712 3.74341e-28)
(1.1427 -0.0301084 -2.10772e-29)
(1.14081 -0.0297423 0)
(1.15655 -0.0284482 -3.74341e-28)
(1.1547 -0.0281197 2.10772e-29)
(1.15289 -0.0277872 0)
(1.16624 -0.0265116 0)
(1.16448 -0.0262137 0)
(1.16274 -0.0259111 0)
(1.17394 -0.0246736 0)
(1.17227 -0.0244028 0)
(1.17063 -0.0241268 0)
(1.17992 -0.0229401 2.24313e-28)
(1.17835 -0.0226933 -5.73199e-28)
(1.1768 -0.0224408 2.11083e-28)
(1.18444 -0.0213115 -2.24313e-28)
(1.18297 -0.0210859 5.73199e-28)
(1.18151 -0.0208544 -2.11083e-28)
(1.18774 -0.0197844 0)
(1.18636 -0.0195777 6.27211e-28)
(1.18499 -0.0193649 -1.60423e-28)
(1.19003 -0.0183525 0)
(1.18873 -0.0181628 -6.27211e-28)
(1.18745 -0.0179669 1.60423e-28)
(1.1915 -0.0170078 1.72372e-28)
(1.19028 -0.0168336 -6.35845e-28)
(1.18908 -0.0166531 0)
(1.19233 -0.0157413 -1.72372e-28)
(1.19118 -0.0155813 6.35845e-28)
(1.19004 -0.0154151 0)
(1.19267 -0.0145438 0)
(1.19157 -0.0143971 0)
(1.19049 -0.0142442 0)
(1.19262 -0.0134062 0)
(1.19158 -0.013272 0)
(1.19055 -0.0131317 0)
(1.19229 -0.0123201 0)
(1.1913 -0.0121977 0)
(1.19031 -0.0120694 0)
(1.19178 -0.0112778 0)
(1.19082 -0.0111667 0)
(1.18987 -0.0110499 0)
(1.19113 -0.0102725 0)
(1.19021 -0.0101722 0)
(1.18929 -0.0100665 0)
(1.19042 -0.00929816 0)
(1.18952 -0.00920825 0)
(1.18863 -0.00911319 0)
(1.18968 -0.00834974 0)
(1.1888 -0.00826979 6.57764e-28)
(1.18793 -0.00818505 -1.68788e-28)
(1.18894 -0.00742281 0)
(1.18808 -0.00735245 -6.57764e-28)
(1.18723 -0.00727768 1.68788e-28)
(1.18824 -0.00651364 0)
(1.1874 -0.00645251 0)
(1.18656 -0.00638739 0)
(1.18573 -0.00631875 0)
(1.18759 -0.00561905 0)
(1.18676 -0.00556681 0)
(1.18594 -0.00551105 0)
(1.18512 -0.00545216 0)
(1.18619 -0.00469267 0)
(1.18537 -0.00464599 0)
(1.18457 -0.00459662 -1.03805e-11)
(1.1857 -0.00382777 0)
(1.18489 -0.00378993 0)
(1.18409 -0.00374985 -1.03971e-11)
(1.18529 -0.00297006 0)
(1.18449 -0.00294086 1.7058e-28)
(1.1837 -0.00290989 0)
(1.18499 -0.00211775 0)
(1.18419 -0.00209701 -1.7058e-28)
(1.1834 -0.002075 -1.04201e-11)
(1.18478 -0.00126919 -6.17525e-28)
(1.18398 -0.0012568 2.28575e-28)
(1.1832 -0.00124364 -1.04266e-11)
(1.18467 -0.000422824 6.24157e-28)
(1.18388 -0.000418702 -2.3103e-28)
(1.1831 -0.000414323 0)
(0.701085 0.0439578 0)
(0.7429 0.0455712 0)
(0.785262 0.0466368 0)
(0.827424 0.0471366 0)
(0.868696 0.0471003 3.27232e-28)
(0.90846 0.0465793 -3.27232e-28)
(0.946185 0.045632 0)
(0.98144 0.0443229 0)
(1.0139 0.0427202 0)
(1.04335 0.0408922 0)
(1.06968 0.038905 9.16093e-12)
(1.09287 0.0368194 -9.16093e-12)
(1.11299 0.0346896 -1.57449e-28)
(1.13017 0.0325613 1.57449e-28)
(1.14461 0.0304715 -9.62562e-12)
(1.15655 0.0284484 9.62562e-12)
(1.16624 0.0265118 0)
(1.17394 0.0246739 0)
(1.17992 0.0229403 -2.00139e-11)
(1.18444 0.0213117 2.00139e-11)
(1.18774 0.0197845 1.70175e-28)
(1.19003 0.0183526 -1.70175e-28)
(1.1915 0.0170079 -1.72372e-28)
(1.19233 0.0157414 1.72372e-28)
(1.19267 0.0145439 1.04023e-11)
(1.19262 0.0134063 -1.04023e-11)
(1.19229 0.0123202 0)
(1.19178 0.0112779 0)
(1.19113 0.0102725 0)
(1.19042 0.00929823 0)
(1.18968 0.0083498 -1.77861e-28)
(1.18894 0.00742286 1.77861e-28)
(1.18824 0.00651369 0)
(1.18759 0.00561909 0)
(1.18701 0.00473635 0)
(1.18651 0.00386311 0)
(1.1861 0.0029973 -1.79427e-28)
(1.18579 0.00213707 1.79427e-28)
(1.18558 0.00128072 -2.40381e-28)
(1.18547 0.00042666 2.42963e-28)
(0.702917 0.043148 0)
(0.744178 0.0447494 0)
(0.785999 0.0458139 0)
(0.827648 0.0463242 0)
(0.868447 0.0463091 0)
(0.907786 0.0458184 0)
(0.945143 0.044909 0)
(0.980092 0.0436432 0)
(1.01231 0.0420874 1.9454e-29)
(1.04158 0.0403081 -1.9454e-29)
(1.06779 0.0383697 8.85291e-12)
(1.09091 0.0363316 -8.85291e-12)
(1.111 0.0342467 0)
(1.12821 0.0321602 0)
(1.1427 0.0301086 2.10772e-29)
(1.1547 0.0281199 -2.10772e-29)
(1.16448 0.0262139 0)
(1.17227 0.0244031 0)
(1.17835 0.0226935 -9.70835e-12)
(1.18297 0.0210861 9.70835e-12)
(1.18636 0.0195778 0)
(1.18873 0.018163 0)
(1.19028 0.0168337 6.35844e-28)
(1.19118 0.0155815 -6.35844e-28)
(1.19157 0.0143972 1.01172e-11)
(1.19158 0.0132721 -1.01172e-11)
(1.1913 0.0121978 0)
(1.19082 0.0111668 0)
(1.19021 0.0101723 0)
(1.18952 0.00920832 0)
(1.1888 0.00826986 6.57763e-28)
(1.18808 0.0073525 -6.57763e-28)
(1.1874 0.00645255 -6.60686e-28)
(1.18676 0.00556685 6.60686e-28)
(1.18619 0.00469271 0)
(1.1857 0.0038278 0)
(1.18529 0.00297008 0)
(1.18499 0.00211776 0)
(1.18478 0.0012692 0)
(1.18467 0.000422827 0)
(0.70473 0.0423554 0)
(0.745449 0.0439445 0)
(0.786741 0.045007 0)
(0.827887 0.0455267 0)
(0.868221 0.0455314 -3.04036e-28)
(0.907143 0.0450694 3.04036e-28)
(0.944139 0.0441959 0)
(0.978786 0.0429715 0)
(1.01076 0.0414606 -3.22988e-28)
(1.03986 0.0397281 3.22988e-28)
(1.06594 0.0378366 0)
(1.08899 0.0358443 0)
(1.10906 0.033803 0)
(1.12628 0.0317571 0)
(1.14081 0.0297426 0)
(1.15289 0.0277874 0)
(1.16274 0.0259114 0)
(1.17063 0.0241271 0)
(1.1768 0.022441 -9.41674e-12)
(1.18151 0.0208545 9.41674e-12)
(1.18499 0.019365 0)
(1.18745 0.0179671 0)
(1.18908 0.0166533 0)
(1.19004 0.0154153 0)
(1.19049 0.0142443 9.83718e-12)
(1.19055 0.0131318 -9.83718e-12)
(1.19031 0.0120695 0)
(1.18987 0.01105 0)
(1.18929 0.0100665 0)
(1.18863 0.00911326 0)
(1.18793 0.00818511 0)
(1.18723 0.00727773 0)
(1.18656 0.00638743 1.69605e-28)
(1.18594 0.00551109 -1.69605e-28)
(1.18537 0.00464603 0)
(1.18489 0.00378996 0)
(1.18449 0.00294088 0)
(1.18419 0.00209703 0)
(1.18398 0.0012568 2.28575e-28)
(1.18388 0.000418705 -2.3103e-28)
(0.674178 0.0424338 -2.40703e-21)
(0.676369 0.0416403 1.87533e-21)
(0.678535 0.0408642 -4.22242e-21)
(0.660093 0.0414899 5.78933e-21)
(0.662494 0.0407106 -7.58951e-22)
(0.664864 0.0399483 -4.56148e-21)
(0.646101 0.0404673 -3.51475e-21)
(0.648714 0.0397034 -2.20773e-21)
(0.65129 0.0389564 5.51586e-21)
(0.632252 0.039365 -5.37263e-21)
(0.635077 0.038618 7.14647e-21)
(0.63786 0.0378876 -2.21621e-22)
(0.618597 0.0381721 5.94164e-21)
(0.621634 0.037444 -2.45903e-22)
(0.624624 0.0367323 -1.41961e-21)
(0.605188 0.0368872 1.50913e-21)
(0.608436 0.0361802 1.43295e-22)
(0.611633 0.0354892 3.56879e-21)
(0.592079 0.0355118 1.00965e-21)
(0.595536 0.0348279 4.07459e-21)
(0.598937 0.0341597 -6.18995e-22)
(0.575598 0.034721 -8.58467e-21)
(0.579323 0.034047 2.45595e-21)
(0.582987 0.0333884 3.00326e-21)
(0.586589 0.0327449 -1.40656e-21)
(0.563043 0.0331405 -2.79935e-21)
(0.566975 0.0324943 4.5861e-21)
(0.57084 0.031863 -4.39284e-21)
(0.550955 0.0314719 -2.16696e-21)
(0.555088 0.0308558 -1.33675e-21)
(0.559149 0.0302539 2.13247e-21)
(0.539386 0.029718 -6.2432e-22)
(0.543713 0.0291339 1.18283e-21)
(0.547964 0.0285633 5.48357e-22)
(0.528391 0.0278817 -2.72124e-21)
(0.532904 0.0273317 1.55634e-22)
(0.537336 0.0267945 2.21331e-21)
(0.518019 0.0259668 -2.13636e-21)
(0.522709 0.0254528 2.55724e-21)
(0.527314 0.0249508 -1.32569e-21)
(0.50832 0.0239773 3.61583e-22)
(0.513177 0.0235012 3.40365e-21)
(0.517944 0.0230363 -2.30857e-21)
(0.499341 0.021918 7.6653e-22)
(0.504353 0.0214815 -1.54936e-21)
(0.509272 0.0210553 1.07396e-21)
(0.491125 0.0197938 -1.51254e-21)
(0.49628 0.0193986 7.15302e-22)
(0.501339 0.0190128 5.74402e-22)
(0.483714 0.0176105 -4.4518e-22)
(0.488998 0.017258 9.76987e-23)
(0.494183 0.016914 6.20668e-22)
(0.477143 0.0153738 2.54211e-22)
(0.482543 0.0150655 -1.81881e-21)
(0.487841 0.0147645 1.65503e-21)
(0.471447 0.0130902 -2.2445e-22)
(0.476948 0.0128272 -2.18567e-22)
(0.482344 0.0125705 -5.87075e-22)
(0.466655 0.0107662 2.02166e-22)
(0.47224 0.0105496 -1.31389e-21)
(0.477719 0.0103382 2.3344e-22)
(0.462791 0.00840891 3.42365e-22)
(0.468445 0.00823954 -6.81239e-22)
(0.47399 0.00807422 4.09031e-22)
(0.459875 0.00602536 -1.05398e-22)
(0.465581 0.0059039 -1.46269e-22)
(0.471177 0.00578535 3.02638e-22)
(0.452069 0.0036978 5.21191e-22)
(0.457922 0.00362295 -6.34267e-22)
(0.463663 0.00354989 1.22654e-22)
(0.469293 0.00347858 7.99154e-23)
(0.451072 0.00123414 6.39136e-24)
(0.456944 0.00120917 2.20568e-23)
(0.462702 0.0011848 -1.07287e-22)
(0.468349 0.00116101 6.71836e-23)
)
;

boundaryField
{
    inlet
    {
        type            uniformFixedValue;
        uniformValue    constant (1 0 0);
        value           nonuniform 0();
    }
    outlet
    {
        type            pressureInletOutletVelocity;
        value           nonuniform 0();
    }
    cylinder
    {
        type            fixedValue;
        value           nonuniform 0();
    }
    top
    {
        type            symmetryPlane;
    }
    bottom
    {
        type            symmetryPlane;
    }
    defaultFaces
    {
        type            empty;
    }
    procBoundary44to43
    {
        type            processor;
        value           nonuniform List<vector> 
133
(
(0.445084 -0.00125906 1.61613e-23)
(0.446099 -0.00377382 -4.78452e-23)
(0.454057 -0.00614909 8.84324e-22)
(0.454057 -0.00614909 8.84324e-22)
(0.457026 -0.00858171 6.47428e-22)
(0.46096 -0.0109874 -4.19343e-22)
(0.465839 -0.0133589 1.05562e-21)
(0.471638 -0.0156889 6.15709e-22)
(0.478327 -0.0179708 1.68566e-21)
(0.485871 -0.0201979 -2.00039e-21)
(0.494234 -0.0223643 -2.50029e-21)
(0.503372 -0.0244642 -2.75241e-21)
(0.513242 -0.0264924 1.47346e-21)
(0.523795 -0.0284441 2.83444e-21)
(0.534981 -0.0303152 -1.99604e-21)
(0.546748 -0.0321019 3.93396e-21)
(0.559043 -0.033801 1.71153e-21)
(0.571809 -0.03541 5.18099e-21)
(0.588564 -0.0362108 -3.95929e-21)
(0.588564 -0.0362108 -3.95929e-21)
(0.601887 -0.0376099 -6.53058e-21)
(0.615513 -0.0389162 -6.57251e-21)
(0.629386 -0.0401282 1.47311e-21)
(0.643452 -0.0412477 -8.50625e-22)
(0.657661 -0.042286 2.09909e-21)
(0.671959 -0.0432441 6.01866e-21)
(0.699235 -0.0447842 0)
(0.741616 -0.0464091 0)
(0.784529 -0.0474752 0)
(0.827215 -0.0479632 0)
(0.868971 -0.0479042 0)
(0.909167 -0.0473511 0)
(0.947265 -0.0463641 0)
(0.982831 -0.0450096 0)
(1.01554 -0.0433578 -9.22841e-12)
(1.04517 -0.0414792 9.22841e-12)
(1.07162 -0.0394413 0)
(1.09487 -0.0373066 0)
(1.11501 -0.0351302 9.71838e-12)
(1.13217 -0.0329588 -9.71838e-12)
(1.14657 -0.0308298 0)
(1.15843 -0.0287715 0)
(1.16803 -0.0268036 0)
(1.17563 -0.0249381 0)
(1.18151 -0.0231802 -6.08881e-28)
(1.18594 -0.0215301 6.08881e-28)
(1.18914 -0.0199839 0)
(1.19134 -0.0185349 0)
(1.19274 -0.0171748 0)
(1.1935 -0.0158941 0)
(1.19377 -0.0146834 6.79653e-28)
(1.19367 -0.0135334 -6.79653e-28)
(1.1933 -0.0124357 0)
(1.19275 -0.0113824 0)
(1.19207 -0.0103666 0)
(1.19133 -0.00938225 0)
(1.19057 -0.00842426 0)
(1.18981 -0.00748819 0)
(1.18909 -0.00657028 0)
(1.18843 -0.00566731 0)
(1.18701 -0.00473631 0)
(1.18701 -0.00473631 0)
(1.18651 -0.00386308 0)
(1.1861 -0.00299728 0)
(1.18579 -0.00213706 0)
(1.18558 -0.00128072 0)
(1.18547 -0.000426657 0)
(0.699235 0.0447848 0)
(0.741616 0.0464097 0)
(0.784529 0.0474757 0)
(0.827215 0.0479637 0)
(0.868971 0.0479047 -1.97415e-29)
(0.909167 0.0473515 1.97415e-29)
(0.947266 0.0463645 0)
(0.982831 0.04501 0)
(1.01554 0.0433582 -2.08695e-29)
(1.04517 0.0414795 2.08695e-29)
(1.07162 0.0394416 0)
(1.09487 0.0373069 0)
(1.11501 0.0351305 0)
(1.13217 0.0329591 0)
(1.14657 0.0308301 -9.93962e-12)
(1.15843 0.0287718 9.93962e-12)
(1.16803 0.0268039 0)
(1.17563 0.0249383 0)
(1.18151 0.0231804 -2.06254e-11)
(1.18594 0.0215303 2.06254e-11)
(1.18914 0.0199841 -6.65031e-28)
(1.19134 0.0185351 6.65031e-28)
(1.19274 0.0171749 0)
(1.1935 0.0158942 0)
(1.19377 0.0146835 1.06923e-11)
(1.19367 0.0135336 -1.06923e-11)
(1.1933 0.0124358 -6.85028e-28)
(1.19275 0.0113825 6.85028e-28)
(1.19207 0.0103666 0)
(1.19133 0.00938232 0)
(1.19057 0.00842433 0)
(1.18981 0.00748825 0)
(1.18909 0.00657033 6.95148e-28)
(1.18843 0.00566736 -6.95148e-28)
(1.18784 0.00477658 -6.96933e-28)
(1.18733 0.0038956 6.96933e-28)
(1.18692 0.0030223 0)
(1.1866 0.00215478 0)
(1.18639 0.00129129 -1.0991e-11)
(1.18628 0.00043017 1.1109e-11)
(0.67196 0.0432447 -6.02877e-21)
(0.657661 0.0422866 -2.0009e-21)
(0.643453 0.0412483 6.97467e-22)
(0.629386 0.0401289 -1.51054e-21)
(0.615513 0.0389168 6.87676e-21)
(0.601888 0.0376105 6.3489e-21)
(0.588565 0.0362115 -1.49942e-21)
(0.588565 0.0362115 -1.49942e-21)
(0.571809 0.0354106 -5.96931e-21)
(0.559043 0.0338017 -1.44702e-21)
(0.546749 0.0321025 -3.31207e-21)
(0.534981 0.0303159 1.01593e-21)
(0.523795 0.0284448 -2.77337e-21)
(0.513242 0.026493 -8.61833e-22)
(0.503372 0.0244648 2.58945e-21)
(0.494234 0.0223649 2.66457e-21)
(0.485872 0.0201986 2.09713e-21)
(0.478327 0.0179714 -1.90661e-21)
(0.471638 0.0156896 5.17096e-22)
(0.465839 0.0133596 -1.06703e-21)
(0.46096 0.0109881 2.72454e-22)
(0.457026 0.00858242 -2.35606e-22)
(0.454057 0.00614979 -9.72445e-22)
(0.454057 0.00614979 -9.72445e-22)
(0.446099 0.00377448 1.80488e-22)
(0.445084 0.00125971 -4.30698e-23)
)
;
    }
    procBoundary44to45
    {
        type            processor;
        value           nonuniform List<vector> 
131
(
(0.473888 -0.00113691 -5.40482e-23)
(0.474816 -0.0034081 7.71071e-23)
(0.476666 -0.00566878 -5.59365e-22)
(0.47943 -0.00791201 7.13422e-22)
(0.483093 -0.010131 -5.38459e-22)
(0.487637 -0.0123191 6.62009e-22)
(0.493039 -0.0144699 3.87672e-22)
(0.499271 -0.0165772 3.75559e-22)
(0.506303 -0.0186353 1.23147e-21)
(0.5141 -0.0206384 2.19147e-22)
(0.522624 -0.0225815 2.70728e-22)
(0.531835 -0.0244599 -1.11528e-22)
(0.541688 -0.0262691 -1.31474e-21)
(0.552139 -0.0280053 -2.05362e-21)
(0.563139 -0.0296651 -1.79413e-21)
(0.574639 -0.0312455 8.86107e-22)
(0.574639 -0.0312455 8.86107e-22)
(0.590131 -0.0321155 -1.42568e-21)
(0.602283 -0.033506 -1.85824e-21)
(0.614779 -0.0348132 -4.98787e-21)
(0.627569 -0.036036 2.82303e-21)
(0.640603 -0.037173 1.04432e-21)
(0.65383 -0.0382253 -2.21521e-21)
(0.667203 -0.0392023 1.38809e-21)
(0.680675 -0.0401044 -5.37194e-12)
(0.706524 -0.0415791 -1.45274e-11)
(0.746712 -0.0431556 -7.4809e-12)
(0.787485 -0.0442156 -7.58405e-12)
(0.828139 -0.0447437 -7.69146e-12)
(0.868017 -0.0447669 -3.25981e-28)
(0.90653 -0.0443321 -7.92605e-12)
(0.943169 -0.0434927 -8.05074e-12)
(0.977519 -0.0423079 0)
(1.00926 -0.0408401 -8.74719e-29)
(1.03817 -0.0391526 8.74719e-29)
(1.06414 -0.0373063 0)
(1.08711 -0.0353582 -8.70315e-12)
(1.10716 -0.0333591 -8.83139e-12)
(1.12439 -0.0313526 4.85006e-28)
(1.13896 -0.0293742 -9.07775e-12)
(1.1511 -0.0274517 -1.83889e-11)
(1.16103 -0.0256049 -9.30604e-12)
(1.16901 -0.0238467 -3.93062e-28)
(1.17527 -0.0221838 2.46484e-28)
(1.18007 -0.020618 0)
(1.18364 -0.019147 0)
(1.18618 -0.0177658 -9.77835e-12)
(1.18788 -0.0164673 -9.85509e-12)
(1.18892 -0.0152436 0)
(1.18942 -0.014086 0)
(1.18953 -0.0129862 -1.00514e-11)
(1.18934 -0.011936 -1.01061e-11)
(1.18894 -0.0109282 -1.01558e-11)
(1.18839 -0.00995597 -1.02007e-11)
(1.18775 -0.00901363 0)
(1.18708 -0.00809609 7.66762e-28)
(1.18639 -0.00719902 -1.51732e-28)
(1.18639 -0.00719902 -1.51732e-28)
(1.18492 -0.00624702 0)
(1.18432 -0.00539054 0)
(1.18377 -0.00454488 1.03805e-11)
(1.1833 -0.0037078 1.03971e-11)
(1.18292 -0.00287737 -1.61928e-28)
(1.18262 -0.00205187 1.04201e-11)
(1.18242 -0.0012298 1.04266e-11)
(1.18232 -0.000409718 2.19353e-28)
(0.706525 0.0415798 -7.2637e-12)
(0.746712 0.0431562 0)
(0.787485 0.0442162 0)
(0.828139 0.0447443 0)
(0.868017 0.0447674 0)
(0.90653 0.0443326 0)
(0.94317 0.0434932 0)
(0.977519 0.0423084 8.17892e-12)
(1.00926 0.0408406 8.30944e-12)
(1.03817 0.039153 8.74718e-29)
(1.06414 0.0373067 0)
(1.08711 0.0353586 0)
(1.10716 0.0333595 1.19409e-28)
(1.12439 0.0313529 -4.85006e-28)
(1.13896 0.0293745 9.52947e-29)
(1.1511 0.027452 -9.52947e-29)
(1.16103 0.0256051 0)
(1.16901 0.0238469 3.93061e-28)
(1.17527 0.022184 -1.8264e-11)
(1.18007 0.0206182 1.8264e-11)
(1.18364 0.0191472 0)
(1.18618 0.0177659 0)
(1.18788 0.0164675 0)
(1.18892 0.0152437 0)
(1.18942 0.0140861 9.56214e-12)
(1.18953 0.0129863 -9.56214e-12)
(1.18934 0.0119361 0)
(1.18893 0.0109282 0)
(1.18839 0.00995604 -4.11251e-28)
(1.18775 0.0090137 4.11251e-28)
(1.18708 0.00809614 0)
(1.18639 0.00719907 0)
(1.18573 0.00631879 0)
(1.18512 0.0054522 0)
(1.18457 0.00459665 0)
(1.18409 0.00374988 0)
(1.1837 0.00290991 0)
(1.1834 0.00207502 0)
(1.1832 0.00124364 -4.19311e-28)
(1.1831 0.000414326 4.23815e-28)
(0.680675 0.0401051 -5.37195e-12)
(0.667204 0.039203 -1.2929e-21)
(0.653831 0.0382261 2.06065e-21)
(0.640603 0.0371738 -9.7464e-22)
(0.62757 0.0360368 -2.59679e-21)
(0.61478 0.034814 4.76522e-21)
(0.602284 0.0335068 1.64815e-21)
(0.590131 0.0321163 1.44925e-21)
(0.574639 0.0312463 -1.04552e-21)
(0.574639 0.0312463 -1.04552e-21)
(0.563139 0.0296659 -1.21416e-22)
(0.552139 0.0280061 1.7747e-21)
(0.541689 0.0262699 9.65987e-22)
(0.531835 0.0244607 6.26368e-22)
(0.522624 0.0225824 -8.30028e-23)
(0.5141 0.0206392 -9.62025e-22)
(0.506303 0.0186361 -7.30489e-22)
(0.499271 0.0165781 -8.41093e-22)
(0.493039 0.0144708 -2.91701e-23)
(0.487637 0.01232 -7.82109e-22)
(0.483093 0.0101319 3.59005e-22)
(0.47943 0.00791289 -4.76237e-22)
(0.476666 0.00566966 5.63222e-22)
(0.474816 0.00340898 -1.10321e-22)
(0.473888 0.00113779 4.65699e-23)
)
;
    }
}


// ************************************************************************* //
