/*--------------------------------*- C++ -*----------------------------------*\
  =========                 |
  \\      /  F ield         | OpenFOAM: The Open Source CFD Toolbox
   \\    /   O peration     | Website:  https://openfoam.org
    \\  /    A nd           | Version:  7
     \\/     M anipulation  |
\*---------------------------------------------------------------------------*/
FoamFile
{
    version     2.0;
    format      ascii;
    class       volScalarField;
    location    "10";
    object      p;
}
// * * * * * * * * * * * * * * * * * * * * * * * * * * * * * * * * * * * * * //

dimensions      [0 2 -2 0 0 0 0];

internalField   nonuniform List<scalar> 
183
(
-0.136468
-0.0162077
-0.137962
-0.0170089
-0.14087
-0.0186
-0.145074
-0.020967
-0.150378
-0.0241221
-0.156547
-0.0280412
-0.163322
-0.0326718
-0.170772
-0.0379555
-0.178609
-0.0438283
-0.186687
-0.05022
-0.19487
-0.0570524
-0.203027
-0.0642451
-0.211046
-0.0717168
-0.218829
-0.0793879
-0.226295
-0.087192
-0.233393
-0.0950769
-0.240021
-0.102922
-0.245982
-0.110527
-0.251651
-0.118302
-0.258274
-0.12739
-0.262011
-0.134265
-0.251163
-0.133975
-0.0556445
-0.218402
-0.128348
-0.0630947
-0.197323
-0.126106
-0.0699777
-0.175874
-0.119522
-0.0723497
-0.157889
-0.113938
-0.0744075
-0.142765
-0.108132
-0.0747594
-0.129792
-0.102254
-0.0742318
-0.118728
-0.0966752
-0.0731681
-0.10934
-0.09148
-0.0717087
-0.101368
-0.0867169
-0.0700222
-0.0945829
-0.0824189
-0.0682435
-0.0888106
-0.0785963
-0.0664703
-0.083912
-0.0752393
-0.0647716
-0.0797718
-0.0723272
-0.0631966
-0.0763025
-0.0698378
-0.0617796
-0.067748
-0.0605422
-0.066038
-0.0594988
-0.0646909
-0.0586577
-0.0636927
-0.058024
-0.0630339
-0.0576011
-0.0627066
-0.05739
-0.251133
-0.21834
-0.19722
-0.175732
-0.157701
-0.142533
-0.129524
-0.118437
-0.109028
-0.101035
-0.0942372
-0.0884596
-0.0835568
-0.0794179
-0.075948
-0.0730833
-0.0707661
-0.0689593
-0.0676286
-0.0667552
-0.0663218
-0.133895
-0.128256
-0.125992
-0.119384
-0.113771
-0.107938
-0.102036
-0.0964414
-0.0912292
-0.0864504
-0.0821403
-0.0783097
-0.0749456
-0.0720296
-0.0695365
-0.0674461
-0.065736
-0.0643903
-0.0633931
-0.0627355
-0.0624089
-0.261961
-0.134173
-0.25821
-0.127293
-0.251576
-0.118204
-0.245895
-0.110428
-0.239922
-0.10282
-0.233281
-0.0949732
-0.226173
-0.0870878
-0.218697
-0.0792841
-0.210906
-0.0716142
-0.20288
-0.0641449
-0.194719
-0.0569557
-0.186534
-0.050128
-0.178456
-0.0437423
-0.170622
-0.0378764
-0.163182
-0.0326008
-0.156417
-0.0279795
-0.150264
-0.0240705
-0.144981
-0.0209267
-0.140801
-0.0185708
-0.13792
-0.0169911
-0.136451
-0.0162009
)
;

boundaryField
{
    inlet
    {
        type            zeroGradient;
    }
    outlet
    {
        type            fixedValue;
        value           nonuniform 0();
    }
    cylinder
    {
        type            zeroGradient;
    }
    top
    {
        type            symmetryPlane;
    }
    bottom
    {
        type            symmetryPlane;
    }
    defaultFaces
    {
        type            empty;
    }
    procBoundary34to33
    {
        type            processor;
        value           nonuniform List<scalar> 
85
(
-0.312609
-0.314582
-0.318351
-0.323619
-0.330011
-0.337166
-0.344786
-0.352235
-0.359513
-0.366402
-0.372673
-0.378208
-0.382909
-0.386697
-0.389512
-0.391314
-0.392066
-0.391711
-0.390434
-0.388673
-0.384221
-0.362254
-0.298878
-0.253925
-0.217615
-0.188695
-0.166284
-0.148307
-0.133681
-0.121598
-0.111518
-0.103032
-0.0958596
-0.089805
-0.0847078
-0.0804523
-0.0734335
-0.0734335
-0.0711125
-0.0693
-0.0679649
-0.0670882
-0.0666529
-0.362435
-0.298961
-0.253901
-0.217501
-0.188495
-0.166012
-0.147972
-0.133317
-0.121205
-0.111097
-0.102601
-0.0954315
-0.0893794
-0.0842929
-0.0800407
-0.0765424
-0.073719
-0.0715249
-0.0699103
-0.0688528
-0.068326
-0.384351
-0.388781
-0.39052
-0.391772
-0.392102
-0.391323
-0.389496
-0.386657
-0.382847
-0.378127
-0.372576
-0.366293
-0.359397
-0.35212
-0.344669
-0.337064
-0.329918
-0.323539
-0.318288
-0.314542
-0.312593
)
;
    }
    procBoundary34to35
    {
        type            processor;
        value           nonuniform List<scalar> 
85
(
0.035454
0.0349787
0.0340215
0.032572
0.0306194
0.028157
0.025185
0.0217147
0.0177684
0.0133799
0.00859054
0.00344708
-0.00199951
-0.00769798
-0.0136052
-0.0196788
-0.0258218
-0.0319235
-0.0383138
-0.0456575
-0.0515597
-0.0515597
-0.0128455
-0.0250941
-0.0343846
-0.0403204
-0.0455187
-0.0488665
-0.0512911
-0.0529243
-0.0538854
-0.0543503
-0.0544532
-0.0543007
-0.05398
-0.0535618
-0.0531022
-0.0526442
-0.0522211
-0.0518571
-0.0515702
-0.051373
-0.0512733
-0.055584
-0.0630213
-0.0698856
-0.0722379
-0.0742722
-0.0746046
-0.0740591
-0.0729812
-0.0715067
-0.0698071
-0.0680172
-0.0662356
-0.0645288
-0.0629484
-0.0615261
-0.0602857
-0.0592398
-0.0583976
-0.057763
-0.0573399
-0.0571286
-0.051496
-0.0455939
-0.0382542
-0.0318668
-0.0257672
-0.0196269
-0.0135563
-0.00765235
-0.00195745
0.00348531
0.00862474
0.01341
0.0177942
0.0217364
0.0252028
0.0281711
0.0306303
0.0325799
0.0340269
0.0349818
0.0354553
)
;
    }
}


// ************************************************************************* //
