/*--------------------------------*- C++ -*----------------------------------*\
  =========                 |
  \\      /  F ield         | OpenFOAM: The Open Source CFD Toolbox
   \\    /   O peration     | Website:  https://openfoam.org
    \\  /    A nd           | Version:  7
     \\/     M anipulation  |
\*---------------------------------------------------------------------------*/
FoamFile
{
    version     2.0;
    format      ascii;
    class       surfaceScalarField;
    location    "10";
    object      phi;
}
// * * * * * * * * * * * * * * * * * * * * * * * * * * * * * * * * * * * * * //

dimensions      [0 3 -1 0 0 0 0];

internalField   nonuniform List<scalar> 
590
(
3.84697e-07
-9.44138e-12
-3.79926e-07
7.64623e-07
2.20345e-06
-3.70456e-07
1.13508e-06
3.26909e-06
-3.5638e-07
1.49146e-06
4.29186e-06
-3.37843e-07
1.8293e-06
5.2581e-06
-3.15023e-07
2.14432e-06
6.15463e-06
-2.88115e-07
2.43244e-06
6.96882e-06
-2.57322e-07
2.68976e-06
-9.77113e-07
7.68861e-06
1.25181e-05
-2.22835e-07
2.9126e-06
-8.36677e-07
8.30245e-06
1.34817e-05
-1.84819e-07
3.09742e-06
-6.81631e-07
8.79926e-06
-1.44195e-06
1.4242e-05
1.93499e-05
-1.434e-07
3.24082e-06
-5.12463e-07
9.16833e-06
-1.05063e-06
1.47802e-05
1.99904e-05
-9.86569e-08
3.33947e-06
-3.29486e-07
9.39916e-06
-6.27028e-07
1.50777e-05
-9.14939e-07
2.02783e-05
2.48941e-05
-5.06102e-08
-1.32827e-07
9.48137e-06
-1.71475e-07
1.51164e-05
-7.99302e-08
2.01867e-05
2.45731e-05
7.75625e-08
9.40455e-06
3.16072e-07
1.48779e-05
8.13955e-07
1.96888e-05
1.68222e-06
2.37048e-05
2.67857e-05
3.01886e-07
8.35939e-07
1.43438e-05
1.76715e-06
1.87576e-05
3.21903e-06
2.22529e-05
2.46744e-05
1.38857e-06
2.78028e-06
1.73659e-05
4.85228e-06
2.01809e-05
7.75734e-06
2.17694e-05
2.1951e-05
3.85378e-06
6.58243e-06
1.74523e-05
1.0328e-05
1.80238e-05
1.52764e-05
1.70026e-05
1.4179e-05
8.4089e-06
1.3041e-05
1.33917e-05
1.90867e-05
1.09569e-05
6.49585e-06
1.58928e-05
2.3091e-05
3.75863e-06
3.21672e-05
-2.58031e-06
-1.14555e-05
2.72786e-05
3.7811e-05
-1.31127e-05
5.0762e-05
-2.44065e-05
-3.88338e-05
4.36775e-05
5.84264e-05
-3.91554e-05
7.62207e-05
-5.6628e-05
-7.79308e-05
6.63362e-05
8.63056e-05
-7.65974e-05
0.000110043
-0.000101669
-0.000131378
9.66233e-05
0.000122941
-0.000127987
0.000153858
-0.000162295
-0.000202177
0.000135998
0.00016991
-0.000196207
0.000209366
-0.000241634
-0.000293716
0.000185948
0.000228788
-0.000284475
0.000278237
-0.000343164
-0.000409763
0.000247882
0.00030101
0.000361902
-0.000470655
-0.000554386
0.00038764
0.000461246
-0.000627992
-0.000731709
0.000489099
0.00057624
-0.00081885
0.000674246
-0.000945438
-0.0010861
0.000604911
0.000705667
0.000817743
-0.00119818
-0.00136622
0.000847072
0.000971565
-0.00149071
-0.00168724
0.000996976
0.00113123
0.00127442
-0.00204578
-0.00228876
0.00129197
0.00143914
-0.00243593
-0.00270199
0.00159063
0.00144887
0.00159627
0.00144887
0.00243594
0.00270199
0.00159627
0.00129197
0.00204578
0.00143914
0.00228876
0.00159063
0.000996976
0.00149071
0.00113123
0.00168724
0.00127442
0.000847072
0.00119818
0.000971564
0.00136622
0.000604911
0.000818852
0.000705667
0.000945439
0.000817743
0.0010861
0.000489099
0.000627993
0.00057624
0.000731711
0.000674245
0.000322969
0.000396293
0.00038764
0.000470656
0.000461246
0.000554388
0.000247882
0.000284476
0.00030101
0.000343166
0.000361902
0.000409764
0.000185948
0.000196208
0.000228788
0.000241635
0.000278237
0.000293717
0.000135998
0.000127988
0.00016991
0.000162296
0.000209366
0.000202179
9.66234e-05
7.65982e-05
0.000122941
0.00010167
0.000153858
0.000131379
6.63363e-05
3.9156e-05
8.63057e-05
5.66288e-05
0.000110044
7.79316e-05
4.36776e-05
1.31132e-05
5.84265e-05
2.44071e-05
7.62207e-05
3.88345e-05
2.72786e-05
-3.75826e-06
3.7811e-05
2.58078e-06
5.0762e-05
1.14561e-05
1.58928e-05
-1.33914e-05
2.3091e-05
-1.09565e-05
3.21672e-05
-6.49539e-06
8.40891e-06
-1.74521e-05
1.3041e-05
-1.80236e-05
1.90867e-05
-1.70022e-05
-1.41785e-05
3.85379e-06
-1.73658e-05
6.58243e-06
-2.01807e-05
1.0328e-05
-2.17691e-05
1.52764e-05
-2.19507e-05
1.38857e-06
-1.43437e-05
2.78028e-06
-1.87575e-05
4.85228e-06
-2.22527e-05
7.75735e-06
-2.46742e-05
3.01885e-07
-9.4045e-06
8.35939e-07
-1.48778e-05
1.76715e-06
-1.96887e-05
3.21903e-06
-2.37046e-05
-2.67854e-05
7.75617e-08
-9.48133e-06
3.16071e-07
-1.51163e-05
8.13953e-07
-2.01866e-05
1.68222e-06
-2.45729e-05
-5.06105e-08
-3.33946e-06
-1.32828e-07
-9.39911e-06
-1.71477e-07
-1.50776e-05
-7.99338e-08
-2.02781e-05
-2.48939e-05
-9.86573e-08
-3.2408e-06
-3.29488e-07
-9.16828e-06
-6.27031e-07
-1.47801e-05
-9.14944e-07
-1.99902e-05
-1.43401e-07
-3.0974e-06
-5.12464e-07
-8.79922e-06
-1.05063e-06
-1.42419e-05
-1.93498e-05
-1.8482e-07
-2.91258e-06
-6.81633e-07
-8.3024e-06
-1.44195e-06
-1.34816e-05
-2.22836e-07
-2.68975e-06
-8.36679e-07
-7.68856e-06
-1.2518e-05
-2.57323e-07
-2.43242e-06
-9.77115e-07
-6.96877e-06
-2.88116e-07
-2.14431e-06
-6.15457e-06
-3.15023e-07
-1.82928e-06
-5.25804e-06
-3.37844e-07
-1.49144e-06
-4.2918e-06
-3.5638e-07
-1.13506e-06
-3.26903e-06
-3.70456e-07
-7.64605e-07
-2.20339e-06
-3.79926e-07
-3.84678e-07
0.000432481
-0.00920414
0.000370124
-0.00918954
0.000308049
-0.00917701
0.000246202
-0.00916652
0.000184527
-0.00915806
0.00012297
-0.00915164
6.14777e-05
-0.00914726
-0.00914494
0.00182881
-0.00788392
0.00200886
-0.00870386
0.0021325
-0.00929703
0.00220371
-0.00971599
0.0022302
-0.00998553
0.00222104
-0.0101379
0.00218536
-0.0102049
0.00213125
-0.0102134
0.00206527
-0.0101847
0.00199227
-0.0101341
0.00191563
-0.0100721
0.00183757
-0.0100053
0.00175942
-0.00993753
0.00168195
-0.00987111
0.00160557
-0.00980714
0.00153045
-0.00974617
0.00145667
-0.00968839
0.00138421
-0.00963385
0.00131304
-0.00958248
0.0012431
-0.0095342
0.00117431
-0.0094889
0.00110661
-0.00944648
0.00103992
-0.00940683
0.000974186
-0.00936985
0.000909326
-0.00933544
0.000845277
-0.00930352
0.000781973
-0.00927401
0.00071935
-0.00924683
0.000657347
-0.00922194
0.000595904
-0.00919925
0.000534962
-0.00917874
0.000474466
0.000414359
0.000354588
0.000295097
0.000235834
0.000176745
0.000117778
5.8879e-05
0.00182112
0.00198614
0.00209511
0.0021532
0.00216896
0.00215184
0.00211088
0.00205383
0.00198677
0.00191409
0.00183873
0.00176258
0.00168674
0.00161182
0.00153812
0.00146576
0.00139477
0.00132511
0.00125673
0.00118957
0.00112356
0.00105862
0.000994682
0.000931677
0.000869534
0.000808187
0.000747573
0.000687627
0.000628291
0.000569506
0.00182112
0.00788392
0.00198614
0.00870386
0.00209511
0.00929703
0.0021532
0.00971599
0.00216896
0.00998553
0.00215184
0.0101379
0.00211087
0.0102049
0.00205383
0.0102134
0.00198677
0.0101847
0.00191408
0.0101341
0.00183873
0.0100721
0.00176258
0.0100053
0.00168674
0.00993753
0.00161182
0.00987111
0.00153812
0.00980714
0.00146576
0.00974617
0.00139477
0.00968839
0.00132511
0.00963385
0.00125673
0.00958248
0.00118957
0.0095342
0.00112356
0.0094889
0.00105862
0.00944648
0.000994683
0.00940683
0.000931677
0.00936985
0.000869534
0.00933544
0.000808187
0.00930352
0.000747573
0.00927401
0.000687627
0.00924683
0.000628291
0.00922194
0.000569506
0.00919925
0.000511214
0.00917874
0.000453361
0.00916035
0.000395893
0.00914403
0.000338756
0.00912977
0.000281899
0.00911751
0.00022527
0.00910726
0.000168816
0.00909897
0.000112487
0.00909267
5.62312e-05
0.00908836
0.00908607
0.00182881
0.00200886
0.0021325
0.00220371
0.0022302
0.00222104
0.00218536
0.00213125
0.00206527
0.00199227
0.00191563
0.00183757
0.00175942
0.00168195
0.00160557
0.00153045
0.00145667
0.00138421
0.00131304
0.0012431
0.00117431
0.00110661
0.00103992
0.000974186
0.000909327
0.000845277
0.000781973
0.00071935
0.000657347
0.000595904
0.000534962
0.000474466
0.000414359
0.000354588
0.000295097
0.000235834
0.000176745
0.000117778
5.8879e-05
)
;

boundaryField
{
    inlet
    {
        type            calculated;
        value           nonuniform 0();
    }
    outlet
    {
        type            calculated;
        value           nonuniform 0();
    }
    cylinder
    {
        type            calculated;
        value           uniform 0;
    }
    top
    {
        type            symmetryPlane;
        value           uniform 0;
    }
    bottom
    {
        type            symmetryPlane;
        value           uniform 0;
    }
    defaultFaces
    {
        type            empty;
        value           nonuniform 0();
    }
    procBoundary20to19
    {
        type            processor;
        value           nonuniform List<scalar> 
169
(
3.39008e-06
-7.38916e-10
-5.55129e-08
9.15818e-06
-5.40384e-07
1.34956e-05
-1.97433e-06
1.54865e-05
-4.98746e-06
1.40308e-05
-1.03293e-05
7.8283e-06
-1.88757e-05
-4.64425e-06
-3.16321e-05
-2.51581e-05
-4.9733e-05
-5.57585e-05
-7.44319e-05
-9.87888e-05
-0.000107078
-0.000156907
-0.000149069
-0.000233086
-0.000201773
-0.000330583
-0.000396292
-0.000322969
-0.000535325
-0.000411925
-0.000705166
-0.000514795
-0.000908966
-0.00104619
-0.000733559
-0.00131169
-0.000872507
-0.00161518
-0.0018215
-0.00115121
-0.00218654
-0.00130515
-0.00257966
-0.00284939
-0.00257966
-0.00284939
-0.00130514
-0.00218654
-0.00161518
-0.00115121
-0.0018215
-0.000872506
-0.00131169
-0.000908968
-0.000733558
-0.0010462
-0.000514795
-0.000705167
-0.000452854
-0.000411925
-0.000535326
-0.000266409
-0.000330585
-0.000201773
-0.000233087
-0.000149069
-0.000156908
-0.000107078
-9.87896e-05
-7.4432e-05
-5.57592e-05
-4.97331e-05
-2.51586e-05
-3.16322e-05
-4.64463e-06
-1.88757e-05
7.82802e-06
-1.03293e-05
1.40306e-05
-4.98746e-06
1.54863e-05
-1.97433e-06
1.34955e-05
-5.40384e-07
9.15813e-06
-5.55127e-08
-7.38598e-10
3.39007e-06
-0.00916035
-0.00914403
-0.00912977
-0.00911752
-0.00910726
-0.00909897
-0.00909267
-0.00908836
-0.00908607
-0.00810877
-0.00886887
-0.009406
-0.00977408
-0.0100013
-0.0101208
-0.0101639
-0.0101563
-0.0101176
-0.0100614
-0.00999674
-0.00992911
-0.00986169
-0.00979619
-0.00973344
-0.00967381
-0.0096174
-0.00956419
-0.0095141
-0.00946704
-0.00942289
-0.00938154
-0.00934289
-0.00930684
-0.0092733
-0.00924217
-0.00921339
-0.00918689
-0.0091626
-0.00914047
0.000511214
-0.00912045
-0.00810877
-0.00886887
-0.009406
-0.00977408
-0.0100013
-0.0101208
-0.0101639
-0.0101563
-0.0101176
-0.0100614
-0.00999674
-0.00992911
-0.00986169
-0.00979619
-0.00973344
-0.00967381
-0.0096174
-0.00956419
-0.0095141
-0.00946704
-0.00942289
-0.00938154
-0.00934289
-0.00930684
-0.0092733
-0.00924217
-0.00921339
-0.00918689
-0.0091626
-0.00914047
-0.00912045
-0.00910249
-0.00908657
-0.00907263
-0.00906066
-0.00905063
-0.00904252
-0.00903634
-0.0090321
-0.00902983
)
;
    }
    procBoundary20to21
    {
        type            processor;
        value           nonuniform List<scalar> 
189
(
-3.84688e-07
-1.10898e-06
-1.47439e-06
-1.4361e-06
-1.37915e-06
-1.30408e-06
-1.21155e-06
-1.10231e-06
-1.13707e-05
-2.1245e-06
-1.80027e-06
-1.83843e-05
-2.40758e-06
-1.69104e-06
-2.47041e-05
-1.10489e-06
2.41079e-07
-2.81497e-05
3.04625e-06
5.33025e-06
-2.58592e-05
1.16656e-05
-2.05362e-05
2.16336e-05
2.67698e-05
2.34338e-07
4.33883e-05
2.31479e-05
6.64479e-05
5.67185e-05
9.74329e-05
0.000103435
0.000137987
0.000166149
0.000189886
0.000248112
0.00025497
0.000352996
0.000335004
0.0004849
0.000431388
0.000648249
0.000544706
0.000847432
0.000976285
0.000784061
0.00124227
0.000941694
0.00155188
0.00110693
0.00190259
0.00213821
0.00142497
0.0025505
0.0025505
0.0019026
0.00142497
0.00213821
0.00110693
0.00155188
0.000941693
0.00124227
0.000847434
0.000784061
0.000976287
0.000544706
0.00064825
0.000431388
0.000484902
0.000335004
0.000352997
0.00025497
0.000248113
0.000189886
0.00016615
0.000137987
0.000103436
9.7433e-05
5.67193e-05
6.6448e-05
2.31486e-05
4.33883e-05
2.34908e-07
2.67699e-05
2.16336e-05
-2.05357e-05
1.16656e-05
-2.58589e-05
5.33025e-06
3.04625e-06
-2.81494e-05
2.41074e-07
-1.1049e-06
-2.47039e-05
-1.69104e-06
-2.40758e-06
-1.83842e-05
-1.80028e-06
-2.12451e-06
-1.13706e-05
-1.10231e-06
-1.21155e-06
-1.30408e-06
-1.37915e-06
-1.4361e-06
-1.47439e-06
-1.10892e-06
-3.84688e-07
0.00926684
0.0092519
0.00923908
0.00922837
0.00921974
0.00921319
0.00920875
0.00920642
0.00764574
0.00852381
0.00917338
0.00964478
0.00995905
0.0101471
0.0102406
0.0102675
0.0102507
0.0102071
0.0101487
0.0100833
0.0100157
0.00994858
0.00988353
0.00982128
0.00976218
0.0097063
0.00965365
0.00960415
0.00955769
0.00951418
0.00947351
0.00943558
0.0094003
0.00936757
0.00933731
0.00930946
0.00928394
0.0092607
0.00923968
-0.000495177
0.00922084
0.00764574
0.00852381
0.00917338
0.00964478
0.00995905
0.0101471
0.0102406
0.0102675
0.0102507
0.0102071
0.0101487
0.0100833
0.0100157
0.00994857
0.00988353
0.00982128
0.00976217
0.0097063
0.00965365
0.00960415
0.00955769
0.00951418
0.00947351
0.00943558
0.0094003
0.00936757
0.00933731
0.00930946
0.00928394
0.0092607
0.00923968
0.00922084
0.00920414
0.00918954
0.00917701
0.00916652
0.00915806
0.00915164
0.00914726
0.00914494
)
;
    }
}


// ************************************************************************* //
