/*--------------------------------*- C++ -*----------------------------------*\
  =========                 |
  \\      /  F ield         | OpenFOAM: The Open Source CFD Toolbox
   \\    /   O peration     | Website:  https://openfoam.org
    \\  /    A nd           | Version:  7
     \\/     M anipulation  |
\*---------------------------------------------------------------------------*/
FoamFile
{
    version     2.0;
    format      ascii;
    class       volScalarField;
    location    "70";
    object      p;
}
// * * * * * * * * * * * * * * * * * * * * * * * * * * * * * * * * * * * * * //

dimensions      [0 2 -2 0 0 0 0];

internalField   nonuniform List<scalar> 
183
(
-0.0358453
-0.0250193
-0.019146
-0.0235628
-0.0152069
-0.0115235
-0.00356803
0.00187039
0.0097771
0.00760032
0.016726
0.0245225
0.0242081
0.0332322
0.0408059
0.0426051
0.0515273
0.0588396
0.062849
0.0716938
0.0787449
0.0937684
0.100579
0.11774
0.124355
0.143543
0.15004
0.171042
0.177538
0.181686
0.206682
0.210675
0.237234
0.241227
0.273057
0.274487
0.30582
0.30731
0.340836
0.339797
0.373758
0.370332
0.407665
0.404392
0.43801
0.43256
0.465521
0.458095
0.496945
0.490035
0.480847
0.519877
0.511403
0.539291
0.529499
0.55507
0.544216
0.567118
0.555469
0.575365
0.563195
0.579765
0.567352
0.580296
0.567919
0.576963
0.564902
0.569794
0.558326
0.558843
0.548238
0.544187
0.53471
0.525929
0.517835
0.504196
0.497725
0.488965
0.474515
0.467569
0.448358
0.443439
0.419428
0.41673
0.387615
0.384732
0.35628
0.355811
0.322927
0.325005
0.292507
0.294436
0.25852
0.263011
0.230379
0.234746
0.203583
0.207972
0.171641
0.178347
0.148142
0.15482
0.126352
0.13308
0.106323
0.113149
0.0794219
0.0880518
0.0950033
0.0628997
0.071489
0.0785761
0.0479807
0.0565359
0.0637277
0.0430241
0.0502021
0.0307269
0.0378106
0.0195049
0.0268217
0.0338783
0.017357
0.0221883
0.00673979
-0.0362321
-0.0465958
-0.0370227
-0.0325544
-0.0247702
-0.0216155
-0.0178785
-0.0108703
-0.00619583
-0.00592038
-0.0369373
-0.0304034
-0.0274737
-0.0209147
-0.018665
-0.0158176
-0.009077
-0.00430528
-0.00446993
-0.00409399
8.34347e-05
0.0041517
0.00736758
0.00830898
0.00780432
0.0101533
0.0144126
0.0140508
0.0119738
0.0155945
0.0175124
-0.000889031
0.00337213
0.00324585
0.0036733
0.00517279
0.0119128
0.014876
0.016976
0.0204204
0.0226221
0.0248816
0.0264939
0.02567
0.0249746
0.0265097
0.0296545
0.0284616
0.0260796
0.0265247
0.029902
0.0043156
-0.0100165
-0.00310659
-0.00190302
-4.10621e-05
0.0025339
0.00962985
)
;

boundaryField
{
    inlet
    {
        type            zeroGradient;
    }
    outlet
    {
        type            fixedValue;
        value           nonuniform 0();
    }
    cylinder
    {
        type            zeroGradient;
    }
    top
    {
        type            symmetryPlane;
    }
    bottom
    {
        type            symmetryPlane;
    }
    defaultFaces
    {
        type            empty;
    }
    procBoundary8to7
    {
        type            processor;
        value           nonuniform List<scalar> 
130
(
-0.00708793
-0.00215268
-0.0221465
-0.00708793
0.003806
0.003806
0.0166188
0.0166188
0.0311666
0.0311666
0.0471656
0.0471656
0.0648172
0.0648172
0.0843156
0.0843156
0.105741
0.105741
0.129126
0.129126
0.154461
0.154461
0.183937
0.212514
0.212514
0.242777
0.242777
0.273671
0.306276
0.306276
0.336416
0.364739
0.398739
0.398739
0.424856
0.448533
0.469633
0.500686
0.500686
0.517494
0.531177
0.541657
0.548875
0.552794
0.553397
0.550687
0.544687
0.535441
0.523013
0.507487
0.507487
0.478131
0.458436
0.436208
0.411588
0.411588
0.379597
0.352908
0.324463
0.324463
0.294012
0.264948
0.264948
0.23685
0.23685
0.210362
0.182873
0.182873
0.159558
0.159558
0.138075
0.138075
0.118423
0.118423
0.100564
0.100564
0.084413
0.084413
0.0697489
0.0697489
0.0562972
0.0562972
0.0442767
0.0442767
0.0505949
0.0379181
0.0379181
-0.0221465
-0.0221465
-0.0275073
-0.0243609
-0.0229
-0.0171539
-0.015495
-0.0138019
-0.00732143
-0.00209316
-0.0027655
-0.00337543
0.000507518
0.00506807
0.00848499
0.00934164
0.00815342
0.0106764
0.0155853
0.0150478
0.0123155
0.0166642
0.0308137
0.0079184
0.00906299
0.00797177
0.00729854
0.00760397
0.0141199
0.0171996
0.0188537
0.0221287
0.0241463
0.0264608
0.0279352
0.0268272
0.0254712
0.0271723
0.0308401
0.0294814
0.0262828
0.0267243
0.030978
)
;
    }
    procBoundary8to9
    {
        type            processor;
        value           nonuniform List<scalar> 
138
(
-0.0521405
-0.0426661
-0.0426661
-0.0433104
-0.0339844
-0.0339844
-0.0326336
-0.0326336
-0.0206719
-0.0206719
-0.0179442
-0.00731596
-0.00731596
-0.00309351
-0.00309351
0.0134456
0.0134456
0.0317456
0.0317456
0.0518371
0.0849512
0.0849512
0.10887
0.10887
0.134503
0.134503
0.1617
0.200045
0.200045
0.23034
0.268916
0.268916
0.301538
0.339222
0.374669
0.374669
0.408556
0.441112
0.470636
0.470636
0.501909
0.526292
0.546933
0.563701
0.576492
0.585227
0.589856
0.590356
0.586729
0.579009
0.567254
0.55155
0.532011
0.508775
0.479135
0.479135
0.450917
0.419734
0.387915
0.387915
0.354026
0.317984
0.287767
0.287767
0.251026
0.223254
0.223254
0.196735
0.196735
0.162281
0.139105
0.139105
0.117524
0.117524
0.0976213
0.0976213
0.0687755
0.0525076
0.0525076
0.0378088
0.0378088
0.0245862
0.0345437
0.0345437
0.0224268
0.0224268
0.0114355
0.0114355
0.00143599
0.00958947
0.00958947
0.00110573
0.00110573
-0.00831554
-0.0496885
-0.0555981
-0.0433855
-0.0375804
-0.0286665
-0.0244786
-0.019877
-0.0127191
-0.00801597
-0.00721435
-0.00490551
-0.00490551
-0.000581372
0.00329934
0.00633572
0.00743494
0.00731444
0.00962228
0.0134188
0.0132131
0.0115074
0.0146975
0.0127916
0.0152838
0.0189209
0.021216
0.0235402
0.0251416
0.0246522
0.0243307
0.0258497
0.0286279
0.0275915
0.0257069
0.0261538
0.029007
-0.0082684
-0.0185027
-0.00940146
-0.00704728
-0.00367624
-9.03009e-05
0.0127916
0.0072705
)
;
    }
}


// ************************************************************************* //
