/*--------------------------------*- C++ -*----------------------------------*\
  =========                 |
  \\      /  F ield         | OpenFOAM: The Open Source CFD Toolbox
   \\    /   O peration     | Website:  https://openfoam.org
    \\  /    A nd           | Version:  7
     \\/     M anipulation  |
\*---------------------------------------------------------------------------*/
FoamFile
{
    version     2.0;
    format      ascii;
    class       surfaceScalarField;
    location    "25";
    object      phi;
}
// * * * * * * * * * * * * * * * * * * * * * * * * * * * * * * * * * * * * * //

dimensions      [0 3 -1 0 0 0 0];

internalField   nonuniform List<scalar> 
237
(
-0.00132832
-0.00444048
-0.00144468
-0.00133701
-0.00419867
-0.00133301
-0.00397051
-0.00131909
-0.00375442
-0.00129587
-0.00354692
-0.00126295
-0.00334629
-0.00122013
-0.00315216
-0.00116761
-0.00296438
-0.00110574
-0.00278276
-0.00283641
-0.00103489
-0.00260703
-0.00116439
-0.00265325
-0.00108643
-0.00247601
-0.00100022
-0.0023043
-0.00234108
-0.000906146
-0.00213746
-0.00104237
-0.00216808
-0.000942125
-0.00199997
-0.00202836
-0.000834853
-0.00183546
-0.000975626
-0.0018592
-0.000862802
-0.00169374
-0.00171537
-0.000888475
-0.00154916
-0.00156873
-0.000764668
-0.00138437
-0.00091186
-0.00140197
-0.000783394
-0.00123694
-0.00125241
-0.000800064
-0.00108734
-0.00110076
-0.000814671
-0.000935836
-0.000947252
-0.000674074
-0.00077033
-0.000827208
-0.000782702
-0.000683173
-0.000618389
-0.000628204
-0.000690462
-0.000465296
-0.000472615
-0.000695938
-0.000311338
-0.000316204
-0.000699599
-0.000156801
-0.000159244
-0.000701445
-1.97311e-06
-2.00716e-06
-0.000701472
0.000152859
0.000155234
-0.000699683
0.000307409
0.000312206
-0.000696078
0.00046139
0.000468638
-0.000690657
0.000614514
0.000624257
-0.000683424
0.000766495
0.000778792
-0.000674382
-0.000827563
0.000931973
0.000943328
-0.000815091
0.00108353
0.00109689
-0.00080055
0.0012332
0.00124861
-0.000783946
0.0013807
0.00139823
-0.000765285
-0.000912559
0.00154551
0.00156501
-0.000889249
0.00169018
0.00171175
-0.000863649
0.00183201
0.00185568
-0.000835771
-0.000976657
0.00199656
0.00202488
-0.000943236
0.00213417
0.00216472
-0.000907333
-0.0010437
0.00230109
0.00233779
-0.00100163
0.00247288
-0.00108809
0.00260407
0.00265023
-0.00103663
-0.00116633
0.00277993
0.00283352
-0.00110776
0.00296171
-0.00116993
0.0031497
-0.00122279
0.0033441
-0.00126598
0.00354507
-0.00129928
0.00375303
-0.00132285
0.00396968
-0.00133707
0.00419851
-0.00134129
-0.00146211
0.00457572
-0.00144948
-0.0197126
-0.00153339
-0.00155483
-0.001546
-0.00151316
-0.00146915
-0.0014086
-0.00132705
-0.00124568
-0.00117281
-0.00108655
-0.00098166
-0.000875495
-0.000779208
-0.0205707
-0.000691279
-0.0205029
-0.000597113
-0.0205208
-0.000488778
-0.0205875
-0.000385342
-0.0204843
-0.000294827
-0.0204035
-0.000199946
-0.0203999
-9.22534e-05
-0.0205115
-0.0203648
-0.000833197
-0.000739669
-0.000639601
-0.000523734
-0.000411213
-0.000315138
-0.00021367
-9.84391e-05
-0.00123391
0.0206679
-0.00113826
0.0205475
-0.00104155
0.0205796
-0.000950441
0.0204845
-0.000862808
0.020495
-0.000761398
0.0205628
-0.000644265
0.0206023
-0.000530246
0.0205424
-0.000432808
0.0204321
-0.000334129
0.0204518
-0.000215718
0.020561
-9.74211e-05
0.0205333
0.020414
-0.00153749
-0.00155666
-0.00154571
-0.00151629
-0.00146376
-0.00138956
-0.00131238
-0.00123674
-0.00114855
-0.00106182
-0.000972903
-0.000888683
-0.000805973
-0.000710141
-0.000601694
-0.000496547
-0.000405314
-0.000312041
-0.000201707
-9.2102e-05
)
;

boundaryField
{
    inlet
    {
        type            calculated;
        value           nonuniform 0();
    }
    outlet
    {
        type            calculated;
        value           nonuniform 0();
    }
    cylinder
    {
        type            calculated;
        value           nonuniform 0();
    }
    top
    {
        type            symmetryPlane;
        value           uniform 0;
    }
    bottom
    {
        type            symmetryPlane;
        value           uniform 0;
    }
    defaultFaces
    {
        type            empty;
        value           nonuniform 0();
    }
    procBoundary7to6
    {
        type            processor;
        value           nonuniform List<scalar> 
124
(
-0.00457461
-0.00145734
-0.00432015
-0.00145465
-0.00407703
-0.0014404
-0.0038492
-0.00141756
-0.00363273
-0.00138604
-0.00342382
-0.0013449
-0.00322152
-0.001294
-0.00302576
-0.00123371
-0.00129669
-0.00270412
-0.00122006
-0.00251963
-0.00113515
-0.00118101
-0.00220244
-0.00108184
-0.00111861
-0.00188538
-0.00100663
-0.00103512
-0.00106108
-0.0014195
-0.000932946
-0.000951721
-0.000968176
-0.000982303
-0.000792158
-0.00083767
-0.000846051
-0.000852349
-0.000856559
-0.000858681
-0.000858713
-0.000856656
-0.000852509
-0.000846276
-0.000837959
-0.000788189
-0.000982703
-0.00096865
-0.00095227
-0.00093357
-0.0014157
-0.00106186
-0.00103599
-0.00100758
-0.00188178
-0.00111976
-0.00108308
-0.00219901
-0.00118248
-0.00113672
-0.00251642
-0.0012219
-0.002701
-0.00129884
-0.00123596
-0.00302303
-0.0012966
-0.003219
-0.00134789
-0.0034216
-0.00138946
-0.0036309
-0.0014214
-0.00384789
-0.00144464
-0.00407637
-0.00145922
-0.00432031
-0.00445133
-0.00158651
-0.0196238
-0.0199985
-0.0202331
-0.0204238
-0.0204804
-0.0206203
-0.0207021
-0.0206386
-0.0205931
-0.0207051
-0.0207511
-0.0206755
0.000938764
-0.0206763
-0.0205964
-0.0206208
-0.0207034
-0.0205968
-0.0204996
-0.0205014
-0.0206267
-0.0204632
-0.0207631
-0.0206431
-0.0206763
-0.0205756
-0.0205826
-0.0206642
-0.0207194
-0.0206564
-0.0205295
-0.0205505
-0.0206794
-0.0206516
-0.0205115
-0.0196445
-0.0200308
-0.0202699
-0.0204191
-0.0205774
-0.0206732
-0.0206239
0.00132902
-0.0205951
)
;
    }
    procBoundary7to8
    {
        type            processor;
        value           nonuniform List<scalar> 
130
(
0.00455384
0.00469097
0.00130374
0.00121496
0.0043143
0.00122138
0.00408671
0.00121681
0.00387124
0.00120227
0.00366508
0.00117771
0.0034662
0.00114304
0.00327387
0.00109842
0.00308785
0.00104414
0.00290795
0.00098055
0.00273393
0.000907988
0.000955418
0.00243681
0.000867706
0.00227143
0.000772175
0.000804639
0.00197408
0.000696233
0.000721079
0.000743893
0.00152937
0.000619668
0.000635961
0.000650463
0.000663169
0.000920832
0.000523572
0.000531232
0.000537369
0.00054198
0.000545063
0.000546616
0.00054664
0.000545133
0.000542097
0.000537533
0.000531443
0.000523831
0.000917046
0.000663534
0.000650884
0.000636438
0.0006202
0.00152579
0.000744575
0.000721823
0.000697039
0.00197074
0.000805626
0.000773227
0.00226828
0.000868964
0.00243375
0.000956904
0.000909541
0.00273116
0.000982355
0.00290533
0.00104622
0.00308542
0.0011008
0.00327169
0.00114574
0.00346434
0.00118074
0.00366361
0.00120562
0.00387026
0.00122044
0.00408632
0.00122522
0.00431458
0.00444113
0.00133269
0.00469251
0.0198006
-0.00139177
0.0200199
0.0202243
0.020391
0.0204364
0.0205597
0.0206206
0.0205573
0.0205202
0.0206189
0.0206462
0.0205694
0.0204744
0.0204149
0.0204266
0.0204792
0.0203809
0.020313
0.020305
0.0204038
0.0202725
0.0197325
0.02005
0.020259
0.0203897
0.0205248
0.020599
0.0205467
0.0205195
0.0205798
0.0204608
0.0204907
0.0204002
0.0204123
0.020467
0.0204939
0.0204372
0.0203409
0.0203585
0.0204507
0.0204237
0.0203219
)
;
    }
}


// ************************************************************************* //
