/*--------------------------------*- C++ -*----------------------------------*\
  =========                 |
  \\      /  F ield         | OpenFOAM: The Open Source CFD Toolbox
   \\    /   O peration     | Website:  https://openfoam.org
    \\  /    A nd           | Version:  7
     \\/     M anipulation  |
\*---------------------------------------------------------------------------*/
FoamFile
{
    version     2.0;
    format      ascii;
    class       volVectorField;
    location    "25";
    object      U;
}
// * * * * * * * * * * * * * * * * * * * * * * * * * * * * * * * * * * * * * //

dimensions      [0 1 -1 0 0 0 0];

internalField   nonuniform List<vector> 
183
(
(1.00882 0.302634 1.66512e-20)
(1.01259 0.287608 1.6422e-20)
(0.989016 0.315953 3.50165e-20)
(0.992488 0.30088 -5.51321e-20)
(0.967836 0.331181 -2.02079e-20)
(0.971697 0.313607 -4.0613e-20)
(0.94572 0.347393 6.35705e-20)
(0.949833 0.328247 4.00569e-21)
(0.922052 0.363982 2.81237e-20)
(0.926969 0.343635 -4.11511e-20)
(0.896068 0.380807 5.56624e-20)
(0.902273 0.359106 -8.05156e-20)
(0.867317 0.397805 1.53304e-19)
(0.87507 0.374596 -1.43677e-19)
(0.835463 0.414877 -1.3447e-20)
(0.845016 0.390061 2.38744e-19)
(0.800152 0.431871 -1.16257e-19)
(0.811805 0.405366 -8.37917e-20)
(0.761001 0.448585 2.81955e-19)
(0.775097 0.420333 4.16824e-19)
(0.788514 0.394299 -3.6329e-20)
(0.734529 0.434726 -2.80423e-19)
(0.750542 0.407109 -1.20258e-19)
(0.689709 0.448236 3.99774e-21)
(0.708719 0.419052 1.19194e-19)
(0.64019 0.46041 1.56097e-20)
(0.662681 0.429788 -2.1381e-19)
(0.683716 0.401598 2.83561e-19)
(0.61202 0.438846 -1.53648e-19)
(0.63666 0.409448 5.19339e-20)
(0.556242 0.445458 1.75864e-19)
(0.585088 0.415279 2.58017e-19)
(0.611797 0.387281 2.81188e-20)
(0.528568 0.418328 5.03168e-20)
(0.559553 0.389795 4.38973e-19)
(0.502558 0.3892 8.01633e-20)
(0.535568 0.362496 -1.06044e-19)
(0.440364 0.384185 -7.70254e-20)
(0.478372 0.358198 -4.28793e-19)
(0.513275 0.333494 -3.53224e-19)
(0.416297 0.34923 2.05861e-19)
(0.456159 0.325461 3.70262e-20)
(0.394503 0.31252 -3.42231e-19)
(0.436054 0.291137 1.26659e-19)
(0.375119 0.274233 -1.65142e-19)
(0.418181 0.255388 1.25996e-19)
(0.309954 0.250461 -5.63879e-20)
(0.358269 0.234559 2.56188e-19)
(0.40265 0.218382 -1.51884e-19)
(0.294622 0.206891 -1.2753e-19)
(0.344059 0.193693 8.81046e-20)
(0.282229 0.162227 1.58367e-19)
(0.332578 0.151843 3.58635e-20)
(0.272859 0.116702 -7.13302e-20)
(0.3239 0.109219 1.19224e-19)
(0.266572 0.0705583 -5.56155e-21)
(0.318079 0.0660384 -4.36293e-20)
(0.263409 0.0240411 2.63868e-21)
(0.315152 0.0225219 1.34641e-21)
(0.263393 -0.0226021 2.14471e-20)
(0.315138 -0.021108 1.20207e-20)
(0.266524 -0.069123 5.23555e-20)
(0.318036 -0.0646276 5.40405e-21)
(0.272779 -0.115274 -8.11289e-20)
(0.323829 -0.107814 -1.31312e-20)
(0.282119 -0.160809 1.02089e-19)
(0.33248 -0.150447 -1.9027e-19)
(0.294483 -0.205488 -7.92873e-20)
(0.343935 -0.19231 -1.53179e-19)
(0.309787 -0.249075 8.44028e-20)
(0.35812 -0.233191 6.26933e-20)
(0.402518 -0.217038 1.3309e-19)
(0.374948 -0.272883 1.43787e-19)
(0.418029 -0.254059 -2.2582e-19)
(0.394311 -0.311191 2.13554e-20)
(0.435884 -0.289826 2.87091e-19)
(0.416086 -0.347924 1.48059e-19)
(0.455973 -0.324171 2.20018e-19)
(0.440137 -0.382906 -1.15228e-19)
(0.478173 -0.356931 -4.50536e-19)
(0.513101 -0.33224 4.16601e-19)
(0.502348 -0.387958 -2.03436e-20)
(0.535385 -0.361264 -8.53589e-20)
(0.528349 -0.417114 1.47658e-19)
(0.559365 -0.388588 -2.066e-19)
(0.556017 -0.444274 -1.06686e-19)
(0.584896 -0.414098 9.49414e-20)
(0.611634 -0.386103 -1.33191e-19)
(0.611827 -0.437694 -3.77936e-19)
(0.636499 -0.408296 2.74715e-19)
(0.639998 -0.45929 3.22016e-19)
(0.662524 -0.428664 6.03018e-20)
(0.683591 -0.400469 2.11958e-20)
(0.689558 -0.447142 -7.17918e-20)
(0.708603 -0.417951 -1.60672e-19)
(0.734424 -0.433655 -2.60999e-19)
(0.750473 -0.406025 -2.46713e-19)
(0.760909 -0.447547 -4.81437e-21)
(0.775043 -0.419279 9.6996e-20)
(0.788497 -0.393227 6.45057e-20)
(0.800116 -0.430853 -3.10288e-20)
(0.81181 -0.404327 -6.86778e-20)
(0.83549 -0.413874 1.38086e-19)
(0.845088 -0.389032 8.48135e-21)
(0.867416 -0.396818 -4.01455e-19)
(0.875219 -0.373577 9.54337e-20)
(0.89625 -0.379836 -7.25881e-21)
(0.902513 -0.3581 -1.84785e-20)
(0.922327 -0.363034 7.09279e-20)
(0.927312 -0.342651 6.87377e-20)
(0.946096 -0.346479 -9.10417e-20)
(0.950284 -0.327302 -2.31539e-20)
(0.968315 -0.330317 3.93147e-20)
(0.972266 -0.312714 5.60958e-20)
(0.989606 -0.315152 -5.0359e-20)
(0.993193 -0.300048 3.9019e-20)
(0.998172 -0.284926 -9.64888e-20)
(1.01341 -0.28688 -3.7493e-20)
(1.04545 0.234775 6.5444e-21)
(1.03358 0.23361 -5.92199e-21)
(1.05089 0.223197 8.03221e-22)
(1.06403 0.188886 7.1391e-22)
(1.07346 0.171576 -1.23411e-21)
(1.07641 0.150313 -2.03978e-21)
(1.08273 0.131527 4.52471e-21)
(1.08658 0.120781 -4.51493e-21)
(1.08385 0.110715 -1.43296e-21)
(1.08132 0.0944156 -3.08171e-21)
(1.08601 0.0808559 -4.71365e-22)
(1.08804 0.0765492 3.51465e-21)
(1.08455 0.0713459 -2.28166e-21)
(1.07944 0.0627274 7.09396e-22)
(1.07576 0.0530204 -2.1994e-21)
(1.07605 0.0410374 -3.84195e-21)
(1.07923 0.0373211 -1.86147e-21)
(1.07417 0.0337304 -2.56896e-21)
(1.07016 0.0255909 4.62433e-23)
(1.06953 0.013528 -9.02975e-22)
(1.07509 0.00984647 5.94302e-22)
(1.06784 0.00830485 -3.35463e-21)
(1.07792 0.0637406 4.86144e-22)
(1.07342 0.0535804 1.39097e-21)
(1.07404 0.0407273 1.13096e-21)
(1.07855 0.0372687 1.17525e-21)
(1.07298 0.0345385 2.62956e-21)
(1.06802 0.0261365 9.35671e-22)
(1.06762 0.0130579 2.46939e-22)
(1.07441 0.00996079 1.17163e-21)
(1.06579 0.00896653 1.31329e-21)
(1.0829 -0.100317 -3.04707e-21)
(1.07652 -0.0897078 -1.78903e-21)
(1.07803 -0.0769806 1.1344e-21)
(1.07267 -0.0695348 6.80219e-22)
(1.07247 -0.0536331 1.26631e-21)
(1.07639 -0.045341 1.42103e-21)
(1.07938 -0.0403965 -7.8123e-22)
(1.07642 -0.0384393 2.73939e-22)
(1.06965 -0.0300617 2.51741e-21)
(1.07028 -0.0172733 1.64801e-21)
(1.07702 -0.0123045 -6.63833e-22)
(1.07576 -0.0129413 1.952e-21)
(1.06837 -0.0061767 1.16961e-21)
(1.03448 -0.233158 2.46622e-21)
(1.05237 -0.222696 -1.13639e-21)
(1.06599 -0.190849 -1.01767e-21)
(1.07316 -0.171117 1.40729e-21)
(1.08075 -0.150436 2.36019e-21)
(1.08542 -0.137813 -4.90781e-21)
(1.0833 -0.127199 4.57001e-21)
(1.08152 -0.108348 1.41313e-21)
(1.08479 -0.0997937 4.04133e-21)
(1.0786 -0.0889059 1.59161e-21)
(1.08006 -0.0763613 -3.16207e-21)
(1.07514 -0.0687955 -1.25779e-21)
(1.07523 -0.0536382 1.08947e-21)
(1.07807 -0.045926 -3.87148e-22)
(1.07998 -0.040554 3.58119e-21)
(1.07723 -0.0377668 -2.15902e-21)
(1.07172 -0.0295044 -2.4807e-22)
(1.07231 -0.0177947 -2.71537e-21)
(1.07754 -0.0127981 1.43398e-21)
(1.07627 -0.0123267 -3.88306e-21)
(1.07044 -0.00559443 1.04367e-21)
)
;

boundaryField
{
    inlet
    {
        type            uniformFixedValue;
        uniformValue    constant (1 0 0);
        value           nonuniform 0();
    }
    outlet
    {
        type            pressureInletOutletVelocity;
        value           nonuniform 0();
    }
    cylinder
    {
        type            fixedValue;
        value           nonuniform 0();
    }
    top
    {
        type            symmetryPlane;
    }
    bottom
    {
        type            symmetryPlane;
    }
    defaultFaces
    {
        type            empty;
    }
    procBoundary7to6
    {
        type            processor;
        value           nonuniform List<vector> 
124
(
(0.99735 0.285767 2.59576e-20)
(0.99735 0.285767 2.59576e-20)
(0.975811 0.298268 9.75891e-21)
(0.975811 0.298268 9.75891e-21)
(0.95419 0.310462 -3.77419e-20)
(0.95419 0.310462 -3.77419e-20)
(0.931874 0.324511 3.68086e-20)
(0.931874 0.324511 3.68086e-20)
(0.908328 0.338876 -6.49117e-20)
(0.908328 0.338876 -6.49117e-20)
(0.882604 0.353046 -1.03229e-20)
(0.882604 0.353046 -1.03229e-20)
(0.854236 0.36708 1.15619e-19)
(0.854236 0.36708 1.15619e-19)
(0.822972 0.380887 -5.82473e-20)
(0.822972 0.380887 -5.82473e-20)
(0.801293 0.370279 3.06652e-21)
(0.765708 0.381683 8.00273e-20)
(0.765708 0.381683 8.00273e-20)
(0.726621 0.392221 1.07458e-19)
(0.726621 0.392221 1.07458e-19)
(0.703462 0.375701 -5.30564e-20)
(0.659658 0.382413 -3.71371e-20)
(0.659658 0.382413 -3.71371e-20)
(0.636683 0.361556 1.47423e-19)
(0.588235 0.363366 2.34501e-19)
(0.588235 0.363366 2.34501e-19)
(0.566112 0.337794 1.2063e-19)
(0.545558 0.310668 -4.22452e-19)
(0.492808 0.302915 -2.94551e-19)
(0.492808 0.302915 -2.94551e-19)
(0.474291 0.270892 2.71832e-20)
(0.457834 0.237572 -1.14048e-19)
(0.443537 0.20311 1.87019e-19)
(0.389556 0.180299 1.93758e-19)
(0.389556 0.180299 1.93758e-19)
(0.378981 0.141324 3.43207e-20)
(0.370988 0.101649 8.76523e-20)
(0.365628 0.0614692 -7.9819e-20)
(0.362933 0.0209854 9.5247e-21)
(0.36292 -0.0196009 2.48233e-20)
(0.36559 -0.0600874 3.98046e-20)
(0.370925 -0.100272 -1.34406e-19)
(0.378894 -0.139956 -2.00407e-19)
(0.389446 -0.178941 1.32274e-20)
(0.389446 -0.178941 1.32274e-20)
(0.44342 -0.201788 7.14071e-20)
(0.4577 -0.236264 -1.17814e-19)
(0.474142 -0.269599 2.03263e-19)
(0.492646 -0.30164 1.43911e-19)
(0.492646 -0.30164 1.43911e-19)
(0.545407 -0.309425 -6.04012e-20)
(0.565955 -0.33657 -2.84388e-19)
(0.588074 -0.362164 2.86863e-20)
(0.588074 -0.362164 2.86863e-20)
(0.636547 -0.360379 2.31681e-19)
(0.659527 -0.381258 -4.13098e-20)
(0.659527 -0.381258 -4.13098e-20)
(0.703366 -0.374563 7.12413e-20)
(0.726537 -0.391108 -2.1569e-20)
(0.726537 -0.391108 -2.1569e-20)
(0.765671 -0.380582 -1.93669e-19)
(0.765671 -0.380582 -1.93669e-19)
(0.801309 -0.369184 4.50132e-19)
(0.823016 -0.379823 2.4499e-20)
(0.823016 -0.379823 2.4499e-20)
(0.854351 -0.36602 1.15713e-19)
(0.854351 -0.36602 1.15713e-19)
(0.882803 -0.351989 1.46819e-19)
(0.882803 -0.351989 1.46819e-19)
(0.908628 -0.337827 1.67223e-19)
(0.908628 -0.337827 1.67223e-19)
(0.932286 -0.323486 -9.49576e-20)
(0.932286 -0.323486 -9.49576e-20)
(0.954726 -0.309476 -4.85991e-20)
(0.954726 -0.309476 -4.85991e-20)
(0.976497 -0.297329 9.01652e-20)
(0.976497 -0.297329 9.01652e-20)
(0.982766 -0.282118 -1.0673e-19)
(1.0232 -0.231598 1.71111e-21)
(1.02231 0.232165 2.05373e-21)
(1.04383 0.221733 -4.03914e-22)
(1.05894 0.18915 -2.29965e-23)
(1.0696 0.171932 2.98396e-22)
(1.07273 0.151004 1.35482e-21)
(1.0796 0.131541 2.77502e-21)
(1.08471 0.121023 -1.29404e-21)
(1.08205 0.111806 1.67488e-21)
(1.07835 0.095053 1.83134e-22)
(1.08373 0.0804178 2.43003e-21)
(1.08721 0.076411 -1.36809e-21)
(1.08402 0.0720909 -1.06644e-21)
(1.08402 0.0720909 -1.06644e-21)
(1.07634 0.0649925 -2.1731e-21)
(1.07092 0.0542477 -1.01314e-21)
(1.07203 0.0402506 3.99231e-21)
(1.07802 0.0371078 -1.84491e-21)
(1.07187 0.03551 8.81834e-23)
(1.06579 0.0267844 -1.06859e-21)
(1.0657 0.0124259 8.60519e-22)
(1.07381 0.0100859 4.36543e-23)
(1.06368 0.00978824 -3.28533e-25)
(1.08111 -0.100819 -1.84203e-22)
(1.0744 -0.0905636 -5.48777e-23)
(1.07598 -0.0776829 1.28401e-21)
(1.07002 -0.070406 -4.21883e-22)
(1.06957 -0.0536034 1.49806e-21)
(1.07471 -0.0445277 1.46117e-21)
(1.07894 -0.0401212 -4.61972e-21)
(1.07566 -0.0392785 1.73206e-21)
(1.06743 -0.0307894 -8.05218e-22)
(1.06818 -0.0165865 8.13952e-22)
(1.07665 -0.0116241 -1.17178e-21)
(1.07535 -0.013736 1.44323e-21)
(1.06618 -0.00694946 -3.49513e-22)
(1.0232 -0.231598 1.71111e-21)
(1.04539 -0.221048 8.23132e-22)
(1.06106 -0.19125 3.71636e-22)
(1.06899 -0.171336 -1.22957e-22)
(1.07746 -0.150519 -1.36523e-21)
(1.08329 -0.138138 -2.98057e-21)
(1.08134 -0.128357 1.91984e-21)
(1.07889 -0.10899 -2.06132e-21)
(1.07889 -0.10899 -2.06132e-21)
)
;
    }
    procBoundary7to8
    {
        type            processor;
        value           nonuniform List<vector> 
130
(
(1.02475 0.30365 -5.50452e-21)
(1.02753 0.288833 3.95686e-20)
(1.02753 0.288833 3.95686e-20)
(1.00604 0.317487 4.19618e-21)
(1.00604 0.317487 4.19618e-21)
(0.985719 0.333277 1.94729e-20)
(0.985719 0.333277 1.94729e-20)
(0.964467 0.350199 5.79157e-21)
(0.964467 0.350199 5.79157e-21)
(0.941863 0.367729 -3.87615e-20)
(0.941863 0.367729 -3.87615e-20)
(0.917138 0.385737 -1.53723e-19)
(0.917138 0.385737 -1.53723e-19)
(0.889764 0.404135 1.28974e-19)
(0.889764 0.404135 1.28974e-19)
(0.859367 0.422836 1.52614e-19)
(0.859367 0.422836 1.52614e-19)
(0.825576 0.441717 -1.22512e-19)
(0.825576 0.441717 -1.22512e-19)
(0.78799 0.460607 2.8324e-19)
(0.78799 0.460607 2.8324e-19)
(0.746164 0.479255 2.0195e-19)
(0.71759 0.464738 1.03953e-19)
(0.71759 0.464738 1.03953e-19)
(0.66943 0.479898 -2.42113e-19)
(0.66943 0.479898 -2.42113e-19)
(0.615896 0.493291 -2.46356e-19)
(0.585411 0.470478 1.16166e-20)
(0.585411 0.470478 1.16166e-20)
(0.524601 0.476927 -2.51877e-20)
(0.494689 0.448181 4.69969e-19)
(0.46655 0.41722 -2.47491e-20)
(0.46655 0.41722 -2.47491e-20)
(0.398365 0.409342 -3.76295e-19)
(0.372478 0.37235 1.09054e-19)
(0.349012 0.333405 -7.96225e-20)
(0.328124 0.292705 -5.72661e-19)
(0.328124 0.292705 -5.72661e-19)
(0.257288 0.263018 -2.0575e-19)
(0.241014 0.217377 1.5978e-19)
(0.227851 0.170514 1.53884e-19)
(0.217891 0.122694 1.73769e-20)
(0.211206 0.0741832 -2.25225e-20)
(0.207842 0.0252564 -1.5725e-20)
(0.207824 -0.0238109 2.88229e-21)
(0.211153 -0.072742 6.45353e-21)
(0.217803 -0.121261 -7.31252e-20)
(0.22773 -0.169094 -1.63906e-19)
(0.240861 -0.215973 -5.88818e-20)
(0.257105 -0.261635 -8.37425e-20)
(0.327932 -0.291341 3.1115e-19)
(0.327932 -0.291341 3.1115e-19)
(0.348796 -0.332065 4.52663e-19)
(0.372241 -0.371038 -8.11699e-20)
(0.39811 -0.40806 1.35455e-19)
(0.466309 -0.41597 -3.50647e-20)
(0.466309 -0.41597 -3.50647e-20)
(0.494437 -0.446963 7.36978e-20)
(0.524341 -0.475743 -4.41222e-19)
(0.585183 -0.469326 2.2685e-19)
(0.585183 -0.469326 2.2685e-19)
(0.615667 -0.492173 -2.87735e-19)
(0.669242 -0.478811 1.07037e-19)
(0.669242 -0.478811 1.07037e-19)
(0.717447 -0.463677 -2.37658e-19)
(0.717447 -0.463677 -2.37658e-19)
(0.746032 -0.478229 9.96385e-20)
(0.787913 -0.459605 -2.23011e-19)
(0.787913 -0.459605 -2.23011e-19)
(0.825559 -0.440735 2.93873e-19)
(0.825559 -0.440735 2.93873e-19)
(0.859417 -0.421874 -1.27034e-19)
(0.859417 -0.421874 -1.27034e-19)
(0.889891 -0.403194 4.03618e-20)
(0.889891 -0.403194 4.03618e-20)
(0.917349 -0.384819 4.07041e-20)
(0.917349 -0.384819 4.07041e-20)
(0.942167 -0.366844 1.14715e-21)
(0.942167 -0.366844 1.14715e-21)
(0.964868 -0.349357 4.58607e-20)
(0.964868 -0.349357 4.58607e-20)
(0.986218 -0.332495 -5.20302e-21)
(0.986218 -0.332495 -5.20302e-21)
(1.00664 -0.316777 -4.11531e-21)
(1.00953 -0.301905 -5.14829e-20)
(1.00953 -0.301905 -5.14829e-20)
(1.02834 -0.288212 -3.62688e-20)
(1.05707 0.235746 1.50862e-21)
(1.05928 0.224148 -2.50582e-22)
(1.05928 0.224148 -2.50582e-22)
(1.07047 0.188372 1.59592e-22)
(1.07843 0.171152 1.84235e-23)
(1.08069 0.149647 2.91709e-21)
(1.08628 0.131459 -3.1825e-21)
(1.08911 0.120419 -2.09885e-21)
(1.08614 0.109707 6.05588e-22)
(1.08409 0.0939183 -3.53194e-22)
(1.08829 0.0811953 -2.21243e-21)
(1.08934 0.0765168 5.85313e-23)
(1.08559 0.0706156 -1.87716e-21)
(1.08098 0.0618686 -2.55537e-21)
(1.0778 0.0525487 -3.16918e-21)
(1.07787 0.0412446 -1.5051e-21)
(1.08019 0.0372883 -7.76942e-22)
(1.07539 0.0330298 -4.56909e-21)
(1.07203 0.0251246 1.97536e-21)
(1.07125 0.0138913 -3.42694e-21)
(1.07601 0.00973669 1.39242e-21)
(1.06964 0.00775161 1.0777e-23)
(1.04634 -0.234435 1.79342e-21)
(1.06071 -0.223802 -6.50172e-22)
(1.07232 -0.190222 2.04473e-21)
(1.0783 -0.170857 2.54465e-21)
(1.08478 -0.150251 -2.60565e-21)
(1.08836 -0.137368 8.06964e-22)
(1.08586 -0.126085 4.62688e-21)
(1.0842 -0.107769 3.31795e-21)
(1.08689 -0.0992462 4.31257e-21)
(1.08071 -0.0881333 3.33466e-22)
(1.08206 -0.0757981 -5.48323e-23)
(1.07735 -0.0681537 1.49422e-21)
(1.07761 -0.0536489 1.99502e-21)
(1.07977 -0.0463586 3.17148e-21)
(1.08094 -0.0406163 1.67658e-21)
(1.07827 -0.0371956 7.70186e-22)
(1.07354 -0.0290688 4.26869e-21)
(1.0741 -0.018214 -2.14948e-21)
(1.07836 -0.0131614 4.05572e-21)
(1.07707 -0.011827 -1.53934e-21)
(1.07223 -0.00514132 1.10432e-24)
)
;
    }
}


// ************************************************************************* //
