/*--------------------------------*- C++ -*----------------------------------*\
  =========                 |
  \\      /  F ield         | OpenFOAM: The Open Source CFD Toolbox
   \\    /   O peration     | Website:  https://openfoam.org
    \\  /    A nd           | Version:  7
     \\/     M anipulation  |
\*---------------------------------------------------------------------------*/
FoamFile
{
    version     2.0;
    format      ascii;
    class       surfaceScalarField;
    location    "30";
    object      phi;
}
// * * * * * * * * * * * * * * * * * * * * * * * * * * * * * * * * * * * * * //

dimensions      [0 3 -1 0 0 0 0];

internalField   nonuniform List<scalar> 
79480
(
-7.49288e-07
7.48648e-07
6.39638e-10
-2.88554e-06
2.13404e-06
2.21863e-09
-6.35729e-06
3.4676e-06
4.14723e-09
-1.11112e-05
4.74747e-06
6.41258e-09
-1.70916e-05
5.97139e-06
8.99482e-09
-2.4241e-05
7.13754e-06
1.18711e-08
-3.25006e-05
8.24462e-06
1.50172e-08
-4.18108e-05
9.29176e-06
1.84101e-08
-5.21114e-05
1.02786e-05
2.20308e-08
-6.33425e-05
1.12052e-05
2.58665e-08
-7.54446e-05
1.20722e-05
2.9914e-08
-8.83594e-05
1.28806e-05
3.41816e-08
-0.00010203
1.36318e-05
3.86904e-08
-0.000116401
1.43275e-05
4.34754e-08
-0.000131419
1.49695e-05
4.85853e-08
-0.000147033
1.55603e-05
5.40809e-08
-0.000163196
1.61026e-05
6.0034e-08
-0.000179862
1.66e-05
6.65242e-08
-0.000196993
1.70573e-05
7.36366e-08
-0.000214556
1.74811e-05
8.14592e-08
-0.000232527
1.78808e-05
9.008e-08
-0.000250896
1.82695e-05
9.95858e-08
-0.000269671
1.86651e-05
1.10061e-07
-0.000288884
1.90911e-05
1.21588e-07
-0.000308595
1.95767e-05
1.34248e-07
-0.0003289
2.01568e-05
1.48123e-07
-0.000349933
2.08699e-05
1.63295e-07
-0.000371864
2.17513e-05
1.79849e-07
-0.000394894
2.28324e-05
1.9787e-07
2.41653e-05
2.17459e-07
-0.000419277
-7.43813e-07
1.49246e-06
-2.86497e-06
4.2552e-06
-6.31276e-06
6.91539e-06
-1.10345e-05
9.46919e-06
-1.6975e-05
1.19119e-05
-2.40773e-05
1.42398e-05
-3.22828e-05
1.64501e-05
-4.1532e-05
1.8541e-05
-5.17649e-05
2.05115e-05
-6.29215e-05
2.23618e-05
-7.49421e-05
2.40928e-05
-8.7768e-05
2.57066e-05
-0.000101342
2.72057e-05
-0.000115608
2.85933e-05
-0.000130511
2.98732e-05
-0.000146001
3.10499e-05
-0.000162027
3.21286e-05
-0.000178543
3.31163e-05
-0.000195508
3.40221e-05
-0.000212886
3.48587e-05
-0.000230649
3.56444e-05
-0.000248784
3.64047e-05
-0.000267294
3.71748e-05
-0.000286204
3.8001e-05
-0.000305569
3.89422e-05
-0.000325481
4.00686e-05
-0.000346069
4.14581e-05
-0.000367502
4.31838e-05
-0.00038998
4.53104e-05
4.79445e-05
-0.000413759
-7.32942e-07
2.2254e-06
-2.82412e-06
6.34638e-06
-6.2243e-06
1.03156e-05
-1.0882e-05
1.41269e-05
-1.67432e-05
1.77731e-05
-2.37516e-05
2.12482e-05
-3.18493e-05
2.45478e-05
-4.0977e-05
2.76687e-05
-5.10749e-05
3.06094e-05
-6.20827e-05
3.33696e-05
-7.39405e-05
3.59506e-05
-8.65889e-05
3.8355e-05
-9.99695e-05
4.05862e-05
-0.000114025
4.26488e-05
-0.0001287
4.4548e-05
-0.00014394
4.62897e-05
-0.000159692
4.78813e-05
-0.000175908
4.9332e-05
-0.00019254
5.06545e-05
-0.000209548
5.18665e-05
-0.000226897
5.29936e-05
-0.000244565
5.40724e-05
-0.000262544
5.51539e-05
-0.00028085
5.63064e-05
-0.000299525
5.76176e-05
-0.000318651
5.91941e-05
-0.000338348
6.11559e-05
-0.000358782
6.36178e-05
-0.000380154
6.66821e-05
7.05146e-05
-0.000402724
-7.16864e-07
2.94227e-06
-2.76366e-06
8.39318e-06
-6.09331e-06
1.36452e-05
-1.06562e-05
1.86898e-05
-1.63996e-05
2.35165e-05
-2.32685e-05
2.81171e-05
-3.12057e-05
3.2485e-05
-4.01526e-05
3.66155e-05
-5.00491e-05
4.05059e-05
-6.0835e-05
4.41554e-05
-7.24495e-05
4.75652e-05
-8.48325e-05
5.07379e-05
-9.79239e-05
5.36777e-05
-0.000111665
5.63896e-05
-0.000125997
5.88798e-05
-0.000140862
6.11553e-05
-0.000156205
6.32242e-05
-0.00017197
6.50973e-05
-0.000188105
6.67891e-05
-0.000204559
6.83207e-05
-0.000221289
6.9723e-05
-0.000238258
7.10413e-05
-0.000255444
7.23402e-05
-0.000272846
7.37082e-05
-0.000290489
7.52611e-05
-0.000308438
7.71428e-05
-0.000326801
7.9519e-05
-0.000345736
8.2553e-05
-0.000365446
8.63916e-05
9.12689e-05
-0.0003862
-6.95858e-07
3.63812e-06
-2.6846e-06
1.03819e-05
-5.92187e-06
1.68825e-05
-1.03603e-05
2.31282e-05
-1.59491e-05
2.91053e-05
-2.26345e-05
3.48026e-05
-3.03605e-05
4.0211e-05
-3.90686e-05
4.53237e-05
-4.86992e-05
5.01365e-05
-5.91914e-05
5.46476e-05
-7.04837e-05
5.88575e-05
-8.25143e-05
6.27686e-05
-9.52216e-05
6.63849e-05
-0.000108544
6.97119e-05
-0.000122419
7.27555e-05
-0.000136787
7.55227e-05
-0.000151584
7.80217e-05
-0.00016675
8.02631e-05
-0.000182222
8.22615e-05
-0.000197941
8.40389e-05
-0.000213847
8.5629e-05
-0.000229888
8.70827e-05
-0.000246023
8.84749e-05
-0.000262226
8.99115e-05
-0.0002785
9.15348e-05
-0.000294884
9.35271e-05
-0.00031147
9.61046e-05
-0.000328405
9.94879e-05
-0.000345893
0.00010388
0.000109597
-0.00036422
-6.70293e-07
4.30842e-06
-2.58826e-06
1.22999e-05
-5.71272e-06
2.00069e-05
-9.99893e-06
2.74144e-05
-1.53982e-05
3.45046e-05
-2.18584e-05
4.12628e-05
-2.93244e-05
4.76769e-05
-3.77383e-05
5.37376e-05
-4.70404e-05
5.94386e-05
-5.71691e-05
6.47763e-05
-6.80617e-05
6.97501e-05
-7.96549e-05
7.43617e-05
-9.18843e-05
7.86144e-05
-0.000104685
8.25127e-05
-0.000117992
8.60621e-05
-0.000131738
8.92684e-05
-0.000145854
9.21384e-05
-0.000160272
9.46805e-05
-0.000174918
9.69077e-05
-0.000189719
9.88399e-05
-0.0002046
0.00010051
-0.000219488
0.000101971
-0.000234316
0.000103303
-0.000249031
0.000104626
-0.000263602
0.000106106
-0.000278038
0.000107963
-0.000292404
0.000110471
-0.000306835
0.000113919
-0.000321536
0.00011858
0.000124877
-0.000336817
-6.40614e-07
4.94903e-06
-2.47624e-06
1.41355e-05
-5.46922e-06
2.29999e-05
-9.57761e-06
3.15228e-05
-1.4755e-05
3.9682e-05
-2.09508e-05
4.74586e-05
-2.81109e-05
5.4837e-05
-3.61778e-05
6.18045e-05
-4.50913e-05
6.83521e-05
-5.47891e-05
7.44741e-05
-6.5207e-05
8.0168e-05
-7.62792e-05
8.54339e-05
-8.79385e-05
9.02737e-05
-0.000100116
9.46905e-05
-0.000112742
9.86879e-05
-0.000125743
0.000102269
-0.000139043
0.000105439
-0.000152564
0.000108201
-0.00016622
0.000110564
-0.000179923
0.000112543
-0.000193579
0.000114166
-0.00020709
0.000115482
-0.00022036
0.000116573
-0.0002333
0.000117566
-0.000245841
0.000118647
-0.000257949
0.000120072
-0.000269656
0.000122177
-0.000281074
0.000125337
-0.00029241
0.000129917
0.000136474
-0.000304007
-6.07343e-07
5.55637e-06
-2.35043e-06
1.58786e-05
-5.19524e-06
2.58447e-05
-9.10275e-06
3.54303e-05
-1.40287e-05
4.4608e-05
-1.99242e-05
5.33541e-05
-2.67356e-05
6.16484e-05
-3.44057e-05
6.94746e-05
-4.28737e-05
7.68201e-05
-5.20761e-05
8.36764e-05
-6.19464e-05
9.00384e-05
-7.24162e-05
9.59037e-05
-8.34147e-05
0.000101272
-9.48687e-05
0.000106144
-0.000106702
0.000110521
-0.000118835
0.000114402
-0.000131183
0.000117787
-0.000143657
0.000120675
-0.000156158
0.000123065
-0.000168582
0.000124966
-0.000180811
0.000126395
-0.000192722
0.000127393
-0.000204185
0.000128036
-0.000215068
0.000128449
-0.000225255
0.000128833
-0.00023466
0.000129477
-0.000243265
0.000130782
-0.000251157
0.000133228
-0.000258537
0.000137297
0.000143716
-0.000265779
-5.71066e-07
6.12744e-06
-2.21292e-06
1.75205e-05
-4.89518e-06
2.8527e-05
-8.58159e-06
3.91167e-05
-1.32299e-05
4.92563e-05
-1.87924e-05
5.89165e-05
-2.52161e-05
6.80721e-05
-3.24433e-05
7.67018e-05
-4.04124e-05
8.47892e-05
-4.90577e-05
9.23218e-05
-5.83105e-05
9.92912e-05
-6.80988e-05
0.000105692
-7.83474e-05
0.000111521
-8.89779e-05
0.000116775
-9.99075e-05
0.000121451
-0.000111049
0.000125544
-0.000122308
0.000129046
-0.000133583
0.00013195
-0.000144762
0.000134244
-0.00015572
0.000135924
-0.00016632
0.000136994
-0.000176406
0.000137479
-0.00018581
0.00013744
-0.000194355
0.000136994
-0.000201866
0.000136344
-0.000208194
0.000135805
-0.000213257
0.000135845
-0.000217098
0.00013707
-0.00021991
0.000140108
0.000145885
-0.000222079
-5.32425e-07
6.65986e-06
-2.06603e-06
1.90541e-05
-4.57383e-06
3.10348e-05
-8.02204e-06
4.25649e-05
-1.23701e-05
5.36044e-05
-1.75709e-05
6.41174e-05
-2.35717e-05
7.40728e-05
-3.03139e-05
8.3444e-05
-3.77341e-05
9.22094e-05
-4.57645e-05
0.000100352
-5.43327e-05
0.000107859
-6.33627e-05
0.000114722
-7.27741e-05
0.000120932
-8.24821e-05
0.000126483
-9.23966e-05
0.000131365
-0.000102421
0.000135568
-0.000112451
0.000139076
-0.000122372
0.00014187
-0.000132056
0.000143928
-0.000141358
0.000145227
-0.000150117
0.000145753
-0.000158146
0.000145508
-0.000165235
0.00014453
-0.000171155
0.000142915
-0.000175666
0.000140855
-0.000178542
0.000138681
-0.000179617
0.000136921
-0.000178876
0.000136329
-0.000176485
0.000137717
0.0001422
-0.0001728
-4.92102e-07
7.15197e-06
-1.91222e-06
2.04742e-05
-4.2363e-06
3.33589e-05
-7.43253e-06
4.57611e-05
-1.14614e-05
5.76332e-05
-1.62761e-05
6.89321e-05
-2.1823e-05
7.96197e-05
-2.80422e-05
8.96632e-05
-3.48679e-05
9.90351e-05
-4.22288e-05
0.000107713
-5.00487e-05
0.000115679
-5.82461e-05
0.000122919
-6.67344e-05
0.000129421
-7.54215e-05
0.00013517
-8.42086e-05
0.000140152
-9.2989e-05
0.000144349
-0.000101646
0.000147734
-0.000110051
0.000150275
-0.000118059
0.000151936
-0.000125506
0.000152674
-0.000132201
0.000152449
-0.000137928
0.000151234
-0.000142432
0.000149034
-0.000145429
0.000145912
-0.000146606
0.000142032
-0.000145646
0.000137721
-0.000142282
0.000133556
-0.000136409
0.000130457
-0.00012818
0.000129488
0.000131805
-0.000117786
-4.50812e-07
7.60278e-06
-1.75403e-06
2.17774e-05
-3.8879e-06
3.54927e-05
-6.82184e-06
4.86951e-05
-1.05166e-05
6.1328e-05
-1.49249e-05
7.33404e-05
-1.99915e-05
8.46863e-05
-2.5654e-05
9.53258e-05
-3.18435e-05
0.000105225
-3.84845e-05
0.000114354
-4.54953e-05
0.00012269
-5.27882e-05
0.000130212
-6.02691e-05
0.000136902
-6.78372e-05
0.000142738
-7.53832e-05
0.000147699
-8.27889e-05
0.000151754
-8.9924e-05
0.000154869
-9.66436e-05
0.000156995
-0.000102784
0.000158077
-0.00010816
0.000158049
-0.000112553
0.000156842
-0.000115711
0.000154392
-0.000117338
0.000150661
-0.000117089
0.000145663
-0.000114575
0.000139518
-0.000109377
0.000132523
-0.0001011
0.000125279
-8.95038e-05
0.00011886
-7.48177e-05
0.000114802
0.000113981
-5.69931e-05
-4.09278e-07
8.01206e-06
-1.59407e-06
2.29622e-05
-3.53404e-06
3.74327e-05
-6.19887e-06
5.13599e-05
-9.54871e-06
6.46779e-05
-1.35346e-05
7.73262e-05
-1.80988e-05
8.92505e-05
-2.31756e-05
0.000100403
-2.86915e-05
0.00011074
-3.45656e-05
0.000120228
-4.07098e-05
0.000128834
-4.70286e-05
0.000136531
-5.34189e-05
0.000143292
-5.97693e-05
0.000149088
-6.59586e-05
0.000153888
-7.18545e-05
0.00015765
-7.7311e-05
0.000160325
-8.2165e-05
0.000161849
-8.62323e-05
0.000162144
-8.93018e-05
0.000161118
-9.11281e-05
0.000158668
-9.1423e-05
0.000154687
-8.98456e-05
0.000149084
-8.59922e-05
0.00014181
-7.93914e-05
0.000132917
-6.9516e-05
0.000122648
-5.58257e-05
0.000111589
-3.78309e-05
0.000100865
-1.53411e-05
9.23125e-05
8.98913e-05
8.74847e-06
-3.68222e-07
8.38028e-06
-1.43492e-06
2.40289e-05
-3.18004e-06
3.91778e-05
-5.57242e-06
5.37523e-05
-8.57038e-06
6.76758e-05
-1.21221e-05
8.0878e-05
-1.61664e-05
9.32948e-05
-2.06326e-05
0.000104869
-2.54415e-05
0.000115549
-3.05055e-05
0.000125292
-3.57285e-05
0.000134057
-4.10055e-05
0.000141808
-4.62226e-05
0.000148509
-5.12558e-05
0.000154121
-5.59695e-05
0.000158601
-6.02149e-05
0.000161896
-6.38272e-05
0.000163937
-6.66223e-05
0.000164644
-6.83917e-05
0.000163914
-6.8897e-05
0.000161623
-6.78611e-05
0.000157632
-6.49587e-05
0.000151785
-5.98029e-05
0.000143928
-5.19309e-05
0.000133938
-4.07909e-05
0.000121777
-2.57403e-05
0.000107597
-6.08213e-06
9.19305e-05
1.88224e-05
7.59606e-05
4.92296e-05
6.19053e-05
5.47834e-05
8.43375e-05
-3.28339e-07
8.70862e-06
-1.27904e-06
2.49796e-05
-2.83101e-06
4.07298e-05
-4.95088e-06
5.58722e-05
-7.59379e-06
7.03187e-05
-1.07038e-05
8.3988e-05
-1.42145e-05
9.68054e-05
-1.80492e-05
0.000108704
-2.21216e-05
0.000119622
-2.63355e-05
0.000129506
-3.0585e-05
0.000138307
-3.4754e-05
0.000145977
-3.87153e-05
0.00015247
-4.23299e-05
0.000157736
-4.54449e-05
0.000161717
-4.78918e-05
0.000164343
-4.94835e-05
0.000165529
-5.00104e-05
0.000165171
-4.92358e-05
0.000163139
-4.68892e-05
0.000159277
-4.26577e-05
0.000153401
-3.61751e-05
0.000145302
-2.70068e-05
0.00013476
-1.46309e-05
0.000121562
1.58292e-06
0.000105563
2.23901e-05
8.67902e-05
4.86612e-05
6.56595e-05
8.12535e-05
4.33682e-05
0.000120647
2.25116e-05
8.92048e-06
0.00016651
-2.90277e-07
8.9989e-06
-1.12873e-06
2.5818e-05
-2.49166e-06
4.20927e-05
-4.34195e-06
5.77225e-05
-6.63001e-06
7.26068e-05
-9.29423e-06
8.66522e-05
-1.22615e-05
9.97727e-05
-1.54474e-05
0.000111889
-1.87567e-05
0.000122931
-2.2083e-05
0.000132832
-2.53086e-05
0.000141532
-2.83038e-05
0.000148972
-3.09257e-05
0.000155092
-3.30172e-05
0.000159828
-3.44049e-05
0.000163104
-3.48965e-05
0.000164834
-3.42779e-05
0.000164911
-3.23091e-05
0.000163202
-2.87192e-05
0.000159549
-2.31994e-05
0.000153757
-1.53949e-05
0.000145596
-4.89284e-06
0.0001348
8.79344e-06
0.000121073
2.62459e-05
0.000104109
4.81698e-05
8.36392e-05
7.54268e-05
5.95332e-05
0.000109053
3.20331e-05
0.000150165
2.25652e-06
0.000199631
-2.69546e-05
-4.87913e-05
0.000257343
-2.54612e-07
9.25351e-06
-9.85998e-07
2.65494e-05
-2.16609e-06
4.32728e-05
-3.7523e-06
5.93087e-05
-5.68858e-06
7.45431e-05
-7.90591e-06
8.88695e-05
-1.03227e-05
0.000102189
-1.28452e-05
0.000114412
-1.53672e-05
0.000125453
-1.777e-05
0.000135235
-1.99218e-05
0.000143684
-2.16766e-05
0.000150727
-2.28731e-05
0.000156289
-2.33326e-05
0.000160287
-2.28568e-05
0.000162628
-2.12252e-05
0.000163203
-1.81912e-05
0.000161877
-1.34779e-05
0.000158489
-6.77287e-06
0.000152844
2.27852e-06
0.000144706
1.4082e-05
0.000133793
2.91052e-05
0.000119777
4.78941e-05
0.000102284
7.10943e-05
8.09091e-05
9.94837e-05
5.52498e-05
0.000134017
2.49998e-05
0.000175878
-9.828e-06
0.000226446
-4.83113e-05
0.000286995
-8.75036e-05
-0.0001197
0.000357904
-2.21823e-07
9.47533e-06
-8.52487e-07
2.71801e-05
-1.8576e-06
4.42779e-05
-3.1872e-06
6.06383e-05
-4.7769e-06
7.61328e-05
-6.54841e-06
9.0641e-05
-8.40983e-06
0.000104051
-1.02558e-05
0.000116258
-1.19672e-05
0.000127165
-1.34108e-05
0.000136679
-1.4438e-05
0.000144711
-1.48836e-05
0.000151173
-1.45643e-05
0.000155969
-1.32758e-05
0.000158999
-1.07906e-05
0.000160143
-6.85415e-06
0.000159266
-1.18096e-06
0.000156203
6.55005e-06
0.000150758
1.67013e-05
0.000142693
2.96835e-05
0.000131723
4.59633e-05
0.000117513
6.60748e-05
9.96655e-05
9.06331e-05
7.77262e-05
0.000120355
5.11872e-05
0.000156091
1.95141e-05
0.000198874
-1.77833e-05
0.000250002
-6.09565e-05
0.000311085
-0.000109394
0.000383797
-0.000160216
-0.000205206
0.000469304
-1.92263e-07
9.66759e-06
-7.2937e-07
2.77172e-05
-1.56848e-06
4.5117e-05
-2.65018e-06
6.172e-05
-3.89974e-06
7.73823e-05
-5.22754e-06
9.19688e-05
-6.52927e-06
0.000105353
-7.68587e-06
0.000117414
-8.56295e-06
0.000128042
-9.00996e-06
0.000137126
-8.8587e-06
0.00014456
-7.92158e-06
0.000150236
-5.98915e-06
0.000154037
-2.82726e-06
0.000155837
1.82645e-06
0.000155489
8.26661e-06
0.000152826
1.68248e-05
0.000147645
2.78747e-05
0.000139708
4.18387e-05
0.000128729
5.91941e-05
0.000114368
8.04813e-05
9.62256e-05
0.000106314
7.38333e-05
0.000137388
4.66518e-05
0.000174503
1.40722e-05
0.000218584
-2.45674e-05
0.000270732
-6.99311e-05
0.000332317
-0.000122541
0.000405108
-0.000182185
0.000491121
-0.00024623
-0.000306683
0.000592597
-1.66137e-07
9.83373e-06
-6.17252e-07
2.81683e-05
-1.29977e-06
4.57995e-05
-2.14264e-06
6.25628e-05
-3.05862e-06
7.82983e-05
-3.94458e-06
9.28548e-05
-4.68156e-06
0.00010609
-5.13439e-06
0.000117867
-5.15079e-06
0.000128058
-4.56008e-06
0.000136535
-3.17109e-06
0.000143171
-7.70018e-07
0.000147835
2.88294e-06
0.000150384
8.05705e-06
0.000150663
1.50553e-05
0.000148491
2.42194e-05
0.000143662
3.59349e-05
0.00013593
5.06376e-05
0.000125005
6.88198e-05
0.000110547
9.10373e-05
9.21506e-05
0.000117917
6.93458e-05
0.000150165
4.15857e-05
0.000188573
8.24316e-06
0.000234035
-3.13892e-05
0.000287557
-7.80892e-05
0.000350296
-0.00013267
0.000423649
-0.000195894
0.000509455
-0.000267991
0.000609931
-0.000346705
-0.000425361
0.000728609
-1.43472e-07
9.9772e-06
-5.16078e-07
2.85409e-05
-1.0511e-06
4.63346e-05
-1.66354e-06
6.31753e-05
-2.25134e-06
7.88861e-05
-2.69555e-06
9.3299e-05
-2.86012e-06
0.000106254
-2.5912e-06
0.000117598
-1.71561e-06
0.000127182
-3.93575e-08
0.000134859
2.65503e-06
0.000140477
6.6122e-06
0.000143877
1.21071e-05
0.000144889
1.94498e-05
0.00014332
2.89905e-05
0.000138951
4.11252e-05
0.000131527
5.63023e-05
0.000120753
7.5029e-05
0.000106279
9.78782e-05
8.76973e-05
0.000125496
6.4533e-05
0.000158607
3.62348e-05
0.000198022
2.17074e-06
0.000244641
-3.83759e-05
0.000299458
-8.62067e-05
0.000363568
-0.000142199
0.000438177
-0.000207279
0.000524664
-0.000282381
0.000624825
-0.000368152
0.000740882
-0.000462763
-0.000562196
0.000877717
-1.24097e-07
1.01013e-05
-4.25058e-07
2.88419e-05
-8.20507e-07
4.673e-05
-1.2091e-06
6.35639e-05
-1.47154e-06
7.91485e-05
-1.47059e-06
9.3298e-05
-1.05045e-06
0.000105834
-3.56185e-08
0.000116584
1.77052e-06
0.000125376
4.58932e-06
0.00013204
8.66919e-06
0.000136397
1.42897e-05
0.000138257
2.17664e-05
0.000137412
3.14564e-05
0.00013363
4.37643e-05
0.000126643
5.91485e-05
0.000116143
7.81288e-05
0.000101772
0.000101293
8.31141e-05
0.000129306
5.96849e-05
0.000162912
3.0927e-05
0.000202944
-3.79758e-06
0.000250326
-4.5211e-05
0.00030607
-9.41199e-05
0.000371275
-0.000151411
0.000447116
-0.000218041
0.000534838
-0.000295001
0.000635762
-0.000383305
0.000751518
-0.000483908
0.00088412
-0.000595364
-0.000717679
0.0010396
-1.07625e-07
1.02089e-05
-3.42602e-07
2.90769e-05
-6.04319e-07
4.69917e-05
-7.72579e-07
6.37321e-05
-7.08369e-07
7.90843e-05
-2.53453e-07
9.28431e-05
7.70363e-07
0.00010481
2.5632e-06
0.000114791
5.3496e-06
0.00012259
9.38141e-06
0.000128008
1.49423e-05
0.000130836
2.23523e-05
0.000130847
3.19739e-05
0.000127791
4.42176e-05
0.000121386
5.95498e-05
0.00011131
7.84998e-05
9.71929e-05
0.000101667
7.86047e-05
0.00012973
5.50512e-05
0.000163451
2.59639e-05
0.000203683
-9.30477e-06
0.000251371
-5.14856e-05
0.000307552
-0.000101392
0.000373347
-0.000159915
0.000449947
-0.000228012
0.00053859
-0.000306684
0.000640528
-0.000396938
0.000756982
-0.00049976
0.000889284
-0.000616209
0.00103907
-0.000745153
-0.000891619
0.00121301
-9.34449e-08
1.03024e-05
-2.66292e-07
2.92497e-05
-3.97076e-07
4.71225e-05
-3.44175e-07
6.36792e-05
5.38295e-08
7.86863e-05
9.78655e-07
9.19183e-05
2.63433e-06
0.000103155
5.249e-06
0.000112176
9.07837e-06
0.000118761
1.44097e-05
0.000122677
2.1567e-05
0.000123679
3.09165e-05
0.000121497
4.28734e-05
0.000115834
5.79096e-05
0.00010635
7.65606e-05
9.26594e-05
9.94344e-05
7.43191e-05
0.000127219
5.08203e-05
0.000160689
2.15814e-05
0.000200711
-1.40586e-05
0.000248249
-5.68423e-05
0.000304357
-0.000107594
0.000370178
-0.000167213
0.000446923
-0.00023666
0.000535845
-0.000316934
0.000638201
-0.00040904
0.000755195
-0.000513932
0.000887896
-0.000632461
0.00103719
-0.000765501
0.00120429
-0.00091226
-0.00108287
0.00139554
-8.07188e-08
1.03831e-05
-1.92875e-07
2.93619e-05
-1.91559e-07
4.71212e-05
8.89478e-08
6.33987e-05
8.34958e-07
7.79403e-05
2.25515e-06
9.04981e-05
4.58219e-06
0.000100828
8.07602e-06
0.000108682
1.30278e-05
0.000113809
1.97651e-05
0.00011594
2.86574e-05
0.000114786
4.01235e-05
0.000110031
5.46384e-05
0.000101319
7.27419e-05
8.82465e-05
9.50466e-05
7.03547e-05
0.000122246
4.71194e-05
0.000155123
1.79436e-05
0.000194553
-1.78486e-05
0.000241509
-6.10147e-05
0.000297059
-0.000112392
0.000362358
-0.000172893
0.00043863
-0.000243485
0.000527141
-0.000325171
0.000629156
-0.000418949
0.000745879
-0.000525763
0.00087838
-0.000646432
0.0010275
-0.000781581
0.00119352
-0.000931519
0.00137736
-0.0010961
-0.00128903
0.00158352
-6.83919e-08
1.04515e-05
-1.18294e-07
2.94118e-05
2.13666e-08
4.69815e-05
5.42504e-07
6.28776e-05
1.65985e-06
7.6823e-05
3.61167e-06
8.85463e-05
6.663e-06
9.77762e-05
1.11095e-05
0.000104236
1.72825e-05
0.000107636
2.55546e-05
0.000107667
3.63473e-05
0.000103994
5.01376e-05
9.6241e-05
6.74674e-05
8.39892e-05
8.89515e-05
6.67624e-05
0.000115286
4.40202e-05
0.000147256
1.51494e-05
0.000185742
-2.05419e-05
0.00023172
-6.38269e-05
0.000286264
-0.000115559
0.000350533
-0.000176662
0.000425758
-0.000248117
0.000513206
-0.000330933
0.000614144
-0.000426109
0.000729773
-0.000534577
0.000861148
-0.000657138
0.00100909
-0.00079437
0.00117409
-0.000946587
0.00135571
-0.00111314
0.00155483
-0.00129522
-0.00150618
0.00177198
-5.52318e-08
1.05067e-05
-3.78745e-08
2.93944e-05
2.51544e-07
4.66921e-05
1.03476e-06
6.20944e-05
2.55687e-06
7.53009e-05
5.08928e-06
8.60139e-05
8.9331e-06
9.39324e-05
1.4424e-05
9.87448e-05
2.19383e-05
0.000100122
3.18993e-05
9.77063e-05
4.4786e-05
9.11071e-05
6.11405e-05
7.98865e-05
8.15778e-05
6.35519e-05
0.000106794
4.15466e-05
0.000137573
1.32412e-05
0.000174794
-2.2072e-05
0.000219434
-6.51822e-05
0.000272565
-0.000116958
0.000335345
-0.000178339
0.000409001
-0.000250317
0.000494796
-0.000333912
0.000593988
-0.000430126
0.000707766
-0.000539888
0.000837171
-0.000663982
0.000982994
-0.000802961
0.00114566
-0.000957039
0.00132519
-0.00112612
0.00152037
-0.00130832
0.00173223
-0.00150708
-0.00172881
0.00195486
-3.98263e-08
1.05465e-05
5.37149e-08
2.93009e-05
5.11201e-07
4.62346e-05
1.58618e-06
6.10194e-05
3.55766e-06
7.33294e-05
6.73344e-06
8.28381e-05
1.14547e-05
8.92112e-05
1.81015e-05
9.2098e-05
2.71e-05
9.1123e-05
3.89301e-05
8.58762e-05
5.41338e-05
7.59033e-05
7.33247e-05
6.06956e-05
9.71959e-05
3.96807e-05
0.000126529
1.22138e-05
0.000162198
-2.24282e-05
0.000205176
-6.50497e-05
0.000256528
-0.000116534
0.000317404
-0.000177835
0.000389024
-0.000249958
0.000472638
-0.000333931
0.000569489
-0.000430764
0.000680748
-0.000541384
0.000807431
-0.000666571
0.000950307
-0.000806857
0.00110978
-0.000962433
0.00128576
-0.00113302
0.0014776
-0.00131795
0.00168343
-0.00151415
0.00190411
-0.00172775
-0.00194996
0.00212526
-2.06477e-08
1.05672e-05
1.62246e-07
2.9118e-05
8.12649e-07
4.55842e-05
2.21863e-06
5.96134e-05
4.69606e-06
7.0852e-05
8.59268e-06
7.89415e-05
1.42936e-05
8.35102e-05
2.22282e-05
8.41634e-05
3.28774e-05
8.04738e-05
4.67828e-05
7.19708e-05
6.45553e-05
5.81308e-05
8.68843e-05
3.83666e-05
0.000114545
1.20196e-05
0.000148407
-2.16475e-05
0.000189431
-6.3453e-05
0.000238676
-0.000114294
0.00029728
-0.000175138
0.000366447
-0.000247002
0.000447414
-0.000330925
0.000541402
-0.00042792
0.000649558
-0.00053892
0.00077287
-0.000664696
0.000912073
-0.000805774
0.00106754
-0.000962327
0.00123918
-0.00113407
0.00142633
-0.00132017
0.00162758
-0.0015192
0.00184074
-0.00172732
0.00206462
-0.00195163
-0.00216127
0.00227594
3.8937e-09
1.05633e-05
2.93699e-07
2.88282e-05
1.16892e-06
4.4709e-05
2.95477e-06
5.78276e-05
6.00699e-06
6.77997e-05
1.07168e-05
7.42316e-05
1.75175e-05
7.67095e-05
2.68919e-05
7.47891e-05
3.93808e-05
6.79848e-05
5.55924e-05
5.57592e-05
7.62109e-05
3.75123e-05
0.000102005
1.25728e-05
0.000133833
-1.98087e-05
0.000172649
-6.04628e-05
0.000219495
-0.000110299
0.000275497
-0.000170297
0.000341844
-0.000241485
0.000419752
-0.00032491
0.000510423
-0.000421595
0.000614975
-0.000532472
0.000734366
-0.000658311
0.000869296
-0.000799626
0.0010201
-0.000956578
0.00118665
-0.00112887
0.00136825
-0.00131568
0.00156363
-0.00151555
0.00177077
-0.00172634
0.00198783
-0.00194438
0.00220938
-0.00217318
-0.00235433
0.00240244
3.53875e-08
1.05279e-05
4.54035e-07
2.84095e-05
1.59302e-06
4.357e-05
3.81722e-06
5.56034e-05
7.52523e-06
6.40917e-05
1.31553e-05
6.86015e-05
2.11927e-05
6.86721e-05
3.21781e-05
6.38037e-05
4.67166e-05
5.34464e-05
6.54867e-05
3.69891e-05
8.92487e-05
1.37502e-05
0.000118851
-1.70298e-05
0.000155234
-5.61919e-05
0.000199428
-0.000104656
0.00025254
-0.000163412
0.000315742
-0.000233499
0.000390232
-0.000315974
0.000477189
-0.000411867
0.000577709
-0.000522115
0.000692721
-0.000647484
0.000822893
-0.000788483
0.000968524
-0.000945257
0.00112944
-0.00111749
0.0013049
-0.00130434
0.00149357
-0.00150434
0.00169351
-0.00171548
0.00190219
-0.00193502
0.00211802
-0.00216021
0.00233533
-0.00239048
-0.00259717
0.00257816
7.53838e-08
1.04525e-05
6.49061e-07
2.78358e-05
2.09757e-06
4.21215e-05
4.82782e-06
5.28731e-05
9.28416e-06
5.96354e-05
1.59552e-05
6.19305e-05
2.53819e-05
5.92454e-05
3.81665e-05
5.1019e-05
5.49818e-05
3.66311e-05
7.65791e-05
1.53918e-05
0.000103796
-1.34663e-05
0.000137557
-5.07917e-05
0.000178878
-9.75128e-05
0.000228851
-0.000154628
0.000288626
-0.000223187
0.000359384
-0.000304257
0.000442285
-0.000398875
0.000538405
-0.000507987
0.000648652
-0.000632362
0.000773671
-0.000772504
0.000913737
-0.000928549
0.00106865
-0.00110016
0.00123762
-0.00128647
0.00141927
-0.00148599
0.00161159
-0.00169665
0.00181202
-0.00191592
0.00201766
-0.00214067
0.00222602
-0.00236857
0.00243237
-0.00259684
-0.0028126
0.0026478
1.25326e-07
1.03272e-05
8.84194e-07
2.7077e-05
2.69429e-06
4.03114e-05
6.0068e-06
4.95606e-05
1.13145e-05
5.43277e-05
1.91594e-05
5.40856e-05
3.01414e-05
4.82634e-05
4.49272e-05
3.62332e-05
6.42593e-05
1.72991e-05
8.89625e-05
-9.31144e-06
0.000119948
-4.44521e-05
0.000158214
-8.90573e-05
0.000204834
-0.000144133
0.000260941
-0.000210736
0.000327698
-0.000289944
0.000406249
-0.000382807
0.000497653
-0.00049028
0.000602808
-0.000613142
0.000722348
-0.000751902
0.000856537
-0.000906694
0.00100516
-0.00107717
0.00116744
-0.00126244
0.00134195
-0.00146098
0.00152666
-0.0016707
0.00171895
-0.00188895
0.00191581
-0.00211278
0.00211405
-0.0023389
0.00231059
-0.00256511
0.0025018
-0.00278804
-0.00300206
0.00269126
1.86515e-07
1.01407e-05
1.1643e-06
2.60992e-05
3.39371e-06
3.8082e-05
7.37218e-06
4.55821e-05
1.36433e-05
4.80565e-05
2.28052e-05
4.49238e-05
3.55189e-05
3.55497e-05
5.25175e-05
1.92345e-05
7.46136e-05
-4.797e-06
0.000102703
-3.74011e-05
0.000137766
-7.95153e-05
0.000180859
-0.00013215
0.000233097
-0.000196371
0.000295626
-0.000273264
0.000369575
-0.000363893
0.000455996
-0.000469228
0.000555782
-0.000590065
0.000669568
-0.000726928
0.000797625
-0.000879959
0.000939751
-0.00104882
0.00109518
-0.0012326
0.0012625
-0.00142976
0.00143968
-0.00163817
0.00162412
-0.00185514
0.00181276
-0.00207759
0.00200234
-0.00230235
0.00218965
-0.00252622
0.00237169
-0.00274715
0.00254557
-0.00296192
-0.00316952
0.00271303
2.60075e-07
9.8806e-06
1.49359e-06
2.48657e-05
4.20481e-06
3.53708e-05
8.93918e-06
4.08478e-05
1.62931e-05
4.07026e-05
2.69225e-05
3.42943e-05
4.15514e-05
2.09209e-05
6.09793e-05
-1.93369e-07
8.60869e-05
-2.99046e-05
0.000117836
-6.91505e-05
0.000157265
-0.000118944
0.000205471
-0.000180356
0.000263584
-0.000254484
0.000332724
-0.000342404
0.000413937
-0.000445107
0.00050812
-0.000563411
0.000615921
-0.000697866
0.000737633
-0.000848639
0.000873083
-0.00101541
0.00102154
-0.00119728
0.00118164
-0.0013927
0.0013514
-0.00159952
0.00152822
-0.001815
0.00170911
-0.00203602
0.00189078
-0.00225927
0.00207002
-0.00248159
0.00224389
-0.00270009
0.00240988
-0.00291314
0.00256608
-0.00311811
-0.00331693
0.00271349
3.46939e-07
9.53367e-06
1.87549e-06
2.33371e-05
5.13487e-06
3.21114e-05
1.07199e-05
3.52628e-05
1.92811e-05
3.21413e-05
3.15334e-05
2.2042e-05
4.82636e-05
4.19065e-06
7.03364e-05
-2.22661e-05
9.86956e-05
-5.82638e-05
0.00013436
-0.000104815
0.00017841
-0.000162994
0.000231961
-0.000233907
0.000296123
-0.000318646
0.000371944
-0.000418225
0.00046033
-0.000533492
0.000561951
-0.000665033
0.000677137
-0.000813052
0.000805764
-0.000977266
0.000947157
-0.0011568
0.00110002
-0.00135014
0.00126243
-0.00155511
0.00143186
-0.00176895
0.00160534
-0.00198848
0.00177966
-0.00221033
0.0019516
-0.00243121
0.00211823
-0.00264822
0.00227718
-0.00285904
0.00242667
-0.00306264
0.00256579
-0.00325724
-0.00344664
0.0026955
4.4784e-07
9.08583e-06
2.31267e-06
2.14723e-05
6.18935e-06
2.82347e-05
1.27229e-05
2.87293e-05
2.26187e-05
2.22455e-05
3.66507e-05
8.01001e-06
5.56671e-05
-1.48257e-05
8.05933e-05
-4.71923e-05
0.000112429
-9.00992e-05
0.000152236
-0.000144622
0.000201116
-0.000211874
0.000260172
-0.000292963
0.000330454
-0.000388928
0.000412884
-0.000500655
0.000508165
-0.000628773
0.000616672
-0.00077354
0.000738347
-0.000934727
0.000872591
-0.00111151
0.0010182
-0.00130241
0.00117332
-0.00150526
0.00133553
-0.00171731
0.00150191
-0.00193534
0.00166931
-0.00215588
0.00183453
-0.00237555
0.00199466
-0.00259134
0.0021473
-0.00280086
0.0022908
-0.00300254
0.00242422
-0.00319605
0.00254755
-0.00338057
-0.003561
0.00266191
5.63321e-07
8.52251e-06
2.80701e-06
1.92286e-05
7.37185e-06
2.36699e-05
1.49533e-05
2.11478e-05
2.63116e-05
1.08872e-05
4.22781e-05
-7.95648e-06
6.3759e-05
-3.63066e-05
9.17337e-05
-7.51671e-05
0.000127246
-0.000125611
0.000171383
-0.000188759
0.000225241
-0.000265732
0.000289875
-0.000357597
0.000366227
-0.00046528
0.000455036
-0.000589464
0.000556736
-0.000730474
0.000671346
-0.00088815
0.000798362
-0.00106174
0.000936681
-0.00124983
0.00108457
-0.00145029
0.00123968
-0.00166038
0.00139922
-0.00187685
0.00156005
-0.00209617
0.00171903
-0.00231486
0.00187323
-0.00252976
0.00202025
-0.00273835
0.00215836
-0.00293897
0.00228669
-0.00313087
0.0024051
-0.00331446
0.00251433
-0.00348981
-0.00366232
0.00261566
6.93751e-07
7.82875e-06
3.35961e-06
1.65627e-05
8.68413e-06
1.83454e-05
1.74128e-05
1.24192e-05
3.03592e-05
-2.05918e-06
4.84093e-05
-2.60066e-05
7.25217e-05
-6.0419e-05
0.00010372
-0.000106365
0.000143077
-0.000164968
0.000191681
-0.000237363
0.000250592
-0.000324643
0.000320775
-0.000427779
0.00040301
-0.000547515
0.000497798
-0.000684252
0.000605244
-0.00083792
0.000724953
-0.00100786
0.000855944
-0.00119273
0.00099661
-0.00139049
0.00114473
-0.00159842
0.0012976
-0.00181325
0.00145215
-0.0020314
0.00160528
-0.00224929
0.00175404
-0.00246362
0.00189597
-0.0026717
0.00202932
-0.00287169
0.00215309
-0.00306274
0.00226714
-0.00324492
0.00237201
-0.00341933
0.00246898
-0.00358677
-0.00375277
0.00255943
8.39335e-07
6.98942e-06
3.97088e-06
1.34312e-05
1.01261e-05
1.21901e-05
2.00993e-05
2.44602e-06
3.47548e-05
-1.67146e-05
5.50284e-05
-4.62803e-05
8.19228e-05
-8.73134e-05
0.000116493
-0.000140936
0.00015982
-0.000208295
0.000212968
-0.000290511
0.000276922
-0.000388598
0.000352509
-0.000503367
0.000440299
-0.000635305
0.000540493
-0.000784446
0.000652818
-0.000950244
0.000776429
-0.00113147
0.000909864
-0.00132617
0.00105105
-0.00153168
0.00119737
-0.00174474