/*--------------------------------*- C++ -*----------------------------------*\
  =========                 |
  \\      /  F ield         | OpenFOAM: The Open Source CFD Toolbox
   \\    /   O peration     | Website:  https://openfoam.org
    \\  /    A nd           | Version:  7
     \\/     M anipulation  |
\*---------------------------------------------------------------------------*/
FoamFile
{
    version     2.0;
    format      ascii;
    class       volScalarField;
    location    "64";
    object      p;
}
// * * * * * * * * * * * * * * * * * * * * * * * * * * * * * * * * * * * * * //

dimensions      [0 2 -2 0 0 0 0];

internalField   nonuniform List<scalar> 
40000
(
-0.22643
-0.227305
-0.227963
-0.228503
-0.228988
-0.229423
-0.229813
-0.230166
-0.23049
-0.230793
-0.231079
-0.231352
-0.231615
-0.231869
-0.232112
-0.232346
-0.232567
-0.232772
-0.232959
-0.233125
-0.233267
-0.233381
-0.233466
-0.233521
-0.233547
-0.233543
-0.233516
-0.233467
-0.233399
-0.233332
-0.226301
-0.227172
-0.227828
-0.228365
-0.228848
-0.22928
-0.229666
-0.230015
-0.230335
-0.230632
-0.230912
-0.231177
-0.231431
-0.231674
-0.231907
-0.232127
-0.232333
-0.232522
-0.232691
-0.232836
-0.232955
-0.233044
-0.233101
-0.233125
-0.233117
-0.233078
-0.233012
-0.232922
-0.232808
-0.232699
-0.226275
-0.227138
-0.227786
-0.228317
-0.228795
-0.229221
-0.229601
-0.229943
-0.230256
-0.230545
-0.230816
-0.231072
-0.231315
-0.231547
-0.231766
-0.231971
-0.232161
-0.232331
-0.23248
-0.232602
-0.232696
-0.232757
-0.232783
-0.232774
-0.232728
-0.232649
-0.23254
-0.232406
-0.232241
-0.232086
-0.226351
-0.227199
-0.227837
-0.228359
-0.228827
-0.229245
-0.229616
-0.229949
-0.230252
-0.230532
-0.230792
-0.231036
-0.231267
-0.231485
-0.231689
-0.231878
-0.232049
-0.232199
-0.232326
-0.232424
-0.23249
-0.232521
-0.232514
-0.232467
-0.232381
-0.232257
-0.232102
-0.231919
-0.231697
-0.231493
-0.226527
-0.227355
-0.227978
-0.228487
-0.228944
-0.22935
-0.229709
-0.230032
-0.230323
-0.230591
-0.230838
-0.231069
-0.231285
-0.231487
-0.231674
-0.231845
-0.231997
-0.232125
-0.232228
-0.2323
-0.232337
-0.232335
-0.232292
-0.232205
-0.232074
-0.231903
-0.231697
-0.231461
-0.231176
-0.230919
-0.226801
-0.227604
-0.228208
-0.228701
-0.229143
-0.229534
-0.22988
-0.230189
-0.230467
-0.23072
-0.230952
-0.231168
-0.231367
-0.231552
-0.231721
-0.231872
-0.232002
-0.232107
-0.232184
-0.232228
-0.232234
-0.232197
-0.232115
-0.231985
-0.231807
-0.231583
-0.231322
-0.231029
-0.230676
-0.23036
-0.227167
-0.227941
-0.228522
-0.228997
-0.229421
-0.229796
-0.230126
-0.230418
-0.23068
-0.230917
-0.231132
-0.23133
-0.231511
-0.231677
-0.231825
-0.231955
-0.232062
-0.232142
-0.232192
-0.232206
-0.232179
-0.232106
-0.231983
-0.231807
-0.231577
-0.231297
-0.230976
-0.230621
-0.230194
-0.229812
-0.227623
-0.228362
-0.228918
-0.229371
-0.229775
-0.230131
-0.230442
-0.230716
-0.23096
-0.231178
-0.231374
-0.231553
-0.231714
-0.231858
-0.231984
-0.23209
-0.232173
-0.232227
-0.232249
-0.232231
-0.23217
-0.232058
-0.231891
-0.231667
-0.231382
-0.23104
-0.230655
-0.230234
-0.229726
-0.229267
-0.228161
-0.228863
-0.229391
-0.229821
-0.230202
-0.230536
-0.230827
-0.23108
-0.231303
-0.2315
-0.231675
-0.231832
-0.23197
-0.232092
-0.232194
-0.232275
-0.232331
-0.232358
-0.232349
-0.232299
-0.232202
-0.23205
-0.231838
-0.231562
-0.231219
-0.230812
-0.230355
-0.229863
-0.229269
-0.228714
-0.228778
-0.22944
-0.229937
-0.230341
-0.230698
-0.231008
-0.231275
-0.231505
-0.231705
-0.231879
-0.232031
-0.232163
-0.232277
-0.232373
-0.23245
-0.232504
-0.232533
-0.23253
-0.23249
-0.232406
-0.232271
-0.232078
-0.231819
-0.231489
-0.231085
-0.230608
-0.230074
-0.229505
-0.228819
-0.228138
-0.229467
-0.230087
-0.230552
-0.230927
-0.231257
-0.231542
-0.231783
-0.231988
-0.232162
-0.23231
-0.232436
-0.232542
-0.232629
-0.232698
-0.232747
-0.232773
-0.232772
-0.232738
-0.232666
-0.232547
-0.232374
-0.232138
-0.231831
-0.231445
-0.230977
-0.230425
-0.229807
-0.229155
-0.228376
-0.227507
-0.230222
-0.230798
-0.231229
-0.231576
-0.231877
-0.232133
-0.232347
-0.232524
-0.23267
-0.23279
-0.232887
-0.232964
-0.233022
-0.233061
-0.23308
-0.233075
-0.233043
-0.232977
-0.232871
-0.232717
-0.232505
-0.232225
-0.231869
-0.231427
-0.230892
-0.230262
-0.229551
-0.22881
-0.22795
-0.22675
-0.231039
-0.23157
-0.231967
-0.232282
-0.232553
-0.232779
-0.232963
-0.23311
-0.233225
-0.233314
-0.23338
-0.233425
-0.233451
-0.233458
-0.233444
-0.233406
-0.233341
-0.233241
-0.2331
-0.232909
-0.232658
-0.232335
-0.23193
-0.23143
-0.230828
-0.230115
-0.229306
-0.228471
-0.227555
-0.225857
-0.231911
-0.232398
-0.232759
-0.233042
-0.233281
-0.233475
-0.233626
-0.23374
-0.233823
-0.233877
-0.233909
-0.233919
-0.23391
-0.233882
-0.233833
-0.23376
-0.23366
-0.233525
-0.233347
-0.233119
-0.232828
-0.232462
-0.232007
-0.231451
-0.23078
-0.229984
-0.229074
-0.228119
-0.227033
-0.225294
-0.232835
-0.233278
-0.233602
-0.233852
-0.234058
-0.234218
-0.234334
-0.234413
-0.234459
-0.234477
-0.23447
-0.234442
-0.234395
-0.234329
-0.234242
-0.234131
-0.233993
-0.233821
-0.233606
-0.233339
-0.233008
-0.232599
-0.232096
-0.231484
-0.230746
-0.229866
-0.228853
-0.227772
-0.226482
-0.224634
-0.233806
-0.234206
-0.234494
-0.23471
-0.234881
-0.235004
-0.235084
-0.235124
-0.235131
-0.235108
-0.23506
-0.234991
-0.234902
-0.234793
-0.234665
-0.234514
-0.234336
-0.234124
-0.23387
-0.233564
-0.233192
-0.23274
-0.232191
-0.231524
-0.23072
-0.229758
-0.228639
-0.227428
-0.225943
-0.223828
-0.234822
-0.23518
-0.235432
-0.235614
-0.235748
-0.235833
-0.235873
-0.235872
-0.235835
-0.235768
-0.235675
-0.23556
-0.235425
-0.235272
-0.235098
-0.234903
-0.234682
-0.234428
-0.234133
-0.233786
-0.233373
-0.232879
-0.232283
-0.231564
-0.230698
-0.229655
-0.228429
-0.227085
-0.22541
-0.2229
-0.235881
-0.236198
-0.236415
-0.236562
-0.236658
-0.236703
-0.2367
-0.236654
-0.23657
-0.236455
-0.236312
-0.236148
-0.235963
-0.235759
-0.235537
-0.235295
-0.235027
-0.234728
-0.234389
-0.233999
-0.233544
-0.233007
-0.232366
-0.231597
-0.23067
-0.229551
-0.22822
-0.22674
-0.224885
-0.221851
-0.236982
-0.237262
-0.237444
-0.237554
-0.23761
-0.237612
-0.237563
-0.237469
-0.237335
-0.237167
-0.236971
-0.236751
-0.236512
-0.236254
-0.235979
-0.235684
-0.235366
-0.235018
-0.234633
-0.234198
-0.233699
-0.233118
-0.232432
-0.231613
-0.230629
-0.229438
-0.228004
-0.226387
-0.224373
-0.220681
-0.238127
-0.238371
-0.238518
-0.238591
-0.238606
-0.238563
-0.238465
-0.238318
-0.238128
-0.237903
-0.237648
-0.23737
-0.237071
-0.236754
-0.236421
-0.23607
-0.235697
-0.235297
-0.234861
-0.234378
-0.233832
-0.233205
-0.232472
-0.231604
-0.230564
-0.229304
-0.227774
-0.226019
-0.223885
-0.219396
-0.239318
-0.239528
-0.239641
-0.239675
-0.239647
-0.239555
-0.239404
-0.239201
-0.238952
-0.238664
-0.238346
-0.238003
-0.237639
-0.237258
-0.236862
-0.23645
-0.236018
-0.235561
-0.235071
-0.234535
-0.23394
-0.233264
-0.232482
-0.231563
-0.230466
-0.22914
-0.227517
-0.225622
-0.223423
-0.218014
-0.24056
-0.240738
-0.240816
-0.24081
-0.240736
-0.240592
-0.240385
-0.24012
-0.239807
-0.239453
-0.239065
-0.238652
-0.238218
-0.237768
-0.237304
-0.236825
-0.236329
-0.235811
-0.235262
-0.234671
-0.234021
-0.233292
-0.232457
-0.231483
-0.230327
-0.228934
-0.227223
-0.225178
-0.222985
-0.216564
-0.241859
-0.242006
-0.242048
-0.242001
-0.241877
-0.241679
-0.24141
-0.24108
-0.240697
-0.24027
-0.239808
-0.23932
-0.238811
-0.238286
-0.237748
-0.237198
-0.236634
-0.236049
-0.235437
-0.234784
-0.234076
-0.233289
-0.232397
-0.231364
-0.230143
-0.228679
-0.226883
-0.224676
-0.222555
-0.215091
-0.243223
-0.243339
-0.243344
-0.243253
-0.243077
-0.242819
-0.242485
-0.242084
-0.241626
-0.241121
-0.24058
-0.24001
-0.23942
-0.238816
-0.2382
-0.237573
-0.236935
-0.23628
-0.235599
-0.234881
-0.234109
-0.23326
-0.232304
-0.231205
-0.229914
-0.228372
-0.226491
-0.224109
-0.222108
-0.213658
-0.244662
-0.244745
-0.244713
-0.244575
-0.244342
-0.24402
-0.243616
-0.243139
-0.2426
-0.242012
-0.241385
-0.240729
-0.240053
-0.239363
-0.238664
-0.237956
-0.237239
-0.236509
-0.235755
-0.234967
-0.234126
-0.233208
-0.232184
-0.231013
-0.229643
-0.228016
-0.226047
-0.223485
-0.221612
-0.212342
-0.246186
-0.246236
-0.246162
-0.245973
-0.24568
-0.245289
-0.244809
-0.24425
-0.243626
-0.242948
-0.24223
-0.241483
-0.240715
-0.239935
-0.239148
-0.238355
-0.237556
-0.236745
-0.235914
-0.235051
-0.234135
-0.233144
-0.232043
-0.230792
-0.229337
-0.227617
-0.225551
-0.222825
-0.221026
-0.211239
-0.247808
-0.247823
-0.247703
-0.247459
-0.247101
-0.246635
-0.246073
-0.245427
-0.244711
-0.243938
-0.243124
-0.24228
-0.241417
-0.240542
-0.239662
-0.238779
-0.237893
-0.236998
-0.236085
-0.235141
-0.234146
-0.233074
-0.23189
-0.230551
-0.229002
-0.227181
-0.225002
-0.22215
-0.220275
-0.210384
-0.249544
-0.249517
-0.249348
-0.249043
-0.248613
-0.248067
-0.247417
-0.246678
-0.245864
-0.244992
-0.244076
-0.24313
-0.242166
-0.241193
-0.240216
-0.23924
-0.238262
-0.237279
-0.236279
-0.235249
-0.234168
-0.233007
-0.231731
-0.230296
-0.228646
-0.226722
-0.224412
-0.2215
-0.219235
-0.209653
-0.251407
-0.251333
-0.251108
-0.250736
-0.250229
-0.249596
-0.248852
-0.248013
-0.247096
-0.246118
-0.245096
-0.244044
-0.242975
-0.241899
-0.240822
-0.239748
-0.238675
-0.237599
-0.236507
-0.235384
-0.234208
-0.232949
-0.231571
-0.23003
-0.228274
-0.226252
-0.223828
-0.22098
-0.217932
-0.209245
-0.253414
-0.253285
-0.252997
-0.252552
-0.25196
-0.251233
-0.250389
-0.249444
-0.248418
-0.247329
-0.246195
-0.245033
-0.243855
-0.242672
-0.241492
-0.240316
-0.239144
-0.237969
-0.236778
-0.235555
-0.234273
-0.232904
-0.23141
-0.229749
-0.227876
-0.225761
-0.223271
-0.220667
-0.216929
-0.211401
-0.255581
-0.255388
-0.25503
-0.254503
-0.253818
-0.252991
-0.252038
-0.250981
-0.24984
-0.248635
-0.247386
-0.246109
-0.244819
-0.243526
-0.242238
-0.240956
-0.23968
-0.2384
-0.237102
-0.235766
-0.234366
-0.23287
-0.23124
-0.229439
-0.227429
-0.225202
-0.222658
-0.220283
-0.21676
-0.218932
-0.257925
-0.257658
-0.257219
-0.256603
-0.255817
-0.254881
-0.253813
-0.252638
-0.251376
-0.25005
-0.248681
-0.247285
-0.245878
-0.244472
-0.243072
-0.24168
-0.240293
-0.238899
-0.237483
-0.236021
-0.234485
-0.23284
-0.23105
-0.229081
-0.226901
-0.224521
-0.221883
-0.219466
-0.216225
-0.217656
-0.260463
-0.260109
-0.25958
-0.258864
-0.257969
-0.256916
-0.255727
-0.254426
-0.253038
-0.251586
-0.250092
-0.248574
-0.247047
-0.245523
-0.244006
-0.242498
-0.240992
-0.239474
-0.237926
-0.23632
-0.234625
-0.232805
-0.230824
-0.22865
-0.226262
-0.223673
-0.220856
-0.218191
-0.214869
-0.214697
-0.263211
-0.262757
-0.262126
-0.261302
-0.260289
-0.25911
-0.257791
-0.256359
-0.254839
-0.253256
-0.251633
-0.249988
-0.248338
-0.246691
-0.245053
-0.24342
-0.241784
-0.240128
-0.238429
-0.236657
-0.234776
-0.23275
-0.230542
-0.228126
-0.225484
-0.222633
-0.219561
-0.216542
-0.21296
-0.211436
-0.266186
-0.265617
-0.264873
-0.26393
-0.262788
-0.261475
-0.260019
-0.258449
-0.256791
-0.255073
-0.253317
-0.251542
-0.249763
-0.247988
-0.24622
-0.244453
-0.242673
-0.240862
-0.23899
-0.237023
-0.234925
-0.232657
-0.230187
-0.227489
-0.224553
-0.221396
-0.218016
-0.214603
-0.210703
-0.208072
-0.269403
-0.268703
-0.267833
-0.266761
-0.265481
-0.264025
-0.262425
-0.26071
-0.25891
-0.257051
-0.255157
-0.253247
-0.251334
-0.249424
-0.247516
-0.245601
-0.243661
-0.241671
-0.239599
-0.237407
-0.235056
-0.23251
-0.229738
-0.226722
-0.223458
-0.219966
-0.216249
-0.212447
-0.208222
-0.204793
-0.272876
-0.272029
-0.271021
-0.269807
-0.26838
-0.266773
-0.265021
-0.263155
-0.261207
-0.259203
-0.257167
-0.255116
-0.253062
-0.251007
-0.248946
-0.246867
-0.244744
-0.242549
-0.240245
-0.237791
-0.23515
-0.232287
-0.229179
-0.225815
-0.222198
-0.218355
-0.214293
-0.210125
-0.2056
-0.201599
-0.276618
-0.275607
-0.274448
-0.273083
-0.271498
-0.269731
-0.26782
-0.265798
-0.263696
-0.261542
-0.259358
-0.257159
-0.254955
-0.252743
-0.250514
-0.248248
-0.245916
-0.243484
-0.240911
-0.238158
-0.235187
-0.231972
-0.228497
-0.22476
-0.220776
-0.216575
-0.212176
-0.207675
-0.202881
-0.198477
-0.280642
-0.27945
-0.278126
-0.276598
-0.274847
-0.272912
-0.270836
-0.268651
-0.26639
-0.26408
-0.261741
-0.259387
-0.25702
-0.254635
-0.252216
-0.249738
-0.247165
-0.244459
-0.241578
-0.238485
-0.235148
-0.231547
-0.227679
-0.223553
-0.219195
-0.214642
-0.20992
-0.205118
-0.200086
-0.195391
-0.284958
-0.283567
-0.282065
-0.280365
-0.278437
-0.276328
-0.274079
-0.271726
-0.269301
-0.266828
-0.264327
-0.261805
-0.259261
-0.256683
-0.254049
-0.251325
-0.248474
-0.245454
-0.242224
-0.238751
-0.235011
-0.230998
-0.226717
-0.222194
-0.217462
-0.212566
-0.20754
-0.202465
-0.197222
-0.192306
-0.289575
-0.287968
-0.286276
-0.284393
-0.282281
-0.279989
-0.277562
-0.275035
-0.272438
-0.269796
-0.267121
-0.264418
-0.261678
-0.258882
-0.256
-0.252995
-0.249824
-0.246446
-0.242824
-0.238932
-0.234759
-0.23031
-0.225606
-0.220683
-0.215583
-0.210358
-0.205045
-0.199722
-0.194288
-0.189192
-0.294499
-0.292659
-0.290764
-0.288689
-0.286385
-0.283904
-0.281293
-0.278586
-0.275812
-0.27299
-0.270129
-0.267226
-0.264265
-0.26122
-0.258054
-0.254725
-0.25119
-0.247409
-0.243353
-0.239008
-0.234375
-0.229474
-0.224341
-0.219021
-0.213564
-0.208025
-0.202442
-0.19689
-0.191279
-0.186025
-0.299733
-0.297644
-0.295535
-0.29326
-0.290757
-0.288082
-0.285281
-0.282388
-0.279427
-0.276413
-0.273349
-0.270224
-0.267013
-0.263682
-0.26019
-0.256491
-0.252543
-0.248314
-0.243785
-0.238956
-0.233843
-0.228482
-0.222919
-0.217209
-0.211408
-0.205569
-0.199733
-0.193964
-0.188187
-0.182784
-0.305279
-0.302925
-0.300592
-0.29811
-0.295402
-0.292526
-0.28953
-0.286443
-0.283286
-0.280066
-0.276777
-0.273401
-0.269904
-0.266246
-0.262379
-0.25826
-0.253852
-0.249132
-0.244095
-0.238756
-0.23315
-0.227325
-0.221337
-0.215248
-0.209115
-0.202991
-0.196914
-0.19094
-0.185003
-0.179456
-0.311134
-0.3085
-0.305934
-0.303238
-0.300321
-0.29724
-0.294043
-0.290753
-0.287386
-0.28394
-0.280402
-0.27674
-0.272916
-0.268882
-0.264591
-0.260001
-0.255084
-0.249833
-0.244258
-0.238392
-0.232285
-0.225997
-0.219593
-0.213137
-0.206686
-0.200289
-0.193983
-0.187812
-0.181721
-0.176028
-0.317291
-0.314364
-0.311557
-0.308643
-0.305512
-0.302222
-0.298816
-0.295314
-0.29172
-0.288025
-0.284205
-0.280219
-0.27602
-0.271558
-0.266788
-0.261675
-0.256205
-0.250387
-0.244251
-0.237846
-0.231236
-0.224492
-0.217683
-0.210873
-0.204117
-0.19746
-0.190933
-0.184572
-0.178331
-0.172492
-0.323737
-0.320507
-0.317453
-0.314317
-0.310969
-0.307464
-0.303842
-0.300114
-0.296274
-0.292302
-0.288161
-0.283805
-0.279179
-0.274234
-0.268929
-0.263244
-0.257181
-0.250768
-0.244053
-0.237103
-0.229994
-0.222803
-0.215601
-0.208451
-0.201403
-0.194496
-0.187757
-0.181213
-0.174825
-0.168839
-0.330457
-0.326914
-0.323608
-0.320249
-0.31668
-0.312956
-0.309108
-0.305137
-0.301026
-0.296742
-0.292239
-0.287461
-0.282352
-0.276866
-0.270973
-0.26467
-0.257978
-0.250946
-0.243643
-0.236148
-0.228547
-0.220921
-0.213341
-0.205864
-0.198537
-0.191391
-0.184447
-0.177724
-0.171193
-0.165061
-0.337427
-0.333563
-0.330004
-0.32642
-0.322629
-0.318679
-0.314593
-0.31036
-0.305948
-0.301313
-0.296398
-0.291142
-0.285491
-0.279406
-0.272874
-0.265912
-0.258563
-0.250898
-0.243001
-0.234967
-0.226886
-0.21884
-0.210895
-0.203106
-0.19551
-0.188133
-0.180993
-0.174098
-0.167428
-0.161151
-0.344617
-0.34043
-0.336616
-0.332807
-0.328792
-0.324609
-0.320271
-0.315751
-0.311004
-0.305972
-0.300591
-0.294797
-0.288543
-0.281804
-0.274587
-0.266931
-0.258904
-0.250597
-0.24211
-0.233547
-0.224999
-0.216547
-0.208253
-0.200164
-0.192311
-0.184714
-0.177384
-0.170323
-0.16352
-0.157101
-0.351994
-0.34748
-0.343413
-0.339381
-0.335139
-0.330714
-0.326106
-0.32127
-0.316147
-0.310668
-0.304763
-0.298371
-0.291455
-0.28401
-0.276066
-0.267688
-0.25897
-0.25002
-0.240951
-0.231871
-0.222873
-0.214032
-0.205405
-0.197029
-0.188931
-0.181123
-0.17361
-0.166392
-0.15946
-0.152905
-0.359512
-0.354674
-0.350358
-0.346105
-0.341632
-0.336955
-0.332054
-0.326869
-0.321326
-0.315345
-0.308854
-0.301802
-0.294168
-0.285969
-0.277265
-0.268148
-0.258733
-0.249145
-0.239506
-0.229927
-0.220496
-0.211283
-0.202337
-0.193689
-0.185356
-0.177347
-0.169661
-0.162293
-0.155239
-0.148553
-0.367122
-0.361965
-0.357405
-0.352933
-0.348226
-0.343282
-0.338064
-0.332492
-0.326478
-0.319937
-0.3128
-0.305028
-0.296623
-0.287632
-0.278142
-0.268274
-0.258164
-0.247949
-0.237757
-0.227697
-0.217852
-0.208285
-0.199036
-0.190129
-0.181574
-0.173375
-0.165525
-0.158016
-0.150849
-0.144039
-0.374765
-0.369297
-0.364501
-0.359814
-0.354868
-0.349641
-0.344076
-0.338075
-0.331537
-0.324376
-0.31653
-0.307982
-0.298761
-0.288945
-0.278654
-0.268033
-0.257236
-0.24641
-0.235685
-0.225165
-0.214927
-0.205024
-0.195489
-0.186337
-0.177573
-0.169194
-0.161192
-0.153553
-0.14628
-0.139356
-0.382379
-0.376611
-0.371588
-0.366687
-0.361496
-0.355967
-0.350022
-0.343545
-0.336428
-0.328586
-0.319974
-0.310599
-0.300524
-0.289861
-0.278761
-0.267392
-0.255923
-0.244507
-0.233272
-0.222315
-0.211705
-0.201485
-0.19168
-0.182299
-0.173339
-0.164794
-0.15665
-0.148893
-0.141524
-0.134497
-0.389889
-0.383837
-0.378597
-0.373487
-0.368041
-0.362188
-0.355827
-0.348826
-0.341072
-0.332491
-0.323058
-0.312813
-0.301854
-0.290331
-0.278423
-0.26632
-0.2542
-0.242219
-0.230498
-0.219128
-0.208168
-0.197652
-0.187596
-0.178001
-0.16886
-0.160162
-0.15189
-0.144027
-0.136573
-0.129454
-0.397218
-0.390899
-0.385455
-0.380137
-0.374427
-0.368225
-0.361408
-0.353833
-0.345387
-0.33601
-0.325708
-0.314558
-0.302697
-0.29031
-0.277605
-0.264787
-0.252042
-0.239523
-0.227345
-0.215588
-0.204301
-0.193509
-0.18322
-0.173428
-0.164123
-0.155287
-0.146901
-0.138947
-0.131418
-0.124223
-0.40428
-0.397717
-0.392081
-0.386558
-0.380571
-0.373993
-0.366679
-0.358479
-0.349286
-0.339063
-0.327853
-0.315771
-0.302999
-0.289755
-0.276271
-0.262765
-0.249425
-0.236399
-0.223793
-0.211676
-0.200087
-0.189041
-0.178538
-0.168568
-0.159115
-0.150157
-0.141673
-0.133643
-0.126054
-0.118797
-0.410987
-0.404203
-0.39839
-0.392661
-0.386385
-0.379401
-0.371549
-0.362673
-0.352683
-0.341571
-0.329421
-0.316393
-0.302711
-0.288626
-0.274389
-0.260227
-0.246325
-0.232826
-0.219823
-0.207374
-0.195508
-0.184231
-0.173536
-0.163408
-0.153825
-0.144763
-0.136197
-0.128108
-0.120472
-0.113173
-0.417243
-0.410265
-0.404289
-0.398356
-0.391774
-0.384354
-0.375922
-0.366324
-0.355492
-0.343455
-0.330344
-0.316367
-0.301787
-0.286885
-0.271928
-0.257146
-0.242721
-0.228783
-0.215416
-0.202665
-0.190549
-0.179065
-0.1682
-0.157934
-0.148241
-0.139094
-0.130465
-0.122335
-0.114668
-0.107345
-0.42295
-0.415807
-0.409683
-0.403545
-0.396642
-0.388756
-0.379703
-0.369341
-0.357628
-0.344641
-0.330559
-0.315639
-0.300183
-0.284497
-0.268858
-0.253498
-0.238589
-0.224251
-0.210554
-0.197532
-0.185193
-0.173528
-0.162517
-0.152135
-0.142353
-0.133141
-0.124468
-0.116315
-0.108635
-0.10131
-0.428009
-0.420732
-0.414475
-0.40813
-0.400889
-0.392507
-0.382797
-0.371632
-0.35901
-0.345057
-0.330005
-0.314161
-0.29786
-0.281429
-0.265153
-0.249259
-0.23391
-0.219211
-0.20522
-0.191959
-0.179427
-0.167607
-0.156475
-0.146001
-0.136151
-0.126895
-0.118198
-0.110042
-0.102366
-0.095061
-0.432318
-0.42494
-0.418565
-0.412012
-0.404415
-0.395509
-0.385107
-0.37311
-0.359559
-0.344636
-0.328627
-0.311886
-0.29478
-0.277652
-0.260789
-0.244409
-0.228665
-0.213646
-0.199397
-0.185931
-0.173236
-0.16129
-0.150063
-0.13952
-0.129627
-0.120348
-0.111649
-0.10351
-0.0958568
-0.0885945
-0.435777
-0.428329
-0.421853
-0.415089
-0.407121
-0.397665
-0.386544
-0.373692
-0.359203
-0.343316
-0.326375
-0.308775
-0.290912
-0.273139
-0.255742
-0.238928
-0.222835
-0.207539
-0.193071
-0.179434
-0.166609
-0.154566
-0.14327
-0.132685
-0.122772
-0.113493
-0.104814
-0.0967125
-0.089103
-0.0819075
-0.438284
-0.430803
-0.424239
-0.417263
-0.408909
-0.398881
-0.38702
-0.3733
-0.357873
-0.341042
-0.323203
-0.304792
-0.286227
-0.267867
-0.249992
-0.232797
-0.216404
-0.200875
-0.186229
-0.172457
-0.159534
-0.147424
-0.136089
-0.125487
-0.115579
-0.106324
-0.0976871
-0.0896447
-0.0821019
-0.0750003
-0.439745
-0.432264
-0.425628
-0.418437
-0.409685
-0.399068
-0.386452
-0.371861
-0.35551
-0.337763
-0.319072
-0.299906
-0.2807
-0.261815
-0.243522
-0.226001
-0.209359
-0.193642
-0.178858
-0.16499
-0.152003
-0.139858
-0.128512
-0.117921
-0.108043
-0.0988345
-0.0902607
-0.0822983
-0.074848
-0.0678685
-0.440066
-0.432619
-0.425925
-0.41852
-0.409359
-0.398141
-0.384765
-0.36931
-0.352059
-0.333438
-0.313947
-0.294089
-0.27431
-0.254966
-0.236317
-0.218527
-0.201687
-0.185829
-0.17095
-0.157023
-0.144008
-0.131861
-0.120535
-0.109983
-0.10016
-0.0910207
-0.0825283
-0.074662
-0.0673243
-0.0604798
-0.439159
-0.431781
-0.425045
-0.417424
-0.407849
-0.396024
-0.38189
-0.36559
-0.347473
-0.328028
-0.307802
-0.287322
-0.267039
-0.247305
-0.228364
-0.210365
-0.193379
-0.177428
-0.162497
-0.148551
-0.135545
-0.123429
-0.112154
-0.10167
-0.0919284
-0.0828817
-0.0744894
-0.0667332
-0.0595084
-0.0527513
-0.436944
-0.429668
-0.422904
-0.41507
-0.405078
-0.392648
-0.377769
-0.360651
-0.341713
-0.321506
-0.300614
-0.279586
-0.258875
-0.238822
-0.219656
-0.201505
-0.184429
-0.168433
-0.153494
-0.13957
-0.126609
-0.11456
-0.103368
-0.0929817
-0.08335
-0.0744207
-0.0661532
-0.0585329
-0.0514169
-0.0446024
-0.433348
-0.426205
-0.419429
-0.411386
-0.400979
-0.387953
-0.37235
-0.354452
-0.334749
-0.313847
-0.292367
-0.27087
-0.249809
-0.229511
-0.210185
-0.191944
-0.174831
-0.158841
-0.143939
-0.130078
-0.117202
-0.105254
-0.0941783
-0.0839204
-0.0744264
-0.0656414
-0.0575298
-0.0500822
-0.0431121
-0.0361814
-0.428304
-0.421328
-0.414553
-0.406307
-0.395493
-0.381886
-0.36559
-0.346961
-0.326557
-0.305036
-0.283049
-0.261168
-0.239836
-0.219366
-0.199949
-0.18168
-0.164586
-0.14865
-0.133832
-0.120076
-0.107323
-0.095513
-0.0845873
-0.0744891
-0.0651617
-0.0565483
-0.0486239
-0.0413556
-0.0344618
-0.0278455
-0.421758
-0.414978
-0.40822
-0.39978
-0.388571
-0.374407
-0.357458
-0.338154
-0.317121
-0.295063
-0.272658
-0.250477
-0.228957
-0.20839
-0.18895
-0.170713
-0.153693
-0.137864
-0.123175
-0.109567
-0.0969766
-0.0853415
-0.0745998
-0.0646934
-0.055563
-0.0471526
-0.0394356
-0.0323616
-0.0256151
-0.0193437
-0.413664
-0.407107
-0.400382
-0.39176
-0.380175
-0.365485
-0.34793
-0.328017
-0.306434
-0.283928
-0.261193
-0.238801
-0.217174
-0.196587
-0.177191
-0.159049
-0.142159
-0.126486
-0.111973
-0.0985562
-0.0861685
-0.0747463
-0.0642231
-0.05454
-0.0456364
-0.0374567
-0.0299728
-0.0231199
-0.0165704
-0.0106248
-0.403986
-0.397681
-0.391005
-0.382215
-0.370276
-0.355099
-0.336995
-0.316545
-0.294497
-0.271634
-0.248663
-0.226148
-0.204497
-0.183964
-0.164681
-0.146694
-0.12999
-0.114524
-0.100234
-0.0870535
-0.0749087
-0.0637346
-0.0534648
-0.0440374
-0.0353907
-0.0274689
-0.0202446
-0.013641
-0.00731678
-0.00168722
-0.3927
-0.386671
-0.38006
-0.371121
-0.358858
-0.343238
-0.324648
-0.303741
-0.281318
-0.258193
-0.235079
-0.212531
-0.190939
-0.170534
-0.151432
-0.133661
-0.117198
-0.101991
-0.0879712
-0.0750673
-0.0632059
-0.0523176
-0.0423355
-0.0331959
-0.0248357
-0.0171993
-0.0102606
-0.00393159
0.00214801
0.00745634
-0.379791
-0.374063
-0.367535
-0.358467
-0.345913
-0.329903
-0.310896
-0.289616
-0.266912
-0.243622
-0.220459
-0.197968
-0.176516
-0.156314
-0.137458
-0.119964
-0.103798
-0.088899
-0.0751955
-0.0626119
-0.0510734
-0.040508
-0.0308477
-0.0220275
-0.0139831
-0.00665925
-3.15995e-05
0.00600022
0.011818
0.0167932
-0.365259
-0.359852
-0.353426
-0.344252
-0.331447
-0.315103
-0.295755
-0.27419
-0.251302
-0.227945
-0.204829
-0.182482
-0.16125
-0.141323
-0.12278
-0.105622
-0.0898056
-0.0752648
-0.0619233
-0.0497027
-0.0385263
-0.0283204
-0.0190159
-0.0105465
-0.00284667
0.00413799
0.01043
0.0161435
0.0216825
0.0263102
-0.349111
-0.344047
-0.33774
-0.328489
-0.315475
-0.298859
-0.279249
-0.257492
-0.234518
-0.211191
-0.188216
-0.1661
-0.145166
-0.125586
-0.107419
-0.0906548
-0.0752417
-0.0611079
-0.0481735
-0.0363577
-0.025582
-0.0157717
-0.00685626
0.00123159
0.00855831
0.0151775
0.02111
0.0264849
0.0317277
0.0359931
-0.331368
-0.326665
-0.320497
-0.311197
-0.298022
-0.281201
-0.261411
-0.239556
-0.216595
-0.193398
-0.170654
-0.148853
-0.128295
-0.10913
-0.0914017
-0.0750879
-0.0601297
-0.0464504
-0.0339671
-0.022597
-0.0122601
-0.00288056
0.00561307
0.013289
0.0202147
0.0264425
0.0319921
0.0370082
0.0419373
0.0458258
-0.312061
-0.307735
-0.301726
-0.29241
-0.279125
-0.262168
-0.242284
-0.220426
-0.197579
-0.174604
-0.152181
-0.130779
-0.110671
-0.0919872
-0.0747575
-0.058949
-0.0444959
-0.0313173
-0.0193279
-0.00844318
0.00141802
0.0103325
0.0183723
0.0256066
0.0321036
0.0379145
0.0430581
0.0476954
0.0522924
0.0557905
-0.291232
-0.287298
-0.281469
-0.27217
-0.258827
-0.241808
-0.221918
-0.200158
-0.177516
-0.15485
-0.132842
-0.111916
-0.0923297
-0.0741923
-0.0575194
-0.0422689
-0.0283692
-0.0157361
-0.00428183
0.00607918
0.015429
0.023845
0.0313999
0.0381637
0.044205
0.0495736
0.0542881
0.0585261
0.0627712
0.0658649
-0.268932
-0.265403
-0.259774
-0.250529
-0.237185
-0.220179
-0.200377
-0.178813
-0.156432
-0.134198
-0.112684
-0.0923117
-0.0733145
-0.0557844
-0.0397235
-0.0250815
-0.0117817
0.000263447
0.0111429
0.0209435
0.0297476
0.0376333
0.0446733
0.0509383
0.0564972
0.0613983
0.0656605
0.0694779
0.0733482
0.0760192
-0.245223
-0.242109
-0.236702
-0.227548
-0.214262
-0.197348
-0.177716
-0.156396
-0.134448
-0.112701
-0.0917594
-0.0720131
-0.0536701
-0.0368055
-0.0214093
-0.00742369
0.00523244
0.0166489
0.026916
0.0361212
0.0443472
0.051672
0.0581686
0.0639077
0.0689581
0.0733665
0.077153
0.0805264
0.0839931
0.0862175
-0.220178
-0.217485
-0.212322
-0.203299
-0.190132
-0.173378
-0.153977
-0.133049
-0.111588
-0.0904181
-0.0701255
-0.0510729
-0.0334451
-0.0173006
-0.00261866
0.0106653
0.0226362
0.0333857
0.0430051
0.0515821
0.0591994
0.0659347
0.0718608
0.0770482
0.0815651
0.085456
0.0887426
0.0916461
0.0946742
0.096429
-0.193874
-0.191606
-0.18671
-0.17786
-0.164863
-0.148329
-0.129286
-0.108816
-0.087924
-0.0674131
-0.0478417
-0.0295466
-0.0126911
0.002682
0.0166034
0.0291435
0.0403904
0.0504373
0.0593761
0.0672943
0.0742745
0.0803938
0.0857244
0.0903364
0.0942959
0.097645
0.100408
0.102815
0.105367
0.10663
-0.166385
-0.164563
-0.159951
-0.151309
-0.138533
-0.122323
-0.103701
-0.0837726
-0.0635314
-0.0437541
-0.024971
-0.00749303
0.00853731
0.0230915
0.0362093
0.0479665
0.0584536
0.067765
0.0759928
0.0832243
0.0895415
0.0950207
0.0997333
0.103748
0.107128
0.109912
0.112128
0.114019
0.116054
0.116758
-0.137782
-0.136458
-0.13214
-0.123735
-0.111257
-0.0954306
-0.0773092
-0.0580021
-0.038487
-0.0195125
-0.00157972
0.0150263
0.0301827
0.0438744
0.0561494
0.0670878
0.0767824
0.0853282
0.0928175
0.099337
0.104968
0.109786
0.113861
0.117259
0.120039
0.122236
0.123891
0.125248
0.126686
0.126653
-0.108148
-0.107428
-0.103368
-0.0952463
-0.0831205
-0.0677461
-0.0502
-0.0315894
-0.0128707
0.00523716
0.022263
0.0379471
0.0521853
0.064975
0.0763715
0.0864588
0.0953313
0.103085
0.109811
0.115596
0.120521
0.124659
0.12808
0.130847
0.133011
0.134605
0.135692
0.136485
0.13715
0.136144
-0.0777295
-0.0774685
-0.073745
-0.0659473
-0.0542242
-0.0393676
-0.0224675
-0.00462287
0.0132348
0.0304178
0.0464855
0.0612027
0.0744831
0.0863354
0.0968216
0.106029
0.114053
0.12099
0.126932
0.131963
0.136164
0.139608
0.142362
0.144487
0.146026
0.147019
0.147552
0.147738
0.147387
0.145278
-0.0465638
-0.0467355
-0.043381
-0.0359442
-0.0246741
-0.0103969
0.00579154
0.0228064
0.0397441
0.0559501
0.0710139
0.0847243
0.097012
0.107896
0.117444
0.125746
0.1329
0.139
0.144138
0.148399
0.151862
0.154599
0.156677
0.158153
0.159068
0.159481
0.159496
0.159063
0.15762
0.154606
-0.0147401
-0.0153622
-0.0123897
-0.0053473
0.00542112
0.0190613
0.0344778
0.0506049
0.0665701
0.0817527
0.0957726
0.108442
0.119706
0.129595
0.138181
0.145557
0.15182
0.157066
0.161386
0.164863
0.167576
0.169596
0.17099
0.171812
0.172109
0.17196
0.171476
0.170403
0.167938
0.166205
0.0176164
0.0165345
0.0191128
0.0257288
0.0359498
0.0488999
0.0634898
0.0786773
0.0936235
0.107743
0.120684
0.132283
0.142499
0.151371
0.158975
0.165407
0.170764
0.175142
0.17863
0.181312
0.183265
0.184561
0.185265
0.18543
0.185108
0.184391
0.183359
0.181687
0.178888
0.177836
0.0503793
0.0488348
0.0510064
0.0571664
0.066798
0.0790099
0.0927244
0.106927
0.120814
0.133836
0.145671
0.156174
0.165322
0.173159
0.179766
0.18524
0.189679
0.193177
0.195824
0.197703
0.19889
0.199455
0.199464
0.198969
0.198028
0.196732
0.195131
0.192907
0.189831
0.188727
0.0834219
0.0814154
0.083169
0.0888459
0.0978501
0.109281
0.122077
0.135256
0.148051
0.159947
0.170653
0.180043
0.188106
0.194895
0.200494
0.205
0.208511
0.211123
0.212923
0.213993
0.214409
0.21424
0.213551
0.212395
0.210831
0.208948
0.206779
0.204045
0.200662
0.199228
0.116617
0.114151
0.115477
0.120646
0.12899
0.139602
0.151444
0.163566
0.175242
0.185992
0.195551
0.203814
0.210782
0.216514
0.221097
0.224629
0.227209
0.22893
0.229879
0.230138
0.229781
0.228876
0.227488
0.225669
0.223481
0.221006
0.218269
0.215026
0.211272
0.209406
0.149836
0.146915
0.147805
0.152446
0.160099
0.169861
0.180719
0.191759
0.202295
0.211883
0.220284
0.227413
0.233281
0.237951
0.241516
0.244072
0.245719
0.246548
0.246646
0.246094
0.244964
0.243325
0.241238
0.238758
0.235945
0.232876
0.229572
0.225815
0.221651
0.219305
0.182951
0.17958
0.180027
0.184122
0.191061
0.199948
0.209798
0.219737
0.22912
0.237536
0.244775
0.250766
0.255532
0.259142
0.261688
0.263271
0.263987
0.263927
0.263177
0.261817
0.259918
0.257547
0.254766
0.251627
0.24819
0.244529
0.240659
0.236383
0.231786
0.228936
0.215833
0.212019
0.21202
0.215554
0.22176
0.229751
0.238576
0.247403
0.255624
0.262866
0.268942
0.273798
0.277466
0.28002
0.281555
0.28217
0.28196
0.281018
0.279426
0.277264
0.274602
0.271506
0.268035
0.264242
0.260186
0.255935
0.251503
0.246707
0.241667
0.2383
0.248354
0.244107
0.243659
0.246622
0.25208
0.259162
0.266952
0.274659
0.281719
0.287789
0.292708
0.296437
0.299016
0.300524
0.301056
0.300712
0.299587
0.297771
0.295347
0.292392
0.288976
0.285163
0.281011
0.276572
0.271902
0.267068
0.262078
0.256767
0.25128
0.247389
0.28039
0.275718