/*--------------------------------*- C++ -*----------------------------------*\
  =========                 |
  \\      /  F ield         | OpenFOAM: The Open Source CFD Toolbox
   \\    /   O peration     | Website:  https://openfoam.org
    \\  /    A nd           | Version:  7
     \\/     M anipulation  |
\*---------------------------------------------------------------------------*/
FoamFile
{
    version     2.0;
    format      ascii;
    class       volScalarField;
    location    "45";
    object      p;
}
// * * * * * * * * * * * * * * * * * * * * * * * * * * * * * * * * * * * * * //

dimensions      [0 2 -2 0 0 0 0];

internalField   nonuniform List<scalar> 
183
(
-0.0485385
-0.0334694
-0.0478101
-0.0336119
-0.0470208
-0.0337126
-0.0461576
-0.0337642
-0.0452069
-0.0337606
-0.0441544
-0.0336961
-0.0429863
-0.0335664
-0.04169
-0.0333683
-0.0402545
-0.0331002
-0.0386722
-0.0327619
-0.0369386
-0.032355
-0.0350537
-0.0318829
-0.0330224
-0.0313509
-0.0308543
-0.0307664
-0.0285642
-0.0301383
-0.0261713
-0.0294772
-0.0236992
-0.0287951
-0.0211748
-0.0281045
-0.0186275
-0.0274153
-0.0160858
-0.0267356
-0.0135711
-0.0261247
-0.00599279
-0.0248428
0.000255559
-0.0244462
0.001868
-0.0246475
0.0021445
-0.0227186
-0.0365027
0.00337484
-0.0177542
-0.0295332
0.00520796
-0.0119279
-0.0220604
0.00646145
-0.00707649
-0.0156563
0.00693364
-0.00360107
-0.0107373
0.00680329
-0.00133105
-0.00716515
0.00634941
9.50777e-05
-0.00462445
0.00575204
0.000953767
-0.00283598
0.00511619
0.00144165
-0.00158811
0.004501
0.00169171
-0.000725805
0.00393814
0.00179271
-0.000136849
0.00344348
0.00180449
0.000260018
0.00302353
0.00176719
0.000523526
0.00267958
0.0017071
0.000692963
0.00240711
0.00164172
0.000787317
0.0015842
0.000847387
0.00154204
0.000881188
0.00151971
0.00089789
-0.0564636
-0.0533972
-0.0495721
-0.0450442
-0.0404527
-0.035998
-0.0319309
-0.0282737
-0.0250423
-0.0222172
-0.019768
-0.0176624
-0.0158677
-0.0143532
-0.0130906
-0.0120551
-0.0112252
-0.0105829
-0.0101137
-0.00980683
-0.00965521
-0.0303891
-0.0287827
-0.0271611
-0.0254186
-0.0237278
-0.0220167
-0.0203812
-0.0188032
-0.0173128
-0.0159216
-0.0146405
-0.0134774
-0.0124364
-0.0115192
-0.0107253
-0.0100529
-0.00949907
-0.00906085
-0.00873524
-0.00851975
-0.0084128
-0.0571926
-0.0313002
-0.0571079
-0.0313256
-0.0568425
-0.031184
-0.0566305
-0.0311023
-0.0564297
-0.0310705
-0.0561946
-0.0310565
-0.0559198
-0.0310565
-0.0556112
-0.0310769
-0.0552716
-0.0311223
-0.0549019
-0.0311944
-0.0545031
-0.0312941
-0.0540769
-0.0314216
-0.0536252
-0.0315761
-0.0531502
-0.0317554
-0.0526535
-0.0319561
-0.0521365
-0.0321737
-0.0515997
-0.0324028
-0.0510424
-0.0326366
-0.0504624
-0.0328681
-0.0498559
-0.0330894
-0.0492172
-0.0332926
)
;

boundaryField
{
    inlet
    {
        type            zeroGradient;
    }
    outlet
    {
        type            fixedValue;
        value           nonuniform 0();
    }
    cylinder
    {
        type            zeroGradient;
    }
    top
    {
        type            symmetryPlane;
    }
    bottom
    {
        type            symmetryPlane;
    }
    defaultFaces
    {
        type            empty;
    }
    procBoundary45to44
    {
        type            processor;
        value           nonuniform List<scalar> 
85
(
-0.0617783
-0.059638
-0.0574301
-0.0551415
-0.0527562
-0.050256
-0.0476223
-0.0448368
-0.0418839
-0.0387512
-0.0354319
-0.0319255
-0.028239
-0.0243875
-0.0203938
-0.0162887
-0.0121097
-0.00790051
-0.00371263
0.000412365
0.00450712
0.0171628
0.0276577
0.0301593
0.0279587
0.02489
0.0221061
0.0194469
0.01683
0.0143233
0.0120435
0.0100441
0.00833265
0.00689362
0.00570185
0.00473021
0.00395542
0.00336513
0.0029019
0.00220441
0.00220441
0.00207013
0.00200365
-0.0897276
-0.0853326
-0.0787831
-0.0704361
-0.0616097
-0.0530986
-0.0454933
-0.038922
-0.0333459
-0.0286677
-0.0247712
-0.0215447
-0.0188881
-0.016716
-0.0149562
-0.0135492
-0.0124461
-0.0116078
-0.0110043
-0.0106139
-0.0104225
-0.0900388
-0.0896886
-0.0890479
-0.0884006
-0.0877047
-0.0869093
-0.0860069
-0.085002
-0.0838964
-0.0826903
-0.0813845
-0.0799813
-0.0784844
-0.0768986
-0.0752302
-0.0734861
-0.0716737
-0.0698001
-0.0678712
-0.065891
-0.0638607
)
;
    }
    procBoundary45to46
    {
        type            processor;
        value           nonuniform List<scalar> 
85
(
-0.0215721
-0.0226046
-0.0236427
-0.0246778
-0.0257019
-0.0267076
-0.0276885
-0.0286396
-0.029557
-0.0304379
-0.031281
-0.0320854
-0.0328513
-0.033579
-0.0342691
-0.0349218
-0.0355373
-0.0361151
-0.0366506
-0.0371358
-0.0376164
-0.0394476
-0.0411181
-0.040557
-0.040557
-0.0391921
-0.0316298
-0.0241952
-0.0179384
-0.0130419
-0.00936349
-0.00663104
-0.00461368
-0.00313073
-0.00204744
-0.00126112
-0.000695248
-0.000292241
-1.02981e-05
0.000181033
0.000306527
0.000382227
0.000416905
-0.0106958
-0.0106875
-0.0108733
-0.0110618
-0.0112311
-0.0112659
-0.0112007
-0.0110111
-0.0107251
-0.0103631
-0.00995025
-0.00951085
-0.00906684
-0.0086368
-0.00823568
-0.00787519
-0.00756418
-0.00730909
-0.0071144
-0.00698304
-0.00691684
-0.010821
-0.0107898
-0.0107543
-0.0107977
-0.0109034
-0.0110593
-0.0112681
-0.0115352
-0.0118638
-0.0122557
-0.0127122
-0.013234
-0.013821
-0.0144723
-0.015186
-0.0159594
-0.0167886
-0.0176689
-0.0185946
-0.0195587
-0.020554
)
;
    }
}


// ************************************************************************* //
