/*--------------------------------*- C++ -*----------------------------------*\
  =========                 |
  \\      /  F ield         | OpenFOAM: The Open Source CFD Toolbox
   \\    /   O peration     | Website:  https://openfoam.org
    \\  /    A nd           | Version:  7
     \\/     M anipulation  |
\*---------------------------------------------------------------------------*/
FoamFile
{
    version     2.0;
    format      ascii;
    class       surfaceScalarField;
    location    "5";
    object      phi;
}
// * * * * * * * * * * * * * * * * * * * * * * * * * * * * * * * * * * * * * //

dimensions      [0 3 -1 0 0 0 0];

internalField   nonuniform List<scalar> 
49774
(
-4.12293e-07
4.122e-07
9.24492e-11
-1.59961e-06
1.18704e-06
2.77045e-10
-3.54708e-06
1.947e-06
4.67944e-10
-6.23354e-06
2.6858e-06
6.62957e-10
-9.63085e-06
3.39644e-06
8.61375e-10
-1.37037e-05
4.07178e-06
1.06199e-09
-1.84096e-05
4.70467e-06
1.26431e-09
-2.36992e-05
5.28807e-06
1.46694e-09
-2.95161e-05
5.81526e-06
1.6688e-09
-3.5798e-05
6.28005e-06
1.86957e-09
-4.24771e-05
6.67704e-06
2.06878e-09
-4.94814e-05
7.00202e-06
2.26542e-09
-5.67362e-05
7.25238e-06
2.4581e-09
-6.41665e-05
7.42765e-06
2.64741e-09
-7.16995e-05
7.53008e-06
2.8326e-09
-7.92678e-05
7.56533e-06
3.01299e-09
-8.68142e-05
7.54319e-06
3.18722e-09
-9.42958e-05
7.47827e-06
3.3568e-09
-0.00010169
7.39055e-06
3.51877e-09
-0.000108999
7.30579e-06
3.67261e-09
-0.000116258
7.25497e-06
3.81423e-09
-0.000123534
7.27146e-06
3.94007e-09
-0.000130931
7.39294e-06
4.04891e-09
7.6873e-06
4.13835e-09
-0.000138622
-4.06822e-07
8.19022e-07
-1.57759e-06
2.35781e-06
-3.49664e-06
3.86605e-06
-6.14191e-06
5.33107e-06
-9.48422e-06
6.73876e-06
-1.34871e-05
8.07467e-06
-1.81068e-05
9.32434e-06
-2.32922e-05
1.04735e-05
-2.89856e-05
1.15086e-05
-3.51223e-05
1.24168e-05
-4.16325e-05
1.31872e-05
-4.84415e-05
1.3811e-05
-5.54718e-05
1.42826e-05
-6.26448e-05
1.46007e-05
-6.9884e-05
1.47693e-05
-7.7118e-05
1.47993e-05
-8.42845e-05
1.47098e-05
-9.1336e-05
1.45297e-05
-9.82442e-05
1.42988e-05
-0.000105007
1.40684e-05
-0.000111652
1.39007e-05
-0.000118244
1.38632e-05
-0.000124883
1.4032e-05
1.45458e-05
-0.000131742
-3.95954e-07
1.21498e-06
-1.53383e-06
3.49568e-06
-3.39637e-06
5.72859e-06
-5.95972e-06
7.89441e-06
-9.19263e-06
9.97167e-06
-1.30563e-05
1.19383e-05
-1.75043e-05
1.37723e-05
-2.24826e-05
1.54519e-05
-2.79299e-05
1.69558e-05
-3.37778e-05
1.82647e-05
-3.99518e-05
1.93612e-05
-4.63721e-05
2.02314e-05
-5.29554e-05
2.08659e-05
-5.96164e-05
2.12617e-05
-6.62711e-05
2.14239e-05
-7.28394e-05
2.13676e-05
-7.92501e-05
2.11205e-05
-8.54453e-05
2.07249e-05
-9.13863e-05
2.02398e-05
-9.70601e-05
1.97422e-05
-0.000102485
1.93259e-05
-0.000107715
1.90933e-05
-0.000112844
1.91607e-05
1.97425e-05
-0.000118041
-3.79835e-07
1.59481e-06
-1.46887e-06
4.58472e-06
-3.24747e-06
7.50719e-06
-5.68906e-06
1.0336e-05
-8.7593e-06
1.30419e-05
-1.24159e-05
1.5595e-05
-1.66085e-05
1.7965e-05
-2.12786e-05
2.0122e-05
-2.63598e-05
2.2037e-05
-3.17778e-05
2.36827e-05
-3.74515e-05
2.50349e-05
-4.32935e-05
2.60734e-05
-4.92116e-05
2.67841e-05
-5.51109e-05
2.7161e-05
-6.08958e-05
2.72088e-05
-6.64739e-05
2.69457e-05
-7.17599e-05
2.64065e-05
-7.66809e-05
2.56459e-05
-8.11826e-05
2.47414e-05
-8.52358e-05
2.37954e-05
-8.88438e-05
2.29339e-05
-9.20461e-05
2.22956e-05
-9.49228e-05
2.20373e-05
2.24577e-05
-9.76381e-05
-3.58671e-07
1.95348e-06
-1.3835e-06
5.60954e-06
-3.05165e-06
9.17535e-06
-5.33289e-06
1.26172e-05
-8.18882e-06
1.58978e-05
-1.15725e-05
1.89787e-05
-1.54284e-05
2.18208e-05
-1.96921e-05
2.43856e-05
-2.42903e-05
2.66352e-05
-2.91414e-05
2.85338e-05
-3.41553e-05
3.00488e-05
-3.92347e-05
3.11527e-05
-4.42759e-05
3.18253e-05
-4.91709e-05
3.2056e-05
-5.38093e-05
3.18472e-05
-5.8082e-05
3.12184e-05
-6.18852e-05
3.02097e-05
-6.51262e-05
2.88868e-05
-6.77296e-05
2.73448e-05
-6.96453e-05
2.57111e-05
-7.08566e-05
2.41452e-05
-7.1385e-05
2.2824e-05
-7.12894e-05
2.19417e-05
2.18829e-05
-7.07146e-05
-3.32714e-07
2.2862e-06
-1.27866e-06
6.55549e-06
-2.81098e-06
1.07077e-05
-4.89489e-06
1.47012e-05
-7.48686e-06
1.84898e-05
-1.05343e-05
2.20261e-05
-1.39751e-05
2.52617e-05
-1.77377e-05
2.81482e-05
-2.17405e-05
3.06381e-05
-2.58925e-05
3.26858e-05
-3.00929e-05
3.42492e-05
-3.42322e-05
3.5292e-05
-3.81927e-05
3.57857e-05
-4.185e-05
3.57133e-05
-4.50758e-05
3.5073e-05
-4.77401e-05
3.38827e-05
-4.97162e-05
3.21859e-05
-5.08866e-05
3.00573e-05
-5.115e-05
2.76082e-05
-5.04306e-05
2.49917e-05
-4.8688e-05
2.24026e-05
-4.59264e-05
2.00624e-05
-4.21899e-05
1.82053e-05
1.71704e-05
-3.74774e-05
-3.0225e-07
2.58845e-06
-1.15544e-06
7.40868e-06
-2.52783e-06
1.20801e-05
-4.37916e-06
1.65525e-05
-6.65983e-06
2.07705e-05
-9.31039e-06
2.46766e-05
-1.22612e-05
2.82125e-05
-1.5432e-05
3.1319e-05
-1.87318e-05
3.39378e-05
-2.20583e-05
3.60123e-05
-2.52984e-05
3.74893e-05
-2.8328e-05
3.83217e-05
-3.10132e-05
3.84709e-05
-3.32106e-05
3.79108e-05
-3.47702e-05
3.66326e-05
-3.55377e-05
3.46501e-05
-3.53589e-05
3.20071e-05
-3.40864e-05
2.87847e-05
-3.15873e-05
2.51091e-05
-2.77551e-05
2.11594e-05
-2.25212e-05
1.71687e-05
-1.58695e-05
1.34107e-05
-7.89791e-06
1.02336e-05
8.29515e-06
9.7736e-07
-2.67577e-07
2.85602e-06
-1.01497e-06
8.15607e-06
-2.20468e-06
1.32698e-05
-3.79008e-06
1.81379e-05
-5.71447e-06
2.26949e-05
-7.9106e-06
2.68728e-05
-1.03001e-05
3.0602e-05
-1.2793e-05
3.38119e-05
-1.52871e-05
3.6432e-05
-1.76679e-05
3.83931e-05
-1.9808e-05
3.96294e-05
-2.15673e-05
4.00809e-05
-2.27929e-05
3.96965e-05
-2.33203e-05
3.84382e-05
-2.29746e-05
3.62869e-05
-2.15734e-05
3.32489e-05
-1.89308e-05
2.93645e-05
-1.48639e-05
2.47178e-05
-9.20188e-06
1.94471e-05
-1.79878e-06
1.37563e-05
7.45113e-06
7.91881e-06
1.85964e-05
2.2654e-06
3.1621e-05
-2.79091e-06
-6.596e-06
4.65122e-05
-2.28991e-07
3.08502e-06
-8.58371e-07
8.78545e-06
-1.84399e-06
1.42554e-05
-3.13192e-06
1.94258e-05
-4.65749e-06
2.42205e-05
-6.34459e-06
2.85599e-05
-8.10509e-06
3.23625e-05
-9.83814e-06
3.55449e-05
-1.14294e-05
3.80233e-05
-1.27507e-05
3.97143e-05
-1.36589e-05
4.05376e-05
-1.3996e-05
4.04181e-05
-1.35888e-05
3.92893e-05
-1.2249e-05
3.70984e-05
-9.77447e-06
3.38123e-05
-5.95116e-06
2.94256e-05
-5.57245e-07
2.39706e-05
6.63057e-06
1.753e-05
1.58271e-05
1.02506e-05
2.72243e-05
2.35915e-06
4.09717e-05
-5.82865e-06
5.71551e-05
-1.3918e-05
7.57758e-05
-2.14116e-05
-2.75024e-05
9.66823e-05
-1.8676e-07
3.27177e-06
-6.8665e-07
9.28534e-06
-1.44799e-06
1.50167e-05
-2.40867e-06
2.03865e-05
-3.49508e-06
2.53069e-05
-4.62138e-06
2.96862e-05
-5.68867e-06
3.34298e-05
-6.58423e-06
3.64405e-05
-7.18054e-06
3.86196e-05
-7.33442e-06
3.98682e-05
-6.88609e-06
4.00893e-05
-5.65836e-06
3.91903e-05
-3.45594e-06
3.70869e-05
-6.51282e-08
3.37076e-05
4.74586e-06
2.90014e-05
1.12254e-05
2.29461e-05
1.96349e-05
1.55611e-05
3.02429e-05
6.92196e-06
4.33141e-05
-2.82063e-06
5.90932e-05
-1.342e-05
7.77807e-05
-2.45161e-05
9.95033e-05
-3.56406e-05
0.000124277
-4.61851e-05
-5.5146e-05
0.00015192
-1.41102e-07
3.41288e-06
-5.00668e-07
9.64491e-06
-1.01861e-06
1.55347e-05
-1.62373e-06
2.09916e-05
-2.23265e-06
2.59158e-05
-2.74883e-06
3.02024e-05
-3.06178e-06
3.37427e-05
-3.04594e-06
3.64247e-05
-2.55966e-06
3.81333e-05
-1.44398e-06
3.87525e-05
4.78659e-07
3.81667e-05
3.40562e-06
3.62634e-05
7.55533e-06
3.29371e-05
1.31683e-05
2.80947e-05
2.05074e-05
2.16622e-05
2.98577e-05
1.35958e-05
4.15234e-05
3.89542e-06
5.58224e-05
-7.37706e-06
7.30755e-05
-2.00738e-05
9.35879e-05
-3.39323e-05
0.00011762
-4.85484e-05
0.000145349
-6.33699e-05
0.000176816
-7.76517e-05
-9.01508e-05
0.000211821
-9.21821e-08
3.50506e-06
-3.01083e-07
9.85381e-06
-5.57328e-07
1.57909e-05
-7.79803e-07
2.12141e-05
-8.74454e-07
2.60104e-05
-7.33278e-07
3.00612e-05
-2.33267e-07
3.32427e-05
7.64731e-07
3.54267e-05
2.41734e-06
3.64807e-05
4.90008e-06
3.62698e-05
8.40899e-06
3.46578e-05
1.31623e-05
3.15101e-05
1.94023e-05
2.66972e-05
2.73968e-05
2.01001e-05
3.74412e-05
1.16179e-05
4.98581e-05
1.17892e-06
6.49969e-05
-1.12434e-05
8.32287e-05
-2.56089e-05
0.000104936
-4.17812e-05
0.000130493
-5.94894e-05
0.000160232
-7.82873e-05
0.000194393
-9.75306e-05
0.000233051
-0.00011631
-0.000133106
0.000276006
-4.01017e-08
3.54516e-06
-8.83123e-08
9.90202e-06
-6.51455e-08
1.57677e-05
1.21262e-07
2.10277e-05
5.76453e-07
2.55552e-05
1.42072e-06
2.92169e-05
2.79036e-06
3.18731e-05
4.83889e-06
3.33781e-05
7.73863e-06
3.3581e-05
1.16823e-05
3.23261e-05
1.68849e-05
2.94551e-05
2.3586e-05
2.4809e-05
3.20518e-05
1.82314e-05
4.25779e-05
9.57398e-06
5.54917e-05
-1.29593e-06
7.11543e-05
-1.44837e-05
8.9961e-05
-3.00501e-05
0.000112339
-4.79865e-05
0.000138737
-6.81792e-05
0.000169607
-9.03597e-05
0.000205366
-0.000114046
0.000246334
-0.000138498
0.000292636
-0.000162612
-0.000184494
0.000344024
1.51095e-08
3.53005e-06
1.37452e-07
9.77968e-06
4.57417e-07
1.54478e-05
1.07841e-06
2.04067e-05
2.11825e-06
2.45154e-05
3.71033e-06
2.76248e-05
6.00495e-06
2.95785e-05
9.17077e-06
3.02123e-05
1.33964e-05
2.93553e-05
1.88924e-05
2.68301e-05
2.58931e-05
2.24544e-05
3.46595e-05
1.60427e-05
4.54816e-05
7.40927e-06
5.86822e-05
-3.62661e-06
7.462e-05
-1.72338e-05
9.36935e-05
-3.35571e-05
0.000116343
-5.27e-05
0.000143053
-7.4696e-05
0.000174342
-9.94681e-05
0.000210749
-0.000126766
0.000252791
-0.000156088
0.000300891
-0.000186599
0.000355256
-0.000216977
-0.000244887
0.000415648
7.34588e-08
3.45659e-06
3.76204e-07
9.47693e-06
1.01024e-06
1.48137e-05
2.09126e-06
1.93257e-05
3.75012e-06
2.28566e-05
6.13409e-06
2.52409e-05
9.40828e-06
2.63043e-05
1.37572e-05
2.58634e-05
1.93865e-05
2.3726e-05
2.65249e-05
1.96917e-05
3.54267e-05
1.35527e-05
4.6374e-05
5.09536e-06
5.96804e-05
-5.89716e-06
7.56947e-05
-1.96409e-05
9.48053e-05
-3.63443e-05
0.000117445
-5.61974e-05
0.000144099
-7.93534e-05
0.000175303
-0.0001059
0.000211649
-0.000135814
0.000253767
-0.000168885
0.000302292
-0.000204613
0.00035778
-0.000242086
0.000420555
-0.000279752
-0.000314747
0.000490416
1.35005e-07
3.32159e-06
6.28055e-07
8.98388e-06
1.59343e-06
1.38484e-05
3.15981e-06
1.77593e-05
5.47183e-06
2.05445e-05
8.69141e-06
2.20213e-05
1.29993e-05
2.19964e-05
1.85966e-05
2.02661e-05
2.57067e-05
1.66159e-05
3.45773e-05
1.08211e-05
4.54827e-05
2.64729e-06
5.87266e-05
-8.14851e-06
7.46453e-05
-2.18159e-05
9.36124e-05
-3.86079e-05
0.000116043
-5.87753e-05
0.000142403
-8.25566e-05
0.000173211
-0.000110162
0.000209056
-0.000141745
0.000250595
-0.000177353
0.000298553
-0.000216843
0.000353694
-0.000259755
0.000416741
-0.000305133
0.000488193
-0.000351204
-0.000394488
0.000567933
1.99805e-07
3.12178e-06
8.93125e-07
8.29056e-06
2.20711e-06
1.25344e-05
4.28407e-06
1.56823e-05
7.28311e-06
1.75455e-05
1.13816e-05
1.79228e-05
1.67767e-05
1.66013e-05
2.36872e-05
1.33556e-05
3.23549e-05
7.94814e-06
4.30474e-05
1.28647e-07
5.60596e-05
-1.03649e-05
7.17168e-05
-2.38058e-05
9.03781e-05
-4.04772e-05
0.00011244
-6.067e-05
0.000138343
-8.46779e-05
0.000168577
-0.000112791
0.000203694
-0.000145279
0.000244319
-0.000182371
0.000291167
-0.000224201
0.000345052
-0.000270727
0.000406874
-0.000321577
0.000477557
-0.000375816
0.000557848
-0.000431495
-0.000484461
0.000647821
2.67894e-07
2.85389e-06
1.17144e-06
7.38702e-06
2.85116e-06
1.08547e-05
5.46357e-06
1.30699e-05
9.18295e-06
1.38261e-05
1.42029e-05
1.29028e-05
2.0738e-05
1.00662e-05
2.90253e-05
5.06831e-06
3.93266e-05
-2.35313e-06
5.19299e-05
-1.24747e-05
6.71521e-05
-2.55871e-05
8.53409e-05
-4.19946e-05
0.000106878
-6.20143e-05
0.000132183
-8.59746e-05
0.000161717
-0.000114212
0.000195992
-0.000147066
0.000235582
-0.000184869
0.000281136
-0.000227925
0.000333409
-0.000276473
0.000393281
-0.0003306
0.000461785
-0.000390081
0.000540072
-0.000454103
0.000629233
-0.000520656
-0.000584924
0.000729695
3.39249e-07
2.51464e-06
1.46279e-06
6.26348e-06
3.5249e-06
8.79254e-06
6.69687e-06
9.89794e-06
1.11688e-05
9.3542e-06
1.71512e-05
6.92037e-06
2.4877e-05
2.34045e-06
3.46027e-05
-4.65747e-06
4.66111e-05
-1.43615e-05
6.12123e-05
-2.70759e-05
7.87462e-05
-4.3121e-05
9.95845e-05
-6.28329e-05
0.000124133
-8.65626e-05
0.000152833
-0.000114675
0.000186169
-0.000147548
0.000224669
-0.000185566
0.000268919
-0.000229119
0.000319581
-0.000278587
0.000377418
-0.00033431
0.000443347
-0.000396529
0.000518496
-0.00046523
0.000604245
-0.000539852
0.000702132
-0.000618543
-0.000695986
0.000813194
4.13765e-07
2.10088e-06
1.76662e-06
4.91063e-06
4.22692e-06
6.33224e-06
7.98113e-06
6.14373e-06
1.32357e-05
4.09961e-06
2.0219e-05
-6.28854e-08
2.91828e-05
-6.62336e-06
4.04045e-05
-1.58792e-05
5.41888e-05
-2.81458e-05
7.08697e-05
-4.37568e-05
9.08121e-05
-6.30634e-05
0.000114414
-8.64343e-05
0.000142106
-0.000114255
0.000174357
-0.000146926
0.000211673
-0.000184863
0.0002546
-0.000228493
0.000303732
-0.000278251
0.000359727
-0.000334581
0.000423331
-0.000397915
0.000495447
-0.000468645
0.000577229
-0.000547011
0.000670231
-0.000632854
0.000776498
-0.00072481
-0.000817523
0.000898035
4.91212e-07
1.60966e-06
2.08194e-06
3.3199e-06
4.95482e-06
3.45936e-06
9.31178e-06
1.78677e-06
1.53761e-05
-1.96474e-06
2.33944e-05
-8.08117e-06
3.36384e-05
-1.68673e-05
4.6407e-05
-2.86478e-05
6.20283e-05
-4.37671e-05
8.08616e-05
-6.259e-05
0.000103299
-8.55006e-05
0.000129766
-0.000112902
0.000160726
-0.000145215
0.000196676
-0.000182876
0.00023815
-0.000226337
0.000285717
-0.00027606
0.000339985
-0.000332519
0.000401603
-0.000396198
0.000471282
-0.000467594
0.000549853
-0.000547216
0.000638393
-0.000635551
0.000738479
-0.000732941
0.000852597
-0.000838928
-0.000949087
0.000984162
5.71238e-07
1.03843e-06
2.4073e-06
1.48384e-06
5.70513e-06
1.61525e-07
1.06823e-05
-3.19044e-06
1.75793e-05
-8.86168e-06
2.66611e-05
-1.7163e-05
3.822e-05
-2.84262e-05
5.2577e-05
-4.30048e-05
7.00845e-05
-6.12747e-05
9.11284e-05
-8.36339e-05
0.00011613
-0.000110502
0.000145546
-0.000142318
0.000179874
-0.000179543
0.000219647
-0.000222649
0.000265437
-0.000272127
0.000317849
-0.000328473
0.000377519
-0.00039219
0.000445108
-0.000463787
0.000521298
-0.000543785
0.000606822
-0.00063274
0.000702562
-0.000731292
0.000809837
-0.000840215
0.000931223
-0.000960314
-0.00109015
0.00107229
6.53375e-07
3.85051e-07
2.74078e-06
-6.03564e-07
6.47342e-06
-3.57111e-06
1.20845e-05
-8.80155e-06
1.98316e-05
-1.66087e-05
2.99983e-05
-2.73298e-05
4.28972e-05
-4.13251e-05
5.88718e-05
-5.89794e-05
7.82991e-05
-8.0702e-05
0.000101592
-0.000106927
0.000129201
-0.000138111
0.000161618
-0.000174735
0.000199376
-0.000217301
0.000243052
-0.000266325
0.000293265
-0.00032234
0.000350676
-0.000385884
0.000415982
-0.000457495
0.000489901
-0.000537706
0.00057316
-0.000627043
0.000666467
-0.000726047
0.00077052
-0.000835344
0.000886051
-0.000955747
0.00101459
-0.00108885
-0.0012403
0.00116473
7.37068e-07
-3.52018e-07
3.08014e-06
-2.94663e-06
7.25448e-06
-7.74546e-06
1.35087e-05
-1.50558e-05
2.2117e-05
-2.5217e-05
3.33815e-05
-3.85942e-05
4.76345e-05
-5.55781e-05
6.52412e-05
-7.65861e-05
8.66024e-05
-0.000102063
0.000112157
-0.000132481
0.000142386
-0.00016834
0.000177813
-0.000210162
0.000219009
-0.000258497
0.000266596
-0.000313913
0.00032125
-0.000376994
0.000383703
-0.000448336
0.000454745
-0.000528538
0.000535234
-0.000618195
0.000626087
-0.000717896
0.000728284
-0.000828244
0.000842863
-0.000949924
0.000970657
-0.00108354
0.00111094
-0.00122913
-0.00139351
0.00126415
8.21712e-07
-1.17373e-06
3.42296e-06
-5.54788e-06
8.04272e-06
-1.23652e-05
1.49445e-05
-2.19575e-05
2.44185e-05
-3.46911e-05
3.67844e-05
-5.09601e-05
5.23931e-05
-7.11868e-05
7.16301e-05
-9.58232e-05
9.49181e-05
-0.000125351
0.00012272
-0.000160283
0.000155542
-0.000201162
0.000193938
-0.000248558
0.000238512
-0.000303071
0.000289927
-0.000365328
0.000348908
-0.000435975
0.000416256
-0.000515684
0.000492866
-0.000605148
0.000579759
-0.000705088
0.000678148
-0.000816285
0.000789573
-0.000939668
0.000916187
-0.00107654
0.00106164
-0.001229
0.00123469
-0.00140218
-0.00161684
0.00145802
9.067e-07
-2.08043e-06
3.76682e-06
-8.408e-06
8.83249e-06
-1.74309e-05
1.63814e-05
-2.95064e-05
2.67188e-05
-4.50285e-05
4.01803e-05
-6.44216e-05
5.7134e-05
-8.81404e-05
7.79831e-05
-0.000116672
0.000103169
-0.000150537
0.000133174
-0.000190288
0.000168526
-0.000236513
0.000209799
-0.000289831
0.000257621
-0.000350894
0.00031268
-0.000420387
0.000375731
-0.000499026
0.000447611
-0.000587564
0.000529261
-0.000686798
0.00062177
-0.000797597
0.000726441
-0.000920955
0.000844911
-0.00105814
0.000979344
-0.00121097
0.00113279
-0.00138244
0.00130918
-0.00157858
-0.00181336
0.00150571
9.91479e-07
-3.07191e-06
4.10944e-06
-1.1526e-05
9.61853e-06
-2.294e-05
1.78096e-05
-3.76975e-05
2.90016e-05
-5.62206e-05
4.35444e-05
-7.89644e-05
6.18206e-05
-0.000106417
8.42483e-05
-0.0001391
0.000111283
-0.000177572
0.000143422
-0.000222427
0.000181205
-0.000274296
0.000225219
-0.000333844
0.0002761
-0.000401775
0.000334541
-0.000478828
0.000401296
-0.000565781
0.000477191
-0.000663459
0.00056314
-0.000772747
0.000660166
-0.000894623
0.000769434
-0.00103022
0.000892272
-0.00118098
0.00103015
-0.00134885
0.00118451
-0.00153679
0.00135566
-0.00174974
-0.00199562
0.00153792
1.07559e-06
-4.1475e-06
4.44889e-06
-1.48993e-05
1.03962e-05
-2.88873e-05
1.92204e-05
-4.65216e-05
3.12526e-05
-6.82528e-05
4.68545e-05
-9.45664e-05
6.64207e-05
-0.000125983
9.03802e-05
-0.000163059
0.000119199
-0.000206391
0.000153381
-0.00025661
0.000193471
-0.000314387
0.000240057
-0.00038043
0.000293769
-0.000455487
0.000355283
-0.000540342
0.000425322
-0.000635821
0.000504662
-0.000742799
0.000594127
-0.000862212
0.000694591
-0.000995087
0.000806966
-0.0011426
0.000932147
-0.00130616
0.00107087
-0.00148758
0.00122337
-0.00168929
0.00138842
-0.00191479
-0.00216831
0.00156111
1.15868e-06
-5.30618e-06
4.78365e-06
-1.85242e-05
1.11618e-05
-3.52655e-05
2.06066e-05
-5.59664e-05
3.34595e-05
-8.11057e-05
5.0092e-05
-0.000111199
7.09071e-05
-0.000146798
9.63413e-05
-0.000188493
0.000126865
-0.000236914
0.000162984
-0.000292729
0.000205239
-0.000356642
0.000254208
-0.000429399
0.0003105
-0.000511779
0.00037476
-0.000604601
0.000447656
-0.000708718
0.000529883
-0.000825026
0.000622144
-0.000954472
0.000725129
-0.00109807
0.000839475
-0.00125694
0.000965678
-0.00143236
0.00110392
-0.00162582
0.00125375
-0.00183912
0.00141347
-0.00207451
-0.00233402
0.00157919
1.24049e-06
-6.54667e-06
5.1125e-06
-2.23963e-05
1.19124e-05
-4.20654e-05
2.19625e-05
-6.60165e-05
3.56126e-05
-9.47558e-05
5.32415e-05
-0.000128828
7.52578e-05
-0.000168814
0.000102101
-0.000215337
0.000134241
-0.000269055
0.00017218
-0.000330667
0.000216446
-0.000400909
0.000267598
-0.000480551
0.000326215
-0.000570396
0.000392893
-0.000671278
0.000468234
-0.000784059
0.000552836
-0.000909628
0.000647267
-0.0010489
0.000752034
-0.00120284
0.000867523
-0.00137243
0.000993912
-0.00155875
0.00113101
-0.00176292
0.00127802
-0.00198614
0.0014332
-0.00222969
-0.00249428
0.00159346
1.32081e-06
-7.86747e-06
5.43446e-06
-2.65099e-05
1.26453e-05
-4.92763e-05
2.32831e-05
-7.66542e-05
3.77038e-05
-0.000109177
5.62906e-05
-0.000147415
7.94546e-05
-0.000191978
0.000107635
-0.000243516
0.000141296
-0.000302716
0.000180929
-0.0003703
0.000227046
-0.000447026
0.000280177
-0.000533682
0.000340861
-0.00063108
0.00040964
-0.000740056
0.000487039
-0.000861458
0.000573553
-0.000996142
0.000669618
-0.00114497
0.000775569
-0.00130879
0.000891583
-0.00148845
0.0010176
-0.00168476
0.00115318
-0.0018985
0.00129738
-0.00213034
0.00144851
-0.00238083
-0.0026498
0.00160403
1.39944e-06
-9.26691e-06
5.74864e-06
-3.08591e-05
1.33585e-05
-5.68862e-05
2.45642e-05
-8.78599e-05
3.97257e-05
-0.000124338
5.92281e-05
-0.000166917
8.34816e-05
-0.000216232
0.00011292
-0.000272955
0.000148001
-0.000337796
0.000189197
-0.000411497
0.000236999
-0.000494828
0.000291902
-0.000588585
0.0003544
-0.000693578
0.000424972
-0.000810628
0.000504064
-0.00094055
0.000592068
-0.00108415
0.000689293
-0.00124219
0.000795923
-0.00141542
0.000911962
-0.00160449
0.00103716
-0.00180997
0.00117094
-0.00203228
0.00131227
-0.00227166
0.00145955
-0.00252811
-0.00280082
0.00161058
1.47622e-06
-1.07431e-05
6.05417e-06
-3.54371e-05
1.40497e-05
-6.48817e-05
2.58014e-05
-9.96117e-05
4.16711e-05
-0.000140208
6.20429e-05
-0.000187289
8.73231e-05
-0.000241512
0.000117938
-0.00030357
0.000154329
-0.000374188
0.000196953
-0.00045412
0.000246269
-0.000544144
0.000302734
-0.00064505
0.000366792
-0.000757636
0.000438856
-0.000882691
0.00051929
-0.00102098
0.000608388
-0.00117324
0.000706338
-0.00134014
0.00081319
-0.00152227
0.000928805
-0.0017201
0.0010528
-0.00193396
0.00118447
-0.00216395
0.00132275
-0.00240994
0.00146613
-0.00267148
-0.0029473
0.0016126
1.55096e-06
-1.22941e-05
6.35012e-06
-4.02362e-05
1.47164e-05
-7.3248e-05
2.699e-05
-0.000111885
4.35319e-05
-0.000156749
6.4723e-05
-0.00020848
9.09622e-05
-0.000267751
0.000122664
-0.000335271
0.000160253
-0.000411777
0.000204161
-0.000498028
0.000254815
-0.000594797
0.000312628
-0.000702864
0.00037799
-0.000822998
0.000451246
-0.000955947
0.000532679
-0.00110242
0.000622484
-0.00126305
0.00072074
-0.0014384
0.000827375
-0.00162891
0.000942128
-0.00183485
0.0010645
-0.00205633
0.00119372
-0.00229317
0.00132867
-0.0025449
0.00146791
-0.00281072
-0.00308898
0.00160959
1.62338e-06
-1.39175e-05
6.63529e-06
-4.52481e-05
1.53559e-05
-8.19686e-05
2.81246e-05
-0.000124654
4.52994e-05
-0.000173924
6.72549e-05
-0.000230435
9.43798e-05
-0.000294876
0.000127074
-0.000367965
0.00016574
-0.000450444
0.000210782
-0.00054307
0.000262589
-0.000646605
0.00032153
-0.000761805
0.000387935
-0.000889403
0.00046208
-0.00103009
0.000544165
-0.0011845
0.000634291
-0.00135318
0.000732436
-0.00153654
0.000838416
-0.00173489
0.000951864
-0.0019483
0.00107219
-0.00217665
0.00119854
-0.00241952
0.0013298
-0.00267616
0.00146456
-0.00294547
-0.0032255
0.00160108
1.69309e-06
-1.56106e-05
6.90812e-06
-5.04631e-05
1.59644e-05
-9.10249e-05
2.91987e-05
-0.000137888
4.6963e-05
-0.000191689
6.96231e-05
-0.000253095
9.75545e-05
-0.000322808
0.000131138
-0.000401549
0.000170753
-0.000490059
0.00021677
-0.000589086
0.000269539
-0.000699374
0.000329377
-0.000821643
0.000396555
-0.000956581
0.000471277
-0.00110481
0.000553662
-0.00126689
0.00064372
-0.00144323
0.000741329
-0.00163415
0.000846208
-0.00183977
0.00095789
-0.00205998
0.0010757
-0.00229447
0.00119875
-0.00254257
0.00132589
-0.00280331
0.00145575
-0.00307533
-0.00335646
0.0015867
1.75963e-06
-1.73702e-05
7.16673e-06
-5.58702e-05
1.65378e-05
-0.000100396
3.02044e-05
-0.000151555
4.85105e-05
-0.000209995
7.18098e-05
-0.000276395
0.000100462
-0.000351459
0.000134825
-0.000435912
0.000175251
-0.000530485
0.000222074
-0.00063591
0.000275601
-0.000752901
0.000336097
-0.000882139
0.000403768
-0.00102425
0.000478747
-0.00117979
0.000561071
-0.00134921
0.000650662
-0.00153283
0.000747304
-0.0017308
0.000850623
-0.00194308
0.000960068
-0.00216943
0.0010749
-0.00240929
0.00119416
-0.00266183
0.00131673
-0.00292587
0.00144124
-0.00319984
-0.0034814
0.00156618
1.82247e-06
-1.91927e-05
7.40901e-06
-6.14568e-05
1.70712e-05
-0.000110058
3.11331e-05
-0.000165617
4.9928e-05
-0.00022879
7.3795e-05
-0.000300262
0.000103074
-0.000380738
0.000138098
-0.000470937
0.000179189
-0.000571575
0.00022664
-0.000683361
0.000280712
-0.000806972
0.000341613
-0.00094304
0.000409487
-0.00109213
0.000484392
-0.0012547
0.000566284
-0.0014311
0.000655001
-0.00162154
0.000750237
-0.00182603
0.000851533
-0.00204438
0.000958262
-0.00227616
0.00106962
-0.00252065
0.00118463
-0.00277684
0.00130215
-0.00304338
0.00142087
-0.00331856
-0.0035999
0.00153937
1.88103e-06
-2.10737e-05
7.63262e-06
-6.72084e-05
1.75593e-05
-0.000119985
3.19753e-05
-0.000180033
5.12007e-05
-0.000248015
7.5557e-05
-0.000324618
0.000105362
-0.000410543
0.00014092
-0.000506495
0.000182518
-0.000613173
0.000230408
-0.000731251
0.000284801
-0.000861365
0.000345846
-0.00100409
0.000413622
-0.0011599
0.000488112
-0.00132919
0.000569195
-0.00151219
0.000656624
-0.00170897
0.000750012
-0.00191942
0.00084882
-0.00214319
0.000952355
-0.00237969
0.00105976
-0.00262806
0.00117004
-0.00288712
0.00128206
-0.0031554
0.00139456
-0.00343106
-0.00371156
0.00150621
1.93464e-06
-2.30083e-05
7.835e-06
-7.31087e-05
1.79964e-05
-0.000130146
3.2721e-05
-0.000194757
5.23129e-05
-0.000267607
7.70734e-05
-0.000349379
0.000107295
-0.000440764
0.000143251
-0.000542452
0.00018519
-0.000655112
0.000233321
-0.000779382
0.000287799
-0.000915844
0.000348717
-0.001065
0.000416085
-0.00122727
0.000489814
-0.00140292
0.000569704
-0.00159208
0.00065543
-0.0017947
0.000746528
-0.00201052
0.000842389
-0.00223905
0.000942261
-0.00247956
0.00104525
-0.00273105
0.00115035
-0.00299222
0.00125643
-0.00326148
0.00136231
-0.00353694
-0.00381601
0.00146677
1.98258e-06
-2.49909e-05
8.01338e-06
-7.91395e-05
1.83765e-05
-0.00014051
3.33595e-05
-0.00020974
5.32483e-05
-0.000287496
7.83212e-05
-0.000374452
0.000108842
-0.000471285
0.000145052
-0.000578661
0.000187157
-0.000697217
0.000235319
-0.000827544
0.00028964
-0.000970165
0.000350152
-0.00112551
0.000416795
-0.00129391
0.00048941
-0.00147553
0.000567723
-0.00167039
0.000651334
-0.00187831
0.000739707
-0.00209889
0.000832174
-0.00233152
0.000927934
-0.00257532
0.00102607
-0.00282918
0.00112556
-0.00309171
0.00122532
-0.00336125
0.00132423
-0.00363585
-0.00391295
0.00142117
2.02411e-06
-2.7015e-05
8.16499e-06
-8.52804e-05
1.86934e-05
-0.000151038
3.38803e-05
-0.000224927
5.39907e-05
-0.000307606
7.92775e-05
-0.000399738
0.000109974
-0.000501982
0.000146284
-0.000614971
0.000188372
-0.000739305
0.000236349
-0.000875521
0.000290263
-0.00102408
0.000350081
-0.00118533
0.00041568
-0.00135951
0.000486829
-0.00154668
0.000563183
-0.00174675
0.000644272
-0.0019594
0.0007295
-0.00218412
0.000818143
-0.00242016
0.000909366
-0.00266655
0.00100223
-0.00292205
0.00109574
-0.00318521
0.00118883
-0.00345434
0.00128047
-0.00372749
-0.00400213
0.00136964
2.05855e-06
-2.90736e-05
8.2871e-06
-9.1509e-05
1.89412e-05
-0.000161692
3.42729e-05
-0.000240259
5.45241e-05
-0.000327857
7.99202e-05
-0.000425135
0.000110661
-0.000532723
0.000146912
-0.000651222
0.000188791
-0.000781185
0.000236361
-0.000923091
0.000289611
-0.00107733
0.000348448
-0.00124417
0.000412681
-0.00142374
0.000482014
-0.00161602
0.000556034
-0.00182077
0.000634209
-0.00203757
0.000715886
-0.00226579
0.000800302
-0.00250458
0.000886595
-0.00275284
0.000973824
-0.00300928
0.001061
-0.00327239
0.00114714
-0.00354048
0.00123126
-0.0038116
-0.00408335
0.00131248
2.08521e-06
-3.11588e-05
8.37712e-06
-9.78009e-05
1.91141e-05
-0.000172429
3.45274e-05
-0.000255672
5.48339e-05
-0.000348164
8.02288e-05
-0.000450529
0.000110877
-0.000563371
0.000146902
-0.000687248
0.000188378
-0.00082266
0.000235313
-0.000970026
0.00028764
-0.00112966
0.000345205
-0.00130173
0.000407754
-0.00148629
0.000474927
-0.00168319
0.000546249
-0.00189209
0.000621132
-0.00211245
0.000698879
-0.00234354
0.000778693
-0.00258439
0.000859697
-0.00283384
0.00094096
-0.00309054
0.00102153
-0.00335296
0.00110046
-0.00361941
0.00117688
-0.00388802
-0.00415648
0.00125001
2.10342e-06
-3.32622e-05
8.43255e-06
-0.00010413
1.92069e-05
-0.000183203
3.46349e-05
-0.0002711
5.49064e-05
-0.000368435
8.01848e-05
-0.000475808
0.000110598
-0.000593784
0.000146228
-0.000722877
0.000187099
-0.000863532
0.000233169
-0.0010161
0.000284314
-0.0011808
0.000340319
-0.00135774
0.000400871
-0.00154684
0.000465549
-0.00174787
0.000533824
-0.00196036
0.00060506
-0.00218369
0.000678522
-0.002417
0.000753392
-0.00265926
0.000828791
-0.00290924
0.000903804
-0.00316556
0.00097752
-0.00342668
0.00104907
-0.00369096
0.00111765
-0.00395661
-0.00422145
0.00118262
2.11255e-06
-3.53748e-05
8.45107e-06
-0.000110469
1.92146e-05
-0.000193967
3.45871e-05
-0.000286473
5.47298e-05
-0.000388578
7.97725e-05
-0.00050085
0.000109805
-0.000623816
0.000144865
-0.000757937
0.000184929
-0.000903597
0.000229904
-0.00106107
0.000279608
-0.00123051
0.000333771
-0.0014119
0.000392021
-0.00160509
0.000453884
-0.00180973
0.000518782
-0.00202526
0.000586038
-0.00225095
0.000654891
-0.00248586
0.000724512
-0.00272888
0.000794028
-0.00297876
0.000862555
-0.00323408
0.000929232
-0.00349335
0.000993258
-0.00375498
0.00105393
-0.00401728
-0.00427823
0.00111072
2.11203e-06
-3.74868e-05
8.43067e-06
-0.000116787
1.9133e-05
-0.000204669
3.43771e-05
-0.000301717
5.4294e-05
-0.000408495
7.89786e-05
-0.000525535
0.000108481
-0.000653318
0.000142796
-0.000792252
0.000181851
-0.000942652
0.000225501
-0.00110472
0.000273511
-0.00127852
0.000325557
-0.00146395
0.000381213
-0.00166075
0.000439956
-0.00186847
0.000501167
-0.00208647
0.000564138
-0.00231392
0.00062809
-0.00254981
0.000692193
-0.00279299
0.000755593
-0.00304216
0.000817444
-0.00329593
0.000876941
-0.00355285
0.000933363
-0.00381141
0.000986103
-0.00407002
-0.00432685
0.00103472
2.10143e-06
-3.95882e-05
8.36968e-06
-0.000123055
1.89586e-05
-0.000215258
3.39992e-05
-0.000316757
5.3591e-05
-0.000428086
7.77933e-05
-0.000549737
0.000106616
-0.000682141
0.000140009
-0.000825645
0.000177855
-0.000980498
0.000219954
-0.00114682
0.000266024
-0.00132459
0.000315687
-0.00151361
0.000368471
-0.00171353
0.000423809
-0.00192381
0.000481047
-0.00214371
0.000539457
-0.00237233
0.00059825
-0.0026086
0.000656605
-0.00285134
0.000713697
-0.00309925
0.000768724
-0.00335096
0.000820949
-0.00360508
0.000869728
-0.00386018
0.000914547
-0.00411484
-0.00436737
0.000955067
2.08036e-06
-4.16686e-05
8.26675e-06
-0.000129242
1.86887e-05
-0.00022568
3.34491e-05
-0.000331518
5.26152e-05
-0.000447253
7.621e-05
-0.000573332
0.000104203
-0.000710134
0.000136501
-0.000857943
0.000172938
-0.00101693
0.000213269
-0.00118715
0.000257161
-0.00136848
0.000304189
-0.00156064
0.000353838
-0.00176318
0.000405507
-0.00197548
0.000458513
-0.00219672
0.000512115
-0.00242593
0.000565525
-0.00266201
0.00061794
-0.00290376
0.000668571
-0.00314988
0.000716671
-0.00339906
0.000761571
-0.00364998
0.00080271
-0.00390132
0.000839664
-0.0041518
-0.00439989
0.000872183
2.04848e-06
-4.37171e-05
8.12075e-06
-0.000135314
1.83213e-05
-0.000235881
3.27239e-05
-0.00034592
5.13633e-05
-0.000465892
7.42258e-05
-0.000596195
0.000101241
-0.000737149
0.000132273
-0.000888975
0.00016711
-0.00105177
0.000205461
-0.0012255
0.000246947
-0.00140996
0.000291103
-0.0016048
0.000337376
-0.00180946
0.000385133
-0.00202324
0.000433675
-0.00224526