/*--------------------------------*- C++ -*----------------------------------*\
  =========                 |
  \\      /  F ield         | OpenFOAM: The Open Source CFD Toolbox
   \\    /   O peration     | Website:  https://openfoam.org
    \\  /    A nd           | Version:  7
     \\/     M anipulation  |
\*---------------------------------------------------------------------------*/
FoamFile
{
    version     2.0;
    format      ascii;
    class       volVectorField;
    location    "5";
    object      U;
}
// * * * * * * * * * * * * * * * * * * * * * * * * * * * * * * * * * * * * * //

dimensions      [0 1 -1 0 0 0 0];

internalField   nonuniform List<vector> 
25088
(
(-8.92308e-05 0.00017999 -6.85509e-22)
(-0.000509061 0.000489928 6.6623e-21)
(-0.00140486 0.000756246 -9.6032e-22)
(-0.0026979 0.000980775 -1.09846e-21)
(-0.0043219 0.00116512 2.67996e-21)
(-0.00623221 0.00131074 2.97595e-21)
(-0.00838272 0.00141932 6.03724e-21)
(-0.0107241 0.00149282 4.41857e-21)
(-0.0132063 0.00153344 2.35281e-22)
(-0.0157799 0.00154364 5.56587e-21)
(-0.0183964 0.00152609 5.65659e-21)
(-0.0210093 0.00148374 -1.11102e-20)
(-0.0235746 0.00141982 7.61115e-21)
(-0.0260524 0.00133782 5.75903e-22)
(-0.0284072 0.00124153 4.72448e-21)
(-0.0306097 0.00113503 -7.87506e-21)
(-0.0326371 0.00102268 6.06404e-21)
(-0.0344751 0.000909075 1.48777e-21)
(-0.0361181 0.000798977 -4.47548e-21)
(-0.0375707 0.000697208 4.42257e-21)
(-0.0388487 0.000608385 1.02402e-21)
(-0.0399754 0.000536414 2.13856e-22)
(-0.0409745 0.00048493 1.12311e-20)
(-0.0419186 0.000460277 -1.61242e-20)
(-0.000111686 0.000537199 1.83068e-21)
(-0.0005667 0.00146205 -6.15256e-21)
(-0.00148545 0.0022566 1.83186e-21)
(-0.00278984 0.00292629 -1.69905e-21)
(-0.00441401 0.00347591 -8.59165e-21)
(-0.00631337 0.00390976 -8.15242e-21)
(-0.00844188 0.0042329 -8.16884e-21)
(-0.0107503 0.0044512 1.19961e-20)
(-0.0131887 0.00457122 -1.26102e-20)
(-0.0157077 0.00460027 -1.5039e-20)
(-0.018259 0.00454638 -8.22187e-21)
(-0.020796 0.00441837 -1.00954e-21)
(-0.023275 0.00422586 7.82106e-21)
(-0.0256559 0.00397934 3.84348e-21)
(-0.0279035 0.00369014 4.31796e-22)
(-0.0299882 0.0033705 -4.66506e-21)
(-0.0318876 0.00303348 -3.1804e-21)
(-0.0335873 0.00269292 1.11616e-20)
(-0.0350821 0.00236313 -3.34393e-21)
(-0.0363767 0.00205866 -1.254e-20)
(-0.0374879 0.00179344 1.10099e-21)
(-0.0384396 0.00157934 3.61625e-21)
(-0.0392516 0.00142767 3.03751e-21)
(-0.0400008 0.00135764 3.40336e-20)
(-0.000155944 0.000885665 3.29595e-22)
(-0.000680169 0.00240972 9.7775e-21)
(-0.00164382 0.00371855 9.10656e-21)
(-0.00297008 0.004821 -1.88657e-20)
(-0.00459387 0.00572492 -1.63569e-20)
(-0.00647069 0.00643742 2.24857e-21)
(-0.00855467 0.0069668 -3.3312e-20)
(-0.0107967 0.00732277 1.01783e-20)
(-0.0131472 0.00751618 -1.18799e-21)
(-0.0155569 0.0075591 3.39718e-20)
(-0.0179776 0.00746482 -1.95326e-20)
(-0.0203629 0.00724795 2.11583e-21)
(-0.0226691 0.00692442 1.26945e-20)
(-0.0248565 0.00651162 -2.77899e-21)
(-0.0268896 0.00602839 -2.467e-20)
(-0.0287392 0.00549506 2.07842e-20)
(-0.0303829 0.00493345 4.20032e-21)
(-0.0318065 0.00436666 -5.72141e-20)
(-0.0330051 0.00381871 4.2283e-20)
(-0.0339845 0.00331406 4.29812e-21)
(-0.0347627 0.00287622 1.19787e-21)
(-0.0353653 0.00252547 -3.20133e-20)
(-0.035804 0.00228195 -3.56936e-20)
(-0.0361638 0.00217836 -1.96632e-20)
(-0.000220711 0.00121975 -1.41582e-20)
(-0.000845876 0.00331716 1.55635e-20)
(-0.00187441 0.00511726 1.49417e-20)
(-0.00323134 0.00663204 -9.6265e-21)
(-0.00485271 0.00787219 -2.75122e-21)
(-0.00669419 0.00884748 9.03932e-21)
(-0.00871008 0.0095694 -1.09188e-20)
(-0.0108516 0.0100513 -1.24311e-20)
(-0.0130693 0.0103082 9.13297e-21)
(-0.0153144 0.0103568 -1.17953e-20)
(-0.0175388 0.0102155 1.76123e-20)
(-0.0196963 0.00990452 1.91351e-20)
(-0.0217436 0.009446 -3.18209e-20)
(-0.0236408 0.00886407 -1.64882e-20)
(-0.0253528 0.00818498 -3.86589e-20)
(-0.0268503 0.00743712 1.4724e-20)
(-0.0281112 0.00665103 1.32052e-21)
(-0.0291217 0.0058592 9.4753e-20)
(-0.0298775 0.00509559 -6.96235e-20)
(-0.0303852 0.00439487 -1.75254e-20)
(-0.0306659 0.00379058 1.4386e-20)
(-0.0307467 0.00331199 -5.63312e-20)
(-0.0306281 0.0029896 7.21657e-20)
(-0.0304045 0.00287075 1.06649e-20)
(-0.000304083 0.0015341 1.03298e-20)
(-0.00105852 0.00416935 3.86987e-21)
(-0.00216898 0.00642906 4.62e-21)
(-0.00356284 0.00832801 -5.26768e-21)
(-0.00517757 0.00987947 1.49023e-20)
(-0.00696901 0.0110958 -3.38821e-20)
(-0.00889166 0.0119913 -1.958e-20)
(-0.0108971 0.012583 -7.17749e-21)
(-0.0129363 0.0128898 -1.12608e-20)
(-0.0149607 0.0129328 2.99899e-20)
(-0.0169227 0.0127354 3.42788e-20)
(-0.0187763 0.0123232 -5.36835e-21)
(-0.0204783 0.0117243 4.36158e-20)
(-0.0219891 0.0109694 -7.24471e-20)
(-0.0232737 0.010092 2.23445e-20)
(-0.024303 0.00912854 -3.41853e-20)
(-0.025055 0.00811819 -1.66253e-20)
(-0.0255165 0.00710299 -3.06306e-20)
(-0.025684 0.00612711 -1.43048e-20)
(-0.0255656 0.00523598 -1.51163e-20)
(-0.0251858 0.00447364 7.27375e-21)
(-0.0245755 0.00387885 6.30393e-20)
(-0.0237194 0.00349337 -4.41988e-20)
(-0.0227184 0.00338031 4.98269e-20)
(-0.000403583 0.00182372 4.76655e-21)
(-0.00131119 0.00495223 2.63379e-21)
(-0.00251675 0.00763178 8.64017e-21)
(-0.00395044 0.00987949 -1.26674e-20)
(-0.00555136 0.0117109 2.39345e-20)
(-0.00727552 0.0131407 6.85714e-21)
(-0.00907766 0.0141862 -6.34009e-21)
(-0.0109098 0.0148673 1.9699e-20)
(-0.0127232 0.015207 1.43645e-21)
(-0.0144699 0.0152305 1.06491e-21)
(-0.0161025 0.0149657 -7.84577e-21)
(-0.0175756 0.0144434 -1.72246e-20)
(-0.0188461 0.0136976 -6.22548e-20)
(-0.0198745 0.0127651 7.14483e-20)
(-0.0206261 0.0116866 2.66242e-20)
(-0.0210718 0.0105061 -2.90492e-20)
(-0.0211901 0.00927187 4.634e-21)
(-0.0209682 0.00803539 6.58334e-20)
(-0.0204036 0.00685159 -3.88817e-21)
(-0.0195064 0.00577731 -1.17423e-20)
(-0.0183062 0.00486791 -7.55502e-20)
(-0.0168403 0.00417226 4.7558e-20)
(-0.0150751 0.00374513 -5.43769e-20)
(-0.0130989 0.00366393 -4.34672e-21)
(-0.000516216 0.00208408 -3.73091e-21)
(-0.00159549 0.005653 -2.44332e-20)
(-0.00290459 0.00870513 -6.81892e-21)
(-0.0043768 0.0112595 -7.17415e-20)
(-0.00595307 0.0133336 2.33948e-20)
(-0.00758955 0.0149443 -1.65496e-20)
(-0.00924117 0.0161113 -2.19029e-20)
(-0.0108603 0.016858 4.90258e-20)
(-0.012399 0.0172104 -5.0376e-20)
(-0.0138094 0.0171978 7.13009e-21)
(-0.0150449 0.0168525 -4.69935e-20)
(-0.0160602 0.0162101 3.42862e-20)
(-0.0168126 0.0153097 6.32553e-21)
(-0.017263 0.0141945 -2.74967e-20)
(-0.0173765 0.0129117 1.00573e-19)
(-0.0171245 0.0115131 -1.023e-21)
(-0.0164855 0.0100554 2.97271e-21)
(-0.0154473 0.00860021 -4.35541e-20)
(-0.0140086 0.00721359 -4.11233e-20)
(-0.0121821 0.00596494 1.98749e-19)
(-0.0100035 0.00492241 1.03654e-19)
(-0.00752009 0.00414806 -1.66234e-20)
(-0.00468526 0.00372297 -6.20414e-20)
(-0.00155445 0.00375417 1.23428e-19)
(-0.000638519 0.00231114 9.10269e-21)
(-0.00190167 0.00626018 2.2229e-20)
(-0.00331716 0.00963093 -4.56185e-20)
(-0.00482163 0.0124438 -3.47381e-20)
(-0.00635803 0.014718 3.49003e-20)
(-0.00788253 0.0164722 8.54182e-21)
(-0.00935026 0.0177287 1.78038e-20)
(-0.0107141 0.0185134 -2.99997e-20)
(-0.0119266 0.0188558 -4.12007e-20)
(-0.0129404 0.0187886 -5.21027e-21)
(-0.0137095 0.0183481 2.1771e-20)
(-0.0141889 0.0175744 -3.85226e-20)
(-0.0143365 0.0165116 6.8666e-20)
(-0.0141132 0.0152083 -6.71679e-20)
(-0.0134844 0.0137182 -9.07719e-20)
(-0.0124214 0.0121004 2.40503e-21)
(-0.010903 0.0104201 -2.33339e-20)
(-0.0089174 0.00874894 2.43739e-20)
(-0.00646439 0.00716482 -3.81684e-20)
(-0.00355918 0.00575074 9.54394e-20)
(-0.000243582 0.00458946 8.0715e-20)
(0.00343155 0.00376038 -9.99395e-20)
(0.00753532 0.00337884 2.5628e-20)
(0.0119296 0.00356032 -6.6431e-20)
(-0.000766616 0.0025014 -7.79648e-21)
(-0.00221877 0.0067638 1.24451e-20)
(-0.00373712 0.0103933 3.16725e-20)
(-0.00526188 0.0134113 2.39426e-20)
(-0.00673801 0.0158382 1.87016e-21)
(-0.0081217 0.0176945 -3.24465e-20)
(-0.00936821 0.0190048 -4.04534e-20)
(-0.0104309 0.0197975 8.43888e-20)
(-0.0112629 0.020105 7.45933e-21)
(-0.0118175 0.0199631 6.59377e-21)
(-0.0120491 0.0194119 -4.0554e-20)
(-0.0119136 0.0184953 5.73374e-20)
(-0.0113689 0.017262 -7.6428e-20)
(-0.0103764 0.0157657 1.55738e-20)
(-0.00890144 0.0140658 7.43176e-20)
(-0.00691543 0.0122284 -6.35458e-20)
(-0.00439715 0.0103268 5.49137e-20)
(-0.00133526 0.00844282 -4.95288e-21)
(0.00226957 0.00666638 -1.9555e-19)
(0.00639941 0.0050951 4.97722e-20)
(0.0110054 0.00382778 -6.22067e-21)
(0.0160305 0.00296243 1.18921e-19)
(0.0215656 0.00264563 1.38731e-20)
(0.0274096 0.00300147 1.53902e-19)
(-0.000896271 0.00265192 -2.00088e-20)
(-0.00253473 0.00715543 3.96195e-20)
(-0.00414532 0.0109788 -2.96678e-20)
(-0.00567192 0.014144 -4.85769e-20)
(-0.00706158 0.0166723 -2.8488e-20)
(-0.00827036 0.018586 6.95101e-20)
(-0.00925365 0.0199117 4.58757e-20)
(-0.00996533 0.0206802 2.95711e-20)
(-0.0103591 0.0209263 3.19405e-21)
(-0.010389 0.0206889 4.49123e-20)
(-0.01001 0.020011 9.86997e-20)
(-0.00917864 0.0189402 -4.53474e-20)
(-0.00785334 0.0175291 3.35603e-20)
(-0.00599567 0.0158357 -1.19936e-19)
(-0.00357127 0.0139247 -5.51854e-20)
(-0.000551336 0.0118684 3.58551e-20)
(0.00308537 0.00974812 -6.57912e-21)
(0.00735003 0.00765506 7.51947e-20)
(0.0122411 0.00569182 3.13147e-23)
(0.017738 0.00397158 2.49942e-20)
(0.0237837 0.00261124 -7.70141e-20)
(0.0303119 0.00173111 -2.31872e-19)
(0.0374352 0.00151944 -1.59409e-19)
(0.0449019 0.0021259 -3.55555e-20)
(-0.00102294 0.00276031 1.79566e-20)
(-0.00283653 0.00742816 -6.60752e-20)
(-0.00452094 0.0113764 -1.44049e-20)
(-0.00602378 0.0146271 -9.57741e-21)
(-0.0072942 0.0172025 4.05569e-20)
(-0.00828807 0.0191263 -6.03123e-20)
(-0.00896084 0.0204271 -7.08382e-20)
(-0.00926692 0.0211376 6.10935e-20)
(-0.00916067 0.0212951 -2.89719e-20)
(-0.00859693 0.020941 8.07395e-20)
(-0.00753144 0.020121 -8.72431e-20)
(-0.00592133 0.0188856 -4.58903e-20)
(-0.00372571 0.0172907 -1.33779e-20)
(-0.000906501 0.015398 -5.03418e-20)
(0.00257053 0.0132767 6.93327e-20)
(0.00673428 0.0110045 -1.81807e-20)
(0.0116062 0.0086697 -4.10278e-20)
(0.0171975 0.00637279 -8.22331e-20)
(0.0235062 0.0042289 4.08813e-20)
(0.0305091 0.00236784 2.47936e-20)
(0.0381404 0.000926764 -8.5399e-20)
(0.0463227 5.2897e-05 -8.15927e-21)
(0.055191 -1.10509e-05 1.39924e-19)
(0.0644424 0.000920598 1.61731e-20)
(-0.00114178 0.0028247 -3.63378e-21)
(-0.00311028 0.0075766 -7.92705e-21)
(-0.00484168 0.0115775 -1.95988e-20)
(-0.00628734 0.0148495 7.02669e-21)
(-0.00739854 0.0174152 3.00764e-20)
(-0.00813088 0.0193 2.1998e-20)
(-0.00843989 0.0205341 -2.35343e-20)
(-0.00828048 0.0211525 -6.54805e-20)
(-0.00760777 0.0211942 6.38139e-20)
(-0.00637746 0.0207028 -2.25738e-20)
(-0.00454617 0.0197264 -2.24104e-20)
(-0.00207186 0.0183178 1.0047e-19)
(0.00108561 0.0165354 8.0369e-20)
(0.00496381 0.0144441 8.48542e-20)
(0.00959673 0.0121164 -5.44126e-20)
(0.0150134 0.00963438 -6.8239e-20)
(0.0212355 0.00709223 4.56975e-20)
(0.0282747 0.00459893 1.01681e-19)
(0.0361289 0.00228171 1.12469e-19)
(0.0447727 0.000287635 -3.748e-21)
(0.0541318 -0.00122375 -1.47255e-19)
(0.0641162 -0.00207349 -4.32479e-20)
(0.0748844 -0.00195127 -5.55379e-20)
(0.0860778 -0.000626767 5.43507e-20)
(-0.00124772 0.00284372 1.35859e-20)
(-0.00334133 0.00759681 4.70998e-20)
(-0.00508385 0.011576 -1.03891e-20)
(-0.0064305 0.014803 4.28513e-20)
(-0.00733467 0.0173009 -2.29779e-20)
(-0.00775168 0.0190966 -7.40661e-20)
(-0.00763706 0.0202222 6.63878e-20)
(-0.00694634 0.0207142 1.60094e-20)
(-0.00563544 0.0206136 -5.9323e-20)
(-0.00366101 0.0199658 5.97324e-20)
(-0.000980721 0.0188207 1.78818e-20)
(0.00244643 0.0172331 -1.39307e-20)
(0.00665965 0.0152632 2.31079e-20)
(0.0116958 0.0129778 4.29474e-22)
(0.0175884 0.0104519 -4.36584e-20)
(0.0243664 0.00777065 -2.09744e-20)
(0.032052 0.00503275 1.07079e-19)
(0.0406575 0.00235409 3.43461e-20)
(0.0501813 -0.000126976 -9.41318e-20)
(0.0605969 -0.00224614 2.41935e-20)
(0.0718216 -0.00381981 -2.30382e-19)
(0.0837523 -0.0046321 2.60396e-19)
(0.09657 -0.00428997 -4.35561e-20)
(0.109852 -0.00250219 2.06492e-20)
(-0.00133545 0.00281644 3.74288e-20)
(-0.0035143 0.00748624 5.2975e-20)
(-0.00522255 0.011368 2.60465e-20)
(-0.00641939 0.0144829 -5.09994e-20)
(-0.00706035 0.0168542 7.9875e-20)
(-0.00710042 0.0185108 -9.25917e-20)
(-0.0064952 0.0194862 -7.55244e-20)
(-0.00520083 0.0198187 1.70552e-20)
(-0.00317415 0.0195509 7.59379e-22)
(-0.000372883 0.0187299 -2.09648e-20)
(0.00324409 0.0174069 -1.0836e-19)
(0.00771651 0.015638 -8.28454e-20)
(0.0130823 0.0134849 -1.86106e-20)
(0.0193774 0.0110152 -7.45013e-20)
(0.0266344 0.0083052 -4.8591e-20)
(0.0348822 0.00544163 5.52024e-20)
(0.0441432 0.00252573 4.184e-20)
(0.0544305 -0.00032175 -2.54192e-20)
(0.0657438 -0.00295334 -8.59626e-20)
(0.0780568 -0.00518864 1.69999e-19)
(0.09128 -0.00681939 -3.78808e-21)
(0.105298 -0.00758766 -2.41797e-20)
(0.120319 -0.00699902 -1.63052e-19)
(0.135849 -0.00467699 4.93072e-21)
(-0.00139944 0.00274241 5.03384e-20)
(-0.00361314 0.00724364 -1.56409e-20)
(-0.00523178 0.0109519 -8.80784e-20)
(-0.00621859 0.0138875 6.88082e-21)
(-0.00653132 0.016074 3.10239e-20)
(-0.00612465 0.017542 -4.86691e-20)
(-0.00495423 0.0183269 3.23815e-20)
(-0.00297692 0.0184686 -1.95422e-20)
(-0.000150518 0.0180112 -2.29921e-20)
(0.00356601 0.017003 -8.44428e-20)
(0.0082124 0.0154967 1.19268e-19)
(0.0138268 0.0135491 9.89984e-20)
(0.0204457 0.0112225 1.99909e-20)
(0.0281034 0.00858481 -6.36882e-20)
(0.0368313 0.00571221 6.12535e-20)
(0.0466576 0.00269132 2.03128e-20)
(0.0576045 -0.000376318 -8.51977e-20)
(0.0696861 -0.00336802 1.58096e-21)
(0.0829041 -0.00613044 -2.57667e-20)
(0.0972338 -0.00847003 3.04901e-19)
(0.112582 -0.0101552 -1.54117e-19)
(0.128823 -0.0108827 -1.73211e-20)
(0.146195 -0.010038 -8.98244e-20)
(0.164132 -0.00713511 -1.18514e-19)
(-0.00143395 0.00262154 -3.06251e-21)
(-0.00362125 0.00686908 2.29917e-20)
(-0.00508459 0.0103282 -1.31027e-20)
(-0.00579138 0.0130182 -1.51041e-19)
(-0.0057017 0.0149629 1.16251e-19)
(-0.00476993 0.0161946 -1.19658e-20)
(-0.00295182 0.0167508 -1.38602e-19)
(-0.000204955 0.0166729 -9.29503e-21)
(0.00351178 0.0160065 -5.9042e-20)
(0.00823809 0.0148012 1.04098e-19)
(0.0140121 0.0131105 2.81294e-20)
(0.0208702 0.0109921 -1.65904e-19)
(0.0288467 0.00850813 6.93893e-20)
(0.037974 0.00572637 1.17949e-19)
(0.0482816 0.00272161 2.86631e-20)
(0.059796 -0.000421374 1.5666e-20)
(0.0725388 -0.00360332 9.35152e-20)
(0.0865245 -0.00670323 -3.9252e-20)
(0.101757 -0.0095666 1.46962e-19)
(0.118215 -0.011992 -1.84372e-19)
(0.135805 -0.0137291 3.83219e-20)
(0.154396 -0.014429 1.02922e-19)
(0.174265 -0.013338 -1.48934e-19)
(0.194769 -0.00982737 1.71708e-19)
(-0.00143306 0.00245421 -8.06471e-20)
(-0.00352153 0.00636391 4.79228e-20)
(-0.00475328 0.00949969 -4.9359e-20)
(-0.00510011 0.0118796 2.83914e-20)
(-0.0045245 0.0135274 -3.95582e-20)
(-0.00298057 0.0144778 1.51938e-20)
(-0.000424203 0.0147699 1.35589e-19)
(0.00318627 0.0144469 3.07951e-20)
(0.00789082 0.0135558 -1.10385e-20)
(0.0137277 0.0121474 -1.90232e-19)
(0.0207333 0.0102764 -1.1531e-20)
(0.0289418 0.0080009 -2.84215e-20)
(0.0383853 0.005383 1.58621e-19)
(0.0490932 0.00248947 -1.74504e-19)
(0.0610924 -0.000606871 -6.87678e-20)
(0.0744067 -0.00382464 -1.12368e-19)
(0.0890555 -0.00706943 1.52201e-19)
(0.105053 -0.0102261 2.98493e-20)
(0.122405 -0.0131451 9.7691e-21)
(0.141094 -0.0156254 -6.28681e-20)
(0.161031 -0.017407 1.94381e-19)
(0.182088 -0.0181008 -7.79819e-20)
(0.204593 -0.016798 1.814e-19)
(0.227834 -0.0126859 1.40667e-19)
(-0.0013907 0.0022412 -1.48989e-20)
(-0.00329651 0.00573085 -3.72987e-20)
(-0.0042097 0.00847142 3.91584e-20)
(-0.0041066 0.0104794 8.73009e-21)
(-0.00295219 0.0117785 5.70574e-20)
(-0.000700388 0.0124053 1.22803e-19)
(0.00269281 0.0124014 -1.7297e-19)
(0.0072683 0.0118116 -1.10552e-19)
(0.0130649 0.0106843 -1.76886e-19)
(0.0201194 0.00907181 9.13099e-20)
(0.0284663 0.00702974 6.09987e-20)
(0.0381374 0.00461692 1.26099e-19)
(0.0491618 0.00189548 -1.57168e-20)
(0.0615659 -0.00106876 2.11263e-19)
(0.0753725 -0.00420535 -9.07801e-20)
(0.0906014 -0.00743719 9.49921e-20)
(0.107268 -0.0106769 2.64248e-20)
(0.125384 -0.0138192 7.58408e-20)
(0.144955 -0.0167267 -8.31197e-20)
(0.165971 -0.0192097 -4.45237e-20)
(0.188347 -0.0210144 6.20245e-21)
(0.211969 -0.0217266 -1.16607e-19)
(0.237238 -0.0202746 -1.8266e-19)
(0.263396 -0.0156181 -4.60393e-20)
(-0.00130068 0.00198381 -4.03208e-20)
(-0.00292854 0.00497409 -4.3797e-20)
(-0.00342553 0.00725087 1.12909e-19)
(-0.00277266 0.00882859 -7.9399e-20)
(-0.000937484 0.0097307 -6.63233e-20)
(0.00212629 0.00999611 6.59395e-20)
(0.00646254 0.0096684 3.53652e-20)
(0.0121114 0.00879418 1.23916e-19)
(0.0191107 0.00742365 -6.75221e-20)
(0.0274957 0.00561054 1.33597e-19)
(0.0372989 0.00341177 -8.22167e-21)
(0.0485497 0.000887139 -2.50719e-19)
(0.0612742 -0.00190075 2.4681e-19)
(0.0754945 -0.00488655 -6.39272e-20)
(0.091229 -0.00800172 -1.21193e-20)
(0.108492 -0.0111735 2.08283e-20)
(0.127292 -0.0143222 -2.07234e-19)
(0.147635 -0.0173557 -1.75049e-19)
(0.169525 -0.0201555 1.11013e-19)
(0.192953 -0.0225565 -4.84009e-20)
(0.217845 -0.0243333 4.35899e-20)
(0.24411 -0.0250761 -8.22303e-20)
(0.272254 -0.0235631 2.54049e-19)
(0.301522 -0.0184887 -1.0014e-19)
(-0.00115681 0.00168387 -7.94218e-20)
(-0.00240003 0.00409945 1.72203e-19)
(-0.00237275 0.00584811 -9.02847e-20)
(-0.00106074 0.00694178 -6.09057e-20)
(0.00156585 0.00740328 3.96522e-20)
(0.00555354 0.00727381 1.70714e-19)
(0.0109461 0.00659915 9.34002e-20)
(0.0177831 0.00542771 -2.03742e-19)
(0.0261012 0.00381144 8.89175e-20)
(0.0359345 0.00180578 -8.45154e-20)
(0.0473136 -0.000530746 -1.60314e-19)
(0.0602655 -0.00313684 1.12268e-19)
(0.0748129 -0.00594874 -2.53473e-19)
(0.090974 -0.00890055 3.26045e-19)
(0.108761 -0.0119244 1.21598e-20)
(0.128182 -0.0149503 -2.70073e-21)
(0.149238 -0.0179056 4.82425e-20)
(0.171924 -0.0207113 -1.07897e-19)
(0.196235 -0.0232723 2.11437e-20)
(0.222162 -0.0254605 2.04242e-19)
(0.249636 -0.0271062 -1.35673e-20)
(0.278598 -0.0278528 -4.11147e-20)
(0.309702 -0.0263772 -2.06517e-20)
(0.342284 -0.021101 -1.32689e-19)
(-0.000952963 0.00134383 1.90457e-19)
(-0.00169374 0.00311451 -9.50633e-20)
(-0.00102413 0.00427606 -1.79205e-20)
(0.00106538 0.00483727 6.2764e-20)
(0.00460206 0.00481994 8.53443e-20)
(0.00963261 0.00426751 -1.9122e-19)
(0.0162009 0.00322789 2.2168e-19)
(0.0243458 0.00175127 2.44838e-20)
(0.0341034 -0.000108607 9.79728e-20)
(0.0455065 -0.00229449 -1.59698e-19)
(0.058584 -0.00474592 9.58549e-21)
(0.0733608 -0.00739961 7.06975e-20)
(0.0898566 -0.0101898 -9.38071e-20)
(0.108085 -0.0130486 1.11376e-19)
(0.128055 -0.0159069 7.00037e-20)
(0.149763 -0.0186946 -2.04498e-19)
(0.173203 -0.0213422 -9.0069e-20)
(0.198357 -0.0237805 2.64816e-19)
(0.225207 -0.0259359 6.29168e-21)
(0.253731 -0.0277234 1.98118e-19)
(0.283857 -0.0290553 -1.21936e-20)
(0.315557 -0.029696 -8.02999e-20)
(0.349673 -0.0283275 1.29138e-19)
(0.385798 -0.0231603 4.29259e-19)
(-0.000683198 0.000966842 4.98528e-20)
(-0.00079311 0.0020288 -2.65363e-20)
(0.000646258 0.00255072 8.58961e-20)
(0.00363981 0.00253744 -4.5268e-20)
(0.00821232 0.00200932 -1.26581e-20)
(0.0144108 0.00101186 -4.91221e-20)
(0.0222791 -0.000405042 9.95767e-20)
(0.0318558 -0.00218954 -8.4883e-20)
(0.0431762 -0.00428623 1.80034e-20)
(0.0562722 -0.00663604 3.33533e-19)
(0.0711714 -0.00917649 -8.71705e-20)
(0.087897 -0.0118419 2.1285e-20)
(0.106466 -0.0145639 -1.89264e-20)
(0.126889 -0.0172713 -1.88892e-20)
(0.14917 -0.0198912 -5.71596e-20)
(0.173299 -0.0223498 1.65533e-19)
(0.199261 -0.0245747 1.12379e-19)
(0.227024 -0.0264972 -1.37374e-19)
(0.256551 -0.028054 2.72881e-19)
(0.287798 -0.0291933 8.19986e-20)
(0.320673 -0.0299174 -1.4527e-19)
(0.355147 -0.0301721 -3.25659e-20)
(0.392266 -0.0287947 -1.02723e-19)
(0.432164 -0.0240198 -2.05778e-19)
(-0.000341924 0.000556804 3.07458e-20)
(0.000317329 0.000853983 1.24889e-19)
(0.0026624 0.00069131 -1.43448e-19)
(0.0066938 6.89517e-05 -1.18471e-19)
(0.0124339 -0.00099477 -5.14194e-21)
(0.0199301 -0.00245255 9.61862e-21)
(0.0292262 -0.00425272 -9.80298e-20)
(0.0403606 -0.00634211 6.41482e-20)
(0.053368 -0.00866395 1.27052e-20)
(0.0682794 -0.0111576 -2.18887e-19)
(0.0851217 -0.0137588 3.85056e-20)
(0.103916 -0.0163996 3.52556e-20)
(0.124679 -0.0190086 9.06162e-20)
(0.147418 -0.0215109 1.00283e-19)
(0.172133 -0.0238282 -7.92451e-20)
(0.198814 -0.0258794 -5.84501e-20)
(0.227437 -0.0275823 -7.94796e-20)
(0.257964 -0.0288562 -5.32196e-20)
(0.290343 -0.0296251 -1.02433e-19)
(0.324504 -0.0298355 -1.11665e-19)
(0.360311 -0.0295313 4.45883e-20)
(0.397662 -0.0287885 -1.94171e-19)
(0.437621 -0.0266563 1.77484e-19)
(0.481177 -0.022015 -1.19516e-19)
(7.59856e-05 0.000118402 7.21711e-21)
(0.00165166 -0.000396156 5.08036e-20)
(0.00504586 -0.00127954 -1.21541e-19)
(0.0102551 -0.0025371 1.93029e-19)
(0.0172994 -0.00415314 1.4826e-19)
(0.0262264 -0.00607885 3.96232e-20)
(0.0370801 -0.00826124 -1.39129e-19)
(0.0498985 -0.0106462 1.01362e-20)
(0.0647155 -0.0131762 -6.42036e-20)
(0.0815616 -0.0157895 8.55714e-21)
(0.100462 -0.0184208 1.11785e-19)
(0.121439 -0.0210007 -6.04734e-20)
(0.144505 -0.0234555 1.32347e-19)
(0.169668 -0.0257073 -1.69512e-20)
(0.196929 -0.0276727 7.36038e-20)
(0.226276 -0.0292627 4.41743e-20)
(0.257691 -0.0303826 2.29206e-20)
(0.29114 -0.0309302 1.83218e-19)
(0.326582 -0.0307957 -8.844e-20)
(0.363963 -0.0298755 -5.47691e-20)
(0.403174 -0.0281334 3.46005e-20)
(0.444098 -0.0255047 -7.46902e-20)
(0.487418 -0.0211087 7.71891e-20)
(0.53426 -0.0156005 -3.5501e-19)
(0.000575079 -0.00034291 5.05357e-20)
(0.00322221 -0.00170566 5.62449e-20)
(0.00781533 -0.00333587 6.81058e-20)
(0.0143472 -0.00524515 -1.3802e-19)
(0.0228358 -0.00742108 7.45628e-21)
(0.0333288 -0.00981378 6.7928e-20)
(0.0458701 -0.0123694 7.01936e-20)
(0.0604969 -0.0150335 1.05476e-19)
(0.0772426 -0.0177484 -1.55182e-19)
(0.0961362 -0.0204525 1.62542e-19)
(0.117202 -0.0230802 -1.72995e-19)
(0.14046 -0.0255623 6.44747e-20)
(0.165923 -0.0278249 -2.54634e-19)
(0.193597 -0.0297892 -2.68295e-20)
(0.223484 -0.0313706 7.29277e-20)
(0.255579 -0.0324769 -1.41194e-19)
(0.289871 -0.0330066 4.92145e-20)
(0.326353 -0.0328449 -7.48558e-20)
(0.36503 -0.0318582 1.1535e-19)
(0.405947 -0.0298967 -2.40259e-19)
(0.449257 -0.0267869 1.47878e-20)
(0.495474 -0.0221361 -1.92586e-19)
(0.54609 -0.0153752 1.50346e-19)
(0.604667 -0.010376 -1.95557e-19)
(0.00115921 -0.000820946 -1.31502e-19)
(0.00503939 -0.00305657 6.89356e-20)
(0.0109863 -0.00544851 1.88829e-20)
(0.0189892 -0.00801539 -1.47751e-19)
(0.0290643 -0.0107486 4.44393e-20)
(0.0412588 -0.0135977 1.34177e-19)
(0.0556163 -0.0165085 1.13957e-19)
(0.0721728 -0.0194271 -6.51023e-20)
(0.0909601 -0.0222965 1.50403e-19)
(0.112005 -0.0250562 1.52646e-19)
(0.135331 -0.0276421 9.86743e-20)
(0.160954 -0.0299869 -5.41093e-20)
(0.188884 -0.0320193 -4.86942e-21)
(0.219126 -0.0336637 7.7589e-20)
(0.251681 -0.0348398 -6.07613e-20)
(0.286545 -0.0354612 -2.45134e-19)
(0.323717 -0.0354347 4.71681e-20)
(0.363209 -0.0346584 -2.10825e-19)
(0.405065 -0.0330234 1.5e-19)
(0.449403 -0.0304269 -5.57863e-20)
(0.496525 -0.0267735 3.13975e-20)
(0.54718 -0.0219167 -5.10496e-20)
(0.602583 -0.0164798 2.1045e-19)
(0.663876 -0.015468 3.63996e-19)
(0.00183151 -0.00130887 5.09447e-20)
(0.00711144 -0.00442913 -3.9418e-20)
(0.0145707 -0.00758544 4.36515e-20)
(0.0241955 -0.0108041 3.50175e-20)
(0.0359999 -0.0140808 -4.044e-21)
(0.0500307 -0.0173652 3.6815e-21)
(0.06633 -0.0206033 6.85524e-20)
(0.0849322 -0.0237424 -9.21798e-20)
(0.105867 -0.0267272 -2.32131e-19)
(0.129157 -0.0294995 -5.08653e-20)
(0.154822 -0.0319985 3.95353e-20)
(0.182874 -0.0341607 -9.88232e-20)
(0.213317 -0.0359203 2.93845e-20)
(0.246151 -0.0372091 3.38274e-19)
(0.28137 -0.0379565 2.44829e-19)
(0.318965 -0.0380904 -1.69156e-19)
(0.35893 -0.0375383 -1.85148e-19)
(0.401275 -0.0362305 2.50435e-20)
(0.446042 -0.0341107 -1.31813e-19)
(0.493338 -0.0311633 -8.63215e-20)
(0.543427 -0.0274289 -3.18193e-20)
(0.596882 -0.0230308 9.92634e-20)
(0.654206 -0.0191467 -1.8298e-19)
(0.714714 -0.020121 5.36165e-20)
(0.00259436 -0.00179933 -8.26138e-20)
(0.00944446 -0.00580202 4.68153e-20)
(0.018577 -0.00971217 -2.40845e-20)
(0.0299756 -0.0135641 -5.92077e-20)
(0.0436517 -0.0173586 -7.48215e-20)
(0.0596509 -0.0210456 2.891e-20)
(0.0780136 -0.0245721 3.3457e-20)
(0.0987712 -0.0278873 1.15483e-20)
(0.121949 -0.0309387 9.8431e-20)
(0.147566 -0.0336716 9.36673e-20)
(0.175635 -0.0360296 -1.13951e-19)
(0.20616 -0.0379554 1.30599e-19)
(0.239138 -0.0393909 -8.54172e-20)
(0.274556 -0.0402783 -6.29137e-21)
(0.312396 -0.040561 -2.39454e-20)
(0.352632 -0.0401859 1.7305e-19)
(0.39524 -0.0391071 1.4262e-19)
(0.440202 -0.0372929 -5.385e-20)
(0.487518 -0.0347415 7.36489e-21)
(0.537225 -0.0315126 2.35529e-19)
(0.589447 -0.0277422 -1.18533e-19)
(0.644462 -0.0236783 -9.04584e-20)
(0.70217 -0.0205715 -1.94295e-21)
(0.76106 -0.0218807 -4.62599e-19)
(0.00344938 -0.00228457 -4.63149e-20)
(0.0120424 -0.0071528 1.08289e-19)
(0.0230104 -0.0117922 -9.22668e-20)
(0.036334 -0.0162458 -7.98684e-20)
(0.0520223 -0.0205196 -1.38853e-19)
(0.0701188 -0.0245644 9.09185e-20)
(0.0906609 -0.0283288 -9.88762e-20)
(0.113676 -0.0317648 1.43716e-19)
(0.139184 -0.0348234 5.21674e-20)
(0.167197 -0.0374544 -9.48876e-20)
(0.197719 -0.0396076 -8.12322e-20)
(0.230743 -0.0412328 -1.51135e-19)
(0.266253 -0.0422818 -2.0286e-19)
(0.304221 -0.042709 3.27591e-19)
(0.344607 -0.0424738 -2.47483e-19)
(0.387361 -0.0415441 2.36503e-19)
(0.432425 -0.0399011 -1.3189e-19)
(0.479737 -0.0375484 7.14089e-20)
(0.529232 -0.0345286 -7.11304e-20)
(0.580851 -0.0309522 1.44346e-19)
(0.634557 -0.0270021 -2.38957e-19)
(0.690367 -0.0229552 2.69314e-19)
(0.747806 -0.0199693 2.24241e-20)
(0.805134 -0.0207987 4.17103e-19)
(0.00439752 -0.00275655 -6.97307e-20)
(0.014907 -0.00845819 1.07835e-19)
(0.027872 -0.0137879 1.96751e-19)
(0.0432705 -0.0187974 -2.7261e-19)
(0.0611084 -0.0234988 5.8066e-20)
(0.0814261 -0.0278442 7.19702e-20)
(0.104257 -0.0317842 -8.90174e-20)
(0.129623 -0.0352743 -1.35419e-19)
(0.157537 -0.0382698 1.03999e-19)
(0.188002 -0.0407263 -2.14457e-19)
(0.22101 -0.0426003 1.10738e-19)
(0.256542 -0.0438504 -1.50509e-19)
(0.294563 -0.0444392 1.7539e-19)
(0.335023 -0.0443345 2.22819e-21)
(0.377858 -0.0435125 1.00221e-19)
(0.422984 -0.0419616 -8.16775e-21)
(0.470301 -0.039688 -5.41445e-20)
(0.519693 -0.0367246 -2.73041e-20)
(0.571021 -0.0331468 7.26442e-20)
(0.624125 -0.029094 -1.30551e-19)
(0.678831 -0.024764 -3.88298e-19)
(0.734952 -0.0204185 -3.94193e-20)
(0.791805 -0.01709 -7.93253e-20)
(0.847667 -0.0170146 4.32028e-19)
(0.00543901 -0.00320708 -1.51244e-19)
(0.0180381 -0.00969442 6.43552e-20)
(0.0331601 -0.0156604 1.51796e-19)
(0.05078 -0.0211663 4.96724e-20)
(0.0709003 -0.0262302 -1.84857e-21)
(0.0935572 -0.0308062 -1.13984e-19)
(0.118779 -0.0348477 1.12024e-19)
(0.14658 -0.038314 1.62825e-19)
(0.176964 -0.0411659 -1.50479e-19)
(0.209924 -0.0433652 1.42051e-19)
(0.245437 -0.0448762 1.42286e-19)
(0.283467 -0.0456674 -2.6322e-19)
(0.323959 -0.0457128 -1.5035e-20)
(0.366837 -0.0449943 1.27398e-19)
(0.412005 -0.0435048 -1.31126e-19)
(0.459343 -0.0412519 -1.98874e-19)
(0.508703 -0.0382643 2.94172e-19)
(0.55991 -0.0345985 -1.01028e-19)
(0.612755 -0.0303525 -2.02168e-19)
(0.666984 -0.0256811 1.03194e-19)
(0.722307 -0.0207802 -2.89942e-20)
(0.778395 -0.0158834 8.77653e-20)
(0.834456 -0.0119097 5.42876e-20)
(0.888866 -0.0107097 -2.81667e-19)
(0.0065734 -0.00362788 -6.65357e-20)
(0.0214332 -0.0108375 1.29771e-19)
(0.0388691 -0.017371 -1.72721e-19)
(0.0588527 -0.0232994 -2.51897e-20)
(0.0813823 -0.0286474 -2.40734e-20)
(0.106489 -0.0333717 -3.47866e-21)
(0.134194 -0.0374289 9.856e-20)
(0.164503 -0.0407831 3.81752e-20)
(0.197411 -0.043401 -2.25404e-20)
(0.232894 -0.0452517 -1.24668e-19)
(0.270916 -0.0463082 1.43048e-19)
(0.31142 -0.0465494 1.25674e-19)
(0.354326 -0.0459616 -1.40496e-19)
(0.39953 -0.044541 -9.97166e-20)
(0.446902 -0.042297 -8.07026e-20)
(0.496281 -0.0392559 1.55286e-19)
(0.54747 -0.0354658 -3.20721e-19)
(0.600237 -0.0310032 5.50095e-20)
(0.654303 -0.0259823 -4.77771e-20)
(0.709338 -0.0205662 -3.83962e-20)
(0.764959 -0.0149438 7.83385e-20)
(0.820735 -0.00932337 1.15279e-20)
(0.875822 -0.00453098 -2.41324e-19)
(0.928719 -0.0021189 -9.79512e-20)
(0.00779956 -0.00401065 -2.48004e-20)
(0.0250879 -0.0118635 1.28338e-19)
(0.0449899 -0.0188809 -5.3454e-20)
(0.0674736 -0.025144 -3.71595e-20)
(0.0925322 -0.030685 -9.32925e-20)
(0.120191 -0.0354633 7.77744e-20)
(0.150462 -0.0394396 -3.30087e-20)
(0.183342 -0.0425836 -1.30856e-19)
(0.218811 -0.0448688 -6.71616e-20)
(0.256834 -0.0462723 5.41423e-20)
(0.297353 -0.0467767 3.65859e-20)
(0.340289 -0.0463722 -9.40001e-20)
(0.385536 -0.045058 7.56868e-20)
(0.43296 -0.0428452 -8.78713e-20)
(0.482393 -0.0397598 3.2246e-20)
(0.533632 -0.0358458 1.49729e-19)
(0.586433 -0.0311698 -2.03093e-19)
(0.640507 -0.0258255 2.63291e-19)
(0.695517 -0.0199412 -2.18486e-19)
(0.751063 -0.0136854 2.41332e-19)
(0.806694 -0.0072412 1.14361e-19)
(0.861904 -0.000799771 1.77371e-21)
(0.915832 0.00488671 5.56593e-20)
(0.967099 0.00850878 -1.13336e-20)
(0.00911568 -0.0043471 2.11214e-20)
(0.0289956 -0.0127484 -2.41055e-20)
(0.0515098 -0.0201516 4.27566e-20)
(0.0766225 -0.0266484 -2.87718e-22)
(0.104321 -0.0322788 9.15057e-20)
(0.134623 -0.0370059 -4.30437e-20)
(0.167532 -0.0407951 3.1755e-20)
(0.203032 -0.0436225 -1.64115e-19)
(0.24109 -0.0454693 -2.49417e-20)
(0.281651 -0.0463217 -2.74161e-20)
(0.324639 -0.0461728 -1.02035e-19)
(0.36995 -0.0450249 2.05708e-19)
(0.41745 -0.0428913 4.48602e-20)
(0.466972 -0.0397985 1.03879e-19)
(0.51831 -0.0357893 -5.05809e-20)
(0.57122 -0.0309258 3.10002e-21)
(0.62541 -0.0252925 2.71085e-20)
(0.680542 -0.0189998 -1.29956e-19)
(0.736223 -0.0121891 -1.56937e-19)
(0.792 -0.00503505 6.18926e-20)
(0.847368 0.00228123 3.59624e-20)
(0.90177 0.00957733 -9.74203e-20)
(0.954345 0.0161607 -2.3682e-19)
(1.00383 0.0209267 9.77317e-20)
(0.0105192 -0.00462905 4.41692e-20)
(0.0331472 -0.013469 5.64443e-20)
(0.0584123 -0.0211457 -1.10635e-19)
(0.0862739 -0.0277621 -1.01109e-20)
(0.116714 -0.0333669 -1.07515e-19)
(0.14974 -0.0379275 -1.03056e-20)
(0.185345 -0.0414149 -8.83382e-20)
(0.2235 -0.0438125 -6.91981e-20)
(0.264157 -0.0451102 1.8777e-19)
(0.307242 -0.0453043 9.5733e-20)