# Probe 0 (5 -0.5 0)
# Probe 1 (5 0.5 0)
#       Probe             0             1
#        Time
        0.005     -0.711296     -0.711297
         0.01       0.08525     0.0852517
        0.015    -0.0120418    -0.0120418
         0.02    -0.0130011    -0.0130011
        0.025    -0.0129835    -0.0129835
         0.03    -0.0125678    -0.0125678
        0.035    -0.0120158    -0.0120158
         0.04    -0.0114036    -0.0114036
        0.045    -0.0107979    -0.0107979
         0.05    -0.0102013    -0.0102013
        0.055   -0.00965709   -0.00965709
         0.06   -0.00914446   -0.00914446
        0.065   -0.00868935   -0.00868935
         0.07   -0.00827838   -0.00827838
        0.075   -0.00787349   -0.00787349
         0.08   -0.00749675   -0.00749675
        0.085   -0.00714877   -0.00714877
         0.09   -0.00684625   -0.00684625
        0.095   -0.00658674   -0.00658674
          0.1   -0.00636282   -0.00636282
        0.105   -0.00610336   -0.00610336
         0.11   -0.00586039   -0.00586039
        0.115   -0.00563364   -0.00563363
         0.12   -0.00542212   -0.00542211
        0.125   -0.00522128   -0.00522128
         0.13    -0.0050334    -0.0050334
        0.135   -0.00485779   -0.00485779
         0.14   -0.00469021   -0.00469021
        0.145   -0.00452636   -0.00452636
         0.15   -0.00437015   -0.00437015
        0.155   -0.00425019   -0.00425019
         0.16   -0.00411837   -0.00411837
        0.165   -0.00399447   -0.00399447
         0.17   -0.00388008   -0.00388008
        0.175   -0.00376186   -0.00376186
         0.18   -0.00364804   -0.00364804
        0.185   -0.00353877   -0.00353877
         0.19    -0.0034313    -0.0034313
        0.195   -0.00332724   -0.00332724
          0.2   -0.00322832   -0.00322832
        0.205   -0.00314846   -0.00314846
         0.21   -0.00305699   -0.00305699
        0.215   -0.00296317   -0.00296317
         0.22   -0.00288017   -0.00288017
        0.225   -0.00284015   -0.00284015
         0.23   -0.00277482   -0.00277482
        0.235   -0.00270125   -0.00270125
         0.24    -0.0026294    -0.0026294
        0.245   -0.00255979   -0.00255979
         0.25   -0.00249242   -0.00249242
        0.255   -0.00242717   -0.00242717
         0.26   -0.00236386   -0.00236386
        0.265   -0.00230211   -0.00230211
         0.27   -0.00224014   -0.00224014
        0.275   -0.00218673   -0.00218673
         0.28   -0.00213525   -0.00213525
        0.285   -0.00208135   -0.00208136
         0.29   -0.00202884   -0.00202884
        0.295   -0.00197776   -0.00197776
          0.3   -0.00192804   -0.00192804
        0.305   -0.00187961   -0.00187961
         0.31   -0.00183239   -0.00183239
        0.315   -0.00178627   -0.00178627
         0.32   -0.00174127   -0.00174127
        0.325   -0.00169576   -0.00169576
         0.33   -0.00164918   -0.00164919
        0.335   -0.00159656   -0.00159656
         0.34   -0.00157771   -0.00157771
        0.345   -0.00154394   -0.00154394
         0.35   -0.00150367   -0.00150367
        0.355   -0.00146717   -0.00146717
         0.36   -0.00143183   -0.00143183
        0.365   -0.00139494   -0.00139494
         0.37   -0.00135899   -0.00135899
        0.375   -0.00132317   -0.00132317
         0.38   -0.00128568   -0.00128568
        0.385   -0.00125373   -0.00125373
         0.39   -0.00122737   -0.00122737
        0.395   -0.00119502   -0.00119502
          0.4   -0.00116298   -0.00116298
        0.405   -0.00113122   -0.00113122
         0.41   -0.00110015   -0.00110015
        0.415   -0.00106824   -0.00106824
         0.42   -0.00103292   -0.00103292
        0.425  -0.000995825  -0.000995825
         0.43   -0.00098514   -0.00098514
        0.435  -0.000971974  -0.000971973
         0.44  -0.000945181  -0.000945181
        0.445  -0.000917969  -0.000917968
         0.45  -0.000891482  -0.000891481
        0.455  -0.000865507  -0.000865507
         0.46  -0.000839982  -0.000839982
        0.465  -0.000814891  -0.000814891
         0.47  -0.000790212  -0.000790209
        0.475  -0.000765958  -0.000765957
         0.48  -0.000742095  -0.000742094
        0.485  -0.000718629  -0.000718628
         0.49  -0.000695588  -0.000695588
        0.495  -0.000673309  -0.000673308
          0.5   -0.00064986  -0.000649863
        0.505  -0.000627504  -0.000627502
         0.51  -0.000605651   -0.00060565
        0.515  -0.000584042  -0.000584042
         0.52  -0.000562571   -0.00056257
        0.525   -0.00054073  -0.000540729
         0.53  -0.000518263  -0.000518263
        0.535  -0.000502232  -0.000502234
         0.54  -0.000482216  -0.000482213
        0.545  -0.000462246  -0.000462245
         0.55  -0.000442424  -0.000442425
        0.555  -0.000422832  -0.000422831
         0.56  -0.000403222  -0.000403221
        0.565  -0.000383196  -0.000383196
         0.57  -0.000365844  -0.000365845
        0.575  -0.000348933  -0.000348933
         0.58  -0.000329784  -0.000329784
        0.585  -0.000307977  -0.000307977
         0.59  -0.000279883  -0.000279882
        0.595  -0.000283681  -0.000283681
          0.6  -0.000266861  -0.000266861
        0.605  -0.000249705  -0.000249705
         0.61  -0.000232206  -0.000232206
        0.615  -0.000215238  -0.000215238
         0.62  -0.000198012  -0.000198012
        0.625  -0.000181188  -0.000181187
         0.63  -0.000164662  -0.000164661
        0.635  -0.000148357  -0.000148358
         0.64  -0.000132097  -0.000132097
        0.645  -0.000115937  -0.000115937
         0.65  -9.97757e-05  -9.97754e-05
        0.655  -8.13026e-05  -8.13022e-05
         0.66   -6.8806e-05  -6.88056e-05
        0.665  -5.31419e-05  -5.31417e-05
         0.67  -3.82175e-05  -3.82242e-05
        0.675  -2.26538e-05  -2.26472e-05
         0.68  -7.51014e-06   -7.5149e-06
        0.685   8.23304e-06   8.23241e-06
         0.69   2.43499e-05     2.435e-05
        0.695    4.3571e-05   4.35711e-05
          0.7   5.03864e-05    5.0387e-05
        0.705   6.42588e-05   6.42603e-05
         0.71   7.82576e-05   7.82618e-05
        0.715   9.27949e-05   9.27955e-05
         0.72   0.000107091   0.000107091
        0.725   0.000121296   0.000121296
         0.73   0.000135414   0.000135414
        0.735   0.000149451   0.000149451
         0.74   0.000163417   0.000163417
        0.745   0.000177337   0.000177337
         0.75   0.000191298   0.000191299
        0.755   0.000205515   0.000205515
         0.76   0.000218927   0.000218926
        0.765   0.000231272   0.000231273
         0.77    0.00024478   0.000244781
        0.775    0.00025854   0.000258541
         0.78     0.0002727   0.000272701
        0.785   0.000284395   0.000284395
         0.79   0.000295505   0.000295505
        0.795    0.00030837   0.000308371
          0.8    0.00032139    0.00032139
        0.805   0.000334301   0.000334301
         0.81   0.000347047   0.000347047
        0.815   0.000359347   0.000359348
         0.82   0.000370111   0.000370111
        0.825   0.000385886   0.000385887
         0.83   0.000398617   0.000398617
        0.835   0.000411244   0.000411244
         0.84   0.000423849   0.000423849
        0.845   0.000436397   0.000436396
         0.85   0.000448435   0.000448436
        0.855   0.000460763   0.000460762
         0.86    0.00047308    0.00047308
        0.865   0.000485347   0.000485346
         0.87   0.000497559   0.000497558
        0.875   0.000509725   0.000509724
         0.88    0.00052186    0.00052186
        0.885   0.000533893   0.000533893
         0.89   0.000545901   0.000545907
        0.895   0.000557864   0.000557864
          0.9   0.000569789   0.000569789
        0.905   0.000581666   0.000581667
         0.91   0.000593503   0.000593503
        0.915   0.000605373   0.000605373
         0.92   0.000617049    0.00061705
        0.925   0.000626693   0.000626692
         0.93   0.000640095   0.000640096
        0.935   0.000651884   0.000651884
         0.94   0.000663266   0.000663266
        0.945   0.000674292   0.000674292
         0.95   0.000684309   0.000684309
        0.955   0.000690082   0.000690083
         0.96   0.000711214   0.000711214
        0.965   0.000723498   0.000723498
         0.97   0.000735079   0.000735079
        0.975   0.000746496   0.000746497
         0.98   0.000757811   0.000757811
        0.985   0.000769141    0.00076914
         0.99   0.000778811   0.000778813
        0.995   0.000785443   0.000785443
            1   0.000783067   0.000783065
        1.005   0.000816584   0.000816587
         1.01   0.000830997   0.000830996
        1.015   0.000842979   0.000842979
         1.02   0.000854672   0.000854672
        1.025   0.000866266   0.000866266
         1.03   0.000877814   0.000877814
        1.035   0.000889369   0.000889369
         1.04   0.000900862   0.000900862
        1.045    0.00091213    0.00091213
         1.05   0.000923589   0.000923588
        1.055   0.000935047   0.000935047
         1.06   0.000946498   0.000946498
        1.065   0.000957919   0.000957919
         1.07   0.000969361   0.000969361
        1.075   0.000980797   0.000980796
         1.08   0.000992228   0.000992228
        1.085    0.00100365    0.00100365
         1.09     0.0010151     0.0010151
        1.095     0.0010266     0.0010266
          1.1    0.00103849    0.00103849
        1.105     0.0010495     0.0010495
         1.11    0.00105989    0.00105989
        1.115    0.00107132    0.00107132
         1.12    0.00108256    0.00108256
        1.125    0.00109211    0.00109212
         1.13    0.00110196    0.00110195
        1.135    0.00111797    0.00111797
         1.14    0.00112965    0.00112965
        1.145    0.00114114    0.00114114
         1.15     0.0011526     0.0011526
        1.155    0.00116406    0.00116406
         1.16    0.00117554    0.00117554
        1.165    0.00118718    0.00118718
         1.17    0.00119879    0.00119879
        1.175    0.00120821    0.00120821
         1.18    0.00121889    0.00121889
        1.185    0.00122971    0.00122971
         1.19    0.00123991    0.00123991
        1.195     0.0012477     0.0012477
          1.2    0.00125159    0.00125159
        1.205    0.00127903    0.00127903
         1.21    0.00129103    0.00129103
        1.215    0.00130254    0.00130254
         1.22    0.00131391    0.00131391
        1.225    0.00132519    0.00132519
         1.23    0.00133639    0.00133639
        1.235    0.00134734    0.00134734
         1.24    0.00135782    0.00135782
        1.245    0.00137041    0.00137042
         1.25    0.00138242    0.00138243
        1.255    0.00139147    0.00139147
         1.26    0.00140131     0.0014013
        1.265    0.00141011     0.0014101
         1.27    0.00141308    0.00141308
        1.275    0.00142592    0.00142592
         1.28    0.00145443    0.00145443
        1.285    0.00146583    0.00146583
         1.29    0.00147665    0.00147665
        1.295    0.00148708    0.00148708
          1.3    0.00149694    0.00149694
        1.305    0.00150614    0.00150614
         1.31    0.00151384    0.00151384
        1.315    0.00151643    0.00151643
         1.32    0.00149323    0.00149323
        1.325    0.00154295    0.00154294
         1.33    0.00158777    0.00158777
        1.335    0.00159922    0.00159922
         1.34    0.00161079    0.00161079
        1.345    0.00162237    0.00162237
         1.35    0.00163412    0.00163411
        1.355    0.00164586    0.00164586
         1.36    0.00165759    0.00165759
        1.365    0.00166936    0.00166936
         1.37    0.00168115    0.00168115
        1.375      0.001693      0.001693
         1.38    0.00170509    0.00170509
        1.385     0.0017166     0.0017166
         1.39     0.0017283     0.0017283
        1.395    0.00174023    0.00174023
          1.4    0.00175221    0.00175221
        1.405    0.00176427    0.00176427
         1.41    0.00177664    0.00177664
        1.415    0.00178798    0.00178798
         1.42    0.00179999        0.0018
        1.425    0.00181209    0.00181209
         1.43     0.0018242     0.0018242
        1.435    0.00183633    0.00183633
         1.44    0.00184851    0.00184851
        1.445    0.00186078    0.00186078
         1.45    0.00187352    0.00187351
        1.455    0.00188516    0.00188517
         1.46    0.00189672    0.00189672
        1.465     0.0019088     0.0019088
         1.47    0.00192123    0.00192123
        1.475    0.00193336    0.00193336
         1.48    0.00194445    0.00194445
        1.485    0.00195657    0.00195657
         1.49    0.00196868    0.00196868
        1.495     0.0019807     0.0019807
          1.5    0.00199228    0.00199228
        1.505    0.00200495    0.00200495
         1.51    0.00201762    0.00201762
        1.515    0.00202936    0.00202936
         1.52    0.00204075    0.00204075
        1.525    0.00205111    0.00205111
         1.53    0.00205679    0.00205679
        1.535    0.00207952    0.00207952
         1.54    0.00209324    0.00209324
        1.545    0.00210587    0.00210587
         1.55    0.00211727    0.00211727
        1.555    0.00212865    0.00212865
         1.56    0.00214073    0.00214073
        1.565     0.0021529     0.0021529
         1.57    0.00215976    0.00215976
        1.575    0.00216956    0.00216956
         1.58    0.00217881    0.00217881
        1.585    0.00218661    0.00218661
         1.59    0.00219148    0.00219148
        1.595    0.00218873    0.00218873
          1.6    0.00214481    0.00214482
        1.605    0.00220247    0.00220246
         1.61     0.0022822     0.0022822
        1.615     0.0022967     0.0022967
         1.62    0.00230996    0.00230996
        1.625    0.00232338    0.00232338
         1.63     0.0023353     0.0023353
        1.635     0.0023467    0.00234669
         1.64    0.00235858    0.00235858
        1.645    0.00236971    0.00236971
         1.65    0.00237794    0.00237794
        1.655    0.00237888    0.00237888
         1.66     0.0024169     0.0024169
        1.665    0.00243587    0.00243587
         1.67       0.00245       0.00245
        1.675    0.00246385    0.00246384
         1.68    0.00247751    0.00247751
        1.685    0.00249124    0.00249125
         1.69    0.00250504    0.00250504
        1.695    0.00251894    0.00251894
          1.7    0.00253306    0.00253306
        1.705     0.0025468    0.00254681
         1.71    0.00256037    0.00256037
        1.715    0.00257455    0.00257455
         1.72    0.00258882    0.00258882
        1.725    0.00260322    0.00260322
         1.73    0.00261774    0.00261774
        1.735    0.00263243    0.00263243
         1.74    0.00264729    0.00264729
        1.745     0.0026624     0.0026624
         1.75    0.00267781    0.00267781
        1.755    0.00269365    0.00269365
         1.76     0.0027101     0.0027101
        1.765    0.00272757    0.00272757
         1.77    0.00274691    0.00274691
        1.775    0.00277066    0.00277066
         1.78    0.00281216    0.00281215
        1.785    0.00282796    0.00282796
         1.79    0.00278096    0.00278096
        1.795    0.00279176    0.00279177
          1.8    0.00280513    0.00280513
        1.805    0.00281899    0.00281899
         1.81    0.00283305    0.00283305
        1.815    0.00284731    0.00284731
         1.82    0.00286183    0.00286183
        1.825    0.00287535    0.00287535
         1.83    0.00288961    0.00288961
        1.835    0.00290393    0.00290393
         1.84     0.0029183     0.0029183
        1.845    0.00293279    0.00293279
         1.85    0.00294699    0.00294699
        1.855    0.00296129    0.00296129
         1.86    0.00297568    0.00297568
        1.865    0.00298949    0.00298949
         1.87    0.00300229    0.00300229
        1.875    0.00301643    0.00301643
         1.88    0.00303842    0.00303842
        1.885    0.00305509    0.00305509
         1.89    0.00307388    0.00307388
        1.895    0.00310371    0.00310371
          1.9    0.00309367    0.00309367
        1.905    0.00309998    0.00309998
         1.91    0.00311384    0.00311384
        1.915    0.00312806    0.00312806
         1.92    0.00314213    0.00314213
        1.925    0.00315631    0.00315631
         1.93    0.00316912    0.00316912
        1.935    0.00317824    0.00317823
         1.94    0.00318594    0.00318595
        1.945    0.00322133    0.00322133
         1.95     0.0032392     0.0032392
        1.955     0.0032563    0.00325629
         1.96    0.00327178    0.00327178
        1.965    0.00328122    0.00328122
         1.97    0.00329582    0.00329582
        1.975    0.00331052    0.00331052
         1.98     0.0033251     0.0033251
        1.985     0.0033394     0.0033394
         1.99    0.00335293    0.00335293
        1.995    0.00336293    0.00336293
            2    0.00337991    0.00337991
        2.005    0.00340494    0.00340493
         2.01    0.00342145    0.00342145
        2.015    0.00343683    0.00343683
         2.02    0.00345214    0.00345214
        2.025    0.00346746    0.00346746
         2.03    0.00348281    0.00348281
        2.035    0.00349819    0.00349819
         2.04     0.0035136     0.0035136
        2.045    0.00352905    0.00352905
         2.05    0.00354455    0.00354455
        2.055    0.00356009    0.00356009
         2.06    0.00357568    0.00357568
        2.065    0.00359132    0.00359132
         2.07    0.00360703    0.00360703
        2.075     0.0036228     0.0036228
         2.08    0.00363869    0.00363869
        2.085    0.00365402    0.00365402
         2.09    0.00366923    0.00366923
        2.095    0.00368489    0.00368489
          2.1    0.00369976    0.00369976
        2.105    0.00371573    0.00371573
         2.11    0.00373199    0.00373199
        2.115    0.00374845    0.00374845
         2.12     0.0037655    0.00376551
        2.125    0.00378088    0.00378088
         2.13    0.00379657    0.00379657
        2.135    0.00381241    0.00381241
         2.14    0.00382828    0.00382828
        2.145    0.00384417    0.00384417
         2.15    0.00386011     0.0038601
        2.155    0.00387607    0.00387607
         2.16    0.00389206    0.00389206
        2.165    0.00390809    0.00390809
         2.17    0.00392415    0.00392415
        2.175    0.00394024    0.00394024
         2.18    0.00395636    0.00395636
        2.185     0.0039725     0.0039725
         2.19    0.00398867    0.00398867
        2.195    0.00400487    0.00400487
          2.2    0.00402108    0.00402108
        2.205    0.00403729    0.00403729
         2.21    0.00405347    0.00405347
        2.215    0.00406951    0.00406951
         2.22    0.00408475    0.00408474
        2.225    0.00410102    0.00410102
         2.23     0.0041235    0.00412349
        2.235    0.00413979    0.00413979
         2.24    0.00415274    0.00415274
        2.245    0.00416894    0.00416894
         2.25    0.00418525    0.00418525
        2.255    0.00420157    0.00420157
         2.26    0.00421785    0.00421785
        2.265    0.00423405    0.00423405
         2.27    0.00425004    0.00425004
        2.275    0.00426546    0.00426546
         2.28    0.00427824    0.00427824
        2.285    0.00429624    0.00429624
         2.29    0.00432197    0.00432197
        2.295    0.00433926    0.00433926
          2.3    0.00435464    0.00435464
        2.305    0.00437123    0.00437123
         2.31    0.00438787    0.00438787
        2.315    0.00440453    0.00440453
         2.32    0.00442117    0.00442117
        2.325    0.00443778    0.00443778
         2.33    0.00445428    0.00445428
        2.335    0.00447053    0.00447053
         2.34    0.00448591    0.00448591
        2.345    0.00449885    0.00449884
         2.35    0.00452375    0.00452375
        2.355    0.00454271    0.00454271
         2.36    0.00455995    0.00455995
        2.365    0.00457708    0.00457708
         2.37    0.00459421    0.00459421
        2.375    0.00461136    0.00461136
         2.38    0.00462853    0.00462853
        2.385    0.00464574    0.00464574
         2.39    0.00466299    0.00466299
        2.395    0.00468027    0.00468027
          2.4    0.00469758    0.00469758
        2.405    0.00471494    0.00471494
         2.41    0.00473228    0.00473228
        2.415    0.00474965    0.00474965
         2.42    0.00476708    0.00476708
        2.425    0.00478454    0.00478454
         2.43    0.00480202    0.00480202
        2.435    0.00481952    0.00481952
         2.44    0.00483701    0.00483701
        2.445    0.00485449    0.00485449
         2.45    0.00487188    0.00487188
        2.455      0.004889      0.004889
         2.46    0.00490444    0.00490444
        2.465    0.00492439    0.00492439
         2.47    0.00494558    0.00494558
        2.475    0.00496359    0.00496359
         2.48    0.00498199    0.00498199
        2.485    0.00499899    0.00499899
         2.49    0.00501613    0.00501613
        2.495    0.00503397    0.00503397
          2.5    0.00505186    0.00505186
        2.505    0.00506978    0.00506978
         2.51    0.00508774    0.00508774
        2.515    0.00510572    0.00510572
         2.52    0.00512374    0.00512374
        2.525    0.00514179    0.00514179
         2.53    0.00515987    0.00515987
        2.535    0.00517797    0.00517797
         2.54    0.00519609    0.00519609
        2.545    0.00521422    0.00521422
         2.55    0.00523237    0.00523237
        2.555    0.00525051    0.00525051
         2.56    0.00526856    0.00526856
        2.565    0.00528646    0.00528646
         2.57    0.00530364    0.00530364
        2.575    0.00532079     0.0053208
         2.58    0.00534314    0.00534314
        2.585    0.00536205    0.00536205
         2.59    0.00538042    0.00538042
        2.595    0.00539876    0.00539876
          2.6    0.00541708    0.00541708
        2.605    0.00543538    0.00543538
         2.61    0.00545364    0.00545364
        2.615    0.00547179    0.00547179
         2.62    0.00548964    0.00548964
        2.625    0.00550626    0.00550626
         2.63    0.00552385    0.00552385
        2.635    0.00554878    0.00554879
         2.64    0.00556777    0.00556777
        2.645    0.00558642    0.00558642
         2.65    0.00560504    0.00560504
        2.655    0.00562367    0.00562367
         2.66    0.00564231    0.00564231
        2.665    0.00566095    0.00566095
         2.67     0.0056796     0.0056796
        2.675    0.00569824    0.00569824
         2.68    0.00571683    0.00571683
        2.685    0.00573528    0.00573528
         2.69    0.00575328    0.00575327
        2.695    0.00576919    0.00576919
          2.7    0.00579321    0.00579321
        2.705    0.00581329    0.00581329
         2.71    0.00583197    0.00583197
        2.715     0.0058515     0.0058515
         2.72    0.00587058    0.00587058
        2.725    0.00588962    0.00588962
         2.73    0.00590869    0.00590869
        2.735    0.00592777    0.00592777
         2.74    0.00594688    0.00594688
        2.745    0.00596602    0.00596602
         2.75    0.00598518    0.00598518
        2.755    0.00600436    0.00600436
         2.76    0.00602357    0.00602357
        2.765     0.0060428     0.0060428
         2.77    0.00606204    0.00606204
        2.775    0.00608131    0.00608131
         2.78    0.00610057    0.00610057
        2.785    0.00611983    0.00611983
         2.79    0.00613905    0.00613905
        2.795    0.00615813    0.00615813
          2.8    0.00617672    0.00617672
        2.805    0.00619462    0.00619462
         2.81    0.00621824    0.00621824
        2.815    0.00623815    0.00623814
         2.82    0.00625772    0.00625772
        2.825    0.00627727    0.00627727
         2.83    0.00629683    0.00629683
        2.835    0.00631641    0.00631641
         2.84    0.00633601    0.00633601
        2.845    0.00635564    0.00635564
         2.85    0.00637529    0.00637529
        2.855    0.00639496    0.00639496
         2.86    0.00641466    0.00641466
        2.865    0.00643439    0.00643439
         2.87    0.00645413    0.00645413
        2.875    0.00647389    0.00647389
         2.88    0.00649367    0.00649367
        2.885    0.00651347    0.00651347
         2.89    0.00653327    0.00653327
        2.895    0.00655307    0.00655307
          2.9    0.00657284    0.00657284
        2.905     0.0065925     0.0065925
         2.91    0.00661148    0.00661148
        2.915    0.00663234    0.00663235
         2.92    0.00665325    0.00665325
        2.925    0.00667289    0.00667289
         2.93    0.00669139    0.00669138
        2.935    0.00671358    0.00671358
         2.94    0.00673399    0.00673399
        2.945    0.00675404    0.00675404
         2.95    0.00677405    0.00677405
        2.955    0.00679403    0.00679403
         2.96    0.00681395    0.00681395
        2.965    0.00683368    0.00683368
         2.97     0.0068528     0.0068528
        2.975    0.00687134    0.00687134
         2.98    0.00689612    0.00689612
        2.985    0.00691692    0.00691692
         2.99    0.00693724    0.00693724
        2.995    0.00695753    0.00695753
            3    0.00697744    0.00697744
        3.005    0.00699703    0.00699703
         3.01    0.00701742    0.00701742
        3.015    0.00703765    0.00703765
         3.02     0.0070579     0.0070579
        3.025    0.00707721    0.00707722
         3.03    0.00709726    0.00709725
        3.035     0.0071175     0.0071175
         3.04    0.00713734    0.00713734
        3.045    0.00715608    0.00715608
         3.05    0.00718018    0.00718018
        3.055    0.00720109    0.00720109
         3.06    0.00722162    0.00722162
        3.065    0.00724212    0.00724212
         3.07    0.00726261     0.0072626
        3.075     0.0072831     0.0072831
         3.08     0.0073036     0.0073036
        3.085    0.00732411    0.00732411
         3.09    0.00734464    0.00734464
        3.095    0.00736517    0.00736517
          3.1    0.00738571    0.00738571
        3.105    0.00740627    0.00740627
         3.11    0.00742683    0.00742682
        3.115    0.00744739    0.00744739
         3.12    0.00746796    0.00746796
        3.125    0.00748851    0.00748851
         3.13    0.00750905    0.00750905
        3.135    0.00752953    0.00752953
         3.14    0.00754984    0.00754984
        3.145    0.00756922    0.00756922
         3.15    0.00759044    0.00759044
        3.155    0.00761357    0.00761357
         3.16    0.00763429    0.00763429
        3.165    0.00765498    0.00765498
         3.17    0.00767567    0.00767567
        3.175    0.00769637    0.00769637
         3.18    0.00771708    0.00771708
        3.185     0.0077378     0.0077378
         3.19    0.00775853    0.00775853
        3.195    0.00777927    0.00777927
          3.2    0.00780002    0.00780002
        3.205    0.00782078    0.00782078
         3.21    0.00784155    0.00784155
        3.215    0.00786232    0.00786232
         3.22    0.00788309    0.00788309
        3.225    0.00790387    0.00790387
         3.23    0.00792464    0.00792464
        3.235     0.0079454     0.0079454
         3.24    0.00796613    0.00796613
        3.245    0.00798676    0.00798676
         3.25    0.00800675    0.00800674
        3.255    0.00802865    0.00802866
         3.26    0.00804997    0.00804997
        3.265    0.00807074    0.00807074
         3.27    0.00809133    0.00809133
        3.275    0.00811138    0.00811138
         3.28    0.00813367    0.00813367
        3.285    0.00815459    0.00815459
         3.29    0.00817543    0.00817543
        3.295    0.00819623    0.00819623
          3.3    0.00821698    0.00821697
        3.305    0.00823759    0.00823759
         3.31    0.00825815    0.00825815
        3.315    0.00827868    0.00827868
         3.32     0.0082984     0.0082984
        3.325    0.00832232    0.00832232
         3.33    0.00834337    0.00834337
        3.335    0.00836426    0.00836426
         3.34    0.00838511    0.00838511
        3.345    0.00840596    0.00840596
         3.35     0.0084268     0.0084268
        3.355    0.00844763    0.00844763
         3.36    0.00846846    0.00846846
        3.365    0.00848928    0.00848928
         3.37    0.00851009    0.00851009
        3.375    0.00853087    0.00853087
         3.38    0.00855162    0.00855162
        3.385    0.00857227    0.00857227
         3.39    0.00859257    0.00859257
        3.395    0.00861244    0.00861244
          3.4    0.00863569    0.00863569
        3.405    0.00865665    0.00865665
         3.41    0.00867749    0.00867749
        3.415     0.0086983     0.0086983
         3.42     0.0087191     0.0087191
        3.425    0.00873989    0.00873989
         3.43    0.00876067    0.00876067
        3.435    0.00878143    0.00878143
         3.44    0.00880219    0.00880219
        3.445    0.00882293    0.00882293
         3.45    0.00884367    0.00884367
        3.455     0.0088644     0.0088644
         3.46    0.00888511    0.00888511
        3.465    0.00890581    0.00890581
         3.47    0.00892649    0.00892649
        3.475    0.00894704    0.00894704
         3.48    0.00896752    0.00896752
        3.485    0.00898738    0.00898738
         3.49    0.00900871    0.00900871
        3.495     0.0090305     0.0090305
          3.5    0.00905103    0.00905103
        3.505    0.00907165    0.00907164
         3.51    0.00909226    0.00909226
        3.515    0.00911288    0.00911287
         3.52    0.00913353    0.00913353
        3.525    0.00915438    0.00915438
         3.53    0.00917523    0.00917523
        3.535     0.0091946     0.0091946
         3.54    0.00921509    0.00921509
        3.545    0.00923557    0.00923557
         3.55    0.00925605    0.00925605
        3.555    0.00927651    0.00927651