# Probe 0 (5 -0.5 0)
# Probe 1 (5 0.5 0)
#       Probe             0             1
#        Time
        0.005             (0.996975 0.0017871 -3.03548e-20)             (0.996975 -0.00178708 5.49439e-21)
         0.01             (0.997424 0.00136627 3.59524e-21)             (0.997424 -0.00136627 -8.06261e-22)
        0.015             (0.997361 0.00137363 -5.30254e-22)             (0.997361 -0.00137363 8.04632e-23)
         0.02             (0.997293 0.00138502 -5.7013e-22)             (0.997293 -0.00138502 8.89087e-23)
        0.025             (0.997226 0.0013984 -5.67905e-22)             (0.997226 -0.0013984 8.94355e-23)
         0.03             (0.99716 0.00141252 -5.48859e-22)             (0.99716 -0.00141252 8.67351e-23)
        0.035             (0.997097 0.00142678 -5.24218e-22)             (0.997097 -0.00142678 8.29352e-23)
         0.04             (0.997036 0.0014409 -4.9706e-22)             (0.997036 -0.0014409 7.85675e-23)
        0.045             (0.996979 0.00145475 -4.70315e-22)             (0.996979 -0.00145476 7.42213e-23)
         0.05             (0.996923 0.00146817 -4.44096e-22)             (0.996923 -0.00146817 6.98836e-23)
        0.055             (0.996871 0.00148124 -4.20203e-22)             (0.996871 -0.00148124 6.59957e-23)
         0.06             (0.99682 0.00149395 -3.97732e-22)             (0.99682 -0.00149395 6.23155e-23)
        0.065             (0.996771 0.00150645 -3.77764e-22)             (0.996771 -0.00150645 5.9127e-23)
         0.07             (0.996724 0.00151883 -3.59728e-22)             (0.996724 -0.00151883 5.62926e-23)
        0.075             (0.996679 0.00153094 -3.42019e-22)             (0.996679 -0.00153094 5.34173e-23)
         0.08             (0.996635 0.0015428 -3.25546e-22)             (0.996635 -0.0015428 5.07452e-23)
        0.085             (0.996592 0.00155452 -3.103e-22)             (0.996592 -0.00155452 4.8313e-23)
         0.09             (0.996551 0.0015661 -2.97081e-22)             (0.996551 -0.0015661 4.62114e-23)
        0.095             (0.99651 0.0015775 -2.85809e-22)             (0.99651 -0.0015775 4.44074e-23)
          0.1             (0.996471 0.00158873 -2.76126e-22)             (0.996471 -0.00158873 4.28698e-23)
        0.105             (0.996432 0.00159984 -2.64804e-22)             (0.996432 -0.00159984 4.10768e-23)
         0.11             (0.996394 0.00161084 -2.54207e-22)             (0.996394 -0.00161084 3.94014e-23)
        0.115             (0.996357 0.00162175 -2.4432e-22)             (0.996357 -0.00162175 3.78418e-23)
         0.12             (0.996321 0.00163256 -2.351e-22)             (0.996321 -0.00163256 3.63903e-23)
        0.125             (0.996285 0.00164329 -2.26353e-22)             (0.996285 -0.00164329 3.50111e-23)
         0.13             (0.99625 0.00165395 -2.18171e-22)             (0.99625 -0.00165395 3.37239e-23)
        0.135             (0.996216 0.00166455 -2.10521e-22)             (0.996216 -0.00166455 3.25282e-23)
         0.14             (0.996182 0.00167509 -2.03226e-22)             (0.996182 -0.00167509 3.13813e-23)
        0.145             (0.996149 0.00168553 -1.96102e-22)             (0.996149 -0.00168553 3.02382e-23)
         0.15             (0.996116 0.00169589 -1.89314e-22)             (0.996116 -0.00169589 2.91474e-23)
        0.155             (0.996084 0.00170637 -1.84092e-22)             (0.996084 -0.00170637 2.84595e-23)
         0.16             (0.996052 0.00171682 -1.78369e-22)             (0.996052 -0.00171682 2.75803e-23)
        0.165             (0.99602 0.00172726 -1.72977e-22)             (0.99602 -0.00172727 2.67543e-23)
         0.17             (0.995989 0.00173774 -1.67991e-22)             (0.995989 -0.00173774 2.60131e-23)
        0.175             (0.995958 0.00174818 -1.6286e-22)             (0.995958 -0.00174818 2.52074e-23)
         0.18             (0.995927 0.00175858 -1.57924e-22)             (0.995927 -0.00175858 2.44299e-23)
        0.185             (0.995897 0.00176894 -1.53187e-22)             (0.995897 -0.00176894 2.36841e-23)
         0.19             (0.995867 0.00177926 -1.48531e-22)             (0.995867 -0.00177926 2.29482e-23)
        0.195             (0.995837 0.00178953 -1.44027e-22)             (0.995837 -0.00178953 2.22301e-23)
          0.2             (0.995808 0.00179977 -1.39743e-22)             (0.995808 -0.00179977 2.15646e-23)
        0.205             (0.995779 0.00181014 -1.3626e-22)             (0.995779 -0.00181014 2.11179e-23)
         0.21             (0.99575 0.00182053 -1.32299e-22)             (0.99575 -0.00182053 2.05481e-23)
        0.215             (0.995721 0.001831 -1.28242e-22)             (0.995721 -0.001831 2.00171e-23)
         0.22             (0.995693 0.00184146 -1.24651e-22)             (0.995693 -0.00184146 1.94618e-23)
        0.225             (0.995664 0.00185155 -1.22908e-22)             (0.995664 -0.00185155 1.87957e-23)
         0.23             (0.995636 0.00186153 -1.20079e-22)             (0.995636 -0.00186153 1.82415e-23)
        0.235             (0.995608 0.00187149 -1.16896e-22)             (0.995608 -0.00187149 1.77408e-23)
         0.24             (0.99558 0.00188145 -1.13788e-22)             (0.99558 -0.00188145 1.72596e-23)
        0.245             (0.995553 0.00189141 -1.10778e-22)             (0.995553 -0.00189141 1.67949e-23)
         0.25             (0.995525 0.00190136 -1.07865e-22)             (0.995525 -0.00190136 1.6345e-23)
        0.255             (0.995498 0.00191132 -1.05044e-22)             (0.995498 -0.00191132 1.59086e-23)
         0.26             (0.995471 0.00192127 -1.02309e-22)             (0.995471 -0.00192127 1.5484e-23)
        0.265             (0.995444 0.00193121 -9.96415e-23)             (0.995444 -0.00193121 1.50674e-23)
         0.27             (0.995417 0.00194113 -9.69706e-23)             (0.995417 -0.00194113 1.46401e-23)
        0.275             (0.99539 0.00195109 -9.46513e-23)             (0.99539 -0.00195109 1.43011e-23)
         0.28             (0.995363 0.00196108 -9.24209e-23)             (0.995363 -0.00196108 1.39661e-23)
        0.285             (0.995336 0.00197107 -9.00926e-23)             (0.995336 -0.00197107 1.36031e-23)
         0.29             (0.99531 0.00198106 -8.78249e-23)             (0.99531 -0.00198106 1.32485e-23)
        0.295             (0.995283 0.00199105 -8.56194e-23)             (0.995283 -0.00199105 1.29029e-23)
          0.3             (0.995257 0.00200104 -8.34727e-23)             (0.995257 -0.00200104 1.25659e-23)
        0.305             (0.995231 0.00201103 -8.13819e-23)             (0.995231 -0.00201103 1.22367e-23)
         0.31             (0.995204 0.00202103 -7.93431e-23)             (0.995204 -0.00202103 1.19148e-23)
        0.315             (0.995178 0.00203103 -7.73523e-23)             (0.995178 -0.00203103 1.15991e-23)
         0.32             (0.995152 0.00204103 -7.54092e-23)             (0.995152 -0.00204103 1.12889e-23)
        0.325             (0.995126 0.00205103 -7.34437e-23)             (0.995126 -0.00205103 1.09699e-23)
         0.33             (0.9951 0.00206101 -7.14297e-23)             (0.9951 -0.00206101 1.06312e-23)
        0.335             (0.995075 0.00207092 -6.91421e-23)             (0.995075 -0.00207092 1.02007e-23)
         0.34             (0.995049 0.00208098 -6.83638e-23)             (0.995049 -0.00208098 1.02139e-23)
        0.345             (0.995023 0.00209109 -6.69184e-23)             (0.995023 -0.00209109 1.00218e-23)
         0.35             (0.994997 0.00210119 -6.51848e-23)             (0.994997 -0.00210119 9.74347e-24)
        0.355             (0.994971 0.0021113 -6.36126e-23)             (0.994971 -0.0021113 9.49099e-24)
         0.36             (0.994945 0.00212143 -6.20834e-23)             (0.994945 -0.00212143 9.25458e-24)
        0.365             (0.99492 0.00213157 -6.04938e-23)             (0.99492 -0.00213157 8.9985e-24)
         0.37             (0.994894 0.00214171 -5.89455e-23)             (0.994894 -0.00214171 8.74804e-24)
        0.375             (0.994868 0.00215185 -5.7404e-23)             (0.994868 -0.00215185 8.49597e-24)
         0.38             (0.994843 0.00216197 -5.5796e-23)             (0.994843 -0.00216197 8.22102e-24)
        0.385             (0.994817 0.00217211 -5.44163e-23)             (0.994817 -0.00217211 8.00657e-24)
         0.39             (0.994791 0.00218233 -5.32641e-23)             (0.994791 -0.00218233 7.85953e-24)
        0.395             (0.994766 0.00219255 -5.18717e-23)             (0.994766 -0.00219255 7.6362e-24)
          0.4             (0.99474 0.00220278 -5.04935e-23)             (0.99474 -0.00220278 7.41433e-24)
        0.405             (0.994715 0.00221302 -4.91278e-23)             (0.994715 -0.00221302 7.19391e-24)
         0.41             (0.994689 0.00222328 -4.77914e-23)             (0.994689 -0.00222328 6.98065e-24)
        0.415             (0.994664 0.00223353 -4.64221e-23)             (0.994664 -0.00223353 6.7586e-24)
         0.42             (0.994638 0.00224377 -4.49129e-23)             (0.994638 -0.00224377 6.50123e-24)
        0.425             (0.994613 0.00225405 -4.33418e-23)             (0.994613 -0.00225405 6.28933e-24)
         0.43             (0.994587 0.00226442 -4.28474e-23)             (0.994587 -0.00226442 6.2442e-24)
        0.435             (0.994561 0.00227476 -4.22365e-23)             (0.994561 -0.00227476 6.07843e-24)
         0.44             (0.994536 0.00228512 -4.10836e-23)             (0.994536 -0.00228512 5.89071e-24)
        0.445             (0.99451 0.00229549 -3.99135e-23)             (0.99451 -0.00229549 5.70034e-24)
         0.45             (0.994485 0.00230587 -3.87747e-23)             (0.994485 -0.00230587 5.5154e-24)
        0.455             (0.994459 0.00231627 -3.76579e-23)             (0.994459 -0.00231627 5.33408e-24)
         0.46             (0.994434 0.00232669 -3.65604e-23)             (0.994434 -0.00232669 5.15586e-24)
        0.465             (0.994408 0.00233713 -3.54816e-23)             (0.994408 -0.00233713 4.9806e-24)
         0.47             (0.994383 0.00234758 -3.44205e-23)             (0.994383 -0.00234758 4.80816e-24)
        0.475             (0.994357 0.00235804 -3.33777e-23)             (0.994357 -0.00235804 4.63859e-24)
         0.48             (0.994332 0.00236853 -3.23516e-23)             (0.994332 -0.00236853 4.47167e-24)
        0.485             (0.994306 0.00237904 -3.13426e-23)             (0.994306 -0.00237903 4.30745e-24)
         0.49             (0.994281 0.00238956 -3.0352e-23)             (0.994281 -0.00238956 4.14614e-24)
        0.495             (0.994255 0.0024001 -2.93939e-23)             (0.994255 -0.0024001 3.99036e-24)
          0.5             (0.994229 0.00241066 -2.83861e-23)             (0.994229 -0.00241066 3.82514e-24)
        0.505             (0.994204 0.00242124 -2.7425e-23)             (0.994204 -0.00242124 3.668e-24)
         0.51             (0.994178 0.00243185 -2.64856e-23)             (0.994178 -0.00243184 3.51433e-24)
        0.515             (0.994152 0.00244247 -2.55568e-23)             (0.994152 -0.00244246 3.36204e-24)
         0.52             (0.994127 0.0024531 -2.46345e-23)             (0.994127 -0.0024531 3.21e-24)
        0.525             (0.994101 0.00246375 -2.36984e-23)             (0.994101 -0.00246375 3.05246e-24)
         0.53             (0.994075 0.00247441 -2.27371e-23)             (0.994075 -0.00247441 2.88807e-24)
        0.535             (0.994049 0.00248513 -2.20349e-23)             (0.994049 -0.00248513 2.79112e-24)
         0.54             (0.994024 0.00249587 -2.1174e-23)             (0.994024 -0.00249587 2.65006e-24)
        0.545             (0.993998 0.00250664 -2.03152e-23)             (0.993998 -0.00250664 2.50886e-24)
         0.55             (0.993972 0.00251742 -1.94628e-23)             (0.993972 -0.00251742 2.3684e-24)
        0.555             (0.993946 0.00252824 -1.86201e-23)             (0.993946 -0.00252824 2.22933e-24)
         0.56             (0.99392 0.00253907 -1.77765e-23)             (0.99392 -0.00253907 2.08961e-24)
        0.565             (0.993894 0.00254992 -1.69148e-23)             (0.993894 -0.00254992 1.94613e-24)
         0.57             (0.993868 0.00256081 -1.61668e-23)             (0.993868 -0.00256081 1.82247e-24)
        0.575             (0.993842 0.00257172 -1.54364e-23)             (0.993842 -0.00257172 1.70083e-24)
         0.58             (0.993816 0.00258265 -1.46078e-23)             (0.993816 -0.00258265 1.55914e-24)
        0.585             (0.99379 0.00259361 -1.36553e-23)             (0.99379 -0.00259361 1.3877e-24)
         0.59             (0.993764 0.00260457 -1.24061e-23)             (0.993764 -0.00260457 1.14293e-24)
        0.595             (0.993737 0.0026156 -1.26528e-23)             (0.993737 -0.0026156 1.25655e-24)
          0.6             (0.993711 0.00262666 -1.19331e-23)             (0.993711 -0.00262666 1.14037e-24)
        0.605             (0.993685 0.00263774 -1.11967e-23)             (0.993685 -0.00263774 1.01946e-24)
         0.61             (0.993658 0.00264885 -1.04453e-23)             (0.993658 -0.00264885 8.95301e-25)
        0.615             (0.993632 0.00265999 -9.71651e-24)             (0.993632 -0.00265999 7.7495e-25)
         0.62             (0.993606 0.00267115 -8.97672e-24)             (0.993606 -0.00267115 6.52305e-25)
        0.625             (0.993579 0.00268233 -8.25449e-24)             (0.993579 -0.00268233 5.32371e-25)
         0.63             (0.993552 0.00269355 -7.54455e-24)             (0.993552 -0.00269355 4.14897e-25)
        0.635             (0.993526 0.00270479 -6.84372e-24)             (0.993526 -0.00270479 2.99235e-25)
         0.64             (0.993499 0.00271607 -6.14544e-24)             (0.993499 -0.00271606 1.83311e-25)
        0.645             (0.993472 0.00272736 -5.45171e-24)             (0.993472 -0.00272736 6.77331e-26)
         0.65             (0.993446 0.00273869 -4.75846e-24)             (0.993446 -0.00273869 -4.89339e-26)
        0.655             (0.993419 0.00275001 -3.9744e-24)             (0.993419 -0.00275 -2.00791e-25)
         0.66             (0.993392 0.0027614 -3.42658e-24)             (0.993392 -0.0027614 -2.63896e-25)
        0.665             (0.993365 0.00277282 -2.75424e-24)             (0.993365 -0.00277282 -3.75386e-25)
         0.67             (0.993338 0.00278427 -2.11375e-24)             (0.993338 -0.00278427 -4.81542e-25)
        0.675             (0.993311 0.00279575 -1.44637e-24)             (0.993311 -0.00279575 -5.92298e-25)
         0.68             (0.993284 0.00280726 -7.97268e-25)             (0.993284 -0.00280726 -7.00425e-25)
        0.685             (0.993257 0.0028188 -1.2353e-25)             (0.993257 -0.0028188 -8.11403e-25)
         0.69             (0.99323 0.00283037 5.62736e-25)             (0.99323 -0.00283037 -9.23885e-25)
        0.695             (0.993203 0.00284196 1.36834e-24)             (0.993203 -0.00284196 -1.05035e-24)
          0.7             (0.993175 0.0028536 1.69616e-24)             (0.993175 -0.0028536 -1.12135e-24)
        0.705             (0.993148 0.00286527 2.29317e-24)             (0.993148 -0.00286527 -1.21955e-24)
         0.71             (0.993121 0.00287697 2.89451e-24)             (0.993121 -0.00287697 -1.32087e-24)
        0.715             (0.993093 0.0028887 3.51826e-24)             (0.993093 -0.0028887 -1.42517e-24)
         0.72             (0.993066 0.00290046 4.13168e-24)             (0.993066 -0.00290046 -1.52816e-24)
        0.725             (0.993038 0.00291226 4.74108e-24)             (0.993038 -0.00291226 -1.63048e-24)
         0.73             (0.99301 0.00292409 5.34674e-24)             (0.99301 -0.00292409 -1.73219e-24)
        0.735             (0.992983 0.00293595 5.94885e-24)             (0.992983 -0.00293595 -1.83334e-24)
         0.74             (0.992955 0.00294784 6.5479e-24)             (0.992955 -0.00294784 -1.93402e-24)
        0.745             (0.992927 0.00295977 7.14494e-24)             (0.992927 -0.00295977 -2.0344e-24)
         0.75             (0.992899 0.00297173 7.7437e-24)             (0.992899 -0.00297173 -2.13518e-24)
        0.755             (0.992872 0.00298373 8.35331e-24)             (0.992872 -0.00298373 -2.238e-24)
         0.76             (0.992844 0.00299575 8.92854e-24)             (0.992844 -0.00299575 -2.3346e-24)
        0.765             (0.992816 0.00300782 9.45823e-24)             (0.992816 -0.00300782 -2.42302e-24)
         0.77             (0.992787 0.00301992 1.00375e-23)             (0.992787 -0.00301992 -2.52055e-24)
        0.775             (0.992759 0.00303205 1.06274e-23)             (0.992759 -0.00303205 -2.62001e-24)
         0.78             (0.992731 0.00304422 1.12345e-23)             (0.992731 -0.00304422 -2.7226e-24)
        0.785             (0.992703 0.00305643 1.17363e-23)             (0.992703 -0.00305643 -2.80616e-24)
         0.79             (0.992674 0.00306868 1.22132e-23)             (0.992674 -0.00306868 -2.88531e-24)
        0.795             (0.992646 0.00308096 1.27649e-23)             (0.992646 -0.00308096 -2.97806e-24)
          0.8             (0.992617 0.00309329 1.33234e-23)             (0.992617 -0.00309329 -3.07189e-24)
        0.805             (0.992589 0.00310565 1.38775e-23)             (0.992589 -0.00310565 -3.16472e-24)
         0.81             (0.99256 0.00311805 1.44251e-23)             (0.99256 -0.00311805 -3.25579e-24)
        0.815             (0.992531 0.0031305 1.49568e-23)             (0.992531 -0.0031305 -3.34138e-24)
         0.82             (0.992503 0.00314302 1.54347e-23)             (0.992503 -0.00314302 -3.4069e-24)
        0.825             (0.992474 0.00315552 1.60839e-23)             (0.992474 -0.00315552 -3.53914e-24)
         0.83             (0.992445 0.00316807 1.66288e-23)             (0.992445 -0.00316807 -3.63164e-24)
        0.835             (0.992416 0.00318065 1.71697e-23)             (0.992416 -0.00318065 -3.72304e-24)
         0.84             (0.992387 0.00319327 1.77098e-23)             (0.992387 -0.00319326 -3.81421e-24)
        0.845             (0.992358 0.00320592 1.82475e-23)             (0.992358 -0.00320592 -3.90491e-24)
         0.85             (0.992328 0.00321862 1.87635e-23)             (0.992328 -0.00321862 -3.99163e-24)
        0.855             (0.992299 0.00323136 1.92918e-23)             (0.992299 -0.00323136 -4.08057e-24)
         0.86             (0.99227 0.00324414 1.98196e-23)             (0.99227 -0.00324414 -4.16944e-24)
        0.865             (0.99224 0.00325696 2.03453e-23)             (0.99224 -0.00325696 -4.25789e-24)
         0.87             (0.992211 0.00326982 2.08686e-23)             (0.992211 -0.00326982 -4.34588e-24)
        0.875             (0.992181 0.00328272 2.13899e-23)             (0.992181 -0.00328272 -4.43344e-24)
         0.88             (0.992152 0.00329567 2.19098e-23)             (0.992152 -0.00329567 -4.52063e-24)
        0.885             (0.992122 0.00330866 2.24254e-23)             (0.992122 -0.00330866 -4.60781e-24)
         0.89             (0.992092 0.00332169 2.29398e-23)             (0.992092 -0.00332169 -4.69351e-24)
        0.895             (0.992062 0.00333476 2.34524e-23)             (0.992062 -0.00333476 -4.77916e-24)
          0.9             (0.992032 0.00334788 2.39634e-23)             (0.992032 -0.00334788 -4.86439e-24)
        0.905             (0.992002 0.00336104 2.44723e-23)             (0.992002 -0.00336104 -4.94905e-24)
         0.91             (0.991972 0.00337425 2.49797e-23)             (0.991972 -0.00337425 -5.03312e-24)
        0.915             (0.991942 0.00338751 2.5489e-23)             (0.991942 -0.00338751 -5.11703e-24)
         0.92             (0.991911 0.00340082 2.59917e-23)             (0.991911 -0.00340081 -5.19857e-24)
        0.925             (0.991881 0.0034142 2.64217e-23)             (0.991881 -0.0034142 -5.25993e-24)
         0.93             (0.991851 0.00342759 2.69699e-23)             (0.991851 -0.00342759 -5.36041e-24)
        0.935             (0.99182 0.00344103 2.74705e-23)             (0.99182 -0.00344103 -5.44217e-24)
         0.94             (0.991789 0.00345452 2.79568e-23)             (0.991789 -0.00345452 -5.51794e-24)
        0.945             (0.991759 0.00346807 2.84283e-23)             (0.991759 -0.00346807 -5.58627e-24)
         0.95             (0.991728 0.0034817 2.88579e-23)             (0.991728 -0.0034817 -5.63197e-24)
        0.955             (0.991697 0.0034955 2.91126e-23)             (0.991697 -0.0034955 -5.58071e-24)
         0.96             (0.991666 0.00350914 2.99943e-23)             (0.991666 -0.00350914 -5.88473e-24)
        0.965             (0.991635 0.00352282 3.05161e-23)             (0.991635 -0.00352281 -5.98246e-24)
         0.97             (0.991604 0.00353653 3.10085e-23)             (0.991604 -0.00353653 -6.06363e-24)
        0.975             (0.991572 0.0035503 3.14933e-23)             (0.991572 -0.0035503 -6.14056e-24)
         0.98             (0.991541 0.00356412 3.19725e-23)             (0.991541 -0.00356412 -6.21371e-24)
        0.985             (0.99151 0.003578 3.24528e-23)             (0.99151 -0.003578 -6.28187e-24)
         0.99             (0.991478 0.00359193 3.28467e-23)             (0.991478 -0.00359193 -6.3286e-24)
        0.995             (0.991447 0.00360594 3.30953e-23)             (0.991447 -0.00360594 -6.32186e-24)
            1             (0.991414 0.00362012 3.28696e-23)             (0.991414 -0.00362012 -6.08928e-24)
        1.005             (0.991383 0.00363414 3.44766e-23)             (0.991383 -0.00363414 -6.66236e-24)
         1.01             (0.991351 0.00364818 3.51158e-23)             (0.991351 -0.00364818 -6.8081e-24)
        1.015             (0.991319 0.00366227 3.56329e-23)             (0.991319 -0.00366227 -6.90132e-24)
         1.02             (0.991287 0.00367641 3.61355e-23)             (0.991287 -0.00367641 -6.98846e-24)
        1.025             (0.991255 0.0036906 3.66333e-23)             (0.991255 -0.0036906 -7.07369e-24)
         1.03             (0.991223 0.00370484 3.71289e-23)             (0.991223 -0.00370484 -7.15815e-24)
        1.035             (0.991191 0.00371914 3.76246e-23)             (0.991191 -0.00371914 -7.24248e-24)
         1.04             (0.991159 0.00373349 3.81175e-23)             (0.991159 -0.00373349 -7.32627e-24)
        1.045             (0.991126 0.00374789 3.86008e-23)             (0.991126 -0.00374789 -7.40831e-24)
         1.05             (0.991094 0.00376234 3.90922e-23)             (0.991094 -0.00376234 -7.49186e-24)
        1.055             (0.991062 0.00377684 3.95836e-23)             (0.991062 -0.00377684 -7.57548e-24)
         1.06             (0.991029 0.0037914 4.00747e-23)             (0.991029 -0.0037914 -7.6591e-24)
        1.065             (0.990996 0.00380602 4.05645e-23)             (0.990996 -0.00380601 -7.74255e-24)
         1.07             (0.990963 0.00382068 4.10552e-23)             (0.990963 -0.00382068 -7.82624e-24)
        1.075             (0.990931 0.0038354 4.15457e-23)             (0.990931 -0.0038354 -7.90996e-24)
         1.08             (0.990898 0.00385017 4.20361e-23)             (0.990898 -0.00385017 -7.99371e-24)
        1.085             (0.990865 0.003865 4.25262e-23)             (0.990865 -0.003865 -8.07747e-24)
         1.09             (0.990831 0.00387988 4.30178e-23)             (0.990831 -0.00387988 -8.16152e-24)
        1.095             (0.990798 0.00389482 4.35119e-23)             (0.990798 -0.00389482 -8.24608e-24)
          1.1             (0.990765 0.00390982 4.40226e-23)             (0.990765 -0.00390982 -8.3337e-24)
        1.105             (0.990731 0.00392487 4.4497e-23)             (0.990731 -0.00392487 -8.41447e-24)
         1.11             (0.990698 0.00393998 4.49457e-23)             (0.990698 -0.00393998 -8.49061e-24)
        1.115             (0.990664 0.00395516 4.54414e-23)             (0.990664 -0.00395516 -8.57494e-24)
         1.12             (0.990631 0.0039704 4.59349e-23)             (0.990631 -0.0039704 -8.65775e-24)
        1.125             (0.990597 0.00398574 4.63781e-23)             (0.990597 -0.00398574 -8.72715e-24)
         1.13             (0.990563 0.0040012 4.68415e-23)             (0.990563 -0.00400119 -8.79918e-24)
        1.135             (0.990529 0.00401654 4.73973e-23)             (0.990529 -0.00401654 -8.92485e-24)
         1.14             (0.990495 0.00403193 4.78903e-23)             (0.990495 -0.00403193 -9.01117e-24)
        1.145             (0.990461 0.00404738 4.83806e-23)             (0.990461 -0.00404738 -9.09579e-24)
         1.15             (0.990426 0.00406288 4.88703e-23)             (0.990426 -0.00406288 -9.18018e-24)
        1.155             (0.990392 0.00407844 4.93601e-23)             (0.990392 -0.00407844 -9.26462e-24)
         1.16             (0.990357 0.00409406 4.98515e-23)             (0.990357 -0.00409406 -9.34941e-24)
        1.165             (0.990323 0.00410973 5.03491e-23)             (0.990323 -0.00410973 -9.43545e-24)
         1.17             (0.990288 0.00412546 5.0846e-23)             (0.990288 -0.00412546 -9.52156e-24)
        1.175             (0.990253 0.00414126 5.12492e-23)             (0.990253 -0.00414126 -9.59119e-24)
         1.18             (0.990219 0.00415711 5.17065e-23)             (0.990219 -0.00415711 -9.67105e-24)
        1.185             (0.990184 0.00417302 5.21704e-23)             (0.990184 -0.00417302 -9.7531e-24)
         1.19             (0.990149 0.00418899 5.26102e-23)             (0.990149 -0.00418899 -9.83324e-24)
        1.195             (0.990113 0.00420501 5.29559e-23)             (0.990113 -0.00420501 -9.90617e-24)
          1.2             (0.990078 0.00422109 5.31495e-23)             (0.990078 -0.00422109 -9.9677e-24)
        1.205             (0.990043 0.00423725 5.42563e-23)             (0.990043 -0.00423725 -1.00988e-23)
         1.21             (0.990007 0.00425347 5.47651e-23)             (0.990007 -0.00425347 -1.01822e-23)
        1.215             (0.989972 0.00426975 5.52541e-23)             (0.989972 -0.00426975 -1.02634e-23)
         1.22             (0.989936 0.0042861 5.57379e-23)             (0.989936 -0.0042861 -1.03433e-23)
        1.225             (0.9899 0.00430251 5.62185e-23)             (0.9899 -0.00430251 -1.04218e-23)
         1.23             (0.989864 0.004319 5.66971e-23)             (0.989864 -0.004319 -1.04987e-23)
        1.235             (0.989828 0.00433556 5.71733e-23)             (0.989828 -0.00433556 -1.05735e-23)
         1.24             (0.989792 0.00435224 5.76528e-23)             (0.989792 -0.00435224 -1.06466e-23)
        1.245             (0.989756 0.0043689 5.80942e-23)             (0.989756 -0.0043689 -1.07052e-23)
         1.25             (0.989719 0.00438564 5.8582e-23)             (0.989719 -0.00438564 -1.07685e-23)
        1.255             (0.989683 0.00440246 5.89466e-23)             (0.989683 -0.00440246 -1.07983e-23)
         1.26             (0.989646 0.00441938 5.93355e-23)             (0.989646 -0.00441938 -1.08102e-23)
        1.265             (0.989609 0.00443645 5.96549e-23)             (0.989609 -0.00443645 -1.07515e-23)
         1.27             (0.989571 0.00445388 5.96156e-23)             (0.989571 -0.00445388 -1.03582e-23)
        1.275             (0.989534 0.00447131 6.01632e-23)             (0.989534 -0.00447131 -1.05257e-23)
         1.28             (0.989497 0.00448818 6.16696e-23)             (0.989497 -0.00448818 -1.16019e-23)
        1.285             (0.98946 0.00450509 6.21664e-23)             (0.98946 -0.00450508 -1.17292e-23)
         1.29             (0.989423 0.00452204 6.26322e-23)             (0.989423 -0.00452204 -1.18382e-23)
        1.295             (0.989386 0.00453903 6.30805e-23)             (0.989386 -0.00453903 -1.19471e-23)
          1.3             (0.989349 0.00455608 6.35105e-23)             (0.989349 -0.00455608 -1.20626e-23)
        1.305             (0.989311 0.00457314 6.38943e-23)             (0.989311 -0.00457314 -1.21849e-23)
         1.31             (0.989274 0.0045902 6.41993e-23)             (0.989274 -0.00459019 -1.23257e-23)
        1.315             (0.989236 0.00460718 6.4296e-23)             (0.989236 -0.00460718 -1.252e-23)
         1.32             (0.989199 0.00462371 6.32661e-23)             (0.989199 -0.00462371 -1.29947e-23)
        1.325             (0.989161 0.00464086 6.53866e-23)             (0.989161 -0.00464086 -1.2733e-23)
         1.33             (0.989123 0.00465857 6.7321e-23)             (0.989123 -0.00465857 -1.24939e-23)
        1.335             (0.989085 0.00467637 6.78218e-23)             (0.989085 -0.00467637 -1.25571e-23)
         1.34             (0.989047 0.00469424 6.83272e-23)             (0.989047 -0.00469424 -1.26383e-23)
        1.345             (0.989008 0.00471217 6.88337e-23)             (0.989008 -0.00471217 -1.27242e-23)
         1.35             (0.98897 0.00473017 6.93473e-23)             (0.98897 -0.00473017 -1.28131e-23)
        1.355             (0.988932 0.00474824 6.98607e-23)             (0.988932 -0.00474823 -1.29028e-23)
         1.36             (0.988893 0.00476636 7.03745e-23)             (0.988893 -0.00476636 -1.29931e-23)
        1.365             (0.988854 0.00478456 7.08895e-23)             (0.988854 -0.00478455 -1.30839e-23)
         1.37             (0.988815 0.00480282 7.14062e-23)             (0.988815 -0.00480281 -1.31752e-23)
        1.375             (0.988776 0.00482114 7.19257e-23)             (0.988776 -0.00482114 -1.32673e-23)
         1.38             (0.988737 0.00483954 7.24564e-23)             (0.988737 -0.00483954 -1.33617e-23)
        1.385             (0.988698 0.004858 7.29625e-23)             (0.988698 -0.004858 -1.34519e-23)
         1.39             (0.988659 0.00487654 7.34777e-23)             (0.988659 -0.00487654 -1.3544e-23)