/*--------------------------------*- C++ -*----------------------------------*\
  =========                 |
  \\      /  F ield         | OpenFOAM: The Open Source CFD Toolbox
   \\    /   O peration     | Website:  https://openfoam.org
    \\  /    A nd           | Version:  7
     \\/     M anipulation  |
\*---------------------------------------------------------------------------*/
FoamFile
{
    version     2.0;
    format      ascii;
    class       surfaceScalarField;
    location    "40";
    object      phi;
}
// * * * * * * * * * * * * * * * * * * * * * * * * * * * * * * * * * * * * * //

dimensions      [0 3 -1 0 0 0 0];

internalField   nonuniform List<scalar> 
239
(
-0.00516409
-0.000541511
-0.000546622
-0.00479547
-0.000622957
-0.000701615
-0.000453426
-0.00434287
-0.000528482
-0.00445792
-0.000606735
-0.000492019
-0.0041605
-0.000570438
-0.000439617
-0.00389776
-0.000518118
-0.00398514
-0.000371616
-0.00366535
-0.000450533
-0.00373778
-0.000532174
-0.000367822
-0.00351872
-0.000449824
-0.00358335
-0.000352965
-0.00337514
-0.000437841
-0.00343385
-0.000244432
-0.00316123
-0.000327625
-0.00323081
-0.000414986
-0.000209287
-0.00298288
-0.00029268
-0.00307783
-0.000168089
-0.00275384
-0.000249506
-0.00290147
-0.00298825
-0.000123729
-0.00243837
-0.00020017
-0.0026774
-0.000288146
-0.00281349
-7.98467e-05
-0.00199301
-0.000147592
-0.00237063
-0.000230983
-0.00259401
-9.56315e-05
-0.00193818
-0.000170526
-0.00229573
-4.91869e-05
-0.00133701
-0.000110825
-0.00187654
-1.45084e-05
-0.000535281
-5.72792e-05
-0.00129424
-0.00180843
-1.70673e-05
-0.000518214
-6.50479e-05
-0.00124626
-1.95299e-05
-0.000498684
-0.00119332
-2.18855e-05
-0.000476798
-0.000452674
0.000450813
0.000475001
-2.19511e-05
0.000496952
0.00118904
-1.95978e-05
0.000516549
0.0012421
-1.71371e-05
0.000533687
-6.52491e-05
0.00129022
0.00180268
-1.45796e-05
-5.74856e-05
0.00133312
0.00187094
-4.93969e-05
-0.000111189
0.00193273
0.00228918
-9.60015e-05
0.00198772
-0.000171046
0.00236423
0.00258696
-8.02192e-05
-0.000148118
0.00243212
-0.000231646
0.00267049
0.00280625
-0.000124256
-0.000200837
0.00274707
-0.000288938
0.00289435
0.002981
-0.000168754
-0.000250295
0.00297589
-0.000339992
0.00307069
0.00313454
-0.000210067
-0.000293575
0.0031542
-0.000382805
0.00322377
0.00328078
-0.000245309
-0.000328609
-0.000416082
0.00336825
0.00342704
-0.00035402
-0.000439005
0.00351202
0.00357677
-0.000368924
-0.000451031
0.00365887
0.00373145
-0.000372735
-0.000451748
-0.000533495
0.00389171
0.00397929
-0.000440794
-0.000519383
0.00415499
-0.000493165
-0.00057165
0.0044531
-0.000529456
-0.000607731
0.00479155
-0.000547201
-0.000623466
0.00516118
-0.000702023
-0.000541378
-0.000645147
-0.0201963
-0.000697266
-0.0202047
-0.00072662
-0.0202846
-0.000734638
-0.020335
-0.000729898
-0.0203162
-0.000710828
-0.0203564
-0.000681011
-0.0203402
-0.000650082
-0.0202771
-0.000616424
-0.0202485
-0.000571802
-0.0202791
-0.0202468
-0.000801322
-0.000847336
-0.000870119
-0.000871028
-0.000859173
-0.000832356
-0.000793766
-0.00075463
-0.000713784
-0.000661173
-0.000600568
-0.000541068
-0.000484932
-0.000429961
-0.000370695
-0.00030511
-0.000242967
-0.000185178
-0.000125278
-5.87686e-05
0.0200138
-0.000799965
0.0201901
-0.000843843
0.0202054
-0.000864693
0.020294
-0.000864966
0.0203237
-0.000846222
0.0203536
-0.000814854
0.0203481
-0.00078055
0.0202843
-0.0007424
0.0202484
-0.000695311
-0.000649581
-0.000599994
-0.000551372
-0.000499897
-0.000440543
-0.000376139
-0.000313422
-0.000255614
-0.000195253
-0.00012732
-6.02561e-05
-0.000643194
-0.000693218
-0.00072061
-0.000727685
-0.000716711
-0.000694177
-0.000668317
)
;

boundaryField
{
    inlet
    {
        type            calculated;
        value           nonuniform 0();
    }
    outlet
    {
        type            calculated;
        value           nonuniform 0();
    }
    cylinder
    {
        type            calculated;
        value           uniform 0;
    }
    top
    {
        type            symmetryPlane;
        value           uniform 0;
    }
    bottom
    {
        type            symmetryPlane;
        value           uniform 0;
    }
    defaultFaces
    {
        type            empty;
        value           nonuniform 0();
    }
    procBoundary11to10
    {
        type            processor;
        value           nonuniform List<scalar> 
123
(
-0.00493808
-0.00508544
-0.00458164
-0.000688022
-0.00471418
-0.00426445
-0.000652222
-0.00437613
-0.000599614
-0.00407901
-0.00381612
-0.00061666
-0.00390065
-0.000534529
-0.00365308
-0.000525506
-0.00349568
-0.00328778
-0.000505449
-0.00334338
-0.000381796
-0.0031417
-0.000339085
-0.000383612
-0.00289279
-0.00032517
-0.0027193
-0.000260485
-0.00250405
-0.000192486
-0.00221407
-0.000125387
-0.000139282
-0.0017342
-7.24674e-05
-7.9515e-05
-0.00113569
-2.41247e-05
-2.62385e-05
-0.000426435
-0.000424516
-2.62977e-05
-2.41873e-05
-0.00113129
-7.97016e-05
-7.2662e-05
-0.0017283
-0.000139629
-0.000125743
-0.00220737
-0.000192997
-0.00249687
-0.00026114
-0.00271193
-0.000325958
-0.00288541
-0.000384523
-0.00303963
-0.000434899
-0.00318772
-0.000475866
-0.00333645
-0.000506665
-0.00348898
-0.000526791
-0.00364663
-0.000535852
-0.00380996
-0.00389468
-0.000618099
-0.00407339
-0.000600976
-0.00425922
-0.00437124
-0.000653507
-0.00457723
-0.00471025
-0.000689032
-0.0049347
-0.00508263
-0.0200966
-0.0201587
-0.0202618
-0.0203341
-0.0203281
-0.0203832
-0.0203788
-0.0203162
-0.0202893
-0.0203317
-0.0203074
-0.0202332
-0.0201644
-0.0201196
-0.0201093
-0.020123
-0.020044
-0.0200075
-0.0199875
-0.0200484
-0.0199626
-0.0200811
-0.0200921
-0.0201615
-0.0202732
-0.0203234
-0.0203724
-0.0203795
-0.0203186
-0.0202865
-0.0203039
-0.0201927
-0.0202108
-0.02013
-0.0201367
-0.0201492
-0.0201447
-0.0201001
-0.0200393
-0.0200469
-0.0200926
6.723e-05
-0.0200701
)
;
    }
    procBoundary11to12
    {
        type            processor;
        value           nonuniform List<scalar> 
116
(
0.00523479
0.00486934
0.000470818
0.00501442
0.00441477
0.00453297
0.000472749
0.0046599
0.000381525
0.00423578
0.00397346
0.000416738
0.00406364
0.00374153
0.00036392
0.0038167
0.000295434
0.00359783
0.000288711
0.00345672
0.00323812
0.000271393
0.00331401
0.000167539
0.00305738
0.000134789
0.00282295
9.89865e-05
0.00249859
6.35136e-05
0.0020407
3.21542e-05
4.08006e-05
0.00137433
1.18647e-05
0.00054979
0.000548266
1.19367e-05
0.00137058
4.10124e-05
3.23663e-05
0.00203558
6.38861e-05
0.00249249
9.95117e-05
0.00281631
0.000135447
0.00305051
0.000168305
0.0032312
0.00330707
0.000272345
0.00344993
0.000289715
0.00359123
0.000296464
0.00373514
0.00381046
0.000365018
0.00396749
0.00405787
0.000417823
0.00423033
0.00433771
0.000454376
0.00452818
0.00465551
0.000473379
0.00486537
0.00501097
0.000470847
0.00523172
0.0203
0.0202569
0.0203139
0.020343
0.0203115
0.0203373
0.0203104
0.0202462
0.0202148
0.0202344
0.0201955
-0.000520436
0.0201737
0.0201082
0.0200646
0.02005
0.0200574
0.0199818
0.0199497
0.0199276
0.0199819
0.0199039
0.0202569
0.020147
0.0201612
0.0200813
0.0200852
0.0200898
0.0200803
0.0200374
0.0199815
0.0199865
0.0200247
0.0200031
0.0199536
0.0202919
0.0202554
0.0203214
0.0203307
0.0203426
0.0203256
0.0202584
-0.000638117
0.0202182
)
;
    }
}


// ************************************************************************* //
