/*--------------------------------*- C++ -*----------------------------------*\
  =========                 |
  \\      /  F ield         | OpenFOAM: The Open Source CFD Toolbox
   \\    /   O peration     | Website:  https://openfoam.org
    \\  /    A nd           | Version:  7
     \\/     M anipulation  |
\*---------------------------------------------------------------------------*/
FoamFile
{
    version     2.0;
    format      ascii;
    class       volScalarField;
    location    "10";
    object      p;
}
// * * * * * * * * * * * * * * * * * * * * * * * * * * * * * * * * * * * * * //

dimensions      [0 2 -2 0 0 0 0];

internalField   nonuniform List<scalar> 
183
(
0.0401249
0.032588
0.04005
0.0325359
0.0398971
0.03243
0.0396637
0.0322696
0.0393464
0.0320535
0.0389419
0.0317805
0.0384475
0.0314498
0.0378616
0.0310611
0.0371843
0.0306148
0.0364172
0.030112
0.0244104
0.0355637
0.0295546
0.0240341
0.0346284
0.0289455
0.0236253
0.0336173
0.0282878
0.0231862
0.0325368
0.0275855
0.0227188
0.0313936
0.0268425
0.0222256
0.0301938
0.0260627
0.0217088
0.0252494
0.0211697
0.0244089
0.0206119
0.0235535
0.0200473
0.0226741
0.0194775
0.021686
0.018814
0.0186301
0.0165716
0.0125264
0.0120437
0.00750225
0.00817608
0.00262799
0.00431239
-0.00179682
0.000749866
-0.00568745
-0.00248704
-0.00920123
-0.00547555
-0.0122838
-0.00816153
-0.014979
-0.0105679
-0.0173196
-0.0127083
-0.0193339
-0.0145948
-0.0210539
-0.0162433
-0.0225107
-0.0176698
-0.0237327
-0.0188905
-0.0247461
-0.0199209
-0.0255734
-0.0207753
-0.0262342
-0.0214667
-0.0267442
-0.022006
-0.0271159
-0.0224024
-0.0273586
-0.0226628
-0.0274784
-0.0227918
0.0186323
0.0125384
0.00752406
0.00265985
-0.0017554
-0.00563668
-0.00914154
-0.0122157
-0.0149029
-0.0172362
-0.0192437
-0.0209576
-0.0224088
-0.0236259
-0.024635
-0.0254587
-0.0261164
-0.026624
-0.026994
-0.0272354
-0.0273546
0.0165762
0.0120559
0.00819612
0.00434042
0.000785671
-0.00244355
-0.00542468
-0.00810362
-0.0105033
-0.0126375
-0.0145182
-0.0161613
-0.017583
-0.0187995
-0.0198261
-0.0206773
-0.021366
-0.0219032
-0.022298
-0.0225573
-0.0226858
0.021683
0.0188145
0.0226697
0.0194769
0.0235479
0.0200458
0.0244022
0.0206095
0.0289329
0.0252415
0.0211665
0.0301803
0.0260539
0.0217047
0.0313788
0.0268328
0.0222208
0.0325211
0.027575
0.0227134
0.0336007
0.0282768
0.0231802
0.0346113
0.028934
0.023619
0.0355463
0.0295429
0.0240275
0.0363998
0.0301002
0.0244037
0.0371672
0.0306032
0.0378452
0.03105
0.0384322
0.0314394
0.0389281
0.0317711
0.0393344
0.0320453
0.0396539
0.032263
0.0398899
0.0324251
0.0400456
0.0325329
0.0401234
0.032587
)
;

boundaryField
{
    inlet
    {
        type            zeroGradient;
    }
    outlet
    {
        type            fixedValue;
        value           nonuniform 0();
    }
    cylinder
    {
        type            zeroGradient;
    }
    top
    {
        type            symmetryPlane;
    }
    bottom
    {
        type            symmetryPlane;
    }
    defaultFaces
    {
        type            empty;
    }
    procBoundary37to36
    {
        type            processor;
        value           nonuniform List<scalar> 
86
(
0.0481791
0.0480631
0.0478263
0.0474636
0.0469688
0.0463358
0.0455597
0.0446382
0.0435719
0.0423641
0.0410213
0.0395521
0.0379667
0.0362761
0.0344907
0.0326217
0.0289451
0.0289451
0.0276586
0.0263383
0.0249515
0.0234694
0.0193419
0.011238
0.00481485
-0.00114041
-0.00647065
-0.0109566
-0.0148855
-0.0182193
-0.0210384
-0.0234124
-0.0253961
-0.0270444
-0.0284058
-0.029522
-0.0304282
-0.0311538
-0.0317232
-0.0321558
-0.0324671
-0.0326681
-0.0327668
0.0193425
0.0112512
0.00484029
-0.00110244
-0.00642098
-0.0108957
-0.014814
-0.0181379
-0.0209477
-0.0233132
-0.0252891
-0.0269304
-0.0282855
-0.0293962
-0.0302976
-0.0310192
-0.0315852
-0.0320153
-0.0323246
-0.0325244
-0.0326225
0.0234637
0.0249439
0.0263291
0.0276479
0.0276479
0.0306725
0.0326062
0.0344735
0.0362574
0.0379468
0.0395312
0.0409999
0.0423425
0.0435505
0.0446176
0.0455403
0.0463181
0.0469535
0.0474511
0.047817
0.0480574
0.0481772
)
;
    }
    procBoundary37to38
    {
        type            processor;
        value           nonuniform List<scalar> 
86
(
0.0261458
0.0261072
0.0260293
0.0259124
0.0257565
0.0255621
0.0253295
0.0250594
0.0247527
0.0247527
0.0196822
0.0194157
0.0191291
0.0188236
0.0185007
0.0181618
0.0178081
0.0174401
0.0170597
0.0166765
0.0162959
0.0158421
0.0141948
0.0108556
0.00788941
0.00486916
0.00203489
-0.000609002
-0.00309293
-0.00536655
-0.00743935
-0.00931419
-0.0109941
-0.0124858
-0.0137971
-0.0149363
-0.0159116
-0.0167309
-0.0174014
-0.0179295
-0.0183206
-0.0185787
-0.0187071
0.0142015
0.0108683
0.00790834
0.00489446
0.00206652
-0.000571102
-0.00304895
-0.00531671
-0.00738391
-0.0092535
-0.0109285
-0.0124157
-0.0137229
-0.0148584
-0.0158305
-0.0166469
-0.0173151
-0.0178413
-0.018231
-0.0184882
-0.0186161
0.0158456
0.0162984
0.0166783
0.0170607
0.0174405
0.0178078
0.0181608
0.0184992
0.0188216
0.0191266
0.0194129
0.0196792
0.024746
0.024746
0.0250529
0.0253233
0.0255565
0.0257516
0.0259084
0.0260263
0.0261053
0.0261452
)
;
    }
}


// ************************************************************************* //
