/*--------------------------------*- C++ -*----------------------------------*\
  =========                 |
  \\      /  F ield         | OpenFOAM: The Open Source CFD Toolbox
   \\    /   O peration     | Website:  https://openfoam.org
    \\  /    A nd           | Version:  7
     \\/     M anipulation  |
\*---------------------------------------------------------------------------*/
FoamFile
{
    version     2.0;
    format      ascii;
    class       volScalarField;
    location    "50";
    object      p;
}
// * * * * * * * * * * * * * * * * * * * * * * * * * * * * * * * * * * * * * //

dimensions      [0 2 -2 0 0 0 0];

internalField   nonuniform List<scalar> 
219
(
-0.0113481
-0.00481627
0.00642993
-0.0125143
-0.00511348
0.00664892
-0.0136782
-0.00541489
0.00684301
-0.0148348
-0.00571529
0.007013
-0.0159793
-0.0060099
0.0071596
-0.0171065
-0.00629446
0.00728347
-0.0182111
-0.00656539
0.0073852
-0.0192882
-0.00681987
0.00746532
-0.0203327
-0.00705589
0.00752435
-0.0213402
-0.00727232
0.00756277
-0.0223065
-0.00746884
0.00758103
-0.0232281
-0.00764596
0.00757959
-0.024102
-0.00780505
0.00755887
-0.0249261
-0.00794814
0.00751932
-0.0256984
-0.00807747
0.00746138
-0.0264168
-0.00819494
0.00738564
-0.0270811
-0.00830352
0.00729299
-0.0276997
-0.00841245
0.00718446
-0.0282887
-0.0085378
0.00705938
-0.00867311
0.00691167
-0.00873147
0.00673513
-0.0086481
0.00619792
-0.00847535
0.00543474
-0.00838516
0.00461651
-0.00818588
0.00378861
-0.00774573
0.00311497
-0.00691754
0.00253939
-0.005808
0.00198284
-0.00457685
0.00144648
-0.00339813
0.000957094
-0.00232833
0.000590649
-0.00138097
0.000373932
-0.000532047
0.000297382
0.000235994
0.000322553
0.000927653
0.000408947
0.00154136
0.000524402
0.00207324
0.000646863
0.00251958
0.000762388
0.00287808
0.000862244
0.00314762
0.000940812
0.00332786
0.000994945
0.00341816
0.00102305
0.0470804
0.0503921
0.0520449
0.0518642
0.0503907
0.0483019
0.0460652
0.0439696
0.0421816
0.0407915
0.0398466
0.0393709
-0.00521808
-0.00697982
-0.0088194
-0.0101875
-0.0102787
-0.00853462
-0.00484286
0.000615187
0.00749753
0.0150415
0.0217535
0.0264063
0.0287918
0.0294874
0.029185
0.0283917
0.0274363
0.0265192
0.0257587
0.0252218
0.0249451
-0.00767616
-0.0120145
-0.0164069
-0.0203418
-0.0230128
-0.0237967
-0.0223202
-0.0184669
-0.0125677
-0.00570057
0.000530946
0.0050643
0.00778751
0.00915225
0.00966908
0.00972282
0.00955896
0.00932224
0.0090956
0.0089248
0.0088337
-0.00467939
-0.00504176
0.0088478
-0.00448821
-0.00419775
0.00800313
-0.00429392
-0.00338701
0.00714561
-0.00410041
-0.00260142
0.00627476
-0.00391208
-0.00184149
0.00538909
-0.0037337
-0.00110848
0.00448716
-0.00357014
-0.000403418
0.00356765
-0.0034262
0.000272633
0.00262938
-0.00330646
0.00091859
0.00167134
-0.00321517
0.00153346
0.000692723
-0.00315598
0.0021164
-0.000307028
-0.0031319
0.00266683
-0.0013282
-0.00314507
0.0031844
-0.00237077
-0.00319671
0.00366907
-0.00343435
-0.00328703
0.00412106
-0.00451821
-0.0034152
0.00454084
-0.00562114
-0.0035794
0.00492911
-0.00674153
-0.00377683
0.0052867
-0.00787726
-0.00400385
0.00561456
-0.00902575
-0.00425609
0.00591371
-0.0101839
-0.00452866
0.00618517
)
;

boundaryField
{
    inlet
    {
        type            zeroGradient;
    }
    outlet
    {
        type            fixedValue;
        value           uniform 0;
    }
    cylinder
    {
        type            zeroGradient;
    }
    top
    {
        type            symmetryPlane;
    }
    bottom
    {
        type            symmetryPlane;
    }
    defaultFaces
    {
        type            empty;
    }
    procBoundary47to46
    {
        type            processor;
        value           nonuniform List<scalar> 
87
(
-0.0157821
-0.0174305
-0.0190913
-0.0207617
-0.0224384
-0.0241177
-0.0257958
-0.0274682
-0.0291305
-0.0307778
-0.032405
-0.0340065
-0.0355769
-0.0371104
-0.0386014
-0.0400438
-0.041428
-0.0427433
-0.0439967
-0.0288241
-0.0288241
-0.0291536
-0.0295422
-0.0297103
-0.0291925
-0.0275474
-0.0250345
-0.0218132
-0.0183024
-0.0147777
-0.0114602
-0.00844177
-0.00576187
-0.00342103
-0.00139868
0.000328794
0.00178451
0.00298925
0.00396146
0.00471754
0.00527168
0.00563485
0.00581399
0.0750991
0.0754461
0.0740872
0.0712028
0.0674689
0.0635752
0.0599524
0.0568244
0.0542917
0.0523896
0.0511247
0.0504939
0.0122844
0.0164045
0.0205452
0.0244107
0.0280114
0.0315379
0.03516
0.0389593
0.0429857
0.0429857
0.00968219
0.00968219
0.0144732
0.0129358
0.0114202
0.00992526
0.00844787
0.00698371
0.00552847
0.00407792
0.00262792
0.00117448
-0.000286118
-0.00175726
-0.00324191
-0.00474255
-0.00626111
-0.00779894
-0.00935679
-0.0109348
-0.0125325
-0.0141488
)
;
    }
}


// ************************************************************************* //
