/*--------------------------------*- C++ -*----------------------------------*\
  =========                 |
  \\      /  F ield         | OpenFOAM: The Open Source CFD Toolbox
   \\    /   O peration     | Website:  https://openfoam.org
    \\  /    A nd           | Version:  7
     \\/     M anipulation  |
\*---------------------------------------------------------------------------*/
FoamFile
{
    version     2.0;
    format      ascii;
    class       volVectorField;
    location    "25";
    object      U;
}
// * * * * * * * * * * * * * * * * * * * * * * * * * * * * * * * * * * * * * //

dimensions      [0 1 -1 0 0 0 0];

internalField   nonuniform List<vector> 
183
(
(1.19538 0.331561 8.43008e-20)
(1.18785 0.319514 3.00161e-20)
(1.18145 0.307846 1.73012e-20)
(1.17613 0.296582 4.35179e-20)
(1.17171 0.285668 3.9932e-20)
(1.16785 0.275391 -3.2792e-20)
(1.16405 0.266235 2.80831e-20)
(1.2259 0.410166 1.28109e-19)
(1.22668 0.403655 -6.66692e-20)
(1.2204 0.39291 -3.65652e-20)
(1.21119 0.380133 -7.7768e-20)
(1.20134 0.366617 3.12589e-20)
(1.19196 0.353042 3.64178e-21)
(1.18355 0.339727 -5.45928e-20)
(1.17628 0.326814 1.44244e-20)
(1.17019 0.314375 2.89258e-20)
(1.16519 0.302408 -1.02904e-19)
(1.16111 0.290836 -2.90731e-22)
(1.15757 0.27996 -2.25428e-20)
(1.01375 0.353295 6.79969e-20)
(1.11678 0.397882 1.47134e-19)
(1.17797 0.42248 8.35832e-21)
(1.208 0.431027 8.60603e-20)
(1.21763 0.428403 2.06239e-20)
(1.21557 0.418983 6.19871e-20)
(1.20783 0.405996 1.26235e-19)
(1.19806 0.391489 5.55138e-20)
(1.18815 0.3766 -5.03307e-20)
(1.17896 0.361886 -6.89211e-21)
(1.17085 0.34759 3.88135e-20)
(0.15735 0.0438434 9.12301e-21)
(0.440072 0.136434 -2.3254e-19)
(0.685827 0.234551 -5.88887e-20)
(0.883887 0.320669 -5.62487e-20)
(1.02873 0.385605 9.41328e-21)
(1.12321 0.427075 1.66749e-20)
(1.17663 0.447533 -5.20453e-20)
(1.20074 0.451981 -1.44215e-19)
(1.20649 0.445851 -1.24094e-20)
(1.20227 0.43366 -8.31463e-20)
(1.19358 0.418546 -8.8529e-20)
(0.167026 0.0528361 -7.32142e-20)
(0.459704 0.158864 2.06146e-19)
(0.707249 0.264871 -9.7248e-20)
(0.90105 0.353691 -3.0448e-20)
(1.03835 0.417389 -1.75885e-19)
(1.12463 0.45535 5.60368e-20)
(1.17102 0.47153 -6.60992e-20)
(1.19006 0.471926 1.8854e-19)
(0.175785 0.0623995 -4.35458e-20)
(0.47658 0.182118 -3.38815e-19)
(0.724425 0.295579 1.71655e-19)
(0.91312 0.386433 1.71171e-19)
(1.04276 0.448332 -1.66717e-19)
(0.18349 0.0724208 -1.82144e-19)
(0.490484 0.205901 2.30212e-20)
(0.737226 0.326297 2.21651e-20)
(0.18364 -0.0724774 3.17685e-19)
(0.490789 -0.206011 -1.00895e-20)
(0.737567 -0.326392 -1.15151e-19)
(0.175936 -0.0624511 -9.89131e-20)
(0.476897 -0.182224 -5.13355e-20)
(0.724791 -0.295683 6.59477e-20)
(0.913446 -0.386483 6.00714e-20)
(1.04299 -0.448297 6.48412e-20)
(0.167177 -0.0528821 -3.33448e-20)
(0.460029 -0.158965 1.23421e-19)
(0.707636 -0.264979 -1.45951e-19)
(0.901407 -0.353758 -1.16236e-19)
(1.03862 -0.417384 -1.8813e-19)
(1.12481 -0.455264 1.41153e-19)
(1.17111 -0.47137 -1.5998e-19)
(1.1901 -0.471712 -3.95799e-21)
(0.157497 -0.0438832 1.04133e-19)
(0.440399 -0.136527 4.30858e-20)
(0.686229 -0.23466 -3.71743e-20)
(0.884272 -0.32075 1.47724e-19)
(1.02904 -0.385626 1.71952e-19)
(1.12342 -0.427023 -4.31604e-19)
(1.17675 -0.447411 3.68557e-20)
(1.2008 -0.451806 8.00812e-20)
(1.20652 -0.445642 -1.67166e-19)
(1.2023 -0.433434 9.08051e-21)
(1.19364 -0.418316 -3.97897e-20)
(1.01409 -0.353336 1.40103e-19)
(1.11702 -0.39786 7.0742e-20)
(1.17811 -0.422395 -1.45655e-20)
(1.20808 -0.430891 -9.83115e-20)
(1.21767 -0.428233 1.35557e-19)
(1.2156 -0.418796 8.58029e-20)
(1.20788 -0.405804 3.80378e-20)
(1.19813 -0.391303 5.60242e-21)
(1.18826 -0.376426 7.41507e-20)
(1.17911 -0.36173 2.51158e-21)
(1.17104 -0.347454 7.93617e-20)
(1.22672 -0.403503 -1.85318e-19)
(1.22044 -0.392755 6.07284e-22)
(1.21125 -0.379983 1.6668e-20)
(1.20143 -0.36648 -5.50622e-20)
(1.1921 -0.352923 7.42732e-22)
(1.18373 -0.33963 -9.88309e-20)
(1.1765 -0.326743 -7.90329e-20)
(1.17045 -0.314334 -4.46689e-20)
(1.16549 -0.3024 6.40326e-21)
(1.16145 -0.290867 -1.93935e-20)
(1.15795 -0.280031 2.74441e-20)
(1.18804 -0.319481 -1.97266e-20)
(1.18168 -0.307843 -1.67127e-21)
(1.1764 -0.296613 5.31257e-20)
(1.17202 -0.285738 -2.03646e-20)
(1.16819 -0.275501 2.81045e-20)
(1.16442 -0.266375 -2.81897e-20)
(1.15627 0.229601 -7.07864e-21)
(1.13905 0.211819 3.28643e-21)
(1.13665 0.175976 1.66497e-21)
(1.13122 0.161997 -1.68073e-21)
(1.12653 0.140603 2.28747e-21)
(1.12385 0.126694 -1.14946e-21)
(1.1199 0.113433 -2.3762e-21)
(1.11553 0.101515 1.36124e-21)
(1.11242 0.0900629 -6.83535e-22)
(1.11091 0.0804438 1.91563e-21)
(1.10747 0.0725158 1.60825e-21)
(1.10349 0.0641909 5.20347e-22)
(1.10003 0.0560603 2.42037e-21)
(1.09739 0.0488695 1.02985e-21)
(1.09539 0.0408366 7.41479e-22)
(1.09432 0.0351695 9.23124e-22)
(1.09081 0.0284336 -3.8606e-22)
(1.08957 0.0220929 -9.88229e-22)
(1.08786 0.0151602 8.21268e-22)
(1.08918 0.00885726 -1.2126e-21)
(1.08659 0.0044371 -3.46154e-22)
(1.10889 0.0807507 -3.26177e-22)
(1.10563 0.0729583 2.06854e-22)
(1.10169 0.0646292 -3.438e-21)
(1.09828 0.0564249 -1.97211e-22)
(1.09569 0.04916 -7.90499e-22)
(1.09382 0.0409926 -1.8152e-21)
(1.09291 0.0353982 -1.32237e-21)
(1.08934 0.0286884 1.36457e-21)
(1.08808 0.022279 1.83999e-21)
(1.08639 0.0151692 -1.9839e-21)
(1.08791 0.00891303 1.87542e-21)
(1.08513 0.00459939 6.8375e-22)
(1.12383 -0.143206 1.62314e-21)
(1.1201 -0.129677 6.90843e-22)
(1.11525 -0.116276 -1.14801e-21)
(1.11148 -0.102324 -3.97258e-22)
(1.10963 -0.0929734 1.07354e-22)
(1.10364 -0.0817865 4.09656e-22)
(1.10292 -0.071551 -3.73524e-22)
(1.09843 -0.0637626 2.06977e-21)
(1.09747 -0.0534187 -7.08805e-22)
(1.09595 -0.0472078 3.57176e-23)
(1.09434 -0.0396336 -6.20495e-22)
(1.09205 -0.0338038 8.51852e-22)
(1.08959 -0.0268788 1.05687e-21)
(1.0891 -0.0199809 1.78911e-21)
(1.0897 -0.0143044 -1.91669e-21)
(1.08863 -0.00927855 1.78575e-21)
(1.087 -0.00314785 2.14923e-21)
(1.1567 -0.230011 7.11137e-21)
(1.13955 -0.212223 -3.31281e-21)
(1.13754 -0.177266 -1.6788e-21)
(1.13104 -0.162798 1.69179e-21)
(1.1276 -0.142259 -1.29724e-21)
(1.12325 -0.128813 -2.06018e-21)
(1.11824 -0.115454 1.92481e-21)
(1.11415 -0.101786 2.0595e-23)
(1.11197 -0.0923614 1.16408e-21)
(1.10598 -0.0812987 -5.91485e-22)
(1.10499 -0.0712089 -1.34745e-21)
(1.10047 -0.0634256 6.99136e-22)
(1.09932 -0.0533186 -1.43762e-21)
(1.09757 -0.047092 -2.80489e-22)
(1.09584 -0.0394926 1.69168e-21)
(1.09352 -0.0336118 -4.52423e-22)
(1.09109 -0.0267565 -2.03767e-21)
(1.09052 -0.0200056 -2.66328e-21)
(1.09095 -0.0142993 1.13734e-21)
(1.08989 -0.00916759 -2.47327e-21)
(1.08836 -0.0030826 -2.49927e-21)
)
;

boundaryField
{
    inlet
    {
        type            uniformFixedValue;
        uniformValue    constant (1 0 0);
        value           nonuniform 0();
    }
    outlet
    {
        type            pressureInletOutletVelocity;
        value           nonuniform 0();
    }
    cylinder
    {
        type            fixedValue;
        value           uniform (0 0 0);
    }
    top
    {
        type            symmetryPlane;
    }
    bottom
    {
        type            symmetryPlane;
    }
    defaultFaces
    {
        type            empty;
    }
    procBoundary15to14
    {
        type            processor;
        value           nonuniform List<vector> 
98
(
(1.15409 0.270325 -3.83699e-20)
(1.16393 0.333813 6.39084e-20)
(1.1582 0.320608 4.03304e-20)
(1.15357 0.307942 -2.12701e-21)
(1.14987 0.29571 -6.54032e-20)
(1.15409 0.270325 -3.83699e-20)
(1.14666 0.284202 2.71266e-20)
(1.18359 0.402391 -2.34702e-20)
(1.17383 0.386174 -2.10914e-19)
(1.16498 0.370345 -1.16023e-20)
(1.16393 0.333813 6.39084e-20)
(1.15727 0.355079 2.04536e-20)
(1.19271 0.462424 -1.11859e-20)
(1.18695 0.447606 1.81855e-19)
(1.18359 0.402391 -2.34702e-20)
(1.17776 0.430482 4.87046e-20)
(1.12131 0.482476 1.04302e-19)
(1.16143 0.494313 1.66098e-19)
(1.19271 0.462424 -1.11859e-20)
(1.17624 0.490749 3.56581e-20)
(0.920137 0.418526 -1.38679e-19)
(1.12131 0.482476 1.04302e-19)
(1.04215 0.478132 5.42538e-21)
(0.190026 0.0827745 1.04452e-19)
(0.501258 0.229907 -2.58395e-19)
(0.920137 0.418526 -1.38679e-19)
(0.745596 0.356644 2.30482e-19)
(0.190172 -0.082835 -3.62897e-19)
(0.501546 -0.230016 2.79608e-19)
(0.745905 -0.356727 -1.12047e-19)
(0.920427 -0.418553 1.23363e-19)
(0.920427 -0.418553 1.23363e-19)
(1.04235 -0.478064 1.04664e-19)
(1.12145 -0.482352 1.59716e-21)
(1.12145 -0.482352 1.59716e-21)
(1.1615 -0.494112 -3.3047e-20)
(1.17626 -0.490493 -6.25656e-20)
(1.19274 -0.462175 9.90216e-20)
(1.19274 -0.462175 9.90216e-20)
(1.18698 -0.447341 2.36516e-20)
(1.17782 -0.430212 5.78858e-20)
(1.18367 -0.402166 1.82231e-20)
(1.18367 -0.402166 1.82231e-20)
(1.17396 -0.385961 8.42036e-22)
(1.16515 -0.370148 -6.25936e-20)
(1.15749 -0.354902 -4.65201e-20)
(1.16417 -0.333703 -6.81636e-20)
(1.16417 -0.333703 -6.81636e-20)
(1.15848 -0.320525 1.34299e-20)
(1.15391 -0.307892 -1.22129e-20)
(1.15025 -0.295698 1.07806e-20)
(1.14708 -0.284228 -2.7272e-20)
(1.1545 -0.270423 3.69482e-20)
(1.1545 -0.270423 3.69482e-20)
(1.14755 0.23164 4.123e-21)
(1.13263 0.214151 3.82925e-21)
(1.13101 0.177289 -5.50718e-21)
(1.12695 0.163139 3.32477e-21)
(1.1226 0.141489 -4.11003e-21)
(1.12064 0.127341 -7.31916e-22)
(1.11704 0.114118 1.15452e-21)
(1.11286 0.102095 4.04486e-22)
(1.11 0.0904291 -9.92985e-23)
(1.11 0.0904291 -9.92985e-23)
(1.10686 0.0810312 -3.99073e-21)
(1.10382 0.0734046 1.195e-21)
(1.09991 0.0650908 -2.22276e-21)
(1.09653 0.0568076 -2.77015e-21)
(1.09398 0.0494553 2.0157e-21)
(1.09225 0.0411371 -3.87585e-21)
(1.09151 0.0356286 -2.12551e-21)
(1.08788 0.0289651 9.54807e-22)
(1.08657 0.0224764 -1.58937e-21)
(1.08492 0.0151634 6.91029e-22)
(1.08664 0.00897282 1.53679e-21)
(1.08366 0.00478146 -2.6233e-21)
(1.12009 -0.144153 2.83892e-21)
(1.11694 -0.130535 2.67338e-22)
(1.11229 -0.117126 7.05937e-23)
(1.1088 -0.10286 1.27711e-21)
(1.10729 -0.0935979 1.84029e-21)
(1.10129 -0.0822966 3.70944e-21)
(1.10084 -0.0719001 -1.10668e-21)
(1.09639 -0.0641102 2.09233e-21)
(1.09561 -0.053506 6.86931e-22)
(1.09432 -0.0473043 1.9741e-21)
(1.09286 -0.0397749 6.8555e-23)
(1.09059 -0.0340116 3.605e-22)
(1.08807 -0.0270092 9.30361e-22)
(1.08768 -0.0199394 -2.08069e-21)
(1.08846 -0.0142993 -4.98293e-22)
(1.08738 -0.00940514 1.84444e-21)
(1.08562 -0.00322643 -1.00457e-21)
(1.14802 -0.232019 -6.30311e-21)
(1.13321 -0.214537 -5.4366e-21)
(1.13198 -0.178613 8.45009e-21)
(1.1268 -0.163925 -4.66892e-21)
(1.1268 -0.163925 -4.66892e-21)
)
;
    }
    procBoundary15to16
    {
        type            processor;
        value           nonuniform List<vector> 
90
(
(1.20633 0.32316 2.40961e-20)
(1.19861 0.311975 4.54062e-20)
(1.19197 0.301071 1.33989e-20)
(1.18637 0.290497 9.17068e-22)
(1.18166 0.280212 -1.36967e-20)
(1.1775 0.270479 1.90393e-20)
(1.17341 0.261821 4.619e-22)
(1.23099 0.391211 6.5833e-21)
(1.2354 0.387738 2.42627e-20)
(1.23116 0.379357 2.55723e-21)
(1.2229 0.368394 1.27895e-20)
(1.21337 0.356302 4.31936e-20)
(1.20398 0.343888 6.21411e-21)
(1.20398 0.343888 6.21411e-21)
(0.993319 0.320783 -4.98351e-20)
(1.10507 0.368011 -8.51389e-20)
(1.1747 0.396534 9.22648e-20)
(1.21154 0.409175 1.45142e-19)
(1.21154 0.409175 1.45142e-19)
(0.146907 0.0355182 -2.2146e-20)
(0.417948 0.115099 -2.32071e-19)
(0.660359 0.20499 1.21239e-19)
(0.861661 0.287743 -6.86145e-20)
(0.861661 0.287743 -6.86145e-20)
(0.147049 -0.0355517 3.50597e-21)
(0.418274 -0.115182 2.42065e-19)
(0.66077 -0.205095 -3.20822e-20)
(0.862068 -0.287833 1.40659e-20)
(0.862068 -0.287833 1.40659e-20)
(0.993684 -0.320842 -5.43807e-20)
(1.10535 -0.368016 1.09396e-19)
(1.17488 -0.396483 -4.44625e-20)
(1.21164 -0.409075 -8.44999e-21)
(1.22595 -0.410032 -4.62699e-20)
(1.22595 -0.410032 -4.62699e-20)
(1.23544 -0.387622 -7.11432e-21)
(1.2312 -0.379236 -3.74128e-20)
(1.22296 -0.368278 6.97004e-20)
(1.21345 -0.356199 -2.32874e-20)
(1.20409 -0.343805 -2.07277e-20)
(1.19553 -0.331501 -2.91849e-20)
(1.19553 -0.331501 -2.91849e-20)
(1.19878 -0.311975 -4.54564e-20)
(1.19217 -0.301102 -1.39608e-20)
(1.18661 -0.290562 3.13701e-20)
(1.18193 -0.280317 -3.31491e-20)
(1.1778 -0.270625 -2.41291e-20)
(1.17373 -0.261999 7.40692e-22)
(1.16452 0.227354 3.64646e-21)
(1.14553 0.209405 -6.691e-21)
(1.14212 0.174629 1.60137e-21)
(1.13553 0.16079 1.78658e-21)
(1.13043 0.139724 -5.47342e-24)
(1.12707 0.126018 -9.25974e-23)
(1.12277 0.112761 1.16897e-21)
(1.11819 0.100952 -2.999e-22)
(1.11482 0.0896828 2.74904e-22)
(1.11294 0.0801149 1.49442e-21)
(1.10933 0.0720836 2.76158e-21)
(1.10531 0.0637745 -1.58838e-22)
(1.10178 0.0557111 1.01917e-21)
(1.09908 0.0485846 1.1877e-21)
(1.09695 0.0406711 1.24434e-21)
(1.09574 0.0349439 1.33405e-21)
(1.09228 0.0281985 6.68706e-22)
(1.09105 0.0219175 1.8043e-21)
(1.08932 0.0151373 9.02601e-22)
(1.09045 0.00880529 3.88933e-22)
(1.08804 0.00429458 1.80294e-21)
(1.16489 -0.227789 -4.01272e-21)
(1.14596 -0.20982 2.64817e-21)
(1.14293 -0.175885 -1.89654e-21)
(1.13531 -0.161596 1.67882e-21)
(1.13135 -0.14131 -1.64436e-22)
(1.12642 -0.127947 1.16469e-22)
(1.12123 -0.114662 1.22624e-21)
(1.11682 -0.101245 -1.1796e-21)
(1.11433 -0.0917637 1.02056e-21)
(1.10832 -0.0808296 6.51961e-22)
(1.10705 -0.0708733 -6.12493e-22)
(1.10249 -0.0631012 -2.24591e-23)
(1.10116 -0.0532066 9.41952e-22)
(1.0992 -0.0469605 7.46936e-22)
(1.09736 -0.0393535 -6.55705e-22)
(1.09499 -0.0334329 5.51078e-22)
(1.09259 -0.0266409 -6.52357e-22)
(1.09192 -0.0200157 1.68228e-23)
(1.0922 -0.0142858 7.62717e-22)
(1.09115 -0.00907019 -3.79704e-22)
(1.08971 -0.00302867 -1.74479e-24)
)
;
    }
}


// ************************************************************************* //
