/*--------------------------------*- C++ -*----------------------------------*\
  =========                 |
  \\      /  F ield         | OpenFOAM: The Open Source CFD Toolbox
   \\    /   O peration     | Website:  https://openfoam.org
    \\  /    A nd           | Version:  7
     \\/     M anipulation  |
\*---------------------------------------------------------------------------*/
FoamFile
{
    version     2.0;
    format      ascii;
    class       surfaceScalarField;
    location    "5";
    object      phi;
}
// * * * * * * * * * * * * * * * * * * * * * * * * * * * * * * * * * * * * * //

dimensions      [0 3 -1 0 0 0 0];

internalField   nonuniform List<scalar> 
17388
(
-1.22868e-05
1.22872e-05
-3.60049e-10
-4.27559e-05
3.04701e-05
-1.02612e-09
-8.76309e-05
4.48766e-05
-1.66684e-09
-0.000144121
5.64926e-05
-2.27439e-09
-0.000210151
6.60327e-05
-2.84572e-09
-0.000284232
7.40847e-05
-3.38599e-09
-0.000365344
8.1115e-05
-3.90334e-09
-0.000452813
8.7474e-05
-4.40283e-09
-0.000546211
9.34023e-05
-4.88376e-09
-0.000645244
9.90389e-05
-5.33917e-09
-0.000749674
0.000104435
-5.75927e-09
-0.000859243
0.000109575
-6.13422e-09
-0.000973628
0.000114392
-6.4531e-09
-0.00109241
0.000118791
-6.70455e-09
-0.00121507
0.000122661
-6.87898e-09
-0.00134095
0.000125887
-6.96588e-09
-0.00146931
0.000128373
-6.95549e-09
-0.00159935
0.000130047
-6.84008e-09
-0.00173014
0.000130796
-6.61551e-09
-0.00186063
0.000130494
-6.26639e-09
0.000129771
-5.78851e-09
-0.0019904
-1.17852e-05
2.40724e-05
-4.11396e-05
5.98245e-05
-8.44997e-05
8.82367e-05
-0.000139199
0.000111192
-0.000203222
0.000130056
-0.000275095
0.000145958
-0.000353776
0.000159796
-0.000438551
0.000172249
-0.000528932
0.000183784
-0.000624564
0.000194671
-0.000725136
0.000205008
-0.000830317
0.000214756
-0.000939705
0.000223779
-0.00105279
0.000231877
-0.00116894
0.000238813
-0.0012874
0.000244342
-0.00140728
0.000248252
-0.00152762
0.000250387
-0.00164734
0.000250516
-0.0017652
0.000248359
0.000245037
-0.00188047
-1.08167e-05
3.48891e-05
-3.80079e-05
8.70157e-05
-7.84162e-05
0.000128645
-0.000129614
0.00016239
-0.000189706
0.000190148
-0.000257248
0.000213499
-0.000331161
0.000233709
-0.000410653
0.000251741
-0.000495133
0.000268263
-0.000584121
0.00028366
-0.00067718
0.000298067
-0.00077384
0.000311417
-0.000873553
0.000323492
-0.000975653
0.000333976
-0.00107933
0.00034249
-0.00118362
0.000348633
-0.00128741
0.000352039
-0.00138946
0.000352437
-0.00148843
0.000349483
-0.00158275
0.000342681
0.000333398
-0.00167111
-9.44747e-06
4.43366e-05
-3.35548e-05
0.000111123
-6.97273e-05
0.000164817
-0.000115873
0.000208536
-0.000170271
0.000244546
-0.000231525
0.000274752
-0.000298516
0.0003007
-0.000370348
0.000323574
-0.000446289
0.000344203
-0.000525697
0.000363068
-0.000607961
0.000380331
-0.000692434
0.000395889
-0.000778383
0.000409441
-0.000864949
0.000420542
-0.000951117
0.000428659
-0.0010357
0.000433211
-0.0011173
0.000433644
-0.00119439
0.00042953
-0.00126533
0.000420415
-0.00132814
0.000405496
0.000386066
-0.00138081
-7.76965e-06
5.21062e-05
-2.80541e-05
0.000131407
-5.89263e-05
0.00019569
-9.87026e-05
0.000248312
-0.00014588
0.000291724
-0.000199135
0.000328008
-0.000257313
0.000358878
-0.000319407
0.000385667
-0.000384521
0.000409318
-0.000451831
0.000430378
-0.000520527
0.000449027
-0.000589765
0.000465127
-0.000658616
0.000478293
-0.000726032
0.000487958
-0.000790805
0.000493432
-0.000851548
0.000493954
-0.000906663
0.000488758
-0.000954358
0.000477226
-0.000992747
0.000458804
-0.00101957
0.000432321
0.000398436
-0.00103194
-5.89364e-06
5.79999e-05
-2.1839e-05
0.000147353
-4.66233e-05
0.000220474
-7.90096e-05
0.000280698
-0.000117748
0.000330462
-0.000161611
0.000371871
-0.000209424
0.00040669
-0.000260073
0.000436316
-0.000312504
0.000461749
-0.0003657
0.000483574
-0.000418651
0.000501978
-0.000470315
0.00051679
-0.000519578
0.000527556
-0.000565223
0.000533603
-0.000605897
0.000534106
-0.000640088
0.000528144
-0.000666087
0.000514758
-0.000681983
0.000493121
-0.000685813
0.000462634
-0.000675418
0.000421926
0.000369515
-0.000646496
-3.93884e-06
6.19387e-05
-1.52787e-05
0.000158693
-3.35051e-05
0.0002387
-5.78323e-05
0.000305026
-8.72787e-05
0.000359908
-0.000120737
0.00040533
-0.000157035
0.000442988
-0.000194973
0.000474254
-0.000233354
0.00050013
-0.000270984
0.000521204
-0.000306664
0.000537658
-0.000339169
0.000549295
-0.000367223
0.00055561
-0.000389472
0.000555852
-0.000404465
0.000549099
-0.000410635
0.000534314
-0.000406278
0.0005104
-0.000389509
0.000476352
-0.000358432
0.000431557
-0.000311761
0.000375255
0.000303472
-0.000245719
-2.02422e-06
6.39629e-05
-8.75097e-06
0.000165419
-2.02916e-05
0.000250241
-3.62785e-05
0.000321013
-5.59953e-05
0.000379625
-7.84705e-05
0.000427805
-0.000102559
0.000467076
-0.000127011
0.000498706
-0.000150514
0.000523633
-0.000171729
0.000542419
-0.000189295
0.000555224
-0.000201831
0.000561832
-0.000207927
0.000561706
-0.000206125
0.00055405
-0.00019491
0.000537884
-0.0001727
0.000512104
-0.000137832
0.000475533
-8.85252e-05
0.000427045
-2.27443e-05
0.000365777
6.15286e-05
0.000290983
0.000204792
0.000160208
-2.62682e-07
6.42256e-05
-2.61602e-06
0.000167773
-7.68604e-06
0.000255311
-1.54559e-05
0.000328782
-2.54485e-05
0.000389618
-3.68325e-05
0.000439189
-4.85177e-05
0.000478762
-5.92358e-05
0.000509424
-6.7606e-05
0.000532004
-7.21827e-05
0.000546996
-7.14859e-05
0.000554527
-6.40178e-05
0.000554364
-4.82662e-05
0.000545954
-2.27017e-05
0.000528485
1.42317e-05
0.000500951
6.4126e-05
0.00046221
0.000128617
0.000411041
0.000209455
0.000346207
0.000308446
0.000266785
0.000426625
0.000172804
6.32674e-05
0.00056815
1.26327e-06
6.29624e-05
2.81028e-06
0.000166226
3.67206e-06
0.000254449
3.60245e-06
0.000328852
2.8824e-06
0.000390338
2.2117e-06
0.000439859
2.60862e-06
0.000478365
5.32174e-06
0.000506711
1.1756e-05
0.00052557
2.34116e-05
0.00053534
4.18391e-05
0.000536099
6.86089e-05
0.000527594
0.000105296
0.000509267
0.000153477
0.000480305
0.000214733
0.000439695
0.000290669
0.000386274
0.000382942
0.000318769
0.000493335
0.000235814
0.000623927
0.000136193
0.000776331
2.04e-05
-0.000114316
0.000953914
2.47175e-06
6.04906e-05
7.27511e-06
0.000161422
1.32538e-05
0.000248471
2.00111e-05
0.000322095
2.76948e-05
0.000382654
3.6895e-05
0.000430659
4.85494e-05
0.00046671
6.38576e-05
0.000491403
8.42054e-05
0.000505222
0.000111098
0.000508447
0.000146108
0.00050109
0.000190834
0.000482867
0.000246885
0.000453217
0.000315866
0.000411324
0.000399397
0.000356164
0.000499139
0.000286532
0.000616843
0.000201064
0.000754433
9.82236e-05
0.000914399
-2.37726e-05
0.00109886
-0.000164058
-0.000327395
0.00131194
3.32511e-06
5.71655e-05
1.06076e-05
0.00015414
2.06794e-05
0.000238399
3.31065e-05
0.000309668
4.7975e-05
0.000367786
6.58001e-05
0.000412834
8.74444e-05
0.000445066
0.000114042
0.000464805
0.000146928
0.000472336
0.000187577
0.000467798
0.000237547
0.00045112
0.000298443
0.000421971
0.000371899
0.000379761
0.000459576
0.000323647
0.000563186
0.000252553
0.000684545
0.000165173
0.000825643
5.99659e-05
0.000988694
-6.48269e-05
0.00117676
-0.00021184
0.00139231
-0.000379607
-0.000576975
0.00164189
3.80636e-06
5.33591e-05
1.27282e-05
0.000145218
2.57467e-05
0.00022538
4.25021e-05
0.000292912
6.30942e-05
0.000347194
8.80084e-05
0.00038792
0.000118052
0.000415022
0.000154297
0.000428561
0.00019802
0.000428612
0.000250654
0.000415165
0.000313743
0.000388031
0.000388913
0.0003468
0.000477871
0.000290803
0.000582415
0.000219103
0.000704481
0.000130487
0.000846201
2.34531e-05
0.00101003
-0.000103864
0.00119864
-0.000253435
0.00141563
-0.000428831
0.00166359
-0.000627569
-0.00086539
0.00195201
3.92684e-06
4.94323e-05
1.36531e-05
0.000135492
2.84501e-05
0.000210583
4.81331e-05
0.000273229
7.28901e-05
0.000322437
0.000103231
0.000357579
0.000139946
0.000378307
0.000184072
0.000384435
0.000236854
0.00037583
0.000299717
0.000352301
0.00037424
0.000313509
0.00046215
0.00025889
0.000565338
0.000187615
0.000685899
9.85425e-05
0.000826161
-9.77542e-06
0.000988836
-0.000139221
0.00117691
-0.000291936
0.00139365
-0.000470175
0.00164293
-0.000678111
0.00192685
-0.000911495
-0.00119525
0.00225671
3.72444e-06
4.57079e-05
1.34944e-05
0.000125722
2.89867e-05
0.000195091
5.02776e-05
0.000251938
7.77156e-05
0.000294999
0.000111897
0.000323398
0.000153656
0.000336548
0.000204054
0.000334036
0.000264376
0.000315508
0.000336123
0.000280554
0.000421023
0.000228609
0.000521044
0.000158869
0.000638435
7.02235e-05
0.000775765
-3.87871e-05
0.000935986
-0.000169996
0.00112235
-0.000325589
0.00133845
-0.000508031
0.00158788
-0.000719606
0.00187399
-0.000964226
0.00219776
-0.00123527
-0.00156682
0.00256933
3.2615e-06
4.24464e-05
1.24537e-05
0.00011653
2.77464e-05
0.000179798
4.95495e-05
0.000230135
7.84416e-05
0.000266107
0.000115181
0.000286659
0.000160726
0.000291003
0.000216262
0.0002785
0.000283228
0.000248542
0.000363344
0.000200438
0.000458647
0.000133307
0.000571523
4.59926e-05
0.000704749
-6.30025e-05
0.000861497
-0.000195535
0.00104529
-0.000353786
0.00125984
-0.000540141
0.00150878
-0.000756975
0.00179537
-0.0010062
0.00212112
-0.00128998
0.00248537
-0.00159951
-0.00197464
0.00289319
2.62122e-06
3.98251e-05
1.08087e-05
0.000108342
2.52866e-05
0.00016532
4.6858e-05
0.000208564
7.64026e-05
0.000236562
0.000114927
0.000248135
0.000163622
0.000242307
0.000223928
0.000218194
0.000297588
0.000174882
0.000386709
0.000111317
0.000493802
2.62137e-05
0.000621813
-8.20181e-05
0.000774097
-0.000215286
0.000954331
-0.000375769
0.00116631
-0.000565764
0.00141359
-0.000787422
0.00169892
-0.00104231
0.002024
-0.00133127
0.00238717
-0.00165315
0.00278578
-0.00199812
-0.0024054
0.00321655
1.90195e-06
3.79232e-05
8.89216e-06
0.000101352
2.22851e-05
0.000151927
4.33279e-05
0.000187521
7.32751e-05
0.000206615
0.00011348
0.00020793
0.000165491
0.000190296
0.000231146
0.000152539
0.000312653
9.33755e-05
0.000412646
1.13238e-05
0.000534213
-9.53533e-05
0.000680845
-0.00022865
0.000856306
-0.000390747
0.00106436
-0.000583825
0.00130837
-0.000809767
0.0015907
-0.00106976
0.00191206
-0.00136366
0.00227116
-0.00169038
0.00266263
-0.00204462
0.00308154
-0.00241703
-0.00283898
0.00351512
1.20868e-06
3.67145e-05
7.06038e-06
9.55003e-05
1.94733e-05
0.000139514
4.01828e-05
0.000166812
7.08915e-05
0.000175906
0.000113402
0.000165419
0.000169744
0.000133954
0.000242285
7.99979e-05
0.000333807
1.85402e-06
0.000447532
-0.000102401
0.000587059
-0.00023488
0.000756196
-0.000397788
0.00095864
-0.000593191
0.0011975
-0.000822681
0.00147467
-0.00108694
0.00179019
-0.00138527
0.00214161
-0.00171509
0.00252365
-0.00207241
0.00292787
-0.00244884
0.00334691
-0.00283607
-0.00325243
0.00376035
6.42266e-07
3.60722e-05
5.65554e-06
9.04871e-05
1.75556e-05
0.000127614
3.86013e-05
0.000145766
7.10118e-05
0.000143495
0.000117129
0.000119302
0.000179562
7.15218e-05
0.000261282
-1.72238e-06
0.000365665
-0.000102529
0.000496418
-0.000233154
0.000657391
-0.000395853
0.000852215
-0.000592613
0.00108379
-0.000824762
0.00135361
-0.00109251
0.00166111
-0.00139444
0.00200302
-0.00172718
0.00237318
-0.00208524
0.0027621
-0.00246133
0.00315966
-0.0028464
0.00355611
-0.00323252
-0.00362478
0.00392846
2.88479e-07
3.57838e-05
4.96655e-06
8.5809e-05
1.71265e-05
0.000115454
3.95741e-05
0.000123318
7.50956e-05
0.000107974
0.000126633
6.77644e-05
0.000197413
7.41986e-07
0.000291
-9.53097e-05
0.00041124
-0.000222769
0.000562054
-0.000383968
0.000747061
-0.00058086
0.00096903
-0.000814582
0.0012292
-0.00108494
0.00152659
-0.00138989
0.0018574
-0.00172525
0.00221476
-0.00208454
0.00258905
-0.00245953
0.00296782
-0.0028401
0.00333971
-0.00321829
0.00368998
-0.00358278
-0.00393978
0.00400498
2.04408e-07
3.55794e-05
5.19528e-06
8.08181e-05
1.86045e-05
0.000102045
4.37903e-05
9.81326e-05
8.41284e-05
6.76359e-05
0.000143171
8.722e-06
0.000224727
-8.0814e-05
0.000332825
-0.000203408
0.000471515
-0.000361459
0.000644486
-0.000556939
0.000854503
-0.000790877
0.0011027
-0.00106278
0.00138789
-0.00137012
0.00170597
-0.00170798
0.00204977
-0.00206905
0.00240928
-0.00244406
0.00277261
-0.00282286
0.00312699
-0.00319448
0.00346166
-0.00355297
0.00376056
-0.00388167
-0.00420218
0.00402296
4.11481e-07
3.51679e-05
6.44052e-06
7.47891e-05
2.21987e-05
8.6287e-05
5.15833e-05
6.8748e-05
9.85436e-05
2.06756e-05
0.000167192
-5.9926e-05
0.000261794
-0.000175416
0.000386599
-0.000328213
0.000545465
-0.000520325
0.000741289
-0.000752763
0.000975292
-0.00102488
0.00124629
-0.00133378
0.0015501
-0.00167394
0.00187943
-0.00203731
0.00222417
-0.00241379
0.0025724
-0.00279229
0.00291173
-0.00316219
0.00323114
-0.0035139
0.00352106
-0.00384289
0.00377841
-0.00413902
-0.00442412
0.00400035
9.10493e-07
3.42574e-05
8.70376e-06
6.69958e-05
2.79165e-05
6.70742e-05
6.29451e-05
3.37194e-05
0.000118253
-3.46327e-05
0.000198398
-0.000140071
0.000307892
-0.00028491
0.000450859
-0.000471179
0.000630471
-0.000699937
0.000848222
-0.000970514
0.00110316
-0.00127981
0.00139126
-0.00162188
0.0017053
-0.00198797
0.00203515
-0.00236716
0.00236892
-0.00274755
0.00269436
-0.00311773
0.00300053
-0.00346836
0.00327931
-0.00379267
0.00352567
-0.00408925
0.00373973
-0.00435308
-0.00460534
0.00392095
1.67449e-06
3.25829e-05
1.19083e-05
5.6762e-05
3.56061e-05
4.33764e-05
7.75998e-05
-8.27425e-06
0.000142766
-9.97991e-05
0.000235929
-0.000233234
0.000361557
-0.000410538
0.000523225
-0.000632847
0.000722878
-0.00089959
0.000960016
-0.00120765
0.00123103
-0.00155083
0.00152894
-0.00191979
0.00184377
-0.0023028
0.00216362
-0.00268701
0.00247623
-0.00306017
0.00277072
-0.00341222
0.00303897
-0.00373661
0.00327662
-0.00403032
0.00348263
-0.00429526
0.00366037
-0.00453081
-0.00475737
0.00381239
2.66301e-06
2.99199e-05
1.59318e-05
4.34932e-05
4.50187e-05
1.42895e-05
9.5106e-05
-5.83615e-05
0.00017134
-0.000176034
0.000278578
-0.000340471
0.000420885
-0.000552845
0.00060081
-0.000812772
0.000818525
-0.0011173
0.00107106
-0.00146019
0.00135194
-0.0018317
0.00165147
-0.00221933
0.00195781
-0.00260914
0.00225858
-0.00298779
0.00254271
-0.00334429
0.00280192
-0.00367144
0.00303164
-0.00396633
0.00323112
-0.0042298
0.00340246
-0.0044666
0.00355092
-0.00467928
-0.00488628
0.00367983
3.83487e-06
2.6085e-05
2.06397e-05
2.66883e-05
5.58718e-05
-2.09425e-05
0.000114956
-0.000117445
0.000203125
-0.000264203
0.000324977
-0.000462323
0.000483766
-0.000711634
0.000680513
-0.00100952
0.000913136
-0.00134993
0.00117592
-0.00172297
0.00145966
-0.00211545
0.00175265
-0.00251232
0.00204236
-0.00289885
0.00231733
-0.00326276
0.00256889
-0.00359585
0.00279206
-0.00389461
0.00298571
-0.00415998
0.00315199
-0.00439607
0.00329498
-0.00460959
0.00342061
-0.00480491
-0.00499807
0.0035324
5.15589e-06
2.09291e-05
2.59098e-05
5.93435e-06
6.78936e-05
-6.29263e-05
0.000136641
-0.000186193
0.000237248
-0.00036481
0.000373712
-0.000598786
0.000548026
-0.000885949
0.000759212
-0.00122071
0.00100259
-0.0015933
0.00126971
-0.00199009
0.00154917
-0.00239491
0.00182828
-0.00279143
0.00209512
-0.00316568
0.00234032
-0.00350797
0.00255829
-0.00381381
0.00274734
-0.00408367
0.00290919
-0.00432183
0.00304788
-0.00453476
0.0031684
-0.00473011
0.00327649
-0.00491299
-0.00509677
0.00337519
6.6024e-06
1.43267e-05
3.16432e-05
-1.91065e-05
8.08434e-05
-0.000112126
0.000159683
-0.000265033
0.00027285
-0.000477977
0.000423358
-0.000749294
0.000611491
-0.00107408
0.000833876
-0.00144309
0.00108312
-0.00184255
0.0013484
-0.00225536
0.00161697
-0.00266348
0.00187634
-0.00305081
0.00211633
-0.00340567
0.00233041
-0.00372205
0.00251613
-0.00399954
0.00267466
-0.00424219
0.00280965
-0.00445682
0.00292608
-0.0046512
0.00302904
-0.00483306
0.00312356
-0.00500751
-0.0051852
0.00321199
8.16015e-06
6.16658e-06
3.77623e-05
-4.87086e-05
9.45066e-05
-0.000168871
0.00018362
-0.000354146
0.000309071
-0.000603428
0.000472482
-0.000912705
0.000672013
-0.00127361
0.000901675
-0.00167275
0.00115154
-0.00209241
0.00140905
-0.00251288
0.0016612
-0.00291563
0.00189681
-0.00328642
0.00210822
-0.00361707
0.00229193
-0.00390576
0.00244832
-0.00415593
0.00258059
-0.00437447
0.00269351
-0.00456973
0.00279224
-0.00474993
0.00288139
-0.00492222
0.00296511
-0.00509123
-0.0052651
0.00304501
9.82043e-06
-3.65385e-06
4.42001e-05
-8.30883e-05
0.000108676
-0.000233347
0.000207983
-0.000453454
0.000345026
-0.00074047
0.00051963
-0.00108731
0.000727528
-0.00148151
0.000960108
-0.00190533
0.00120536
-0.00233767
0.00144994
-0.00275745
0.0016816
-0.0031473
0.00189132
-0.00349613
0.00207428
-0.00380003
0.00222983
-0.00406131
0.00236053
-0.00428663
0.00247083
-0.00448478
0.00256587
-0.00466476
0.00265045
-0.00483451
0.00272851
-0.00500028
0.00280325
-0.00516597
-0.0053375
0.00287565
1.1575e-05
-1.52288e-05
5.08865e-05
-0.0001224
0.000123129
-0.00030559
0.000232271
-0.000562595
0.000379787
-0.000887986
0.00056336
-0.00127088
0.000776139
-0.00169429
0.00100715
-0.00213634
0.00124302
-0.00257354
0.00147057
-0.002985
0.00167923
-0.00335596
0.00186258
-0.00367948
0.00201862
-0.00395607
0.00214902
-0.0041917
0.00225779
-0.0043954
0.00234997
-0.00457696
0.0024305
-0.0047453
0.00250359
-0.0049076
0.00257239
-0.00506908
0.00263927
-0.00523285
-0.00540294
0.00270471
1.34118e-05
-2.86406e-05
5.77369e-05
-0.000166725
0.000137613
-0.000385465
0.000255934
-0.000680917
0.000412397
-0.00104445
0.000602287
-0.00146077
0.000816226
-0.00190823
0.00104137
-0.00236149
0.00126385
-0.00279602
0.00147154
-0.00319269
0.00165613
-0.00354055
0.00181394
-0.00383729
0.00194541
-0.00408754
0.00205391
-0.00430019
0.00214425
-0.00448575
0.00222151
-0.00465421
0.00229012
-0.00481391
0.00235357
-0.00497105
0.00241429
-0.0051298
0.00247396
-0.00529251
-0.00546165
0.00253267
1.53122e-05
-4.39529e-05
6.46462e-05
-0.000216059
0.000151835
-0.000472654
0.000278383
-0.000807465
0.000441904
-0.00120797
0.000635172
-0.00165404
0.00084655
-0.00211961
0.001062
-0.00257694
0.00126802
-0.00300204
0.00145425
-0.00337892
0.00161493
-0.00370123
0.00174888
-0.00397125
0.00185851
-0.00419716
0.00194825
-0.00438993
0.00202318
-0.00456068
0.00208803
-0.00471906
0.0021466
-0.00487248
0.00220166
-0.00502611
0.00225501
-0.00518315
0.00230778
-0.00534528
-0.00551372
0.00235985
1.725e-05
-6.12029e-05
7.14875e-05
-0.000270296
0.000165473
-0.000566639
0.000299014
-0.000941007
0.000467417
-0.00137637
0.000660998
-0.00184762
0.000866325
-0.00232493
0.00106894
-0.00277956
0.00125645
-0.00318955
0.0014207
-0.00354317
0.00155847
-0.003839
0.00167074
-0.00408352
0.00176128
-0.00428771
0.00183507
-0.00446372
0.00189704
-0.00462266
0.00195138
-0.0047734
0.00200122
-0.00492231
0.00204867
-0.00507356
0.00209503
-0.00522951
0.00214105
-0.0053913
-0.00555912
0.00218645
1.91922e-05
-8.03951e-05
7.81168e-05
-0.000329221
0.000178186
-0.000666708
0.000317239
-0.00108006
0.000488161
-0.00154729
0.00067904
-0.0020385
0.000875243
-0.00252114
0.00106264
-0.00296695
0.00123053
-0.00335744
0.00137315
-0.00368579
0.00148959
-0.00395543
0.00158251
-0.00417644
0.00165653
-0.00436173
0.00171673
-0.00452392
0.00176765
-0.00467358
0.00181285
-0.0048186
0.00185481
-0.00496427
0.00189512
-0.00511387
0.0019347
-0.00526909
0.00197398
-0.00543058
-0.00559779
0.00201265
2.11004e-05
-0.000101496
8.43793e-05
-0.0003925
0.000189634
-0.000771962
0.000332524
-0.00122295
0.00050353
-0.0017183
0.000688891
-0.00222386
0.000873436
-0.00270568
0.00104402
-0.00313753
0.00119199
-0.0035054
0.00131394
-0.00380774
0.0014109
-0.00405239
0.00148675
-0.00425229
0.00154649
-0.00442147
0.00159502
-0.00457244
0.00163632
-0.00471489
0.00167332
-0.0048556
0.00170795
-0.00499891
0.00174138
-0.00514731
0.00177424
-0.00530195
0.00180676
-0.0054631
-0.00562964
0.00183862
2.29329e-05
-0.000124428
9.0118e-05
-0.000459685
0.000199498
-0.000881342
0.000344423
-0.00136788
0.00051312
-0.001887
0.00069047
-0.00240121
0.000861415
-0.00287663
0.0010143
-0.00329042
0.00114268
-0.00363378
0.00124529
-0.00391035
0.00132471
-0.00413182
0.00138557
-0.00431315
0.00143293
-0.00446883
0.00147126
-0.00461077
0.00150397
-0.0047476
0.00153341
-0.00488504
0.00156104
-0.00502654
0.00158771
-0.00517398
0.00161385
-0.00532809
0.00163955
-0.0054888
-0.0056546
0.00166451
2.46466e-05
-0.000149075
9.51818e-05
-0.00053022
0.000207497
-0.000993657
0.000352599
-0.00151298
0.000516737
-0.00205113
0.000683983
-0.00256846
0.000839978
-0.00303262
0.000974884
-0.00342532
0.00108444
-0.00374334
0.00116924
-0.00399515
0.00123299
-0.00419557
0.00128068
-0.00436084
0.00131718
-0.00450533
0.00134643
-0.00464002
0.00137127
-0.00477244
0.00139355
-0.00490731
0.00141436
-0.00504735
0.00143431
-0.00519393
0.00145369
-0.00534747
0.0014725
-0.00550761
-0.0056726
0.00149049
2.61992e-05
-0.000175274
9.94333e-05
-0.000603454
0.000213405
-0.00110763
0.000356844
-0.00165642
0.000514394
-0.00220868
0.000669882
-0.00272394
0.000810111
-0.00317285
0.000927237
-0.00354245
0.00101904
-0.00383514
0.0010876
-0.00406371
0.00113737
-0.00424535
0.00117343
-0.00439689
0.00120025
-0.00453215
0.00122124
-0.00466101
0.0012387
-0.00478991
0.00125406
-0.00492267
0.00126813
-0.00506142
0.00128134
-0.00520715
0.0012939
-0.00536002
0.00130575
-0.00551946
-0.00568357
0.00131672
2.75512e-05
-0.000202825
0.000102755
-0.000678658
0.000217056
-0.00122193
0.000357076
-0.00179644
0.000506287
-0.0023579
0.000648793
-0.00286645
0.000772904
-0.00329696
0.000872794
-0.00364234
0.000948039
-0.00391039
0.00100188
-0.00411755
0.00103917
-0.00428264
0.00106484
-0.00442256
0.0010829
-0.0045502
0.00109621
-0.00467433
0.00110661
-0.00480031
0.00111518
-0.00493124
0.00112253
-0.00506876
0.00112897
-0.00521359
0.00113462
-0.00536568
0.00113945
-0.00552429
-0.00568745
0.00114334
2.86668e-05
-0.000231492
0.000105053
-0.000755044
0.000218354
-0.00133523
0.000353333
-0.00193142
0.00049276
-0.00249732
0.000621465
-0.00299516
0.000729476
-0.00340497
0.000812904
-0.00372576
0.000872846
-0.00397033
0.000913355
-0.00415806
0.00093945
-0.00430874
0.000955725
-0.00443883
0.000965703
-0.00456018
0.000971743
-0.00468037
0.000975279
-0.00480385
0.000977125
-0.00493308
0.000977728
-0.00506937
0.000977325
-0.00521318
0.000976004
-0.00536436
0.00097372
-0.005522
-0.0056842
0.000970468
2.95161e-05
-0.000261008
0.000106263
-0.000831791
0.00021727
-0.00144624
0.000345763
-0.00205991
0.000474269
-0.00262583
0.000588707
-0.00310959
0.000680918
-0.00349719
0.000748792
-0.00379364
0.000794654
-0.00401619
0.00082308
-0.00418648
0.000839029
-0.00432469
0.000846694
-0.0044465
0.00084909
-0.00456258
0.000848129
-0.00467941
0.000844916
-0.00480063
0.000840055
-0.00492822
0.00083388
-0.00506319
0.000826566
-0.00520587
0.000818181
-0.00535597
0.000808695
-0.00551252
-0.00567371
0.000798204
3.00754e-05
-0.000291084
0.000106349
-0.000908065
0.000213838
-0.00155373
0.000334597
-0.00218067
0.000451343
-0.00274257
0.000551345
-0.0032096
0.000628258
-0.0035741
0.000681543
-0.00384692
0.000714471
-0.00404912
0.000731896
-0.00420391
0.000738563
-0.00433135
0.000738216
-0.00444615
0.000733393
-0.00455775
0.000725614
-0.00467163
0.000715716
-0.00479073
0.000704141
-0.00491665
0.000691135
-0.00505019
0.000676835
-0.00519157
0.000661299
-0.00534043
0.000644513
-0.00549573
-0.00565581
0.000626617
3.03281e-05
-0.000321412
0.000105301
-0.000983038
0.000208147
-0.00165657
0.000320137
-0.00229266
0.000424551
-0.00284699
0.000510184
-0.00329523
0.000572431
-0.00363635
0.000612096
-0.00388659
0.000633136
-0.00407016
0.000640479
-0.00421125
0.000638559
-0.00432943
0.000630658
-0.00443825
0.000618876
-0.00454597
0.000604403
-0.00465715
0.000587858
-0.00477419
0.000569556
-0.00489835
0.000549669
-0.0050303
0.000528292
-0.00517019
0.000505497
-0.00531764
0.000481318
-0.00547155
-0.00563029
0.000455793
3.02648e-05
-0.000351677
0.000103139
-0.00105591
0.000200333
-0.00175377
0.000302724
-0.00239505
0.000394472
-0.00293873
0.000465985
-0.00336674
0.000514274
-0.00368464
0.000541252
-0.00391357
0.000551332
-0.00408024
0.000549367
-0.00420929
0.000539414
-0.00431948
0.000524305
-0.00442314
0.000505753
-0.00452742
0.000484674
-0.00463608
0.000461516
-0.00475103
0.000436491
-0.00487332
0.000409705
-0.00500351
0.000381195
-0.00514168
0.000350983
-0.00528743
0.000319166
-0.00543974
-0.00559706
0.000285939
2.98832e-05
-0.00038156
9.99049e-05
-0.00112593
0.000190566
-0.00184443
0.000282729
-0.00248721
0.000361673
-0.00301768
0.000419447
-0.00342452
0.000454517
-0.00371971
0.000469682
-0.00392873
0.000469617
-0.00408017
0.000458984
-0.00419866
0.000441437
-0.00430193
0.000419384
-0.00440109
0.000394203
-0.00450224
0.000366584
-0.00460846
0.000336842
-0.00472129
0.000305119
-0.0048416
0.000271476
-0.00496987
0.000235927
-0.00510613
0.000198363
-0.00524986
0.00015817
-0.00539954
-0.00555581
0.000116918
2.91874e-05
-0.000410747
9.56589e-05
-0.00119241
0.000179044
-0.00192781
0.000260527
-0.0025687
0.000326695
-0.00308385
0.000371199
-0.00346902
0.000393789
-0.0037423
0.000397942
-0.00393288
0.000388438
-0.00407067
0.000369666
-0.00417988
0.000344872
-0.00427714
0.000316079
-0.0043723
0.000284376
-0.00447053
0.000250272
-0.00457435
0.000213974
-0.00468499
0.000175568
-0.00480319
0.000135125
-0.00492943
9.26149e-05
-0.00506362
4.84202e-05
-0.00520567
2.92038e-06
-0.00535405
-0.0055027
-5.0191e-05
2.81876e-05
-0.000438935
9.04784e-05
-0.0012547
0.000165974
-0.00200331
0.000236489
-0.00263921
0.000290037
-0.0031374
0.000321797
-0.00350078
0.000332624
-0.00375312
0.00032649
-0.00392675
0.000308151
-0.00405233
0.000281677
-0.00415341
0.000249915
-0.00424538
0.000214542
-0.00433692
0.000176408
-0.0044324
0.000135873
-0.00453382
9.30517e-05
-0.00464217
4.79504e-05
-0.00475809
5.33384e-07
-0.00488201
-4.87966e-05
-0.00501429
-0.000100328
-0.00515414
-0.00015484
-0.00529953
-0.00544786
-0.000209677
2.68988e-05
-0.000465834
8.4451e-05
-0.00131225
0.000151574
-0.00207043
0.000210972
-0.00269861
0.000252152
-0.00317857
0.000271723
-0.00352035
0.00027147
-0.00375287
0.000255697
-0.00391098
0.000229042
-0.00402568
0.000195228
-0.0041196
0.000156723
-0.00420687
0.000114905
-0.00429511
7.04136e-05
-0.00438791
2.34953e-05
-0.0044869
-2.57842e-05
-0.00459289
-7.74442e-05
-0.00470643
-0.000131446
-0.00482801
-0.000187884
-0.00495785
-0.00024669
-0.00509533
-0.000307777
-0.00523845
-0.00538558
-0.000370063
2.53404e-05
-0.000491174
7.76719e-05
-0.00136458
0.000136059
-0.00212882
0.000184308
-0.00274686
0.000213446
-0.00320771
0.000221393
-0.0035283
0.000210698
-0.00374217
0.000185866
-0.00388615
0.000151338
-0.00399115
0.000110487
-0.00407874
6.54208e-05
-0.00416181
1.72553e-05
-0.00424694
-3.34971e-05
-0.00433716
-8.67061e-05
-0.00443369
-0.000142391
-0.0045372
-0.0002006
-0.00464822
-0.00026136
-0.00476725
-0.000324676
-0.00489454
-0.000390447
-0.00502956
-0.000458414
-0.00517048
-0.0053156
-0.000528392
2.35346e-05
-0.000514709
7.02397e-05
-0.00141129
0.000119636
-0.00217821
0.000156804
-0.00278403
0.000174277
-0.00322519
0.000171161
-0.00352518
0.000150614
-0.00372163
0.000117232
-0.00385276
7.52371e-05
-0.00394915
2.75731e-05
-0.00403108
-2.38858e-05
-0.00411035
-7.82503e-05
-0.00419258
-0.0001352
-0.00428021
-0.000194657
-0.00437423
-0.000256677
-0.00447518
-0.000321361
-0.00458354
-0.000388782
-0.00469983
-0.00045893
-0.00482439
-0.000531674
-0.00495681
-0.000606798
-0.00509536
-0.00523816
-0.000684234
2.15068e-05
-0.000536215
6.22543e-05
-0.00145203
0.000102503
-0.00221846
0.000128737
-0.00281026
0.000134959
-0.00323141
0.000121325
-0.00351155
9.14723e-05
-0.00369177
4.99727e-05
-0.00381126
7.18381e-07
-0.0038999
-5.34023e-05
-0.00397696
-0.000111075
-0.00405268
-0.000171571
-0.00413208
-0.000234632
-0.00421715
-0.000300246
-0.00430862
-0.000368514
-0.00440692
-0.000439579
-0.00451247
-0.000513558
-0.00462585
-0.000590463
-0.00474749
-0.000670155
-0.00487712
-0.000752419
-0.00501309
-0.00515341
-0.000837174
1.92842e-05
-0.0005555
5.38142e-05
-0.00148656
8.48465e-05
-0.00224949
0.000100359
-0.00282577
9.57599e-05
-0.00322681
7.21345e-05
-0.00348792
3.34825e-05
-0.00365312
-1.56911e-05
-0.00376209
-7.1704e-05
-0.00384388
-0.000132292
-0.00391637
-0.000196101
-0.00398887
-0.000262619
-0.00406556
-0.000331697
-0.00414807
-0.000403373
-0.00423694
-0.000477784
-0.0043325
-0.000555115
-0.00443514
-0.000635536
-0.00454543
-0.000719101
-0.00466392
-0.000805689
-0.00479054
-0.000895037
-0.00492374
-0.00506145
-0.000986997
1.68973e-05
-0.000572397
4.50154e-05
-0.00151468
6.68391e-05
-0.00227132
7.18908e-05
-0.00283083
5.69081e-05
-0.00321183
2.38127e-05
-0.00345483
-2.3196e-05
-0.00360611
-7.96963e-05
-0.00370559
-0.000142343
-0.00378124
-0.000209094
-0.00384962
-0.000278891
-0.00391907
-0.000351324
-0.00399313
-0.000426317
-0.00407307
-0.000503946
-0.00415932
-0.000584378
-0.00425207
-0.000667838
-0.00435168
-0.000754553
-0.00445871
-0.000844648
-0.00457382
-0.000938033
-0.00469715
-0.00103438
-0.00482739
-0.0049624
-0.00113343
1.43837e-05
-0.000586781
3.5955e-05
-0.00153625
4.86427e-05
-0.00228401
4.35286e-05
-0.00282571
1.86645e-05
-0.00318696
-2.35007e-05
-0.00341266
-7.84426e-05
-0.00355117
-0.000141948
-0.00364209
-0.000210975
-0.00371221
-0.000283737
-0.00377686
-0.000359386
-0.00384342
-0.000437621
-0.00391489
-0.000518417
-0.00399228
-0.000601879
-0.00407585
-0.000688196
-0.00416576
-0.000777624
-0.00426226
-0.000870454
-0.00436588
-0.000966903
-0.00447738
-0.00106694
-0.00459711
-0.00117019
-0.00472414
-0.00485641
-0.00127617
1.17729e-05
-0.000598553
2.67243e-05
-0.0015512
3.0402e-05
-0.00228768
1.55301e-05
-0.00281084
-1.89384e-05
-0.00315249
-6.96891e-05
-0.00336191
-0.000132161
-0.0034887
-0.000202367
-0.00357188
-0.000277549
-0.00363703
-0.000356166
-0.00369824
-0.000437537
-0.00376205
-0.000521454
-0.00383098
-0.000607933
-0.0039058
-0.000697099
-0.00398669
-0.000789151
-0.00407371
-0.000884368
-0.00416704
-0.000983098
-0.00426715
-0.00108567
-0.00437481
-0.00119215
-0.00449063
-0.00130212
-0.00461417
-0.00474363
-0.0014149
9.07696e-06
-0.00060763
1.74049e-05
-0.00155953
1.22916e-05
-0.00228257
-1.21397e-05
-0.00278641
-5.57698e-05
-0.00310886
-0.000114632
-0.00330305
-0.000184269
-0.00341906
-0.000260896
-0.00349525
-0.000342025
-0.0035559
-0.00042634
-0.00361393
-0.0005133
-0.00367509
-0.000602773
-0.0037415
-0.000694809
-0.00381376
-0.000789543
-0.00389195
-0.000887175
-0.00397607
-0.000987993
-0.00406622
-0.00109238
-0.00416276
-0.00120078
-0.00426641
-0.00131342
-0.00437799