/*--------------------------------*- C++ -*----------------------------------*\
  =========                 |
  \\      /  F ield         | OpenFOAM: The Open Source CFD Toolbox
   \\    /   O peration     | Website:  https://openfoam.org
    \\  /    A nd           | Version:  7
     \\/     M anipulation  |
\*---------------------------------------------------------------------------*/
FoamFile
{
    version     2.0;
    format      ascii;
    class       volVectorField;
    location    "5";
    object      U;
}
// * * * * * * * * * * * * * * * * * * * * * * * * * * * * * * * * * * * * * //

dimensions      [0 1 -1 0 0 0 0];

internalField   nonuniform List<vector> 
8820
(
(-0.00226435 0.00264564 0)
(-0.0120117 0.0062118 0)
(-0.0301401 0.00858667 0)
(-0.0525735 0.010136 0)
(-0.0774694 0.0110991 -9.17119e-21)
(-0.103798 0.0116527 -8.73054e-21)
(-0.130786 0.0119286 -1.65061e-20)
(-0.15792 0.0120199 0)
(-0.184871 0.0119881 2.9883e-20)
(-0.211426 0.0118698 -1.41382e-20)
(-0.237431 0.011683 2.13025e-22)
(-0.262758 0.011434 2.60701e-20)
(-0.287285 0.0111217 -1.22081e-20)
(-0.310883 0.010742 0)
(-0.333409 0.0102906 1.12678e-20)
(-0.354721 0.00976415 1.07511e-20)
(-0.374709 0.00916264 0)
(-0.393224 0.00849045 3.84184e-20)
(-0.409799 0.00775326 0)
(-0.424075 0.00695604 0)
(-0.438462 0.0061124 0)
(-0.00255804 0.00782089 0)
(-0.0124709 0.0183984 -4.27107e-20)
(-0.0303427 0.0254739 -4.06666e-20)
(-0.052312 0.0301113 0)
(-0.0766274 0.033009 0)
(-0.1023 0.0346855 1.73684e-20)
(-0.128578 0.0355291 1.65059e-20)
(-0.154952 0.0358158 -3.16232e-20)
(-0.181089 0.0357287 2.99536e-20)
(-0.206768 0.0353777 1.77289e-22)
(-0.231824 0.034818 0)
(-0.256117 0.0340687 -2.58568e-20)
(-0.279514 0.0331274 0)
(-0.301874 0.0319822 0)
(-0.323044 0.0306195 0)
(-0.342866 0.0290294 2.14463e-20)
(-0.361215 0.0272112 0)
(-0.377936 0.0251782 -3.84166e-20)
(-0.392551 0.0229497 3.65689e-20)
(-0.404617 0.0205428 -6.87189e-20)
(-0.416523 0.0179926 3.33342e-20)
(-0.00312044 0.0126574 4.24847e-20)
(-0.0133528 0.0298909 4.27106e-20)
(-0.0307288 0.0415208 1.22444e-19)
(-0.0517964 0.0492126 0)
(-0.0749793 0.0540682 7.3722e-20)
(-0.0993684 0.0569132 0)
(-0.124253 0.0583718 3.33504e-20)
(-0.149134 0.0588921 -3.13621e-20)
(-0.173675 0.0587755 6.01912e-20)
(-0.197636 0.0582053 0)
(-0.220834 0.0572763 0)
(-0.24311 0.0560226 5.2391e-20)
(-0.26431 0.0544424 8.46727e-22)
(-0.284274 0.0525167 -1.89152e-19)
(-0.30283 0.0502225 -7.62874e-22)
(-0.319797 0.0475424 8.56609e-20)
(-0.335026 0.0444733 0)
(-0.348353 0.0410368 -7.77929e-20)
(-0.35929 0.037271 1.46219e-19)
(-0.367234 0.0332113 0)
(-0.374498 0.0289003 -6.78492e-20)
(-0.00390425 0.0169567 -8.51514e-20)
(-0.0145879 0.0402729 0)
(-0.0312619 0.0562122 -1.22992e-19)
(-0.0510417 0.0668934 -3.88201e-20)
(-0.0725954 0.0737355 4.62514e-22)
(-0.0951277 0.0778167 -1.40934e-19)
(-0.117989 0.0799638 2.00298e-19)
(-0.1407 0.0807796 7.50712e-22)
(-0.162919 0.0806768 -1.20139e-19)
(-0.184386 0.0799126 -1.1527e-19)
(-0.204896 0.0786243 1.09852e-19)
(-0.224264 0.0768657 -1.04737e-19)
(-0.242314 0.0746387 2.00323e-19)
(-0.258865 0.0719191 1.91595e-19)
(-0.273724 0.0686752 -8.96948e-20)
(-0.286691 0.0648804 9.41646e-22)
(-0.29759 0.0605258 -8.12854e-20)
(-0.306257 0.0556377 0)
(-0.312211 0.0502772 6.18e-22)
(-0.31464 0.0445063 -1.3923e-19)
(-0.315656 0.0383594 6.78978e-20)
(-0.00484478 0.0205584 -4.3118e-20)
(-0.0160802 0.0491946 0)
(-0.0318919 0.0690988 8.22233e-20)
(-0.0500705 0.0826612 -7.82269e-20)
(-0.0695777 0.0915092 5.34197e-22)
(-0.0897591 0.0969042 -7.09177e-20)
(-0.110045 0.0998311 2.02005e-19)
(-0.129986 0.101023 6.45531e-20)
(-0.14924 0.100995 0)
(-0.16753 0.100075 1.15783e-19)
(-0.184626 0.098449 -2.19145e-19)
(-0.200321 0.0961948 -1.06518e-19)
(-0.214416 0.093324 -5.80132e-22)
(-0.226714 0.0898113 -9.52287e-20)
(-0.23701 0.0856178 -1.8263e-19)
(-0.245092 0.0807071 0)
(-0.250769 0.0750605 8.31355e-20)
(-0.253891 0.0687007 -2.35068e-19)
(-0.254031 0.0617089 0)
(-0.250162 0.054177 -1.41071e-19)
(-0.243948 0.0461155 2.70486e-19)
(-0.0058668 0.0233509 0)
(-0.0177164 0.0563927 1.76628e-19)
(-0.0325598 0.0798198 1.66654e-19)
(-0.0489127 0.0960976 7.99674e-20)
(-0.0660554 0.106943 1.50588e-19)
(-0.0834923 0.113723 7.14582e-20)
(-0.100749 0.117526 -6.60916e-20)
(-0.117419 0.119188 -2.5568e-19)
(-0.133168 0.119308 0)
(-0.147709 0.118286 2.32543e-19)
(-0.160793 0.116357 1.1109e-19)
(-0.172192 0.113631 4.23619e-19)
(-0.181693 0.110137 -9.985e-20)
(-0.189089 0.105855 0)
(-0.194177 0.100742 -9.83243e-22)
(-0.196748 0.0947568 -1.74908e-19)
(-0.196614 0.0878669 1.66468e-19)
(-0.193652 0.080083 -9.4703e-22)
(-0.187563 0.0714948 -1.50073e-19)
(-0.177186 0.0622195 1.4185e-19)
(-0.163262 0.0521849 0)
(-0.00689225 0.0252772 8.85889e-20)
(-0.0193766 0.0617048 -2.65152e-19)
(-0.0332043 0.0881209 0)
(-0.0476059 0.106878 -2.38821e-19)
(-0.0621798 0.119665 -7.52001e-20)
(-0.0765956 0.127871 0)
(-0.0904857 0.132638 0)
(-0.103501 0.134862 0)
(-0.115325 0.135213 -1.23173e-19)
(-0.125672 0.134153 1.17801e-19)
(-0.134283 0.13197 -1.11078e-19)
(-0.140918 0.128812 -2.1176e-19)
(-0.145359 0.124733 0)
(-0.147398 0.119728 0)
(-0.146844 0.11376 3.69155e-19)
(-0.143509 0.106786 2.34384e-21)
(-0.137226 0.0987674 -3.3186e-19)
(-0.127906 0.0897014 1.5819e-19)
(-0.115443 0.0796745 1.50044e-19)
(-0.0988127 0.068852 4.05857e-22)
(-0.0771872 0.0571473 2.74133e-19)
(-0.00784826 0.0263362 0)
(-0.0209464 0.0650762 1.80308e-19)
(-0.0337685 0.0938671 0)
(-0.0461949 0.114786 0)
(-0.0581166 0.129391 1.52781e-19)
(-0.0693635 0.139018 -2.88771e-19)
(-0.0796805 0.144801 1.36084e-19)
(-0.0887862 0.147666 -9.40959e-22)
(-0.0963987 0.148327 -1.10308e-21)
(-0.102246 0.147299 -6.63021e-22)
(-0.10607 0.144919 1.11013e-19)
(-0.107635 0.14138 0)
(-0.106722 0.136769 0)
(-0.103138 0.131105 0)
(-0.096707 0.124367 -1.5287e-21)
(-0.0872763 0.116518 5.2703e-19)
(-0.0747094 0.107526 -1.65877e-19)
(-0.0589405 0.0973806 0)
(-0.0400202 0.0861439 0)
(-0.0173505 0.0740577 -2.85078e-19)
(0.0114839 0.0617829 0)
(-0.00867468 0.0265797 -1.82107e-19)
(-0.022328 0.066559 -1.80306e-19)
(-0.0342069 0.0970487 0)
(-0.0447312 0.119728 0)
(-0.054038 0.135943 -1.53917e-19)
(-0.0621002 0.146913 0)
(-0.0687749 0.153717 -1.37251e-19)
(-0.0738572 0.157266 -1.31329e-19)
(-0.0771133 0.158298 -2.48261e-19)
(-0.0783001 0.157364 -2.33897e-19)
(-0.0771794 0.154846 -4.48544e-19)
(-0.0735277 0.150983 2.11858e-19)
(-0.0671433 0.1459 0)
(-0.05785 0.139647 1.9363e-19)
(-0.0455003 0.132227 -3.70747e-19)
(-0.0299739 0.12362 3.49909e-19)
(-0.0111709 0.113805 0)
(0.0109515 0.102772 0)
(0.0362734 0.0905566 0)
(0.0653269 0.0775658 0)
(0.101549 0.0652305 2.75945e-19)
(-0.00932985 0.026103 -9.8082e-22)
(-0.0234512 0.0663045 1.82954e-19)
(-0.0344917 0.0977797 -3.46509e-19)
(-0.0432718 0.121738 1.63218e-19)
(-0.0501115 0.139265 4.63475e-19)
(-0.0551009 0.151415 -2.92186e-19)
(-0.0582006 0.159168 5.53561e-19)
(-0.0592871 0.163393 2.62681e-19)
(-0.0581871 0.164819 3.73253e-19)
(-0.0547025 0.164021 2.34351e-19)
(-0.0486298 0.161415 2.22911e-19)
(-0.0397745 0.15728 0)
(-0.0279617 0.151783 -4.0764e-19)
(-0.0130431 0.145007 1.93318e-19)
(0.00509986 0.136986 -1.82663e-19)
(0.026557 0.127721 -2.5802e-21)
(0.0513998 0.117208 3.30001e-19)
(0.07967 0.105439 1.57274e-19)
(0.111257 0.0924412 0)
(0.146353 0.078669 0)
(0.190529 0.0661132 0)
(-0.00979238 0.0250368 -8.02402e-22)
(-0.0242779 0.0645469 1.85181e-19)
(-0.034618 0.0962866 1.74033e-19)
(-0.041877 0.12098 1.64367e-19)
(-0.0464886 0.139428 9.13143e-22)
(-0.0486277 0.152498 -4.07134e-22)
(-0.0483441 0.161044 -4.15309e-19)
(-0.0455953 0.165864 2.63651e-19)
(-0.0402769 0.167659 -4.96405e-19)
(-0.032249 0.167002 -2.36011e-19)
(-0.0213571 0.164333 2.25528e-19)
(-0.00744872 0.159965 -2.11522e-19)
(0.00961449 0.154101 2.02827e-19)
(0.0299488 0.146862 1.94166e-19)
(0.0536461 0.13831 -1.81837e-19)
(0.0807767 0.128473 -3.49749e-19)
(0.111402 0.117356 -3.32646e-19)
(0.145585 0.104961 -3.17345e-19)
(0.183355 0.0912911 8.95177e-19)
(0.224158 0.0766649 2.96546e-21)
(0.276834 0.0642416 -2.66764e-19)
(-0.0100659 0.0235342 5.59281e-19)
(-0.0248082 0.0615802 -3.71334e-19)
(-0.0346035 0.0928898 -1.74738e-19)
(-0.0406047 0.117732 3.31542e-19)
(-0.0432899 0.136635 -3.1124e-19)
(-0.0428837 0.150275 -8.98338e-22)
(-0.0395064 0.159368 5.43576e-22)
(-0.0331906 0.164622 -2.63023e-19)
(-0.023904 0.16669 2.47774e-19)
(-0.0115725 0.166131 0)
(0.00390037 0.163392 0)
(0.0226184 0.158808 0)
(0.0446809 0.152615 2.0065e-19)
(0.0701766 0.144964 0)
(0.099184 0.135948 1.83347e-19)
(0.131778 0.125616 1.76979e-19)
(0.168044 0.113991 -3.26208e-19)
(0.208078 0.101073 -3.10461e-19)
(0.252248 0.0868758 -2.97506e-19)
(0.298759 0.0713021 0)
(0.360892 0.0592787 -5.31237e-19)
(-0.0101761 0.021756 -3.75741e-19)
(-0.025078 0.0577341 1.87636e-19)
(-0.0344865 0.0879772 -1.76241e-19)
(-0.0395034 0.112371 1.67802e-19)
(-0.0405885 0.131211 1.56642e-19)
(-0.0379831 0.144995 1.47254e-19)
(-0.0318568 0.154306 2.78177e-19)
(-0.0223059 0.159756 -5.26169e-19)
(-0.0093659 0.161939 2.48735e-19)
(0.0069723 0.161382 1.90265e-21)
(0.0267485 0.158528 -6.66369e-19)
(0.0500218 0.153724 4.19502e-19)
(0.0768634 0.147227 5.62264e-22)
(0.107354 0.139218 -1.88502e-19)
(0.141587 0.129816 0)
(0.179681 0.11909 -3.44937e-19)
(0.221794 0.107086 3.22768e-19)
(0.268045 0.0937945 -2.9864e-22)
(0.319374 0.0793326 -3.50973e-23)
(0.372082 0.0628129 -2.75451e-19)
(0.445296 0.0514578 5.26507e-19)
(-0.0101671 0.0198582 3.77205e-19)
(-0.0251529 0.0533462 1.08288e-21)
(-0.0343175 0.0819732 0)
(-0.0385994 0.105347 -3.33062e-19)
(-0.0383903 0.123585 -4.71638e-19)
(-0.0339202 0.137043 1.47896e-19)
(-0.0253849 0.146186 0)
(-0.0129281 0.151534 0)
(0.0033605 0.153616 4.96069e-19)
(0.0234379 0.152923 -2.33063e-19)
(0.0473024 0.149881 2.21629e-19)
(0.074989 0.144841 3.27329e-22)
(0.106568 0.138074 2.25345e-21)
(0.142149 0.129784 1.91486e-19)
(0.181881 0.120112 -7.08784e-19)
(0.225968 0.109158 0)
(0.274688 0.0969872 0)
(0.328111 0.0835522 0)
(0.38797 0.0692777 2.90545e-19)
(0.447788 0.0520033 1.55784e-21)
(0.534094 0.0419213 5.08084e-19)
(-0.0100955 0.017981 0)
(-0.0251155 0.0487353 -3.77283e-19)
(-0.0341449 0.0753049 -3.56838e-19)
(-0.037881 0.0971445 1.67318e-19)
(-0.0366137 0.114264 -4.9166e-22)
(-0.0305392 0.12692 1.48208e-19)
(-0.0198571 0.135486 -2.78543e-19)
(-0.00473482 0.140405 2.61905e-19)
(0.0147074 0.142147 0)
(0.0384014 0.141162 -2.33241e-19)
(0.0663353 0.137856 2.20414e-19)
(0.0985573 0.132578 -2.06661e-19)
(0.135179 0.125609 0)
(0.176379 0.11717 3.74095e-19)
(0.222405 0.107429 4.20827e-21)
(0.273556 0.0965063 -3.32266e-19)
(0.330219 0.0845017 0)
(0.392272 0.0712795 0)
(0.4623 0.0578517 4.12408e-21)
(0.530193 0.0402052 -2.67668e-19)
(0.630968 0.0324368 -5.00257e-19)
(-0.0100226 0.0162386 0)
(-0.0250503 0.0441772 3.80773e-19)
(-0.0339968 0.0683695 3.56839e-19)
(-0.0372793 0.0882486 3.36796e-19)
(-0.0350686 0.103793 0)
(-0.0275103 0.11521 2.96736e-19)
(-0.0147838 0.122814 2.78285e-19)
(0.00294893 0.126994 -2.61401e-19)
(0.0255721 0.12817 -2.45802e-19)
(0.0530325 0.126758 -2.31899e-19)
(0.0853524 0.123148 6.55173e-19)
(0.122638 0.11768 -4.0866e-19)
(0.165084 0.110647 -1.93688e-19)
(0.212963 0.102284 3.70031e-19)
(0.266609 0.0927793 -3.46519e-19)
(0.326365 0.0822679 6.64482e-19)
(0.392611 0.0709058 -3.10882e-19)
(0.4648 0.0583863 2.94427e-19)
(0.546097 0.0465646 5.64193e-19)
(0.622475 0.0290911 -2.63614e-19)
(0.736933 0.024776 -2.64448e-21)
(-0.0100048 0.0147117 1.91669e-19)
(-0.0250245 0.0398862 -7.63231e-19)
(-0.0338613 0.061506 1.79175e-19)
(-0.0366511 0.0791094 -6.74175e-19)
(-0.0334427 0.0927171 1.58668e-19)
(-0.0243186 0.102537 2.96914e-19)
(-0.00941291 0.108864 -8.35551e-19)
(0.0111531 0.112056 5.22827e-19)
(0.0373105 0.112503 0)
(0.0690672 0.110597 0)
(0.106524 0.106714 0)
(0.14988 0.101194 4.10114e-19)
(0.199418 0.0943337 3.84257e-19)
(0.255478 0.0863813 3.6628e-19)
(0.318386 0.0775343 -6.89682e-19)
(0.388358 0.0679348 3.2451e-19)
(0.465508 0.0577817 3.10725e-19)
(0.548641 0.0465464 -8.78671e-19)
(0.640768 0.0369427 2.74573e-19)
(0.724927 0.0203212 2.60351e-19)
(0.848917 0.0200647 3.92286e-21)
(-0.0100845 0.0134432 0)
(-0.0250706 0.0360023 9.58014e-19)
(-0.0336687 0.0549729 -7.62745e-22)
(-0.0357664 0.0701084 -3.38615e-19)
(-0.0312987 0.0815384 1.59195e-19)
(-0.0202753 0.089519 -2.97218e-19)
(-0.00275881 0.0943614 2.77798e-19)
(0.0212067 0.0964207 -2.61469e-19)
(0.0516404 0.0960761 0)
(0.0886493 0.093711 -2.29309e-19)
(0.132436 0.0896948 -2.16112e-19)
(0.183281 0.0843677 4.06296e-19)
(0.241503 0.0780283 -1.34109e-18)
(0.307377 0.0709245 3.59991e-19)
(0.381025 0.0632463 0)
(0.462258 0.0551138 -3.24499e-19)
(0.550562 0.0467132 1.59158e-22)
(0.643989 0.0373534 -2.86444e-19)
(0.744309 0.0301303 0)
(0.834158 0.0151216 -2.54479e-19)
(0.960219 0.0184406 0)
(-0.0102814 0.0124374 -3.87451e-19)
(-0.0251721 0.0325857 -1.9135e-19)
(-0.0332813 0.0489342 1.82597e-19)
(-0.0343083 0.0615344 1.70483e-19)
(-0.0280905 0.0706785 3.19337e-19)
(-0.0145569 0.0767119 5.96161e-19)
(0.00632387 0.0799951 -1.04009e-21)
(0.034615 0.0809065 0)
(0.0704497 0.079835 -2.44171e-19)
(0.114042 0.0771674 4.58564e-19)
(0.16567 0.0732738 0)
(0.225618 0.0684915 0)
(0.294089 0.0631095 -1.01429e-22)
(0.371071 0.0573535 7.15605e-19)
(0.456184 0.0513716 0)
(0.54852 0.045223 0)
(0.646588 0.0389742 3.03416e-19)
(0.747738 0.0319704 1.2931e-21)
(0.851552 0.0266917 2.6307e-19)
(0.943667 0.0140968 6.96472e-21)
(1.06246 0.0192204 4.54209e-19)
(-0.0105874 0.0116628 1.93345e-19)
(-0.0252555 0.0296207 1.93295e-19)
(-0.0324921 0.0434559 -1.80383e-19)
(-0.0318858 0.0535677 0)
(-0.0231974 0.0604487 -3.19337e-19)
(-0.00627221 0.0645659 -2.98763e-19)
(0.0190283 0.0663555 0)
(0.052885 0.0662413 -5.22685e-19)
(0.0955387 0.0646378 2.45085e-19)
(0.147269 0.0619442 -4.58115e-19)
(0.20833 0.0585306 0)
(0.278849 0.0547212 -2.01875e-19)
(0.358677 0.0507724 1.89215e-19)
(0.447223 0.0468524 -3.5786e-19)
(0.543295 0.0430213 0)
(0.645003 0.0392325 0)
(0.749717 0.0353231 0)
(0.8542 0.0308893 0)
(0.955689 0.0267256 2.58017e-19)
(1.04552 0.0174674 7.38166e-19)
(1.14777 0.0213175 -1.16116e-20)
(-0.0109643 0.0110596 1.95696e-19)
(-0.0251916 0.0270265 0)
(-0.0310351 0.0385129 -3.65464e-19)
(-0.0280591 0.0462782 0)
(-0.0159732 0.0510358 3.20533e-19)
(0.00545546 0.0533955 -2.28621e-21)
(0.0364667 0.053888 -2.81881e-19)
(0.0773378 0.0529972 5.23347e-19)
(0.128362 0.0511726 -4.90276e-19)
(0.189775 0.0488263 6.87712e-19)
(0.261642 0.0463196 0)
(0.34369 0.0439405 0)
(0.435135 0.041877 0)
(0.534521 0.0401931 0)
(0.639614 0.0388094 0)
(0.747447 0.0375275 0)
(0.854399 0.0359274 0)
(0.956798 0.0338588 0)
(1.05051 0.0301776 -5.16517e-19)
(1.13271 0.0251372 -2.45722e-19)
(1.21054 0.0230558 -8.85443e-19)
(-0.011347 0.0105502 -1.97292e-19)
(-0.0248029 0.024677 0)
(-0.0286032 0.0340068 -1.86942e-19)
(-0.0223716 0.0396375 -1.73704e-19)
(-0.0057979 0.0425056 -3.22529e-19)
(0.0214088 0.0433736 2.49029e-21)
(0.0595565 0.0428758 2.83451e-19)
(0.108955 0.0415627 2.64202e-19)
(0.169837 0.0399187 2.45367e-19)
(0.242225 0.03836 2.30281e-19)
(0.325757 0.0372163 0)
(0.41949 0.0367034 0)
(0.521732 0.036893 0)
(0.629953 0.0376919 0)
(0.740831 0.038834 0)
(0.850468 0.0399326 0)
(0.954704 0.0403837 0)
(1.04978 0.0400482 0)
(1.13199 0.0369867 1.32448e-21)
(1.20144 0.0353936 -6.91834e-19)
(1.2491 0.0212404 9.76642e-22)
(-0.0116507 0.0100527 5.99989e-19)
(-0.023878 0.0224225 -1.97873e-19)
(-0.0248682 0.029792 1.83315e-19)
(-0.0143793 0.0335455 0)
(0.00788024 0.0348279 -6.52799e-19)
(0.0422198 0.0345533 7.55625e-23)
(0.0889481 0.0334593 0)
(0.148296 0.0321594 -1.07192e-22)
(0.220269 0.0311624 -2.48106e-19)
(0.30445 0.0308661 -4.6061e-19)
(0.399785 0.0315321 0)
(0.504394 0.0332544 2.0157e-19)
(0.615487 0.0359318 -1.8892e-19)
(0.729421 0.0392623 -3.52771e-19)
(0.841954 0.0427635 0)
(0.948676 0.0458598 0)
(1.0455 0.0478526 0)
(1.12921 0.0484547 0)
(1.19782 0.0463733 -2.38026e-19)
(1.25045 0.0441694 1.13148e-18)
(1.28768 0.0338991 4.16011e-19)
(-0.0117803 0.00948995 -4.01168e-19)
(-0.0221881 0.0201148 -6.04565e-19)
(-0.0195008 0.0257093 5.62165e-19)
(-0.00367309 0.0278681 -1.76947e-19)
(0.025521 0.0279179 3.27835e-19)
(0.0683455 0.0269133 7.92742e-23)
(0.125006 0.0256847 5.7552e-19)
(0.195495 0.0248945 0)
(0.279378 0.0250519 2.48052e-19)
(0.375539 0.026498 1.65509e-24)
(0.481972 0.0293746 0)
(0.595668 0.0335923 0)
(0.712688 0.0388198 7.54536e-19)
(0.828444 0.0445113 -3.00594e-22)
(0.938188 0.0499719 0)
(1.03759 0.0544868 0)
(1.12329 0.0573395 2.80616e-19)
(1.19334 0.0582976 5.17558e-19)
(1.24706 0.0563518 2.38434e-19)
(1.28553 0.0539825 -4.50907e-19)
(1.31063 0.0442229 4.02954e-19)
(-0.0116366 0.00880023 2.03715e-19)
(-0.0195019 0.0176311 4.06544e-19)
(-0.0121845 0.0216186 1.43052e-21)
(0.0101108 0.0224795 1.7895e-19)
(0.0474871 0.0216866 0)
(0.100073 0.0204154 -3.11981e-19)
(0.167827 0.0195683 -2.8489e-19)
(0.250307 0.0198285 2.70528e-19)
(0.346386 0.0216655 0)
(0.453992 0.025308 -2.3286e-19)
(0.569958 0.0307098 0)
(0.690076 0.0375331 -2.02195e-19)
(0.809406 0.0451738 -1.89549e-19)
(0.922808 0.0528404 -7.02343e-19)
(1.02561 0.0596769 3.27506e-19)
(1.11422 0.0649209 0)
(1.18654 0.0679564 -2.80605e-19)
(1.24213 0.0686738 -2.58569e-19)
(1.28189 0.0664608 0)
(1.30798 0.0635581 -2.168e-19)
(1.32282 0.0543185 0)
(-0.0111237 0.00794381 -2.07292e-19)
(-0.0155953 0.0148905 -8.23766e-19)
(-0.00262423 0.0174268 -1.92089e-19)
(0.0272883 0.0173005 -2.49949e-21)
(0.0740504 0.0160892 -1.69183e-19)
(0.137535 0.0150603 -3.15754e-19)
(0.217277 0.0151551 2.93744e-19)
(0.312163 0.0170335 6.07126e-23)
(0.420114 0.0210645 0)
(0.537874 0.0272897 0)
(0.661016 0.0353992 0)
(0.784241 0.0447521 4.07618e-19)
(0.901963 0.0544612 3.77751e-19)
(1.00906 0.0635387 -3.47904e-19)
(1.10157 0.0710652 6.47036e-19)
(1.17719 0.0763513 -3.00712e-19)
(1.23537 0.0789825 -2.71396e-19)
(1.27719 0.0790409 2.53406e-19)
(1.30473 0.0762772 -2.32131e-19)
(1.32085 0.0727381 -2.05459e-19)
(1.32848 0.0636821 1.90133e-19)
(-0.0101529 0.00690498 0)
(-0.0102581 0.0118637 4.14872e-19)
(0.00945009 0.0131079 3.94504e-19)
(0.0481285 0.0123281 3.63211e-19)
(0.105399 0.0111608 0)
(0.18073 0.0109262 -2.2093e-22)
(0.273016 0.012556 3.24841e-21)
(0.380217 0.0166217 -2.70335e-19)
(0.49906 0.0233096 2.56792e-19)
(0.624962 0.0323862 2.36002e-19)
(0.752288 0.0432081 -2.19549e-19)
(0.874961 0.0548079 -4.05078e-19)
(0.987294 0.0660577 1.90107e-19)
(1.08481 0.0758731 -3.45826e-19)
(1.16483 0.0833997 3.23854e-19)
(1.22661 0.0881375 1.25893e-21)
(1.27117 0.0899408 2.72907e-19)
(1.30081 0.0890979 2.48705e-19)
(1.31837 0.0856706 7.88115e-22)
(1.32698 0.0814859 2.06474e-19)
(1.32922 0.0725653 3.58705e-19)
(-0.00864389 0.00569042 0)
(-0.00329689 0.00857526 -4.28878e-19)
(0.0242804 0.00871179 -3.94498e-19)
(0.0728511 0.00764976 -1.84524e-19)
(0.141636 0.00703297 6.94251e-19)
(0.229514 0.00818319 1.58063e-19)
(0.334499 0.0119537 -3.55252e-21)
(0.453368 0.0187394 -2.79643e-19)
(0.581466 0.028444 0)
(0.712874 0.0404714 2.37658e-19)
(0.841002 0.0538026 -6.6369e-19)
(0.959495 0.0671727 2.06197e-19)
(1.06319 0.0793107 0)
(1.14885 0.0891716 -3.43485e-19)
(1.21537 0.0960938 6.38358e-19)
(1.26365 0.0998492 -2.929e-19)
(1.29599 0.100578 0)
(1.31549 0.0987495 0)
(1.32533 0.0946634 -4.3737e-19)
(1.32848 0.0898791 2.01683e-19)
(1.32727 0.0811124 -3.55527e-19)
(-0.00652369 0.00432579 3.38333e-21)
(0.00546282 0.00510013 4.27943e-19)
(0.0420759 0.00436275 0)
(0.101618 0.00344219 -3.80364e-19)
(0.182765 0.00393037 -1.73953e-19)
(0.28359 0.00708175 -1.64284e-19)
(0.40097 0.0135799 0)
(0.530274 0.0235333 0)
(0.665389 0.0364573 3.27447e-21)
(0.79923 0.0513279 2.43022e-19)
(0.924696 0.0667591 2.23195e-19)
(1.03577 0.0812772 -4.08202e-19)
(1.12842 0.0936082 4.03259e-21)
(1.20102 0.102888 -1.66346e-19)
(1.25414 0.108744 2.53319e-21)
(1.29009 0.111253 0)
(1.31207 0.110815 0)
(1.32355 0.108029 0)
(1.32767 0.103348 2.11964e-19)
(1.32705 0.0980501 3.81521e-19)
(1.32354 0.0894813 -8.82143e-22)
(-0.00372498 0.00285186 -4.46863e-19)
(0.0161751 0.00155614 2.18447e-19)
(0.0630043 0.000249874 2.04621e-19)
(0.134516 -4.15939e-05 -1.99851e-19)
(0.228666 0.00214987 -1.77264e-19)
(0.342481 0.00792186 5.01179e-19)
(0.471451 0.0176737 3.09929e-19)
(0.609393 0.0311053 -4.06463e-21)
(0.748811 0.0472523 -7.89081e-19)
(0.881824 0.0646431 4.47901e-21)
(1.0014 0.0815959 2.24161e-19)
(1.1025 0.0965679 -2.43712e-21)
(1.18266 0.108436 -3.72848e-19)
(1.242 0.116631 1.73711e-19)
(1.28264 0.12112 0)
(1.30791 0.122272 0)
(1.3215 0.120684 0)
(1.32688 0.11703 4.58017e-19)
(1.32693 0.111843 -4.25419e-19)
(1.32377 0.106113 -1.9125e-19)
(1.31887 0.0977785 1.42444e-21)
(-0.000185409 0.00132117 6.8345e-19)
(0.0289699 -0.00190419 -4.54055e-19)
(0.0871809 -0.00338697 -4.20473e-19)
(0.171539 -0.00249405 5.83843e-19)
(0.279073 0.00202961 -3.66482e-19)
(0.40551 0.011012 5.6535e-21)
(0.544754 0.0244358 -6.1965e-19)
(0.689048 0.041475 8.64207e-19)
(0.829775 0.0606313 -2.68847e-19)
(0.958787 0.080029 0)
(1.06977 0.0978213 0)
(1.15916 0.11256 0)
(1.22632 0.123409 1.87446e-19)
(1.27302 0.130166 0)
(1.3026 0.133135 -1.51678e-19)
(1.319 0.132929 1.41998e-19)
(1.32604 0.130274 0)
(1.32695 0.125866 -2.29816e-19)
(1.32418 0.120253 -2.02646e-19)
(1.31937 0.114163 -1.80961e-19)
(1.31362 0.106077 1.62295e-19)
(0.00415195 -0.000204263 -4.64372e-19)
(0.0439471 -0.0051018 2.27453e-19)
(0.114655 -0.00627277 4.28369e-19)
(0.212564 -0.00357777 0)
(0.33355 0.00391457 3.63274e-19)
(0.471806 0.0166284 -6.82658e-19)
(0.619531 0.0339914 -1.59648e-19)
(0.767535 0.0545601 -2.89552e-19)
(0.906526 0.0763069 1.65839e-21)
(1.02871 0.0970619 -2.47337e-19)
(1.12909 0.114981 -2.22045e-19)
(1.2059 0.12887 4.10145e-19)
(1.26032 0.138276 -1.86797e-19)
(1.29554 0.143384 5.89147e-21)
(1.3157 0.144797 1.55148e-19)
(1.325 0.143304 -2.72614e-19)
(1.32709 0.139694 -2.45305e-19)
(1.32481 0.13464 2.18643e-19)
(1.32014 0.128665 -1.98286e-19)
(1.31428 0.122264 7.30209e-21)
(1.30803 0.114418 1.63992e-19)
(0.00933637 -0.00165415 4.79085e-19)
(0.061169 -0.00783791 -2.36964e-19)
(0.145396 -0.00811254 6.94212e-22)
(0.257342 -0.00294984 -2.04781e-19)
(0.391495 0.00812468 1.9012e-19)
(0.540325 0.0249819 3.48825e-19)
(0.694343 0.0463683 -2.40529e-21)
(0.843242 0.0701795 3.01558e-19)
(0.977632 0.0939325 4.12704e-19)
(1.09072 0.115325 9.91905e-19)
(1.17922 0.132695 -2.29284e-19)
(1.24334 0.145227 0)
(1.28587 0.152903 -3.94007e-21)
(1.31105 0.15627 -3.36128e-19)
(1.32346 0.15617 0)
(1.32724 0.153496 1.38585e-19)
(1.32569 0.149044 3.64441e-19)
(1.32119 0.143434 -1.11432e-19)
(1.31526 0.137135 0)
(1.30875 0.130454 0)
(1.30219 0.122816 0)
(0.0154061 -0.00295088 -3.63307e-19)
(0.0806524 -0.00990038 -1.2187e-19)
(0.179283 -0.00860519 0)
(0.305485 -0.000283501 2.05751e-19)
(0.452142 0.0149289 -3.8423e-19)
(0.609902 0.0361974 0)
(0.767755 0.0614933 -1.64742e-19)
(0.914755 0.0880737 -1.47311e-19)
(1.04206 0.113139 -2.72805e-19)
(1.1444 0.134443 -7.43037e-19)
(1.2205 0.150669 4.51442e-19)
(1.27241 0.161465 -2.07834e-19)
(1.30425 0.167245 0)
(1.32094 0.168869 1.65964e-19)
(1.32714 0.167343 -1.87692e-21)
(1.32673 0.163603 -1.81861e-21)
(1.32257 0.158405 0)
(1.31654 0.152303 0)
(1.3098 0.145696 0)
(1.30289 0.138749 0)
(1.29612 0.131274 0)
(0.0223849 -0.00401033 0)
(0.10236 -0.0110694 2.43144e-19)
(0.216098 -0.00745612 0)
(0.356476 0.00471355 0)
(0.514601 0.0245268 -1.94031e-19)
(0.679317 0.0503052 3.6131e-19)
(0.838426 0.0792039 -3.30797e-21)
(0.980938 0.107935 -1.50836e-19)
(1.09917 0.133567 1.38355e-19)
(1.18979 0.154105 1.2208e-19)
(1.25356 0.1687 -1.15021e-19)
(1.29417 0.177499 0)
(1.3167 0.181316 1.7801e-19)
(1.32638 0.181252 -1.66796e-19)
(1.32774 0.178406 2.89747e-19)
(1.32422 0.173703 -1.32045e-19)
(1.3182 0.167835 1.19457e-19)
(1.31116 0.161279 0)
(1.30389 0.154362 0)
(1.29674 0.14715 -1.63869e-19)
(1.28982 0.139781 0)
(0.0302778 -0.00474314 -1.27239e-19)
(0.126197 -0.0111237 -1.27417e-19)
(0.255525 -0.00438893 0)
(0.409677 0.0122844 -1.11551e-19)
(0.577891 0.0370379 -3.02773e-19)
(0.747364 0.0672443 0)
(0.90519 0.0992689 0)
(1.04097 0.129435 0)
(1.14871 0.154893 -1.38358e-19)
(1.22723 0.174069 1.24999e-19)
(1.27922 0.186659 -1.12045e-19)
(1.30968 0.193307 -1.01979e-19)
(1.32432 0.195164 -9.22042e-20)
(1.32836 0.193497 0)
(1.326 0.189436 1.96134e-21)
(1.32021 0.183856 1.28529e-19)
(1.3129 0.177368 -1.12732e-19)
(1.30519 0.170374 1.00383e-19)
(1.2976 0.16313 8.93631e-20)
(1.2903 0.155645 1.63228e-19)
(1.28326 0.148316 -1.43689e-19)
(0.0390682 -0.00505665 0)
(0.152002 -0.00984753 2.54553e-19)
(0.297154 0.000843392 2.38231e-21)
(0.464359 0.0226114 2.20972e-19)
(0.640994 0.052498 3.04794e-19)
(0.812919 0.0868735 -9.20101e-20)
(0.967099 0.121411 -2.52105e-19)
(1.09435 0.152254 2.46641e-21)
(1.19074 0.176842 0)
(1.25728 0.194156 2.49781e-19)
(1.29836 0.204477 1.12053e-19)
(1.31995 0.208902 2.02208e-19)
(1.32803 0.208848 9.12186e-20)
(1.32762 0.205675 0)
(1.32247 0.200492 -2.79041e-21)
(1.31505 0.194097 -1.26584e-19)
(1.30687 0.187016 1.12743e-19)
(1.29872 0.179583 -2.7176e-21)
(1.29094 0.171986 -8.93718e-20)
(1.28356 0.164214 7.95427e-20)
(1.27643 0.156856 0)
(0.0487156 -0.00485754 6.73144e-20)
(0.179553 -0.0070385 0)
(0.34049 0.00844808 -1.1822e-19)
(0.519723 0.0358087 1.13908e-19)
(0.702901 0.0708617 -2.06729e-19)
(0.874987 0.108987 2.84809e-19)
(1.02345 0.145332 -8.72538e-20)
(1.14084 0.17609 2.34274e-19)
(1.22553 0.199185 0)
(1.2806 0.214244 -1.22025e-19)
(1.31184 0.222125 3.59747e-21)
(1.32585 0.224318 9.48357e-20)
(1.3286 0.222427 -1.76866e-19)
(1.32474 0.217841 -7.69162e-20)
(1.31752 0.211609 -1.39316e-19)
(1.30896 0.20444 0)
(1.30019 0.196775 -5.28991e-20)
(1.29178 0.188887 -4.81973e-20)
(1.2839 0.180906 0)
(1.27648 0.17283 7.38828e-20)
(1.26928 0.165372 -3.11727e-21)
(0.0591544 -0.00405495 -7.02609e-22)
(0.208568 -0.00251542 0)
(0.384968 0.0185834 -3.104e-19)
(0.57494 0.051918 5.80786e-20)
(0.762659 0.092009 -1.6064e-21)
(0.932738 0.133331 -1.21103e-21)
(1.07376 0.170725 -8.70778e-20)
(1.18045 0.200675 3.75041e-21)
(1.25352 0.221744 1.99499e-21)
(1.2979 0.234251 -1.24223e-19)
(1.32047 0.239599 1.10405e-19)
(1.32812 0.239593 -9.79502e-20)
(1.32661 0.235947 8.68193e-20)
(1.32013 0.23003 7.81263e-20)
(1.3114 0.222803 1.3495e-19)
(1.30205 0.214879 -1.78172e-19)
(1.29292 0.206625 5.43023e-20)
(1.28436 0.198259 0)
(1.27645 0.18986 -8.08578e-20)
(1.26904 0.18146 7.32624e-20)
(1.26179 0.173834 -1.6264e-19)
(0.0702939 -0.00256398 6.95002e-20)
(0.238708 0.00387369 6.91477e-20)
(0.429973 0.0313512 1.89573e-19)
(0.629178 0.0709077 0)
(0.819405 0.115756 1.06129e-19)
(0.985522 0.159621 0)
(1.1178 0.197293 -4.26063e-20)
(1.21336 0.225771 4.00591e-20)
(1.27521 0.244375 6.95051e-20)
(1.30987 0.254125 0)
(1.32494 0.256905 0)
(1.32736 0.254757 -4.64751e-20)
(1.32251 0.24944 2.57566e-21)
(1.31406 0.242257 -7.2334e-22)
(1.30428 0.234068 -1.96034e-21)
(1.2944 0.225395 3.82678e-22)
(1.28506 0.216535 0)
(1.27645 0.207661 4.39237e-20)
(1.26856 0.198812 -4.73403e-22)
(1.26119 0.190065 0)
(1.25393 0.182205 3.0377e-20)
(0.0820197 -0.000309158 0)
(0.269589 0.0122444 -6.91474e-20)
(0.47486 0.0467921 -6.39441e-20)
(0.681636 0.0926767 0)
(0.872392 0.141865 0)
(1.03286 0.187554 2.44856e-20)
(1.15546 0.224753 2.18816e-20)
(1.23985 0.251172 3.78228e-20)
(1.29115 0.266965 -1.03213e-19)
(1.31715 0.273825 6.15108e-20)
(1.32586 0.274047 0)
(1.32405 0.269828 -2.32163e-20)
(1.31662 0.262914 0)
(1.30674 0.254515 0)
(1.29623 0.245384 0)
(1.28604 0.235954 1.47278e-20)
(1.2766 0.226466 0)
(1.26802 0.217052 -2.13281e-20)
(1.26021 0.20772 -1.86324e-20)
(1.25292 0.198601 3.38324e-20)
(1.2457 0.190445 -1.54039e-20)
(0.0941958 0.00277221 0)
(0.300794 0.0226703 0)
(0.518976 0.064883 0)
(0.731571 0.117059 0)
(0.921001 0.170058 1.33418e-20)
(1.07446 0.216818 -3.70495e-20)
(1.18682 0.252838 -2.18826e-20)
(1.26031 0.276698 9.38154e-21)
(1.30189 0.289419 2.545e-20)
(1.3203 0.293322 -4.46127e-20)
(1.32371 0.291025 1.35834e-20)
(1.31853 0.28481 1.21079e-20)
(1.30917 0.276363 1.04161e-20)
(1.29828 0.266782 0)
(1.28731 0.256714 -7.48697e-21)
(1.27696 0.246513 2.08041e-20)
(1.26753 0.23637 0)
(1.25904 0.226383 2.13302e-20)
(1.25136 0.216538 0)
(1.2442 0.20702 0)
(1.23706 0.198511 0)
(0.106668 0.00672707 0)
(0.331881 0.0351784 0)
(0.561679 0.0855376 0)
(0.778315 0.143832 0)
(0.964744 0.200029 -1.33846e-20)
(1.11013 0.247105 -1.19138e-20)
(1.21205 0.2813 -2.16891e-20)
(1.27513 0.302188 0)
(1.30793 0.311656 3.33059e-20)
(1.31981 0.31258 -1.48588e-20)
(1.31888 0.307824 -9.30106e-22)
(1.3111 0.299686 2.12276e-20)
(1.30032 0.289759 -1.01315e-20)
(1.28876 0.27902 0)
(1.27753 0.268012 7.21171e-21)
(1.26716 0.25702 6.0021e-21)
(1.25782 0.246195 0)
(1.24948 0.235604 1.94945e-20)
(1.24198 0.225217 0)
(1.23499 0.215267 0)
(1.22801 0.206354 0)
(0.119267 0.0115842 0)
(0.3624 0.0497472 -7.26653e-20)
(0.602361 0.108609 -6.69007e-20)
(0.821289 0.172725 0)
(1.00326 0.231446 0)
(1.13985 0.278106 2.45186e-20)
(1.23138 0.309907 2.16905e-20)
(1.28473 0.327496 -3.65178e-20)
(1.30973 0.333596 3.28276e-20)
(1.3161 0.331561 -8.38413e-22)
(1.31168 0.324416 0)
(1.30194 0.314425 -2.20353e-20)
(1.29018 0.303061 0)
(1.27822 0.291177 0)
(1.2669 0.279222 0)
(1.2566 0.267418 1.15959e-20)
(1.24743 0.255884 0)
(1.2393 0.244659 -1.94964e-20)
(1.23204 0.233703 1.60868e-20)
(1.22527 0.223283 -2.91066e-20)
(1.21853 0.21393 1.32465e-20)
(0.131815 0.0173524 7.48295e-20)
(0.391904 0.066306 7.26653e-20)
(0.640458 0.133896 2.0104e-19)
(0.860012 0.203429 0)
(1.03632 0.263971 1.09201e-19)
(1.16365 0.309525 0)
(1.24509 0.338441 4.11276e-20)
(1.28952 0.352484 -3.8672e-20)
(1.30771 0.355159 6.36585e-20)
(1.3095 0.350212 0)
(1.30236 0.340757 0)
(1.29119 0.328978 4.03687e-20)
(1.27882 0.316213 -2.8431e-21)
(1.26667 0.303193 -1.24694e-19)
(1.25541 0.290281 2.06705e-21)
(1.24529 0.277647 4.65689e-20)
(1.23634 0.26538 0)
(1.22848 0.253495 -3.47518e-20)
(1.22149 0.241938 6.28111e-20)
(1.21501 0.231002 0)
(1.20859 0.221199 -2.34069e-20)
(0.144129 0.0240197 -1.49733e-19)
(0.419961 0.0847365 0)
(0.675468 0.161145 -2.0219e-19)
(0.894101 0.235603 -6.21049e-20)
(1.06378 0.297255 -1.06648e-21)
(1.18166 0.34107 -1.87726e-19)
(1.25351 0.366696 2.50593e-19)
(1.28987 0.37702 -5.99128e-21)
(1.30222 0.376262 -1.29269e-19)
(1.3003 0.368473 -1.06311e-19)
(1.2911 0.35679 9.14639e-20)
(1.27897 0.343282 -7.87243e-20)
(1.26627 0.329147 1.34681e-19)
(1.25415 0.314998 1.15142e-19)
(1.24306 0.301122 -5.41409e-20)