/*--------------------------------*- C++ -*----------------------------------*\
  =========                 |
  \\      /  F ield         | OpenFOAM: The Open Source CFD Toolbox
   \\    /   O peration     | Website:  https://openfoam.org
    \\  /    A nd           | Version:  7
     \\/     M anipulation  |
\*---------------------------------------------------------------------------*/
FoamFile
{
    version     2.0;
    format      ascii;
    class       volVectorField;
    location    "55";
    object      U;
}
// * * * * * * * * * * * * * * * * * * * * * * * * * * * * * * * * * * * * * //

dimensions      [0 1 -1 0 0 0 0];

internalField   nonuniform List<vector> 
183
(
(0.921846 0.449849 -1.35626e-22)
(0.924245 0.396288 -7.69444e-23)
(0.94901 0.25269 2.37472e-24)
(0.91685 0.45058 -7.63899e-23)
(0.920808 0.394821 6.23865e-23)
(0.947144 0.251611 -1.13062e-22)
(0.911802 0.451188 7.16768e-24)
(0.917178 0.393296 2.25519e-23)
(0.945081 0.250475 2.23681e-23)
(0.906706 0.451683 -3.85989e-22)
(0.913352 0.391725 -3.88512e-22)
(0.942829 0.249275 6.15933e-22)
(0.901567 0.452079 1.68634e-22)
(0.909328 0.390116 1.23745e-21)
(0.940398 0.248007 -6.75435e-22)
(0.896389 0.452387 1.42714e-21)
(0.905107 0.388481 -1.09844e-21)
(0.9378 0.246662 -1.04513e-21)
(0.900693 0.386827 1.01357e-21)
(0.935051 0.245235 8.00122e-22)
(0.896093 0.385163 2.89581e-22)
(0.932168 0.243717 -1.51031e-21)
(0.891317 0.383497 -5.63544e-22)
(0.929171 0.242101 -4.43819e-23)
(0.886381 0.381834 -4.79781e-23)
(0.92608 0.240379 1.05977e-21)
(0.8813 0.380179 5.7451e-22)
(0.922919 0.238544 9.09091e-22)
(0.876096 0.378537 -1.34668e-21)
(0.919712 0.236587 5.06173e-22)
(0.870793 0.37691 1.81437e-22)
(0.916488 0.234503 -1.46635e-21)
(0.865416 0.375301 -2.26818e-22)
(0.913274 0.232286 -4.06295e-22)
(0.859994 0.373709 6.17983e-22)
(0.910099 0.22993 1.23193e-21)
(0.854557 0.372136 2.64672e-22)
(0.906997 0.227431 7.18695e-22)
(0.849136 0.370578 8.655e-22)
(0.904004 0.224785 -5.53673e-22)
(0.843764 0.369034 -1.34992e-21)
(0.901158 0.221986 1.19469e-21)
(0.838474 0.367502 -1.20532e-21)
(0.89851 0.219051 5.99641e-22)
(0.833312 0.36602 5.20716e-22)
(0.896141 0.216068 -6.20238e-22)
(0.828365 0.364614 -2.24665e-21)
(0.894211 0.21291 7.92402e-22)
(0.815617 0.356412 0)
(0.890818 0.198204 0)
(0.804662 0.327471 0)
(0.896423 0.156943 0)
(0.813739 0.29088 0)
(0.917004 0.113911 0)
(0.843763 0.248115 0)
(0.952625 0.0691026 0)
(0.892512 0.198619 0)
(0.999705 0.0260811 0)
(0.955911 0.146349 0)
(1.05355 -0.0111199 0)
(1.02725 0.0951716 0)
(1.10696 -0.040113 0)
(1.0974 0.0509988 0)
(1.15255 -0.0577152 0)
(1.1541 0.0194234 0)
(1.18292 -0.0635095 0)
(1.18665 0.00300411 0)
(1.19462 -0.0592258 0)
(1.19341 -0.00175516 0)
(1.19041 -0.0494846 0)
(1.18287 -0.000908109 0)
(1.17746 -0.0383638 0)
(1.16549 0.00125061 0)
(1.16187 -0.0282532 0)
(1.14781 0.00269384 0)
(1.14681 -0.0200355 0)
(1.13248 0.00318941 0)
(1.13336 -0.0137395 0)
(1.12009 0.00308418 0)
(1.1218 -0.00914133 0)
(1.11042 0.00268611 0)
(1.11224 -0.00591026 0)
(1.10314 0.00215015 0)
(1.10473 -0.00370532 0)
(1.09793 0.00155714 0)
(1.09922 -0.00220828 0)
(1.09301 -0.0141363 0)
(1.09457 0.000938724 0)
(1.09564 -0.00115945 0)
(1.09101 -0.00823289 0)
(1.09292 0.000311522 0)
(1.09387 -0.000359372 0)
(1.09 -0.00270372 0)
(0.975073 0.394949 0)
(0.976993 0.373686 0)
(0.976058 0.358275 0)
(0.973588 0.335266 0)
(0.967738 0.312243 0)
(0.960711 0.284955 0)
(0.953684 0.254705 0)
(0.949856 0.220971 0)
(0.95074 0.184123 0)
(0.956339 0.146572 0)
(0.964705 0.111122 0)
(0.974234 0.0797752 0)
(0.984984 0.0536877 0)
(0.996265 0.0333335 0)
(1.00701 0.0186179 0)
(1.01617 0.00894965 0)
(1.02343 0.0032256 0)
(1.02887 0.000292158 0)
(1.03274 -0.000838731 0)
(1.03521 -0.000902688 0)
(1.03641 -0.000368673 0)
(0.953394 0.262124 0)
(0.952876 0.234703 0)
(0.948749 0.220749 0)
(0.941674 0.199509 0)
(0.930699 0.181399 0)
(0.916859 0.160867 0)
(0.900111 0.139976 0)
(0.882187 0.11753 0)
(0.867144 0.0925972 0)
(0.860939 0.0641303 0)
(0.86707 0.0351727 0)
(0.883243 0.0107261 0)
(0.904961 -0.00562291 0)
(0.929265 -0.0137025 0)
(0.953684 -0.0164348 0)
(0.975569 -0.0162019 0)
(0.993252 -0.0144797 0)
(1.00644 -0.0119236 0)
(1.01559 -0.00883896 0)
(1.0213 -0.0054174 0)
(1.02403 -0.00182081 0)
(0.970333 0.39992 1.78143e-21)
(0.953806 0.264759 -8.17078e-22)
(0.968725 0.401287 -1.45515e-22)
(0.954018 0.264946 5.51352e-22)
(0.967045 0.402371 8.07391e-22)
(0.954299 0.264699 -2.54589e-22)
(0.965294 0.403278 1.05083e-21)
(0.954634 0.264402 -9.39161e-22)
(0.963489 0.404063 6.5988e-22)
(0.955003 0.26413 -1.20778e-21)
(0.961644 0.404725 -1.6172e-21)
(0.955385 0.263832 2.71058e-22)
(0.959774 0.405247 5.69473e-22)
(0.95576 0.263479 2.72635e-23)
(0.957882 0.40562 -1.19285e-21)
(0.956114 0.263073 1.61447e-22)
(0.955972 0.405842 -1.56214e-22)
(0.956429 0.262616 -1.89239e-22)
(0.954038 0.405915 -3.08516e-22)
(0.956685 0.262113 2.58444e-22)
(0.952072 0.405839 1.21894e-21)
(0.956866 0.261563 -1.80148e-22)
(0.950063 0.405615 5.19884e-22)
(0.95695 0.260967 -1.48145e-22)
(0.947995 0.405245 4.31962e-23)
(0.956918 0.260328 1.78638e-22)
(0.945852 0.404732 -4.81126e-22)
(0.956752 0.259647 -6.41073e-22)
(0.943619 0.404082 3.76459e-22)
(0.956435 0.258924 1.20567e-21)
(0.950339 0.442381 -1.16956e-21)
(0.941278 0.403301 -3.95158e-22)
(0.955951 0.25816 -8.44411e-22)
(0.945804 0.444025 4.64486e-22)
(0.938816 0.402394 3.99199e-22)
(0.955288 0.257356 -3.03208e-23)
(0.941174 0.445503 3.36753e-22)
(0.936219 0.40137 -4.13434e-22)
(0.954435 0.256511 3.29924e-22)
(0.936455 0.446818 -2.22511e-22)
(0.933474 0.400238 2.97907e-23)
(0.953384 0.255624 3.48517e-23)
(0.931656 0.447977 2.11852e-22)
(0.93057 0.399007 6.20713e-25)
(0.952132 0.254693 -1.01513e-22)
(0.926784 0.448984 -4.99858e-23)
(0.927497 0.397687 -6.11392e-23)
(0.950673 0.253716 -2.65152e-24)
)
;

boundaryField
{
    inlet
    {
        type            uniformFixedValue;
        uniformValue    constant (1 0 0);
        value           nonuniform 0();
    }
    outlet
    {
        type            pressureInletOutletVelocity;
        value           nonuniform 0();
    }
    cylinder
    {
        type            fixedValue;
        value           nonuniform 0();
    }
    top
    {
        type            symmetryPlane;
    }
    bottom
    {
        type            symmetryPlane;
    }
    defaultFaces
    {
        type            empty;
    }
    procBoundary44to43
    {
        type            processor;
        value           nonuniform List<vector> 
86
(
(0.942119 0.403499 -5.9548e-23)
(0.936204 0.405841 -3.42072e-22)
(0.930211 0.408069 -1.59285e-22)
(0.924151 0.410176 2.44734e-22)
(0.918035 0.41216 2.83248e-22)
(0.911876 0.414016 -9.44338e-22)
(0.891174 0.45262 1.21129e-21)
(0.891174 0.45262 1.21129e-21)
(0.885925 0.452793 6.47985e-22)
(0.880644 0.452917 -1.64861e-21)
(0.875332 0.453007 1.84619e-21)
(0.869993 0.453075 7.16959e-22)
(0.864628 0.453134 1.34915e-22)
(0.859243 0.453193 -2.98993e-21)
(0.853842 0.453265 -6.27126e-22)
(0.848431 0.453357 1.33438e-21)
(0.84302 0.453477 1.19235e-21)
(0.837619 0.453632 6.7149e-22)
(0.832238 0.453826 -1.03186e-21)
(0.826891 0.454064 -1.3043e-21)
(0.82159 0.454353 7.05079e-22)
(0.816293 0.454597 -1.13415e-21)
(0.801099 0.455864 0)
(0.778217 0.451439 0)
(0.765889 0.438869 0)
(0.772016 0.419048 0)
(0.799999 0.387438 0)
(0.849748 0.342241 0)
(0.919671 0.285048 0)
(1.00497 0.221934 0)
(1.09157 0.163477 0)
(1.15721 0.118376 0)
(1.18754 0.0883501 0)
(1.18729 0.0694108 0)
(1.17162 0.0564619 0)
(1.15247 0.04624 0)
(1.13518 0.0375578 0)
(1.12112 0.0300097 0)
(1.11018 0.0233655 0)
(1.10197 0.0174426 0)
(1.09613 0.0120693 0)
(1.09238 0.0070862 0)
(1.09055 0.00233625 0)
(1.01318 0.387599 0)
(1.01811 0.372381 0)
(1.02403 0.34707 0)
(1.02504 0.323078 0)
(1.02406 0.293301 0)
(1.02091 0.263127 0)
(1.01665 0.230247 0)
(1.01103 0.197853 0)
(1.00359 0.165962 0)
(0.995462 0.136596 0)
(0.988771 0.109852 0)
(0.985895 0.0862218 0)
(0.987385 0.0660145 0)
(0.991998 0.0494635 0)
(0.998142 0.0364576 0)
(1.0046 0.0264583 0)
(1.01058 0.0188401 0)
(1.01562 0.0129939 0)
(1.01946 0.00842768 0)
(1.02201 0.00472644 0)
(1.02328 0.00152254 0)
(1.00481 0.398944 5.08485e-22)
(1.00198 0.402596 5.7992e-22)
(0.999057 0.406285 3.05799e-22)
(0.996018 0.409952 -2.41491e-22)
(0.992859 0.41349 4.63672e-22)
(0.98958 0.416874 -1.48462e-21)
(0.986181 0.420115 -1.20475e-21)
(0.982664 0.423215 1.59203e-21)
(0.979028 0.426171 -7.40475e-22)
(0.975275 0.428976 2.00607e-21)
(0.971404 0.431623 -1.73135e-22)
(0.967417 0.43411 3.20685e-22)
(0.963315 0.436431 -9.86457e-22)
(0.959099 0.438584 1.05285e-21)
(0.954773 0.440567 -2.11015e-21)
(0.954773 0.440567 -2.11015e-21)
(0.975457 0.387239 -9.77639e-22)
(0.970194 0.390197 7.2567e-22)
(0.964806 0.393059 -6.66751e-23)
(0.959297 0.395823 -5.17664e-22)
(0.953674 0.398486 1.08096e-22)
(0.947945 0.401046 -8.37422e-23)
)
;
    }
    procBoundary44to45
    {
        type            processor;
        value           nonuniform List<vector> 
85
(
(0.946496 0.013884 -6.5814e-23)
(0.947357 0.0143745 -3.78878e-23)
(0.948101 0.0147973 -6.49144e-24)
(0.948739 0.0151436 -7.32496e-23)
(0.949285 0.0154035 5.04574e-22)
(0.949753 0.0155651 -1.27247e-21)
(0.95016 0.015623 3.95025e-22)
(0.950523 0.0155694 8.15728e-22)
(0.950862 0.0153912 -1.46126e-21)
(0.951195 0.0150794 7.92259e-22)
(0.951543 0.0146244 1.83514e-21)
(0.951924 0.0140257 -6.83739e-22)
(0.95236 0.0132762 -7.93177e-22)
(0.952867 0.012353 -1.21729e-21)
(0.953467 0.0112771 2.09745e-21)
(0.954176 0.010045 -1.47527e-21)
(0.955013 0.00862634 2.08742e-21)
(0.955997 0.00702996 -6.96165e-23)
(0.957152 0.00528545 3.29609e-22)
(0.958504 0.00348426 8.50783e-22)
(0.960083 0.00151993 -3.83187e-22)
(0.965677 -0.00908091 0)
(0.982783 -0.0425827 0)
(1.00483 -0.0715853 0)
(1.03353 -0.101961 0)
(1.06576 -0.126675 0)
(1.0984 -0.144291 0)
(1.12719 -0.152265 0)
(1.1482 -0.15008 0)
(1.15892 -0.139236 0)
(1.15948 -0.122768 0)
(1.15277 -0.104531 0)
(1.14243 -0.0870753 0)
(1.13121 -0.0715191 0)
(1.12086 -0.0580281 0)
(1.1122 -0.0464668 0)
(1.10537 -0.0365712 0)
(1.10007 -0.0280592 0)
(1.09601 -0.0206642 0)
(1.09601 -0.0206642 0)
(1.07356 -0.00821728 0)
(1.07206 -0.0048087 0)
(1.07133 -0.00158281 0)
(0.901701 -0.00220584 0)
(0.896368 -0.0299571 0)
(0.892587 -0.0500392 0)
(0.885528 -0.0743351 0)
(0.874998 -0.0976344 0)
(0.862136 -0.120994 0)
(0.848488 -0.141925 0)
(0.834173 -0.160155 0)
(0.820555 -0.175227 0)
(0.815361 -0.186264 0)
(0.830188 -0.190826 0)
(0.868359 -0.185362 0)
(0.918203 -0.168516 0)
(0.964034 -0.143402 0)
(0.997536 -0.115872 0)
(1.01925 -0.0903045 0)
(1.03301 -0.0682939 0)
(1.04192 -0.0496833 0)
(1.04772 -0.0337132 0)
(1.05124 -0.0195518 0)
(1.05291 -0.00641135 0)
(0.906513 0.00183011 8.15679e-23)
(0.908314 0.00201608 3.79469e-22)
(0.910294 0.0022317 -6.40772e-22)
(0.912408 0.00258544 -1.5357e-21)
(0.914614 0.00302333 1.5025e-21)
(0.916885 0.00350593 -2.7149e-21)
(0.919197 0.00403007 1.62167e-21)
(0.921532 0.00459909 -3.20691e-22)
(0.923866 0.00519902 -3.5946e-22)
(0.926178 0.00582691 -8.29405e-22)
(0.928447 0.00648905 1.00479e-21)
(0.930655 0.00717388 -3.44894e-23)
(0.932781 0.00787504 -2.3244e-21)
(0.934812 0.00859056 1.21671e-21)
(0.936733 0.00930984 5.26537e-22)
(0.938532 0.0100258 -2.87503e-22)
(0.940202 0.0107354 5.82714e-22)
(0.941737 0.0114291 2.02594e-23)
(0.943133 0.0120991 4.11193e-23)
(0.944389 0.0127374 -2.20699e-23)
(0.945509 0.0133352 -8.182e-23)
)
;
    }
}


// ************************************************************************* //
