/*--------------------------------*- C++ -*----------------------------------*\
  =========                 |
  \\      /  F ield         | OpenFOAM: The Open Source CFD Toolbox
   \\    /   O peration     | Website:  https://openfoam.org
    \\  /    A nd           | Version:  7
     \\/     M anipulation  |
\*---------------------------------------------------------------------------*/
FoamFile
{
    version     2.0;
    format      ascii;
    class       volScalarField;
    location    "30";
    object      p;
}
// * * * * * * * * * * * * * * * * * * * * * * * * * * * * * * * * * * * * * //

dimensions      [0 2 -2 0 0 0 0];

internalField   nonuniform List<scalar> 
183
(
0.00932245
0.00866414
0.00919873
0.00860819
0.00905008
0.00853099
0.00887751
0.00843276
0.0086813
0.00831327
0.00846109
0.00817186
0.008216
0.00800757
0.00794485
0.00781931
0.00764637
0.00760596
0.00731942
0.00736657
0.00696313
0.00710047
0.00657711
0.00680737
0.00616142
0.00648737
0.00571662
0.00614103
0.00606671
0.00524375
0.00576926
0.00577372
0.00474433
0.00537337
0.00545913
0.00422071
0.00495525
0.00512446
0.00367528
0.004517
0.00477155
0.00310652
0.0040589
0.00440151
0.00250884
0.00357804
0.00401321
0.00190278
0.00308253
0.00360919
0.00160198
0.00237547
-0.0011592
3.57331e-05
-0.0038399
-0.00225351
-0.00638456
-0.00445139
-0.00878782
-0.00654098
-0.0110154
-0.00849265
-0.0130758
-0.0103109
-0.014972
-0.0119946
-0.0167062
-0.013543
-0.0182827
-0.0149577
-0.019706
-0.0162413
-0.0209806
-0.0173961
-0.0221111
-0.0184249
-0.0231021
-0.0193306
-0.0239581
-0.0201161
-0.0246832
-0.020784
-0.0252812
-0.0213366
-0.0257553
-0.0217761
-0.0261084
-0.0221041
-0.0263425
-0.0223219
-0.0264591
-0.0224306
0.00230132
-0.000481232
-0.00318777
-0.00578417
-0.00824685
-0.0105396
-0.0126668
-0.0146277
-0.0164229
-0.0180553
-0.0195288
-0.0208479
-0.0220174
-0.0230421
-0.0239266
-0.0246753
-0.0252922
-0.0257811
-0.0261449
-0.0263861
-0.0265062
0.00224513
-5.89549e-06
-0.00221897
-0.00437044
-0.00643288
-0.00837504
-0.0101958
-0.0118898
-0.0134532
-0.0148855
-0.0161875
-0.0173608
-0.0184074
-0.0193297
-0.0201301
-0.0208108
-0.0213742
-0.0218222
-0.0221567
-0.0223788
-0.0224897
0.00374583
0.00377573
0.00344133
0.00433727
0.00424862
0.00382097
0.00490383
0.00469698
0.00418089
0.00544359
0.00512749
0.0045286
0.00595971
0.00554164
0.00486464
0.00645058
0.00593722
0.0051871
0.00691296
0.00631194
0.00549444
0.00734401
0.00666396
0.00774122
0.00699159
0.00810226
0.00729323
0.008425
0.00756741
0.00870766
0.00781291
0.00894888
0.00802877
0.00914782
0.00821439
0.00930427
0.00836955
0.00941868
0.00849447
0.00949219
0.00858978
0.00952662
0.00865644
0.00952424
0.00869555
0.0094875
0.00870897
0.00941945
0.00869811
)
;

boundaryField
{
    inlet
    {
        type            zeroGradient;
    }
    outlet
    {
        type            fixedValue;
        value           nonuniform 0();
    }
    cylinder
    {
        type            zeroGradient;
    }
    top
    {
        type            symmetryPlane;
    }
    bottom
    {
        type            symmetryPlane;
    }
    defaultFaces
    {
        type            empty;
    }
    procBoundary42to41
    {
        type            processor;
        value           nonuniform List<scalar> 
86
(
0.00951513
0.00930844
0.00907199
0.00880774
0.00851662
0.00819861
0.00785297
0.00747849
0.00707378
0.00663757
0.00616891
0.00566735
0.00513302
0.00456662
0.00396932
0.00334299
0.00269067
0.00201514
0.00131212
0.000571554
-0.000167867
0.000154111
0.000154111
-0.00306176
-0.00615536
-0.00905748
-0.0117794
-0.0142837
-0.0165825
-0.0186835
-0.0205917
-0.0223145
-0.0238596
-0.0252342
-0.0264458
-0.0275018
-0.0284091
-0.0291743
-0.0298029
-0.0302998
-0.0306689
-0.0309132
-0.0310349
0.00195256
0.00195256
-0.00145825
-0.00473219
-0.00782598
-0.0107284
-0.0133985
-0.0158481
-0.0180828
-0.0201086
-0.0219331
-0.0235651
-0.0250134
-0.0262869
-0.0273943
-0.0283438
-0.0291427
-0.0297978
-0.0303148
-0.0306984
-0.0309521
-0.0310784
0.00302321
0.00376454
0.00448522
0.00516588
0.00581274
0.00642598
0.00700127
0.00753432
0.00802151
0.00845959
0.0088456
0.00917707
0.00945216
0.0096698
0.00982983
0.00993305
0.00998127
0.00997722
0.00992445
0.00982703
0.00968919
)
;
    }
    procBoundary42to43
    {
        type            processor;
        value           nonuniform List<scalar> 
86
(
0.00778275
0.00777623
0.00775113
0.00770715
0.00764369
0.00755996
0.00745505
0.00732799
0.00717789
0.00700404
0.00680597
0.00658353
0.00633693
0.00633693
0.0057414
0.00551144
0.00526243
0.00499563
0.00471264
0.00441507
0.00410272
0.0037733
0.00274201
0.000773929
-0.00116964
-0.00305242
-0.00485106
-0.0065416
-0.00812633
-0.00960164
-0.0109651
-0.0122166
-0.0133567
-0.0143862
-0.0153063
-0.0161186
-0.016825
-0.0174269
-0.0179261
-0.0183237
-0.0186208
-0.0188184
-0.0189169
0.00207418
0.000250768
-0.00156279
-0.00334294
-0.00506256
-0.00669639
-0.00824106
-0.00968915
-0.0110351
-0.0122761
-0.0134108
-0.0144386
-0.0153596
-0.0161746
-0.0168844
-0.01749
-0.0179927
-0.0183933
-0.0186929
-0.0188922
-0.0189916
0.00305389
0.0033612
0.00365164
0.00393337
0.00420664
0.00446984
0.00472192
0.00578552
0.00578552
0.00605925
0.00631461
0.00655067
0.00676665
0.00696194
0.00713612
0.00728897
0.00742053
0.00753111
0.007621
0.00768965
0.00773979
0.00777072
)
;
    }
}


// ************************************************************************* //
