/*--------------------------------*- C++ -*----------------------------------*\
  =========                 |
  \\      /  F ield         | OpenFOAM: The Open Source CFD Toolbox
   \\    /   O peration     | Website:  https://openfoam.org
    \\  /    A nd           | Version:  7
     \\/     M anipulation  |
\*---------------------------------------------------------------------------*/
FoamFile
{
    version     2.0;
    format      ascii;
    class       volScalarField;
    location    "25";
    object      p;
}
// * * * * * * * * * * * * * * * * * * * * * * * * * * * * * * * * * * * * * //

dimensions      [0 2 -2 0 0 0 0];

internalField   nonuniform List<scalar> 
2304
(
-0.305332
-0.310955
-0.308672
-0.30223
-0.292963
-0.281376
-0.268042
-0.253608
-0.238566
-0.224367
-0.310478
-0.31471
-0.311695
-0.304761
-0.295108
-0.283209
-0.269538
-0.254658
-0.238833
-0.223304
-0.320461
-0.321989
-0.31752
-0.309606
-0.29921
-0.286656
-0.272346
-0.256669
-0.239427
-0.221329
-0.334739
-0.332378
-0.325763
-0.316381
-0.304832
-0.291345
-0.276125
-0.259407
-0.240483
-0.21879
-0.352663
-0.345324
-0.336
-0.32467
-0.311586
-0.296861
-0.280485
-0.262554
-0.242015
-0.216169
-0.373473
-0.360414
-0.347811
-0.3341
-0.319123
-0.302855
-0.285074
-0.265717
-0.243572
-0.213636
-0.396579
-0.377203
-0.360886
-0.34445
-0.32725
-0.309144
-0.289717
-0.268652
-0.244374
-0.211237
-0.421406
-0.395286
-0.375017
-0.355599
-0.335883
-0.31565
-0.294395
-0.271588
-0.245336
-0.21371
-0.447362
-0.414317
-0.389986
-0.367393
-0.34484
-0.322066
-0.298599
-0.274136
-0.24891
-0.23176
-0.473679
-0.433796
-0.405426
-0.379472
-0.353639
-0.327668
-0.301168
-0.274088
-0.247229
-0.225806
-0.499316
-0.452962
-0.420666
-0.391107
-0.361412
-0.331449
-0.301074
-0.270553
-0.240888
-0.214289
-0.522817
-0.470678
-0.434605
-0.401086
-0.366825
-0.33207
-0.297155
-0.262774
-0.230054
-0.199892
-0.542274
-0.485369
-0.445657
-0.407718
-0.368182
-0.32802
-0.288294
-0.250183
-0.214877
-0.182675
-0.555376
-0.495036
-0.451803
-0.408968
-0.363626
-0.317849
-0.273566
-0.23236
-0.1953
-0.162266
-0.559537
-0.497356
-0.450737
-0.402668
-0.351385
-0.300349
-0.252324
-0.209071
-0.17129
-0.138509
-0.552095
-0.489861
-0.440098
-0.386785
-0.33
-0.274687
-0.224218
-0.180226
-0.14286
-0.111389
-0.530567
-0.470183
-0.417739
-0.359685
-0.298506
-0.240472
-0.189189
-0.145877
-0.110008
-0.0806978
-0.492914
-0.436323
-0.382008
-0.320332
-0.256524
-0.197765
-0.14748
-0.106276
-0.0728366
-0.0460837
-0.4378
-0.38692
-0.331987
-0.268435
-0.204269
-0.14703
-0.0996477
-0.0619461
-0.0318808
-0.00823683
-0.364809
-0.321509
-0.267661
-0.204523
-0.14247
-0.0890585
-0.0465429
-0.0135867
0.0123327
0.0312922
-0.274603
-0.24074
-0.18985
-0.129872
-0.0723664
-0.0252451
0.0109662
0.0380261
0.058834
0.0723865
-0.168927
-0.146317
-0.0999385
-0.0457958
0.00380368
0.0429717
0.0714961
0.0917158
0.106501
0.114095
-0.0503849
-0.0400472
-0.00124157
0.0445421
0.0843838
0.113916
0.13366
0.146146
0.153785
0.154968
0.0768763
0.0742005
0.103315
0.138536
0.167002
0.185783
0.196082
0.200172
0.199782
0.194536
0.208495
0.192164
0.210077
0.233113
0.249136
0.256622
0.257262
0.252777
0.244356
0.239058
0.339415
0.309307
0.315066
0.325019
0.328165
0.324247
0.315218
0.302621
0.288219
0.279276
0.464333
0.420907
0.414258
0.411025
0.401537
0.386627
0.368368
0.348248
0.328203
0.313762
0.57802
0.522326
0.503787
0.488066
0.466857
0.441894
0.4153
0.388493
0.363196
0.343213
0.675604
0.609265
0.580115
0.553363
0.521959
0.488345
0.454642
0.422158
0.392249
0.367305
0.752835
0.677996
0.640208
0.604547
0.565003
0.524535
0.485235
0.448292
0.414689
0.385714
0.80631
0.725546
0.681663
0.639749
0.594536
0.549323
0.506162
0.466149
0.429971
0.398156
0.833657
0.749851
0.702815
0.65768
0.609559
0.561918
0.516788
0.47521
0.43771
0.404427
0.833657
0.749851
0.702815
0.65768
0.609559
0.561918
0.516788
0.47521
0.43771
0.404427
0.80631
0.725546
0.681663
0.639749
0.594536
0.549323
0.506162
0.466149
0.429971
0.398156
0.752835
0.677996
0.640209
0.604547
0.565003
0.524535
0.485235
0.448292
0.414689
0.385714
0.675604
0.609265
0.580115
0.553363
0.521959
0.488345
0.454642
0.422158
0.392249
0.367305
0.57802
0.522326
0.503787
0.488066
0.466857
0.441894
0.4153
0.388493
0.363196
0.343213
0.464333
0.420907
0.414258
0.411025
0.401537
0.386627
0.368368
0.348248
0.328203
0.313762
0.339415
0.309307
0.315066
0.325019
0.328165
0.324247
0.315218
0.302621
0.288219
0.279276
0.208495
0.192164
0.210077
0.233113
0.249136
0.256622
0.257262
0.252777
0.244356
0.239058
0.0768763
0.0742006
0.103315
0.138536
0.167002
0.185783
0.196082
0.200172
0.199782
0.194536
-0.0503849
-0.0400472
-0.00124156
0.0445421
0.0843838
0.113916
0.13366
0.146146
0.153785
0.154968
-0.168927
-0.146317
-0.0999385
-0.0457957
0.0038037
0.0429717
0.0714961
0.0917158
0.106501
0.114095
-0.274603
-0.24074
-0.18985
-0.129872
-0.0723664
-0.0252451
0.0109662
0.0380261
0.058834
0.0723865
-0.364809
-0.321509
-0.267661
-0.204523
-0.14247
-0.0890585
-0.0465429
-0.0135867
0.0123327
0.0312922
-0.4378
-0.38692
-0.331987
-0.268435
-0.204269
-0.14703
-0.0996476
-0.0619461
-0.0318808
-0.00823683
-0.492914
-0.436323
-0.382008
-0.320332
-0.256524
-0.197765
-0.14748
-0.106276
-0.0728366
-0.0460837
-0.530567
-0.470183
-0.417739
-0.359685
-0.298506
-0.240472
-0.189189
-0.145877
-0.110008
-0.0806978
-0.552095
-0.489861
-0.440098
-0.386785
-0.33
-0.274687
-0.224218
-0.180226
-0.14286
-0.111389
-0.559537
-0.497356
-0.450737
-0.402668
-0.351385
-0.300349
-0.252324
-0.209071
-0.17129
-0.138509
-0.555376
-0.495036
-0.451803
-0.408968
-0.363626
-0.317849
-0.273566
-0.23236
-0.1953
-0.162266
-0.542274
-0.485369
-0.445657
-0.407718
-0.368182
-0.32802
-0.288294
-0.250183
-0.214877
-0.182675
-0.522817
-0.470678
-0.434605
-0.401086
-0.366825
-0.33207
-0.297155
-0.262774
-0.230054
-0.199892
-0.499316
-0.452962
-0.420666
-0.391107
-0.361412
-0.331449
-0.301074
-0.270553
-0.240888
-0.214289
-0.473679
-0.433796
-0.405426
-0.379472
-0.353639
-0.327668
-0.301168
-0.274088
-0.247229
-0.225806
-0.447362
-0.414317
-0.389986
-0.367393
-0.34484
-0.322066
-0.298599
-0.274136
-0.24891
-0.23176
-0.421406
-0.395286
-0.375017
-0.355599
-0.335883
-0.31565
-0.294395
-0.271588
-0.245336
-0.21371
-0.396579
-0.377203
-0.360886
-0.34445
-0.32725
-0.309144
-0.289717
-0.268652
-0.244374
-0.211237
-0.373473
-0.360414
-0.347811
-0.3341
-0.319123
-0.302855
-0.285074
-0.265717
-0.243572
-0.213636
-0.352663
-0.345324
-0.336
-0.32467
-0.311586
-0.296861
-0.280485
-0.262554
-0.242015
-0.216169
-0.334739
-0.332378
-0.325763
-0.316381
-0.304832
-0.291345
-0.276125
-0.259407
-0.240483
-0.21879
-0.320461
-0.321989
-0.31752
-0.309606
-0.29921
-0.286656
-0.272346
-0.256669
-0.239427
-0.221329
-0.310478
-0.31471
-0.311695
-0.304761
-0.295108
-0.283209
-0.269538
-0.254658
-0.238833
-0.223304
-0.305332
-0.310955
-0.308672
-0.30223
-0.292963
-0.281376
-0.268042
-0.253608
-0.238566
-0.224367
-0.210972
-0.182449
-0.160716
-0.140021
-0.120948
-0.103916
-0.0888518
-0.0756454
-0.0641624
-0.0542312
-0.0456677
-0.0382931
-0.0319412
-0.0264629
-0.0217282
-0.017623
-0.014057
-0.0109358
-0.00823119
-0.00578429
-0.00381666
-0.00159508
-0.000837604
0.00289892
-0.21349
-0.183448
-0.161577
-0.140875
-0.121685
-0.104553
-0.0894074
-0.0761289
-0.0645821
-0.0545954
-0.0459834
-0.0385664
-0.0321775
-0.026667
-0.0219042
-0.0177744
-0.0141869
-0.011047
-0.00832577
-0.00586601
-0.00388368
-0.00166436
-0.000872919
0.00275507
-0.218195
-0.185456
-0.163172
-0.142479
-0.123091
-0.105774
-0.0904826
-0.0770723
-0.0654069
-0.0553149
-0.0466098
-0.0391104
-0.0326491
-0.027075
-0.0222564
-0.0180778
-0.0144473
-0.0112703
-0.0085156
-0.00603011
-0.00401812
-0.00180264
-0.000944818
0.00248056
-0.224391
-0.188459
-0.165299
-0.144635
-0.125036
-0.107492
-0.0920144
-0.0784329
-0.0666084
-0.0563713
-0.0475348
-0.0399175
-0.033351
-0.0276838
-0.0227829
-0.0185321
-0.0148377
-0.0116054
-0.00880068
-0.00627685
-0.00422006
-0.0020087
-0.00105475
0.00209989
-0.230947
-0.192311
-0.167731
-0.147063
-0.127322
-0.109567
-0.0939
-0.080135
-0.0681312
-0.0577239
-0.0487288
-0.0409659
-0.0342676
-0.0284822
-0.023476
-0.0191321
-0.0153548
-0.0120504
-0.00917999
-0.00660578
-0.00448911
-0.00228009
-0.00120358
0.00164522
-0.236185
-0.196392
-0.170172
-0.149452
-0.129712
-0.11185
-0.096042
-0.0821143
-0.0699357
-0.059351
-0.0501823
-0.0422544
-0.0354026
-0.029477
-0.0243437
-0.019886
-0.0160066
-0.0126127
-0.00965967
-0.00702167
-0.00482886
-0.00261589
-0.00139292
0.00115058
-0.238395
-0.200372
-0.172958
-0.152042
-0.132398
-0.114545
-0.0986399
-0.0845556
-0.0721865
-0.0613944
-0.0520143
-0.0438801
-0.0368335
-0.0307286
-0.0254324
-0.0208289
-0.0168186
-0.0133105
-0.0102526
-0.00753291
-0.00524428
-0.00301619
-0.0016217
0.000645056
-0.235405
-0.201693
-0.174582
-0.153587
-0.13436
-0.116825
-0.101014
-0.0868839
-0.0743885
-0.0634257
-0.0538549
-0.0455256
-0.03829
-0.0320084
-0.0265509
-0.0218027
-0.0176623
-0.014041
-0.0108773
-0.00807817
-0.00568728
-0.00344995
-0.00186091
0.000154538
-0.20454
-0.188308
-0.168211
-0.148974
-0.131376
-0.115129
-0.100186
-0.0866598
-0.0745979
-0.063942
-0.0545776
-0.0463755
-0.0392063
-0.032946
-0.0274772
-0.0226959
-0.0185057
-0.0148288
-0.0115939
-0.00874337
-0.00624778
-0.00402647
-0.00218548
-0.000469245
-0.175958
-0.167901
-0.152197
-0.136355
-0.122127
-0.108806
-0.0961067
-0.0842434
-0.0734154
-0.0636634
-0.0549389
-0.0471693
-0.0402752
-0.0341734
-0.0287759
-0.0240027
-0.0197733
-0.0160285
-0.012697
-0.00975087
-0.00711611
-0.00482443
-0.002741
-0.00107199
-0.146026
-0.144765
-0.134197
-0.122851
-0.112212
-0.101751
-0.0912981
-0.0811641
-0.0716549
-0.0628962
-0.0549015
-0.0476493
-0.0411042
-0.0352216
-0.0299441
-0.0252177
-0.0209786
-0.0171866
-0.0137716
-0.0107328
-0.00796044
-0.00556638
-0.00324967
-0.00147477
-0.120093
-0.123434
-0.117586
-0.110006
-0.102429
-0.0945125
-0.0861632
-0.0777175
-0.0695291
-0.0617852
-0.0545538
-0.0478586
-0.0417038
-0.0360796
-0.0309575
-0.0263079
-0.0220833
-0.0182621
-0.0147767
-0.0116481
-0.00874248
-0.00622055
-0.00368448
-0.00172437
-0.0984636
-0.104611
-0.102626
-0.0982396
-0.0932311
-0.0875009
-0.0810261
-0.0741351
-0.0671924
-0.0604245
-0.0539433
-0.0478105
-0.0420625
-0.0367191
-0.0317764
-0.0272272
-0.0230392
-0.0192069
-0.0156675
-0.012457
-0.00943059
-0.00677008
-0.00404148
-0.00186369
-0.0810283
-0.088789
-0.0897536
-0.0879672
-0.0850283
-0.081089
-0.0761989
-0.0706634
-0.0648327
-0.0589524
-0.0531666
-0.0475665
-0.042214
-0.037152
-0.0323973
-0.027961
-0.0238249
-0.0199963
-0.0164193
-0.0131383
-0.0100088
-0.00721438
-0.00432477
-0.00193342
-0.0674215
-0.0759767
-0.0790363
-0.0792631
-0.0779734
-0.0754625
-0.0718682
-0.0674722
-0.0625966
-0.0574913
-0.0523217
-0.0472018
-0.0422129
-0.0374157
-0.0328433
-0.0285217
-0.0244449
-0.0206301
-0.0170292
-0.013691
-0.0104773
-0.00756419
-0.00454471
-0.00196666
-0.0570205
-0.065898
-0.0703819
-0.0721135
-0.072103
-0.0707139
-0.0681508
-0.0646799
-0.0605944
-0.0561396
-0.0514938
-0.0467874
-0.0421162
-0.0375543
-0.0331476
-0.0289336
-0.0249164
-0.0211209
-0.0175066
-0.014124
-0.0108445
-0.00783333
-0.00471248
-0.00198428
-0.0492664
-0.0582347
-0.0636612
-0.0664783
-0.0674273
-0.0668922
-0.0651205
-0.0623696
-0.0589085
-0.0549745
-0.0507524
-0.0463838
-0.0419751
-0.0376101
-0.0333443
-0.0292238
-0.0252609
-0.021486
-0.0178654
-0.0144503
-0.0111215
-0.00803433
-0.0048372
-0.00199626
-0.0437619
-0.0527226
-0.058751
-0.0623111
-0.0639403
-0.064019
-0.0628207
-0.0605966
-0.057598
-0.0540537
-0.0501513
-0.0460394
-0.0418319
-0.0376193
-0.0334638
-0.0294175
-0.025499
-0.0217425
-0.01812
-0.0146824
-0.0113188
-0.008177
-0.00492546
-0.00200549
-0.0402278
-0.049157
-0.0555428
-0.0595652
-0.0616281
-0.062103
-0.0612764
-0.0593969
-0.0567035
-0.0534182
-0.0497295
-0.0457902
-0.0417186
-0.0376096
-0.0335297
-0.0295349
-0.0256478
-0.021905
-0.0182824
-0.014831
-0.0114456
-0.00826824
-0.00498263
-0.00201017
-0.0384768
-0.0473931
-0.0539523
-0.0582007
-0.0604761
-0.061145
-0.0605012
-0.0587921
-0.0562505
-0.0530945
-0.0495127
-0.0456599
-0.0416568
-0.0376002
-0.0335587
-0.02959
-0.0257193
-0.0219834
-0.018362
-0.0149027
-0.011509
-0.00831076
-0.00501535
-0.00200603
-0.208847
-0.171427
-0.133744
-0.105703
-0.0849461
-0.068871
-0.0565379
-0.0472045
-0.0402694
-0.0353483
-0.0321797
-0.0305805
-0.184547
-0.152763
-0.12069
-0.0953165
-0.0763912
-0.0615226
-0.0499392
-0.0411254
-0.0345585
-0.0298795
-0.0268408
-0.0252764
-0.172673
-0.139861
-0.110065
-0.0856416
-0.0674942
-0.0535389
-0.0427001
-0.034448
-0.0283
-0.0239099
-0.02104
-0.0195496
-0.158836
-0.124591
-0.0970046
-0.0747206
-0.0578555
-0.0449505
-0.0349331
-0.0272784
-0.0215679
-0.0174848
-0.0148048
-0.0134146
-0.143678
-0.10972
-0.0836844
-0.0632972
-0.047693
-0.0357874
-0.0266002
-0.0195806
-0.0143427
-0.0105973
-0.00813723
-0.00687464
-0.125627
-0.09351
-0.0693081
-0.0509187
-0.036807
-0.0260196
-0.0177187
-0.0113802
-0.00665074
-0.00327216
-0.00105908
5.33893e-05
-0.104917
-0.0759929
-0.0541472
-0.0377831
-0.0252505
-0.0156705
-0.00831073
-0.00269935
0.00148295
0.00446369
0.00640305
0.00734805
-0.0816555
-0.0568411
-0.0379131
-0.0237994
-0.0129915
-0.00474448
0.00159284
0.00642183
0.0100158
0.0125678
0.01421
0.0149758
-0.0557232
-0.0361081
-0.0204665
-0.0090507
-0.000125949
0.0066754
0.0119165
0.0159121
0.0188808
0.0209775
0.0223074
0.0228814
-0.0268301
-0.0139455
-0.0018315
0.00628682
0.0131961
0.0184626
0.0225516
0.0256744
0.0279907
0.0296147
0.0306251
0.0309971
0.00413822
0.00959602
0.017322
0.02245
0.0270133
0.0306135
0.033461
0.0356591
0.0372914
0.0384255
0.0391028
0.0392902
0.0367782
0.0343674
0.0369902
0.0388963
0.041041
0.0429182
0.0444906
0.0457406
0.0466745
0.0473119
0.0476568
0.0476786
0.0704622
0.0601519
0.0573213
0.0557843
0.0554021
0.0554384
0.0556433
0.0558802
0.0560764
0.0561978
0.0562096
0.0560854
0.105947
0.0887107
0.0800217
0.0743713
0.0708975
0.068646
0.0671693
0.0661902
0.0655272
0.0650667
0.0647224
0.0644622
0.144163
0.121506
0.106107
0.0952822
0.0878885
0.0827626
0.0792091
0.0767567
0.0750739
0.0739385
0.0731984
0.0727985
0.176562
0.150338
0.129635
0.114495
0.103794
0.096211
0.090835
0.0870489
0.0844189
0.0826494
0.0815444
0.0810198
0.206541
0.179839
0.157783
0.140214
0.127069
0.117351
0.110137
0.10482
0.100982
0.0983287
0.0966621
0.0958618
0.230962
0.20296
0.181294
0.163919
0.15023
0.139596
0.131392
0.12514
0.120494
0.117208
0.11511
0.114095
0.233061
0.212418
0.194703
0.179622
0.167024
0.156698
0.148381
0.141823
0.136817
0.133201
0.130856
0.129698
0.231264
0.215679
0.201332
0.188539
0.177452
0.168057
0.160272
0.153989
0.149101
0.145518
0.143169
0.142008
0.226827
0.215346
0.204166
0.193733
0.184318
0.176052
0.168991
0.163147
0.158512
0.155062
0.152777
0.151637
0.223426
0.214395
0.205297
0.196522
0.188378
0.181052
0.174664
0.169287
0.164961
0.161707
0.159536
0.158451
0.22077
0.21328
0.205556
0.197936
0.190699
0.184057
0.178164
0.173132
0.169036
0.165929
0.163842
0.162794
0.219669
0.212817
0.205659
0.198515
0.191661
0.185315
0.179646
0.174777
0.170797
0.167768
0.165729
0.164706
0.254109
0.262043
0.251321
0.244062
0.235604
0.230171
0.226152
0.224493
0.280306
0.27626
0.260228
0.250131
0.24011
0.23392
0.229415
0.227603
0.301659
0.287612
0.26763
0.255167
0.243988
0.237231
0.232253
0.23039
0.320121
0.297758
0.274319
0.259717
0.247467
0.23979
0.234755
0.232824
0.335195
0.306077
0.279882
0.263482
0.250377
0.242289
0.23688
0.234854
0.346654
0.312438
0.284179
0.266382
0.252584
0.244114
0.238528
0.236428
0.354367
0.316754
0.287115
0.268367
0.254098
0.245356
0.23965
0.237503
0.358241
0.318935
0.288606
0.269373
0.25484
0.245984
0.240219
0.238047
0.358241
0.318935
0.288606
0.269373
0.25484
0.245984
0.240219
0.238047
0.354367
0.316754
0.287115
0.268367
0.254098
0.245356
0.23965
0.237503
0.346654
0.312438
0.284179
0.266382
0.252584
0.244114
0.238528
0.236428
0.335195
0.306077
0.279882
0.263482
0.250377
0.242289
0.23688
0.234854
0.320121
0.297758
0.274319
0.259717
0.247467
0.23979
0.234755
0.232824
0.301659
0.287612
0.26763
0.255167
0.243988
0.237231
0.232253
0.23039
0.280306
0.27626
0.260228
0.250131
0.24011
0.23392
0.229415
0.227603
0.254109
0.262043
0.251321
0.244062
0.235604
0.230171
0.226152
0.224493
0.206541
0.230962
0.233061
0.231264
0.226827
0.223426
0.22077
0.219669
0.179839
0.20296
0.212418
0.215679
0.215346
0.214395
0.21328
0.212817
0.157783
0.181294
0.194703
0.201332
0.204166
0.205297
0.205556
0.205659
0.140214
0.163919
0.179622
0.188539
0.193733
0.196522
0.197936
0.198515
0.127068
0.15023
0.167024
0.177452
0.184318
0.188378
0.190699
0.191661
0.117351
0.139596
0.156698
0.168057
0.176052
0.181052
0.184057
0.185315
0.110137
0.131392
0.148381
0.160272
0.168991
0.174664
0.178164
0.179646
0.10482
0.12514
0.141823
0.153989
0.163147
0.169287
0.173132
0.174777
0.100982
0.120494
0.136817
0.149101
0.158512
0.164961
0.169036
0.170797
0.0983287
0.117208
0.133201
0.145518
0.155062
0.161707
0.165929
0.167768
0.0966621
0.11511
0.130856
0.143169
0.152777
0.159536
0.163842
0.165729
0.0958618
0.114095
0.129698
0.142008
0.151637
0.158451
0.162794
0.164706
0.176562
0.150338
0.129635
0.114495
0.103794
0.096211
0.090835
0.0870489
0.0844189
0.0826494
0.0815444
0.0810198
0.144163
0.121506
0.106107
0.0952822
0.0878885
0.0827625
0.0792091
0.0767567
0.0750739
0.0739385
0.0731984
0.0727985
0.105947
0.0887107
0.0800217
0.0743713
0.0708975
0.068646
0.0671693
0.0661901
0.0655272
0.0650667
0.0647224
0.0644622
0.0704622
0.0601519
0.0573213
0.0557843
0.0554021
0.0554384
0.0556433
0.0558801
0.0560764
0.0561978
0.0562096
0.0560854
0.0367782
0.0343674
0.0369902
0.0388963
0.041041
0.0429182
0.0444906
0.0457406
0.0466745
0.0473118
0.0476567
0.0476786
0.00413822
0.00959602
0.017322
0.02245
0.0270133
0.0306135
0.033461
0.0356591
0.0372914
0.0384255
0.0391028
0.0392902
-0.0268301
-0.0139455
-0.0018315
0.00628681
0.0131961
0.0184626
0.0225516
0.0256743
0.0279906
0.0296146
0.030625
0.0309971
-0.0557232
-0.0361081
-0.0204665
-0.0090507
-0.000125961
0.00667539
0.0119165
0.0159121
0.0188808
0.0209774
0.0223074
0.0228814
-0.0816555
-0.0568411
-0.0379131
-0.0237994
-0.0129915
-0.0047445
0.00159282
0.0064218
0.0100158
0.0125678
0.0142099
0.0149757
-0.104917
-0.0759929
-0.0541472
-0.0377831
-0.0252506
-0.0156705
-0.00831075
-0.00269937
0.00148292
0.00446366
0.00640302
0.00734802
-0.125627
-0.09351
-0.0693081
-0.0509187
-0.036807
-0.0260196
-0.0177187
-0.0113802
-0.00665077
-0.00327219
-0.00105911
5.33603e-05
-0.143678
-0.10972
-0.0836844
-0.0632972
-0.047693
-0.0357875
-0.0266002
-0.0195807
-0.0143427
-0.0105974
-0.00813726
-0.00687466
-0.158836
-0.124591
-0.0970046
-0.0747206
-0.0578555
-0.0449506
-0.0349331
-0.0272784
-0.021568
-0.0174848
-0.0148048
-0.0134146
-0.172673
-0.139861
-0.110065
-0.0856416
-0.0674942
-0.0535389
-0.0427001
-0.0344481
-0.0283
-0.0239099
-0.02104
-0.0195497
-0.184547
-0.152763
-0.12069
-0.0953165
-0.0763913
-0.0615226
-0.0499392
-0.0411254
-0.0345585
-0.0298795
-0.0268408
-0.0252764
-0.208847
-0.171427
-0.133744
-0.105703
-0.0849461
-0.068871
-0.0565379
-0.0472045
-0.0402694
-0.0353483
-0.0321797
-0.0305805
-0.20454
-0.175958
-0.146026
-0.120093
-0.0984636
-0.0810283
-0.0674216
-0.0570205
-0.0492664
-0.0437619
-0.0402278
-0.0384768
-0.188308
-0.167901
-0.144765
-0.123434
-0.104611
-0.088789
-0.0759767
-0.065898
-0.0582347
-0.0527226
-0.049157
-0.0473931
-0.168211
-0.152197
-0.134197
-0.117586
-0.102626
-0.0897536
-0.0790363
-0.0703819
-0.0636613
-0.058751
-0.0555428
-0.0539523
-0.148974
-0.136355
-0.122851
-0.110006
-0.0982396
-0.0879672
-0.0792631
-0.0721135
-0.0664783
-0.0623111
-0.0595652
-0.0582007
-0.131376
-0.122127
-0.112212
-0.102429
-0.0932311
-0.0850283
-0.0779734
-0.072103
-0.0674273
-0.0639403
-0.0616281
-0.0604761
-0.115129
-0.108806
-0.101751
-0.0945125
-0.0875009
-0.081089
-0.0754625
-0.0707139
-0.0668922
-0.064019
-0.062103
-0.061145
-0.100186
-0.0961067
-0.0912981
-0.0861632
-0.0810261
-0.0761989
-0.0718682
-0.0681508
-0.0651205
-0.0628207
-0.0612764
-0.0605012
-0.0866598
-0.0842434
-0.0811641
-0.0777175
-0.0741351
-0.0706634
-0.0674722
-0.0646799
-0.0623696
-0.0605966
-0.0593969
-0.0587921
-0.0745979
-0.0734154
-0.0716549
-0.0695291
-0.0671924
-0.0648327
-0.0625966
-0.0605944
-0.0589085
-0.057598
-0.0567035
-0.0562505
-0.063942
-0.0636634
-0.0628962
-0.0617852
-0.0604245
-0.0589524
-0.0574913
-0.0561396
-0.0549744
-0.0540537
-0.0534182
-0.0530945
-0.0545775
-0.0549389
-0.0549015
-0.0545538
-0.0539433
-0.0531665
-0.0523217
-0.0514938
-0.0507524
-0.0501513
-0.0497295
-0.0495127
-0.0463755
-0.0471693
-0.0476493
-0.0478586
-0.0478105
-0.0475665
-0.0472018
-0.0467874
-0.0463838
-0.0460394
-0.0457901
-0.0456599
-0.0392063
-0.0402752
-0.0411042
-0.0417038
-0.0420625
-0.042214
-0.0422129
-0.0421162
-0.041975
-0.0418318
-0.0417185
-0.0416568
-0.032946
-0.0341734
-0.0352216
-0.0360796
-0.0367191
-0.037152
-0.0374157
-0.0375543
-0.0376101
-0.0376192
-0.0376096
-0.0376001
-0.0274772
-0.0287759
-0.0299441
-0.0309574
-0.0317763
-0.0323973
-0.0328433
-0.0331476
-0.0333443
-0.0334637
-0.0335297
-0.0335587
-0.0226959
-0.0240026
-0.0252177
-0.0263079
-0.0272272
-0.027961
-0.0285217
-0.0289336
-0.0292238
-0.0294175
-0.0295349
-0.02959
-0.0185057
-0.0197733
-0.0209785
-0.0220833
-0.0230392
-0.0238249
-0.0244449
-0.0249164
-0.0252609
-0.025499
-0.0256477
-0.0257193
-0.0148287
-0.0160285
-0.0171866
-0.0182621
-0.0192069
-0.0199963
-0.0206301
-0.0211209
-0.021486
-0.0217425
-0.021905
-0.0219834
-0.0115939
-0.012697
-0.0137716
-0.0147767
-0.0156675
-0.0164192
-0.0170292
-0.0175066
-0.0178654
-0.0181199
-0.0182824
-0.018362
-0.00874336
-0.00975086
-0.0107327
-0.0116481
-0.0124569
-0.0131383
-0.0136909
-0.014124
-0.0144502
-0.0146824
-0.014831
-0.0149026
-0.00624777
-0.0071161
-0.00796044
-0.00874247
-0.00943058
-0.0100088
-0.0104773
-0.0108445
-0.0111214
-0.0113188
-0.0114456
-0.011509
-0.00402647
-0.00482443
-0.00556638
-0.00622054
-0.00677007
-0.00721438
-0.00756418
-0.00783332
-0.00803432
-0.00817699
-0.00826823
-0.00831075
-0.00218548
-0.00274099
-0.00324966
-0.00368448
-0.00404148
-0.00432477
-0.00454471
-0.00471248
-0.00483719
-0.00492545
-0.00498262
-0.00501534
-0.000469245
-0.00107199
-0.00147477
-0.00172437
-0.00186369
-0.00193341
-0.00196666
-0.00198427
-0.00199626
-0.00200548
-0.00201017
-0.00200603
-0.235405
-0.201693
-0.174582
-0.153587
-0.13436
-0.116825
-0.101014
-0.0868839
-0.0743885
-0.0634257
-0.0538549
-0.0455256
-0.03829
-0.0320084
-0.0265509
-0.0218027
-0.0176623
-0.014041
-0.0108773
-0.00807817
-0.00568728
-0.00344995
-0.00186091
0.000154538
-0.238395
-0.200372
-0.172958
-0.152042
-0.132398
-0.114545
-0.0986399
-0.0845556
-0.0721865
-0.0613944
-0.0520143
-0.0438801
-0.0368335
-0.0307285
-0.0254324
-0.0208289
-0.0168186
-0.0133105
-0.0102526
-0.00753291
-0.00524427
-0.00301619
-0.0016217
0.000645057
-0.236185
-0.196392
-0.170172
-0.149452
-0.129712
-0.11185
-0.096042
-0.0821143
-0.0699357
-0.059351
-0.0501823
-0.0422544
-0.0354026
-0.029477
-0.0243437
-0.019886
-0.0160066
-0.0126127
-0.00965967
-0.00702167
-0.00482886
-0.00261589
-0.00139292
0.00115058
-0.230947
-0.192311
-0.167731
-0.147063
-0.127322
-0.109567
-0.0939
-0.080135
-0.0681312
-0.0577239
-0.0487288
-0.0409659
-0.0342676
-0.0284822
-0.023476
-0.0191321
-0.0153548
-0.0120504
-0.00917998
-0.00660578
-0.00448911
-0.00228009
-0.00120358
0.00164522
-0.224391
-0.188459
-0.165299
-0.144635
-0.125036
-0.107492
-0.0920144
-0.0784329
-0.0666084
-0.0563713
-0.0475348
-0.0399175
-0.033351
-0.0276838
-0.0227829
-0.0185321
-0.0148377
-0.0116054
-0.00880068
-0.00627685
-0.00422006
-0.0020087
-0.00105475
0.00209989
-0.218195
-0.185456
-0.163172
-0.142479
-0.123091
-0.105774
-0.0904826
-0.0770723
-0.0654069
-0.0553149
-0.0466098
-0.0391104
-0.0326491
-0.027075
-0.0222564
-0.0180778
-0.0144473
-0.0112703
-0.0085156
-0.00603011
-0.00401812
-0.00180264
-0.000944817
0.00248056
-0.21349
-0.183448
-0.161577
-0.140875
-0.121685
-0.104553
-0.0894074
-0.0761289
-0.0645821
-0.0545954
-0.0459834
-0.0385664
-0.0321775
-0.026667
-0.0219042
-0.0177744
-0.0141868
-0.011047
-0.00832577
-0.00586601
-0.00388368
-0.00166436
-0.000872919
0.00275507
-0.210972
-0.182449
-0.160716
-0.140021
-0.120948
-0.103916
-0.0888518
-0.0756454
-0.0641624
-0.0542312
-0.0456677
-0.0382931
-0.0319412
-0.0264629
-0.0217282
-0.017623
-0.014057
-0.0109358
-0.00823119
-0.00578429
-0.00381666
-0.00159508
-0.000837604
0.00289892
)
;

boundaryField
{
    inlet
    {
        type            zeroGradient;
    }
    outlet
    {
        type            fixedValue;
        value           uniform 0;
    }
    cylinder
    {
        type            zeroGradient;
    }
    top
    {
        type            symmetryPlane;
    }
    bottom
    {
        type            symmetryPlane;
    }
    defaultFaces
    {
        type            empty;
    }
}


// ************************************************************************* //
