/*--------------------------------*- C++ -*----------------------------------*\
  =========                 |
  \\      /  F ield         | OpenFOAM: The Open Source CFD Toolbox
   \\    /   O peration     | Website:  https://openfoam.org
    \\  /    A nd           | Version:  7
     \\/     M anipulation  |
\*---------------------------------------------------------------------------*/
FoamFile
{
    version     2.0;
    format      ascii;
    class       volVectorField;
    location    "25";
    object      U;
}
// * * * * * * * * * * * * * * * * * * * * * * * * * * * * * * * * * * * * * //

dimensions      [0 1 -1 0 0 0 0];

internalField   nonuniform List<vector> 
2304
(
(-0.00428137 0.00310115 -2.87961e-20)
(-0.0139266 0.00470436 -4.60717e-20)
(-0.0250709 0.00406033 1.59629e-20)
(-0.0322786 0.00231376 2.45659e-20)
(-0.0340678 -1.1896e-05 -7.39373e-20)
(-0.0300936 -0.00263373 -3.02644e-20)
(-0.0203188 -0.00536587 -8.75617e-20)
(-0.00502506 -0.0079867 3.15208e-20)
(0.0153472 -0.0100544 3.06834e-20)
(0.0389587 -0.0105494 1.02289e-20)
(-0.00505749 0.00885752 -4.19858e-20)
(-0.0138814 0.0132808 -3.9648e-20)
(-0.0222294 0.0112832 3.09117e-20)
(-0.0256168 0.00613798 8.88899e-20)
(-0.022901 -0.000640464 7.45526e-20)
(-0.0139107 -0.00824292 1.06992e-19)
(0.00125449 -0.0161274 3.21815e-20)
(0.0222003 -0.0236855 -1.98588e-20)
(0.0485767 -0.029672 9.12136e-21)
(0.0791209 -0.0310069 -1.57249e-20)
(-0.00633983 0.0133442 6.23505e-21)
(-0.0132852 0.019475 4.33403e-20)
(-0.0160048 0.0159374 1.20555e-19)
(-0.0117967 0.00766735 -5.47737e-20)
(-0.000176403 -0.00299622 1.17545e-19)
(0.0186936 -0.0147829 9.89911e-20)
(0.0444486 -0.0268825 9.13101e-20)
(0.0764011 -0.0384429 -5.74952e-20)
(0.114255 -0.0476086 -1.40941e-19)
(0.158158 -0.0492047 -4.15217e-20)
(-0.00762858 0.0159253 2.08817e-19)
(-0.0111735 0.0220677 2.87809e-19)
(-0.00534421 0.0167268 -5.76751e-20)
(0.0101484 0.00577888 -2.39096e-19)
(0.0348811 -0.00784763 -4.3352e-19)
(0.0681832 -0.0225248 -1.30947e-19)
(0.109264 -0.037291 -1.87381e-20)
(0.156948 -0.0512368 -3.31436e-19)
(0.21065 -0.0621995 -1.75483e-19)
(0.273061 -0.062725 6.79e-20)
(-0.00825499 0.0162251 -1.95034e-20)
(-0.00621431 0.020367 -1.85821e-19)
(0.0112641 0.0129513 -2.74367e-20)
(0.0416343 -2.89871e-05 -7.64984e-20)
(0.0833756 -0.0153472 -2.08669e-20)
(0.135116 -0.0311773 1.45312e-19)
(0.195429 -0.0464974 -6.04363e-20)
(0.262411 -0.0605394 -1.57386e-19)
(0.334581 -0.0712866 1.19742e-19)
(0.418115 -0.068398 3.5812e-20)
(-0.00743998 0.0141875 2.39589e-19)
(0.00318387 0.0142967 9.45152e-20)
(0.0356444 0.00467432 2.90659e-19)
(0.0843837 -0.00941034 -1.48869e-19)
(0.146579 -0.0247947 -3.48164e-20)
(0.219903 -0.0396291 4.57142e-20)
(0.301977 -0.052947 -2.94398e-19)
(0.389873 -0.0642828 -1.89554e-19)
(0.480634 -0.0722334 1.52262e-19)
(0.583376 -0.0628113 1.16843e-19)
(-0.00439558 0.0100438 -6.96177e-19)
(0.0187131 0.00441507 -4.47328e-20)
(0.0697515 -0.00715338 -3.95339e-19)
(0.140146 -0.021014 -1.71657e-19)
(0.225544 -0.0344541 -3.7205e-19)
(0.322315 -0.0458248 3.95713e-19)
(0.426691 -0.054396 -2.20609e-19)
(0.534335 -0.0600992 7.78157e-21)
(0.640672 -0.0621044 -8.77617e-20)
(0.753835 -0.0437563 4.1345e-19)
(0.00164347 0.00426705 -3.69531e-19)
(0.0419797 -0.00806135 -2.72433e-19)
(0.115349 -0.0206995 -8.33749e-19)
(0.210228 -0.0324992 -4.11914e-20)
(0.320459 -0.0416272 7.44643e-20)
(0.440696 -0.0469719 -2.48862e-19)
(0.565384 -0.0483458 -5.64584e-19)
(0.688631 -0.0461219 -1.20054e-19)
(0.804835 -0.0392478 -1.10838e-19)
(0.913239 -0.0154993 1.28428e-19)
(0.0113704 -0.00245271 2.43615e-19)
(0.0742956 -0.0213553 1.43985e-19)
(0.173597 -0.0333888 1.1273e-19)
(0.294889 -0.0407497 -2.74891e-20)
(0.429856 -0.0430102 -5.52312e-19)
(0.57103 -0.0400781 -9.32483e-19)
(0.710932 -0.0327508 2.30534e-20)
(0.842653 -0.0219933 -1.80005e-19)
(0.961362 -0.00668361 -2.68692e-19)
(1.05378 0.00662646 2.79339e-20)
(0.0253369 -0.00924547 -1.91896e-19)
(0.116449 -0.0332615 -2.13288e-19)
(0.244641 -0.0421496 -6.34913e-20)
(0.392785 -0.0422939 -1.21428e-19)
(0.550071 -0.0352926 -2.02396e-19)
(0.70669 -0.0226381 -2.50675e-19)
(0.853453 -0.00660665 2.50893e-19)
(0.982895 0.0105524 -1.86425e-19)
(1.09057 0.0275526 -2.68743e-19)
(1.17008 0.0334083 1.96656e-19)
(0.0438698 -0.0150945 1.226e-19)
(0.168457 -0.0413123 1.04775e-19)
(0.327271 -0.0437836 -1.04752e-19)
(0.500689 -0.0338991 -1.34418e-19)
(0.67533 -0.0159287 -4.22527e-20)
(0.839404 0.00660088 -2.87425e-19)
(0.983067 0.0298212 -6.05396e-20)
(1.09985 0.0505083 4.08311e-19)
(1.18732 0.0664624 1.82852e-19)
(1.24496 0.0716584 1.88709e-19)
(0.0669803 -0.0188805 9.83562e-20)
(0.229376 -0.043001 -5.85763e-20)
(0.418767 -0.035413 -2.49659e-19)
(0.613595 -0.0132118 1.27068e-19)
(0.798419 0.0161431 4.30518e-19)
(0.960694 0.0469817 2.30759e-19)
(1.09183 0.0742676 -2.46452e-19)
(1.18841 0.094689 9.40844e-20)
(1.25192 0.106699 -2.91884e-19)
(1.28642 0.10848 -1.75013e-19)
(0.0942663 -0.0194512 -2.19274e-19)
(0.297194 -0.0360553 9.11639e-20)
(0.51499 -0.0149223 2.63664e-19)
(0.725262 0.0207684 -2.45477e-19)
(0.911841 0.0602435 2.69595e-19)
(1.06347 0.0961762 1.79671e-19)
(1.1751 0.123388 2.35361e-19)
(1.24803 0.139679 2.48136e-19)
(1.2883 0.145298 -1.20754e-19)
(1.30355 0.141814 1.78326e-20)
(0.124849 -0.0157318 1.88933e-19)
(0.36887 -0.0187378 -3.19415e-19)
(0.610757 0.018682 4.26893e-20)
(0.829079 0.0674936 -2.1885e-19)
(1.00907 0.114169 2.70538e-19)
(1.14321 0.150904 2.49558e-19)
(1.23182 0.173797 1.9227e-20)
(1.28156 0.182849 -7.3373e-20)
(1.30233 0.180618 -9.21849e-20)
(1.3036 0.170966 -5.80874e-20)
(0.157365 -0.00686562 -3.07107e-20)
(0.440535 0.00986606 1.81522e-19)
(0.700429 0.0650632 -4.63922e-20)
(0.919004 0.124977 1.19582e-19)
(1.08549 0.174722 -8.07157e-21)
(1.1982 0.207717 1.36308e-19)
(1.2637 0.222735 -3.85024e-20)
(1.29346 0.222617 -4.96825e-20)
(1.29973 0.212135 1.31583e-19)
(1.29215 0.196384 -4.22935e-20)
(0.190033 0.0076356 -4.99911e-20)
(0.507848 0.0496294 1.02075e-19)
(0.778575 0.122541 -2.08464e-20)
(0.990297 0.190138 4.70872e-20)
(1.13864 0.238308 -3.2966e-20)
(1.22902 0.263525 7.64319e-20)
(1.27397 0.268226 -5.31875e-20)
(1.28833 0.258152 -2.71304e-20)
(1.2851 0.239752 2.68117e-20)
(1.27293 0.218383 -1.67746e-20)
(0.220792 0.0277629 4.72126e-20)
(0.566442 0.0992858 -9.58292e-20)
(0.840583 0.188269 -2.24029e-20)
(1.03991 0.259246 -4.00674e-20)
(1.16811 0.301402 3.08953e-20)
(1.23779 0.315799 -5.90393e-20)
(1.26625 0.308931 3.80576e-20)
(1.27007 0.288998 1.66378e-20)
(1.26169 0.2634 -1.94632e-20)
(1.24814 0.237102 1.1858e-20)
(0.247496 0.0529298 1.00105e-19)
(0.612387 0.156477 6.15936e-20)
(0.883093 0.258538 1.63971e-20)
(1.06655 0.328342 -3.51602e-20)
(1.17499 0.360814 5.60318e-21)
(1.22734 0.362554 -8.5948e-20)
(1.24398 0.343922 2.44109e-20)
(1.24176 0.314848 2.56642e-20)
(1.23162 0.282959 1.18606e-20)
(1.21885 0.252471 -1.20466e-20)
(0.268137 0.0819617 -1.85458e-20)
(0.642598 0.217936 3.08582e-20)
(0.904223 0.329153 -7.12842e-20)
(1.07044 0.393563 1.33037e-19)
(1.16142 0.413783 -3.11219e-20)
(1.20074 0.402234 -4.20545e-21)
(1.2102 0.37249 2.09601e-23)
(1.20578 0.335434 1.11909e-20)
(1.19648 0.298382 -7.51042e-21)
(1.1859 0.264368 5.26767e-21)
(0.281061 0.11316 -4.09761e-20)
(0.655125 0.279773 -3.99853e-20)
(0.903614 0.39579 2.034e-19)
(1.0531 0.45137 2.7062e-19)
(1.13011 0.457993 -1.40068e-19)
(1.16098 0.43357 -3.10809e-20)
(1.16755 0.393997 -2.63662e-20)
(1.16403 0.350358 -2.28652e-21)
(1.15746 0.309401 -6.38456e-21)
(1.15053 0.272488 7.36757e-21)
(0.285169 0.144439 -2.4144e-20)
(0.649352 0.337814 3.4909e-20)
(0.882289 0.454304 9.227e-20)
(1.01701 0.498743 -4.72244e-20)
(1.08407 0.49158 -9.16384e-20)
(1.111 0.455516 3.69761e-21)
(1.11828 0.407811 -5.59061e-20)
(1.118 0.359185 2.27029e-20)
(1.11559 0.315349 -8.57837e-20)
(1.11357 0.276398 -1.06562e-19)
(0.280048 0.17349 -2.44412e-19)
(0.62602 0.387999 -9.10926e-21)
(0.842297 0.50091 9.35685e-20)
(0.96512 0.533141 2.61461e-20)
(1.02662 0.513139 1.36811e-20)
(1.05364 0.467264 -3.80916e-20)
(1.06443 0.413464 8.07261e-21)
(1.06912 0.36147 1.18308e-19)
(1.07191 0.315784 9.68565e-20)
(1.07558 0.27566 1.03023e-19)
(0.265956 0.197903 1.04298e-19)
(0.586857 0.426679 -3.16724e-20)
(0.786687 0.532707 -1.54754e-20)
(0.901065 0.552474 -1.85534e-20)
(0.961117 0.521508 -6.29913e-20)
(0.991466 0.468283 -8.73423e-20)
(1.00796 0.410582 1.24549e-19)
(1.01887 0.35689 -4.44029e-20)
(1.0277 0.310482 -1.72363e-19)
(1.03746 0.270528 -6.01344e-20)
(0.243852 0.215494 -9.01081e-20)
(0.534605 0.450583 -5.82855e-20)
(0.719363 0.54733 -9.02867e-20)
(0.828744 0.555552 -2.51346e-20)
(0.890715 0.516058 -2.48486e-19)
(0.926935 0.458171 -4.95283e-19)
(0.950699 0.39878 1.48047e-20)
(0.968765 0.344949 -1.41845e-19)
(0.984362 0.298846 -2.34379e-19)
(1.00003 0.261481 2.32222e-19)
(0.215387 0.224547 4.60828e-20)
(0.472964 0.457506 -1.37063e-19)
(0.644528 0.543291 -3.43023e-19)
(0.751997 0.541727 -1.84009e-20)
(0.818542 0.496611 2.96437e-20)
(0.862361 0.436855 -2.44718e-19)
(0.89431 0.377913 -1.80482e-19)
(0.920112 0.325297 -1.72366e-19)
(0.942963 0.279302 -8.03671e-20)
(0.961475 0.241239 2.81212e-19)
(0.182657 0.223805 1.0932e-19)
(0.406089 0.44619 -4.67721e-20)
(0.566595 0.520051 4.38316e-19)
(0.674673 0.511036 -1.95959e-19)
(0.747613 0.463472 -4.18015e-20)
(0.799965 0.404715 7.54634e-20)
(0.840441 0.348459 -5.97313e-19)
(0.873985 0.299084 9.33972e-20)
(0.903203 0.256529 -6.64997e-20)
(0.925436 0.221492 -5.86719e-21)
(0.14809 0.212642 7.01334e-19)
(0.338332 0.416376 1.36495e-19)
(0.489968 0.477967 3.27832e-19)
(0.600484 0.464154 -2.01206e-19)
(0.680811 0.41734 -5.69492e-20)
(0.741942 0.362317 4.63586e-19)
(0.790724 0.310786 -4.70579e-20)
(0.831376 0.266089 -2.54595e-19)
(0.866027 0.227887 2.46521e-19)
(0.892646 0.196378 -1.49889e-19)
(0.114247 0.191125 -5.59365e-19)
(0.274 0.368824 -8.40882e-20)
(0.418829 0.418259 2.139e-19)
(0.532862 0.402363 1.25757e-19)
(0.620769 0.359334 -1.97994e-20)
(0.690305 0.310553 -1.74963e-19)
(0.746775 0.265633 2.50558e-19)
(0.793841 0.227047 -4.04628e-19)
(0.833491 0.194309 1.45666e-19)
(0.86472 0.167275 7.36927e-20)
(0.0836226 0.160004 8.69558e-20)
(0.217098 0.305262 1.28067e-19)
(0.356952 0.342933 1.38535e-19)
(0.474843 0.327516 -7.39837e-19)
(0.569783 0.290977 -2.72273e-19)
(0.646769 0.250619 -6.12776e-20)
(0.709882 0.213915 -4.30509e-20)
(0.762409 0.182615 -1.64743e-19)
(0.806399 0.156192 4.77699e-19)
(0.841852 0.134301 1.95373e-19)
(0.0584604 0.120664 2.47733e-19)
(0.171115 0.228278 1.71056e-19)
(0.307555 0.25469 -1.25446e-19)
(0.428982 0.241958 2.23482e-19)
(0.52978 0.21416 -3.42436e-19)
(0.612785 0.184005 8.63983e-21)
(0.681176 0.156821 -2.63764e-20)
(0.738002 0.133761 -6.60089e-20)
(0.785453 0.114356 -7.24929e-20)
(0.824379 0.0982099 3.20992e-21)
(0.0405962 0.0750353 -4.67728e-20)
(0.138837 0.14117 6.92992e-20)
(0.273165 0.156795 6.25772e-20)
(0.397269 0.148445 8.39203e-20)
(0.502256 0.13107 6.72707e-20)
(0.589482 0.112437 -1.76386e-19)
(0.661534 0.0957342 -4.86797e-21)
(0.721325 0.0816129 -2.81502e-20)
(0.771183 0.0697523 -1.23847e-19)
(0.812574 0.059846 -1.03062e-19)
(0.0313282 0.0254601 -1.55565e-20)
(0.122201 0.0477683 1.0712e-19)
(0.255527 0.0529374 1.35451e-19)
(0.381065 0.0500329 1.3797e-19)
(0.488234 0.0441238 7.97803e-20)
(0.577633 0.0378217 -5.80946e-20)
(0.651559 0.0321882 -1.67632e-19)
(0.712864 0.0274331 2.91721e-20)
(0.763954 0.0234426 -1.40361e-20)
(0.806622 0.0201025 3.38012e-20)
(0.0313282 -0.0254601 7.5086e-20)
(0.122201 -0.0477683 1.12445e-19)
(0.255527 -0.0529374 -3.72712e-20)
(0.381065 -0.0500329 -5.42865e-20)
(0.488234 -0.0441238 6.62713e-20)
(0.577633 -0.0378217 6.07309e-20)
(0.651559 -0.0321882 1.67632e-19)
(0.712864 -0.0274331 -5.94815e-20)
(0.763954 -0.0234426 -5.60241e-20)
(0.806622 -0.0201025 7.35735e-21)
(0.0405962 -0.0750353 1.05049e-19)
(0.138837 -0.14117 8.07325e-20)
(0.273165 -0.156795 -6.91914e-20)
(0.397269 -0.148445 -1.55523e-19)
(0.502256 -0.13107 -1.52714e-19)
(0.589482 -0.112437 -2.03794e-19)
(0.661534 -0.0957342 1.37166e-19)
(0.721325 -0.0816129 -5.99304e-20)
(0.771183 -0.0697523 -1.44392e-20)
(0.812574 -0.059846 -1.76661e-20)
(0.0584604 -0.120664 -2.5443e-20)
(0.171115 -0.228278 -1.18585e-19)
(0.307555 -0.25469 -2.37456e-19)
(0.428982 -0.241958 9.82424e-20)
(0.52978 -0.21416 -2.13403e-19)
(0.612785 -0.184005 1.96067e-19)
(0.681176 -0.156821 -1.62908e-19)
(0.738002 -0.133761 -1.03416e-20)
(0.785453 -0.114356 2.47645e-19)
(0.824379 -0.0982099 1.75023e-19)
(0.0836226 -0.160004 -4.27048e-19)
(0.217098 -0.305262 -5.50115e-19)
(0.356952 -0.342933 1.32792e-19)
(0.474843 -0.327516 4.06053e-19)
(0.569783 -0.290977 7.57362e-19)
(0.646769 -0.250619 2.34088e-19)
(0.709882 -0.213915 1.0004e-19)
(0.762409 -0.182615 5.40603e-19)
(0.806399 -0.156192 -9.97193e-20)
(0.841852 -0.134301 -2.81853e-19)
(0.114247 -0.191125 6.4877e-20)
(0.274 -0.368824 1.20903e-19)
(0.418829 -0.418259 -4.42617e-19)
(0.532862 -0.402363 1.37549e-19)
(0.620769 -0.359334 2.99147e-20)
(0.690305 -0.310553 -5.11594e-19)
(0.746775 -0.265633 -3.81227e-19)
(0.793841 -0.227047 2.23504e-19)
(0.833491 -0.194309 -5.5103e-19)
(0.86472 -0.167275 -5.74753e-20)
(0.14809 -0.212642 -2.06852e-19)
(0.338332 -0.416376 -1.73308e-19)
(0.489968 -0.477967 -9.91322e-20)
(0.600484 -0.464154 -6.20756e-20)
(0.680811 -0.41734 5.69492e-20)
(0.741942 -0.362317 5.83629e-19)
(0.790724 -0.310786 1.77714e-19)
(0.831376 -0.266089 2.54595e-19)
(0.866027 -0.227887 -2.1911e-19)
(0.892646 -0.196378 -4.45538e-20)
(0.182657 -0.223805 8.23429e-20)
(0.406089 -0.44619 2.2322e-19)
(0.566595 -0.520051 -5.32083e-20)
(0.674673 -0.511036 1.11113e-19)
(0.747613 -0.463472 1.67393e-19)
(0.799965 -0.404715 -7.54635e-20)
(0.840441 -0.348459 -2.29101e-19)
(0.873985 -0.299084 -1.42631e-20)
(0.903203 -0.256529 1.29934e-19)
(0.925436 -0.221492 3.67353e-20)
(0.215387 -0.224547 -3.47239e-20)
(0.472964 -0.457506 -3.9375e-20)
(0.644528 -0.543291 9.0486e-20)
(0.751997 -0.541727 -2.03814e-19)
(0.818542 -0.496611 -1.55218e-19)
(0.862361 -0.436855 2.18902e-19)
(0.89431 -0.377913 5.13283e-19)
(0.920112 -0.325297 -1.06716e-19)
(0.942963 -0.279302 8.03671e-20)
(0.961475 -0.241239 -1.17817e-19)
(0.243852 -0.215494 -1.12907e-19)
(0.534605 -0.450583 3.63518e-20)
(0.719363 -0.54733 -4.22329e-20)
(0.828744 -0.555552 9.30595e-20)
(0.890715 -0.516058 2.48486e-19)
(0.926935 -0.458171 5.21095e-19)
(0.950699 -0.39878 -1.48047e-20)
(0.968765 -0.344949 1.08474e-20)
(0.984362 -0.298846 8.13113e-20)
(1.00003 -0.261481 -4.53471e-20)
(0.265956 -0.197903 4.08953e-20)
(0.586857 -0.426679 5.36048e-20)
(0.786687 -0.532707 -1.61097e-20)
(0.901065 -0.552474 1.85534e-20)
(0.961117 -0.521508 6.29914e-20)
(0.991466 -0.468283 4.98213e-20)
(1.00796 -0.410582 -1.24549e-19)
(1.01887 -0.35689 4.4403e-20)
(1.0277 -0.310482 1.30268e-19)
(1.03746 -0.270528 -1.26708e-19)
(0.280048 -0.17349 9.92208e-20)
(0.62602 -0.387999 -5.9926e-21)
(0.842297 -0.50091 -6.19869e-20)
(0.96512 -0.533141 -2.61461e-20)
(1.02662 -0.513139 -1.36811e-20)
(1.05364 -0.467264 3.80916e-20)
(1.06443 -0.413464 -8.07261e-21)
(1.06912 -0.36147 -1.18308e-19)
(1.07191 -0.315784 -9.68565e-20)
(1.07558 -0.27566 -1.03023e-19)
(0.285169 -0.144439 2.4144e-20)
(0.649352 -0.337814 -6.00805e-20)
(0.882289 -0.454304 -2.35005e-19)
(1.01701 -0.498743 3.53021e-20)
(1.08407 -0.49158 9.16384e-20)
(1.111 -0.455516 -3.69761e-21)
(1.11828 -0.407811 5.59061e-20)
(1.118 -0.359185 -2.27029e-20)
(1.11559 -0.315349 8.57837e-20)
(1.11357 -0.276398 1.06562e-19)
(0.281061 -0.11316 -1.50088e-19)
(0.655125 -0.279773 -4.79145e-20)
(0.903614 -0.39579 -2.034e-19)
(1.0531 -0.45137 -1.24321e-19)
(1.13011 -0.457993 -6.93044e-20)
(1.16098 -0.43357 3.10809e-20)
(1.16755 -0.393997 2.63662e-20)
(1.16403 -0.350358 2.28651e-21)
(1.15746 -0.309401 6.38457e-21)
(1.15053 -0.272488 -7.36757e-21)
(0.268137 -0.0819617 1.39297e-19)
(0.642598 -0.217936 -2.47517e-19)
(0.904223 -0.329153 2.18778e-20)
(1.07044 -0.393563 -1.38744e-19)
(1.16142 -0.413783 3.11219e-20)
(1.20074 -0.402234 4.20545e-21)
(1.2102 -0.37249 -2.0961e-23)
(1.20578 -0.335434 -1.11909e-20)
(1.19648 -0.298382 7.51043e-21)
(1.1859 -0.264368 -5.26767e-21)
(0.247496 -0.0529298 -2.97946e-20)
(0.612387 -0.156477 1.55057e-19)
(0.883093 -0.258538 -4.15721e-20)
(1.06655 -0.328342 1.04187e-19)
(1.17499 -0.360814 -5.60318e-21)
(1.22734 -0.362554 8.5948e-20)
(1.24398 -0.343922 -2.44109e-20)
(1.24176 -0.314848 -2.56642e-20)
(1.23162 -0.282959 7.04192e-21)
(1.21885 -0.252471 -4.01e-21)
(0.220792 -0.0277629 -4.72126e-20)
(0.566442 -0.0992858 9.58292e-20)
(0.840583 -0.188269 2.24029e-20)
(1.03991 -0.259246 4.00674e-20)
(1.16811 -0.301402 -3.08953e-20)
(1.23779 -0.315799 5.90393e-20)
(1.26625 -0.308931 -3.80576e-20)
(1.27007 -0.288998 -1.66378e-20)
(1.26169 -0.2634 1.94632e-20)
(1.24814 -0.237102 -1.1858e-20)
(0.190033 -0.0076356 4.99911e-20)
(0.507848 -0.0496294 -1.02075e-19)
(0.778575 -0.122541 2.08464e-20)
(0.990297 -0.190138 -4.70872e-20)
(1.13864 -0.238308 3.2966e-20)
(1.22902 -0.263525 -7.64319e-20)
(1.27397 -0.268226 5.31875e-20)
(1.28833 -0.258152 2.71304e-20)
(1.2851 -0.239752 -2.68117e-20)
(1.27293 -0.218383 5.74152e-22)
(0.157365 0.00686562 1.14936e-19)
(0.440535 -0.00986606 7.96309e-20)
(0.700429 -0.0650632 1.839e-20)
(0.919004 -0.124977 -4.28026e-20)
(1.08549 -0.174722 8.07157e-21)
(1.1982 -0.207717 -1.36308e-19)
(1.2637 -0.222735 3.85024e-20)
(1.29346 -0.222617 4.96825e-20)
(1.29973 -0.212135 -8.26864e-20)
(1.29215 -0.196384 7.94913e-22)
(0.124849 0.0157318 -1.18651e-20)
(0.36887 0.0187378 5.82606e-20)
(0.610757 -0.018682 -1.05128e-19)
(0.829079 -0.0674936 2.1885e-19)
(1.00907 -0.114169 -2.70538e-19)
(1.14321 -0.150904 -2.64794e-20)
(1.23182 -0.173797 -1.9227e-20)
(1.28156 -0.182849 7.3373e-20)
(1.30233 -0.180618 9.21849e-20)
(1.3036 -0.170966 5.80874e-20)
(0.0942663 0.0194512 -4.20204e-20)
(0.297194 0.0360553 -9.11639e-20)
(0.51499 0.0149223 5.93406e-20)
(0.725262 -0.0207684 2.74292e-19)
(0.911841 -0.0602435 -2.69595e-19)
(1.06347 -0.0961762 -4.02736e-19)
(1.1751 -0.123388 -2.35361e-19)
(1.24803 -0.139679 -2.48136e-19)
(1.2883 -0.145298 1.20754e-19)
(1.30355 -0.141814 -1.78326e-20)
(0.0669803 0.0188805 -9.83562e-20)
(0.229376 0.043001 9.46069e-20)
(0.418767 0.035413 -7.33576e-20)
(0.613595 0.0132118 -1.55885e-19)
(0.798419 -0.0161431 -4.30518e-19)
(0.960694 -0.0469817 -2.30759e-19)
(1.09183 -0.0742676 2.46452e-19)
(1.18841 -0.094689 -9.40844e-20)
(1.25192 -0.106699 2.91884e-19)
(1.28642 -0.10848 1.75013e-19)
(0.0438698 0.0150945 -7.66731e-19)
(0.168457 0.0413123 -1.40806e-19)
(0.327271 0.0437836 3.62488e-19)
(0.500689 0.0338991 1.34418e-19)
(0.67533 0.0159287 4.22527e-20)
(0.839404 -0.00660088 2.87425e-19)
(0.983067 -0.0298212 6.05396e-20)
(1.09985 -0.0505083 -4.08311e-19)
(1.18732 -0.0664624 -1.82852e-19)
(1.24496 -0.0716584 -1.88709e-19)
(0.0253369 0.00924547 8.36032e-19)
(0.116449 0.0332615 -3.31235e-19)
(0.244641 0.0421496 1.88905e-19)
(0.392785 0.0422939 5.00396e-20)
(0.550071 0.0352926 2.02396e-19)
(0.70669 0.0226381 2.50675e-19)
(0.853453 0.00660665 -2.50893e-19)
(0.982895 -0.0105524 1.86425e-19)
(1.09057 -0.0275526 2.68743e-19)
(1.17008 -0.0334083 4.69091e-20)
(0.0113704 0.00245271 3.74402e-19)
(0.0742956 0.0213553 7.80206e-20)
(0.173597 0.0333888 1.16092e-19)
(0.294889 0.0407497 2.74891e-20)
(0.429856 0.0430102 5.52312e-19)
(0.57103 0.0400781 9.32483e-19)
(0.710932 0.0327508 -2.30534e-20)
(0.842653 0.0219933 1.80005e-19)
(0.961362 0.00668361 2.68692e-19)
(1.05378 -0.00662646 -2.71584e-19)
(0.00164347 -0.00426705 -2.48491e-19)
(0.0419797 0.00806135 1.01145e-20)
(0.115349 0.0206995 5.10418e-19)
(0.210228 0.0324992 4.11914e-20)
(0.320459 0.0416272 -7.44643e-20)
(0.440696 0.0469719 2.48862e-19)
(0.565384 0.0483458 2.2565e-19)
(0.688631 0.0461219 1.96861e-19)
(0.804835 0.0392478 1.10838e-19)
(0.913239 0.0154993 -2.61241e-19)
(-0.00439558 -0.0100438 1.86381e-19)
(0.0187131 -0.00441507 2.76549e-19)
(0.0697515 0.00715338 1.73994e-20)
(0.140146 0.021014 1.10593e-19)
(0.225544 0.0344541 1.90515e-19)
(0.322315 0.0458248 -8.56867e-20)
(0.426691 0.054396 5.59603e-19)
(0.534335 0.0600992 -8.46027e-20)
(0.640672 0.0621044 9.97951e-20)
(0.753835 0.0437563 -2.80619e-19)
(-0.00743998 -0.0141875 -7.42328e-20)
(0.00318387 -0.0142967 -3.26337e-19)
(0.0356444 -0.00467432 8.73032e-20)
(0.0843837 0.00941034 2.09938e-19)
(0.146579 0.0247947 2.16376e-19)
(0.219903 0.0396291 -3.55789e-19)
(0.301977 0.052947 4.71703e-20)
(0.389873 0.0642828 1.89554e-19)
(0.480634 0.0722334 -3.13179e-19)
(0.583376 0.0628113 -4.13427e-19)
(-0.00825499 -0.0162251 3.6395e-19)
(-0.00621431 -0.020367 7.98603e-20)
(0.0112641 -0.0129513 -2.89118e-19)
(0.0416343 2.89873e-05 9.93521e-20)
(0.0833756 0.0153472 1.45692e-20)
(0.135116 0.0311773 -3.53328e-19)
(0.195429 0.0464974 -4.13593e-21)
(0.262411 0.0605394 1.06407e-19)
(0.334581 0.0712866 -1.00526e-19)
(0.418115 0.068398 2.51108e-19)
(-0.00762858 -0.0159253 -5.2837e-20)
(-0.0111735 -0.0220677 3.2623e-20)
(-0.00534421 -0.0167268 2.31314e-19)
(0.0101484 -0.00577888 3.96511e-19)
(0.0348811 0.00784763 1.64968e-19)
(0.0681832 0.0225248 2.40519e-19)
(0.109264 0.037291 3.3063e-19)
(0.156948 0.0512368 9.97533e-20)
(0.21065 0.0621995 1.44585e-19)
(0.273061 0.062725 -1.73391e-20)
(-0.00633983 -0.0133442 -1.14548e-19)
(-0.0132852 -0.019475 -9.02146e-20)
(-0.0160048 -0.0159374 6.59348e-20)
(-0.0117967 -0.00766735 -1.1955e-19)
(-0.000176403 0.00299622 1.88352e-19)
(0.0186936 0.0147829 -5.09315e-22)
(0.0444486 0.0268825 -1.9112e-20)
(0.0764011 0.0384429 1.06674e-19)
(0.114255 0.0476086 7.28372e-20)
(0.158158 0.0492047 7.82527e-22)
(-0.00505749 -0.00885752 1.66694e-20)
(-0.0138814 -0.0132808 -3.48776e-20)
(-0.0222294 -0.0112832 -3.05044e-20)
(-0.0256168 -0.00613798 -3.44139e-20)
(-0.022901 0.000640465 1.71539e-20)
(-0.0139107 0.00824292 -1.05654e-19)
(0.00125449 0.0161274 3.29543e-22)
(0.0222003 0.0236855 6.96159e-20)
(0.0485767 0.029672 6.96422e-20)
(0.0791209 0.0310069 2.27817e-20)
(-0.00428137 -0.00310115 6.44497e-21)
(-0.0139266 -0.00470436 -4.7004e-20)
(-0.0250709 -0.00406033 -5.99257e-20)
(-0.0322786 -0.00231376 -6.36781e-20)
(-0.0340678 1.18964e-05 2.69238e-21)
(-0.0300936 0.00263373 2.89268e-20)
(-0.0203188 0.00536587 -1.71586e-20)
(-0.00502506 0.00798671 -1.51811e-20)
(0.0153472 0.0100544 7.77825e-21)
(0.0389587 0.0105494 -3.27744e-20)
(0.0635512 -0.00657605 -2.00277e-21)
(0.0823278 -0.00757021 -6.24461e-21)
(0.112105 -0.0081306 -1.74315e-21)
(0.141626 -0.00837375 -3.41942e-21)
(0.171984 -0.00854527 -3.87025e-21)
(0.203093 -0.00857268 -4.63874e-21)
(0.234212 -0.00844856 1.65293e-21)
(0.264822 -0.00820881 2.83341e-21)
(0.294563 -0.00788817 6.32557e-22)
(0.323179 -0.00751607 -3.4528e-22)
(0.350509 -0.00711658 -1.87295e-21)
(0.376469 -0.0067078 2.91498e-22)
(0.401034 -0.00630257 6.00272e-22)
(0.424217 -0.00590942 -3.05659e-22)
(0.446059 -0.005534 -5.97859e-22)
(0.466622 -0.00517916 -4.30869e-22)
(0.485957 -0.00484744 -9.20978e-23)
(0.50419 -0.00453718 -9.77194e-23)
(0.521259 -0.00425327 -7.55901e-23)
(0.537599 -0.00398174 -1.76616e-23)
(0.552349 -0.00375282 3.39545e-24)
(0.567955 -0.00348416 -2.12592e-23)
(0.57847 -0.00336034 -1.43555e-24)
(0.598982 -0.00294565 8.44839e-24)
(0.106045 -0.0194279 -1.71174e-20)
(0.121264 -0.0222385 2.0096e-20)
(0.149687 -0.0239564 3.02527e-20)
(0.177946 -0.0247156 5.5211e-21)
(0.20683 -0.0252222 5.48396e-21)
(0.236391 -0.0252929 4.93216e-21)
(0.265894 -0.024915 4.91468e-21)
(0.294843 -0.0241978 8.62582e-21)
(0.322919 -0.0232453 4.6397e-21)
(0.3499 -0.0221444 -2.96568e-21)
(0.37565 -0.0209654 1.26069e-21)
(0.400101 -0.019761 2.71278e-21)
(0.423238 -0.0185683 -7.82967e-22)
(0.445078 -0.017412 -2.04446e-21)
(0.46566 -0.0163083 -2.12537e-21)
(0.485046 -0.0152653 -4.74378e-22)
(0.503285 -0.0142907 1.09335e-21)
(0.520496 -0.013379 3.23105e-22)
(0.536616 -0.0125455 2.18242e-22)
(0.552071 -0.0117472 1.56442e-22)
(0.566006 -0.0110768 1.92114e-23)
(0.580824 -0.0102865 -1.78404e-23)
(0.59073 -0.00992558 -6.80502e-24)
(0.610298 -0.00871972 -1.13297e-23)
(0.188264 -0.031194 -5.53094e-20)
(0.196996 -0.0354951 2.57022e-20)
(0.222419 -0.0384578 5.86885e-20)
(0.248113 -0.0398237 4.02329e-20)
(0.274044 -0.0406531 9.92976e-22)
(0.3005 -0.0407405 -7.3848e-21)
(0.326793 -0.0401002 3.66263e-21)
(0.352477 -0.0389195 1.35843e-21)
(0.37731 -0.0373695 -5.87451e-21)
(0.401131 -0.03559 -2.08781e-21)
(0.423844 -0.0336923 -7.638e-22)
(0.44541 -0.0317586 -1.75391e-21)
(0.465823 -0.029847 3.73788e-21)
(0.485107 -0.0279954 1.4392e-21)
(0.503299 -0.0262294 1.17988e-21)
(0.520456 -0.0245612 1.03923e-21)
(0.536618 -0.0230031 3.45712e-22)
(0.551897 -0.021545 2.98218e-22)
(0.56622 -0.0202145 3.29285e-22)
(0.579999 -0.0189366 5.16783e-22)
(0.592398 -0.0178719 2.30616e-22)
(0.60572 -0.0166056 2.64562e-23)
(0.614485 -0.0160372 -2.26053e-23)
(0.632251 -0.0141486 1.87159e-23)
(0.304818 -0.0406161 9.08236e-20)
(0.305251 -0.0464152 1.66802e-20)
(0.325703 -0.0507269 -5.38676e-20)
(0.347411 -0.0528365 -4.18357e-20)
(0.368888 -0.0540007 -6.8614e-21)
(0.390675 -0.0540852 -3.74766e-20)
(0.412219 -0.0531933 -3.27454e-20)
(0.43316 -0.0515955 -3.33974e-20)
(0.453351 -0.0495227 -1.87074e-20)
(0.472703 -0.0471591 -1.40924e-20)
(0.491164 -0.0446487 -1.28301e-20)
(0.508716 -0.0420971 -3.27478e-21)
(0.525363 -0.0395782 4.46332e-22)
(0.541127 -0.0371404 1.64197e-22)
(0.556039 -0.0348167 -9.58806e-22)
(0.570142 -0.0326216 -2.52776e-21)
(0.583465 -0.0305729 -2.37637e-21)
(0.596103 -0.028654 -1.07336e-21)
(0.607975 -0.0269078 -2.40837e-22)
(0.619466 -0.0252237 3.5848e-22)
(0.629775 -0.0238361 5.16769e-23)
(0.641042 -0.0221661 -1.90887e-23)
(0.648273 -0.0214341 -6.67975e-23)
(0.663547 -0.0190243 2.89077e-23)
(0.447864 -0.0459548 4.82409e-21)
(0.439691 -0.0541148 1.2522e-19)
(0.453174 -0.0598707 2.98676e-20)
(0.469263 -0.0628471 3.59291e-21)
(0.48474 -0.0644048 -8.04643e-21)
(0.500321 -0.0645139 -1.38333e-20)
(0.515699 -0.0634381 -9.30357e-22)
(0.530631 -0.0615327 1.68581e-20)
(0.545064 -0.059074 -2.41798e-21)
(0.558961 -0.0562787 -2.10224e-20)
(0.572296 -0.0533141 -1.70745e-20)
(0.585057 -0.0503023 2.35065e-22)
(0.597243 -0.047329 9.0551e-21)
(0.608859 -0.0444504 3.27161e-21)
(0.61992 -0.0417055 7.4064e-22)
(0.63045 -0.0391107 7.83049e-22)
(0.640457 -0.0366898 -9.279e-22)
(0.650014 -0.0344188 5.97001e-22)
(0.659033 -0.0323591 1.97629e-21)
(0.667854 -0.0303615 2.81418e-22)
(0.675741 -0.0287386 1.55085e-22)
(0.684595 -0.0267577 -1.20081e-22)
(0.690074 -0.0259131 2.34943e-23)
(0.702393 -0.0231725 -5.51259e-23)
(0.607435 -0.0453753 -3.01762e-20)
(0.592217 -0.057619 -8.709e-20)
(0.597125 -0.0649211 -9.76881e-20)
(0.605665 -0.0688891 -4.48615e-20)
(0.61352 -0.0709884 8.39567e-21)
(0.621485 -0.0712695 -1.67244e-20)
(0.629532 -0.0701958 3.4083e-21)
(0.637541 -0.0681977 1.84761e-20)
(0.6455 -0.065579 -2.3146e-21)
(0.653384 -0.062576 -6.38571e-21)
(0.661151 -0.059372 5.42046e-21)
(0.668765 -0.0561013 1.22067e-21)
(0.676195 -0.0528601 -9.29492e-21)
(0.683419 -0.0497118 -4.2399e-21)
(0.69042 -0.0467024 2.80128e-21)
(0.697193 -0.0438509 2.55079e-21)
(0.703725 -0.0411885 -6.1794e-22)
(0.710057 -0.0386846 -9.50177e-22)
(0.716098 -0.0364214 1.03762e-22)
(0.722123 -0.0342118 1.27516e-21)
(0.7275 -0.0324448 1.96841e-22)
(0.733803 -0.0302559 -1.4461e-22)
(0.737506 -0.0293499 -8.70669e-23)
(0.746667 -0.0264675 -5.75246e-24)
(0.772894 -0.0384966 -2.49144e-20)
(0.753835 -0.0568127 -1.19601e-19)
(0.748753 -0.0656557 -1.09554e-19)
(0.747472 -0.0707102 -1.76896e-20)
(0.746125 -0.0735338 1.26482e-19)
(0.745423 -0.0742475 5.2879e-20)
(0.745467 -0.0734689 1.41137e-20)
(0.746173 -0.0716666 9.43465e-21)
(0.747484 -0.0691564 -2.65165e-20)
(0.749311 -0.0661882 1.38942e-20)
(0.751552 -0.0629599 -2.65982e-21)
(0.754111 -0.0596209 -1.57735e-20)
(0.756909 -0.0562809 1.94086e-21)
(0.759878 -0.0530142 7.4363e-21)
(0.762965 -0.0498766 4.27352e-22)
(0.766127 -0.046892 9.41487e-22)
(0.76933 -0.0441011 -4.97576e-22)
(0.772575 -0.0414681 1.47776e-21)
(0.775777 -0.0390968 1.98773e-21)
(0.779123 -0.0367672 8.71133e-22)
(0.782131 -0.0349336 3.13367e-23)
(0.78596 -0.0326359 1.38517e-23)
(0.788039 -0.031708 6.33537e-23)
(0.794098 -0.0288447 4.12377e-24)
(0.937517 -0.0282493 3.10965e-20)
(0.915686 -0.0508824 7.22514e-20)
(0.898231 -0.0607579 -4.07034e-20)
(0.884736 -0.0672364 -8.05252e-20)
(0.873093 -0.071326 2.87031e-20)
(0.863435 -0.0730768 -1.75678e-21)
(0.855595 -0.0731141 -1.35828e-20)
(0.84934 -0.0719233 2.47421e-20)
(0.844459 -0.0698532 -6.3156e-21)
(0.840736 -0.0671873 -9.54659e-21)
(0.837968 -0.0641551 -6.23574e-21)
(0.835982 -0.0609336 -1.24188e-20)
(0.834638 -0.0576555 -3.38402e-21)
(0.833819 -0.0544126 4.65868e-21)
(0.833435 -0.0512749 -3.39224e-21)
(0.833405 -0.0482742 -6.23655e-21)
(0.833673 -0.0454624 1.73219e-22)
(0.834198 -0.0428018 4.80103e-22)
(0.834916 -0.0404133 -8.1121e-23)
(0.835902 -0.0380585 -2.48131e-22)
(0.836868 -0.0362257 1.9765e-22)
(0.838485 -0.0339308 3.20128e-22)
(0.839231 -0.0329974 -4.57474e-25)
(0.842463 -0.0303012 -1.50589e-23)
(1.15727 0.00422883 0)
(1.11338 -0.020773 0)
(1.07654 -0.0359286 0)
(1.0476 -0.0474176 0)
(1.02466 -0.0553366 0)
(1.0059 -0.0601557 -2.93892e-28)
(0.990274 -0.0626831 -2.93893e-28)
(0.97718 -0.063539 0)
(0.96619 -0.0631578 0)
(0.956934 -0.0618751 0)
(0.949102 -0.0599661 0)
(0.942444 -0.0576514 0)
(0.936766 -0.055104 0)
(0.931905 -0.0524488 0)
(0.927743 -0.0497867 0)
(0.92416 -0.047172 0)
(0.921095 -0.0446801 0)
(0.918451 -0.042285 0)
(0.916221 -0.040125 0)
(0.91431 -0.0379765 0)
(0.912755 -0.036306 0)
(0.911483 -0.0342506 0)
(0.910526 -0.0333475 0)
(0.90992 -0.0311279 0)
(1.25643 0.0361632 0)
(1.23275 0.00991967 0)
(1.20515 -0.0101656 0)
(1.17976 -0.025375 0)
(1.15751 -0.0363456 0)
(1.13762 -0.0437842 0)
(1.11967 -0.0484998 0)
(1.10359 -0.0511808 0)
(1.08929 -0.0523429 0)
(1.07661 -0.0523792 0)
(1.06534 -0.0516043 0)
(1.0553 -0.0502674 0)
(1.04633 -0.0485656 0)
(1.03827 -0.0466431 0)
(1.03104 -0.0446193 0)
(1.02449 -0.0425633 0)
(1.01858 -0.0405632 0)
(1.01317 -0.0386112 0)
(1.00834 -0.0368365 0)
(1.00378 -0.0350786 0)
(0.999954 -0.0336852 0)
(0.995904 -0.0320893 0)
(0.993398 -0.0312687 0)
(0.988918 -0.0297803 0)
(1.28324 0.0488775 0)
(1.2736 0.0246591 0)
(1.25733 0.00549869 0)
(1.24063 -0.00929987 0)
(1.22466 -0.0205319 0)
(1.20916 -0.0287863 8.10315e-28)
(1.19416 -0.034581 8.10315e-28)
(1.1799 -0.0384071 0)
(1.1666 -0.0406919 0)
(1.1543 -0.0417883 0)