/*--------------------------------*- C++ -*----------------------------------*\
  =========                 |
  \\      /  F ield         | OpenFOAM: The Open Source CFD Toolbox
   \\    /   O peration     | Website:  https://openfoam.org
    \\  /    A nd           | Version:  7
     \\/     M anipulation  |
\*---------------------------------------------------------------------------*/
FoamFile
{
    version     2.0;
    format      ascii;
    class       volScalarField;
    location    "50";
    object      p;
}
// * * * * * * * * * * * * * * * * * * * * * * * * * * * * * * * * * * * * * //

dimensions      [0 2 -2 0 0 0 0];

internalField   nonuniform List<scalar> 
183
(
-0.287635
-0.287047
-0.286867
-0.286894
-0.285993
-0.285461
-0.286183
-0.284924
-0.284002
-0.285535
-0.283875
-0.282523
-0.284985
-0.282875
-0.281044
-0.284564
-0.281955
-0.279575
-0.284304
-0.281146
-0.278106
-0.280472
-0.276569
-0.279978
-0.27479
-0.279767
-0.272845
-0.271676
-0.270327
-0.28569
-0.287722
-0.289886
-0.289305
-0.290514
-0.290437
-0.290967
-0.291075
-0.291045
-0.29125
-0.291236
-0.290909
-0.291114
-0.291546
-0.290639
-0.29084
-0.291516
-0.290232
-0.290387
-0.291084
-0.289701
-0.289755
-0.290343
-0.289072
-0.288966
-0.289358
-0.288372
-0.288051
-0.288182
-0.294868
-0.291837
-0.288993
-0.286393
-0.284079
-0.252485
-0.282081
-0.246308
-0.280416
-0.24072
-0.279095
-0.235772
-0.278122
-0.231475
-0.277458
-0.227798
-0.276955
-0.224872
-0.276711
-0.222557
-0.276642
-0.220835
-0.276628
-0.219646
-0.276512
-0.218912
-0.276113
-0.218546
-0.275291
-0.218458
-0.27392
-0.218542
-0.271276
-0.218628
-0.269337
-0.218938
-0.265001
-0.218768
-0.209587
-0.17784
-0.158084
-0.138411
-0.120914
-0.105388
-0.09149
-0.0791184
-0.0681949
-0.0586172
-0.0502733
-0.0430388
-0.0368264
-0.0315282
-0.0270689
-0.0233706
-0.0203712
-0.0180302
-0.0162989
-0.0151671
-0.0145988
-0.0294525
-0.0245146
-0.020527
-0.0173348
-0.0148879
-0.013103
-0.0119382
-0.0113583
-0.295802
-0.251162
-0.213368
-0.180641
-0.152732
-0.129204
-0.109153
-0.092226
-0.0778896
-0.0657328
-0.0554801
-0.0468318
-0.0395573
-0.0334979
-0.0284683
-0.0243764
-0.0210953
-0.0185661
-0.0167163
-0.0155066
-0.0149057
-0.295393
-0.311315
-0.301006
-0.318119
-0.305424
-0.323802
-0.308964
-0.328739
-0.311784
-0.332892
-0.313916
-0.336388
-0.315472
-0.339176
-0.316572
-0.341137
-0.317307
-0.34222
-0.317721
-0.3424
-0.317814
-0.341651
-0.317556
-0.339956
-0.316913
-0.337313
-0.315867
-0.333733
-0.314408
-0.32925
-0.312459
-0.323958
-0.310057
-0.307323
-0.304341
-0.301207
-0.298019
)
;

boundaryField
{
    inlet
    {
        type            zeroGradient;
    }
    outlet
    {
        type            fixedValue;
        value           nonuniform 0();
    }
    cylinder
    {
        type            zeroGradient;
    }
    top
    {
        type            symmetryPlane;
    }
    bottom
    {
        type            symmetryPlane;
    }
    defaultFaces
    {
        type            empty;
    }
    procBoundary32to30
    {
        type            processor;
        value           nonuniform List<scalar> 
12
(
-0.254886
-0.25343
-0.264372
-0.265413
-0.0235085
-0.0193007
-0.0159618
-0.0132275
-0.0111723
-0.00965282
-0.00865814
-0.00814767
)
;
    }
    procBoundary32to31
    {
        type            processor;
        value           nonuniform List<scalar> 
81
(
-0.288081
-0.287597
-0.287179
-0.286861
-0.286674
-0.28665
-0.286816
-0.284226
-0.284226
-0.28435
-0.284698
-0.279383
-0.279383
-0.279173
-0.268691
-0.268691
-0.2668
-0.264717
-0.262568
-0.260532
-0.258709
-0.256923
-0.267313
-0.269268
-0.271559
-0.274307
-0.277341
-0.280392
-0.283224
-0.283224
-0.288113
-0.289081
-0.289081
-0.290524
-0.290836
-0.291007
-0.291007
-0.29091
-0.290721
-0.290438
-0.290066
-0.28962
-0.289123
-0.2886
-0.250828
-0.250828
-0.213946
-0.18206
-0.153972
-0.129509
-0.108886
-0.0915153
-0.076897
-0.0645748
-0.0541827
-0.0454141
-0.0379865
-0.0317294
-0.0264578
-0.0220714
-0.0184612
-0.0155471
-0.0132835
-0.011608
-0.0105265
-0.00997223
-0.280636
-0.280636
-0.246916
-0.212485
-0.180217
-0.151565
-0.12714
-0.106337
-0.0888165
-0.0740956
-0.0617074
-0.0513434
-0.0426693
-0.0354309
-0.0354309
)
;
    }
    procBoundary32to33
    {
        type            processor;
        value           nonuniform List<scalar> 
86
(
-0.281387
-0.273742
-0.2663
-0.259179
-0.259179
-0.223214
-0.210391
-0.198353
-0.187243
-0.177211
-0.168394
-0.160707
-0.154262
-0.149021
-0.144961
-0.142048
-0.140232
-0.139456
-0.139625
-0.140611
-0.142775
-0.145269
-0.139301
-0.130694
-0.123761
-0.113706
-0.103405
-0.0930047
-0.0828907
-0.0734007
-0.0646414
-0.0566696
-0.0495087
-0.0431505
-0.0375886
-0.0327753
-0.028676
-0.0252431
-0.0224392
-0.0202417
-0.0186098
-0.0175414
-0.0169996
-0.305156
-0.244962
-0.202269
-0.167453
-0.139959
-0.117713
-0.0994731
-0.0843657
-0.0717344
-0.0610929
-0.0521102
-0.0445249
-0.0381278
-0.0327793
-0.0282991
-0.0246359
-0.021679
-0.0193949
-0.0177137
-0.0166103
-0.01606
-0.331824
-0.341153
-0.348899
-0.355857
-0.362044
-0.36724
-0.37132
-0.3742
-0.375809
-0.376089
-0.374997
-0.372512
-0.368636
-0.363367
-0.356713
-0.348708
-0.317964
-0.317964
-0.311344
-0.30423
-0.29677
-0.289108
)
;
    }
}


// ************************************************************************* //
