/*--------------------------------*- C++ -*----------------------------------*\
  =========                 |
  \\      /  F ield         | OpenFOAM: The Open Source CFD Toolbox
   \\    /   O peration     | Website:  https://openfoam.org
    \\  /    A nd           | Version:  7
     \\/     M anipulation  |
\*---------------------------------------------------------------------------*/
FoamFile
{
    version     2.0;
    format      ascii;
    class       volVectorField;
    location    "15";
    object      U;
}
// * * * * * * * * * * * * * * * * * * * * * * * * * * * * * * * * * * * * * //

dimensions      [0 1 -1 0 0 0 0];

internalField   nonuniform List<vector> 
36
(
(1.0278 0.310392 -1.64785e-19)
(1.03755 0.270429 -5.83658e-20)
(0.96888 0.344888 -1.37142e-19)
(0.894426 0.377881 -1.75309e-19)
(0.800075 0.404708 7.33825e-20)
(0.840543 0.348436 -5.84244e-19)
(0.742038 0.362314 4.55514e-19)
(0.620855 0.359349 -1.94858e-20)
(0.69039 0.310554 -1.71782e-19)
(0.569858 0.290991 -2.68646e-19)
(0.529846 0.21417 -3.38144e-19)
(0.502316 0.131077 6.6483e-20)
(0.488291 0.0441261 7.89181e-20)
(0.488291 -0.0441261 6.54882e-20)
(0.502316 -0.131077 -1.5099e-19)
(0.529846 -0.21417 -2.10795e-19)
(0.569858 -0.290991 7.47684e-19)
(0.620855 -0.359349 2.9462e-20)
(0.69039 -0.310554 -5.03481e-19)
(0.742038 -0.362314 5.73482e-19)
(0.840543 -0.348436 -2.2369e-19)
(0.894426 -0.377881 5.00166e-19)
(0.920215 -0.325251 -1.03945e-19)
(0.96888 -0.344888 1.00986e-20)
(0.98446 -0.298775 7.93669e-20)
(1.0278 -0.310392 1.24317e-19)
(1.03755 -0.270429 -1.21183e-19)
(1.08836 0.220579 -5.79423e-21)
(1.09978 0.189853 -4.75936e-20)
(1.09074 0.0191582 5.60185e-21)
(1.0903 0.00627743 -7.98722e-22)
(1.09295 -0.0462751 -6.22108e-21)
(1.09166 -0.0324015 -5.77756e-21)
(1.09074 -0.0191582 5.25507e-22)
(1.0903 -0.00627743 7.98722e-22)
(1.08836 -0.220579 5.79423e-21)
)
;

boundaryField
{
    inlet
    {
        type            uniformFixedValue;
        uniformValue    constant (1 0 0);
        value           nonuniform 0();
    }
    outlet
    {
        type            pressureInletOutletVelocity;
        value           nonuniform 0();
    }
    cylinder
    {
        type            fixedValue;
        value           nonuniform 0();
    }
    top
    {
        type            symmetryPlane;
    }
    bottom
    {
        type            symmetryPlane;
    }
    defaultFaces
    {
        type            empty;
    }
    procBoundary12to10
    {
        type            processor;
        value           nonuniform List<vector> 7((1.00011 0.261402 2.24214e-19) (1.08316 0.0193872 -1.04732e-22) (1.08278 0.00638865 -5.93448e-21) (1.08471 -0.04675 -1.88942e-20) (1.08385 -0.0327564 6.01271e-21) (1.08316 -0.0193872 -6.37983e-21) (1.08278 -0.00638865 -3.26582e-22));
    }
    procBoundary12to11
    {
        type            processor;
        value           nonuniform List<vector> 
34
(
(0.98446 0.298775 -2.27204e-19)
(1.05622 0.217994 -5.59439e-21)
(0.98446 0.298775 -2.27204e-19)
(0.920215 0.325251 -1.67661e-19)
(0.920215 0.325251 -1.67661e-19)
(0.874077 0.299049 9.10493e-20)
(0.790815 0.31077 -4.59514e-20)
(0.790815 0.31077 -4.59514e-20)
(0.746855 0.265623 2.46661e-19)
(0.646844 0.250621 -6.05069e-20)
(0.646844 0.250621 -6.05069e-20)
(0.612852 0.184007 8.57762e-21)
(0.589544 0.112439 -1.74109e-19)
(0.577693 0.0378224 -5.73955e-20)
(0.577693 -0.0378224 5.99996e-20)
(0.589544 -0.112439 -2.01262e-19)
(0.612852 -0.184007 1.93672e-19)
(0.646844 -0.250621 2.30997e-19)
(0.646844 -0.250621 2.30997e-19)
(0.746855 -0.265623 -3.75058e-19)
(0.790815 -0.31077 1.74335e-19)
(0.790815 -0.31077 1.74335e-19)
(0.874077 -0.299049 -1.38607e-20)
(0.874077 -0.299049 -1.38607e-20)
(0.943052 -0.279247 7.74866e-20)
(0.943052 -0.279247 7.74866e-20)
(1.00011 -0.261402 -4.46333e-20)
(1.00011 -0.261402 -4.46333e-20)
(1.05622 -0.217994 5.59439e-21)
(1.05622 0.217994 -5.59439e-21)
(1.07388 0.188881 -6.22614e-20)
(1.09166 0.0324015 5.77756e-21)
(1.05622 -0.217994 5.59439e-21)
(1.09437 -0.0610821 -5.25748e-21)
)
;
    }
    procBoundary12to13
    {
        type            processor;
        value           nonuniform List<vector> 
30
(
(1.07567 0.275539 9.75158e-20)
(1.07567 0.275539 9.75158e-20)
(0.95083 0.398735 1.39891e-20)
(0.95083 0.398735 1.39891e-20)
(0.680911 0.417356 -5.61773e-20)
(0.680911 0.417356 -5.61773e-20)
(0.474913 0.327543 -7.30758e-19)
(0.429042 0.241978 2.20872e-19)
(0.397322 0.148457 8.30209e-20)
(0.381115 0.0500371 1.36541e-19)
(0.381115 -0.0500371 -5.37309e-20)
(0.397322 -0.148457 -1.53881e-19)
(0.429042 -0.241978 9.70708e-20)
(0.474913 -0.327543 4.00887e-19)
(0.680911 -0.417356 5.61773e-20)
(0.680911 -0.417356 5.61773e-20)
(0.800075 -0.404708 -7.33825e-20)
(0.800075 -0.404708 -7.33825e-20)
(0.95083 -0.398735 -1.39891e-20)
(0.95083 -0.398735 -1.39891e-20)
(1.07567 -0.275539 -9.75158e-20)
(1.07567 -0.275539 -9.75158e-20)
(1.10657 0.160385 -6.38543e-20)
(1.0984 0.0188422 -4.99076e-21)
(1.09787 0.0061424 2.88735e-21)
(1.10131 -0.0455492 -3.32036e-21)
(1.09957 -0.0318834 1.35518e-21)
(1.0984 -0.0188422 -1.11695e-22)
(1.09787 -0.0061424 -2.88735e-21)
(1.09978 -0.189853 4.07619e-20)
)
;
    }
    procBoundary12to14
    {
        type            processor;
        value           nonuniform List<vector> 
15
(
(1.07203 0.315674 9.15502e-20)
(1.019 0.356812 -4.24723e-20)
(1.019 0.356812 -4.24723e-20)
(0.862488 0.436841 -2.3806e-19)
(0.862488 0.436841 -2.3806e-19)
(0.74773 0.463487 -4.08708e-20)
(0.532945 0.402397 1.23833e-19)
(0.532945 -0.402397 1.35482e-19)
(0.862488 -0.436841 2.13043e-19)
(1.019 -0.356812 4.24723e-20)
(1.019 -0.356812 4.24723e-20)
(1.07203 -0.315674 -9.15502e-20)
(1.11841 0.221817 -5.19296e-20)
(1.12282 0.189062 2.38158e-20)
(1.11841 -0.221817 5.19296e-20)
)
;
    }
}


// ************************************************************************* //
