/*--------------------------------*- C++ -*----------------------------------*\
  =========                 |
  \\      /  F ield         | OpenFOAM: The Open Source CFD Toolbox
   \\    /   O peration     | Website:  https://openfoam.org
    \\  /    A nd           | Version:  7
     \\/     M anipulation  |
\*---------------------------------------------------------------------------*/
FoamFile
{
    version     2.0;
    format      ascii;
    class       surfaceScalarField;
    location    "35";
    object      phi;
}
// * * * * * * * * * * * * * * * * * * * * * * * * * * * * * * * * * * * * * //

dimensions      [0 3 -1 0 0 0 0];

internalField   nonuniform List<scalar> 
644
(
6.67765e-05
-3.40489e-05
-1.6389e-10
0.00010214
-3.53629e-05
-1.68212e-10
-3.63348e-05
-1.7015e-10
7.36237e-05
-6.80005e-05
0.000108871
-7.06099e-05
-7.25399e-05
8.72496e-05
-0.000101756
0.000122264
-0.000105624
-0.000108485
0.000107518
-0.000135213
0.000142181
-0.000140288
-0.000144039
0.000134225
-0.000168269
0.000168418
-0.00017448
-0.00017907
0.000167105
-0.000200813
0.000200703
-0.000208078
-0.000213445
0.000205829
-0.000232731
0.000238707
-0.000240956
-0.00024703
0.000250011
0.000282037
-0.000272982
0.000314696
-0.00027969
-0.000284394
0.000330249
-0.000304024
0.000361845
-0.000311286
-0.000316381
0.000382847
-0.000333942
0.000413243
-0.000341682
-0.000347116
0.00043929
-0.000362594
0.000468346
-0.000370739
-0.000376466
0.000498994
-0.000389836
0.000526574
-0.000398319
-0.000404302
0.000561341
-0.000415521
0.000587309
-0.000424288
-0.000430497
0.000625682
-0.000439501
0.000649907
-0.000448513
-0.000454933
0.000691344
0.000713698
-0.000470867
-0.000477499
0.000777999
-0.000491234
0.000798596
-0.000498096
-0.000502705
0.000842115
-0.000509505
0.000860654
-0.000516635
-0.000521511
0.000905347
-0.000525588
0.000921757
-0.000533045
-0.000538252
0.000967003
-0.000539408
0.000981229
-0.00054727
-0.000552889
0.00102641
0.00103841
-0.000559277
-0.000565404
0.00109266
-0.000569054
0.00110306
-0.000575799
-0.00058051
0.0011433
-0.000576613
0.0011516
-0.0005841
-0.000589522
0.00118977
-0.000581988
0.00119602
-0.000590352
-0.000596606
0.00123195
0.00123622
-0.000594615
-0.000601829
0.00519267
-0.000590017
0.00518996
-0.000599119
-0.000606143
0.00592519
-0.000567866
0.00590583
-0.000579753
-0.000589368
0.0066476
-0.000529535
0.00661277
-0.000544922
-0.000557773
0.00733524
-0.000477899
0.00728748
-0.000497162
-0.000513618
0.00796754
-0.00041682
0.00791032
-0.000439943
-0.000460033
0.00852929
-0.000350525
0.00846649
-0.000377135
-0.000400569
0.00901155
-0.00028302
0.0089469
-0.00031249
-0.00033874
0.00941144
-0.000217664
0.00934819
-0.00024924
-0.000277641
0.00973138
-0.000156959
0.00967201
-0.000189867
-0.000219716
0.00997771
-0.000102511
0.00992388
-0.000136036
-0.000166667
0.0101593
-5.51233e-05
0.0101119
-8.86564e-05
-0.000119489
0.0102861
-1.49528e-05
0.0102455
-4.80098e-05
-7.85708e-05
0.0103684
1.83054e-05
0.0103343
-1.3914e-05
-4.38427e-05
0.0104155
4.52479e-05
0.0103875
1.41175e-05
-1.49192e-05
0.010436
6.66169e-05
0.0104134
3.67371e-05
8.76655e-06
0.0104367
8.31913e-05
0.0104188
5.46556e-05
2.78585e-05
0.0104234
9.57138e-05
0.0104095
6.85672e-05
4.3003e-05
0.0104006
0.000104849
0.01039
7.91048e-05
5.47998e-05
0.0103715
0.000111168
0.0103637
8.68183e-05
6.37777e-05
0.0103386
0.000115143
0.0103332
9.21701e-05
7.03868e-05
0.0103037
0.000117159
0.0103004
9.55401e-05
7.49999e-05
0.0102682
0.000117528
0.0102665
9.72366e-05
7.79222e-05
0.0102328
0.000116499
0.0102325
9.75088e-05
7.94016e-05
0.0101982
0.000114274
0.0101992
9.65589e-05
7.96401e-05
0.0101649
0.000111017
0.0101669
9.45524e-05
7.88031e-05
0.010133
0.000106867
0.010136
9.16269e-05
7.70286e-05
0.0101029
0.000101937
0.0101067
8.78986e-05
7.4433e-05
0.0100747
9.63274e-05
0.0100791
8.34672e-05
7.11166e-05
0.0100484
9.01232e-05
0.0100535
7.84194e-05
6.71667e-05
0.0100242
8.34006e-05
0.0100298
7.28325e-05
6.26612e-05
0.0100021
7.62271e-05
0.0100082
6.67751e-05
5.76697e-05
0.00998217
6.86636e-05
0.00998864
6.03099e-05
5.22556e-05
0.00996438
6.07655e-05
0.00997119
5.34936e-05
4.64771e-05
0.00994877
5.25839e-05
0.00995589
4.63791e-05
4.03884e-05
0.00993538
4.41659e-05
0.00994274
3.90154e-05
3.404e-05
0.00992421
3.55558e-05
0.00993177
3.14488e-05
2.74797e-05
0.00991526
2.67951e-05
0.00992299
2.37229e-05
2.07528e-05
0.00990855
1.7924e-05
0.00991639
1.58796e-05
1.39027e-05
0.00990408
8.97999e-06
0.009912
7.95883e-06
6.97158e-06
0.00990184
0.0099098
0.000136361
0.0102318
0.000132771
0.010196
0.000128183
0.0101616
0.000122732
0.0101289
0.000116532
0.010098
0.000109681
0.0100691
0.000102262
0.0100422
9.43499e-05
0.0100175
8.60108e-05
0.00999496
7.73033e-05
0.00997461
6.82809e-05
0.00995648
5.89924e-05
0.00994059
4.94826e-05
0.00992696
3.97934e-05
0.0099156
2.99641e-05
0.0099065
2.00322e-05
0.00989968
1.00327e-05
0.00989513
0.00989286
-0.000590017
0.00519267
0.000594615
-0.000567866
0.00592519
-0.000529536
0.0066476
-0.000477899
0.00733524
-0.00041682
0.00796754
-0.000350525
0.00852929
-0.00028302
0.00901155
-0.000217664
0.00941144
-0.000156959
0.00973138
-0.000102511
0.00997771
-5.51234e-05
0.0101593
-1.49528e-05
0.0102861
1.83054e-05
0.0103684
4.52479e-05
0.0104155
6.66169e-05
0.010436
8.31913e-05
0.0104367
9.57138e-05
0.0104234
0.000104849
0.0104006
0.000111168
0.0103715
0.000115143
0.0103386
0.000117159
0.0103037
0.000117528
0.0102682
0.000116499
0.0102328
0.000114274
0.0101982
0.000111017
0.0101649
0.000106867
0.010133
0.000101937
0.0101029
9.63274e-05
0.0100747
9.01232e-05
0.0100484
8.34006e-05
0.0100242
7.62271e-05
0.0100021
6.86636e-05
0.00998217
6.07655e-05
0.00996438
5.25839e-05
0.00994877
4.41659e-05
0.00993538
3.55558e-05
0.00992421
2.67954e-05
0.00991526
1.7924e-05
0.00990855
8.97994e-06
0.00990408
0.00990184
-0.000599119
0.00518996
0.000601829
-0.000579753
0.00590583
-0.000544922
0.00661277
-0.000497162
0.00728748
-0.000439943
0.00791032
-0.000377135
0.00846649
-0.00031249
0.0089469
-0.00024924
0.00934819
-0.000189867
0.00967201
-0.000136036
0.00992388
-8.86564e-05
0.0101119
-4.80098e-05
0.0102455
-1.39139e-05
0.0103343
1.41175e-05
0.0103875
3.67373e-05
0.0104134
5.46556e-05
0.0104188
6.85672e-05
0.0104095
7.91048e-05
0.01039
8.68184e-05
0.0103637
9.21702e-05
0.0103332
9.55402e-05
0.0103004
9.72366e-05
0.0102665
9.75088e-05
0.0102325
9.65589e-05
0.0101992
9.45524e-05
0.0101669
9.1627e-05
0.010136
8.78987e-05
0.0101067
8.34672e-05
0.0100791
7.84195e-05
7.28326e-05
6.67751e-05
6.03099e-05
5.34936e-05
4.63791e-05
3.90154e-05
3.14488e-05
2.37228e-05
1.58796e-05
7.95907e-06
-0.000606143
-0.000589368
-0.000557773
-0.000513618
-0.000460033
-0.000400569
-0.00033874
-0.000277641
-0.000219716
-0.000166667
-0.000119489
-7.85708e-05
-4.38426e-05
-1.49192e-05
8.76646e-06
2.78585e-05
4.30031e-05
5.47998e-05
6.37777e-05
7.03868e-05
7.49999e-05
7.79223e-05
7.94016e-05
7.96401e-05
7.88033e-05
7.70286e-05
7.4433e-05
0.00123195
0.000581989
0.00123622
0.000590352
0.000596607
0.00118977
0.000576613
0.00119602
0.0005841
0.000589522
0.0011433
0.000569054
0.0011516
0.000575799
0.000580511
0.00109266
0.000559277
0.00110306
0.000565404
0.00102641
0.000539409
0.00103841
0.00054727
0.000552889
0.000967003
0.000525588
0.000981229
0.000533045
0.000538252
0.000905347
0.000509505
0.000921757
0.000516635
0.000521511
0.000842115
0.000491234
0.000860654
0.000498096
0.000502705
0.000777999
0.000470867
0.000798596
0.000477499
0.000691344
0.000439502
0.000713698
0.000448513
0.000454933
0.000625682
0.000415521
0.000649907
0.000424288
0.000430497
0.000561341
0.000389836
0.000587309
0.000398319
0.000404302
0.000498994
0.000362594
0.000526574
0.000370739
0.000376467
0.000439289
0.000333942
0.000468346
0.000341682
0.000347116
0.000382847
0.000304024
0.000413243
0.000311286
0.000316381
0.000330249
0.000272983
0.000361845
0.00027969
0.000284395
0.00025001
0.000232731
0.000282037
0.000240956
0.000314696
0.000247031
0.000205829
0.000200813
0.000238707
0.000208079
0.000213446
0.000167105
0.000168269
0.000200703
0.000174481
0.00017907
0.000134225
0.000135214
0.000168418
0.000140288
0.000144039
0.000107518
0.000101756
0.000142181
0.000105625
0.000108485
8.72496e-05
6.80008e-05
0.000122264
7.06103e-05
7.25402e-05
7.36237e-05
3.40493e-05
0.000108871
3.53632e-05
3.63351e-05
6.67765e-05
0.00010214
)
;

boundaryField
{
    inlet
    {
        type            calculated;
        value           nonuniform 0();
    }
    outlet
    {
        type            calculated;
        value           nonuniform 0();
    }
    cylinder
    {
        type            calculated;
        value           nonuniform 0();
    }
    top
    {
        type            symmetryPlane;
        value           uniform 0;
    }
    bottom
    {
        type            symmetryPlane;
        value           uniform 0;
    }
    defaultFaces
    {
        type            empty;
        value           nonuniform 0();
    }
    procBoundary29to28
    {
        type            processor;
        value           nonuniform List<scalar> 
137
(
-3.27274e-05
-3.96722e-05
-5.34944e-05
-7.406e-05
-0.00010117
-0.000134561
-0.000173911
-0.00021884
-0.000263901
-0.000299208
-0.000352929
-0.000410637
-0.000471752
-0.000535656
-0.000601702
-0.000669212
-0.000461633
-0.000757633
-0.000823844
-0.000889264
-0.000953183
-0.0010149
-0.000550911
-0.00108289
-0.00113574
-0.0011844
-0.00122871
-0.000585234
-0.00519727
-0.00594734
-0.00668593
-0.00738688
-0.00802862
-0.00859559
-0.00907905
-0.0094768
-0.00979209
-0.0100322
-0.0102067
-0.0103263
-0.0104016
-0.0104425
-0.0104574
-0.0104533
-0.010436
-0.0104097
-0.0103778
-0.0103426
-0.0103057
-0.0102685
-0.0102318
-0.010196
-0.0101616
-0.0101289
-0.010098
-0.0100691
-0.0100422
-0.0100175
-0.00999496
-0.00997461
-0.00995648
-0.00994059
-0.00992696
-0.0099156
-0.0099065
-0.00989968
-0.00989513
-0.00989286
-0.0102293
-0.0101924
-0.010157
-0.0101234
-0.0100918
-0.0100622
-0.0100348
-0.0100096
-0.00998662
-0.0099659
-0.00994746
-0.0099313
-0.00991745
-0.00990591
-0.00989667
-0.00988975
-0.00988513
-0.00988283
-0.00519727
-0.000585234
-0.00594734
-0.00668593
-0.00738688
-0.00802862
-0.00859559
-0.00907905
-0.0094768
-0.00979209
-0.0100322
-0.0102067
-0.0103263
-0.0104016
-0.0104425
-0.0104574
-0.0104533
-0.010436
-0.0104097
-0.0103778
-0.0103426
-0.0103057
-0.000138788
-0.0102685
-0.00122871
-0.0011844
-0.00113574
-0.00108289
-0.000550911
-0.0010149
-0.000953183
-0.000889264
-0.000823844
-0.000757633
-0.000461633
-0.000669212
-0.000601702
-0.000535656
-0.000471752
-0.000410637
-0.000352929
-0.000299208
-0.000263901
-0.00021884
-0.000173911
-0.000134561
-0.00010117
-7.406e-05
-5.34944e-05
-3.96722e-05
-3.27274e-05
)
;
    }
    procBoundary29to30
    {
        type            processor;
        value           nonuniform List<scalar> 
137
(
0.000138474
0.000145076
0.000158209
0.000177735
0.000203449
0.000235079
0.000272292
0.000251292
0.000347798
0.000393832
0.000443978
0.000497697
0.000554409
0.000613505
0.000674343
0.000736265
0.000481889
0.000819412
0.000879461
0.000938498
0.000995866
0.00105093
0.000569519
0.00111405
0.00116061
0.00120311
0.00124144
0.000607053
0.00518905
0.00588905
0.00658117
0.00724333
0.00785673
0.00840702
0.00888507
0.0092871
0.00961409
0.00987083
0.0100647
0.0102046
0.0102996
0.0103586
0.0103897
0.0103997
0.0103944
0.0103782
0.0103548
0.0103266
0.0102957
0.0102636
0.010231
0.0101989
0.0101677
0.0101377
0.0101093
0.0100824
0.0100574
0.0100343
0.0100132
0.00999405
0.00997697
0.00996198
0.00994909
0.00993833
0.00992971
0.00992324
0.00991893
0.00991677
0.0100535
0.0100298
0.0100082
0.00998864
0.00997119
0.00995589
0.00994274
0.00993177
0.00992299
0.00991639
0.009912
0.0099098
0.00518905
0.000607053
0.00588905
0.00658117
0.00724333
0.00785673
0.00840702
0.00888507
0.0092871
0.00961409
0.00987083
0.0100647
0.0102046
0.0102996
0.0103586
0.0103897
0.0103997
0.0103944
0.0103782
0.0103548
0.0103266
0.0102957
0.0102636
0.010231
0.0101989
0.0101677
0.0101377
0.0101093
7.11166e-05
0.0100824
0.00124144
0.00120311
0.00116061
0.00111405
0.00056952
0.00105093
0.000995866
0.000938497
0.000879461
0.000819412
0.000481889
0.000736265
0.000674343
0.000613505
0.000554409
0.000497697
0.000443978
0.000393832
0.000347798
0.000251293
0.000272292
0.000235079
0.000203449
0.000177735
0.000158209
0.000145076
0.000138474
)
;
    }
}


// ************************************************************************* //
