/*--------------------------------*- C++ -*----------------------------------*\
  =========                 |
  \\      /  F ield         | OpenFOAM: The Open Source CFD Toolbox
   \\    /   O peration     | Website:  https://openfoam.org
    \\  /    A nd           | Version:  7
     \\/     M anipulation  |
\*---------------------------------------------------------------------------*/
FoamFile
{
    version     2.0;
    format      ascii;
    class       volScalarField;
    location    "30";
    object      p;
}
// * * * * * * * * * * * * * * * * * * * * * * * * * * * * * * * * * * * * * //

dimensions      [0 2 -2 0 0 0 0];

internalField   nonuniform List<scalar> 
2304
(
-0.305183
-0.310805
-0.308523
-0.302081
-0.292814
-0.281228
-0.267894
-0.253461
-0.23842
-0.224223
-0.310329
-0.314561
-0.311546
-0.304612
-0.29496
-0.283061
-0.269391
-0.254511
-0.238687
-0.223159
-0.320312
-0.32184
-0.317371
-0.309457
-0.299061
-0.286507
-0.272198
-0.256522
-0.239281
-0.221184
-0.334589
-0.332228
-0.325613
-0.316232
-0.304683
-0.291197
-0.275977
-0.25926
-0.240337
-0.218645
-0.352512
-0.345173
-0.33585
-0.32452
-0.311437
-0.296712
-0.280337
-0.262406
-0.241868
-0.216023
-0.373322
-0.360263
-0.347661
-0.33395
-0.318973
-0.302706
-0.284925
-0.265569
-0.243424
-0.213489
-0.396427
-0.377052
-0.360736
-0.3443
-0.3271
-0.308994
-0.289568
-0.268503
-0.244225
-0.21109
-0.421254
-0.395135
-0.374866
-0.355448
-0.335733
-0.3155
-0.294245
-0.27144
-0.245188
-0.213563
-0.447209
-0.414166
-0.389834
-0.367242
-0.344689
-0.321916
-0.298449
-0.273987
-0.248762
-0.231614
-0.473526
-0.433644
-0.405274
-0.379321
-0.353488
-0.327517
-0.301018
-0.27394
-0.247082
-0.22566
-0.499163
-0.452809
-0.420514
-0.390956
-0.361261
-0.331299
-0.300924
-0.270405
-0.240741
-0.214143
-0.522663
-0.470525
-0.434453
-0.400934
-0.366674
-0.331919
-0.297006
-0.262626
-0.229907
-0.199746
-0.54212
-0.485216
-0.445505
-0.407567
-0.368031
-0.327871
-0.288145
-0.250035
-0.214731
-0.18253
-0.555223
-0.494883
-0.451651
-0.408816
-0.363476
-0.3177
-0.273418
-0.232214
-0.195154
-0.162122
-0.559384
-0.497203
-0.450585
-0.402516
-0.351235
-0.3002
-0.252177
-0.208924
-0.171145
-0.138365
-0.551943
-0.489709
-0.439946
-0.386635
-0.329851
-0.274539
-0.224071
-0.18008
-0.142715
-0.111245
-0.530415
-0.470031
-0.417587
-0.359534
-0.298357
-0.240324
-0.189042
-0.145732
-0.109863
-0.080554
-0.492763
-0.436172
-0.381857
-0.320183
-0.256376
-0.197618
-0.147334
-0.106131
-0.0726923
-0.04594
-0.43765
-0.38677
-0.331837
-0.268287
-0.204122
-0.146883
-0.0995021
-0.0618013
-0.0317366
-0.00809317
-0.36466
-0.32136
-0.267513
-0.204375
-0.142323
-0.0889126
-0.0463978
-0.0134421
0.0124767
0.0314358
-0.274454
-0.240591
-0.189702
-0.129726
-0.0722202
-0.0250997
0.011111
0.0381704
0.0589778
0.07253
-0.16878
-0.146169
-0.0997917
-0.0456497
0.00394918
0.0431166
0.0716405
0.0918598
0.106645
0.114238
-0.0502385
-0.0399007
-0.00109557
0.0446875
0.0845287
0.11406
0.133805
0.14629
0.153928
0.155111
0.0770218
0.0743461
0.10346
0.138681
0.167146
0.185927
0.196226
0.200316
0.199925
0.194679
0.208639
0.192309
0.210221
0.233257
0.249279
0.256765
0.257406
0.252921
0.2445
0.239201
0.339559
0.309451
0.315209
0.325163
0.328308
0.32439
0.315361
0.302764
0.288362
0.279419
0.464476
0.421051
0.414402
0.411168
0.40168
0.38677
0.368512
0.348391
0.328346
0.313905
0.578162
0.522469
0.503929
0.488209
0.467
0.442037
0.415443
0.388636
0.363339
0.343356
0.675746
0.609407
0.580258
0.553506
0.522102
0.488488
0.454785
0.422301
0.392392
0.367448
0.752977
0.678138
0.640351
0.60469
0.565145
0.524678
0.485378
0.448435
0.414832
0.385857
0.806452
0.725688
0.681805
0.639891
0.594679
0.549465
0.506305
0.466292
0.430114
0.398299
0.833798
0.749993
0.702956
0.657822
0.609701
0.562061
0.516931
0.475353
0.437853
0.40457
0.833798
0.749993
0.702956
0.657822
0.609701
0.562061
0.516931
0.475353
0.437853
0.40457
0.806452
0.725688
0.681805
0.639891
0.594679
0.549465
0.506305
0.466292
0.430114
0.398299
0.752977
0.678138
0.640351
0.60469
0.565145
0.524678
0.485378
0.448435
0.414832
0.385857
0.675746
0.609407
0.580258
0.553506
0.522102
0.488488
0.454785
0.422301
0.392392
0.367448
0.578162
0.522469
0.503929
0.488209
0.467
0.442037
0.415443
0.388636
0.363339
0.343356
0.464476
0.421051
0.414402
0.411168
0.40168
0.38677
0.368511
0.348391
0.328346
0.313905
0.339559
0.309451
0.315209
0.325162
0.328308
0.32439
0.315361
0.302764
0.288362
0.279419
0.208639
0.192309
0.210221
0.233257
0.249279
0.256765
0.257406
0.252921
0.2445
0.239201
0.0770218
0.0743461
0.10346
0.138681
0.167146
0.185927
0.196226
0.200316
0.199925
0.194679
-0.0502385
-0.0399007
-0.00109561
0.0446874
0.0845286
0.11406
0.133804
0.14629
0.153928
0.155111
-0.16878
-0.146169
-0.0997917
-0.0456497
0.00394914
0.0431165
0.0716404
0.0918597
0.106645
0.114238
-0.274454
-0.240592
-0.189702
-0.129726
-0.0722202
-0.0250998
0.0111109
0.0381703
0.0589778
0.0725299
-0.36466
-0.32136
-0.267513
-0.204375
-0.142323
-0.0889126
-0.0463978
-0.0134422
0.0124766
0.0314357
-0.43765
-0.38677
-0.331837
-0.268287
-0.204122
-0.146883
-0.0995021
-0.0618014
-0.0317367
-0.00809322
-0.492763
-0.436172
-0.381857
-0.320183
-0.256376
-0.197618
-0.147334
-0.106131
-0.0726923
-0.0459401
-0.530415
-0.470031
-0.417588
-0.359535
-0.298357
-0.240324
-0.189042
-0.145732
-0.109864
-0.080554
-0.551943
-0.489709
-0.439946
-0.386635
-0.329851
-0.274539
-0.224071
-0.18008
-0.142715
-0.111245
-0.559384
-0.497203
-0.450585
-0.402516
-0.351235
-0.3002
-0.252177
-0.208924
-0.171145
-0.138365
-0.555223
-0.494883
-0.451651
-0.408817
-0.363476
-0.3177
-0.273418
-0.232214
-0.195154
-0.162122
-0.54212
-0.485216
-0.445505
-0.407567
-0.368031
-0.327871
-0.288145
-0.250035
-0.214731
-0.18253
-0.522663
-0.470525
-0.434453
-0.400934
-0.366674
-0.331919
-0.297006
-0.262626
-0.229907
-0.199746
-0.499163
-0.452809
-0.420514
-0.390956
-0.361261
-0.331299
-0.300924
-0.270405
-0.240741
-0.214143
-0.473526
-0.433644
-0.405274
-0.379321
-0.353488
-0.327517
-0.301018
-0.27394
-0.247082
-0.22566
-0.447209
-0.414166
-0.389834
-0.367242
-0.344689
-0.321916
-0.298449
-0.273987
-0.248762
-0.231614
-0.421254
-0.395135
-0.374866
-0.355448
-0.335733
-0.3155
-0.294245
-0.27144
-0.245188
-0.213563
-0.396427
-0.377052
-0.360736
-0.3443
-0.3271
-0.308994
-0.289568
-0.268503
-0.244226
-0.21109
-0.373322
-0.360263
-0.347661
-0.33395
-0.318973
-0.302706
-0.284925
-0.265569
-0.243425
-0.213489
-0.352512
-0.345173
-0.33585
-0.32452
-0.311437
-0.296712
-0.280337
-0.262406
-0.241868
-0.216023
-0.334589
-0.332228
-0.325613
-0.316232
-0.304683
-0.291197
-0.275977
-0.25926
-0.240337
-0.218645
-0.320312
-0.32184
-0.317371
-0.309457
-0.299061
-0.286508
-0.272198
-0.256522
-0.239281
-0.221184
-0.310329
-0.314561
-0.311546
-0.304612
-0.29496
-0.283061
-0.269391
-0.254511
-0.238687
-0.223159
-0.305183
-0.310805
-0.308523
-0.302081
-0.292814
-0.281228
-0.267894
-0.253461
-0.23842
-0.224223
-0.210829
-0.182309
-0.160578
-0.139886
-0.120816
-0.103788
-0.0887275
-0.0755252
-0.0640466
-0.05412
-0.0455616
-0.0381922
-0.031846
-0.0263738
-0.0216456
-0.0175475
-0.0139891
-0.0108763
-0.00818046
-0.00574404
-0.0037854
-0.00157845
-0.000825661
0.0028844
-0.213346
-0.183307
-0.161439
-0.14074
-0.121553
-0.104424
-0.0892825
-0.0760081
-0.0644657
-0.0544836
-0.0458766
-0.0384648
-0.0320816
-0.0265771
-0.0218208
-0.0176981
-0.0141181
-0.0109867
-0.00827416
-0.00582488
-0.00385154
-0.00164685
-0.000860307
0.00274127
-0.218051
-0.185314
-0.163032
-0.142343
-0.122958
-0.105645
-0.0903569
-0.0769505
-0.0652894
-0.055202
-0.0465017
-0.0390076
-0.0325518
-0.0269837
-0.0221715
-0.018
-0.014377
-0.0112084
-0.00846232
-0.0059873
-0.00398431
-0.0017835
-0.000930948
0.00246813
-0.224246
-0.188316
-0.16516
-0.144497
-0.124902
-0.107362
-0.0918874
-0.0783098
-0.0664895
-0.0562568
-0.0474251
-0.0398129
-0.0332519
-0.0275906
-0.0226961
-0.0184522
-0.0147653
-0.0115413
-0.00874513
-0.00623174
-0.00418397
-0.00198731
-0.00103918
0.00208937
-0.230802
-0.192168
-0.167591
-0.146925
-0.127187
-0.109435
-0.0937717
-0.0800104
-0.0680106
-0.0576077
-0.0486173
-0.0408594
-0.0341664
-0.0283869
-0.0233869
-0.0190498
-0.0152799
-0.0119838
-0.00912179
-0.00655798
-0.00445038
-0.00225604
-0.00118606
0.001637
-0.236039
-0.196248
-0.170031
-0.149313
-0.129576
-0.111717
-0.0959123
-0.0819882
-0.0698136
-0.059233
-0.0500689
-0.0421459
-0.0352993
-0.0293794
-0.0242522
-0.0198013
-0.0159291
-0.0125433
-0.0095987
-0.00697103
-0.00478734
-0.00258901
-0.00137339
0.00114488
-0.23825
-0.200228
-0.172816
-0.151902
-0.132261
-0.114411
-0.098509
-0.0844282
-0.0720629
-0.0612748
-0.0518991
-0.0437697
-0.0367282
-0.0306288
-0.0253387
-0.0207418
-0.0167386
-0.0132385
-0.0101889
-0.00747948
-0.00520006
-0.0029865
-0.00160029
0.000642085
-0.235261
-0.201549
-0.17444
-0.153447
-0.134223
-0.11669
-0.100882
-0.0867555
-0.0742637
-0.0633048
-0.0537383
-0.0454136
-0.0381829
-0.0319068
-0.0264552
-0.0217135
-0.01758
-0.0139667
-0.0108112
-0.0080222
-0.00564076
-0.00341757
-0.00183815
0.000154525
-0.204393
-0.188164
-0.168069
-0.148834
-0.131238
-0.114994
-0.100054
-0.0865305
-0.0744721
-0.06382
-0.0544596
-0.046262
-0.0390976
-0.0328425
-0.0273794
-0.0226044
-0.0184211
-0.0147519
-0.0115253
-0.00868453
-0.0061989
-0.00399082
-0.00216173
-0.000465171
-0.175815
-0.16776
-0.152057
-0.136218
-0.121992
-0.108673
-0.0959763
-0.0841158
-0.0732912
-0.0635427
-0.0548221
-0.0470568
-0.0401673
-0.0340707
-0.0286787
-0.0239116
-0.0196889
-0.0159516
-0.0126283
-0.00969153
-0.00706678
-0.00478759
-0.00271677
-0.00106521
-0.145886
-0.144625
-0.134059
-0.122716
-0.112079
-0.10162
-0.09117
-0.0810389
-0.071533
-0.0627778
-0.054787
-0.0475389
-0.0409985
-0.0351209
-0.029849
-0.0251286
-0.0208961
-0.0171114
-0.0137045
-0.0106747
-0.00791237
-0.00552997
-0.00322595
-0.00146645
-0.119955
-0.123297
-0.117451
-0.109873
-0.102298
-0.0943842
-0.0860375
-0.0775949
-0.0694098
-0.0616695
-0.054442
-0.0477511
-0.0416009
-0.0359819
-0.0308652
-0.0262217
-0.0220037
-0.0181898
-0.0147123
-0.0115925
-0.00869674
-0.00618556
-0.00366195
-0.00171506
-0.098327
-0.104476
-0.102492
-0.0981086
-0.0931024
-0.0873747
-0.0809028
-0.0740149
-0.0670757
-0.0603115
-0.0538343
-0.0477059
-0.0419627
-0.0366244
-0.0316874
-0.0271443
-0.022963
-0.0191379
-0.0156064
-0.0124043
-0.00938759
-0.00673693
-0.00402037
-0.00185371
-0.080893
-0.0886552
-0.0896218
-0.0878376
-0.0849011
-0.0809647
-0.0760776
-0.0705453
-0.0647182
-0.0588418
-0.0530601
-0.0474646
-0.042117
-0.0370603
-0.0323114
-0.0278813
-0.0237519
-0.0199304
-0.0163613
-0.0130885
-0.00996845
-0.00718303
-0.00430498
-0.00192295
-0.0672871
-0.0758439
-0.0789057
-0.0791348
-0.0778477
-0.0753396
-0.0717485
-0.0673559
-0.062484
-0.0573827
-0.0522175
-0.0471023
-0.0421184
-0.0373266
-0.0327601
-0.0284447
-0.0243747
-0.020567
-0.016974
-0.0136436
-0.0104392
-0.00753437
-0.004526
-0.00195586
-0.0568867
-0.0657661
-0.0702521
-0.0719862
-0.0719784
-0.0705922
-0.0680324
-0.0645651
-0.0604833
-0.0560326
-0.0513914
-0.0466897
-0.0420237
-0.0374674
-0.0330666
-0.0288589
-0.0248486
-0.0210601
-0.0174537
-0.0140787
-0.0108082
-0.00780471
-0.00469457
-0.00197325
-0.0491332
-0.0581034
-0.0635322
-0.0663517
-0.0673035
-0.0667714
-0.0650031
-0.0622558
-0.0587986
-0.0548688
-0.0506514
-0.0462876
-0.0418842
-0.0375248
-0.0332651
-0.0291509
-0.0251949
-0.0214269
-0.0178142
-0.0144065
-0.0110865
-0.00800659
-0.00481987
-0.00198511
-0.0436291
-0.0525918
-0.0586224
-0.062185
-0.0638171
-0.0638989
-0.062704
-0.0604836
-0.057489
-0.053949
-0.0500513
-0.0459444
-0.0417421
-0.0375352
-0.0333858
-0.0293459
-0.0254343
-0.0216848
-0.0180699
-0.0146397
-0.0112847
-0.00814989
-0.00490851
-0.00199426
-0.0400952
-0.0490264
-0.0554146
-0.0594395
-0.0615053
-0.0619833
-0.0611602
-0.0592844
-0.0565951
-0.0533141
-0.0496302
-0.0456958
-0.0416296
-0.0375263
-0.0334525
-0.0294641
-0.0255839
-0.021848
-0.0182332
-0.0147889
-0.0114121
-0.00824151
-0.0049659
-0.00199896
-0.0383443
-0.0472627
-0.0538242
-0.0580752
-0.0603535
-0.0610256
-0.0603852
-0.0586799
-0.0561424
-0.0529908
-0.0494137
-0.0455659
-0.0415682
-0.0375173
-0.033482
-0.0295197
-0.0256558
-0.0219269
-0.0183131
-0.014861
-0.0114757
-0.00828426
-0.00499864
-0.00199495
-0.208702
-0.171286
-0.133605
-0.105565
-0.0848092
-0.0687351
-0.0564026
-0.0470698
-0.0401351
-0.0352143
-0.0320459
-0.0304468
-0.184402
-0.152622
-0.120551
-0.0951782
-0.076254
-0.0613862
-0.0498034
-0.0409901
-0.0344236
-0.0297449
-0.0267063
-0.0251419
-0.17253
-0.139719
-0.109925
-0.0855031
-0.0673566
-0.053402
-0.0425638
-0.0343121
-0.0281644
-0.0237746
-0.0209048
-0.0194145
-0.158692
-0.12445
-0.0968647
-0.0745816
-0.0577174
-0.0448131
-0.0347962
-0.0271419
-0.0214318
-0.0173488
-0.014669
-0.0132788
-0.143535
-0.109578
-0.0835442
-0.0631579
-0.0475544
-0.0356495
-0.0264628
-0.0194436
-0.0142059
-0.0104608
-0.00800082
-0.00673829
-0.125484
-0.0933684
-0.0691676
-0.0507791
-0.0366681
-0.0258812
-0.0175808
-0.0112427
-0.00651346
-0.00313508
-0.000922122
0.000190291
-0.104774
-0.0758511
-0.0540064
-0.0376431
-0.0251112
-0.0155317
-0.00817233
-0.00256129
0.00162073
0.00460129
0.00654052
0.00748546
-0.0815125
-0.0566991
-0.037772
-0.0236591
-0.0128518
-0.00460522
0.00173169
0.00656034
0.0101541
0.0127059
0.0143479
0.0151137
-0.0555802
-0.0359659
-0.0203252
-0.00890999
1.41287e-05
0.00681506
0.0120558
0.016051
0.0190195
0.021116
0.0224458
0.0230197
-0.026687
-0.0138032
-0.00169008
0.0064281
0.0133365
0.0186026
0.0226912
0.0258137
0.0281298
0.0297536
0.0307638
0.0311358
0.00428134
0.00973844
0.0174637
0.0225914
0.027154
0.0307539
0.033601
0.0357988
0.0374309
0.0385648
0.0392419
0.0394293
0.0369214
0.03451
0.0371322
0.0390379
0.041182
0.0430588
0.0446309
0.0458806
0.0468143
0.0474515
0.0477962
0.047818
0.0706054
0.0602945
0.0574634
0.055926
0.0555434
0.0555793
0.0557839
0.0560204
0.0562165
0.0563377
0.0563494
0.0562251
0.10609
0.0888535
0.080164
0.0745133
0.071039
0.0687871
0.0673101
0.0663307
0.0656676
0.0652069
0.0648624
0.0646022
0.144307
0.121648
0.106249
0.0954243
0.0880302
0.0829039
0.0793502
0.0768975
0.0752144
0.0740789
0.0733386
0.0729387
0.176705
0.150481
0.129778
0.114637
0.103936
0.0963526
0.0909763
0.0871898
0.0845597
0.08279
0.0816849
0.0811602
0.206684
0.179982
0.157926
0.140356
0.12721
0.117493
0.110279
0.104961
0.101123
0.0984696
0.0968029
0.0960026
0.231104
0.203102
0.181436
0.164061
0.150372
0.139738
0.131534
0.125281
0.120635
0.117349
0.115251
0.114236
0.233204
0.21256
0.194845
0.179765
0.167166
0.15684
0.148523
0.141965
0.136959
0.133342
0.130997
0.12984
0.231406
0.215821
0.201474
0.188681
0.177594
0.168199
0.160414
0.154131
0.149243
0.145659
0.14331
0.14215
0.22697
0.215488
0.204309
0.193875
0.18446
0.176194
0.169132
0.163289
0.158653
0.155204
0.152918
0.151779
0.223568
0.214537
0.205439
0.196664
0.18852
0.181194
0.174806
0.169429
0.165103
0.161849
0.159678
0.158592
0.220913
0.213422
0.205698
0.198078
0.190841
0.184199
0.178306
0.173273
0.169178
0.166071
0.163984
0.162936
0.219811
0.212959
0.205801
0.198657
0.191803
0.185457
0.179788
0.174919
0.170939
0.16791
0.165871
0.164848
0.254252
0.262186
0.251463
0.244205
0.235747
0.230314
0.226294
0.224635
0.280449
0.276403
0.26037
0.250274
0.240252
0.234062
0.229558
0.227746
0.301801
0.287755
0.267772
0.25531
0.244131
0.237373
0.232395
0.230533
0.320264
0.297901
0.274461
0.259859
0.24761
0.239932
0.234898
0.232966
0.335338
0.30622
0.280025
0.263625
0.25052
0.242431
0.237022
0.234996
0.346797
0.312581
0.284321
0.266525
0.252726
0.244256
0.23867
0.236571
0.354509
0.316896
0.287258
0.26851
0.25424
0.245499
0.239792
0.237645
0.358384
0.319078
0.288748
0.269516
0.254982
0.246126
0.240361
0.238189
0.358384
0.319078
0.288748
0.269516
0.254982
0.246126
0.240361
0.238189
0.354509
0.316896
0.287258
0.26851
0.25424
0.245499
0.239792
0.237645
0.346797
0.312581
0.284321
0.266525
0.252726
0.244256
0.23867
0.236571
0.335338
0.30622
0.280025
0.263625
0.25052
0.242431
0.237022
0.234996
0.320264
0.297901
0.274461
0.259859
0.24761
0.239932
0.234898
0.232966
0.301801
0.287755
0.267772
0.25531
0.244131
0.237373
0.232395
0.230533
0.280449
0.276403
0.26037
0.250274
0.240252
0.234062
0.229558
0.227746
0.254252
0.262186
0.251463
0.244205
0.235747
0.230314
0.226294
0.224635
0.206684
0.231104
0.233204
0.231406
0.226969
0.223568
0.220913
0.219811
0.179982
0.203102
0.21256
0.215821
0.215488
0.214537
0.213422
0.212959
0.157926
0.181436
0.194845
0.201474
0.204309
0.205439
0.205698
0.205801
0.140356
0.164061
0.179764
0.188681
0.193875
0.196664
0.198078
0.198657
0.12721
0.150372
0.167166
0.177594
0.18446
0.18852
0.190841
0.191803
0.117493
0.139738
0.15684
0.168199
0.176194
0.181194
0.184199
0.185457
0.110279
0.131534
0.148523
0.160414
0.169132
0.174806
0.178306
0.179788
0.104961
0.125281
0.141965
0.154131
0.163289
0.169429
0.173273
0.174919
0.101123
0.120635
0.136959
0.149243
0.158653
0.165103
0.169178
0.170939
0.0984695
0.117349
0.133342
0.145659
0.155204
0.161849
0.166071
0.167909
0.0968028
0.115251
0.130997
0.14331
0.152918
0.159677
0.163984
0.16587
0.0960025
0.114236
0.12984
0.14215
0.151779
0.158592
0.162936
0.164848
0.176705
0.150481
0.129778
0.114637
0.103936
0.0963525
0.0909762
0.0871898
0.0845596
0.0827899
0.0816848
0.0811601
0.144307
0.121648
0.106249
0.0954243
0.0880302
0.0829039
0.0793501
0.0768974
0.0752144
0.0740788
0.0733386
0.0729387
0.10609
0.0888534
0.080164
0.0745132
0.0710389
0.068787
0.0673101
0.0663306
0.0656675
0.0652068
0.0648624
0.0646021
0.0706054
0.0602945
0.0574634
0.0559259
0.0555433
0.0555793
0.0557838
0.0560204
0.0562164
0.0563376
0.0563493
0.056225
0.0369214
0.0345099
0.0371321
0.0390378
0.0411819
0.0430587
0.0446309
0.0458805
0.0468142
0.0474514
0.0477962
0.0478179
0.00428129
0.00973839
0.0174637
0.0225913
0.027154
0.0307538
0.0336009
0.0357987
0.0374308
0.0385647
0.0392419
0.0394292
-0.0266871
-0.0138033
-0.00169013
0.00642804
0.0133365
0.0186025
0.0226911
0.0258136
0.0281297
0.0297535
0.0307638
0.0311358
-0.0555802
-0.035966
-0.0203253
-0.00891005
1.40646e-05
0.006815
0.0120557
0.0160509
0.0190194
0.0211159
0.0224457
0.0230196
-0.0815126
-0.0566992
-0.0377721
-0.0236592
-0.0128519
-0.00460529
0.00173162
0.00656027
0.010154
0.0127058
0.0143478
0.0151136
-0.104774
-0.0758511
-0.0540065
-0.0376432
-0.0251113
-0.0155317
-0.0081724
-0.00256136
0.00162066
0.00460121
0.00654045
0.00748539
-0.125484
-0.0933684
-0.0691676
-0.0507791
-0.0366681
-0.0258813
-0.0175808
-0.0112427
-0.00651353
-0.00313515
-0.000922196
0.000190215
-0.143535
-0.109578
-0.0835443
-0.063158
-0.0475545
-0.0356496
-0.0264629
-0.0194437
-0.014206
-0.0104609
-0.0080009
-0.00673836
-0.158692
-0.12445
-0.0968647
-0.0745817
-0.0577175
-0.0448132
-0.0347963
-0.027142
-0.0214319
-0.0173489
-0.0146691
-0.0132789
-0.17253
-0.139719
-0.109925
-0.0855031
-0.0673566
-0.053402
-0.0425638
-0.0343122
-0.0281645
-0.0237746
-0.0209049
-0.0194146
-0.184403
-0.152622
-0.120551
-0.0951782
-0.0762541
-0.0613863
-0.0498035
-0.0409902
-0.0344237
-0.0297449
-0.0267064
-0.025142
-0.208702
-0.171286
-0.133605
-0.105565
-0.0848093
-0.0687351
-0.0564027
-0.0470699
-0.0401352
-0.0352144
-0.032046
-0.0304469
-0.204393
-0.175815
-0.145886
-0.119955
-0.0983271
-0.080893
-0.0672872
-0.0568868
-0.0491333
-0.0436292
-0.0400953
-0.0383444
-0.188164
-0.16776
-0.144625
-0.123297
-0.104476
-0.0886552
-0.0758439
-0.0657661
-0.0581034
-0.0525918
-0.0490265
-0.0472628
-0.168069
-0.152058
-0.134059
-0.117451
-0.102492
-0.0896218
-0.0789057
-0.0702522
-0.0635322
-0.0586225
-0.0554146
-0.0538242
-0.148834
-0.136218
-0.122716
-0.109873
-0.0981086
-0.0878376
-0.0791349
-0.0719862
-0.0663517
-0.0621851
-0.0594396
-0.0580753
-0.131238
-0.121992
-0.112079
-0.102298
-0.0931025
-0.0849012
-0.0778477
-0.0719784
-0.0673035
-0.0638171
-0.0615054
-0.0603536
-0.114994
-0.108673
-0.10162
-0.0943843
-0.0873747
-0.0809647
-0.0753397
-0.0705922
-0.0667714
-0.063899
-0.0619834
-0.0610256
-0.100054
-0.0959763
-0.09117
-0.0860376
-0.0809028
-0.0760776
-0.0717485
-0.0680324
-0.0650031
-0.0627041
-0.0611602
-0.0603853
-0.0865305
-0.0841159
-0.081039
-0.0775949
-0.074015
-0.0705454
-0.0673559
-0.0645651
-0.0622558
-0.0604836
-0.0592844
-0.0586799
-0.0744721
-0.0732912
-0.071533
-0.0694098
-0.0670757
-0.0647182
-0.062484
-0.0604834
-0.0587987
-0.0574891
-0.0565951
-0.0561424
-0.06382
-0.0635427
-0.0627778
-0.0616695
-0.0603115
-0.0588418
-0.0573827
-0.0560327
-0.0548689
-0.0539491
-0.0533142
-0.0529908
-0.0544596
-0.0548221
-0.054787
-0.054442
-0.0538344
-0.0530601
-0.0522175
-0.0513914
-0.0506514
-0.0500513
-0.0496302
-0.0494137
-0.046262
-0.0470568
-0.047539
-0.0477511
-0.047706
-0.0474646
-0.0471023
-0.0466898
-0.0462876
-0.0459444
-0.0456958
-0.045566
-0.0390976
-0.0401673
-0.0409985
-0.0416009
-0.0419627
-0.042117
-0.0421184
-0.0420237
-0.0418842
-0.0417422
-0.0416296
-0.0415683
-0.0328425
-0.0340707
-0.0351209
-0.0359819
-0.0366244
-0.0370603
-0.0373266
-0.0374674
-0.0375249
-0.0375352
-0.0375264
-0.0375173
-0.0273794
-0.0286787
-0.029849
-0.0308652
-0.0316874
-0.0323114
-0.0327601
-0.0330666
-0.0332651
-0.0333858
-0.0334526
-0.033482
-0.0226045
-0.0239116
-0.0251286
-0.0262217
-0.0271443
-0.0278813
-0.0284448
-0.0288589
-0.0291509
-0.0293459
-0.0294641
-0.0295197
-0.0184211
-0.0196889
-0.0208961
-0.0220037
-0.022963
-0.0237519
-0.0243747
-0.0248486
-0.0251949
-0.0254343
-0.0255839
-0.0256558
-0.0147519
-0.0159516
-0.0171114
-0.0181898
-0.0191379
-0.0199304
-0.020567
-0.0210601
-0.021427
-0.0216848
-0.021848
-0.0219269
-0.0115254
-0.0126283
-0.0137045
-0.0147123
-0.0156064
-0.0163613
-0.016974
-0.0174537
-0.0178142
-0.0180699
-0.0182332
-0.0183131
-0.00868453
-0.00969153
-0.0106747
-0.0115925
-0.0124043
-0.0130885
-0.0136437
-0.0140787
-0.0144065
-0.0146397
-0.0147889
-0.014861
-0.00619891
-0.00706678
-0.00791237
-0.00869674
-0.00938759
-0.00996845
-0.0104392
-0.0108082
-0.0110865
-0.0112847
-0.0114121
-0.0114757
-0.00399083
-0.00478759
-0.00552998
-0.00618556
-0.00673693
-0.00718304
-0.00753437
-0.00780472
-0.0080066
-0.00814989
-0.00824151
-0.00828426
-0.00216173
-0.00271678
-0.00322595
-0.00366195
-0.00402037
-0.00430498
-0.004526
-0.00469458
-0.00481987
-0.00490852
-0.00496591
-0.00499864
-0.000465171
-0.00106521
-0.00146645
-0.00171506
-0.00185371
-0.00192295
-0.00195587
-0.00197325
-0.00198511
-0.00199426
-0.00199896
-0.00199495
-0.235261
-0.201549
-0.17444
-0.153447
-0.134223
-0.11669
-0.100882
-0.0867556
-0.0742637
-0.0633049
-0.0537383
-0.0454136
-0.0381829
-0.0319068
-0.0264552
-0.0217135
-0.01758
-0.0139667
-0.0108112
-0.0080222
-0.00564076
-0.00341757
-0.00183815
0.000154525
-0.23825
-0.200228
-0.172816
-0.151902
-0.132261
-0.114411
-0.098509
-0.0844282
-0.0720629
-0.0612749
-0.0518991
-0.0437697
-0.0367283
-0.0306288
-0.0253387
-0.0207418
-0.0167386
-0.0132385
-0.0101889
-0.00747948
-0.00520006
-0.0029865
-0.0016003
0.000642085
-0.236039
-0.196248
-0.170031
-0.149313
-0.129576
-0.111717
-0.0959123
-0.0819882
-0.0698136
-0.059233
-0.0500689
-0.0421459
-0.0352993
-0.0293794
-0.0242523
-0.0198013
-0.0159291
-0.0125433
-0.00959871
-0.00697103
-0.00478734
-0.00258902
-0.00137339
0.00114488
-0.230802
-0.192168
-0.167591
-0.146925
-0.127187
-0.109435
-0.0937717
-0.0800104
-0.0680106
-0.0576077
-0.0486173
-0.0408594
-0.0341664
-0.0283869
-0.0233869
-0.0190498
-0.0152799
-0.0119838
-0.0091218
-0.00655798
-0.00445038
-0.00225604
-0.00118606
0.001637
-0.224246
-0.188316
-0.16516
-0.144497
-0.124902
-0.107362
-0.0918874
-0.0783098
-0.0664895
-0.0562568
-0.0474251
-0.0398129
-0.0332519
-0.0275906
-0.0226961
-0.0184522
-0.0147653
-0.0115413
-0.00874513
-0.00623174
-0.00418398
-0.00198731
-0.00103918
0.00208937
-0.218051
-0.185314
-0.163033
-0.142343
-0.122958
-0.105645
-0.0903569
-0.0769505
-0.0652894
-0.055202
-0.0465017
-0.0390076
-0.0325518
-0.0269837
-0.0221715
-0.018
-0.014377
-0.0112084
-0.00846232
-0.0059873
-0.00398432
-0.0017835
-0.000930948
0.00246813
-0.213346
-0.183307
-0.161439
-0.14074
-0.121553
-0.104424
-0.0892825
-0.0760081
-0.0644657
-0.0544836
-0.0458766
-0.0384648
-0.0320816
-0.0265771
-0.0218208
-0.0176981
-0.0141181
-0.0109867
-0.00827416
-0.00582488
-0.00385154
-0.00164686
-0.000860308
0.00274127
-0.210829
-0.182309
-0.160578
-0.139886
-0.120816
-0.103788
-0.0887275
-0.0755252
-0.0640466
-0.05412
-0.0455616
-0.0381922
-0.031846
-0.0263738
-0.0216456
-0.0175475
-0.0139891
-0.0108763
-0.00818046
-0.00574405
-0.0037854
-0.00157845
-0.000825661
0.0028844
)
;

boundaryField
{
    inlet
    {
        type            zeroGradient;
    }
    outlet
    {
        type            fixedValue;
        value           uniform 0;
    }
    cylinder
    {
        type            zeroGradient;
    }
    top
    {
        type            symmetryPlane;
    }
    bottom
    {
        type            symmetryPlane;
    }
    defaultFaces
    {
        type            empty;
    }
}


// ************************************************************************* //
