/*--------------------------------*- C++ -*----------------------------------*\
  =========                 |
  \\      /  F ield         | OpenFOAM: The Open Source CFD Toolbox
   \\    /   O peration     | Website:  https://openfoam.org
    \\  /    A nd           | Version:  7
     \\/     M anipulation  |
\*---------------------------------------------------------------------------*/
FoamFile
{
    version     2.0;
    format      ascii;
    class       volScalarField;
    location    "70";
    object      p;
}
// * * * * * * * * * * * * * * * * * * * * * * * * * * * * * * * * * * * * * //

dimensions      [0 2 -2 0 0 0 0];

internalField   nonuniform List<scalar> 
8820
(
-0.422992
-0.425848
-0.427295
-0.42811
-0.428643
-0.428972
-0.429151
-0.42919
-0.429055
-0.428676
-0.427977
-0.42689
-0.425388
-0.423513
-0.421395
-0.419262
-0.417414
-0.416163
-0.415743
-0.416146
-0.417098
-0.429693
-0.432856
-0.434577
-0.43571
-0.436631
-0.437408
-0.438083
-0.438648
-0.43904
-0.439154
-0.438859
-0.438019
-0.436522
-0.43431
-0.431417
-0.427993
-0.424306
-0.42072
-0.417587
-0.414972
-0.413074
-0.437145
-0.440514
-0.442468
-0.443911
-0.445227
-0.446477
-0.447687
-0.44883
-0.449817
-0.450505
-0.45071
-0.450221
-0.448832
-0.44637
-0.442748
-0.438007
-0.432356
-0.426198
-0.419982
-0.413834
-0.408628
-0.445331
-0.448788
-0.450926
-0.452658
-0.454368
-0.456103
-0.457874
-0.459634
-0.461269
-0.462601
-0.463392
-0.463357
-0.462187
-0.459586
-0.455324
-0.449301
-0.441627
-0.432707
-0.423036
-0.412742
-0.403584
-0.454186
-0.45761
-0.459873
-0.461864
-0.46395
-0.466166
-0.468503
-0.470897
-0.47321
-0.475229
-0.476665
-0.477162
-0.47631
-0.473683
-0.468897
-0.461681
-0.452005
-0.440213
-0.426765
-0.411713
-0.39786
-0.463604
-0.466873
-0.469196
-0.471404
-0.47383
-0.476503
-0.479388
-0.482404
-0.485389
-0.488098
-0.490198
-0.491262
-0.490788
-0.488224
-0.483027
-0.474743
-0.463165
-0.448508
-0.431113
-0.410899
-0.391665
-0.47344
-0.47644
-0.478754
-0.481127
-0.483854
-0.486925
-0.49031
-0.4939
-0.497512
-0.500869
-0.503596
-0.505205
-0.505108
-0.502641
-0.497113
-0.487892
-0.474575
-0.45719
-0.43593
-0.410606
-0.385588
-0.483524
-0.486153
-0.488387
-0.490858
-0.493807
-0.497218
-0.501029
-0.505115
-0.509267
-0.513182
-0.516443
-0.518511
-0.518722
-0.516314
-0.51047
-0.500403
-0.485524
-0.465648
-0.440865
-0.411041
-0.380209
-0.493666
-0.495843
-0.497928
-0.500425
-0.503517
-0.507174
-0.511311
-0.515782
-0.520354
-0.524694
-0.528349
-0.530731
-0.531114
-0.528653
-0.522432
-0.511542
-0.495233
-0.473125
-0.445305
-0.411867
-0.375024
-0.50368
-0.505345
-0.507218
-0.509662
-0.512804
-0.516601
-0.520947
-0.525669
-0.530511
-0.535113
-0.538987
-0.5415
-0.541869
-0.539188
-0.532462
-0.520696
-0.503028
-0.478931
-0.448585
-0.412355
-0.368659
-0.513388
-0.514509
-0.516112
-0.518425
-0.521519
-0.525338
-0.529758
-0.534585
-0.539536
-0.54422
-0.548118
-0.55056
-0.550708
-0.547608
-0.540214
-0.527474
-0.508475
-0.482607
-0.450106
-0.411384
-0.363727
-0.522642
-0.523209
-0.524497
-0.526602
-0.529546
-0.533267
-0.537625
-0.542404
-0.547294
-0.551878
-0.5556
-0.557779
-0.557494
-0.553776
-0.545537
-0.531702
-0.511345
-0.483904
-0.449575
-0.408625
-0.358619
-0.531321
-0.531354
-0.532292
-0.534117
-0.536814
-0.540319
-0.544479
-0.54906
-0.553729
-0.558041
-0.561412
-0.563105
-0.562206
-0.557687
-0.548444
-0.533402
-0.511675
-0.482773
-0.446837
-0.40443
-0.353614
-0.539356
-0.53889
-0.539454
-0.540938
-0.543298
-0.546474
-0.550309
-0.55455
-0.558847
-0.562726
-0.565574
-0.566619
-0.564926
-0.559442
-0.549056
-0.532722
-0.509624
-0.479371
-0.442116
-0.39894
-0.347864
-0.546716
-0.545802
-0.545981
-0.547071
-0.549016
-0.551764
-0.555158
-0.558934
-0.562722
-0.566026
-0.568203
-0.568448
-0.565807
-0.559211
-0.547566
-0.529877
-0.505432
-0.47397
-0.435721
-0.392196
-0.341306
-0.553418
-0.552116
-0.551907
-0.552564
-0.554027
-0.556263
-0.559115
-0.562317
-0.565481
-0.568085
-0.569459
-0.56877
-0.565043
-0.557208
-0.544207
-0.525128
-0.499389
-0.466891
-0.427995
-0.384449
-0.334267
-0.55952
-0.557891
-0.557299
-0.557494
-0.558427
-0.560082
-0.562313
-0.564848
-0.567288
-0.569086
-0.569541
-0.567793
-0.562853
-0.553666
-0.539231
-0.518749
-0.491803
-0.458471
-0.419291
-0.376075
-0.327134
-0.565117
-0.563217
-0.562251
-0.561968
-0.562335
-0.563359
-0.564906
-0.566702
-0.568334
-0.56923
-0.56866
-0.565737
-0.559467
-0.548827
-0.532899
-0.511026
-0.482982
-0.449022
-0.409917
-0.367395
-0.320146
-0.570333
-0.568205
-0.566877
-0.566108
-0.565889
-0.566249
-0.567066
-0.568067
-0.56882
-0.568728
-0.567029
-0.562819
-0.555108
-0.542928
-0.525473
-0.502248
-0.473225
-0.438814
-0.400049
-0.358426
-0.313134
-0.575314
-0.572985
-0.571303
-0.570047
-0.569233
-0.568912
-0.56897
-0.569129
-0.568939
-0.567774
-0.564845
-0.559236
-0.549983
-0.536201
-0.517222
-0.49273
-0.462872
-0.428164
-0.389806
-0.348798
-0.305465
-0.580214
-0.57769
-0.57566
-0.573922
-0.572514
-0.571504
-0.570782
-0.57006
-0.568864
-0.566541
-0.562276
-0.555158
-0.54428
-0.528866
-0.508417
-0.482804
-0.452327
-0.417552
-0.379622
-0.338635
-0.296986
-0.585189
-0.582456
-0.580076
-0.577861
-0.575866
-0.574165
-0.572647
-0.571004
-0.568736
-0.565161
-0.559452
-0.550727
-0.538162
-0.521131
-0.499319
-0.47279
-0.441978
-0.407502
-0.370363
-0.330083
-0.29002
-0.590384
-0.587406
-0.584669
-0.581982
-0.579406
-0.577014
-0.57468
-0.572071
-0.568656
-0.563728
-0.556468
-0.54605
-0.531772
-0.513181
-0.490163
-0.462957
-0.432106
-0.398278
-0.362373
-0.324317
-0.286981
-0.595928
-0.592653
-0.589541
-0.586384
-0.58323
-0.58014
-0.576964
-0.573333
-0.568683
-0.562297
-0.553385
-0.541212
-0.52523
-0.505179
-0.481139
-0.4535
-0.42288
-0.38996
-0.355584
-0.319798
-0.284786
-0.601923
-0.598284
-0.594776
-0.591144
-0.587408
-0.583605
-0.579546
-0.574822
-0.56884
-0.560887
-0.550235
-0.536274
-0.518635
-0.497257
-0.472392
-0.444541
-0.414358
-0.382507
-0.349748
-0.316186
-0.283703
-0.608443
-0.604369
-0.600435
-0.596317
-0.591986
-0.587441
-0.582443
-0.576539
-0.569117
-0.559491
-0.54703
-0.53128
-0.512064
-0.48951
-0.464009
-0.436131
-0.406522
-0.375802
-0.344624
-0.313121
-0.282802
-0.615535
-0.61095
-0.60656
-0.601937
-0.596985
-0.591652
-0.585641
-0.578455
-0.569478
-0.558084
-0.543767
-0.526257
-0.50557
-0.481997
-0.45603
-0.428262
-0.399301
-0.3697
-0.339998
-0.310331
-0.281948
-0.623216
-0.618051
-0.61317
-0.608017
-0.602407
-0.596223
-0.589106
-0.58052
-0.56987
-0.556622
-0.54043
-0.521216
-0.49918
-0.474741
-0.448448
-0.420883
-0.392593
-0.364048
-0.335682
-0.307624
-0.280865
-0.63148
-0.625671
-0.620267
-0.614552
-0.608232
-0.601116
-0.592778
-0.582663
-0.570223
-0.555054
-0.536992
-0.516153
-0.492896
-0.46773
-0.441223
-0.413915
-0.386278
-0.358702
-0.331519
-0.304851
-0.279472
-0.640296
-0.633791
-0.627834
-0.621519
-0.614423
-0.606272
-0.596582
-0.584798
-0.570459
-0.55332
-0.533417
-0.511048
-0.486697
-0.460927
-0.434288
-0.40726
-0.380237
-0.353527
-0.327379
-0.301903
-0.277677
-0.649611
-0.642371
-0.635834
-0.628874
-0.62092
-0.611612
-0.60042
-0.586823
-0.570486
-0.551353
-0.52966
-0.505866
-0.480544
-0.454272
-0.427558
-0.400813
-0.37435
-0.348404
-0.323152
-0.298695
-0.27544
-0.659349
-0.65135
-0.644209
-0.636552
-0.627641
-0.617033
-0.604177
-0.588626
-0.570209
-0.549079
-0.525666
-0.500558
-0.47438
-0.44769
-0.42094
-0.394465
-0.368503
-0.343224
-0.318748
-0.295163
-0.272726
-0.669411
-0.660643
-0.652877
-0.644461
-0.634477
-0.622407
-0.607718
-0.590081
-0.569524
-0.546421
-0.521374
-0.495066
-0.468133
-0.441095
-0.414333
-0.388108
-0.362591
-0.337894
-0.314091
-0.291253
-0.269514
-0.679673
-0.670142
-0.66173
-0.652481
-0.641289
-0.627585
-0.610893
-0.591054
-0.568326
-0.543298
-0.516716
-0.489318
-0.461725
-0.434396
-0.407638
-0.381642
-0.356518
-0.33233
-0.309113
-0.286924
-0.265786
-0.689985
-0.67971
-0.670632
-0.660464
-0.647913
-0.632393
-0.613539
-0.591408
-0.566506
-0.539624
-0.511615
-0.483237
-0.455068
-0.427496
-0.400754
-0.374967
-0.350194
-0.326455
-0.303758
-0.282138
-0.261529
-0.700171
-0.689182
-0.679415
-0.668229
-0.654158
-0.636641
-0.615484
-0.591001
-0.563956
-0.535311
-0.505992
-0.47674
-0.448073
-0.420301
-0.393586
-0.367994
-0.343538
-0.320204
-0.297976
-0.276864
-0.256731
-0.710027
-0.698369
-0.687884
-0.67557
-0.659809
-0.640123
-0.61655
-0.589695
-0.560567
-0.53027
-0.499761
-0.46974
-0.440647
-0.412716
-0.386042
-0.360637
-0.336477
-0.313517
-0.291723
-0.271073
-0.251384
-0.719324
-0.707051
-0.695815
-0.682252
-0.664634
-0.642629
-0.616562
-0.587352
-0.556232
-0.524409
-0.492836
-0.462147
-0.4327
-0.404652
-0.378035
-0.352819
-0.328943
-0.30634
-0.284957
-0.264741
-0.245479
-0.727814
-0.714988
-0.702963
-0.688026
-0.668391
-0.643944
-0.615349
-0.58384
-0.550848
-0.517638
-0.485128
-0.453873
-0.424143
-0.396021
-0.369486
-0.344468
-0.320876
-0.298622
-0.277642
-0.257844
-0.239008
-0.73523
-0.721918
-0.709063
-0.692625
-0.670833
-0.643859
-0.612747
-0.579034
-0.544312
-0.509867
-0.476552
-0.444832
-0.41489
-0.386743
-0.360321
-0.335518
-0.31222
-0.290322
-0.269744
-0.250361
-0.231964
-0.741292
-0.727567
-0.713837
-0.69578
-0.671716
-0.642176
-0.608602
-0.572818
-0.536531
-0.501009
-0.467023
-0.434941
-0.404863
-0.376744
-0.350472
-0.325911
-0.302926
-0.281397
-0.261234
-0.242273
-0.224342
-0.745716
-0.731653
-0.717003
-0.697221
-0.670807
-0.638708
-0.602776
-0.565085
-0.527414
-0.490982
-0.456463
-0.424124
-0.393989
-0.365956
-0.339877
-0.315592
-0.292948
-0.271812
-0.252083
-0.233566
-0.216138
-0.748218
-0.733893
-0.718281
-0.69669
-0.667887
-0.633287
-0.595143
-0.555738
-0.516879
-0.479711
-0.444798
-0.412311
-0.382201
-0.35432
-0.328485
-0.304515
-0.282242
-0.261527
-0.242257
-0.224219
-0.20734
-0.748519
-0.734008
-0.717401
-0.693943
-0.66276
-0.625767
-0.585596
-0.544694
-0.504856
-0.467128
-0.431964
-0.399441
-0.369445
-0.341785
-0.31625
-0.29264
-0.270773
-0.2505
-0.231707
-0.214181
-0.19789
-0.746359
-0.731735
-0.71411
-0.68876
-0.655254
-0.616022
-0.574044
-0.531882
-0.491281
-0.453176
-0.417906
-0.385463
-0.355675
-0.328311
-0.30314
-0.279941
-0.258517
-0.23871
-0.2204
-0.203369
-0.187626
-0.741494
-0.726831
-0.70818
-0.68095
-0.645224
-0.603954
-0.560419
-0.517246
-0.476106
-0.437808
-0.402581
-0.370338
-0.340854
-0.31387
-0.28913
-0.266401
-0.245471
-0.226176
-0.208389
-0.191817
-0.176306
-0.733709
-0.719079
-0.699411
-0.670352
-0.632558
-0.589486
-0.544667
-0.500747
-0.459294
-0.42099
-0.385957
-0.354036
-0.324959
-0.298439
-0.274204
-0.252007
-0.23163
-0.212918
-0.195754
-0.17975
-0.164069
-0.72282
-0.708292
-0.68764
-0.656842
-0.617175
-0.572572
-0.526758
-0.482361
-0.440824
-0.4027
-0.368013
-0.33654
-0.307974
-0.282008
-0.258359
-0.23676
-0.216997
-0.198928
-0.182362
-0.166697
-0.152092
-0.70868
-0.694323
-0.67274
-0.640332
-0.599026
-0.553187
-0.506684
-0.462081
-0.420688
-0.38293
-0.348741
-0.31784
-0.289902
-0.264578
-0.241603
-0.220672
-0.201587
-0.184199
-0.168242
-0.153129
-0.139598
-0.691181
-0.677062
-0.654626
-0.620773
-0.578095
-0.531337
-0.484454
-0.439918
-0.398895
-0.361687
-0.328144
-0.29793
-0.270774
-0.24618
-0.223936
-0.20375
-0.185407
-0.168748
-0.153468
-0.13902
-0.126456
-0.670254
-0.656442
-0.633253
-0.598154
-0.554397
-0.507051
-0.4601
-0.415901
-0.37547
-0.338995
-0.306263
-0.276899
-0.250546
-0.226807
-0.205388
-0.186018
-0.168477
-0.152603
-0.138061
-0.124324
-0.112678
-0.645878
-0.632439
-0.60862
-0.572501
-0.52798
-0.480384
-0.433677
-0.390077
-0.350454
-0.314902
-0.283121
-0.254721
-0.229305
-0.206501
-0.185993
-0.167506
-0.150829
-0.135795
-0.122038
-0.109037
-0.0983147
-0.618072
-0.605072
-0.580765
-0.543877
-0.498923
-0.451417
-0.405255
-0.362511
-0.323913
-0.289446
-0.258767
-0.231451
-0.207089
-0.185309
-0.16579
-0.148257
-0.132502
-0.118359
-0.105425
-0.0931853
-0.0834076
-0.586899
-0.574401
-0.549768
-0.512386
-0.46734
-0.420247
-0.374919
-0.333282
-0.295911
-0.2627
-0.233263
-0.207153
-0.183951
-0.163285
-0.144833
-0.128319
-0.113543
-0.100336
-0.0882604
-0.0768082
-0.0680027
-0.55246
-0.540529
-0.515751
-0.478174
-0.433356
-0.386966
-0.342784
-0.302491
-0.26654
-0.234745
-0.206686
-0.181899
-0.15996
-0.140495
-0.123183
-0.107752
-0.0940065
-0.0817765
-0.0705893
-0.0599508
-0.0521405
-0.514884
-0.503606
-0.478888
-0.441399
-0.39705
-0.351751
-0.308981
-0.270253
-0.235903
-0.205679
-0.179126
-0.155774
-0.135193
-0.117013
-0.100912
-0.0866225
-0.0739573
-0.0627424
-0.0524719
-0.0426661
-0.0358453
-0.474338
-0.463829
-0.439377
-0.402127
-0.358655
-0.31477
-0.273657
-0.2367
-0.204121
-0.175608
-0.150683
-0.128869
-0.109739
-0.0929221
-0.0781002
-0.0650094
-0.053472
-0.0433104
-0.0339844
-0.0250193
-0.019146
-0.431022
-0.421446
-0.397332
-0.36055
-0.318432
-0.276199
-0.236974
-0.201978
-0.171325
-0.144653
-0.121468
-0.10129
-0.0836942
-0.0683138
-0.0548338
-0.0429966
-0.0326336
-0.0235628
-0.0152069
-0.00708793
-0.00215268
-0.385134
-0.376754
-0.352767
-0.317175
-0.276566
-0.236234
-0.199109
-0.166243
-0.137656
-0.112943
-0.0916008
-0.0731478
-0.0571633
-0.0432862
-0.0312057
-0.0206719
-0.0115235
-0.00356803
0.003806
0.0110499
0.0149161
-0.336905
-0.329768
-0.306519
-0.27213
-0.233282
-0.195085
-0.160247
-0.129663
-0.103265
-0.0806182
-0.061209
-0.0445604
-0.0302574
-0.0179442
-0.00731596
0.00187039
0.0097771
0.0166188
0.0230188
0.0293234
0.0319599
-0.286988
-0.280812
-0.258611
-0.225664
-0.188821
-0.152967
-0.120583
-0.0924127
-0.0683138
-0.0478237
-0.0304273
-0.0156531
-0.00309351
0.00760032
0.016726
0.0245225
0.0311666
0.0369052
0.0423281
0.0476289
0.0492893
-0.235504
-0.230275
-0.209306
-0.178052
-0.143435
-0.110109
-0.0803213
-0.0546766
-0.0329674
-0.0147114
0.000605106
0.0134456
0.0242081
0.0332322
0.0408059
0.0471656
0.0525113
0.0571143
0.0614783
0.0657218
0.067062
-0.182714
-0.178537
-0.158929
-0.129581
-0.0973887
-0.0667444
-0.0396721
-0.0166443
0.00260179
0.0185621
0.0317456
0.0426051
0.0515273
0.0588396
0.0648172
0.069693
0.0736848
0.0770505
0.0801329
0.0830885
0.0840509
-0.12898
-0.125938
-0.107813
-0.0805544
-0.0509516
-0.0231165
0.0011479
0.0214892
0.0382176
0.0518371
0.062849
0.0716938
0.0787449
0.0843156
0.0886676
0.0920291
0.0946217
0.096638
0.0981069
0.0989832
0.100273
-0.0746692
-0.072823
-0.0562952
-0.0312787
-0.00439968
0.0205288
0.0419181
0.0595255
0.0737007
0.0849512
0.0937684
0.100579
0.105741
0.109555
0.112268
0.114105
0.115271
0.115886
0.115874
0.115394
0.115931
-0.0201507
-0.0195432
-0.00471497
0.0179352
0.041989
0.063943
0.0824157
0.097264
0.10887
0.11774
0.124355
0.129126
0.132397
0.13445
0.135525
0.135832
0.135553
0.134752
0.133365
0.131739
0.13128
0.034204
0.0335439
0.0465887
0.0667773
0.0879361
0.106877
0.122417
0.134503
0.143543
0.15004
0.154461
0.157202
0.158591
0.158897
0.158346
0.157137
0.155426
0.153251
0.150582
0.14786
0.146342
0.0880243
0.0860805
0.0972782
0.114939
0.133165
0.149084
0.1617
0.171042
0.177538
0.181686
0.183937
0.184672
0.184202
0.182785
0.180633
0.17793
0.174812
0.171308
0.167416
0.163626
0.161055
0.140943
0.137711
0.14702
0.162118
0.177403
0.190318
0.200045
0.206682
0.210675
0.212514
0.212635
0.211401
0.209111
0.206006
0.202287
0.198125
0.193641
0.188853
0.183788
0.178954
0.175334
0.192597
0.188086
0.195487
0.208015
0.220383
0.23034
0.237234
0.241227
0.242777
0.242364
0.240408
0.237258
0.233195
0.22845
0.22321
0.217633
0.211827
0.205807
0.199615
0.193764
0.189108
0.242635
0.236863
0.24236
0.252342
0.261845
0.268916
0.273057
0.274487
0.273671
0.271078
0.267114
0.262111
0.256338
0.25001
0.243303
0.236364
0.229289
0.222089
0.21482
0.207982
0.202308
0.290715
0.283714
0.287333
0.29482
0.301538
0.30582
0.30731
0.306276
0.303188
0.298504
0.292614
0.285836
0.278423
0.27058
0.26247
0.254229
0.245943
0.237622
0.229327
0.221538
0.214872
0.336507
0.32832
0.33011
0.335181
0.339222
0.340836
0.339797
0.336416
0.331166
0.324494
0.316773
0.308308
0.299339
0.290058
0.280618
0.271143
0.261711
0.25233
0.243067
0.234367
0.226743
0.3797
0.370382
0.370412
0.373172
0.374669
0.373758
0.370332
0.364739
0.357453
0.348908
0.339464
0.329412
0.318979
0.308346
0.297656
0.287023
0.276515
0.266142
0.255972
0.246408
0.237867
0.419999
0.409615
0.407977
0.408556
0.407665
0.404392
0.398739
0.391086
0.381902
0.371614
0.360567
0.349037
0.337243
0.325353
0.3135
0.30179
0.290284
0.278991
0.267979
0.257602
0.248196
0.457132
0.445757
0.442561
0.441112
0.43801
0.43256
0.424856
0.415307
0.40438
0.392488
0.379967
0.367081
0.354036
0.340991
0.328071
0.315372
0.30295
0.290815
0.279029
0.2679
0.257686
0.490845
0.478565
0.473939
0.470636
0.465521
0.458095
0.448533
0.437266
0.42476
0.411418
0.397563
0.383448
0.369271
0.355181
0.341296
0.327702
0.314451
0.301554
0.289069
0.277252
0.266297
0.520913
0.507821
0.501909
0.496945
0.490035
0.480847
0.469633
0.45684
0.442931
0.4283
0.413259
0.398053
0.38287
0.367851
0.353108
0.338719
0.324731
0.311159
0.298051
0.285616
0.273994
0.547132
0.533331
0.526292
0.519877
0.511403
0.500686
0.488037
0.473919
0.458792
0.443042
0.426973
0.410819
0.394762
0.378938
0.363448
0.348368
0.333741
0.319581
0.305932
0.292956
0.280745
0.569328
0.554927
0.546933
0.539291
0.529499
0.517494
0.503639
0.488408
0.472257
0.455566
0.438631
0.42168
0.404888
0.388384
0.372266
0.356603
0.341436
0.326782
0.312676
0.299238
0.286526
0.587354
0.572468
0.563701
0.55507
0.544216
0.531177
0.516353
0.500226
0.483253
0.465805
0.448173
0.430581
0.413195
0.396144
0.379518
0.363385
0.347781
0.332726
0.31825
0.304436
0.291313
0.601091
0.58584
0.576492
0.567118
0.555469
0.541657
0.526107
0.509311
0.491721
0.473706
0.455551
0.437475
0.419644
0.402179
0.385171
0.368681
0.352747
0.337388
0.32263
0.308529
0.29509
0.610451
0.594959
0.585227
0.575365
0.563195
0.548875
0.532849
0.515613
0.497617
0.479228
0.460727
0.442331
0.424203
0.406462
0.389197
0.372468
0.356312
0.340748
0.325798
0.311501
0.297845
0.615376
0.599769
0.589856
0.579765
0.567352
0.552794
0.536546
0.519102
0.500913
0.482345
0.463677
0.445126
0.426852
0.408975
0.391582
0.374731
0.358461
0.34279
0.327742
0.313341
0.299566
0.615841
0.600246
0.590356
0.580296
0.567919
0.553397
0.53718
0.519763
0.501596
0.483045
0.464391
0.445849
0.427582
0.409708
0.392315
0.375463
0.359187
0.34351
0.328453
0.314041
0.30025
0.611849
0.596394
0.586729
0.576963
0.564902
0.550687
0.534755
0.517598
0.499668
0.481331
0.46287
0.444504
0.426394
0.408664
0.3914
0.374663
0.358492
0.342908
0.327933
0.313604
0.299897
0.603436
0.588247
0.579009
0.569794
0.558326
0.544687
0.529292
0.512628
0.495146
0.477218
0.45913
0.441102
0.423302
0.405852
0.388845
0.372343
0.356385
0.340992
0.326191
0.312037
0.298515
0.590669
0.575868
0.567254
0.558843
0.548238
0.535441
0.520831
0.504887
0.488064
0.470737
0.453197
0.43567
0.418327
0.401296
0.384671
0.368519
0.352881
0.337777
0.323241
0.309353
0.296113
0.573645
0.559352
0.55155
0.544187
0.53471
0.523013
0.50943
0.494431
0.478471
0.461931
0.445112
0.428244
0.411503
0.395024
0.378905
0.363218
0.348004
0.333285
0.319101
0.305567
0.292704
0.552491
0.53882
0.532011
0.525929
0.517835
0.507487
0.495166
0.481326
0.466428
0.450859
0.434928
0.418872
0.402876
0.387078
0.371585
0.356472
0.341786
0.327545
0.313799
0.300703
0.288308
0.527365
0.514424
0.508775
0.504196
0.497725
0.488965
0.478131
0.46566
0.452014
0.437592
0.422709
0.407614
0.392498
0.377508
0.362756
0.348325
0.334265
0.320592
0.307367
0.294789
0.282946
0.49845
0.48634
0.482007
0.479135
0.474515
0.467569
0.458436
0.447532
0.435321
0.422212
0.408532
0.394539
0.380434
0.366371
0.352471
0.338825
0.325485
0.312469
0.299844
0.287858
0.276646
0.465959
0.454772
0.451895
0.450917
0.448358
0.443439
0.436208
0.427057
0.416454
0.404817
0.392485
0.379728
0.366757
0.353735
0.340793
0.328028
0.3155
0.303224
0.291274
0.27995
0.269442
0.430129
0.419948
0.41865
0.419734
0.419428
0.41673
0.411588
0.404365
0.39553
0.385512
0.374665
0.36327
0.351549
0.339676
0.32779
0.315999
0.304368
0.292911
0.281709
0.27111
0.26137
0.391222
0.382122
0.382506
0.385797
0.387915
0.387615
0.384732
0.379597
0.372679
0.364418
0.355181
0.345263
0.3349
0.324275
0.313539
0.302807
0.292153
0.281591
0.271203
0.261387
0.252471
0.349522
0.341565
0.343717
0.349337
0.354026
0.35628
0.355811
0.352908
0.34804
0.34166
0.334148
0.325815
0.316908
0.307623
0.298121
0.288528
0.278926
0.269328
0.259818
0.250835
0.242794
0.305334
0.298572
0.302554
0.310599
0.317984
0.322927
0.325005
0.324463
0.321765
0.317376
0.311693
0.30504
0.297677
0.289815
0.281624
0.273243
0.264761
0.256193
0.24762
0.239516
0.232389
0.25898
0.253455
0.259308
0.269846
0.280024
0.287767
0.292507
0.294436
0.294012
0.291711
0.287946
0.283057
0.277318
0.270952
0.264142
0.257037
0.249738
0.242261
0.23468
0.227494
0.221313
0.2108
0.20654
0.214283
0.227355
0.240394
0.251026
0.25852
0.263011
0.264948
0.264817
0.263046
0.259992
0.255945
0.251139
0.24577
0.24
0.23394
0.227611
0.221074
0.214841
0.20963
0.161147
0.158168
0.167796
0.183414
0.199355
0.212935
0.223254
0.230379
0.234746
0.23685
0.237136
0.235976
0.233676
0.230484
0.226608
0.222223
0.217453
0.212324
0.20688
0.201632
0.197409
0.110385
0.108692
0.120177
0.138322
0.157174
0.173736
0.186926
0.196735
0.203583
0.207972
0.210362
0.211142
0.210632
0.209097
0.206755
0.203797
0.200362
0.196482
0.192182
0.187952
0.184726
0.0588849
0.0584721
0.0717623
0.0923842
0.114127
0.133676
0.149759
0.162281
0.171641
0.178347
0.182873
0.185624
0.186937
0.187089
0.186314
0.184815
0.182752
0.180171
0.17707
0.173891
0.171672
0.00702622
0.0078732
0.0228963
0.0459151
0.0704939
0.0930064
0.111978
0.12722
0.139105
0.148142
0.15482
0.159558
0.16271
0.164569
0.165379
0.16536
0.164693
0.163453
0.161617
0.159542
0.15835
-0.0448104
-0.0427367
-0.0260738
-0.000768452
0.0265603
0.0519817
0.0738112
0.0917585
0.106159
0.117524
0.126352
0.13308
0.138075
0.141646
0.144052
0.145523
0.146269
0.146416
0.145948
0.145068
0.144882
-0.0962437
-0.0929915
-0.0747989
-0.0473472
-0.017388
0.0108576
0.0354884
0.0561012
0.07299
0.0866603
0.0976213
0.106323
0.113149
0.118423
0.122416
0.125368
0.127502
0.129013
0.12999
0.130511
0.131278
-0.146893
-0.142531
-0.12293
-0.0935024
-0.0610654
-0.0301113
-0.00276289
0.0204529
0.0397805
0.0557159
0.0687755
0.0794219
0.0880518
0.0950033
0.100564
0.104979
0.108477
0.111326
0.113909
0.116523
0.117548
-0.196375
-0.191002
-0.170122
-0.138919
-0.104189
-0.0706724
-0.0407174
-0.0149842
0.00671284
0.0248548
0.0399621
0.0525076
0.0628997
0.071489
0.0785761
0.084413
0.0892162
0.0932696
0.0970973
0.100913
0.102191
-0.244349
-0.238029
-0.216038
-0.18329
-0.146481
-0.110578
-0.078154
-0.0500121
-0.0260347
-0.00576226
0.011326
0.0257104
0.0378088
0.0479807
0.0565359
0.0637277
0.0697489
0.0748556
0.0796371
0.0843317
0.0856342
-0.290736
-0.283118
-0.260379
-0.226321
-0.187671
-0.149587
-0.114857
-0.0844376
-0.0582882
-0.035978
-0.0169906
-0.000840442
0.0128966
0.0245862
0.0345437
0.0430241
0.0502021
0.0562972
0.0619224
0.0674484
0.0695047
-0.334931
-0.32611
-0.302934
-0.267731
-0.227499
-0.187466
-0.15062
-0.118074
-0.0898794
-0.0656398
-0.0448481
-0.0270171
-0.0117178
0.00141964
0.0127146
0.0224268
0.0307269
0.0378106
0.0442767
0.0505949
0.0537151
-0.376582
-0.366757
-0.34328
-0.307298
-0.26572
-0.223992
-0.185242
-0.150744
-0.120647
-0.0946008
-0.072112
-0.0526948
-0.0359172
-0.0214063
-0.00883936
0.00204901
0.0114355
0.0195049
0.0268217
0.0338783
0.0379181
-0.415458
-0.404778
-0.380977
-0.344831
-0.302108
-0.258951
-0.218535
-0.182278
-0.150438
-0.122721
-0.0986539
-0.0777546
-0.0595904
-0.0437862
-0.0300171
-0.0180128
-0.00758868
0.00143599
0.00958947
0.017357
0.0221883
-0.451342
-0.439936
-0.41599
-0.379684
-0.336596
-0.292142
-0.250321
-0.212518
-0.17911
-0.14987
-0.124353
-0.102085
-0.0826329
-0.0656218
-0.0507256
-0.0376705
-0.026264
-0.0163281
-0.00736726
0.00110573
0.00673979
-0.48404
-0.472004
-0.448138
-0.411934
-0.368552
-0.323508
-0.280438
-0.241317
-0.20653
-0.175928
-0.149099
-0.125582
-0.104948
-0.086822
-0.070878
-0.0568395
-0.0445067
-0.0337038
-0.0239672
-0.0147967
-0.00831554
-0.513398
-0.500797
-0.47721
-0.441443
-0.398078
-0.352604
-0.308766
-0.268545
-0.232576
-0.200783
-0.172791
-0.148153
-0.126448
-0.107303
-0.0903944
-0.0754423
-0.0622402
-0.0506141
-0.0401339
-0.0302865
-0.0229518
-0.53929
-0.52618
-0.503044
-0.468016
-0.425044
-0.37945
-0.335097
-0.294066
-0.25714
-0.22434
-0.195339
-0.169714
-0.147054
-0.126992
-0.109204
-0.0934116
-0.0794009
-0.0669994
-0.0558112
-0.045316
-0.0371522
-0.561626
-0.548068
-0.525532
-0.491509
-0.449288
-0.403938
-0.359361
-0.317789
-0.280135
-0.246515
-0.216668
-0.190194
-0.166699
-0.145824
-0.127247
-0.110691
-0.0959374
-0.0828143
-0.0709592
-0.059848
-0.0508859
-0.580363
-0.56642
-0.544612
-0.511833
-0.470696
-0.425951
-0.38148
-0.339642
-0.301491
-0.267248
-0.236711
-0.209534
-0.185327
-0.163747
-0.144475
-0.127235
-0.111808
-0.0980229
-0.0855483
-0.0738535
-0.0641164
-0.595503
-0.581241
-0.560266
-0.528942
-0.4892
-0.445411
-0.40138
-0.359561
-0.321151
-0.286483
-0.255432
-0.227687
-0.202892
-0.180721
-0.160847
-0.143008
-0.126979
-0.112597
-0.0995608
-0.0873191
-0.0768112
-0.607098
-0.592581
-0.572522
-0.542831
-0.504769
-0.462271
-0.419009
-0.377499
-0.339071
-0.304181
-0.272787
-0.244627
-0.219375
-0.196709
-0.176333
-0.157983
-0.141428
-0.126512
-0.112988
-0.100255
-0.0889534
-0.615246
-0.600539
-0.581451
-0.553534
-0.517402
-0.476511
-0.434338
-0.393428
-0.355229
-0.32032
-0.288754
-0.260327
-0.234744
-0.211703
-0.190922
-0.172145
-0.155142
-0.139754
-0.125818
-0.112695
-0.100595
-0.620089
-0.605262
-0.587174
-0.561127
-0.527135
-0.488139
-0.447365
-0.407341
-0.369617
-0.334896
-0.30333
-0.27478
-0.248992
-0.225687
-0.204599
-0.185484
-0.168119
-0.152342
-0.138002
-0.124618
-0.112
-0.621813
-0.606937
-0.589855
-0.56573
-0.53404
-0.497191
-0.458106
-0.419247
-0.382243
-0.347916
-0.31652
-0.287992
-0.262123
-0.238662
-0.217363
-0.197993
-0.180342
-0.164245
-0.149573
-0.136006
-0.123469
-0.620641
-0.60579
-0.5897
-0.567504
-0.538226
-0.503735
-0.466603
-0.429177
-0.393132
-0.359401
-0.328345
-0.29998
-0.274151
-0.25064
-0.229221
-0.209678
-0.191813
-0.175466
-0.160524
-0.146738
-0.134045
-0.616831
-0.602081
-0.586951
-0.56665
-0.539838
-0.507867
-0.472919
-0.437175
-0.402321
-0.369386
-0.338836
-0.310773
-0.285102
-0.261642
-0.240191
-0.220552
-0.20254
-0.186
-0.170815
-0.156754
-0.143737
-0.610666
-0.596099
-0.581884
-0.563404
-0.539056
-0.509713
-0.477139
-0.443304
-0.409863
-0.377917
-0.348035
-0.320409
-0.295009
-0.271697
-0.2503
-0.230637
-0.212538
-0.195854
-0.180465
-0.166152
-0.152807
-0.602449
-0.588149
-0.574795
-0.558032
-0.536093
-0.509425
-0.479372
-0.447642
-0.415819
-0.385048
-0.355993
-0.328935
-0.303915
-0.280845
-0.259582
-0.239966
-0.221842
-0.205067
-0.189529
-0.17503
-0.161414
-0.592498
-0.578548
-0.566
-0.550824
-0.531188
-0.507185
-0.479745
-0.450284
-0.420263
-0.390845
-0.362769
-0.336406
-0.311872
-0.289132
-0.26808
-0.24858
-0.230492
-0.213684
-0.198054
-0.183432
-0.169612
-0.581133
-0.567618
-0.555822
-0.542086
-0.524607
-0.503199
-0.478409
-0.451336
-0.42328
-0.395378
-0.368427
-0.342882
-0.318936
-0.296613
-0.275845
-0.256527
-0.238535
-0.22175
-0.20608
-0.191385
-0.177423
-0.568671
-0.555673
-0.544579
-0.53213
-0.516628
-0.497692
-0.47553
-0.450919
-0.42496
-0.398722
-0.373036
-0.348429
-0.325169
-0.303343
-0.282931
-0.263856
-0.246017
-0.229307
-0.213643
-0.198918
-0.184873
-0.55542
-0.543016
-0.532581
-0.521268
-0.507541
-0.490906
-0.471293
-0.449168
-0.425401
-0.400957
-0.376665
-0.35311
-0.330633
-0.309385
-0.289395
-0.270621
-0.252986
-0.2364
-0.220786
-0.206069
-0.191993
-0.541667
-0.529928
-0.52012
-0.5098
-0.497637
-0.483095
-0.465898
-0.446228
-0.424707
-0.402161
-0.379383
-0.356991
-0.33539
-0.314798
-0.295294
-0.276876
-0.259494
-0.243077
-0.227555
-0.212877
-0.198813
-0.527679
-0.516665
-0.50746
-0.498006
-0.487196
-0.474517
-0.459554
-0.442253
-0.42299
-0.402417
-0.381256
-0.360133
-0.339502
-0.319641
-0.300687
-0.282678
-0.265596
-0.249387
-0.233994
-0.219385
-0.20537
-0.513692
-0.503452
-0.494836
-0.486139
-0.476484
-0.465424
-0.452478
-0.437409
-0.420364
-0.401805
-0.382346
-0.36259
-0.343021
-0.323972
-0.305632
-0.288084
-0.271344
-0.255383
-0.240154
-0.225637
-0.211701
-0.499913
-0.490484
-0.482448
-0.474421
-0.465741
-0.456059
-0.444887
-0.431867
-0.41695
-0.400405
-0.382709
-0.36441
-0.345996
-0.327839
-0.31018
-0.293149
-0.276795
-0.261118
-0.246084
-0.231681
-0.21785
-0.486513
-0.477918
-0.470461
-0.463034
-0.455176
-0.446642
-0.43699
-0.425801
-0.412875
-0.398298
-0.382397
-0.365629
-0.34846
-0.331283
-0.314379
-0.297923
-0.282002
-0.266646
-0.25184
-0.237568
-0.223863
-0.473629
-0.465879
-0.459001
-0.452126
-0.44496
-0.437369
-0.428985
-0.419382
-0.408265
-0.395567
-0.381456
-0.366276
-0.350437
-0.33433
-0.318264
-0.302452
-0.287017
-0.272022
-0.257476
-0.243353
-0.229788
-0.461365
-0.45446
-0.448161
-0.441803
-0.435228
-0.428402
-0.421046
-0.412776
-0.403253
-0.392295
-0.379928
-0.366366
-0.351936
-0.336995
-0.32186
-0.306771
-0.291888
-0.2773
-0.26305
-0.249095
-0.235681
-0.449793
-0.443721
-0.438003
-0.432138
-0.426076
-0.419865
-0.413322
-0.406132
-0.397964
-0.38857
-0.377857
-0.365909
-0.352949
-0.33927
-0.325172
-0.310904
-0.296652
-0.282533
-0.268622
-0.254855
-0.2416
-0.438956
-0.4337
-0.428558
-0.423169
-0.417561
-0.411844
-0.405927
-0.399581
-0.39252
-0.384479
-0.375286
-0.36491
-0.353457
-0.341134
-0.328188
-0.314859
-0.301341
-0.287768
-0.274254
-0.260703
-0.247613
-0.428877
-0.424411
-0.419836
-0.414907
-0.409708
-0.40439
-0.398942
-0.393226
-0.38703
-0.380112
-0.372268
-0.363377
-0.353436
-0.342544
-0.330873
-0.31862
-0.305966
-0.293047
-0.280008
-0.266716
-0.25379
-0.419562
-0.415857
-0.411832
-0.407343
-0.402514
-0.397519
-0.392413
-0.387145
-0.381588
-0.375559
-0.36886
-0.361325
-0.352858
-0.34345
-0.333173
-0.322149
-0.310521
-0.2984
-0.285949
-0.272978
-0.26024
-0.411012
-0.408033
-0.404533
-0.400458
-0.39596
-0.391227
-0.386361
-0.381389
-0.376271
-0.370903
-0.365132
-0.358785
-0.351708
-0.343798
-0.335016
-0.325385
-0.314975
-0.30384
-0.292139
-0.2796
-0.267054
-0.403235
-0.400937
-0.397925
-0.39423
-0.390023
-0.385496
-0.380787
-0.375988
-0.371142
-0.366229
-0.361165
-0.355811
-0.349994
-0.343545
-0.336323
-0.328239
-0.319265
-0.309358
-0.298639
-0.286701
-0.274484
-0.396243
-0.394575
-0.392004
-0.388645
-0.384684
-0.380311
-0.375692
-0.370969
-0.366257