/*--------------------------------*- C++ -*----------------------------------*\
  =========                 |
  \\      /  F ield         | OpenFOAM: The Open Source CFD Toolbox
   \\    /   O peration     | Website:  https://openfoam.org
    \\  /    A nd           | Version:  7
     \\/     M anipulation  |
\*---------------------------------------------------------------------------*/
FoamFile
{
    version     2.0;
    format      ascii;
    class       surfaceScalarField;
    location    "70";
    object      phi;
}
// * * * * * * * * * * * * * * * * * * * * * * * * * * * * * * * * * * * * * //

dimensions      [0 3 -1 0 0 0 0];

internalField   nonuniform List<scalar> 
17388
(
-7.72926e-06
3.66998e-06
4.05927e-06
-2.6685e-05
-2.59431e-05
4.48988e-05
-5.45544e-05
-8.08082e-05
0.000108678
-8.97583e-05
-0.000151385
0.000186589
-0.000131074
-0.000230881
0.000272196
-0.000177364
-0.000315726
0.000362016
-0.000227379
-0.000405433
0.000455449
-0.000279633
-0.000501981
0.000554235
-0.000332337
-0.00060883
0.000661534
-0.000383356
-0.000729818
0.000780838
-0.000430161
-0.000868145
0.000914949
-0.000469768
-0.00102551
0.00106512
-0.000498703
-0.0012014
0.00123034
-0.000513035
-0.00139239
0.00140672
-0.000508562
-0.00159147
0.001587
-0.000481229
-0.00178757
0.00176023
-0.000427808
-0.00196547
0.00191205
-0.000346727
-0.00210691
0.00202583
-0.000238658
-0.00219334
0.00208528
-0.000106785
-0.00221005
0.00207818
-0.00214944
0.00199753
4.51279e-05
-8.39549e-06
1.20655e-05
-2.91058e-05
-5.2328e-06
-5.96313e-05
-5.02828e-05
-9.82103e-05
-0.000112806
-0.000143473
-0.000185617
-0.000194214
-0.000264984
-0.000249221
-0.000350427
-0.000307167
-0.000444036
-0.000366536
-0.00054946
-0.000425559
-0.000670796
-0.000482114
-0.00081159
-0.000533612
-0.000974014
-0.000576877
-0.00115814
-0.000608073
-0.00136119
-0.000622766
-0.00157678
-0.000616227
-0.00179411
-0.000584076
-0.00199762
-0.000523242
-0.00216775
-0.000432939
-0.00228365
-0.000315403
-0.00232759
-0.00228863
-0.000176214
-8.74524e-06
2.08107e-05
-3.04898e-05
1.65117e-05
-6.2653e-05
-1.81196e-05
-0.000103344
-7.21144e-05
-0.000151073
-0.000137888
-0.000204578
-0.00021148
-0.000262692
-0.000292313
-0.000324255
-0.000382472
-0.000388044
-0.000485672
-0.000452681
-0.000606159
-0.000516517
-0.000747754
-0.000577469
-0.000913062
-0.000632839
-0.00110277
-0.000679143
-0.00131489
-0.000712033
-0.00154389
-0.000726438
-0.0017797
-0.000717074
-0.00200699
-0.00067944
-0.00220538
-0.000611189
-0.0023519
-0.000513685
-0.00242509
-0.0024092
-0.000393115
-8.74341e-06
2.95541e-05
-3.07242e-05
3.84926e-05
-6.34048e-05
1.4561e-05
-0.000104832
-3.06876e-05
-0.000153423
-8.92964e-05
-0.000207867
-0.000157036
-0.000267033
-0.000233147
-0.000329909
-0.000319596
-0.000395539
-0.000420042
-0.000462929
-0.000538768
-0.000530919
-0.000679764
-0.000598001
-0.000845979
-0.000662109
-0.00103866
-0.000720375
-0.00125662
-0.000768925
-0.00149534
-0.000802823
-0.0017458
-0.000816357
-0.00199345
-0.000803942
-0.0022178
-0.000761782
-0.00239406
-0.000690055
-0.00249682
-0.0025046
-0.000594655
-8.37965e-06
3.79338e-05
-2.97697e-05
5.98826e-05
-6.18107e-05
4.6602e-05
-0.000102553
1.00547e-05
-0.000150359
-4.14908e-05
-0.000203864
-0.00010353
-0.00026195
-0.000175062
-0.000323709
-0.000257837
-0.000388397
-0.000355354
-0.000455347
-0.000471819
-0.000523843
-0.000611268
-0.000592959
-0.000776863
-0.000661337
-0.000970282
-0.000726925
-0.00119104
-0.000786681
-0.00143558
-0.000836326
-0.00169616
-0.000870336
-0.00195944
-0.000882585
-0.00220555
-0.000868086
-0.00240856
-0.000825461
-0.00253944
-0.00257123
-0.000758829
-7.66999e-06
4.56038e-05
-2.76671e-05
7.98796e-05
-5.79337e-05
7.68687e-05
-9.66063e-05
4.87273e-05
-0.000142011
3.91397e-06
-0.000192741
-5.28004e-05
-0.000247649
-0.000120153
-0.000305874
-0.000199613
-0.000366799
-0.000294428
-0.000429989
-0.000408629
-0.000495081
-0.000546176
-0.000561643
-0.0007103
-0.000628998
-0.000902927
-0.000695971
-0.00112406
-0.000760566
-0.00137099
-0.000819576
-0.00163715
-0.000868265
-0.00191076
-0.000900581
-0.00217323
-0.000910659
-0.00239848
-0.000895092
-0.00255501
-0.00261204
-0.000854282
-6.65496e-06
5.22587e-05
-2.45301e-05
9.77547e-05
-5.19795e-05
0.000104318
-8.72897e-05
8.40374e-05
-0.000128806
4.54299e-05
-0.000175047
-6.55895e-06
-0.000224822
-7.0378e-05
-0.000277247
-0.000147188
-0.00033174
-0.000239934
-0.00038798
-0.000352389
-0.000445815
-0.000488341
-0.000505165
-0.000650951
-0.000565881
-0.000842211
-0.000627559
-0.00106239
-0.000689241
-0.0013093
-0.000748973
-0.00157742
-0.000803234
-0.00185649
-0.000846629
-0.00212984
-0.000872757
-0.00237235
-0.000875862
-0.00255191
-0.00263672
-0.000851187
-5.39609e-06
5.76548e-05
-2.05379e-05
0.000112897
-4.42727e-05
0.000128053
-7.50994e-05
0.000114864
-0.000111403
8.17336e-05
-0.000151658
3.36964e-05
-0.000194585
-2.74518e-05
-0.000239221
-0.000102552
-0.000284934
-0.000194222
-0.000331394
-0.000305929
-0.000378514
-0.000441222
-0.000426371
-0.000603093
-0.000475128
-0.000793454
-0.000524899
-0.00101261
-0.000575541
-0.00125866
-0.000626256
-0.0015267
-0.00067492
-0.00180783
-0.000717305
-0.00208745
-0.000746994
-0.00234266
-0.000756117
-0.00254278
-0.00265795
-0.000734889
-3.97015e-06
6.1625e-05
-1.59184e-05
0.000124845
-3.52297e-05
0.000147364
-6.0661e-05
0.000140295
-9.06722e-05
0.000111745
-0.000123706
6.67303e-05
-0.00015837
7.21193e-06
-0.000193594
-6.73287e-05
-0.000228612
-0.000159203
-0.00026299
-0.000271551
-0.000296564
-0.000407648
-0.000329391
-0.000570265
-0.000361704
-0.000761141
-0.000393831
-0.000980487
-0.000426089
-0.0012264
-0.000458512
-0.00149428
-0.0004903
-0.00177604
-0.000518808
-0.00205894
-0.000538559
-0.00232291
-0.000541178
-0.00254016
-0.00268681
-0.000512318
-2.46203e-06
6.4087e-05
-1.09289e-05
0.000133312
-2.53263e-05
0.000161762
-4.4696e-05
0.000159665
-6.76026e-05
0.000134651
-9.24654e-05
9.15931e-05
-0.00011781
3.25562e-05
-0.000142384
-4.2754e-05
-0.000165271
-0.000136317
-0.000185847
-0.000250974
-0.000203768
-0.000389727
-0.000218929
-0.000555105
-0.000231433
-0.000748637
-0.00024155
-0.00097037
-0.000249696
-0.00121826
-0.000256309
-0.00148767
-0.000261566
-0.00177079
-0.000264522
-0.00205599
-0.000260332
-0.0023271
-0.000245544
-0.00255495
-0.00272468
-0.000207668
-9.57791e-07
6.50448e-05
-5.8349e-06
0.000138189
-1.50598e-05
0.000170987
-2.79625e-05
0.000172568
-4.32333e-05
0.000149922
-5.92909e-05
0.000107651
-7.45614e-05
4.78267e-05
-8.76428e-05
-2.96726e-05
-9.74071e-05
-0.000126553
-0.000103003
-0.000245378
-0.000103832
-0.000388898
-9.95244e-05
-0.000559413
-8.9963e-05
-0.000758198
-7.51562e-05
-0.000985176
-5.53753e-05
-0.00123804
-3.10757e-05
-0.00151196
-2.74846e-06
-0.00179911
2.95821e-05
-0.00208832
6.64961e-05
-0.00236401
0.000122295
-0.00261075
-0.00277226
0.000169873
4.65872e-07
6.45789e-05
-8.88613e-07
0.000139543
-4.91078e-06
0.000175009
-1.11977e-05
0.000178855
-1.85725e-05
0.000157297
-2.5469e-05
0.000114547
-3.02265e-05
5.25842e-05
-3.12876e-05
-2.86115e-05
-2.73026e-05
-0.000130538
-1.71675e-05
-0.000255513
-1.02914e-08
-0.000406055
2.48378e-05
-0.000584261
5.7949e-05
-0.000791309
9.94367e-05
-0.00102666
0.000149255
-0.00128786
0.000207011
-0.00156972
0.000272015
-0.00186412
0.000343702
-0.00216001
0.000423929
-0.00244424
0.000511059
-0.00269788
-0.00288571
0.000624509
1.73699e-06
6.28419e-05
3.68705e-06
0.000137593
4.69185e-06
0.000174004
4.933e-06
0.000178614
5.46388e-06
0.000156766
7.83559e-06
0.000112176
1.37839e-05
4.66359e-05
2.50279e-05
-3.98555e-05
4.31414e-05
-0.000148651
6.95254e-05
-0.000281897
0.000105365
-0.000441894
0.000151649
-0.000630545
0.000209076
-0.000848737
0.000278124
-0.00109571
0.000358807
-0.00136854
0.000450663
-0.00166158
0.000552749
-0.0019662
0.000663903
-0.00227116
0.000783178
-0.00256352
0.000911195
-0.0028259
-0.00303856
0.00106404
2.80804e-06
6.00339e-05
7.71961e-06
0.000132682
1.34037e-05
0.00016832
1.98934e-05
0.000172124
2.81502e-05
0.000148509
3.97093e-05
0.000100617
5.63854e-05
2.99598e-05
8.00619e-05
-6.3532e-05
0.000112554
-0.000181143
0.000155533
-0.000324876
0.000210501
-0.000496863
0.000278721
-0.000698764
0.000361126
-0.000931142
0.000458213
-0.0011928
0.000569857
-0.00148019
0.000695196
-0.00178692
0.000832641
-0.00210365
0.000980039
-0.00241856
0.00113493
-0.00271841
0.00129732
-0.00298828
-0.00321723
0.00147599
3.64771e-06
5.63862e-05
1.10934e-05
0.000125236
2.09849e-05
0.000158428
3.32948e-05
0.000159814
4.89409e-05
0.000132863
6.94744e-05
8.0083e-05
9.6797e-05
2.6372e-06
0.000132975
-9.97104e-05
0.000180061
-0.000228228
0.000240014
-0.000384829
0.000314608
-0.000571457
0.000405311
-0.000789467
0.000513115
-0.00103895
0.000638326
-0.00131801
0.000780332
-0.00162219
0.00093747
-0.00194405
0.00110708
-0.00227326
0.00128581
-0.00259729
0.00146996
-0.00290256
0.00165772
-0.00317604
-0.00341152
0.00185201
4.24613e-06
5.21401e-05
1.37596e-05
0.000115722
2.73223e-05
0.000144866
4.49486e-05
0.000142188
6.75801e-05
0.000110232
9.68234e-05
5.08397e-05
0.000134716
-3.52553e-05
0.000183495
-0.000148489
0.000245472
-0.000290205
0.000322865
-0.000462222
0.000417651
-0.000666243
0.000531357
-0.000903173
0.000664789
-0.00117238
0.000817733
-0.00147095
0.000988685
-0.00179314
0.00117477
-0.00213014
0.00137193
-0.00247042
0.00157546
-0.00280082
0.00178058
-0.00310768
0.00198416
-0.00337961
-0.00361231
0.00218494
4.61508e-06
4.7525e-05
1.57396e-05
0.000104598
3.2438e-05
0.000128167
5.48761e-05
0.00011975
8.41009e-05
8.10067e-05
0.000121837
1.31034e-05
0.00017028
-8.36985e-05
0.000231887
-0.000210096
0.0003092
-0.000367518
0.000404636
-0.000557658
0.000520239
-0.000781846
0.00065736
-0.00104029
0.000816281
-0.0013313
0.000995845
-0.00165052
0.00119323
-0.00199053
0.00140401
-0.00234092
0.00162258
-0.00268899
0.00184294
-0.00302118
0.00205967
-0.00332442
0.0022692
-0.00358914
-0.00381141
0.0024683
4.78677e-06
4.27382e-05
1.71225e-05
9.22622e-05
3.64883e-05
0.000108801
6.33108e-05
9.29272e-05
9.88315e-05
4.54861e-05
0.000144964
-3.3029e-05
0.000204107
-0.000142841
0.000278944
-0.000284933
0.000372207
-0.000460782
0.000486391
-0.000671842
0.000623383
-0.000918837
0.00078402
-0.00120093
0.000967629
-0.00151491
0.00117166
-0.00185455
0.00139159
-0.00221046
0.00162125
-0.00257058
0.00185364
-0.00292137
0.00208184
-0.00324938
0.00230053
-0.00354311
0.00250638
-0.00379499
-0.0040018
0.00269677
4.8111e-06
3.79271e-05
1.80584e-05
7.90149e-05
3.97517e-05
8.71081e-05
7.06814e-05
6.19975e-05
0.000112374
3.79399e-06
0.000167
-8.76552e-05
0.000237201
-0.000213043
0.000325866
-0.000373599
0.000435824
-0.000570739
0.00056944
-0.000805458
0.000728121
-0.00107752
0.000911761
-0.00138457
0.00111826
-0.0017214
0.00134326
-0.00207955
0.00158035
-0.00244755
0.00182172
-0.00281195
0.00205933
-0.00315898
0.00228604
-0.00347609
0.00249753
-0.0037546
0.00269117
-0.00398863
-0.0041778
0.00286716
4.75153e-06
3.31756e-05
1.87446e-05
6.50218e-05
4.26029e-05
6.32498e-05
7.7569e-05
2.70313e-05
0.00012554
-4.41773e-05
0.000188995
-0.00015111
0.000270831
-0.000294879
0.000374075
-0.000476842
0.000501476
-0.00069814
0.000654972
-0.000958954
0.000835068
-0.00125761
0.00104024
-0.00158974
0.00126651
-0.00194768
0.00150754
-0.00232057
0.00175508
-0.0026951
0.00200016
-0.00305703
0.00223438
-0.0033932
0.00245108
-0.00369279
0.00264738
-0.00395089
0.00282149
-0.00416274
-0.00433581
0.0029795
4.67939e-06
2.84962e-05
1.94069e-05
5.02943e-05
4.54756e-05
3.71812e-05
8.46495e-05
-1.21426e-05
0.000139253
-9.87812e-05
0.000212109
-0.000223965
0.000306326
-0.000389096
0.000424931
-0.000595448
0.000570329
-0.000843538
0.000743634
-0.00113226
0.000943973
-0.00145795
0.00116795
-0.00181371
0.00140948
-0.00218922
0.00166026
-0.00257135
0.00191074
-0.00294558
0.00215156
-0.00329785
0.00237495
-0.00361659
0.00257558
-0.00389342
0.00275141
-0.00412672
0.00289898
-0.00431031
-0.00447266
0.00303584
4.66678e-06
2.38294e-05
2.02762e-05
3.46849e-05
4.88131e-05
8.64423e-06
9.26046e-05
-5.59341e-05
0.000154431
-0.000160608
0.000237438
-0.000306972
0.000344844
-0.000496502
0.000479447
-0.000730051
0.000642949
-0.00100704
0.000835182
-0.00132449
0.00105344
-0.00167621
0.00129214
-0.00205242
0.00154313
-0.0024402
0.00179654
-0.00282476
0.00204233
-0.00319136
0.00227177
-0.00352729
0.00247872
-0.00382354
0.0026603
-0.00407501
0.00281628
-0.0042827
0.00294557
-0.00443961
-0.00458541
0.00305832
4.77929e-06
1.90501e-05
2.15632e-05
1.79009e-05
5.30192e-05
-2.28117e-05
0.000102042
-0.000104957
0.000171854
-0.00023042
0.000265841
-0.000400958
0.000387143
-0.000617804
0.000538019
-0.000880927
0.000719037
-0.00118806
0.00092829
-0.00153374
0.00116089
-0.00190881
0.00140903
-0.00230056
0.0016628
-0.00269397
0.00191159
-0.00307355
0.00214579
-0.00342556
0.00235825
-0.00373976
0.00254518
-0.00401047
0.00270636
-0.00423619
0.00284398
-0.00442031
0.00296619
-0.00456182
-0.00469434
0.00307512
5.0694e-06
1.39807e-05
2.34375e-05
-4.67145e-07
5.84111e-05
-5.77854e-05
0.000113419
-0.000159965
0.000192055
-0.000309056
0.00029779
-0.000506694
0.000433421
-0.000753435
0.000600274
-0.00104778
0.000797342
-0.00138513
0.0010206
-0.001757
0.00126285
-0.00215106
0.00151432
-0.00255204
0.00176404
-0.00294369
0.00200157
-0.00331109
0.00221871
-0.0036427
0.00241059
-0.00393163
0.002576
-0.00417588
0.00271711
-0.00437729
0.00283833
-0.00454154
0.00294708
-0.00467057
-0.00479156
0.0030443
5.57125e-06
8.40948e-06
2.60125e-05
-2.09084e-05
6.51896e-05
-9.69625e-05
0.000126992
-0.000221768
0.00021525
-0.000397313
0.000333296
-0.000624739
0.000483238
-0.000903376
0.000665052
-0.00122959
0.000875751
-0.00159582
0.00110899
-0.00199024
0.00135541
-0.00239748
0.00160387
-0.0028005
0.00184323
-0.00318305
0.00206419
-0.00353205
0.00226067
-0.00383918
0.00243038
-0.00410134
0.00257456
-0.00432006
0.00269728
-0.0045
0.00280409
-0.00464835
0.00290239
-0.00476887
-0.00488479
0.00299562
6.30178e-06
2.1077e-06
2.93342e-05
-4.39408e-05
7.34245e-05
-0.000141053
0.000142795
-0.000291138
0.00024132
-0.000495838
0.000371897
-0.000755317
0.000535558
-0.00106704
0.000730522
-0.00142456
0.000951548
-0.00181685
0.00119
-0.00222869
0.00143483
-0.00264231
0.00167434
-0.00304001
0.00189816
-0.00340687
0.00209892
-0.0037328
0.00227305
-0.00401331
0.00242077
-0.00424906
0.00254533
-0.00444462
0.00265198
-0.00460666
0.00274671
-0.00474309
0.00283648
-0.00485864
-0.00497216
0.00292385
7.25849e-06
-5.15079e-06
3.33932e-05
-7.00755e-05
8.30619e-05
-0.000190722
0.000160652
-0.000368728
0.00026983
-0.000605017
0.000412716
-0.000898203
0.000588867
-0.00124319
0.000794409
-0.0016301
0.00102177
-0.00204421
0.00126032
-0.00246724
0.00149804
-0.00288003
0.00172358
-0.00326555
0.00192818
-0.00361148
0.00210688
-0.00391149
0.00225865
-0.00416508
0.00238584
-0.00437626
0.0024931
-0.00455188
0.00258625
-0.0046998
0.00267116
-0.004828
0.00275391
-0.0049414
-0.00505531
0.00283706
8.42576e-06
-1.35765e-05
3.81292e-05
-9.97789e-05
9.39442e-05
-0.000246537
0.000180212
-0.000454996
0.000300099
-0.000724903
0.000454569
-0.00105267
0.000641341
-0.00142996
0.000854256
-0.00184302
0.00108354
-0.00227349
0.00131717
-0.00270087
0.00154296
-0.00310582
0.00175079
-0.00347337
0.00193409
-0.00379478
0.00209043
-0.00406783
0.00222106
-0.00429571
0.00232994
-0.00448514
0.00242248
-0.00464442
0.00250452
-0.00478184
0.00258142
-0.00490491
0.00265834
-0.00501831
-0.00513407
0.0027371
9.77892e-06
-2.33555e-05
4.34464e-05
-0.000133446
0.000105836
-0.000308926
0.000200998
-0.000550158
0.000331264
-0.000855169
0.000496079
-0.00121749
0.000691039
-0.00162492
0.000907685
-0.00205966
0.00113444
-0.00250025
0.00135859
-0.00292502
0.00156867
-0.00331591
0.00175643
-0.00366114
0.00191779
-0.00395613
0.00205268
-0.00420272
0.00216417
-0.00440721
0.00225723
-0.0045782
0.0023375
-0.00472468
0.00241044
-0.00485478
0.00248072
-0.00497519
0.00255247
-0.00509007
-0.00520866
0.00262707
1.12885e-05
-3.46439e-05
4.92272e-05
-0.000171385
0.000118452
-0.000378151
0.000222447
-0.000654153
0.000362364
-0.000995087
0.000535799
-0.00139092
0.000736073
-0.00182519
0.00095262
-0.00227621
0.00117263
-0.00272026
0.00138353
-0.00313592
0.0015753
-0.00350768
0.00174197
-0.00382781
0.00188189
-0.00409606
0.00199703
-0.00431786
0.00209172
-0.0045019
0.00217138
-0.00465786
0.00224148
-0.00479478
0.00230687
-0.00492016
0.00237142
-0.00503974
0.00243836
-0.00515701
-0.00527884
0.00250854
1.2923e-05
-4.75669e-05
5.53412e-05
-0.000213803
0.000131476
-0.000454286
0.000243948
-0.000766625
0.000392398
-0.00114354
0.000572316
-0.00157084
0.000774759
-0.00202764
0.000987443
-0.00248889
0.00119704
-0.00292986
0.00139187
-0.00333074
0.00156388
-0.00367969
0.00170952
-0.00397345
0.00182933
-0.00421587
0.00192682
-0.00441534
0.00200704
-0.00458213
0.00207546
-0.00472628
0.00213706
-0.00485638
0.00219597
-0.00497907
0.0022553
-0.00509907
0.0023175
-0.00521921
-0.00534436
0.00238302
1.46505e-05
-6.22174e-05
6.16516e-05
-0.000260804
0.000144575
-0.000537209
0.000264875
-0.000886925
0.000420382
-0.00129904
0.000604338
-0.0017548
0.000805722
-0.00222902
0.00101108
-0.00269425
0.00120731
-0.00312609
0.00138423
-0.00350766
0.00153606
-0.00383152
0.00166155
-0.00409894
0.00176304
-0.00431736
0.00184506
-0.00449736
0.00191296
-0.00465003
0.00197189
-0.00478521
0.00202622
-0.00491071
0.00207935
-0.00503219
0.00213369
-0.00515341
0.00219103
-0.00527655
-0.00540486
0.00225154
1.64385e-05
-7.86559e-05
6.80174e-05
-0.000312383
0.00015741
-0.000626602
0.000284611
-0.00101413
0.0004454
-0.00145983
0.000630771
-0.00194017
0.000827971
-0.00242622
0.00102303
-0.00288931
0.00120372
-0.00330678
0.00136182
-0.00366575
0.00149385
-0.00396355
0.0016006
-0.00420569
0.00168574
-0.0044025
0.00175438
-0.004566
0.00181177
-0.00470742
0.00186257
-0.00483601
0.00191047
-0.00495861
0.00195818
-0.0050799
0.00200754
-0.00520277
0.00205983
-0.00532884
-0.00546003
0.00211499
1.82535e-05
-9.69094e-05
7.42942e-05
-0.000368424
0.000169643
-0.000721951
0.000302565
-0.00114705
0.000466644
-0.00162391
0.000650763
-0.00212429
0.000840925
-0.00261638
0.00102329
-0.00307167
0.00118708
-0.00347057
0.00132621
-0.00380489
0.00143941
-0.00407675
0.0015291
-0.00429537
0.00159984
-0.00447325
0.00165692
-0.00462307
0.00170526
-0.00475576
0.00174891
-0.00487966
0.00179091
-0.00500061
0.00183336
-0.00512235
0.00187763
-0.00524704
0.00192459
-0.0053758
-0.00550952
0.00197409
2.00604e-05
-0.00011697
8.03359e-05
-0.000428699
0.000180945
-0.00082256
0.0003182
-0.0012843
0.000483448
-0.00178916
0.000663742
-0.00230458
0.000844403
-0.00279704
0.00101232
-0.00323959
0.00115854
-0.00361679
0.00127918
-0.00392553
0.00137486
-0.00417243
0.00144924
-0.00436975
0.00150738
-0.00453139
0.00155442
-0.00467012
0.00159482
-0.00479615
0.00163199
-0.00491683
0.00166836
-0.00503698
0.00170554
-0.00515953
0.00174453
-0.00528603
0.00178591
-0.00541718
-0.00555307
0.00182945
2.18225e-05
-0.000138792
8.59967e-05
-0.000492874
0.000191005
-0.000927568
0.000331049
-0.00142435
0.000495314
-0.00195342
0.000669419
-0.00247869
0.000838578
-0.0029662
0.000990924
-0.00339194
0.00111951
-0.00374538
0.00122252
-0.00402854
0.00130216
-0.00425207
0.00136292
-0.00443051
0.00141001
-0.00457847
0.00144824
-0.00470835
0.00148149
-0.00482941
0.00151259
-0.00494792
0.00154344
-0.00506783
0.00157525
-0.00519134
0.00160874
-0.00531953
0.00164429
-0.00545273
-0.00559042
0.00168164
2.35018e-05
-0.000162294
9.11348e-05
-0.000560507
0.000199542
-0.00103597
0.000340734
-0.00156554
0.000501926
-0.00211462
0.00066777
-0.00264453
0.000823921
-0.00312236
0.000960108
-0.00352813
0.00107145
-0.00385672
0.00115797
-0.00411507
0.00122308
-0.00431718
0.00127174
-0.00447917
0.00130907
-0.0046158
0.00133941
-0.0047387
0.00136607
-0.00485606
0.00139132
-0.00497317
0.00141664
-0.00509315
0.00144293
-0.00521764
0.00147071
-0.0053473
0.00150019
-0.00548221
-0.00562137
0.00153114
2.50602e-05
-0.000187354
9.56174e-05
-0.000631064
0.000206316
-0.00114667
0.000346984
-0.00170621
0.000503154
-0.00227078
0.000659009
-0.00280038
0.00080112
-0.00326447
0.000921026
-0.00364803
0.00101583
-0.00395151
0.00108711
-0.00418635
0.00113912
-0.00436919
0.00117702
-0.00451707
0.00120562
-0.0046444
0.00122875
-0.00476183
0.00124915
-0.00487647
0.00126864
-0.00499266
0.00128835
-0.00511286
0.00130895
-0.00523823
0.00133079
-0.00536915
0.001354
-0.00550542
-0.00564575
0.00137839
2.64605e-05
-0.000213815
9.93251e-05
-0.000703928
0.000211135
-0.00125848
0.000349633
-0.00184471
0.000499033
-0.00242018
0.000643542
-0.00294489
0.000771007
-0.00339193
0.000874871
-0.0037519
0.000954041
-0.00403068
0.00101134
-0.00424365
0.00105156
-0.00440941
0.00107981
-0.00454532
0.00110048
-0.00466506
0.00111686
-0.00477821
0.00113121
-0.00489081
0.00114494
-0.00500639
0.00115891
-0.00512683
0.00117362
-0.00525294
0.00118934
-0.00538486
0.0012061
-0.00552218
-0.00566344
0.00122379
2.76681e-05
-0.000241483
0.000102157
-0.000778417
0.000213864
-0.00137019
0.000348627
-0.00197947
0.000489752
-0.00256131
0.000621914
-0.00307706
0.000734493
-0.00350451
0.000822816
-0.00384022
0.000887364
-0.00409523
0.000931898
-0.00428818
0.000961471
-0.00443899
0.000980959
-0.00456481
0.000994286
-0.00467839
0.00100424
-0.00478816
0.00101261
-0.00489919
0.00102052
-0.0050143
0.00102861
-0.00513492
0.00103726
-0.00526159
0.00104666
-0.00539426
0.00105683
-0.00553235
-0.00567431
0.0010677
2.86518e-05
-0.000270135
0.000104033
-0.000853798
0.000214425
-0.00148058
0.000344012
-0.00210906
0.000475618
-0.00269292
0.000594765
-0.0031962
0.000692513
-0.00360226
0.000765967
-0.00391367
0.000816929
-0.00414619
0.000849806
-0.00432106
0.000869697
-0.00445888
0.000881134
-0.00457625
0.000887548
-0.00468481
0.000891248
-0.00479186
0.000893666
-0.00490161
0.000895656
-0.00501629
0.000897715
-0.00513698
0.000900128
-0.00526401
0.000903039
-0.00539717
0.000906462
-0.00553577
-0.00567827
0.000910422
2.93854e-05
-0.00029952
0.000104898
-0.000929311
0.000212797
-0.00158848
0.000335924
-0.00223218
0.000457031
-0.00281402
0.000562784
-0.00330196
0.00064598
-0.00368545
0.000705339
-0.00397303
0.000743721
-0.00418458
0.000765929
-0.00434327
0.000776936
-0.00446988
0.000780866
-0.00458018
0.000780662
-0.0046846
0.000778211
-0.00478941
0.000774639
-0.00489804
0.000770598
-0.00501225
0.000766473
-0.00513285
0.000762486
-0.00526002
0.000758747
-0.00539343
0.000755277
-0.0055323
-0.0056752
0.000752204
2.98483e-05
-0.000329369
0.000104721
-0.00100418
0.000209015
-0.00169278
0.00032457
-0.00234774
0.000434447
-0.0029239
0.000526675
-0.00339418
0.000595758
-0.00375454
0.000641838
-0.00401911
0.000668581
-0.00421132
0.000680976
-0.00435566
0.000683749
-0.00447266
0.000680579
-0.004577
0.000673953
-0.00467798
0.000665392
-0.00478085
0.000655768
-0.00488841
0.000645579
-0.00500206
0.000635122
-0.0051224
0.000624574
-0.00524947
0.000614029
-0.00538289
0.000603514
-0.00552179
-0.0056649
0.000593217
3.00255e-05
-0.000359394
0.000103496
-0.00107765
0.000203158
-0.00179244
0.000310212
-0.00245479
0.00040836
-0.00302205
0.000487124
-0.00347295
0.000542641
-0.00381005
0.000576259
-0.00405273
0.000592219
-0.00422728
0.000595529
-0.00435897
0.000590585
-0.00446771
0.000580615
-0.00456703
0.000567692
-0.00466505
0.000553026
-0.00476618
0.000537282
-0.00487267
0.000520834
-0.00498561
0.000503904
-0.00510547
0.000486633
-0.0052322
0.000469113
-0.00536537
0.000451403
-0.00550408
-0.00564713
0.00043363
2.99088e-05
-0.000389303
0.000101239
-0.00114898
0.000195346
-0.00188654
0.000293152
-0.0025526
0.000379271
-0.00310817
0.000444788
-0.00353847
0.000487344
-0.00385261
0.000509286
-0.00407467
0.000515228
-0.00423322
0.000510061
-0.0043538
0.000497806
-0.00445546
0.000481255
-0.00455048
0.000462113
-0.00464591
0.000441328
-0.0047454
0.000419403
-0.00485074
0.000396612
-0.00496282
0.000373111
-0.00508197
0.000348983
-0.00520808
0.000324268
-0.00534065
0.000299081
-0.00547889
-0.00562178
0.000273729
2.94956e-05
-0.000418798
9.79863e-05
-0.00121748
0.000185731
-0.00197429
0.000273711
-0.00264058
0.000347672
-0.00318213
0.000400269
-0.00359106
0.0004305
-0.00388284
0.000441503
-0.00408567
0.000438096
-0.00422981
0.000424958
-0.00434066
0.000405708
-0.00443621
0.000382735
-0.00452751
0.000357418
-0.00462059
0.000330495
-0.00471848
0.000302338
-0.00482259
0.000273149
-0.00493363
0.000243045
-0.00505186
0.000212085
-0.00517711
0.000180153
-0.00530872
0.000146644
-0.00544538
-0.00558864
0.000113506
2.87892e-05
-0.000447588
9.37921e-05
-0.00128248
0.000174484
-0.00205498
0.00025222
-0.00271831
0.000314037
-0.00324395
0.000354119
-0.00363114
0.00037266
-0.00390138
0.000373402
-0.00408642
0.000361226
-0.00421764
0.000340531
-0.00431997
0.000314535
-0.00441021
0.000285253
-0.00449823
0.000253791
-0.00458913
0.000220709
-0.0046854
0.000186275
-0.00478815
0.000150637
-0.00489799
0.000113899
-0.00501512
7.61592e-05
-0.00513937
3.77303e-05
-0.00527029
-8.59701e-07
-0.00540679
-0.00554303
-4.64696e-05
2.77983e-05
-0.000475386
8.87234e-05
-0.0013434
0.000161789
-0.00212805
0.000229007
-0.00278553
0.000278805
-0.00329374
0.000306828
-0.00365917
0.000314299
-0.00390885
0.000305395
-0.00407751
0.00028495
-0.00419719
0.000257038
-0.00429206
0.00022449
-0.00437766
0.000188985
-0.00446272
0.000151396
-0.00455154
0.000112146
-0.00464615
7.13961e-05
-0.0047474
2.92593e-05
-0.00485585
-1.41917e-05
-0.00497167
-5.87989e-05
-0.00509477
-0.000104594
-0.0052245
-0.000152466
-0.00535892
-0.00549588
-0.00019962
2.65356e-05
-0.000501922
8.28575e-05
-0.00139972
0.00014784
-0.00219303
0.000204387
-0.00284208
0.000242381
-0.00333174
0.000258829
-0.00367562
0.00025582
-0.00390584
0.000237824
-0.00405952
0.000209536
-0.00416891
0.000174688
-0.00425721
0.000135742
-0.00433872
9.41029e-05
-0.00442108
5.03731e-05
-0.00450781
4.90915e-06
-0.00460068
-4.21187e-05
-0.00470037
-9.07219e-05
-0.00480725
-0.000140824
-0.00492157
-0.000192365
-0.00504323
-0.000245394
-0.00517147
-0.000299837
-0.00530448
-0.00544114
-0.000354574
2.50179e-05
-0.000526939
7.62789e-05
-0.00145099
0.000132827
-0.00224958
0.000178659
-0.00288791
0.000205129
-0.00335821
0.000210498
-0.00368099
0.000197566
-0.00389291
0.000170973
-0.00403292
0.000135211
-0.00413314
9.36616e-05
-0.00421566
4.84181e-05
-0.00429347
5.80916e-07
-0.00437325
-4.91216e-05
-0.00445811
-0.000100686
-0.00454912
-0.000154052
-0.00464701
-0.000209156
-0.00475215
-0.000265964
-0.00486476
-0.000324415
-0.00498478
-0.000384441
-0.00511144
-0.000445839
-0.00524308
-0.00537858
-0.000508403
2.3265e-05
-0.000550204
6.90755e-05
-0.0014968
0.000116938
-0.00229744
0.0001521
-0.00292307
0.000167376
-0.00337348
0.000162161
-0.00367577
0.000139825
-0.00387058
0.000105074
-0.00399817
6.21585e-05
-0.00409023
1.40922e-05
-0.00416759
-3.728e-05
-0.0042421
-9.10359e-05
-0.00431949
-0.000146888
-0.00440226
-0.000204626
-0.00449138
-0.000264275
-0.00458736
-0.00032585
-0.00469057
-0.000389342
-0.00480127
-0.000454683
-0.00491943
-0.000521758
-0.00504437
-0.000590414
-0.00517442
-0.00530838
-0.000660612
2.12994e-05
-0.000571504
6.13374e-05
-0.00153683
0.000100353
-0.00233646
0.000124963
-0.00294768
0.000129409
-0.00337793
0.000114093
-0.00366046
8.28341e-05
-0.00383932
4.03174e-05
-0.00395566
-9.49037e-06
-0.00404042
-6.38521e-05
-0.00411323
-0.00012128
-0.00418468
-0.00018104
-0.00425973
-0.000242878
-0.00434042
-0.000306723
-0.00442753
-0.000372613
-0.00452147
-0.000440611
-0.00462257
-0.000510738
-0.00473114
-0.000582936
-0.00484724
-0.000657072
-0.00497023
-0.000733012
-0.00509848
-0.00523065
-0.000810737
1.91462e-05
-0.00059065
5.31542e-05
-0.00157084
8.32407e-05
-0.00236654
9.74813e-05
-0.00296192
9.14797e-05
-0.00337193
6.65308e-05
-0.00363551
2.67983e-05
-0.00379958
-2.31282e-05
-0.00390573
-7.95492e-05
-0.003984
-0.0001401
-0.00405268
-0.000203492
-0.00412128
-0.000269166
-0.00419406
-0.000336945
-0.00427264
-0.000406829
-0.00435765
-0.000478896
-0.0044494
-0.000553247
-0.00454822
-0.000629942
-0.00465445
-0.000708948
-0.00476823
-0.000790127
-0.00488905
-0.000873322
-0.00501529
-0.00514548
-0.000958492
1.68353e-05
-0.000607485
4.46152e-05
-0.00159862
6.57643e-05
-0.00238769
6.98625e-05
-0.00296602
5.38041e-05
-0.00335587
1.97044e-05
-0.00360141
-2.81184e-05
-0.00375176
-8.51416e-05
-0.00384871
-0.000147981
-0.00392116
-0.000214557
-0.00398611
-0.00028381
-0.00405203
-0.000355315
-0.00412255
-0.000428966
-0.00419899
-0.000504811
-0.0042818
-0.000582966
-0.00437125
-0.000663571
-0.00446762
-0.000746737
-0.00457128
-0.000832466
-0.0046825
-0.000920629
-0.00480089
-0.00101102
-0.0049249
-0.00505294
-0.00110356
1.44025e-05
-0.000621888
3.58113e-05
-0.00162003
4.80759e-05
-0.00239996
4.22926e-05
-0.00296024
1.66537e-05
-0.00333023
-2.62759e-05
-0.00355848
-8.17958e-05
-0.00369624
-0.000145624
-0.00378488
-0.000214675
-0.00385211
-0.000287138
-0.00391364
-0.000362149
-0.00397702
-0.000439393
-0.00404531
-0.000518828
-0.00411955
-0.000600537
-0.0042001
-0.000684668
-0.00428712
-0.000771404
-0.00438088
-0.00086091
-0.00448178
-0.000953246
-0.00459016
-0.0010483
-0.00470583
-0.00114581
-0.00482738
-0.00495313
-0.00124563
1.18604e-05
-0.000633748
2.68252e-05
-0.001635
3.03114e-05
-0.00240344
1.50311e-05
-0.00294496
-1.9995e-05
-0.0032952
-7.12743e-05
-0.0035072
-0.000134128
-0.00363339
-0.00020449
-0.00371452
-0.000279559
-0.00377704
-0.000357772
-0.00383543
-0.000438429
-0.00389636
-0.000521312
-0.00396242
-0.000606427
-0.00403444
-0.000693885
-0.00411264
-0.000783861
-0.00419714
-0.000876574
-0.00428817
-0.00097225
-0.0043861
-0.00107103
-0.00449139
-0.00117284
-0.00460402
-0.00127737
-0.00472286
-0.0048462
-0.0013843
9.23592e-06
-0.000642984
1.77369e-05
-0.0016435
1.26316e-05
-0.00239834
-1.19772e-05
-0.00292035
-5.59682e-05
-0.00325121
-0.000115172
-0.00344799
-0.000185025
-0.00356353
-0.000261669
-0.00363787
-0.000342573
-0.00369614
-0.000426396
-0.00375161
-0.000512583
-0.00381017
-0.000600993
-0.00387401
-0.000691671
-0.00394376
-0.000784749
-0.00401956
-0.000880418
-0.00410147
-0.000978929
-0.00418966
-0.00108056
-0.00428447
-0.00118556
-0.00438639
-0.00129393
-0.00449565
-0.0014053
-0.00461149
-0.00473231
-0.00151919
6.56105e-06
-0.000649545
8.55475e-06
-0.00164549
-4.74986e-06
-0.00238503
-3.87557e-05
-0.00288634
-9.11225e-05
-0.00319885
-0.000157877
-0.00338124
-0.000234417
-0.00348699
-0.000317104
-0.00355518
-0.000403664
-0.00360958
-0.000492957
-0.00366231
-0.000584549