/*--------------------------------*- C++ -*----------------------------------*\
  =========                 |
  \\      /  F ield         | OpenFOAM: The Open Source CFD Toolbox
   \\    /   O peration     | Website:  https://openfoam.org
    \\  /    A nd           | Version:  7
     \\/     M anipulation  |
\*---------------------------------------------------------------------------*/
FoamFile
{
    version     2.0;
    format      ascii;
    class       volVectorField;
    location    "70";
    object      U;
}
// * * * * * * * * * * * * * * * * * * * * * * * * * * * * * * * * * * * * * //

dimensions      [0 1 -1 0 0 0 0];

internalField   nonuniform List<vector> 
8820
(
(-0.00141336 -0.000191731 -7.92032e-22)
(-0.00718608 -0.0151839 -1.7673e-20)
(-0.0179562 -0.0389794 -8.24541e-21)
(-0.0313489 -0.0670086 -3.53119e-21)
(-0.0463468 -0.0962502 1.12808e-21)
(-0.0623085 -0.125194 -6.52125e-21)
(-0.0785877 -0.153576 -1.39193e-20)
(-0.0945364 -0.18198 -8.57985e-21)
(-0.109499 -0.211385 1.96482e-20)
(-0.12281 -0.242739 -3.53079e-21)
(-0.133795 -0.276641 5.56282e-21)
(-0.141768 -0.313129 8.06017e-21)
(-0.146034 -0.351565 -1.14038e-20)
(-0.145897 -0.390565 -1.27557e-20)
(-0.140702 -0.427978 5.84482e-21)
(-0.129926 -0.460931 3.151e-21)
(-0.113305 -0.486013 7.71417e-22)
(-0.0909847 -0.499678 2.11794e-20)
(-0.0636612 -0.498954 -6.65894e-21)
(-0.0325219 -0.482288 -4.36555e-20)
(0.00124371 -0.449815 3.25923e-22)
(-0.00171313 0.00326692 2.43615e-20)
(-0.00773555 -0.0071205 -2.65381e-20)
(-0.0188683 -0.0278379 5.02059e-21)
(-0.0326893 -0.0538072 2.87418e-20)
(-0.048181 -0.0817408 -1.16431e-20)
(-0.0646983 -0.109995 -1.45434e-20)
(-0.0815829 -0.13825 -2.22402e-20)
(-0.098189 -0.167076 2.12895e-20)
(-0.113889 -0.197458 3.207e-20)
(-0.12807 -0.230363 -2.55767e-20)
(-0.14013 -0.266421 -3.07068e-20)
(-0.149466 -0.305718 -4.87167e-20)
(-0.155453 -0.347667 -2.17252e-20)
(-0.157437 -0.390927 -4.16301e-20)
(-0.154762 -0.433333 2.1001e-20)
(-0.146831 -0.471896 -3.23012e-21)
(-0.13323 -0.502925 -1.55813e-20)
(-0.113919 -0.522423 -1.46174e-21)
(-0.0893954 -0.526864 -4.24247e-20)
(-0.060493 -0.514134 -2.55485e-20)
(-0.0285593 -0.484058 2.66237e-20)
(-0.00223243 0.00692733 7.16534e-20)
(-0.00865324 0.00148798 -1.60416e-20)
(-0.0200052 -0.015892 5.65992e-20)
(-0.0339463 -0.0396264 3.88247e-20)
(-0.0495107 -0.0661429 3.88996e-20)
(-0.0660752 -0.0936317 1.75319e-20)
(-0.0829875 -0.121675 -2.89575e-20)
(-0.0996168 -0.150792 5.00803e-20)
(-0.115373 -0.181943 7.56597e-20)
(-0.129709 -0.216099 3.98889e-20)
(-0.142111 -0.253922 -5.98079e-20)
(-0.152077 -0.295564 9.98447e-20)
(-0.159087 -0.340533 -8.92196e-21)
(-0.162582 -0.387591 -1.81112e-19)
(-0.16196 -0.434649 -1.227e-19)
(-0.156618 -0.478708 6.67206e-20)
(-0.146053 -0.515905 -3.57772e-20)
(-0.130087 -0.541848 -8.23688e-20)
(-0.108996 -0.552398 1.32913e-19)
(-0.0831225 -0.544626 -5.69724e-20)
(-0.054189 -0.517641 -6.52888e-20)
(-0.00296934 0.0106343 -2.20554e-20)
(-0.00992892 0.0103181 1.51791e-19)
(-0.0213308 -0.00354502 -2.00841e-20)
(-0.0350498 -0.0249027 -2.04179e-19)
(-0.0502283 -0.0499 -2.05662e-20)
(-0.066292 -0.0765375 -1.90633e-19)
(-0.0826114 -0.104266 9.89286e-20)
(-0.0985802 -0.133514 1.85667e-19)
(-0.11365 -0.165189 -1.68366e-19)
(-0.127341 -0.200246 -2.25558e-19)
(-0.139232 -0.23937 1.27844e-19)
(-0.148936 -0.282788 -1.20669e-19)
(-0.156069 -0.330124 1.46998e-19)
(-0.16021 -0.380291 2.05714e-19)
(-0.160885 -0.43136 3.92723e-20)
(-0.157571 -0.480437 -1.60884e-20)
(-0.14978 -0.523623 -1.50989e-19)
(-0.137287 -0.556246 -3.10094e-20)
(-0.120168 -0.573547 -3.30197e-20)
(-0.0981743 -0.571564 -8.60578e-21)
(-0.0735451 -0.548413 -1.78358e-20)
(-0.00390344 0.0142242 -1.01266e-19)
(-0.0115241 0.019027 -1.4916e-19)
(-0.0227927 0.00877604 8.80044e-20)
(-0.0359343 -0.0100956 -1.18087e-19)
(-0.0502545 -0.0334777 1.33424e-19)
(-0.0652551 -0.0591708 6.87679e-20)
(-0.080345 -0.0864675 1.4471e-19)
(-0.0949473 -0.115675 -1.08814e-20)
(-0.108554 -0.147616 -1.45183e-19)
(-0.120745 -0.183203 7.76172e-20)
(-0.131187 -0.223133 1.75425e-20)
(-0.139612 -0.267691 2.91826e-20)
(-0.145783 -0.316624 -4.48257e-20)
(-0.149454 -0.36902 -4.43278e-20)
(-0.150341 -0.423163 2.63341e-20)
(-0.148095 -0.476372 -5.4546e-20)
(-0.142359 -0.524868 -9.42524e-21)
(-0.132984 -0.563871 8.34235e-20)
(-0.119915 -0.588065 4.23774e-20)
(-0.102237 -0.592339 -4.9997e-20)
(-0.0826651 -0.573691 1.47365e-19)
(-0.00499677 0.0175374 2.19629e-20)
(-0.0133741 0.0272753 4.72902e-19)
(-0.0243245 0.0206441 -3.05279e-20)
(-0.0365412 0.00433177 3.13984e-19)
(-0.0495426 -0.0173456 8.22629e-20)
(-0.0629298 -0.0419991 -8.31538e-20)
(-0.0761658 -0.0687441 -5.88962e-20)
(-0.0887056 -0.0977402 1.1054e-19)
(-0.100075 -0.129698 -3.86874e-20)
(-0.109903 -0.165462 3.53676e-19)
(-0.117929 -0.205712 -1.16266e-19)
(-0.12399 -0.250773 4.512e-19)
(-0.127993 -0.300491 7.5776e-21)
(-0.12988 -0.354121 1.97655e-20)
(-0.129593 -0.410182 -1.87152e-19)
(-0.127027 -0.466277 -1.17843e-19)
(-0.122058 -0.5189 2.22e-19)
(-0.114729 -0.563372 -1.90123e-19)
(-0.10496 -0.593992 -1.62397e-19)
(-0.0911554 -0.60455 -1.96983e-20)
(-0.0760798 -0.591002 4.46709e-20)
(-0.00619643 0.0204307 1.08716e-19)
(-0.0153916 0.0347477 -1.5343e-19)
(-0.0258495 0.0316548 -8.51704e-20)
(-0.03682 0.0179341 -3.23417e-19)
(-0.0480766 -0.00196452 -1.0845e-19)
(-0.0593399 -0.0254841 3.45027e-19)
(-0.0701369 -0.0515619 6.33504e-20)
(-0.07996 -0.080191 1.49357e-19)
(-0.0883611 -0.111947 -1.46431e-19)
(-0.0950027 -0.147579 6.77291e-20)
(-0.0996776 -0.187722 5.57494e-20)
(-0.102305 -0.232708 -1.81313e-19)
(-0.102913 -0.282446 3.13509e-19)
(-0.101614 -0.336321 -4.72984e-20)
(-0.0985765 -0.393068 3.17577e-19)
(-0.0939672 -0.450595 1.25515e-19)
(-0.0879549 -0.505781 -1.03774e-19)
(-0.0808448 -0.55427 -1.05286e-19)
(-0.0726701 -0.59027 -5.90326e-20)
(-0.0613031 -0.606772 -9.54058e-20)
(-0.0485385 -0.598881 9.93871e-20)
(-0.00743913 0.022787 7.54453e-20)
(-0.0174724 0.0411734 1.15928e-19)
(-0.027284 0.0414466 1.1328e-19)
(-0.0367326 0.0303033 -1.83723e-20)
(-0.0458702 0.0122371 4.28215e-19)
(-0.0545562 -0.0100637 -2.52207e-19)
(-0.0623942 -0.0353704 2.99165e-19)
(-0.0689158 -0.0635008 -4.02796e-19)
(-0.0736945 -0.0948777 1.43528e-21)
(-0.0764124 -0.130135 -2.13788e-19)
(-0.0768941 -0.169833 -2.755e-20)
(-0.0751127 -0.214278 -5.66292e-20)
(-0.071184 -0.2634 -4.306e-19)
(-0.0653549 -0.316664 1.1321e-19)
(-0.0579819 -0.372961 9.46088e-20)
(-0.0494879 -0.430477 2.42844e-19)
(-0.0403379 -0.486511 -7.87701e-20)
(-0.0311134 -0.537205 3.38571e-20)
(-0.0221368 -0.577077 8.43359e-20)
(-0.0112053 -0.598917 -1.99607e-19)
(0.00260766 -0.597184 -6.98738e-20)
(-0.00865669 0.024524 -2.06814e-19)
(-0.0195031 0.0463412 1.95467e-19)
(-0.0285402 0.0497198 -1.89626e-19)
(-0.0362453 0.0410866 -8.2708e-20)
(-0.0429583 0.0248791 4.82713e-21)
(-0.0486879 0.00386338 -2.9466e-20)
(-0.053126 -0.0205836 -2.70982e-19)
(-0.0558475 -0.0481122 -6.31701e-19)
(-0.0564473 -0.0789799 -1.8877e-19)
(-0.0546171 -0.113688 -2.94404e-20)
(-0.0501951 -0.152707 -7.00552e-21)
(-0.0431826 -0.196284 4.9126e-19)
(-0.0337485 -0.244334 -2.09021e-20)
(-0.0222268 -0.296347 8.27267e-21)
(-0.00911224 -0.351306 3.51837e-20)
(0.00496536 -0.407593 9.53099e-20)
(0.0192795 -0.462867 -4.37799e-20)
(0.0329958 -0.513826 -1.733e-19)
(0.0453168 -0.555699 -1.44538e-19)
(0.0575354 -0.581847 4.64668e-19)
(0.0757665 -0.585989 -6.1968e-21)
(-0.00978204 0.0255984 2.11743e-19)
(-0.0213694 0.0501112 1.61588e-20)
(-0.0295309 0.0562502 -5.1125e-19)
(-0.0353303 0.049999 -1.4849e-19)
(-0.0393862 0.0356376 2.93108e-19)
(-0.0418594 0.01595 -3.35111e-19)
(-0.0425424 -0.00757241 1.49657e-19)
(-0.0410599 -0.0344208 5.83301e-19)
(-0.0370258 -0.0646893 2.7484e-19)
(-0.0301406 -0.0987404 2.56988e-19)
(-0.0202441 -0.136936 -1.19309e-19)
(-0.00734586 -0.179451 4.14955e-20)
(0.00835807 -0.226152 -2.71034e-19)
(0.0264863 -0.276522 3.59247e-19)
(0.0464552 -0.329568 6.22473e-21)
(0.0674846 -0.383772 -5.40284e-20)
(0.0886381 -0.437024 9.56696e-20)
(0.108858 -0.486484 6.09062e-20)
(0.126866 -0.52833 -1.13104e-19)
(0.141639 -0.557063 -1.87506e-19)
(0.165784 -0.563664 -2.79989e-19)
(-0.0107552 0.0260071 -3.34912e-19)
(-0.0229641 0.0524194 5.84616e-19)
(-0.0301733 0.0608978 2.81682e-19)
(-0.0339617 0.0568355 -7.08037e-20)
(-0.0352001 0.0442606 -8.68016e-20)
(-0.0341975 0.0259118 -2.01641e-19)
(-0.030849 0.00335548 -1.13027e-19)
(-0.0248402 -0.0227579 1.93289e-19)
(-0.01581 -0.052371 4.17592e-19)
(-0.00346474 -0.0857042 1.96662e-19)
(0.0123595 -0.123006 2.7204e-19)
(0.0316569 -0.164364 2.63598e-19)
(0.0542151 -0.209585 -4.26737e-19)
(0.0796276 -0.258124 1.91564e-19)
(0.107254 -0.308967 -5.97893e-19)
(0.136206 -0.360627 -6.12926e-19)
(0.165388 -0.4111 -4.63081e-19)
(0.193498 -0.457869 1.84048e-19)
(0.219067 -0.497799 1.03779e-18)
(0.23943 -0.527088 -2.53586e-19)
(0.269313 -0.531466 2.3759e-19)
(-0.0115279 0.0257839 5.89873e-19)
(-0.024195 0.0532777 -2.55686e-19)
(-0.0303919 0.0636099 8.78371e-20)
(-0.0321114 0.0614767 4.68905e-19)
(-0.0304335 0.0505747 -4.33886e-19)
(-0.0258028 0.0335372 1.59188e-19)
(-0.0182169 0.011963 -2.65479e-19)
(-0.00742646 -0.0133863 -6.48202e-19)
(0.0068978 -0.0423118 9.26061e-19)
(0.0250403 -0.0748972 -4.3114e-20)
(0.0471695 -0.111275 2.60133e-19)
(0.0732889 -0.151441 -1.18218e-19)
(0.103171 -0.195149 2.57268e-19)
(0.13637 -0.241788 -1.36717e-20)
(0.172195 -0.290319 3.17631e-19)
(0.209643 -0.339251 -8.66777e-20)
(0.247468 -0.386626 3.03104e-19)
(0.284237 -0.430097 -5.63379e-19)
(0.318002 -0.46718 -5.57442e-19)
(0.346761 -0.494836 4.44438e-19)
(0.384802 -0.49723 -1.85394e-19)
(-0.012067 0.0249952 -5.78788e-19)
(-0.0249896 0.0527667 3.61801e-19)
(-0.0301215 0.0644189 -2.87748e-19)
(-0.0297458 0.0638905 1.60619e-19)
(-0.0250978 0.0544891 -1.3739e-19)
(-0.0167349 0.0386892 6.41941e-19)
(-0.004752 0.0180798 -5.21496e-20)
(0.0110347 -0.00649731 1.83765e-19)
(0.0309191 -0.0347197 -1.63451e-19)
(0.0551735 -0.0665434 4.28642e-19)
(0.0839616 -0.101985 -8.60391e-19)
(0.11728 -0.140953 -1.04787e-19)
(0.154895 -0.183129 -9.20989e-20)
(0.196296 -0.22783 3.97095e-19)
(0.240679 -0.273992 -5.06506e-19)
(0.286889 -0.320108 6.96546e-20)
(0.333458 -0.364255 4.19612e-19)
(0.378696 -0.404236 1.94223e-19)
(0.420666 -0.437905 2.27157e-20)
(0.456415 -0.462857 -2.17597e-21)
(0.502459 -0.465338 -2.64768e-19)
(-0.0123574 0.0237318 5.22239e-19)
(-0.0252993 0.051025 -4.16094e-19)
(-0.0293065 0.0634338 2.65777e-19)
(-0.0268205 0.0641285 -7.51156e-20)
(-0.0191698 0.0559956 -5.26086e-19)
(-0.0069946 0.0413104 -6.03157e-19)
(0.00952644 0.0216131 6.8727e-19)
(0.0305153 -0.00220534 -1.14895e-19)
(0.0562285 -0.0297203 7.95199e-19)
(0.0869218 -0.0607722 -5.06642e-20)
(0.122747 -0.0952653 2.35491e-20)
(0.163675 -0.133012 3.38711e-19)
(0.209419 -0.173603 3.63944e-19)
(0.259367 -0.216305 5.10688e-19)
(0.312529 -0.260002 2.19829e-19)
(0.367501 -0.303177 3.44589e-21)
(0.422506 -0.343957 -7.36698e-20)
(0.47551 -0.380275 1.31556e-19)
(0.524611 -0.410027 3.36734e-19)
(0.565616 -0.43215 -2.49279e-19)
(0.616653 -0.433938 2.93176e-19)
(-0.0124006 0.022099 -1.03792e-19)
(-0.0250995 0.0482341 -6.62912e-19)
(-0.0279011 0.0608282 -3.09216e-19)
(-0.0232761 0.0623195 3.07769e-19)
(-0.0125813 0.0551686 -7.52804e-20)
(0.00349498 0.0414267 -3.07535e-20)
(0.0247111 0.0225526 -5.01972e-19)
(0.0511345 -0.000539248 1.34044e-19)
(0.0829871 -0.0273464 -6.64881e-19)
(0.120499 -0.0576033 -5.79848e-19)
(0.163791 -0.091106 -3.64797e-19)
(0.212776 -0.127565 -3.7962e-19)
(0.267056 -0.166479 4.49039e-20)
(0.325828 -0.207041 3.04354e-19)
(0.387821 -0.24809 6.06936e-19)
(0.45127 -0.288101 -9.38062e-20)
(0.513991 -0.325272 -4.16288e-19)
(0.573552 -0.357694 -3.45112e-19)
(0.628026 -0.383284 -4.59131e-20)
(0.672293 -0.402258 -1.78103e-19)
(0.724737 -0.402606 6.07099e-20)
(-0.0122131 0.0202076 4.9735e-19)
(-0.024386 0.0446018 5.47905e-19)
(-0.0258636 0.0568247 3.62935e-19)
(-0.0190304 0.0586595 3.05313e-19)
(-0.00520946 0.0521621 1.22425e-19)
(0.0149002 0.0391507 5.29827e-19)
(0.0410209 0.0209832 7.45879e-19)
(0.0731783 -0.00142923 -8.58182e-19)
(0.111556 -0.0275239 7.72473e-19)
(0.156346 -0.0569394 -3.52873e-20)
(0.207605 -0.0893663 -3.35374e-19)
(0.265127 -0.124408 5.42872e-20)
(0.328313 -0.161465 4.39535e-19)
(0.396056 -0.199653 3.08657e-19)
(0.466671 -0.237764 -3.7376e-19)
(0.537922 -0.274292 3.47805e-19)
(0.607148 -0.307535 -6.36867e-20)
(0.671538 -0.33579 -7.10948e-21)
(0.729058 -0.357109 7.34108e-20)
(0.774387 -0.372573 1.29141e-19)
(0.824595 -0.371008 -2.12133e-19)
(-0.0118225 0.0181648 -1.11107e-18)
(-0.0231686 0.0403442 3.79858e-19)
(-0.0231489 0.0516764 -3.3497e-19)
(-0.0139692 0.0533972 -6.26461e-19)
(0.00313608 0.0472012 -4.89843e-19)
(0.0274956 0.0346813 -2.56987e-19)
(0.0588197 0.017084 -7.82023e-19)
(0.0971074 -0.00469975 8.84901e-20)
(0.1425 -0.0300585 4.4758e-19)
(0.195119 -0.0585459 3.47292e-20)
(0.2549 -0.0897478 4.16572e-19)
(0.321426 -0.123158 3.87155e-19)
(0.393769 -0.158079 4.67277e-19)
(0.470373 -0.19355 7.22256e-19)
(0.549007 -0.228344 4.03555e-20)
(0.626872 -0.261006 -3.67727e-19)
(0.70082 -0.289995 -1.95425e-19)
(0.767792 -0.313845 -8.11251e-19)
(0.825624 -0.330938 -7.50907e-20)
(0.86968 -0.342721 -1.69308e-19)
(0.9144 -0.339246 1.97275e-19)
(-0.0112616 0.016066 3.12802e-19)
(-0.0214612 0.0356691 4.52107e-19)
(-0.019699 0.0456483 -2.79779e-19)
(-0.0079381 0.0468178 2.21033e-19)
(0.0127195 0.0405705 9.14238e-19)
(0.0416636 0.0282966 2.69731e-19)
(0.0786171 0.0111326 3.65114e-19)
(0.123557 -0.010056 3.58497e-19)
(0.176564 -0.0346202 -7.8156e-19)
(0.237638 -0.0620341 6.64224e-20)
(0.306499 -0.0917818 8.11799e-20)
(0.382388 -0.123251 7.3746e-19)
(0.46389 -0.155654 -6.79261e-19)
(0.54884 -0.187981 1.17347e-19)
(0.634347 -0.219025 -5.16229e-19)
(0.717028 -0.247442 2.98495e-19)
(0.793338 -0.271928 2.70708e-19)
(0.860209 -0.291258 -2.95143e-20)
(0.915446 -0.304392 -3.16842e-19)
(0.955932 -0.312598 -2.15071e-19)
(0.992649 -0.307722 7.54163e-20)
(-0.0105616 0.0139881 -1.76394e-19)
(-0.0192704 0.0307611 5.79487e-20)
(-0.0154321 0.0389991 -1.20496e-19)
(-0.000734195 0.0392257 -4.31467e-19)
(0.0238826 0.032602 -8.71424e-20)
(0.0578938 0.0203496 3.23563e-19)
(0.10105 0.00350748 4.88254e-19)
(0.153297 -0.0170831 -9.22246e-20)
(0.214613 -0.040739 6.13722e-20)
(0.28479 -0.0668598 6.55965e-19)
(0.363198 -0.0948354 -6.36222e-19)
(0.448566 -0.123962 -2.00822e-19)
(0.538817 -0.153389 1.46603e-19)
(0.631039 -0.182103 -7.47813e-20)
(0.721638 -0.20898 4.58559e-19)
(0.806729 -0.232859 -1.2928e-19)
(0.882582 -0.252741 4.72268e-20)
(0.946429 -0.267637 3.85912e-19)
(0.996273 -0.277314 4.00576e-19)
(1.03116 -0.282204 8.5581e-20)
(1.05827 -0.276859 1.20474e-19)
(-0.00974609 0.0119858 -6.71931e-20)
(-0.016584 0.0257712 -4.6437e-19)
(-0.0102326 0.0319662 -1.64366e-19)
(0.00789679 0.0309278 -7.01524e-20)
(0.0370381 0.0236585 1.79858e-19)
(0.0767638 0.0112524 -2.57684e-19)
(0.126848 -0.00532752 -3.51826e-19)
(0.187173 -0.0252562 -8.02197e-19)
(0.257534 -0.0478171 2.3699e-19)
(0.337387 -0.0723427 -9.1041e-19)
(0.42558 -0.0981459 7.30892e-19)
(0.520139 -0.124463 -1.03195e-19)
(0.618164 -0.150429 -7.16351e-21)
(0.715929 -0.175095 -2.70862e-19)
(0.809215 -0.197494 -9.21848e-19)
(0.89385 -0.216713 4.71706e-19)
(0.966252 -0.232084 2.52356e-20)
(1.02424 -0.242853 -1.91012e-20)
(1.06633 -0.24969 2.88192e-19)
(1.09398 -0.251347 1.18369e-19)
(1.11053 -0.247009 3.19124e-19)
(-0.00882395 0.0100893 -4.16172e-20)
(-0.0133603 0.0208103 -1.2697e-19)
(-0.00394508 0.0247542 -5.80027e-19)
(0.0182597 0.022218 -1.16799e-18)
(0.0526551 0.014115 3.57793e-19)
(0.0989028 0.00145648 4.72475e-19)
(0.15677 -0.0148433 8.57623e-20)
(0.226005 -0.0339652 6.27417e-19)
(0.306099 -0.0551606 -4.99589e-19)
(0.395997 -0.0777108 -7.79519e-19)
(0.493826 -0.100884 -9.10131e-19)
(0.596728 -0.123908 1.50872e-19)
(0.700889 -0.145977 4.30576e-19)
(0.801826 -0.166284 -3.17888e-19)
(0.894917 -0.184088 4.00686e-19)
(0.976065 -0.198758 -3.55483e-19)
(1.04223 -0.209932 2.09227e-19)
(1.09209 -0.217089 3.37939e-20)
(1.12494 -0.221549 1.60257e-19)
(1.14418 -0.219778 -5.41673e-19)
(1.14905 -0.219594 -4.24057e-19)
(-0.00778536 0.00830595 -2.08556e-19)
(-0.00952242 0.0159481 -6.11721e-19)
(0.00362731 0.0175284 9.1715e-20)
(0.0306985 0.0133643 1.04051e-19)
(0.0712323 0.00434096 2.36053e-19)
(0.124943 -0.0085687 9.93707e-19)
(0.191524 -0.0244735 -4.29263e-19)
(0.270476 -0.0425508 2.21172e-19)
(0.360816 -0.0620285 4.22834e-19)
(0.460775 -0.0821659 -1.51795e-19)
(0.567557 -0.102238 4.26605e-19)
(0.677299 -0.121539 -9.12991e-19)
(0.785301 -0.139404 5.18582e-19)
(0.886538 -0.155243 3.6727e-20)
(0.976358 -0.168584 -3.51952e-19)
(1.05117 -0.179078 -1.42362e-19)
(1.1089 -0.186592 1.66361e-19)
(1.14926 -0.19081 -5.6673e-19)
(1.17274 -0.193059 4.51249e-19)
(1.18338 -0.18848 -5.632e-19)
(1.17561 -0.197627 -4.04366e-20)
(-0.0065993 0.00662377 8.54692e-19)
(-0.00495544 0.0112173 6.53828e-20)
(0.0127178 0.0104145 -2.73586e-20)
(0.0455799 0.00460281 -6.29181e-19)
(0.0932601 -0.00531242 -2.86076e-19)
(0.155456 -0.0183585 -4.66374e-19)
(0.23168 -0.0336465 4.14011e-20)
(0.321018 -0.0503485 5.64025e-19)
(0.421808 -0.067691 -1.46115e-19)
(0.531348 -0.0849586 2.01384e-20)
(0.64577 -0.101506 -4.88424e-19)
(0.760197 -0.116777 -8.02749e-19)
(0.869227 -0.130328 1.71334e-19)
(0.967662 -0.141838 -5.71292e-19)
(1.05128 -0.151107 4.95838e-19)
(1.11745 -0.158023 4.49049e-19)
(1.1653 -0.162595 3.72256e-19)
(1.19574 -0.164634 -2.3599e-20)
(1.2105 -0.165 -2.38932e-20)
(1.21339 -0.160094 5.52583e-19)
(1.20285 -0.164843 -7.36703e-20)
(-0.00521409 0.0050174 -2.79688e-19)
(0.000490172 0.0066226 -8.99197e-19)
(0.0235858 0.00350415 -2.75999e-19)
(0.0632704 -0.00386335 -1.70037e-19)
(0.119183 -0.0145219 6.55473e-19)
(0.190899 -0.0274715 -2.06822e-19)
(0.277588 -0.041815 9.1252e-19)
(0.377719 -0.0567318 -9.38288e-20)
(0.488721 -0.071487 -2.35481e-19)
(0.606777 -0.0854581 1.12132e-19)
(0.726889 -0.098164 7.44579e-19)
(0.84331 -0.109283 -6.06836e-20)
(0.950288 -0.118647 1.22166e-18)
(1.04293 -0.126215 7.52062e-19)
(1.11792 -0.132014 4.28038e-19)
(1.17388 -0.13609 2.39379e-19)
(1.21128 -0.138503 3.76985e-19)
(1.23215 -0.139084 1.67676e-19)
(1.23905 -0.13846 -3.0944e-19)
(1.23603 -0.133696 4.83742e-19)
(1.22281 -0.137091 4.18797e-19)
(-0.00356081 0.00345544 -5.88893e-19)
(0.00698983 0.00215374 6.63089e-19)
(0.0365024 -0.00313341 4.44397e-19)
(0.0841121 -0.0118578 -3.66447e-19)
(0.149362 -0.0229933 3.54764e-19)
(0.231555 -0.0355002 -1.41141e-19)
(0.329322 -0.0484784 -4.87629e-19)
(0.440273 -0.0611471 7.75512e-19)
(0.560718 -0.072871 -2.44319e-19)
(0.685616 -0.0832038 2.07564e-19)
(0.808925 -0.0919145 5.76536e-19)
(0.924341 -0.0989768 4.00898e-19)
(1.02624 -0.104516 -5.43374e-19)
(1.11053 -0.108725 -3.8458e-19)
(1.17518 -0.111786 6.77109e-20)
(1.22023 -0.113801 1.75981e-19)
(1.24742 -0.1148 -3.64252e-19)
(1.25964 -0.114588 1.71335e-19)
(1.26001 -0.113542 1.247e-19)
(1.25247 -0.109228 -3.23372e-19)
(1.23707 -0.111768 4.31199e-19)
(-0.00155741 0.00190814 3.62221e-19)
(0.0147357 -0.00220144 4.11789e-19)
(0.0517334 -0.00943826 2.40612e-19)
(0.108399 -0.0192197 3.04108e-19)
(0.184043 -0.0304566 -4.25436e-19)
(0.277508 -0.0420742 -4.43002e-19)
(0.386647 -0.0531967 8.02678e-20)
(0.50798 -0.0631381 -2.7832e-19)
(0.636529 -0.0714431 -8.9628e-20)
(0.766049 -0.0779306 6.04809e-19)
(0.889707 -0.082689 -6.98132e-19)
(1.0011 -0.0860101 2.70653e-19)
(1.09525 -0.0882757 -3.5936e-19)
(1.16932 -0.0898371 -5.94393e-19)
(1.22275 -0.0909259 6.90088e-19)
(1.25699 -0.0916141 3.14408e-19)
(1.27479 -0.0918403 -9.53836e-20)
(1.27964 -0.091348 -2.14582e-20)
(1.27487 -0.0902905 9.26314e-20)
(1.26405 -0.0867155 -2.26685e-19)
(1.24781 -0.0887238 -9.7356e-20)
(0.000884667 0.000353308 -3.44056e-20)
(0.0239244 -0.00644329 -1.89536e-19)
(0.0695243 -0.0153421 7.92328e-19)
(0.136358 -0.0257887 2.79294e-19)
(0.223335 -0.0366547 -9.71005e-21)
(0.328617 -0.0468572 -9.56816e-20)
(0.449029 -0.0555963 2.80068e-19)
(0.579785 -0.0623589 2.0036e-19)
(0.714565 -0.0669622 -6.6836e-19)
(0.846087 -0.0695694 -2.62006e-19)
(0.967137 -0.0706229 -6.4115e-19)
(1.07175 -0.0707055 -9.26888e-19)
(1.15609 -0.0703763 9.05419e-19)
(1.21884 -0.0700397 -8.2527e-19)
(1.26098 -0.0698812 -4.43618e-19)
(1.28511 -0.069871 2.53638e-19)
(1.29476 -0.0698251 -3.62605e-20)
(1.29364 -0.0694167 -2.81327e-19)
(1.28505 -0.0686191 1.11262e-19)
(1.2721 -0.0658451 -2.05163e-21)
(1.25539 -0.0677143 1.15696e-19)
(0.00385469 -0.00121784 -4.94463e-19)
(0.0347436 -0.0105474 -1.14285e-19)
(0.0900842 -0.0207539 -3.07555e-19)
(0.168131 -0.0313905 1.20215e-19)
(0.267201 -0.0413334 5.33939e-19)
(0.384524 -0.0495431 1.97585e-19)
(0.515655 -0.0553728 2.03006e-19)
(0.654367 -0.0585792 -9.47686e-19)
(0.793065 -0.0593439 1.93834e-19)
(0.923768 -0.0582253 1.51146e-19)
(1.03941 -0.0560063 -3.75722e-19)
(1.13498 -0.0534856 1.4487e-19)
(1.20817 -0.0512914 5.39074e-19)
(1.25929 -0.0497744 1.75166e-19)
(1.29067 -0.0489958 6.76684e-19)
(1.30585 -0.0487841 4.11197e-19)
(1.30874 -0.0488287 -8.41635e-20)
(1.30302 -0.0487411 4.96417e-19)
(1.29175 -0.0483558 -7.98513e-20)
(1.2775 -0.0464389 -1.07062e-20)
(1.26092 -0.048264 -7.32187e-20)
(0.00743773 -0.00279792 7.02377e-20)
(0.0473615 -0.014458 3.53785e-19)
(0.113573 -0.0255496 -1.3424e-19)
(0.203766 -0.0358263 -2.51451e-19)
(0.315446 -0.0442338 4.18049e-20)
(0.44466 -0.0498538 2.71915e-19)
(0.585487 -0.0522935 -1.04326e-19)
(0.730228 -0.0516849 2.55173e-20)
(0.870248 -0.0486467 -2.12416e-19)
(0.997339 -0.0441406 2.31371e-20)
(1.10513 -0.0392252 2.01337e-19)
(1.19006 -0.0348044 -4.79162e-19)
(1.25149 -0.0314581 -1.25906e-19)
(1.29131 -0.0293941 2.11311e-19)
(1.31295 -0.0285001 -8.44203e-19)
(1.32052 -0.0284518 -5.81352e-20)
(1.31803 -0.0288294 2.54339e-19)
(1.30894 -0.0292018 -2.57936e-20)
(1.29591 -0.0293153 2.38171e-19)
(1.281 -0.028231 5.31086e-20)
(1.26475 -0.0301323 -3.44814e-20)
(0.0117107 -0.00436246 -1.02239e-19)
(0.0619179 -0.0180836 6.91472e-20)
(0.140089 -0.0295666 3.76779e-19)
(0.243204 -0.0388687 3.19171e-19)
(0.367721 -0.0450925 -2.65438e-19)
(0.508267 -0.0475442 -2.32743e-19)
(0.657319 -0.0462027 3.92429e-19)
(0.805813 -0.0416734 -1.69156e-19)
(0.944461 -0.0350494 -1.19556e-19)
(1.06538 -0.0276508 5.59679e-20)
(1.16344 -0.0207045 1.25775e-19)
(1.23678 -0.0150918 -5.6693e-19)
(1.28652 -0.0112396 -2.06814e-19)
(1.31584 -0.00915029 -1.01393e-19)
(1.329 -0.00852021 -4.07272e-19)
(1.33035 -0.00888518 3.92616e-19)
(1.32375 -0.00974559 7.20982e-20)
(1.31229 -0.0106526 2.78235e-19)
(1.2982 -0.0113045 -6.70817e-20)
(1.28306 -0.0110256 7.55681e-20)
(1.26732 -0.0130456 -1.94634e-19)
(0.0167391 -0.00587046 5.33515e-19)
(0.0785155 -0.0212984 1.29645e-20)
(0.169659 -0.0326048 -2.87912e-19)
(0.286271 -0.0402654 2.02209e-19)
(0.423527 -0.0436491 -5.04177e-19)
(0.574435 -0.0424117 8.97515e-20)
(0.729852 -0.0370262 -1.08575e-19)
(0.879614 -0.0286445 8.64359e-19)
(1.01429 -0.0188212 5.76995e-19)
(1.12689 -0.00913969 4.75513e-19)
(1.21394 -0.000860497 6.84156e-20)
(1.27541 0.00528041 3.99494e-19)
(1.314 0.00908976 2.22744e-19)
(1.33396 0.0108008 -1.37123e-19)
(1.33999 0.0109001 -7.95459e-20)
(1.33642 0.00996295 -2.23559e-19)
(1.32679 0.00853403 1.40758e-19)
(1.31376 0.0070576 2.97964e-19)
(1.29911 0.00584764 6.85161e-20)
(1.28402 0.00536194 1.29915e-19)
(1.26881 0.00317666 1.51302e-19)
(0.0225751 -0.00726625 -5.71083e-19)
(0.097213 -0.0239455 4.40608e-19)
(0.202232 -0.0344333 -1.86551e-19)
(0.332679 -0.0397492 -8.10841e-20)
(0.482225 -0.0396596 -9.32193e-20)
(0.642136 -0.034309 -1.28176e-19)
(0.801768 -0.0247747 -2.73418e-19)
(0.950264 -0.0127854 -1.43586e-19)
(1.07862 -0.000289162 -1.70997e-19)
(1.18128 0.0110008 -1.12075e-20)
(1.25663 0.0199315 -8.22426e-20)
(1.30648 0.0260159 5.0469e-19)
(1.33487 0.0293426 9.28981e-20)
(1.34674 0.0303815 1.46753e-19)
(1.34695 0.0297745 4.17996e-19)
(1.3396 0.0281712 -3.06345e-19)
(1.32783 0.0261285 -2.6564e-20)
(1.31382 0.0240675 -3.16503e-19)
(1.29896 0.0222889 -2.91164e-19)
(1.28406 0.021073 -1.64248e-19)
(1.26938 0.0186886 -2.09523e-19)
(0.029255 -0.00848178 2.15757e-19)
(0.118019 -0.0258439 -6.37724e-20)
(0.237667 -0.0348011 3.56378e-20)
(0.382018 -0.0370535 -6.78632e-20)
(0.543056 -0.0329136 1.82012e-19)
(0.710278 -0.0231554 9.91438e-20)
(0.871804 -0.00954033 -5.79474e-19)
(1.01661 0.00565025 2.96606e-19)
(1.1367 0.0201934 -9.96071e-20)
(1.22831 0.0324004 9.6805e-19)
(1.29185 0.0413561 -4.12843e-19)
(1.33075 0.0468955 5.29944e-20)
(1.35007 0.0494058 3.24991e-19)
(1.35514 0.0495713 -2.18443e-19)
(1.35074 0.0481507 -3.08616e-19)
(1.34058 0.0458296 1.90573e-19)
(1.32735 0.0431496 6.08912e-21)
(1.31279 0.0404961 -1.14125e-19)
(1.29793 0.0381388 -4.38509e-19)
(1.28332 0.0362227 3.64018e-21)
(1.26911 0.0336016 -1.66706e-19)
(0.0367979 -0.00943938 5.54358e-20)
(0.140889 -0.0267964 -5.47334e-20)
(0.275737 -0.0334503 4.45213e-19)
(0.433773 -0.0319291 -1.98837e-20)
(0.605168 -0.0232505 -3.21124e-19)
(0.777753 -0.00894392 1.59093e-19)
(0.938817 0.00851162 -5.82254e-20)
(1.07775 0.026365 -1.44402e-19)
(1.18808 0.0422739 2.37035e-19)
(1.2681 0.0547306 -3.69102e-19)
(1.32015 0.0631631 -3.03747e-19)
(1.34903 0.067769 2.41018e-20)
(1.36051 0.0692232 -2.29538e-19)
(1.36002 0.0683866 2.19913e-19)
(1.35204 0.0660915 2.97079e-20)
(1.33986 0.0630254 4.75156e-20)
(1.32568 0.059694 -6.85376e-20)
(1.31086 0.0564397 1.18837e-19)
(1.29614 0.053491 2.59534e-19)
(1.28185 0.0508971 -1.39973e-19)
(1.26805 0.0480012 1.36842e-19)
(0.0452033 -0.0100545 -4.88431e-20)
(0.165719 -0.0265984 1.86878e-19)
(0.316124 -0.0301304 2.9732e-19)
(0.487327 -0.0241613 -1.00145e-19)
(0.667651 -0.0105716 -2.12437e-19)
(0.843496 0.00825827 1.81155e-19)
(1.00183 0.0291573 -6.56961e-20)
(1.13305 0.0490402 -3.92638e-20)
(1.23261 0.0656205 5.03059e-19)
(1.30096 0.0777136 7.23505e-20)
(1.34218 0.0851643 -1.2863e-19)
(1.36215 0.0885422 -5.01484e-20)
(1.36701 0.0887781 3.70742e-19)
(1.36206 0.086863 -7.56923e-20)
(1.35139 0.0836614 2.09992e-19)
(1.33779 0.0798345 -2.37251e-19)
(1.32305 0.0758392 2.40608e-19)
(1.30817 0.0719721 -1.24945e-19)
(1.29366 0.0684157 5.91157e-20)
(1.27969 0.0651607 5.67003e-20)
(1.26624 0.0619488 -6.465e-20)
(0.0544499 -0.0102389 1.53647e-19)
(0.192347 -0.0250469 6.38486e-20)
(0.358428 -0.024612 -5.81813e-20)
(0.54199 -0.0135834 2.34952e-19)
(0.729578 0.00515183 2.96944e-19)
(0.906527 0.0283153 -4.02242e-19)
(1.06007 0.0521308 -1.43943e-19)
(1.18214 0.0733548 3.12035e-19)
(1.27039 0.0899341 -3.37711e-19)
(1.32737 0.101123 -1.05729e-19)
(1.35865 0.107225 -1.3208e-19)
(1.37087 0.109162 -8.39733e-20)
(1.37025 0.108077 -1.04006e-20)
(1.36181 0.105042 3.62732e-20)
(1.34915 0.100917 -5.64892e-20)
(1.33461 0.0963169 1.16376e-19)
(1.31957 0.0916428 5.68769e-20)
(1.30476 0.0871463 6.32965e-20)
(1.2905 0.082963 2.30294e-19)
(1.27686 0.0790584 -5.37552e-21)
(1.26371 0.0754874 -1.10287e-19)
(0.0644939 -0.00990317 -3.10792e-19)
(0.220553 -0.0219498 1.53951e-19)
(0.402173 -0.0166989 -2.60071e-19)
(0.597019 -8.77816e-05 9.17717e-20)
(0.790042 0.0238776 1.57419e-19)
(0.96599 0.0510324 1.22202e-19)
(1.11296 0.0771406 -2.46733e-20)
(1.22486 0.0989999 -1.83651e-19)
(1.30166 0.114954 2.74219e-19)
(1.34787 0.124781 2.37241e-20)
(1.37024 0.12925 -1.9704e-19)
(1.37585 0.129603 9.19022e-21)
(1.37079 0.127137 1.73771e-19)
(1.35968 0.122962 -8.1216e-20)
(1.3456 0.117903 1.00429e-19)
(1.33046 0.112515 -1.21943e-19)
(1.31532 0.107144 4.10512e-20)
(1.30067 0.101997 2.05941e-21)
(1.28669 0.0971657 1.73695e-19)
(1.27335 0.0926193 -7.5226e-20)
(1.26047 0.0886444 3.20809e-20)
(0.0752687 -0.00896051 7.12326e-20)
(0.250061 -0.0171336 4.08548e-21)
(0.446825 -0.00623912 1.43979e-19)
(0.651646 0.0163681 -8.93674e-20)
(0.848191 0.0454955 -9.11214e-20)
(1.02117 0.0761686 -3.12213e-20)
(1.16011 0.103884 -1.14154e-20)
(1.26122 0.125687 3.57372e-19)
(1.3268 0.140457 -4.12263e-20)
(1.36303 0.148548 -1.9176e-19)
(1.37757 0.151177 2.01187e-21)
(1.37766 0.149852 3.23955e-20)
(1.36908 0.145976 -1.15719e-19)
(1.35596 0.140651 -6.30003e-21)
(1.34091 0.134648 -1.23918e-19)
(1.32544 0.128456 -1.77534e-19)
(1.31032 0.122364 -1.03663e-19)
(1.29589 0.116542 -2.01585e-19)
(1.28221 0.111042 -5.07202e-20)
(1.26918 0.105858 3.68443e-20)
(1.25654 0.101434 1.61841e-20)
(0.086685 -0.00732961 -8.05688e-20)
(0.280547 -0.0104522 -1.09366e-19)
(0.491804 0.00686798 -3.00324e-19)
(0.70511 0.0357594 4.98051e-20)
(0.903256 0.0698342 1.88374e-19)
(1.07151 0.103449 8.70256e-20)
(1.20133 0.132058 -2.21121e-19)
(1.2914 0.153152 1.02701e-19)
(1.34623 0.166255 -2.4322e-20)
(1.37343 0.172314 -1.40955e-20)
(1.38122 0.172958 -7.3844e-20)
(1.37676 0.169903 9.61479e-20)
(1.36545 0.164604 -2.65993e-20)
(1.35087 0.158125 2.09161e-20)
(1.33519 0.151166 1.6271e-20)
(1.31958 0.144147 -2.42855e-21)
(1.3046 0.137311 -2.89287e-21)
(1.29043 0.130788 -9.29216e-20)
(1.27705 0.124598 -8.17582e-20)
(1.26432 0.118777 6.76477e-20)
(1.25194 0.11386 -5.35428e-20)
(0.0986323 -0.00493798 2.22417e-19)
(0.311648 -0.00179292 1.01176e-19)
(0.536508 0.0226657 1.07005e-19)
(0.756677 0.0579951 -3.80856e-20)
(0.95457 0.0966704 1.64225e-19)
(1.11661 0.132577 -1.57229e-19)
(1.23655 0.161368 8.24925e-20)
(1.31565 0.181156 6.02436e-20)
(1.36042 0.192187 6.30785e-21)
(1.37957 0.195992 -4.89543e-20)
(1.38164 0.194557 -3.40099e-20)
(1.37353 0.189748 4.48269e-20)
(1.36013 0.183023 -8.12816e-21)
(1.34454 0.175385 3.33537e-20)
(1.3285 0.167455 -4.67779e-20)
(1.3129 0.159587 -8.44363e-20)
(1.29813 0.151977 -2.58097e-20)
(1.28426 0.144727 5.52024e-20)
(1.27121 0.137827 -6.06869e-20)
(1.25879 0.131368 3.58138e-20)
(1.24666 0.125915 8.31244e-21)
(0.11098 -0.00172493 -6.3717e-20)
(0.342966 0.00891756 -8.97435e-20)
(0.580325 0.0411377 -8.94849e-20)
(0.805664 0.0829226 -6.09575e-20)
(1.00158 0.125739 -2.69507e-20)
(1.15618 0.163243 6.82085e-20)
(1.26582 0.191529 -2.05553e-20)
(1.33428 0.209484 3.56764e-20)
(1.3698 0.218115 -9.67178e-20)
(1.38193 0.219506 6.26898e-20)
(1.37923 0.21594 1.85305e-20)
(1.36823 0.20937 3.27391e-20)
(1.35331 0.201223 -2.72771e-20)
(1.33706 0.19242 3.23995e-20)
(1.32087 0.1835 1.72596e-20)
(1.3054 0.174757 8.30942e-21)
(1.2909 0.166348 -7.81542e-21)
(1.27736 0.158343 -5.05985e-20)
(1.26467 0.150715 4.82767e-20)
(1.25258 0.143611 -1.44878e-20)
(1.24074 0.137581 -1.48622e-20)
(0.123582 0.00235566 -1.41475e-21)
(0.374085 0.0217093 -3.00243e-20)
(0.622657 0.0622074 9.66641e-21)
(0.851457 0.110333 -5.99722e-21)