/*--------------------------------*- C++ -*----------------------------------*\
  =========                 |
  \\      /  F ield         | OpenFOAM: The Open Source CFD Toolbox
   \\    /   O peration     | Website:  https://openfoam.org
    \\  /    A nd           | Version:  7
     \\/     M anipulation  |
\*---------------------------------------------------------------------------*/
FoamFile
{
    version     2.0;
    format      ascii;
    class       volVectorField;
    location    "5";
    object      U;
}
// * * * * * * * * * * * * * * * * * * * * * * * * * * * * * * * * * * * * * //

dimensions      [0 1 -1 0 0 0 0];

internalField   nonuniform List<vector> 
392
(
(-0.0451732 4.41291e-05 1.97064e-21)
(-0.0444083 -0.000343546 -1.03746e-21)
(-0.0419684 -0.000767928 1.62846e-21)
(-0.0429778 0.000111179 -7.31322e-21)
(-0.0420335 -0.00104989 1.10287e-20)
(-0.0394541 -0.00232042 -1.25242e-20)
(-0.0385895 0.000115289 -1.30524e-21)
(-0.0372894 -0.00181878 -3.38699e-21)
(-0.0344327 -0.00392724 1.88603e-21)
(-0.0320134 -2.80359e-06 -5.73329e-21)
(-0.0301906 -0.00269348 1.10941e-20)
(-0.026919 -0.00562336 -2.28435e-20)
(-0.0232574 -0.000317909 -2.13023e-20)
(-0.0207465 -0.00371636 1.26446e-20)
(-0.016932 -0.00744133 -1.39919e-20)
(-0.0123313 -0.000850596 3.14998e-20)
(-0.00896509 -0.00491884 -4.73898e-21)
(-0.00449486 -0.00940959 2.05565e-20)
(0.000766046 -0.00155202 1.16309e-20)
(0.00513226 -0.0063252 -2.38022e-20)
(0.0103652 -0.0115523 1.30816e-20)
(0.0160701 -0.00251332 8.41344e-21)
(0.0215034 -0.00797081 -4.97211e-20)
(0.0276189 -0.01389 6.44872e-20)
(0.0335527 -0.00383493 1.79916e-20)
(0.0401615 -0.0098748 -1.89417e-20)
(0.0472413 -0.0164369 6.38115e-21)
(0.0532192 -0.00547203 -8.95478e-20)
(0.0611039 -0.0120461 2.14378e-20)
(0.0692095 -0.0192006 -3.10953e-20)
(0.08433 -0.0144908 -5.04262e-20)
(0.093505 -0.0221808 7.36928e-20)
(0.103895 -0.0294801 -4.83957e-20)
(0.10985 -0.0172076 -1.38379e-20)
(0.120116 -0.0253687 6.51947e-20)
(0.131394 -0.0330577 -8.61168e-20)
(0.137686 -0.0201852 2.55904e-20)
(0.149036 -0.0287466 2.20846e-20)
(0.161161 -0.0367444 -2.05284e-20)
(0.167868 -0.0234048 3.45473e-20)
(0.180267 -0.0322868 -3.69934e-20)
(0.19316 -0.0405058 4.70764e-20)
(0.200442 -0.0268374 -5.59004e-20)
(0.213813 -0.0359506 -1.09495e-20)
(0.227352 -0.0442971 1.50045e-20)
(0.235466 -0.0304436 2.44555e-20)
(0.249681 -0.039687 3.61268e-20)
(0.263693 -0.0480614 -6.69437e-20)
(0.287875 -0.0434303 4.19649e-21)
(0.302127 -0.0517291 6.03684e-20)
(0.315554 -0.059251 -4.08796e-20)
(0.328387 -0.0470986 2.10646e-20)
(0.342581 -0.0552176 2.01842e-20)
(0.35569 -0.0625723 -4.09984e-21)
(0.371189 -0.0505903 -4.79462e-20)
(0.38495 -0.0584302 -1.17671e-20)
(0.397422 -0.0655532 1.27276e-20)
(0.416213 -0.0537794 1.31309e-19)
(0.42909 -0.0612555 -6.79159e-20)
(0.440568 -0.068102 6.94006e-20)
(0.474802 -0.0635677 -5.11409e-20)
(0.484904 -0.0701201 -6.72343e-20)
(0.494066 -0.0763866 1.85222e-20)
(0.521818 -0.0652464 2.16909e-19)
(0.530162 -0.0715196 -2.08632e-19)
(0.537752 -0.0776248 7.39119e-20)
(0.569798 -0.0662089 -5.28449e-20)
(0.576029 -0.0722644 -1.13162e-19)
(0.58181 -0.0782593 1.08956e-19)
(0.618315 -0.0663002 -1.55283e-19)
(0.62215 -0.0722796 9.49383e-20)
(0.625938 -0.0782619 -3.84806e-20)
(0.699955 -0.0708511 0)
(0.700439 -0.0769941 0)
(0.701382 -0.0830963 0)
(0.817895 -0.0694674 0)
(0.813683 -0.0766505 0)
(0.810385 -0.0835311 0)
(0.927629 -0.0621848 0)
(0.919981 -0.0706762 0)
(0.913356 -0.0786466 0)
(1.02383 -0.0518154 0)
(1.0142 -0.0614885 0)
(1.00546 -0.0705212 0)
(1.10392 -0.0403616 0)
(1.09354 -0.0509232 2.21561e-27)
(1.0838 -0.0608039 0)
(1.16741 -0.0288936 0)
(1.15718 -0.0400204 -2.21561e-27)
(1.14733 -0.0504738 0)
(1.21519 -0.0181467 0)
(1.20571 -0.0295425 0)
(1.19638 -0.0402979 0)
(1.24904 -0.00859388 0)
(1.24068 -0.0200035 0)
(1.23225 -0.0308204 0)
(1.27118 -0.000472289 3.5039e-27)
(1.26409 -0.0116856 0)
(1.25677 -0.0223636 0)
(1.28395 0.00616736 -3.5039e-27)
(1.27815 -0.00468872 0)
(1.27199 -0.0150715 0)
(1.28957 0.011403 0)
(1.28497 0.00101734 0)
(1.27993 -0.00895749 0)
(1.29 0.0153905 0)
(1.28646 0.00554578 0)
(1.28242 -0.00394774 0)
(1.28684 0.0183214 -4.343e-11)
(1.28419 0.00905297 0)
(1.28103 8.14161e-05 0)
(1.28133 0.0203895 4.343e-11)
(1.27942 0.0117068 0)
(1.27698 0.00327285 0)
(1.27442 0.0217712 -2.37494e-27)
(1.27308 0.013666 0)
(1.27124 0.00576768 0)
(1.26674 0.0226156 2.37494e-27)
(1.26587 0.0150688 0)
(1.2645 0.0076929 0)
(1.25875 0.0230424 0)
(1.25824 0.0160291 0)
(1.25726 0.00915592 0)
(1.25074 0.0231446 0)
(1.25052 0.0166373 0)
(1.24985 0.0102439 0)
(1.2429 0.0229925 0)
(1.24291 0.0169631 0)
(1.2425 0.0110255 2.98494e-29)
(1.23534 0.0226388 0)
(1.23554 0.0170601 0)
(1.23533 0.0115543 -2.98494e-29)
(1.22813 0.022123 0)
(1.22848 0.016969 0)
(1.22844 0.0118719 0)
(1.2213 0.0214749 0)
(1.22178 0.0167211 0)
(1.22189 0.0120106 0)
(1.21488 0.0207176 -1.02227e-27)
(1.21546 0.0163409 -2.42794e-28)
(1.2157 0.0119963 0)
(1.20886 0.0198687 1.02227e-27)
(1.20953 0.0158479 2.42794e-28)
(1.20988 0.0118497 0)
(1.20325 0.0189427 0)
(1.204 0.0152578 -2.19773e-28)
(1.20444 0.011588 -9.51919e-28)
(1.19805 0.0179509 0)
(1.19886 0.0145838 2.19773e-28)
(1.19938 0.0112254 9.51919e-28)
(1.19324 0.0169031 0)
(1.1941 0.0138368 0)
(1.1947 0.0107742 0)
(1.18881 0.015807 0)
(1.18973 0.0130262 0)
(1.19039 0.0102452 0)
(1.18477 0.0146695 0)
(1.18573 0.0121601 0)
(1.18644 0.00964768 0)
(1.18109 0.0134963 0)
(1.18209 0.0112456 0)
(1.18285 0.00898988 0)
(1.17778 0.0122924 0)
(1.17881 0.0102891 0)
(1.17961 0.00827929 -1.74034e-11)
(1.17482 0.0110622 0)
(1.17587 0.00929601 0)
(1.17671 0.00752262 1.74034e-11)
(1.1722 0.00980939 6.76095e-28)
(1.17328 0.00827143 0)
(1.17416 0.00672601 0)
(1.16993 0.00853745 -6.76095e-28)
(1.17103 0.00721992 0)
(1.17193 0.00589512 0)
(1.16799 0.00724945 -1.49122e-11)
(1.16911 0.00614568 -1.53667e-11)
(1.17003 0.00503521 0)
(1.16639 0.00594821 1.49122e-11)
(1.16752 0.00505266 1.53667e-11)
(1.16846 0.00415124 0)
(1.16511 0.00463644 0)
(1.16625 0.00394461 0)
(1.1672 0.00324799 -6.63108e-28)
(1.16415 0.00331681 0)
(1.1653 0.00282523 0)
(1.16627 0.00233007 6.63108e-28)
(1.16352 0.00199207 -1.41631e-29)
(1.16467 0.00169821 0)
(1.16564 0.00140212 1.50286e-29)
(1.1632 0.000664391 1.43152e-29)
(1.16436 0.000566629 0)
(1.16533 0.000468109 -1.519e-29)
(1.11508 0.0290809 -4.48713e-27)
(1.17808 0.017069 4.48713e-27)
(1.22482 0.00609248 0)
(1.25731 -0.00342242 0)
(1.27799 -0.0112856 3.55009e-27)
(1.28933 -0.0174997 -3.55009e-27)
(1.29365 -0.0221963 4.98815e-11)
(1.29297 -0.0255782 -4.98815e-11)
(1.28889 -0.0278742 -1.88485e-27)
(1.28266 -0.0293053 1.88485e-27)
(1.27517 -0.0300655 -2.36928e-27)
(1.26706 -0.0303143 2.36928e-27)
(1.25874 -0.0301765 0)
(1.25047 -0.0297466 0)
(1.24243 -0.0290945 -2.93425e-11)
(1.23471 -0.0282719 2.93425e-11)
(1.22738 -0.0273162 0)
(1.22045 -0.0262555 0)
(1.21394 -0.0251108 0)
(1.20786 -0.0238979 0)
(1.20219 -0.0226293 2.08394e-11)
(1.19694 -0.0213148 -2.08394e-11)
(1.19209 -0.0199622 0)
(1.18763 -0.0185779 0)
(1.18355 -0.0171671 -1.72621e-29)
(1.17985 -0.015734 1.72621e-29)
(1.17652 -0.0142823 -6.96195e-28)
(1.17354 -0.012815 6.96195e-28)
(1.17091 -0.0113346 -1.5112e-11)
(1.16862 -0.00984324 1.5112e-11)
(1.16668 -0.00834278 0)
(1.16506 -0.00683491 0)
(1.16378 -0.00532117 -6.03646e-28)
(1.16282 -0.00380319 6.03646e-28)
(1.16218 -0.00228273 -1.37149e-11)
(1.16186 -0.000761061 1.38622e-11)
(0.69996 0.0708515 0)
(0.817899 0.0694681 0)
(0.927633 0.0621858 0)
(1.02384 0.0518166 0)
(1.10393 0.040363 4.38343e-27)
(1.16741 0.0288951 -4.38343e-27)
(1.21519 0.0181483 0)
(1.24905 0.00859547 0)
(1.27119 0.000473867 0)
(1.28395 -0.00616582 0)
(1.28957 -0.0114015 4.95016e-11)
(1.29 -0.0153891 -4.95016e-11)
(1.28684 -0.01832 0)
(1.28133 -0.0203882 0)
(1.27442 -0.02177 3.81212e-11)
(1.26674 -0.0226144 -3.81212e-11)
(1.25875 -0.0230414 0)
(1.25074 -0.0231436 0)
(1.2429 -0.0229916 -5.9336e-11)
(1.23534 -0.0226379 5.9336e-11)
(1.22813 -0.0221222 0)
(1.2213 -0.0214742 0)
(1.21488 -0.0207169 0)
(1.20886 -0.0198681 0)
(1.20325 -0.0189421 4.26048e-11)
(1.19805 -0.0179504 -4.26048e-11)
(1.19324 -0.0169026 0)
(1.18881 -0.0158066 0)
(1.18477 -0.0146691 1.77534e-29)
(1.18109 -0.013496 -1.77534e-29)
(1.17778 -0.0122921 0)
(1.17482 -0.0110619 0)
(1.1722 -0.00980914 -1.56169e-11)
(1.16993 -0.00853724 1.56169e-11)
(1.16799 -0.00724928 0)
(1.16639 -0.00594807 0)
(1.16511 -0.00463633 0)
(1.16415 -0.00331673 0)
(1.16352 -0.00199203 -1.42238e-11)
(1.1632 -0.000664376 1.43766e-11)
(0.700443 0.0769948 0)
(0.813687 0.0766514 0)
(0.919985 0.0706774 0)
(1.01421 0.0614899 0)
(1.09354 0.0509248 -2.21562e-27)
(1.15718 0.0400221 2.21562e-27)
(1.20572 0.0295441 0)
(1.24068 0.0200051 0)
(1.26409 0.0116873 -1.78703e-27)
(1.27815 0.00469036 1.78703e-27)
(1.28497 -0.00101577 -4.96282e-28)
(1.28646 -0.00554427 4.96282e-28)
(1.28419 -0.00905153 -4.37525e-28)
(1.27942 -0.0117055 4.37525e-28)
(1.27309 -0.0136647 3.8065e-11)
(1.26587 -0.0150676 -3.8065e-11)
(1.25824 -0.016028 0)
(1.25052 -0.0166362 0)
(1.24291 -0.0169622 -5.97496e-11)
(1.23554 -0.0170592 5.97496e-11)
(1.22848 -0.0169682 0)
(1.22178 -0.0167203 0)
(1.21546 -0.0163402 0)
(1.20953 -0.0158472 0)
(1.204 -0.0152572 2.16833e-11)
(1.19886 -0.0145832 -2.16833e-11)
(1.1941 -0.0138363 0)
(1.18973 -0.0130257 0)
(1.18573 -0.0121597 5.29862e-28)
(1.18209 -0.0112453 -5.29862e-28)
(1.17881 -0.0102887 -1.72528e-28)
(1.17587 -0.0092957 1.72528e-28)
(1.17329 -0.00827117 0)
(1.17103 -0.0072197 0)
(1.16911 -0.0061455 0)
(1.16752 -0.00505251 0)
(1.16625 -0.0039445 -1.51117e-28)
(1.1653 -0.00282515 1.51117e-28)
(1.16467 -0.00169816 0)
(1.16436 -0.000566613 0)
(0.701387 0.0830971 0)
(0.81039 0.0835323 0)
(0.91336 0.078648 0)
(1.00546 0.0705228 0)
(1.0838 0.0608055 0)
(1.14733 0.0504755 0)
(1.19638 0.0402996 0)
(1.23225 0.0308222 0)
(1.25677 0.0223654 3.38592e-27)
(1.27199 0.0150732 -3.38592e-27)
(1.27993 0.00895915 4.82943e-11)
(1.28242 0.00394933 -4.82943e-11)
(0.61832 0.0663003 1.5303e-19)
(0.622155 0.0722799 -9.50489e-20)
(0.625943 0.0782624 3.84861e-20)
(0.569803 0.0662089 5.35782e-20)
(0.576034 0.0722646 1.12267e-19)
(0.581815 0.0782597 -1.08084e-19)
(0.521823 0.0652464 -2.13126e-19)
(0.530166 0.0715198 2.11631e-19)
(0.537757 0.0776252 -7.24691e-20)
(0.474806 0.0635676 4.86492e-20)
(0.484909 0.0701202 6.74554e-20)
(0.494072 0.076387 -2.0803e-20)
(0.416217 0.0537791 -1.31044e-19)
(0.429095 0.0612553 7.08919e-20)
(0.440573 0.0681021 -7.27823e-20)
(0.371193 0.0505899 4.99042e-20)
(0.384955 0.05843 1.20111e-20)
(0.397427 0.0655532 -8.07469e-21)
(0.328391 0.0470981 -2.3546e-20)
(0.342585 0.0552173 -2.17248e-20)
(0.355695 0.0625723 5.39228e-21)
(0.287879 0.0434297 -6.57356e-22)
(0.302131 0.0517287 -6.1426e-20)
(0.315559 0.0592509 3.61993e-20)
(0.235469 0.0304427 -2.65743e-20)
(0.249685 0.0396863 -3.26933e-20)
(0.263697 0.0480609 6.3182e-20)
(0.200446 0.0268365 5.85152e-20)
(0.213817 0.0359498 9.41421e-21)
(0.227356 0.0442966 -7.15615e-21)
(0.167872 0.0234038 -3.51967e-20)
(0.180271 0.0322859 2.4582e-20)
(0.193164 0.0405052 -5.2216e-20)
(0.137689 0.020184 -2.73669e-20)
(0.14904 0.0287456 -1.23991e-20)
(0.161165 0.0367437 2.33857e-20)
(0.109853 0.0172063 2.09685e-20)
(0.120119 0.0253676 -6.91775e-20)
(0.131398 0.033057 8.05285e-20)
(0.0843331 0.0144894 5.1013e-20)
(0.0935084 0.0221796 -6.87222e-20)
(0.103899 0.0294793 5.16832e-20)
(0.0532219 0.0054704 9.10333e-20)
(0.0611068 0.0120446 -3.08779e-20)
(0.0692127 0.0191994 2.51361e-20)
(0.0335552 0.00383321 -2.06777e-20)
(0.0401642 0.00987326 2.15179e-20)
(0.0472443 0.0164356 -4.21577e-21)
(0.0160724 0.00251152 -8.93193e-21)
(0.0215058 0.00796919 4.99137e-20)
(0.0276216 0.0138886 -6.53847e-20)
(0.000768115 0.00155008 -8.88134e-21)
(0.00513439 0.00632351 2.51945e-20)
(0.0103676 0.0115509 -1.07757e-20)
(-0.0123295 0.000848462 -3.57147e-20)
(-0.00896325 0.00491708 6.22209e-21)
(-0.0044928 0.00940812 -2.29663e-20)
(-0.023256 0.000315424 2.11403e-20)
(-0.0207449 0.00371451 -1.47924e-20)
(-0.0169303 0.00743982 1.73562e-20)
(-0.0320123 7.11717e-07 7.93535e-21)
(-0.0301892 0.00269162 -1.21392e-20)
(-0.0269176 0.00562181 2.05341e-20)
(-0.0385887 -0.00011705 2.40557e-21)
(-0.0372885 0.00181695 4.58061e-21)
(-0.0344317 0.00392567 -1.0551e-21)
(-0.0429773 -0.000113306 7.24333e-21)
(-0.0420329 0.001048 -1.09993e-20)
(-0.0394535 0.00231883 1.14046e-20)
(-0.0451731 -4.63615e-05 -1.87711e-21)
(-0.0444082 0.000341628 1.03118e-21)
(-0.0419682 0.000766331 -9.35913e-22)
)
;

boundaryField
{
    inlet
    {
        type            uniformFixedValue;
        uniformValue    constant (1 0 0);
        value           nonuniform 0();
    }
    outlet
    {
        type            pressureInletOutletVelocity;
        value           nonuniform 0();
    }
    cylinder
    {
        type            fixedValue;
        value           nonuniform 0();
    }
    top
    {
        type            symmetryPlane;
    }
    bottom
    {
        type            symmetryPlane;
    }
    defaultFaces
    {
        type            empty;
    }
    procBoundary26to25
    {
        type            processor;
        value           nonuniform List<vector> 
137
(
(-0.0436054 0.000455652 -1.68491e-21)
(-0.0414873 0.00134706 -1.03085e-20)
(-0.0372512 0.00217317 5.65692e-21)
(-0.0308939 0.00289265 3.96974e-21)
(-0.0224194 0.00346727 -2.6917e-20)
(-0.0118324 0.00384309 1.849e-20)
(0.000863267 0.00389847 -1.63114e-20)
(0.0156326 0.00369045 4.45454e-21)
(0.0325263 0.00330916 -3.6772e-20)
(0.0515647 0.00266273 -5.03276e-20)
(0.0750925 -0.00742341 -5.036e-20)
(0.0750925 -0.00742341 -5.036e-20)
(0.0992085 -0.00969341 3.55184e-20)
(0.125622 -0.0122647 1.9502e-20)
(0.154377 -0.0151274 -1.74532e-20)
(0.185562 -0.0182592 -7.37006e-20)
(0.219279 -0.0216262 1.76266e-20)
(0.273007 -0.0341714 5.85958e-20)
(0.273007 -0.0341714 5.85958e-20)
(0.313142 -0.0379538 2.04762e-20)
(0.355948 -0.0417027 -1.10499e-19)
(0.401491 -0.0453001 5.90886e-20)
(0.463329 -0.0565175 -1.66259e-19)
(0.463329 -0.0565175 -1.66259e-19)
(0.512326 -0.0586509 1.15023e-19)
(0.562883 -0.0600238 -1.97695e-19)
(0.614508 -0.0603387 -2.23941e-19)
(0.700157 -0.0646816 0)
(0.700157 -0.0646816 0)
(0.823396 -0.0618873 0)
(0.936613 -0.0530743 0)
(1.03456 -0.0414366 0)
(1.11507 -0.0290796 0)
(1.17808 -0.0170676 0)
(1.22482 -0.00609101 0)
(1.25731 0.00342391 0)
(1.27799 0.0112871 0)
(1.28932 0.0175012 0)
(1.29365 0.0221977 0)
(1.29297 0.0255795 0)
(1.28889 0.0278754 -4.35365e-11)
(1.28266 0.0293065 4.35365e-11)
(1.27517 0.0300667 2.36926e-27)
(1.26706 0.0303154 -2.36926e-27)
(1.25873 0.0301775 0)
(1.25047 0.0297475 0)
(1.24243 0.0290954 0)
(1.23471 0.0282727 0)
(1.22738 0.027317 0)
(1.22045 0.0262562 0)
(1.21394 0.0251114 0)
(1.20786 0.0238985 0)
(1.20219 0.0226298 -9.02193e-28)
(1.19694 0.0213153 9.02193e-28)
(1.19209 0.0199626 0)
(1.18763 0.0185783 0)
(1.18355 0.0171675 1.72619e-29)
(1.17985 0.0157344 -1.72619e-29)
(1.17652 0.0142827 0)
(1.17354 0.0128153 0)
(1.17091 0.0113348 -6.5424e-28)
(1.16862 0.00984344 6.5424e-28)
(1.16668 0.00834295 0)
(1.16506 0.00683504 0)
(1.16378 0.00532127 0)
(1.16282 0.00380326 0)
(1.16218 0.00228277 1.36563e-29)
(1.16186 0.000761076 -1.3803e-29)
(1.12725 0.0169913 2.99946e-27)
(1.18932 0.00446237 -2.99946e-27)
(1.23463 -0.00669664 0)
(1.26546 -0.0161068 0)
(1.28444 -0.0236308 0)
(1.29419 -0.029334 0)
(1.29712 -0.0334078 0)
(1.29527 -0.0361071 0)
(1.29027 -0.0377009 0)
(1.28332 -0.0384378 0)
(1.2753 -0.038529 0)
(1.26678 -0.0381431 0)
(1.25815 -0.0374086 0)
(1.24967 -0.0364205 0)
(1.24146 -0.0352473 -2.88894e-11)
(1.23363 -0.0339384 2.88894e-11)
(1.2262 -0.032529 0)
(1.2192 -0.0310446 0)
(1.21263 -0.0295036 0)
(1.2065 -0.0279199 0)
(1.2008 -0.0263036 2.02908e-11)
(1.19552 -0.0246625 -2.02908e-11)
(1.19065 -0.0230026 0)
(1.18617 -0.0213285 0)
(1.18208 -0.0196436 0)
(1.17837 -0.0179507 0)
(1.17502 -0.0162517 -5.50936e-29)
(1.17204 -0.0145484 5.50936e-29)
(1.1694 -0.0128418 0)
(1.16711 -0.0111328 0)
(1.16516 -0.00942197 0)
(1.16354 -0.00770976 0)
(1.16226 -0.00599652 0)
(1.16129 -0.00428275 0)
(1.16066 -0.0025692 0)
(1.16034 -0.000856304 0)
(0.700161 0.0646819 0)
(0.700161 0.0646819 0)
(0.8234 0.061888 0)
(0.936617 0.0530752 0)
(1.03457 0.0414377 0)
(1.03457 0.0414377 0)
(0.614512 0.0603387 2.2398e-19)
(0.562887 0.0600237 1.98937e-19)
(0.51233 0.0586507 -1.14114e-19)
(0.463333 0.0565173 1.64121e-19)
(0.463333 0.0565173 1.64121e-19)
(0.401494 0.0452997 -5.62723e-20)
(0.355952 0.0417021 1.01998e-19)
(0.313145 0.0379531 -1.36084e-20)
(0.27301 0.0341707 -6.02702e-20)
(0.27301 0.0341707 -6.02702e-20)
(0.219282 0.0216252 -2.15534e-20)
(0.185565 0.0182581 8.3976e-20)
(0.154381 0.0151262 1.61099e-20)
(0.125625 0.0122634 -2.77724e-20)
(0.0992115 0.00969197 -3.09829e-20)
(0.0750954 0.00742186 4.88824e-20)
(0.0750954 0.00742186 4.88824e-20)
(0.0515671 -0.00266459 5.5048e-20)
(0.0325284 -0.00331117 3.64077e-20)
(0.0156344 -0.00369259 -5.1659e-21)
(0.00086482 -0.00390051 1.7477e-20)
(-0.011831 -0.00384506 -2.20737e-20)
(-0.0224182 -0.0034694 2.8117e-20)
(-0.0308931 -0.00289481 -2.90503e-21)
(-0.0372505 -0.00217537 -6.65492e-21)
(-0.0414868 -0.00134935 9.81706e-21)
(-0.0436052 -0.000457968 2.22315e-21)
)
;
    }
    procBoundary26to27
    {
        type            processor;
        value           nonuniform List<vector> 
137
(
(-0.037518 -0.00118339 2.95339e-21)
(-0.0348744 -0.00356339 -3.58025e-21)
(-0.0295966 -0.00598637 4.30067e-21)
(-0.0217034 -0.00847952 -5.23514e-21)
(-0.0112214 -0.0110678 -2.09444e-20)
(0.0018157 -0.0137728 1.81956e-20)
(0.0173693 -0.016612 -4.11168e-21)
(0.0353972 -0.0195984 1.43081e-20)
(0.0558559 -0.0227394 3.58605e-20)
(0.0787024 -0.0260356 -6.99492e-20)
(0.0787024 -0.0260356 -6.99492e-20)
(0.115048 -0.0362672 1.86477e-20)
(0.14321 -0.0401762 -9.12414e-20)
(0.173578 -0.044114 -3.07908e-20)
(0.20608 -0.0480427 2.13339e-21)
(0.240637 -0.0519148 5.19073e-21)
(0.277163 -0.0556732 -2.46354e-20)
(0.277163 -0.0556732 -2.46354e-20)
(0.32827 -0.0661557 -6.61716e-20)
(0.367923 -0.0693604 6.91671e-20)
(0.408911 -0.0721834 9.20619e-21)
(0.451034 -0.0745512 2.05508e-20)
(0.451034 -0.0745512 2.05508e-20)
(0.50265 -0.0824096 5.17471e-20)
(0.544905 -0.083572 -1.9865e-20)
(0.587359 -0.0841712 -7.05448e-20)
(0.629747 -0.0842065 4.31297e-20)
(0.629747 -0.0842065 4.31297e-20)
(0.702729 -0.0891204 0)
(0.807869 -0.090156 0)
(0.907646 -0.0861737 0)
(0.997545 -0.0789832 0)
(1.0747 -0.0700538 0)
(1.13788 -0.0602866 0)
(1.18723 -0.0504343 0)
(1.2238 -0.0410588 0)
(1.24927 -0.0325143 0)
(1.26553 -0.0249836 0)
(1.2745 -0.0185194 0)
(1.27795 -0.0130837 0)
(1.27739 -0.00858373 0)
(1.27406 -0.00490043 0)
(1.26892 -0.00191008 2.34198e-27)
(1.26268 0.000502753 -2.34198e-27)
(1.25584 0.00243841 0)
(1.24876 0.0039802 0)
(1.24168 0.00519524 -2.99823e-11)
(1.23474 0.00613665 2.99823e-11)
(1.22805 0.00684634 -1.16714e-27)
(1.22166 0.00735759 1.16714e-27)
(1.21561 0.00769711 -1.05582e-27)
(1.20992 0.00788673 1.05582e-27)
(1.20459 0.00794465 0)
(1.19962 0.00788637 0)
(1.19503 0.00772526 0)
(1.19079 0.00747308 0)
(1.18691 0.00714028 0)
(1.18338 0.00673623 0)
(1.18019 0.00626943 -1.77278e-11)
(1.17734 0.00574764 1.77278e-11)
(1.17482 0.00517802 0)
(1.17262 0.00456723 0)
(1.17075 0.0039215 0)
(1.1692 0.00324677 0)
(1.16797 0.00254872 6.78586e-28)
(1.16704 0.00183289 -6.78586e-28)
(1.16643 0.00110474 -1.53878e-29)
(1.16612 0.000369142 1.55531e-29)
(1.28103 -7.99024e-05 -1.85176e-27)
(1.27698 -0.00327142 1.85176e-27)
(1.27124 -0.00576634 2.36023e-27)
(1.26451 -0.00769164 -2.36023e-27)
(1.25726 -0.00915474 0)
(1.24985 -0.0102428 0)
(1.2425 -0.0110245 -2.99772e-11)
(1.23533 -0.0115534 2.99772e-11)
(1.22844 -0.011871 0)
(1.22189 -0.0120098 0)
(1.2157 -0.0119956 0)
(1.20988 -0.011849 0)
(1.20444 -0.0115873 -9.51928e-28)
(1.19938 -0.0112248 9.51928e-28)
(1.1947 -0.0107737 -8.71829e-28)
(1.19039 -0.0102447 8.71829e-28)
(1.18644 -0.00964723 1.85415e-29)
(1.18285 -0.00898948 -1.85415e-29)
(1.17961 -0.00827893 -7.53457e-28)
(1.17671 -0.0075223 7.53457e-28)
(1.17416 -0.00672574 0)
(1.17193 -0.00589489 0)
(1.17003 -0.00503502 -6.82702e-28)
(1.16846 -0.00415109 6.82702e-28)
(1.1672 -0.00324787 -6.63115e-28)
(1.16627 -0.00232999 6.63115e-28)
(1.16564 -0.00140207 0)
(1.16533 -0.000468092 0)
(0.702735 0.0891215 0)
(0.629752 0.0842073 -4.51536e-20)
(0.807874 0.0901574 0)
(0.90765 0.0861753 0)
(0.997549 0.0789849 0)
(1.0747 0.0700556 0)
(1.13789 0.0602884 0)
(1.18723 0.0504362 0)
(1.2238 0.0410607 0)
(1.24927 0.0325162 0)
(1.26553 0.0249854 0)
(1.2745 0.0185211 4.75072e-11)
(1.28103 -7.99024e-05 -1.85176e-27)
(1.27795 0.0130854 -4.75072e-11)
(0.629752 0.0842073 -4.51536e-20)
(0.587364 0.084172 7.16172e-20)
(0.54491 0.0835727 2.24917e-20)
(0.502655 0.0824103 -5.45599e-20)
(0.45104 0.0745516 -2.17022e-20)
(0.45104 0.0745516 -2.17022e-20)
(0.408916 0.0721837 -5.14545e-21)
(0.367928 0.0693607 -1.43976e-20)
(0.328275 0.0661559 6.51904e-20)
(0.277167 0.055673 2.2039e-20)
(0.277167 0.055673 2.2039e-20)
(0.240642 0.0519146 5.40672e-20)
(0.206085 0.0480424 -5.73694e-21)
(0.173583 0.0441136 -1.94926e-20)
(0.143214 0.0401758 9.46056e-20)
(0.115052 0.0362667 3.50783e-20)
(0.0787059 0.0260347 7.58395e-20)
(0.0787059 0.0260347 7.58395e-20)
(0.0558591 0.0227384 -4.30777e-20)
(0.0354001 0.0195974 -1.19264e-20)
(0.0173719 0.0166109 4.2809e-21)
(0.00181793 0.0137717 -1.96353e-20)
(-0.0112196 0.0110666 2.02042e-20)
(-0.0217019 0.00847835 5.07914e-21)
(-0.0295956 0.00598517 -3.18321e-21)
(-0.0348738 0.00356218 3.34324e-21)
(-0.0375178 0.00118216 -2.69492e-21)
)
;
    }
}


// ************************************************************************* //
