/*--------------------------------*- C++ -*----------------------------------*\
  =========                 |
  \\      /  F ield         | OpenFOAM: The Open Source CFD Toolbox
   \\    /   O peration     | Website:  https://openfoam.org
    \\  /    A nd           | Version:  7
     \\/     M anipulation  |
\*---------------------------------------------------------------------------*/
FoamFile
{
    version     2.0;
    format      ascii;
    class       volVectorField;
    location    "5";
    object      U;
}
// * * * * * * * * * * * * * * * * * * * * * * * * * * * * * * * * * * * * * //

dimensions      [0 1 -1 0 0 0 0];

internalField   nonuniform List<vector> 
183
(
(1.0974 0.283303 -2.8059e-20)
(1.09557 0.268416 4.23409e-21)
(1.08459 0.31802 -3.6904e-20)
(1.08327 0.30109 1.11458e-20)
(1.08185 0.286177 -1.2304e-20)
(1.0706 0.359402 1.71287e-20)
(1.06831 0.339546 8.64944e-21)
(1.06703 0.320825 3.49223e-21)
(1.05302 0.383871 -2.94848e-20)
(1.05087 0.362237 -1.00432e-20)
(1.0356 0.434917 -2.49456e-20)
(1.0334 0.409687 5.01654e-20)
(1.03179 0.386108 -2.02932e-20)
(1.01253 0.464401 -5.79794e-20)
(1.01126 0.436837 -2.64564e-21)
(1.0105 0.411148 -3.13023e-21)
(0.986176 0.495414 -4.06432e-20)
(0.986127 0.46531 1.72406e-20)
(0.954422 0.562873 4.56964e-21)
(0.955989 0.527873 1.88042e-21)
(0.957549 0.495075 6.93479e-21)
(0.916503 0.598553 5.31989e-21)
(0.921211 0.561481 5.93302e-21)
(0.924977 0.526023 6.23689e-21)
(0.880685 0.59541 -8.74983e-21)
(0.887698 0.557849 1.36765e-20)
(0.832456 0.627615 1.62547e-20)
(0.844645 0.589745 -2.30764e-20)
(0.773228 0.653619 8.88865e-20)
(0.794047 0.619746 -1.17391e-20)
(0.697894 0.664792 3.94334e-20)
(0.732937 0.64354 -2.11211e-20)
(0.755739 0.60903 -3.52782e-20)
(0.599658 0.646664 -4.6431e-20)
(0.65676 0.652769 5.77984e-21)
(0.692845 0.630297 -6.77608e-20)
(0.559555 0.633369 1.23581e-19)
(0.615895 0.637276 -5.77915e-20)
(0.435282 0.565131 -1.5905e-19)
(0.519761 0.616398 5.18619e-20)
(0.575616 0.61837 -1.38345e-20)
(0.399559 0.548231 2.64368e-20)
(0.480617 0.595828 3.92433e-20)
(0.254565 0.409077 2.22145e-19)
(0.364493 0.527804 -5.26699e-20)
(0.442456 0.57176 1.40205e-19)
(0.228035 0.392069 -5.95033e-20)
(0.330414 0.503965 -9.56102e-20)
(0.0829473 0.167006 6.14716e-20)
(0.20235 0.372242 3.64402e-19)
(0.29764 0.476851 1.16061e-19)
(0.0718384 0.157527 6.0341e-20)
(0.177777 0.349724 7.39731e-20)
(0.0612707 0.146763 -3.00122e-19)
(0.154571 0.324665 1.75479e-19)
(0.0513706 0.134794 2.44687e-19)
(0.13297 0.29724 6.70287e-20)
(0.0422555 0.121713 -3.64245e-20)
(0.113191 0.26764 -1.11643e-19)
(0.0340328 0.107622 2.47016e-19)
(0.0267989 0.092636 -2.36764e-19)
(0.0206381 0.076876 5.8495e-21)
(0.0156218 0.0604724 -6.34248e-20)
(0.0118081 0.0435615 1.04705e-19)
(0.00924095 0.0262847 -5.19329e-20)
(0.00794993 0.00878684 -3.70309e-21)
(0.0079499 -0.00878493 1.15703e-21)
(0.00924084 -0.0262828 -3.32679e-20)
(0.0118079 -0.0435596 -9.57022e-20)
(0.0156216 -0.0604705 3.07442e-20)
(0.0206378 -0.0768742 1.27165e-19)
(0.0267986 -0.0926342 -2.31333e-20)
(0.0340324 -0.107621 1.13307e-19)
(0.042255 -0.121711 -7.86418e-20)
(0.113191 -0.267637 2.7141e-20)
(0.05137 -0.134793 1.84304e-19)
(0.132969 -0.297236 -1.1174e-19)
(0.0612701 -0.146761 -1.83156e-19)
(0.15457 -0.324662 -1.94212e-19)
(0.0718378 -0.157526 2.50125e-19)
(0.177776 -0.349721 -3.89894e-19)
(0.0829467 -0.167005 -3.83425e-19)
(0.202349 -0.37224 1.76258e-19)
(0.297638 -0.476848 -1.80247e-19)
(0.228034 -0.392067 -1.82504e-19)
(0.330412 -0.503961 2.86642e-19)
(0.254564 -0.409074 1.82877e-21)
(0.364491 -0.527801 -2.40446e-19)
(0.442454 -0.571757 -5.63008e-20)
(0.399558 -0.548228 2.00526e-19)
(0.480616 -0.595825 -2.23435e-19)
(0.43528 -0.565128 -4.17648e-20)
(0.519759 -0.616395 1.13777e-21)
(0.575615 -0.618367 5.09423e-20)
(0.559554 -0.633366 7.98704e-20)
(0.615894 -0.637273 9.99703e-20)
(0.599657 -0.646661 -6.2525e-20)
(0.656758 -0.652766 -1.85837e-19)
(0.692843 -0.630293 5.55754e-20)
(0.697893 -0.664789 1.68176e-20)
(0.732936 -0.643537 -3.36037e-20)
(0.755738 -0.609027 2.56606e-22)
(0.773227 -0.653616 -2.19922e-20)
(0.794046 -0.619743 7.40953e-20)
(0.832455 -0.627613 -4.35988e-20)
(0.844644 -0.589742 2.46107e-20)
(0.880684 -0.595408 -1.27005e-20)
(0.887698 -0.557846 2.45376e-21)
(0.921211 -0.561478 9.98355e-21)
(0.924977 -0.52602 -1.04041e-20)
(0.955988 -0.52787 8.85838e-21)
(0.957549 -0.495072 9.05899e-21)
(0.986175 -0.495412 1.6051e-20)
(0.986127 -0.465307 2.59691e-20)
(1.01252 -0.464399 2.28196e-20)
(1.01126 -0.436834 -1.26347e-20)
(1.0105 -0.411145 -5.00656e-21)
(1.0356 -0.434914 4.02213e-20)
(1.0334 -0.409684 -4.20132e-20)
(1.03179 -0.386105 1.01386e-20)
(1.05302 -0.383869 3.96218e-20)
(1.05087 -0.362234 2.16296e-20)
(1.0706 -0.359399 -2.87195e-20)
(1.06832 -0.339543 2.93379e-20)
(1.06703 -0.320822 3.41516e-20)
(1.08459 -0.318018 -7.54796e-22)
(1.08327 -0.301087 -1.11421e-20)
(1.08185 -0.286174 5.21125e-20)
(1.0974 -0.2833 -3.96585e-20)
(1.09557 -0.268413 2.23013e-20)
(1.1014 0.212477 5.96076e-21)
(1.10438 0.195877 -4.6171e-21)
(1.10715 0.15438 -3.15029e-21)
(1.10555 0.135411 5.55942e-21)
(1.10147 0.114109 -1.57001e-21)
(1.09732 0.0987733 -5.58645e-21)
(1.09273 0.0850494 4.15593e-21)
(1.08829 0.073587 -1.30376e-21)
(1.08387 0.0637327 -1.84437e-21)
(1.07965 0.0551977 -2.65974e-21)
(1.07571 0.0477341 -1.59328e-21)
(1.07209 0.0411436 5.56715e-22)
(1.06883 0.0352644 -1.31606e-21)
(1.06594 0.0299652 3.66431e-22)
(1.06342 0.0251359 -8.28404e-22)
(1.06129 0.0206876 -1.03851e-22)
(1.05952 0.0165386 7.03969e-22)
(1.05813 0.012629 -3.24048e-22)
(1.05709 0.00889089 3.71267e-22)
(1.05642 0.00528251 2.61933e-22)
(1.0561 0.0017331 -7.8566e-22)
(1.05731 0.012818 3.95196e-22)
(1.05629 0.00902256 -6.33817e-22)
(1.05564 0.00535961 1.5321e-22)
(1.05532 0.0017612 3.72509e-22)
(1.06493 -0.0304435 2.2434e-21)
(1.06248 -0.0255301 -1.5114e-21)
(1.0604 -0.0210067 7.9377e-23)
(1.05867 -0.0167898 9.42826e-22)
(1.05731 -0.0128184 9.25849e-23)
(1.05629 -0.00902282 8.01385e-22)
(1.05564 -0.00535978 -3.79304e-22)
(1.05532 -0.00176125 1.02271e-21)
(1.1014 -0.212474 -5.95795e-21)
(1.10438 -0.195874 4.61513e-21)
(1.10715 -0.154377 3.14863e-21)
(1.10556 -0.135409 -1.92255e-21)
(1.10147 -0.114108 -1.66321e-21)
(1.09732 -0.0987739 5.58215e-21)
(1.09273 -0.0850504 -4.15232e-21)
(1.08829 -0.0735879 1.30273e-21)
(1.08388 -0.0637339 1.84261e-21)
(1.07965 -0.0551988 7.03981e-22)
(1.07571 -0.0477351 1.59141e-21)
(1.07209 -0.0411444 -5.55998e-22)
(1.06883 -0.0352651 1.31433e-21)
(1.06594 -0.0299658 -8.43403e-22)
(1.06343 -0.0251365 8.00234e-22)
(1.06129 -0.0206882 -1.2947e-22)
(1.05952 -0.0165391 -5.66015e-22)
(1.05813 -0.0126293 -2.0001e-22)
(1.05709 -0.00889114 4.69394e-22)
(1.05642 -0.00528267 -3.42253e-23)
)
;

boundaryField
{
    inlet
    {
        type            uniformFixedValue;
        uniformValue    constant (1 0 0);
        value           nonuniform 0();
    }
    outlet
    {
        type            pressureInletOutletVelocity;
        value           nonuniform 0();
    }
    cylinder
    {
        type            fixedValue;
        value           uniform (0 0 0);
    }
    top
    {
        type            symmetryPlane;
    }
    bottom
    {
        type            symmetryPlane;
    }
    defaultFaces
    {
        type            empty;
    }
    procBoundary10to9
    {
        type            processor;
        value           nonuniform List<vector> 
144
(
(1.08093 0.27084 -7.90531e-21)
(1.06649 0.303507 -2.04081e-20)
(1.08093 0.27084 -7.90531e-21)
(1.06586 0.288296 -5.10243e-21)
(1.0495 0.341919 3.28601e-22)
(1.06649 0.303507 -2.04081e-20)
(1.04905 0.322779 -2.25185e-20)
(1.0495 0.341919 3.28601e-22)
(1.03075 0.364046 -8.07019e-21)
(1.03075 0.364046 -8.07019e-21)
(1.0102 0.387178 1.78744e-20)
(0.986508 0.437325 2.23886e-20)
(1.0102 0.387178 1.78744e-20)
(0.987263 0.411289 -2.26055e-20)
(0.986508 0.437325 2.23886e-20)
(0.959367 0.464601 -1.65667e-20)
(0.959367 0.464601 -1.65667e-20)
(0.928624 0.492915 6.56513e-20)
(0.928624 0.492915 6.56513e-20)
(0.893748 0.522133 9.01449e-21)
(0.893748 0.522133 9.01449e-21)
(0.854066 0.551935 3.89915e-21)
(0.854066 0.551935 3.89915e-21)
(0.808596 0.581529 -8.79593e-20)
(0.808596 0.581529 -8.79593e-20)
(0.772748 0.570753 1.16924e-20)
(0.717775 0.595477 -1.19498e-19)
(0.717775 0.595477 -1.19498e-19)
(0.653231 0.613921 1.2857e-19)
(0.653231 0.613921 1.2857e-19)
(0.614369 0.594468 1.96896e-20)
(0.536229 0.596129 -1.91727e-19)
(0.536229 0.596129 -1.91727e-19)
(0.498028 0.570656 1.09737e-19)
(0.405592 0.54432 2.57525e-19)
(0.405592 0.54432 2.57525e-19)
(0.370328 0.513657 -1.95855e-19)
(0.26647 0.446628 -1.16635e-19)
(0.26647 0.446628 -1.16635e-19)
(0.237188 0.413485 1.93238e-19)
(0.210054 0.37763 3.06638e-19)
(0.185307 0.339294 -1.52661e-19)
(0.0954348 0.236078 2.54203e-19)
(0.0954348 0.236078 2.54203e-19)
(0.0798767 0.202781 -2.8413e-19)
(0.0666711 0.167992 2.44513e-19)
(0.0559482 0.131965 -1.26887e-19)
(0.047813 0.0949634 7.63748e-20)
(0.0423451 0.0572609 4.22286e-20)
(0.0395977 0.0191353 4.00323e-21)
(0.0395977 -0.0191316 2.42042e-20)
(0.0423449 -0.0572572 -4.18123e-21)
(0.0478127 -0.0949597 -4.94537e-20)
(0.0559478 -0.131961 -1.50672e-19)
(0.0666706 -0.167989 2.03681e-19)
(0.079876 -0.202778 -4.0255e-19)
(0.095434 -0.236075 1.68664e-19)
(0.095434 -0.236075 1.68664e-19)
(0.185306 -0.33929 -1.03493e-19)
(0.210053 -0.377626 -4.83701e-20)
(0.237187 -0.413481 2.35137e-19)
(0.266469 -0.446625 -2.07293e-19)
(0.266469 -0.446625 -2.07293e-19)
(0.370327 -0.513653 -4.54398e-19)
(0.405591 -0.544316 1.70972e-19)
(0.405591 -0.544316 1.70972e-19)
(0.498026 -0.570652 1.56746e-19)
(0.536228 -0.596126 -1.49417e-19)
(0.536228 -0.596126 -1.49417e-19)
(0.614368 -0.594464 -2.30899e-19)
(0.65323 -0.613918 8.50579e-20)
(0.65323 -0.613918 8.50579e-20)
(0.717774 -0.595474 -1.01546e-19)
(0.717774 -0.595474 -1.01546e-19)
(0.772747 -0.57075 -4.62891e-20)
(0.808595 -0.581527 1.13712e-19)
(0.808595 -0.581527 1.13712e-19)
(0.854065 -0.551932 6.05861e-21)
(0.854065 -0.551932 6.05861e-21)
(0.893747 -0.52213 -4.07139e-20)
(0.893747 -0.52213 -4.07139e-20)
(0.928623 -0.492913 4.03054e-20)
(0.928623 -0.492913 4.03054e-20)
(0.959367 -0.464598 -1.76696e-20)
(0.959367 -0.464598 -1.76696e-20)
(0.986508 -0.437322 1.21366e-20)
(0.986508 -0.437322 1.21366e-20)
(0.987263 -0.411286 2.26168e-20)
(1.0102 -0.387175 3.89032e-21)
(1.0102 -0.387175 3.89032e-21)
(1.03075 -0.364043 8.16826e-21)
(1.03075 -0.364043 8.16826e-21)
(1.0495 -0.341916 2.45122e-21)
(1.0495 -0.341916 2.45122e-21)
(1.04905 -0.322776 2.24961e-20)
(1.06649 -0.303504 1.81372e-20)
(1.06649 -0.303504 1.81372e-20)
(1.06586 -0.288293 5.09866e-21)
(1.08093 -0.270837 7.90189e-21)
(1.08093 -0.270837 7.90189e-21)
(1.08982 0.213851 1.05895e-22)
(1.09621 0.197906 -4.84048e-21)
(1.10078 0.156969 -6.26917e-22)
(1.10076 0.137326 2.78916e-21)
(1.0977 0.116057 -1.1307e-21)
(1.09426 0.100415 -7.44301e-21)
(1.09021 0.086525 -1.15479e-21)
(1.08618 0.0748515 7.99189e-21)
(1.08209 0.0648245 -4.10407e-21)
(1.07811 0.0561348 -1.09926e-21)
(1.07435 0.0485341 -4.30321e-22)
(1.07088 0.0418225 1.32959e-22)
(1.06773 0.0358366 -2.0661e-21)
(1.06493 0.0304428 -4.97291e-22)
(1.06248 0.0255295 1.51388e-21)
(1.0604 0.0210062 -7.9478e-23)
(1.05867 0.0167894 -9.44547e-22)
(1.05867 0.0167894 -9.44547e-22)
(1.05648 0.0130027 -6.12446e-23)
(1.05549 0.00915114 -9.765e-22)
(1.05485 0.00543503 -9.63671e-23)
(1.05454 0.00178903 3.37688e-22)
(1.06392 -0.0309108 1.44651e-21)
(1.06154 -0.0259151 -1.77907e-21)
(1.0595 -0.0213182 7.94786e-22)
(1.05782 -0.0170349 8.57732e-22)
(1.05648 -0.0130031 6.11346e-23)
(1.05549 -0.00915141 9.74458e-22)
(1.05485 -0.00543521 9.61323e-23)
(1.05454 -0.00178908 -3.36885e-22)
(1.08983 -0.213848 -1.05974e-22)
(1.09621 -0.197903 4.83766e-21)
(1.10079 -0.156966 6.26588e-22)
(1.10076 -0.137324 -2.78724e-21)
(1.09771 -0.116056 1.12991e-21)
(1.09427 -0.100415 7.43633e-21)
(1.09021 -0.0865262 1.15324e-21)
(1.08618 -0.0748525 -7.50235e-21)
(1.08209 -0.0648257 2.86056e-21)
(1.07811 -0.056136 1.49622e-21)
(1.07435 -0.0485352 -1.50544e-21)
(1.07088 -0.0418234 -1.99907e-22)
(1.06773 -0.0358373 2.45537e-21)
(1.06773 -0.0358373 2.45537e-21)
)
;
    }
    procBoundary10to11
    {
        type            processor;
        value           nonuniform List<vector> 
123
(
(1.11248 0.279712 3.44111e-20)
(1.1098 0.265333 -5.69083e-20)
(1.10167 0.314399 -5.60401e-20)
(1.09957 0.297892 2.75916e-20)
(1.09957 0.297892 2.75916e-20)
(1.08986 0.355592 -6.51764e-20)
(1.0867 0.336265 1.22944e-20)
(1.0867 0.336265 1.22944e-20)
(1.07379 0.380526 -8.72382e-20)
(1.07379 0.380526 -8.72382e-20)
(1.05942 0.43163 -5.55984e-20)
(1.05586 0.406964 1.95471e-20)
(1.05586 0.406964 1.95471e-20)
(1.03844 0.46194 -3.91762e-20)
(1.03844 0.46194 -3.91762e-20)
(1.01437 0.493994 -3.42625e-20)
(1.01437 0.493994 -3.42625e-20)
(0.987152 0.562081 9.20092e-20)
(0.986625 0.527735 4.89882e-21)
(0.986625 0.527735 4.89882e-21)
(0.951888 0.599216 9.87008e-21)
(0.951888 0.599216 9.87008e-21)
(0.908588 0.634866 3.43823e-20)
(0.87072 0.632647 4.11044e-21)
(0.87072 0.632647 4.11044e-21)
(0.813432 0.66052 4.30012e-20)
(0.813432 0.66052 4.30012e-20)
(0.738975 0.673311 4.12055e-20)
(0.738975 0.673311 4.12055e-20)
(0.639716 0.656233 3.67271e-20)
(0.639716 0.656233 3.67271e-20)
(0.507309 0.588037 3.78165e-20)
(0.471317 0.578419 1.52542e-19)
(0.471317 0.578419 1.52542e-19)
(0.309018 0.434243 -2.07355e-19)
(0.281657 0.423161 1.69349e-19)
(0.281657 0.423161 1.69349e-19)
(0.106247 0.181857 1.56414e-20)
(0.0944635 0.175134 2.39293e-19)
(0.0944635 0.175134 2.39293e-19)
(0.0944629 -0.175133 2.73698e-20)
(0.0944629 -0.175133 2.73698e-20)
(0.106246 -0.181856 -2.61323e-19)
(0.281656 -0.423158 -4.31131e-21)
(0.281656 -0.423158 -4.31131e-21)
(0.309017 -0.434241 -1.37576e-19)
(0.471315 -0.578416 -6.00583e-21)
(0.471315 -0.578416 -6.00583e-21)
(0.507308 -0.588035 4.0558e-20)
(0.639715 -0.656231 -2.01584e-20)
(0.639715 -0.656231 -2.01584e-20)
(0.738974 -0.673309 -4.01525e-20)
(0.738974 -0.673309 -4.01525e-20)
(0.813431 -0.660518 -3.53538e-20)
(0.813431 -0.660518 -3.53538e-20)
(0.870719 -0.632644 -1.4909e-20)
(0.870719 -0.632644 -1.4909e-20)
(0.916502 -0.598551 1.92327e-20)
(0.916502 -0.598551 1.92327e-20)
(0.954422 -0.562871 -4.44612e-21)
(0.954422 -0.562871 -4.44612e-21)
(0.986624 -0.527732 3.00124e-20)
(0.986624 -0.527732 3.00124e-20)
(1.01437 -0.493992 -3.66962e-20)
(1.01437 -0.493992 -3.66962e-20)
(1.03844 -0.461937 6.2991e-20)
(1.03844 -0.461937 6.2991e-20)
(1.05942 -0.431628 6.72213e-20)
(1.05586 -0.406961 1.23602e-20)
(1.05586 -0.406961 1.23602e-20)
(1.07379 -0.380523 1.5519e-20)
(1.07379 -0.380523 1.5519e-20)
(1.08986 -0.355589 6.46147e-20)
(1.0867 -0.336263 -4.92013e-20)
(1.0867 -0.336263 -4.92013e-20)
(1.10168 -0.314397 5.60253e-20)
(1.09958 -0.297889 -5.65509e-20)
(1.09958 -0.297889 -5.65509e-20)
(1.11249 -0.27971 -3.44009e-20)
(1.10981 -0.26533 1.0427e-20)
(1.11273 0.210705 -5.40575e-21)
(1.11234 0.193429 6.03083e-21)
(1.11327 0.15168 -3.288e-21)
(1.11015 0.133397 8.20829e-21)
(1.10509 0.11209 4.43422e-21)
(1.10029 0.0970854 -6.18267e-21)
(1.0952 0.0835361 2.60515e-22)
(1.09037 0.0722928 2.02118e-21)
(1.08565 0.0626151 -1.99363e-21)
(1.08119 0.0542394 2.39121e-21)
(1.07707 0.0469164 -3.61673e-21)
(1.0733 0.0404496 1.30568e-21)
(1.06993 0.0346796 -1.02218e-21)
(1.06695 0.0294769 -9.08207e-24)
(1.06437 0.0247334 -2.67841e-22)
(1.06217 0.0203617 5.12726e-22)
(1.06037 0.016282 6.55076e-22)
(1.05894 0.0124355 -3.23101e-22)
(1.05788 0.00875602 5.78923e-22)
(1.0572 0.00520366 -5.73898e-22)
(1.05687 0.00170478 -6.92258e-24)
(1.0561 -0.00173315 8.67686e-22)
(1.11273 -0.210702 9.54505e-21)
(1.11235 -0.193426 -3.55012e-21)
(1.11328 -0.151678 -9.57684e-22)
(1.11015 -0.133395 -2.08268e-21)
(1.1051 -0.112089 2.78395e-21)
(1.10029 -0.0970859 5.12474e-21)
(1.0952 -0.083537 -1.14924e-21)
(1.09037 -0.0722936 -1.20824e-21)
(1.08565 -0.0626162 1.2734e-21)
(1.08119 -0.0542404 -1.12968e-21)
(1.07707 -0.0469174 4.42475e-22)
(1.07331 -0.0404504 -1.30423e-21)
(1.06993 -0.0346803 1.02095e-21)
(1.06695 -0.0294775 9.03457e-24)
(1.06437 -0.0247339 -3.58308e-22)
(1.06217 -0.0203622 1.14256e-22)
(1.06037 -0.0162824 -6.54081e-22)
(1.05894 -0.0124358 5.53593e-23)
(1.05788 -0.00875627 2.56794e-23)
(1.0561 -0.00173315 8.67686e-22)
(1.0572 -0.00520381 3.13204e-22)
)
;
    }
}


// ************************************************************************* //
