/*--------------------------------*- C++ -*----------------------------------*\
  =========                 |
  \\      /  F ield         | OpenFOAM: The Open Source CFD Toolbox
   \\    /   O peration     | Website:  https://openfoam.org
    \\  /    A nd           | Version:  7
     \\/     M anipulation  |
\*---------------------------------------------------------------------------*/
FoamFile
{
    version     2.0;
    format      ascii;
    class       volScalarField;
    location    "70";
    object      p;
}
// * * * * * * * * * * * * * * * * * * * * * * * * * * * * * * * * * * * * * //

dimensions      [0 2 -2 0 0 0 0];

internalField   nonuniform List<scalar> 
36
(
-0.00573663
-0.0058173
-0.00597942
-0.00622344
-0.00654919
-0.00696172
-0.00746967
-0.00801193
-0.00618994
-0.00705774
-0.00790356
-0.00868835
-0.0093797
-0.00996104
-0.0104322
-0.0108015
-0.01108
-0.0112785
-0.0114059
-0.0114696
-0.0143984
-0.0146319
-0.0147812
-0.0148533
-0.00618994
-0.00705774
-0.00790356
-0.00868835
-0.00801193
-0.00746967
-0.00696172
-0.00654919
-0.00622344
-0.00597942
-0.0058173
-0.00573663
)
;

boundaryField
{
    inlet
    {
        type            zeroGradient;
    }
    outlet
    {
        type            fixedValue;
        value           nonuniform 0();
    }
    cylinder
    {
        type            zeroGradient;
    }
    top
    {
        type            symmetryPlane;
    }
    bottom
    {
        type            symmetryPlane;
    }
    defaultFaces
    {
        type            empty;
    }
    procBoundary59to57
    {
        type            processor;
        value           nonuniform List<scalar> 4(-0.0178047 -0.0180607 -0.0182241 -0.0183041);
    }
    procBoundary59to58
    {
        type            processor;
        value           nonuniform List<scalar> 
35
(
-0.00817111
-0.00826466
-0.00845252
-0.00873492
-0.0091111
-0.00958751
-0.0101772
-0.0107991
-0.00867374
-0.00867374
-0.00968065
-0.0106641
-0.0115823
-0.0123947
-0.0130794
-0.013635
-0.0140704
-0.0143984
-0.0146319
-0.0147812
-0.0148533
-0.00867374
-0.00867374
-0.00968065
-0.0106641
-0.0115823
-0.0140704
-0.0107991
-0.0101772
-0.00958751
-0.0091111
-0.00873492
-0.00845252
-0.00826466
-0.00817111
)
;
    }
    procBoundary59to60
    {
        type            processor;
        value           nonuniform List<scalar> 
35
(
-0.00377964
-0.00384561
-0.00397809
-0.00417734
-0.00444326
-0.00477972
-0.00519195
-0.00563222
-0.00563222
-0.00398428
-0.00478083
-0.0055233
-0.00617914
-0.00673085
-0.00717728
-0.0075289
-0.00779946
-0.0080015
-0.00814491
-0.0082366
-0.00827939
-0.01108
-0.0112785
-0.0114059
-0.0114696
-0.00563222
-0.0093797
-0.00563222
-0.00519195
-0.00477972
-0.00444326
-0.00417734
-0.00397809
-0.00384561
-0.00377964
)
;
    }
    procBoundary59to61
    {
        type            processor;
        value           nonuniform List<scalar> 4(-0.00398428 -0.00478083 -0.0055233 -0.00617914);
    }
}


// ************************************************************************* //
