/*--------------------------------*- C++ -*----------------------------------*\
  =========                 |
  \\      /  F ield         | OpenFOAM: The Open Source CFD Toolbox
   \\    /   O peration     | Website:  https://openfoam.org
    \\  /    A nd           | Version:  7
     \\/     M anipulation  |
\*---------------------------------------------------------------------------*/
FoamFile
{
    version     2.0;
    format      ascii;
    class       volVectorField;
    location    "94";
    object      U;
}
// * * * * * * * * * * * * * * * * * * * * * * * * * * * * * * * * * * * * * //

dimensions      [0 1 -1 0 0 0 0];

internalField   nonuniform List<vector> 
40000
(
(0.000116982 -0.0211069 -2.87053e-21)
(-0.000312937 -0.0576483 8.84633e-21)
(-0.00194228 -0.0895505 -5.6619e-21)
(-0.00460568 -0.116907 -3.44546e-24)
(-0.00822589 -0.13987 2.48916e-23)
(-0.0127487 -0.15867 2.47991e-24)
(-0.0180978 -0.173612 -9.35623e-21)
(-0.0241818 -0.185069 2.22966e-21)
(-0.0309005 -0.193461 -6.32081e-21)
(-0.0381489 -0.199243 -2.01365e-21)
(-0.0458205 -0.202876 0)
(-0.0538117 -0.204807 -7.22852e-21)
(-0.0620252 -0.205444 0)
(-0.0703723 -0.205139 0)
(-0.0787744 -0.204171 -6.16273e-21)
(-0.0871635 -0.202743 5.8394e-21)
(-0.0954809 -0.200973 -2.79058e-21)
(-0.103676 -0.198905 -1.42651e-23)
(-0.111706 -0.196511 2.49071e-21)
(-0.119531 -0.193705 0)
(-0.127115 -0.190348 -2.24809e-21)
(-0.134422 -0.186264 -6.29081e-21)
(-0.141417 -0.181245 7.94938e-21)
(-0.148068 -0.175057 -3.81785e-21)
(-0.154341 -0.167447 1.06906e-20)
(-0.16021 -0.158147 6.71881e-21)
(-0.165655 -0.146876 -1.26983e-20)
(-0.170652 -0.133349 1.1995e-20)
(-0.175167 -0.11725 -2.8962e-21)
(-0.179331 -0.0982085 -5.24692e-21)
(0.000607536 -0.0204783 0)
(0.000906529 -0.0558734 5.76261e-21)
(-0.000298232 -0.0867246 1.12191e-20)
(-0.00277336 -0.113122 -1.07069e-20)
(-0.00639712 -0.135222 -5.09536e-21)
(-0.0110813 -0.153262 1.94542e-20)
(-0.0167169 -0.167552 -4.6271e-21)
(-0.0231828 -0.178466 -8.80656e-21)
(-0.0303533 -0.186425 1.15894e-22)
(-0.0381018 -0.19188 -2.38778e-20)
(-0.0463046 -0.195286 7.57257e-21)
(-0.0548453 -0.19708 2.87393e-20)
(-0.0636177 -0.197662 -1.36427e-20)
(-0.0725282 -0.19737 -1.89344e-23)
(-0.0814966 -0.196475 -6.04154e-21)
(-0.090456 -0.195168 -4.58966e-23)
(-0.0993515 -0.193561 0)
(-0.108138 -0.19169 0)
(-0.116779 -0.189524 1.95404e-20)
(-0.125244 -0.186971 0)
(-0.133504 -0.183895 8.82963e-21)
(-0.141536 -0.180117 -8.24407e-21)
(-0.149317 -0.175427 -1.06684e-22)
(-0.156827 -0.169591 0)
(-0.164049 -0.162355 1.37916e-20)
(-0.170972 -0.153446 -1.33233e-20)
(-0.177594 -0.14258 1.26986e-20)
(-0.183899 -0.129467 -1.19953e-20)
(-0.189822 -0.113782 1.11543e-20)
(-0.195564 -0.095118 -3.08385e-20)
(0.00105992 -0.0197239 -1.11728e-20)
(0.00202749 -0.0537808 -1.16481e-20)
(0.00120768 -0.0834419 0)
(-0.00110099 -0.108786 0)
(-0.00473358 -0.129967 0)
(-0.00956854 -0.147221 9.5219e-21)
(-0.0154652 -0.160857 0)
(-0.0222738 -0.171245 8.79657e-21)
(-0.0298437 -0.1788 1.67254e-20)
(-0.0380278 -0.183964 1.58885e-20)
(-0.0466859 -0.187181 0)
(-0.0556891 -0.188877 -1.44734e-22)
(-0.0649225 -0.189438 -2.68562e-20)
(-0.0742874 -0.189191 2.5442e-20)
(-0.0837014 -0.188393 1.21842e-20)
(-0.0930981 -0.187227 1.14837e-20)
(-0.102425 -0.185796 -1.08315e-20)
(-0.111641 -0.18413 2.03744e-20)
(-0.120715 -0.182194 -3.87871e-20)
(-0.129621 -0.179896 1.84539e-22)
(-0.13834 -0.177095 -3.44091e-20)
(-0.146855 -0.173612 3.23317e-20)
(-0.155153 -0.169238 0)
(-0.163226 -0.163736 0)
(-0.171069 -0.156848 1.31398e-20)
(-0.178684 -0.148301 0)
(-0.186089 -0.137808 0)
(-0.19327 -0.12508 0)
(-0.200123 -0.109789 -2.09844e-20)
(-0.206929 -0.0915159 2.05569e-20)
(0.001466 -0.0188535 1.11728e-20)
(0.00303049 -0.0513964 1.44774e-22)
(0.00254946 -0.0797416 5.2845e-23)
(0.000382387 -0.10395 -2.08752e-20)
(-0.00326488 -0.124163 -2.00498e-20)
(-0.00823906 -0.140613 -8.03621e-23)
(-0.0143694 -0.153598 -3.63628e-20)
(-0.0214787 -0.16348 1.72649e-20)
(-0.0293933 -0.170661 -3.28226e-20)
(-0.0379463 -0.175571 3.11723e-20)
(-0.046982 -0.17864 -1.48723e-20)
(-0.0563594 -0.180277 2.79676e-20)
(-0.0659553 -0.180853 2.68564e-20)
(-0.0756654 -0.180681 -2.74989e-22)
(-0.0854048 -0.180007 -2.38142e-20)
(-0.0951062 -0.179003 0)
(-0.104718 -0.177764 -1.61709e-22)
(-0.114203 -0.176315 2.00876e-20)
(-0.123531 -0.174618 1.69357e-22)
(-0.132681 -0.172578 1.29845e-22)
(-0.141638 -0.170053 3.41138e-20)
(-0.150391 -0.166864 -3.23321e-20)
(-0.158933 -0.162799 0)
(-0.167263 -0.15762 2.80065e-20)
(-0.175386 -0.151065 -3.44475e-22)
(-0.183315 -0.142859 -7.46641e-20)
(-0.191084 -0.132713 2.34549e-20)
(-0.198683 -0.120344 4.31697e-20)
(-0.205959 -0.105425 2.09846e-20)
(-0.213275 -0.08755 1.92672e-20)
(0.00181858 -0.0178779 4.39286e-20)
(0.00389832 -0.048749 -2.25795e-20)
(0.00370408 -0.0756666 2.17282e-20)
(0.0016509 -0.0986654 2.09145e-20)
(-0.00201761 -0.117873 0)
(-0.0071187 -0.133504 -3.7753e-20)
(-0.0134537 -0.145847 -1.78178e-20)
(-0.0208203 -0.155245 -3.42893e-20)
(-0.029023 -0.162086 1.64962e-20)
(-0.037877 -0.16678 -2.87586e-22)
(-0.0472119 -0.169739 2.93023e-20)
(-0.0568753 -0.171356 2.76557e-20)
(-0.0667356 -0.171983 -5.28845e-20)
(-0.0766832 -0.17192 2.4749e-20)
(-0.0866294 -0.171398 2.65341e-22)
(-0.0965055 -0.170579 0)
(-0.10626 -0.169551 -2.12782e-20)
(-0.115854 -0.168336 -3.96338e-20)
(-0.125262 -0.16689 5.61757e-20)
(-0.134462 -0.165118 1.74507e-20)
(-0.14344 -0.162879 0)
(-0.152189 -0.15999 -3.10783e-20)
(-0.160702 -0.156239 0)
(-0.168984 -0.151384 -8.29952e-20)
(-0.177042 -0.145159 5.18574e-20)
(-0.184899 -0.137283 3.4469e-22)
(-0.192603 -0.12747 4.46464e-20)
(-0.20015 -0.115438 -6.43026e-20)
(-0.207328 -0.10087 3.87755e-20)
(-0.21458 -0.0833921 1.84587e-20)
(0.0021115 -0.0168092 -2.19364e-20)
(0.00461632 -0.0458697 2.24392e-20)
(0.0046518 -0.0712627 1.20712e-22)
(0.00268229 -0.0929911 -6.16713e-20)
(-0.00101478 -0.11116 0)
(-0.00623011 -0.125966 3.77532e-20)
(-0.0127398 -0.137677 -3.55106e-20)
(-0.020319 -0.146615 6.82659e-20)
(-0.0287525 -0.153148 0)
(-0.0378391 -0.157664 -3.08851e-20)
(-0.0473947 -0.160554 -2.93025e-20)
(-0.0572566 -0.162189 -2.77778e-20)
(-0.0672851 -0.162905 -7.83013e-20)
(-0.0773645 -0.162983 -1.41103e-22)
(-0.0874023 -0.162642 1.22135e-22)
(-0.097327 -0.162035 -1.36403e-23)
(-0.107085 -0.161242 6.2369e-20)
(-0.116638 -0.16028 5.2798e-22)
(-0.125956 -0.159104 -5.41274e-22)
(-0.135018 -0.157619 -3.54263e-20)
(-0.14381 -0.155682 2.96778e-22)
(-0.15232 -0.153111 6.18196e-20)
(-0.160542 -0.149689 -8.59676e-20)
(-0.168478 -0.145172 2.7337e-20)
(-0.176136 -0.139289 0)
(-0.183542 -0.131751 0)
(-0.190757 -0.122269 -4.46464e-20)
(-0.197781 -0.110564 4.00727e-20)
(-0.204347 -0.0963256 -3.8669e-20)
(-0.210958 -0.0792337 0)
(0.00233975 -0.0156602 -2.14784e-20)
(0.00517251 -0.0427914 0)
(0.00537651 -0.066578 2.14644e-20)
(0.00345834 -0.0869854 1.22732e-19)
(-0.000275328 -0.104092 -3.90244e-20)
(-0.00559207 -0.11807 0)
(-0.0122461 -0.129162 2.9186e-22)
(-0.0199925 -0.137666 3.37926e-20)
(-0.028599 -0.143924 -3.20883e-20)
(-0.0378496 -0.148299 0)
(-0.0475484 -0.151157 0)
(-0.0575226 -0.152849 -5.45474e-20)
(-0.0676249 -0.153689 7.80466e-20)
(-0.0777338 -0.153943 -2.45197e-20)
(-0.0877519 -0.153815 0)
(-0.0976043 -0.153447 4.37371e-20)
(-0.107234 -0.152915 -4.152e-20)
(-0.1166 -0.152231 3.90698e-20)
(-0.12567 -0.15135 -7.338e-20)
(-0.134418 -0.150175 -1.0277e-19)
(-0.142827 -0.148566 3.25016e-20)
(-0.150878 -0.146339 3.01242e-20)
(-0.158562 -0.143277 2.87866e-20)
(-0.165873 -0.13913 0)
(-0.172815 -0.133618 -4.85299e-20)
(-0.17941 -0.126443 0)
(-0.185728 -0.117309 0)
(-0.191782 -0.105933 -7.86835e-20)
(-0.197241 -0.0920104 4.77073e-22)
(-0.20265 -0.0752834 -9.93438e-20)
(0.00249949 -0.0144443 2.14784e-20)
(0.0055578 -0.0395481 4.40287e-20)
(0.00586597 -0.0616616 4.22235e-20)
(0.0039652 -0.0807086 -4.07266e-20)
(0.000186353 -0.0967356 0)
(-0.00521888 -0.109887 0)
(-0.0119863 -0.120375 3.53604e-20)
(-0.0198542 -0.128471 -3.35229e-20)
(-0.0285757 -0.134485 1.05176e-22)
(-0.0379223 -0.138755 6.02318e-20)
(-0.0476874 -0.141619 0)
(-0.0576895 -0.143405 5.45476e-20)
(-0.0677739 -0.144405 0)
(-0.077813 -0.144868 0)
(-0.0877047 -0.144984 -1.99149e-22)
(-0.0973694 -0.144886 4.32912e-20)
(-0.106746 -0.144644 -4.07364e-20)
(-0.115789 -0.144266 7.65296e-20)
(-0.124462 -0.143708 -3.59911e-20)
(-0.132733 -0.142874 1.02035e-19)
(-0.140577 -0.141626 0)
(-0.147969 -0.139781 0)
(-0.154889 -0.13712 5.47706e-20)
(-0.161321 -0.133389 0)
(-0.167258 -0.128298 4.88615e-20)
(-0.172715 -0.121536 -4.46754e-20)
(-0.177763 -0.112788 4.07739e-20)
(-0.182429 -0.101764 -3.71436e-20)
(-0.186329 -0.088153 7.07331e-20)
(-0.190012 -0.0717614 9.73758e-20)
(0.00258807 -0.013175 0)
(0.00576604 -0.0361746 -4.40287e-20)
(0.00611198 -0.0565634 -3.0661e-22)
(0.00419369 -0.0742208 0)
(0.000360851 -0.0891582 -7.6834e-20)
(-0.00511974 -0.101488 -5.7308e-23)
(-0.0119693 -0.111389 3.49372e-20)
(-0.0199127 -0.119101 0)
(-0.0286913 -0.124902 3.17271e-20)
(-0.0380661 -0.1291 -6.0232e-20)
(-0.0478215 -0.132007 0)
(-0.0577683 -0.133921 0)
(-0.0677451 -0.135116 -5.09522e-20)
(-0.0776185 -0.13582 4.81702e-20)
(-0.087281 -0.136213 -4.56645e-20)
(-0.0966481 -0.136415 0)
(-0.105654 -0.136492 -3.9973e-20)
(-0.114246 -0.136451 -1.13937e-19)
(-0.122384 -0.136248 1.41891e-22)
(-0.130027 -0.13579 1.68545e-22)
(-0.137143 -0.134942 3.12717e-20)
(-0.143696 -0.133524 5.79721e-20)
(-0.149651 -0.131317 -1.09233e-19)
(-0.154981 -0.128063 4.9858e-20)
(-0.159661 -0.123463 9.25883e-22)
(-0.163691 -0.117185 6.78978e-22)
(-0.167141 -0.108893 7.27397e-22)
(-0.170052 -0.0982681 3.69249e-20)
(-0.171995 -0.0849803 0)
(-0.173478 -0.0688869 0)
(0.0026041 -0.0118662 4.22358e-20)
(0.00579408 -0.0327054 -6.87822e-24)
(0.0061105 -0.0513332 -2.72484e-22)
(0.00413956 -0.0675823 -7.98896e-20)
(0.000244127 -0.0814261 7.64961e-20)
(-0.00529825 -0.0929417 0)
(-0.0121982 -0.102274 0)
(-0.0201707 -0.109626 6.61025e-20)
(-0.028948 -0.115243 -6.27686e-20)
(-0.0382832 -0.119401 -1.86159e-22)
(-0.0479532 -0.122381 1.12791e-19)
(-0.0577625 -0.124457 5.3466e-20)
(-0.0675435 -0.125878 -1.01139e-19)
(-0.0771573 -0.126856 4.77902e-20)
(-0.0864909 -0.127555 4.5011e-20)
(-0.0954544 -0.128088 -4.24864e-20)
(-0.103976 -0.128515 8.02474e-20)
(-0.111998 -0.128842 1.12006e-19)
(-0.119472 -0.129027 6.97194e-20)
(-0.12635 -0.128982 3.25622e-20)
(-0.132588 -0.128575 -6.16578e-20)
(-0.13814 -0.127634 0)
(-0.142957 -0.125942 -1.38227e-22)
(-0.146991 -0.123237 4.86294e-20)
(-0.1502 -0.119212 4.52012e-20)
(-0.152563 -0.113515 -8.37477e-20)
(-0.154136 -0.105774 -3.8988e-20)
(-0.154983 -0.0956294 6.9434e-20)
(-0.154634 -0.0827016 0)
(-0.1535 -0.0668652 -5.72185e-20)
(0.00254736 -0.0105315 4.18489e-20)
(0.00564179 -0.0291751 -8.67781e-20)
(0.00586179 -0.0460205 -2.14575e-22)
(0.00380369 -0.0608521 2.23807e-22)
(-0.000162132 -0.0736043 0)
(-0.00575182 -0.084317 0)
(-0.0126695 -0.0930977 0)
(-0.0206237 -0.100112 -6.5706e-20)
(-0.0293407 -0.105572 6.23921e-20)
(-0.0385677 -0.109717 -5.94067e-20)
(-0.0480764 -0.1128 -1.12423e-19)
(-0.0576656 -0.115067 3.54697e-23)
(-0.0671628 -0.116744 1.00319e-19)
(-0.0764236 -0.118024 4.72632e-20)
(-0.0853298 -0.119058 0)
(-0.0937857 -0.119951 -8.38475e-20)
(-0.101714 -0.120756 1.18244e-19)
(-0.10905 -0.12148 -1.11797e-19)
(-0.115736 -0.122085 -6.97893e-20)
(-0.121719 -0.122488 -1.94486e-19)
(-0.126942 -0.122564 5.78827e-22)
(-0.131348 -0.122149 6.5005e-22)
(-0.134871 -0.121032 -1.26307e-22)
(-0.137445 -0.118954 -9.67673e-20)
(-0.139005 -0.115601 1.33181e-19)
(-0.139502 -0.110598 2.04973e-21)
(-0.138973 -0.103534 0)
(-0.137504 -0.0939834 -6.94326e-20)
(-0.134603 -0.081487 6.078e-20)
(-0.130485 -0.0658717 5.78694e-20)
(0.00241888 -0.00918456 0)
(0.00531208 -0.0256179 -4.3136e-20)
(0.00537045 -0.0406736 4.12111e-20)
(0.00319228 -0.0540885 7.92195e-20)
(-0.000850231 -0.0657564 3.78981e-20)
(-0.00647129 -0.0756793 -7.20302e-20)
(-0.0133725 -0.0839259 1.78944e-22)
(-0.0212597 -0.0906239 -6.53161e-20)
(-0.0298558 -0.0959484 0)
(-0.0389046 -0.100106 5.87718e-20)
(-0.0481741 -0.103316 0)
(-0.0574592 -0.1058 0)
(-0.0665827 -0.107758 -9.98612e-20)
(-0.0753955 -0.109365 -9.43162e-20)
(-0.0837741 -0.11076 1.32965e-19)
(-0.091617 -0.112036 8.38472e-20)
(-0.0988405 -0.113245 -5.31948e-22)
(-0.105373 -0.114394 -7.37485e-20)
(-0.11115 -0.115447 1.37688e-19)
(-0.116109 -0.116328 8.4292e-23)
(-0.120184 -0.116922 1.1959e-19)
(-0.123304 -0.117076 0)
(-0.125389 -0.11659 0)
(-0.126354 -0.115211 9.41215e-20)
(-0.12611 -0.112624 -1.31332e-19)
(-0.124579 -0.108437 1.21345e-19)
(-0.121768 -0.102194 -7.19517e-20)
(-0.117784 -0.0933883 6.51975e-20)
(-0.112136 -0.0814396 -1.19481e-19)
(-0.104698 -0.0660301 5.53845e-20)
(0.00222086 -0.0078386 -4.13669e-20)
(0.00481087 -0.0220669 0)
(0.00464546 -0.0353401 0)
(0.0023169 -0.047348 -7.85932e-20)
(-0.00180625 -0.0579443 1.50418e-19)
(-0.00744056 -0.0670924 -7.17202e-20)
(-0.0142891 -0.074822 1.187e-22)
(-0.0220581 -0.0812223 6.50331e-20)
(-0.0304702 -0.0864313 0)
(-0.039268 -0.0906208 -1.45654e-22)
(-0.0482175 -0.0939799 -3.68989e-23)
(-0.0571106 -0.0966997 -1.0511e-19)
(-0.0657666 -0.0989594 3.80927e-22)
(-0.0740319 -0.100915 -4.67805e-20)
(-0.0817777 -0.10269 -1.32353e-19)
(-0.0888968 -0.10437 8.27818e-20)
(-0.0952988 -0.106003 -7.80799e-20)
(-0.100905 -0.107596 1.45386e-19)
(-0.105644 -0.109117 -1.36382e-19)
(-0.109443 -0.110499 -1.27209e-19)
(-0.112228 -0.111637 -7.32384e-22)
(-0.113917 -0.11239 -5.52145e-20)
(-0.114416 -0.112574 5.01972e-20)
(-0.113623 -0.11195 -2.47647e-21)
(-0.111427 -0.110209 -1.28161e-19)
(-0.107718 -0.106953 -7.73785e-20)
(-0.102466 -0.10168 1.42162e-19)
(-0.0958045 -0.0937933 -1.28585e-19)
(-0.0872799 -0.0825598 5.87007e-20)
(-0.0761763 -0.0673813 1.97223e-21)
(0.00195669 -0.0065066 1.24083e-19)
(0.00414709 -0.0185548 -4.25807e-20)
(0.00370018 -0.0300661 -8.20826e-20)
(0.0011946 -0.0406857 2.3529e-19)
(-0.00300994 -0.050228 -2.22455e-22)
(-0.00863639 -0.0586182 0)
(-0.0153929 -0.0658471 0)
(-0.0229894 -0.0719657 6.48471e-20)
(-0.0311508 -0.0770751 -6.16568e-20)
(-0.0396207 -0.0813124 5.84253e-20)
(-0.0481644 -0.0848352 -5.53122e-20)
(-0.0565721 -0.0878068 -1.04461e-19)
(-0.0646601 -0.090383 1.97981e-19)
(-0.0722705 -0.0927008 -4.66893e-20)
(-0.0792693 -0.0948702 8.80181e-20)
(-0.0855431 -0.0969687 -1.65e-19)
(-0.0909946 -0.0990386 4.79865e-22)
(-0.095538 -0.101087 5.78273e-24)
(-0.0990928 -0.103087 1.35241e-19)
(-0.10158 -0.104979 -5.84471e-23)
(-0.102914 -0.106671 0)
(-0.103005 -0.108035 0)
(-0.101747 -0.108906 -4.99629e-20)
(-0.0990232 -0.109064 -1.84503e-19)
(-0.094706 -0.108219 1.27464e-19)
(-0.0886563 -0.105975 1.44898e-21)
(-0.0807993 -0.101801 -1.38893e-19)
(-0.0712988 -0.0950092 1.2457e-19)
(-0.0598269 -0.0846964 -5.72978e-20)
(-0.0446598 -0.0698051 5.06867e-20)
(0.00163091 -0.00520114 0)
(0.00333258 -0.0151131 0)
(0.00255228 -0.0248964 8.16972e-20)
(-0.000152167 -0.0341548 -1.56718e-19)
(-0.0044347 -0.0426653 -1.8667e-22)
(-0.0100283 -0.0503161 -7.14067e-20)
(-0.0166496 -0.0570601 2.03869e-19)
(-0.0240151 -0.0629105 -1.93924e-19)
(-0.0318544 -0.0679322 -4.24022e-23)
(-0.0399136 -0.072228 -5.82651e-20)
(-0.047959 -0.0759242 -1.65392e-19)
(-0.0557798 -0.0791568 1.56757e-19)
(-0.0631897 -0.082058 0)
(-0.0700265 -0.0847462 0)
(-0.0761507 -0.0873173 8.7625e-20)
(-0.0814422 -0.0898394 1.63907e-19)
(-0.0857962 -0.0923504 -7.72506e-20)
(-0.0891184 -0.0948569 0)
(-0.0913199 -0.0973353 -6.68483e-20)
(-0.0923122 -0.0997331 7.79885e-22)
(-0.0920027 -0.101969 -5.72228e-20)
(-0.09029 -0.103932 0)
(-0.0870605 -0.105476 -4.78613e-20)
(-0.0821872 -0.106406 4.59072e-20)
(-0.0755285 -0.106458 -8.15731e-20)
(-0.066924 -0.105256 2.26347e-19)
(-0.0562507 -0.102257 -6.07029e-22)
(-0.0436999 -0.0967091 6.0415e-20)
(-0.0292369 -0.0875295 0)
(-0.00962037 -0.0728511 -4.77443e-20)
(0.00124919 -0.00393435 -8.25288e-20)
(0.00238207 -0.011772 8.48426e-20)
(0.00122362 -0.019874 5.86789e-23)
(-0.00169569 -0.0278068 -7.80236e-20)
(-0.00604776 -0.0353124 0)
(-0.0115789 -0.0422438 -1.42507e-19)
(-0.018017 -0.0485177 -1.00271e-22)
(-0.0250877 -0.0541107 6.46444e-20)
(-0.0325272 -0.0590526 4.25117e-23)
(-0.0400859 -0.0634127 3.26903e-23)
(-0.0475318 -0.0672866 1.65338e-19)
(-0.0546538 -0.070783 5.2014e-20)
(-0.0612629 -0.074011 4.90285e-20)
(-0.0671927 -0.0770702 -9.24814e-20)
(-0.0722973 -0.0800422 8.73614e-20)
(-0.0764489 -0.0829853 -8.20031e-20)
(-0.079534 -0.0859319 7.64005e-20)
(-0.0814485 -0.0888871 -7.20085e-20)
(-0.0820937 -0.0918296 0)
(-0.0813711 -0.0947125 -6.23245e-20)
(-0.0791783 -0.0974645 1.14745e-19)
(-0.0754052 -0.0999884 5.24045e-20)
(-0.0699303 -0.102157 -4.75504e-20)
(-0.0626189 -0.103803 1.78991e-19)
(-0.0533219 -0.104696 -4.1508e-20)
(-0.0418662 -0.104495 7.36581e-20)
(-0.0280843 -0.102673 -6.53198e-20)
(-0.0121549 -0.0984625 7.87849e-22)
(0.00551696 -0.0906237 0)
(0.029647 -0.0756333 -9.15748e-20)
(0.000818272 -0.00271778 2.00778e-22)
(0.00131299 -0.00856063 -8.48139e-20)
(-0.000259932 -0.0150404 0)
(-0.00340322 -0.0216909 -7.81064e-20)
(-0.00781042 -0.028223 7.46866e-20)
(-0.0132437 -0.0344569 8.96752e-23)
(-0.0194449 -0.0402749 0)
(-0.0261508 -0.0456191 2.31422e-23)
(-0.0331057 -0.0504853 -6.12754e-20)
(-0.0400652 -0.0549105 5.80986e-20)
(-0.0468 -0.0589605 0)
(-0.0530987 -0.0627172 -1.0388e-19)
(-0.0587696 -0.0662668 9.81837e-20)
(-0.0636409 -0.06969 0)
(-0.0675596 -0.0730538 0)
(-0.0703888 -0.0764061 0)
(-0.0720043 -0.0797726 0)
(-0.0722907 -0.0831557 7.10969e-20)
(-0.071137 -0.0865344 -6.69628e-20)
(-0.0684329 -0.0898655 1.85473e-19)
(-0.0640647 -0.0930845 -1.14568e-19)
(-0.0579126 -0.0961054 -1.05048e-19)
(-0.0498474 -0.0988177 1.46731e-19)
(-0.0397292 -0.101079 -7.13229e-22)
(-0.0274066 -0.102695 -8.05759e-20)
(-0.0127041 -0.103373 -7.36556e-20)
(0.004566 -0.102633 -6.5393e-20)
(0.0242895 -0.0997456 1.16638e-19)
(0.045969 -0.0933767 -1.03238e-19)
(0.0744366 -0.0781693 1.81049e-19)
(0.000345892 -0.00156235 1.64705e-19)
(0.000145344 -0.00550645 9.60725e-23)
(-0.00186879 -0.0104347 -1.63145e-19)
(-0.00523735 -0.0158545 1.5627e-19)
(-0.00967852 -0.0214491 -7.46775e-20)
(-0.0149725 -0.027009 -7.12388e-20)
(-0.0208766 -0.032385 6.77769e-20)
(-0.0271403 -0.0374868 6.44973e-20)
(-0.0335173 -0.042278 -1.22512e-19)
(-0.0397692 -0.0467645 -1.7423e-19)
(-0.0456693 -0.0509835 -5.48587e-20)
(-0.0510059 -0.0549907 2.07873e-19)
(-0.0555838 -0.0588497 -2.94308e-19)
(-0.0592249 -0.0626223 9.25887e-20)
(-0.0617675 -0.0663605 0)
(-0.0630636 -0.0701009 0)
(-0.0629764 -0.0738615 0)
(-0.0613766 -0.0776401 1.42184e-19)
(-0.0581385 -0.081414 -6.67958e-20)
(-0.0531373 -0.085141 -6.20277e-20)
(-0.0462461 -0.0887602 -1.14099e-19)
(-0.0373337 -0.0921922 1.05194e-19)
(-0.0262629 -0.0953385 -4.88904e-20)
(-0.0128906 -0.098076 -8.97363e-20)
(0.00293228 -0.100244 -1.003e-21)
(0.021374 -0.101601 -1.4315e-19)
(0.0426136 -0.101743 1.95337e-19)
(0.0665184 -0.100051 -1.76074e-19)
(0.0927971 -0.0951109 5.39788e-20)
(0.12664 -0.08032 -4.33287e-20)
(-0.000159303 -0.000478175 -8.24044e-20)
(-0.0010986 -0.00263507 8.5175e-20)
(-0.00357005 -0.00609395 8.16792e-20)
(-0.00715657 -0.0103421 -2.3474e-19)
(-0.0116031 -0.0150399 7.45404e-20)
(-0.016709 -0.0199518 7.12112e-20)
(-0.0222487 -0.0248999 0)
(-0.0279851 -0.0297641 0)
(-0.0336818 -0.0344778 6.12674e-20)
(-0.0391066 -0.0390179 1.16185e-19)
(-0.0440354 -0.0433937 -2.20013e-19)
(-0.0482554 -0.0476356 4.31869e-23)
(-0.0515668 -0.0517852 0)
(-0.0537841 -0.0558852 0)
(-0.0547348 -0.0599721 -8.66242e-20)
(-0.0542578 -0.0640706 5.62891e-22)
(-0.0522012 -0.0681895 7.65888e-20)
(-0.0484191 -0.0723205 -7.12627e-20)
(-0.0427688 -0.0764369 -1.3258e-19)
(-0.0351085 -0.0804944 1.23214e-19)
(-0.025296 -0.0844319 5.6371e-20)
(-0.0131875 -0.0881723 -1.57775e-19)
(0.00136169 -0.0916225 -9.49214e-20)
(0.0184956 -0.0946716 9.07425e-20)
(0.0383548 -0.097183 8.11163e-20)
(0.0610881 -0.0989629 7.22002e-20)
(0.0868526 -0.0996955 0)
(0.115476 -0.0988984 0)
(0.146593 -0.0951983 1.00477e-19)
(0.186871 -0.0811263 0)
(-0.000687899 0.000525559 8.28494e-20)
(-0.00239459 3.00342e-05 -8.55862e-20)
(-0.00532797 -0.00205217 1.63799e-19)
(-0.00911578 -0.00519534 -1.87631e-22)
(-0.0135309 -0.00904209 0)
(-0.0183928 -0.0133345 0)
(-0.0234929 -0.0178695 0)
(-0.0286084 -0.0225001 -6.46411e-20)
(-0.0335126 -0.0271318 6.13805e-20)
(-0.0379793 -0.0317142 0)
(-0.0417863 -0.03623 1.10091e-19)
(-0.0447188 -0.0406857 1.04289e-19)
(-0.0465714 -0.0451008 -9.79731e-20)
(-0.0471488 -0.0494992 9.26816e-20)
(-0.0462662 -0.0539016 -3.29631e-22)
(-0.0437472 -0.0583197 -8.18058e-20)
(-0.0394224 -0.0627521 -7.63321e-20)
(-0.033127 -0.0671825 2.13259e-19)
(-0.0246993 -0.071578 6.58982e-20)
(-0.0139792 -0.0758896 -1.22963e-19)
(-0.00080841 -0.0800525 -5.62719e-20)
(0.0149686 -0.0839871 5.3046e-20)
(0.0335018 -0.0876 0)
(0.0549313 -0.0907842 -8.74533e-20)
(0.0793808 -0.093416 -7.93005e-20)
(0.106963 -0.0953362 0)
(0.137797 -0.0963064 6.23832e-20)
(0.171682 -0.0959963 -1.16683e-19)
(0.207836 -0.093353 -1.52126e-19)
(0.255352 -0.0798171 0)
(-0.00122989 0.00144081 -1.65848e-19)
(-0.00371685 0.002468 8.58921e-20)
(-0.00710458 0.00165981 -1.6434e-19)
(-0.0110672 -0.000452591 -2.47115e-22)
(-0.0154057 -0.00349919 0)
(-0.0199593 -0.00720392 0)
(-0.0245368 -0.0113421 6.82468e-20)
(-0.0289288 -0.0157428 1.29764e-19)
(-0.0329181 -0.0202865 0)
(-0.0362839 -0.024897 0)
(-0.0388048 -0.0295327 -2.20766e-19)
(-0.0402628 -0.0341764 1.04351e-19)
(-0.0404451 -0.0388265 -2.34398e-22)
(-0.0391454 -0.0434882 0)
(-0.0361641 -0.0481658 2.19138e-22)
(-0.0313078 -0.0528574 8.19082e-20)
(-0.0243879 -0.0575502 -5.33513e-22)
(-0.0152196 -0.0622183 -2.8586e-19)
(-0.00362114 -0.0668207 -6.67114e-20)
(0.0105852 -0.071301 1.22959e-19)
(0.0275719 -0.075588 1.12471e-19)
(0.0475021 -0.0795962 -1.09598e-21)
(0.0705246 -0.0832268 9.58134e-20)
(0.0967661 -0.0863699 1.7478e-19)
(0.126321 -0.0889045 7.92961e-20)
(0.159246 -0.0906907 7.12642e-20)
(0.195593 -0.0915429 6.21014e-20)
(0.235167 -0.0912564 1.10072e-19)
(0.276419 -0.0893975 -3.83247e-21)
(0.331715 -0.0760433 3.99647e-20)
(-0.00177489 0.00226085 1.67119e-19)
(-0.00503855 0.00466095 -2.5804e-19)
(-0.00886036 0.00501496 1.64951e-19)
(-0.0129609 0.00385193 1.57746e-19)
(-0.0171687 0.00154912 7.53416e-20)
(-0.0213417 -0.00160341 6.41889e-23)
(-0.0253049 -0.00536319 -6.8101e-20)
(-0.0288618 -0.00953857 -1.29763e-19)
(-0.0318039 -0.0139875 2.56451e-22)
(-0.0339142 -0.0186106 2.33804e-19)
(-0.0349712 -0.0233429 -1.11043e-19)
(-0.034752 -0.0281451 2.09083e-19)
(-0.033035 -0.032995 -3.57773e-22)
(-0.0296012 -0.0378792 -1.85628e-19)
(-0.024235 -0.0427854 1.30406e-22)
(-0.0167245 -0.0476974 0)
(-0.00686106 -0.05259 3.82098e-19)
(0.0055599 -0.0574262 7.08735e-20)
(0.0207382 -0.0621551 0)
(0.0388663 -0.0667116 6.09918e-20)
(0.0601249 -0.0710154 -5.73684e-20)
(0.0846762 -0.0749726 2.07942e-19)
(0.112656 -0.0784765 -2.87279e-19)
(0.144161 -0.0814102 8.86183e-20)
(0.179238 -0.0836487 0)
(0.217864 -0.0850591 7.1099e-20)
(0.259985 -0.0854847 -1.27195e-19)
(0.305457 -0.0847672 1.12713e-19)
(0.35163 -0.0833651 -9.92544e-20)
(0.41482 -0.0697786 -8.45001e-20)
(-0.00231241 0.00298045 -1.67623e-19)
(-0.00633239 0.00659445 -4.36585e-22)
(-0.010555 0.00799069 -8.26434e-20)
(-0.014746 0.00768867 -7.90239e-20)
(-0.0187598 0.00606767 -1.51399e-19)
(-0.0224712 0.00342755 7.20282e-20)
(-0.0257201 2.48624e-05 1.23424e-22)
(-0.0283213 -0.00393136 -1.30379e-19)
(-0.0300735 -0.00827925 -1.85359e-19)
(-0.0307624 -0.0128983 1.5494e-22)
(-0.0301649 -0.0177019 1.10717e-19)
(-0.0280517 -0.0226301 -2.09377e-19)
(-0.0241909 -0.0276405 9.90459e-20)
(-0.0183496 -0.0327013 9.32213e-20)
(-0.0102953 -0.0377839 1.85105e-22)
(0.0002024 -0.0428567 8.22591e-20)
(0.0133711 -0.0478813 -1.53135e-19)
(0.029433 -0.0528086 0)
(0.0486018 -0.0575766 -1.33092e-19)
(0.0710773 -0.0621096 1.23343e-19)
(0.0970382 -0.0663175 -1.13891e-19)
(0.126632 -0.0700966 -1.04626e-19)
(0.159963 -0.0733316 0)
(0.197075 -0.0758974 -2.60429e-19)
(0.237941 -0.0776632 1.44245e-21)
(0.282432 -0.0784973 -3.542e-19)
(0.330337 -0.0782622 1.92357e-19)
(0.381606 -0.0767285 -2.2535e-19)
(0.432255 -0.0754668 9.92464e-20)
(0.502845 -0.0612534 -8.39576e-20)
(-0.00283205 0.00359605 8.40422e-20)
(-0.00757116 0.00825786 8.67048e-20)
(-0.0121481 0.0105693 8.34753e-20)
(-0.0163712 0.0110335 -1.66334e-22)
(-0.0201182 0.0100266 -1.26649e-22)
(-0.0232782 0.00785439 0)
(-0.025704 0.00478393 0)
(-0.0272199 0.00103842 0)
(-0.0276299 -0.00320315 0)
(-0.0267209 -0.00780132 0)
(-0.0242663 -0.0126499 1.11174e-19)
(-0.0200297 -0.0176689 -1.0502e-19)
(-0.0137675 -0.022797 9.93661e-20)
(-0.00523239 -0.0279842 -1.15514e-22)
(0.00582461 -0.0331851 -8.75076e-20)
(0.0196514 -0.0383528 1.7745e-22)
(0.0364914 -0.0434346 -1.53896e-19)
(0.0565793 -0.0483686 1.43485e-19)
(0.0801348 -0.0530807 1.33086e-19)
(0.107354 -0.0574838 -1.22098e-19)
(0.138398 -0.0614775 2.28956e-19)
(0.17338 -0.0649489 0)
(0.212348 -0.0677741 -1.9049e-19)
(0.255266 -0.0698223 2.80694e-21)
(0.301998 -0.0709591 2.98915e-21)
(0.352279 -0.0710554 3.10209e-21)
(0.405693 -0.0700012 -6.20364e-20)
(0.462288 -0.067378 1.12637e-19)
(0.516721 -0.0659885 9.95933e-20)
(0.593488 -0.0508545 4.26239e-20)
(-0.00332384 0.00410583 0)
(-0.00872834 0.00964467 8.75349e-20)
(-0.0136 0.0127387 -8.31413e-20)
(-0.0177859 0.0138682 -2.43687e-22)
(-0.0211833 0.0134021 1.5262e-19)
(-0.0236931 0.0116485 -7.26981e-20)
(-0.0251781 0.00888144 0)
(-0.0254699 0.00533531 0)
(-0.0243758 0.00120364 -1.24654e-19)
(-0.0216822 -0.00335734 1.18254e-19)
(-0.0171578 -0.0082234 1.12012e-19)
(-0.0105575 -0.013296 0)
(-0.00162604 -0.0184956 9.97169e-20)
(0.00989803 -0.0237543 0)
(0.0242787 -0.0290098 -1.75483e-19)
(0.0417778 -0.0341997 2.47112e-19)
(0.0626496 -0.0392566 2.30808e-19)
(0.0871327 -0.0441047 -7.21079e-20)
(0.115441 -0.0486577 -9.66755e-22)
(0.147752 -0.052817 -1.85929e-19)
(0.184188 -0.0564723 0)
(0.224803 -0.0595025 0)
(0.269558 -0.0617784 9.59724e-20)
(0.318303 -0.0631671 1.73312e-19)
(0.370759 -0.0635365 -1.51109e-21)
(0.426491 -0.0627661 1.42373e-19)
(0.484848 -0.0607938 1.27209e-19)
(0.5459 -0.0569453 0)
(0.603247 -0.0552131 -9.95851e-20)
(0.684203 -0.0390188 1.27075e-19)
(-0.00377845 0.00450984 8.57402e-20)
(-0.0097786 0.0107527 0)
(-0.0148723 0.0144924 2.92093e-22)
(-0.0189401 0.0161814 -8.04071e-20)
(-0.0218952 0.0161777 7.69567e-20)
(-0.0236465 0.0147884 7.30837e-20)
(-0.0240637 0.0122917 -2.69261e-23)
(-0.0229833 0.00893054 6.63474e-20)
(-0.020214 0.00491043 0)
(-0.0155396 0.000402352 -2.37483e-19)
(-0.00872301 -0.00445302 3.49512e-22)
(0.000490029 -0.0095399 0)
(0.0123661 -0.014761 1.00033e-19)
(0.0271791 -0.0200312 -2.82088e-19)
(0.0452049 -0.0252715 8.85232e-20)
(0.0667139 -0.0304032 -8.23109e-20)
(0.0919624 -0.0353442 -1.54591e-19)
(0.121182 -0.0400048 -2.16652e-19)
(0.154564 -0.0442863 0)
(0.192247 -0.0480794 0)
(0.23429 -0.0512654 1.14479e-19)
(0.280656 -0.0537178 1.03763e-19)
(0.331187 -0.0553063 -9.74773e-20)
(0.385581 -0.0559022 0)
(0.443379 -0.0553839 0)
(0.503947 -0.0536496 0)
(0.566399 -0.0506985 1.27504e-19)
(0.63066 -0.0456388 -5.49857e-20)
(0.689959 -0.0433897 1.04027e-19)
(0.772398 -0.0261664 8.66444e-20)
(-0.00418741 0.00480988 -1.71873e-19)
(-0.0106983 0.0115839 8.85476e-20)
(-0.0159282 0.0158301 -8.50559e-20)
(-0.0197857 0.0179689 8.12034e-20)
(-0.0221949 0.0183445 -7.69563e-20)
(-0.023069 0.0172608 7.34757e-20)
(-0.0222817 0.0149977 -6.9904e-20)
(-0.0196715 0.011804 -1.32407e-19)
(-0.0150462 0.00789528 1.2618e-19)
(-0.00818564 0.00345545 2.38404e-19)
(0.00115395 -0.00135998 1.12534e-19)
(0.0132358 -0.00641898 -1.06566e-19)
(0.0283365 -0.0116074 3.77378e-22)
(0.0467396 -0.0168231 1.19832e-22)
(0.0687271 -0.0219703 8.88235e-20)
(0.0945699 -0.0269547 0)
(0.124515 -0.0316789 1.54751e-19)
(0.158771 -0.0360398 3.60513e-19)
(0.197488 -0.0399271 -6.75477e-20)
(0.240737 -0.0432225 0)
(0.288487 -0.0458018 -2.29131e-19)
(0.340574 -0.0475379 -1.05319e-19)
(0.396685 -0.0483054 -9.48169e-20)
(0.456332 -0.0479883 8.90209e-20)
(0.518844 -0.0464848 -7.77167e-20)
(0.583357 -0.0437256 7.28868e-20)
(0.648794 -0.0397577 1.66777e-22)
(0.714692 -0.0336507 1.13313e-19)
(0.774956 -0.0307075 -1.00228e-19)
(0.855543 -0.0126233 -1.70987e-19)
(-0.00454326 0.00500945 8.70861e-20)
(-0.0114656 0.0121448 8.93049e-20)
(-0.0167331 0.0167576 -2.63288e-22)
(-0.0202758 0.0192337 5.42035e-22)
(-0.0220242 0.0199022 0)
(-0.0218915 0.0190619 -2.5371e-22)
(-0.0197523 0.0169921 -2.11238e-19)
(-0.0154443 0.0139461 0)
(-0.00877238 0.0101476 -1.26624e-19)
(0.000488748 0.00579162 -4.78945e-19)
(0.01259 0.00104744 1.13343e-19)
(0.0278025 -0.00393766 -1.07041e-19)
(0.0464103 -0.00903337 -2.00843e-19)
(0.0687014 -0.014121 1.89715e-19)
(0.0949567 -0.0190885 0)
(0.125437 -0.0238255 8.27857e-20)
(0.160364 -0.0282205 -2.33666e-19)
(0.199903 -0.0321579 -7.26885e-20)
(0.244138 -0.0355174 -2.02254e-19)
(0.293045 -0.0381751 0)
(0.346465 -0.0400062 2.2946e-19)
(0.404075 -0.0408894 1.05312e-19)
(0.465369 -0.040713 0)
(0.529643 -0.0393836 8.76795e-20)
(0.595993 -0.0368299 0)
(0.663315 -0.0330303 -6.98063e-20)
(0.730394 -0.0280338 -1.90026e-19)
(0.796157 -0.0211729 -2.26903e-19)
(0.85636 -0.0172225 -1.00682e-19)
(0.931163 0.00144124 -1.65627e-21)
(-0.0048396 0.00511351 -8.70861e-20)
(-0.0120608 0.0124455 3.48757e-22)
(-0.0172543 0.0172862 8.59541e-20)
(-0.0203652 0.0199868 -8.1745e-20)
(-0.0213252 0.0208596 -7.81231e-20)
(-0.0200443 0.0201979 1.48267e-19)
(-0.016394 0.0182794 7.07495e-20)
(-0.010209 0.0153602 1.34236e-19)
(-0.00128936 0.0116706 1.268e-19)
(0.0105962 0.0074158 1.20482e-19)
(0.0257052 0.00277762 2.27786e-19)
(0.0443147 -0.00208225 -4.34817e-22)
(0.0667118 -0.00701795 0)
(0.093182 -0.0118947 -9.48085e-20)
(0.123995 -0.0165845 -4.92892e-22)
(0.159385 -0.0209622 2.75593e-22)
(0.199532 -0.0249027 2.33867e-19)
(0.244534 -0.0282803 0)
(0.294377 -0.0309685 1.34547e-19)
(0.348909 -0.0328426 0)
(0.407807 -0.0337841 1.17649e-22)
(0.470553 -0.0336867 -1.04073e-19)
(0.536418 -0.0324636 1.92703e-19)
(0.60446 -0.0300559 -8.91131e-20)
(0.673544 -0.0264339 -1.58734e-19)
(0.742345 -0.0216363 7.30504e-20)
(0.809571 -0.0156626 2.55653e-19)
(0.873471 -0.00841681 5.5164e-20)
(0.932483 -0.00284039 2.49931e-19)
(0.996606 0.0155308 4.24196e-20)
(-0.00507102 0.00512824 8.81939e-20)
(-0.012466 0.0124993 -1.80984e-19)
(-0.017461 0.0174332 0)
(-0.0200096 0.020246 0)
(-0.0200403 0.0212347 7.86322e-20)