/*--------------------------------*- C++ -*----------------------------------*\
  =========                 |
  \\      /  F ield         | OpenFOAM: The Open Source CFD Toolbox
   \\    /   O peration     | Website:  https://openfoam.org
    \\  /    A nd           | Version:  7
     \\/     M anipulation  |
\*---------------------------------------------------------------------------*/
FoamFile
{
    version     2.0;
    format      ascii;
    class       surfaceScalarField;
    location    "45";
    object      phi;
}
// * * * * * * * * * * * * * * * * * * * * * * * * * * * * * * * * * * * * * //

dimensions      [0 3 -1 0 0 0 0];

internalField   nonuniform List<scalar> 
1657
(
1.32844e-05
-1.25841e-05
-1.71769e-11
2.62607e-05
-1.29762e-05
-1.6389e-11
3.95845e-05
-1.33238e-05
-1.55077e-11
5.32142e-05
-1.36298e-05
-1.45031e-11
-1.38974e-05
-1.34022e-11
1.68507e-05
-2.51517e-05
2.9807e-05
-2.59326e-05
4.31079e-05
-2.66246e-05
5.6712e-05
-2.7234e-05
-2.77668e-05
2.39614e-05
-3.76859e-05
3.68777e-05
-3.88489e-05
5.01325e-05
-3.98794e-05
6.36853e-05
-4.07867e-05
-4.15801e-05
3.45733e-05
-5.01694e-05
4.74289e-05
-5.17045e-05
6.06141e-05
-5.30645e-05
7.40893e-05
-5.4262e-05
8.78181e-05
-5.53089e-05
-5.62169e-05
4.8622e-05
-6.25839e-05
6.13954e-05
-6.44779e-05
7.44867e-05
-6.61558e-05
8.78578e-05
-6.7633e-05
0.000101473
-6.89244e-05
-7.00443e-05
6.6022e-05
-7.49098e-05
7.86908e-05
-7.71467e-05
9.16632e-05
-7.91282e-05
0.000104903
-8.08725e-05
0.000118375
-8.23972e-05
-8.37194e-05
8.66678e-05
-8.71262e-05
9.92083e-05
-8.96872e-05
0.000112036
-9.19555e-05
0.000125115
-9.39521e-05
0.000138415
-9.56973e-05
-9.72105e-05
0.000110434
-9.92104e-05
0.000122821
-0.000102074
0.000135476
-0.00010461
0.000148366
-0.000106843
0.000161463
-0.000108794
-0.000110486
0.000137178
0.000149384
-0.00011428
0.000161837
-0.000117064
0.000174508
-0.000119513
0.000187369
-0.000121655
-0.000123511
0.000178732
-0.000126277
0.000190954
-0.000129285
0.000203373
-0.000131933
0.000215966
-0.000134248
-0.000136255
0.000210686
-0.000138033
0.000222643
-0.000141242
0.000234779
-0.000144068
0.00024707
-0.000146539
-0.000148682
0.000245048
-0.000149514
0.000256707
-0.000152901
0.000268523
-0.000155884
0.000280477
-0.000158493
-0.000160757
0.000281605
-0.000160686
0.00029293
-0.000164226
0.000304391
-0.000167345
0.000315973
-0.000170075
0.000327661
-0.000172444
-0.000174482
0.000320131
0.000331084
-0.000175179
0.000342153
-0.000178414
0.000353325
-0.000181247
0.00036459
-0.000183709
-0.000185827
0.000370928
-0.00018572
0.000381566
-0.000189052
0.000392292
-0.000191973
0.000403097
-0.000194514
-0.000196702
0.000412208
-0.000195808
0.000422376
-0.00019922
0.000432617
-0.000202214
0.000442926
-0.000204822
-0.000207072
0.000454662
-0.000205401
0.000464319
-0.000208877
0.000474036
-0.000211932
0.000483812
-0.000214598
0.000493643
-0.000216903
-0.000218872
0.000498015
0.00050712
-0.000217982
0.000516276
-0.000221089
0.000525484
-0.000223806
0.00053474
-0.000226159
-0.000228176
0.000550498
-0.000226495
0.000559056
-0.000229646
0.00056766
-0.000232409
0.00057631
-0.00023481
-0.000236874
0.000594166
-0.000234375
0.000602088
-0.000237568
0.000610055
-0.000240376
0.000618069
-0.000242825
-0.000244937
0.000637831
0.000645082
-0.00024482
0.000652381
-0.000247675
0.00065973
-0.000250174
0.000667133
-0.00025234
-0.000254192
0.000687746
-0.000251368
0.000694347
-0.000254276
0.000701006
-0.000256833
0.000707726
-0.000259059
-0.000260974
0.000729785
-0.000257184
0.000735663
-0.000260155
0.000741609
-0.000262779
0.000747626
-0.000265076
-0.000267064
0.000770905
0.000776039
-0.000265288
0.000781253
-0.000267993
0.000786552
-0.000270375
0.000791938
-0.00027245
-0.000274235
0.000815191
-0.00026966
0.00081966
-0.000272462
0.000824229
-0.000274945
0.000828902
-0.000277123
-0.000279011
0.00085284
-0.000273257
0.000856554
-0.000276177
0.000860389
-0.000278779
0.000864344
-0.000281078
-0.000283088
0.000888715
0.000891672
-0.000279133
0.000894769
-0.000281877
0.000898008
-0.000284317
0.000901388
-0.000286468
-0.00028834
0.00092474
-0.000281333
0.000927104
-0.000284241
0.000929633
-0.000286846
0.000932324
-0.000289159
-0.000291191
0.000955516
0.000957156
-0.000285882
0.000958985
-0.000288675
0.000960998
-0.000291172
0.000963193
-0.000293386
-0.000295326
0.000984818
-0.000286815
0.000985964
-0.000289821
0.000987318
-0.000292527
0.000988876
-0.000294944
-0.000297082
0.0033824
-0.000285335
0.00338122
-0.000288638
0.00338033
-0.000291638
0.00337973
-0.000294345
-0.000296769
0.00372273
-0.000279526
0.00371735
-0.000283261
0.0037124
-0.000286679
0.00370784
-0.000289792
-0.000292611
0.00406362
-0.000269487
0.00405414
-0.00027378
0.00404519
-0.000277734
0.00403676
-0.000281361
-0.000284675
0.00439927
-0.000255527
0.00438597
-0.000260479
0.0043733
-0.000265064
0.00436123
-0.000269296
-0.000273189
0.00472426
-0.000238136
0.00470759
-0.000243813
0.00469162
-0.000249092
0.00467631
-0.00025399
-0.000258523
0.00503374
-0.00021794
0.00501429
-0.000224366
0.00499557
-0.000230367
0.00497754
-0.000235959
-0.000241161
0.00532362
-0.000195648
0.00530207
-0.000202809
0.00528122
-0.000209521
0.00526106
-0.000215802
-0.00022167
0.00559074
-0.000171998
0.00556777
-0.000179843
0.00554547
-0.000187222
0.00552382
-0.000194154
-0.000200657
0.00583288
-0.0001477
0.00580919
-0.000156152
0.0057861
-0.000164128
0.00576359
-0.000171648
-0.000178729
0.00604883
-0.000123404
0.00602505
-0.000132366
0.00600177
-0.000140852
0.005979
-0.000148879
-0.000156464
0.00623826
-9.967e-05
0.00621493
-0.000109037
0.00619201
-0.000117934
0.00616951
-0.000126375
-0.000134378
0.00640163
-7.69528e-05
0.00637921
-8.66178e-05
0.0063571
-9.58234e-05
0.0063353
-0.000104584
-0.000112913
0.00654004
-5.56011e-05
0.00651888
-6.54604e-05
0.00649793
-7.48758e-05
0.00647721
-8.38598e-05
-9.24245e-05
0.0066551
-3.586e-05
0.00663545
-4.58177e-05
0.00661593
-5.53501e-05
0.00659653
-6.44679e-05
-7.31821e-05
0.00674876
-1.78804e-05
0.00673079
-2.78507e-05
0.00671286
-3.74165e-05
0.00669498
-4.65869e-05
-5.53712e-05
0.00682319
-1.73148e-06
0.00680698
-1.16405e-05
0.00679073
-2.11667e-05
0.00677446
-3.03181e-05
-3.91025e-05
0.00688065
1.25851e-05
0.00686621
2.79938e-06
0.00685167
-6.62589e-06
0.00683705
-1.56972e-05
-2.44214e-05
0.00692338
2.51205e-05
0.00691067
1.55083e-05
0.00689781
6.23439e-06
0.00688482
-2.70663e-06
-1.13204e-05
0.00695355
3.59651e-05
0.00694249
2.65657e-05
0.00693124
1.74829e-05
0.00691982
8.71248e-06
2.49683e-07
0.00697316
4.52355e-05
0.00696365
3.60783e-05
0.00695391
2.72171e-05
0.00694398
1.86483e-05
1.03681e-05
0.00698405
5.30638e-05
0.00697596
4.41699e-05
0.00696762
3.55523e-05
0.00695906
2.72082e-05
1.91345e-05
0.00698785
5.95882e-05
0.00698105
5.09717e-05
0.00697399
4.26129e-05
0.00696668
3.45097e-05
2.66597e-05
0.00698597
6.49465e-05
0.00698033
5.66157e-05
0.00697442
4.85253e-05
0.00696825
4.06737e-05
3.30589e-05
0.00697964
6.92703e-05
0.00697503
6.12293e-05
0.00697014
5.34125e-05
0.00696499
4.58186e-05
3.84464e-05
0.00696986
7.26822e-05
0.00696616
6.49318e-05
0.00696218
5.73903e-05
0.00695794
5.00571e-05
4.29313e-05
0.00695749
7.52933e-05
0.00695459
6.78318e-05
0.00695142
6.05652e-05
0.00694798
5.34931e-05
4.66149e-05
0.00694322
7.72029e-05
0.00694103
7.00271e-05
0.00693856
6.3033e-05
0.00693583
5.62206e-05
4.95897e-05
0.00692761
7.84978e-05
0.00692603
7.16036e-05
0.00692419
6.48787e-05
0.00692208
5.83234e-05
5.19379e-05
0.00691109
7.92537e-05
0.00691006
7.26362e-05
0.00690876
6.61765e-05
0.00690721
5.98752e-05
5.37325e-05
0.00689404
7.95358e-05
0.00689348
7.31899e-05
0.00689267
6.6991e-05
0.0068916
6.09399e-05
5.5037e-05
0.00687671
7.93999e-05
0.00687658
7.33204e-05
0.0068762
6.73778e-05
0.00687556
6.15729e-05
5.59065e-05
0.00685934
7.88937e-05
0.00685958
7.30755e-05
0.00685957
6.73845e-05
0.00685932
6.1822e-05
5.63886e-05
0.00684207
7.80582e-05
0.00684265
7.24962e-05
0.00684299
6.70524e-05
0.00684308
6.17282e-05
5.65244e-05
0.00682506
7.69286e-05
0.00682594
7.16178e-05
0.00682657
6.64168e-05
0.00682697
6.13269e-05
5.63493e-05
0.00680839
7.55351e-05
0.00680954
7.04707e-05
0.00681044
6.55081e-05
0.00681112
6.06489e-05
5.5894e-05
0.00679214
7.3904e-05
0.00679353
6.90814e-05
0.00679468
6.43531e-05
0.00679561
5.97207e-05
5.51854e-05
0.00677637
7.20584e-05
0.00677798
6.74731e-05
0.00677936
6.2975e-05
0.00678051
5.85658e-05
5.42468e-05
0.00676113
7.00185e-05
0.00676294
6.56661e-05
0.00676452
6.13944e-05
0.00676588
5.72049e-05
5.3099e-05
0.00674645
6.78023e-05
0.00674844
6.36786e-05
0.0067502
5.96294e-05
0.00675175
5.56562e-05
5.17604e-05
0.00673236
6.54259e-05
0.00673451
6.15268e-05
0.00673645
5.76964e-05
0.00673817
5.39362e-05
5.02475e-05
0.00671888
6.29038e-05
0.00672119
5.92254e-05
0.00672327
5.56102e-05
0.00672515
5.20597e-05
4.85753e-05
0.00670603
6.02491e-05
0.00670847
5.67877e-05
0.0067107
5.33843e-05
0.00671272
5.00404e-05
4.67574e-05
0.00669382
5.74738e-05
0.00669638
5.42257e-05
0.00669874
5.10307e-05
0.00670089
4.78904e-05
4.48061e-05
0.00668226
5.45889e-05
0.00668494
5.15506e-05
0.00668741
4.85609e-05
0.00668968
4.56213e-05
4.2733e-05
0.00667136
5.16044e-05
0.00667414
4.87726e-05
0.00667672
4.59852e-05
0.00667909
4.32435e-05
4.05487e-05
0.00666113
4.85296e-05
0.006664
4.59012e-05
0.00666667
4.33131e-05
0.00666915
4.07667e-05
3.82631e-05
0.00665156
4.53732e-05
0.00665452
4.29452e-05
0.00665728
4.05538e-05
0.00665984
3.82001e-05
3.58853e-05
0.00664267
4.21432e-05
0.0066457
3.99128e-05
0.00664854
3.77155e-05
0.00665119
3.55522e-05
3.34242e-05
0.00663445
3.8847e-05
0.00663756
3.68117e-05
0.00664046
3.48061e-05
0.00664319
3.28311e-05
3.08877e-05
0.00662692
3.54917e-05
0.00663008
3.36491e-05
0.00663306
3.1833e-05
0.00663584
3.00442e-05
2.82836e-05
0.00662007
3.20839e-05
0.00662329
3.04319e-05
0.00662632
2.88033e-05
0.00662916
2.71988e-05
2.56193e-05
0.0066139
2.86299e-05
0.00661716
2.71665e-05
0.00662024
2.57235e-05
0.00662314
2.43017e-05
2.29017e-05
0.00660842
2.51357e-05
0.00661172
2.38591e-05
0.00661485
2.26002e-05
0.00661779
2.13594e-05
2.01376e-05
0.00660362
2.16069e-05
0.00660696
2.05156e-05
0.00661012
1.94392e-05
0.0066131
1.83783e-05
1.73334e-05
0.0065995
1.8049e-05
0.00660288
1.71417e-05
0.00660607
1.62466e-05
0.00660908
1.53643e-05
1.44952e-05
0.00659608
1.44672e-05
0.00659948
1.37428e-05
0.00660269
1.3028e-05
0.00660574
1.23233e-05
1.16292e-05
0.00659334
1.08667e-05
0.00659675
1.03241e-05
0.00659999
9.78877e-06
0.00660306
9.26098e-06
8.74099e-06
0.00659128
7.25211e-06
0.00659471
6.89079e-06
0.00659797
6.53426e-06
0.00660105
6.18274e-06
5.83639e-06
0.00658991
3.62834e-06
0.00659335
3.4478e-06
0.00659662
3.26965e-06
0.00659971
3.09398e-06
2.9209e-06
0.00658923
0.00659267
0.00659594
0.00659904
-0.000285335
0.0033824
0.000286815
-0.000279526
0.00372273
-0.000269487
0.00406362
-0.000255527
0.00439927
-0.000238136
0.00472426
-0.00021794
0.00503374
-0.000195648
0.00532362
-0.000171998
0.00559074
-0.0001477
0.00583288
-0.000123404
0.00604883
-9.967e-05
0.00623826
-7.69528e-05
0.00640163
-5.56011e-05
0.00654004
-3.586e-05
0.0066551
-1.78804e-05
0.00674876
-1.73147e-06
0.00682319
1.25851e-05
0.00688065
2.51205e-05
0.00692338
3.59651e-05
0.00695355
4.52355e-05
0.00697316
5.30638e-05
0.00698405
5.95882e-05
0.00698785
6.49465e-05
0.00698597
6.92703e-05
0.00697964
7.26822e-05
0.00696986
7.52934e-05
0.00695749
7.72029e-05
0.00694322
7.84978e-05
0.00692761
7.92537e-05
0.00691109
7.95358e-05
0.00689404
7.93999e-05
0.00687671
7.88937e-05
0.00685934
7.80582e-05
0.00684207
7.69286e-05
0.00682506
7.55351e-05
0.00680839
7.3904e-05
0.00679214
7.20584e-05
0.00677637
7.00185e-05
0.00676113
6.78023e-05
0.00674645
6.54259e-05
0.00673236
6.29038e-05
0.00671888
6.02491e-05
0.00670603
5.74738e-05
0.00669382
5.45889e-05
0.00668226
5.16044e-05
0.00667136
4.85296e-05
0.00666113
4.53732e-05
0.00665156
4.21432e-05
0.00664267
3.8847e-05
0.00663445
3.54917e-05
0.00662692
3.20839e-05
0.00662007
2.86299e-05
0.0066139
2.51357e-05
0.00660842
2.16069e-05
0.00660362
1.8049e-05
0.0065995
1.44672e-05
0.00659608
1.08667e-05
0.00659334
7.25211e-06
0.00659128
3.62834e-06
0.00658991
0.00658923
-0.000288638
0.00338122
0.000289821
-0.000283261
0.00371735
-0.00027378
0.00405414
-0.000260479
0.00438597
-0.000243813
0.00470759
-0.000224366
0.00501429
-0.000202809
0.00530207
-0.000179843
0.00556777
-0.000156152
0.00580919
-0.000132366
0.00602505
-0.000109037
0.00621493
-8.66177e-05
0.00637921
-6.54604e-05
0.00651888
-4.58177e-05
0.00663545
-2.78507e-05
0.00673079
-1.16405e-05
0.00680698
2.79939e-06
0.00686621
1.55083e-05
0.00691067
2.65657e-05
0.00694249
3.60783e-05
0.00696365
4.41699e-05
0.00697596
5.09717e-05
0.00698105
5.66157e-05
0.00698033
6.12294e-05
0.00697503
6.49318e-05
0.00696616
6.78318e-05
0.00695459
7.00271e-05
0.00694103
7.16036e-05
0.00692603
7.26362e-05
0.00691006
7.31899e-05
0.00689348
7.33204e-05
0.00687658
7.30755e-05
0.00685958
7.24962e-05
0.00684265
7.16178e-05
0.00682594
7.04707e-05
0.00680954
6.90814e-05
0.00679353
6.74731e-05
0.00677798
6.56661e-05
0.00676294
6.36786e-05
0.00674844
6.15268e-05
0.00673451
5.92254e-05
0.00672119
5.67877e-05
0.00670847
5.42257e-05
0.00669638
5.15506e-05
0.00668494
4.87726e-05
0.00667414
4.59012e-05
0.006664
4.29452e-05
0.00665452
3.99128e-05
0.0066457
3.68117e-05
0.00663756
3.36491e-05
0.00663008
3.04319e-05
0.00662329
2.71665e-05
0.00661716
2.38591e-05
0.00661172
2.05156e-05
0.00660696
1.71417e-05
0.00660288
1.37428e-05
0.00659948
1.03241e-05
0.00659675
6.89079e-06
0.00659471
3.4478e-06
0.00659335
0.00659267
-0.000291638
0.00338033
0.000292527
-0.000286679
0.0037124
-0.000277734
0.00404519
-0.000265064
0.0043733
-0.000249092
0.00469162
-0.000230367
0.00499557
-0.000209521
0.00528122
-0.000187222
0.00554547
-0.000164128
0.0057861
-0.000140852
0.00600177
-0.000117934
0.00619201
-9.58234e-05
0.0063571
-7.48758e-05
0.00649793
-5.535e-05
0.00661593
-3.74165e-05
0.00671286
-2.11667e-05
0.00679073
-6.62587e-06
0.00685167
6.2344e-06
0.00689781
1.74829e-05
0.00693124
2.72171e-05
0.00695391
3.55523e-05
0.00696762
4.26129e-05
0.00697399
4.85253e-05
0.00697442
5.34125e-05
0.00697014
5.73903e-05
0.00696218
6.05652e-05
0.00695142
6.3033e-05
0.00693856
6.48787e-05
0.00692419
6.61765e-05
0.00690876
6.6991e-05
0.00689267
6.73778e-05
0.0068762
6.73846e-05
0.00685957
6.70524e-05
0.00684299
6.64168e-05
0.00682657
6.55081e-05
0.00681044
6.43531e-05
0.00679468
6.2975e-05
0.00677936
6.13944e-05
0.00676452
5.96294e-05
0.0067502
5.76964e-05
0.00673645
5.56102e-05
0.00672327
5.33843e-05
0.0067107
5.10307e-05
0.00669874
4.85609e-05
0.00668741
4.59852e-05
0.00667672
4.33131e-05
0.00666667
4.05538e-05
0.00665728
3.77155e-05
0.00664854
3.48061e-05
0.00664046
3.1833e-05
0.00663306
2.88033e-05
0.00662632
2.57235e-05
0.00662024
2.26002e-05
0.00661485
1.94392e-05
0.00661012
1.62466e-05
0.00660607
1.3028e-05
0.00660269
9.78877e-06
0.00659999
6.53426e-06
0.00659797
3.26965e-06
0.00659662
0.00659594
-0.000294345
0.00337973
0.000294944
-0.000289792
0.00370784
-0.000281361
0.00403676
-0.000269296
0.00436123
-0.00025399
0.00467631
-0.000235959
0.00497754
-0.000215802
0.00526106
-0.000194154
0.00552382
-0.000171648
0.00576359
-0.000148879
0.005979
-0.000126375
0.00616951
-0.000104584
0.0063353
-8.38597e-05
0.00647721
-6.44679e-05
0.00659653
-4.65869e-05
0.00669498
-3.03181e-05
0.00677446
-1.56972e-05
0.00683705
-2.70661e-06
0.00688482
8.71249e-06
0.00691982
1.86483e-05
0.00694398
2.72082e-05
0.00695906
3.45097e-05
0.00696668
4.06737e-05
0.00696825
4.58187e-05
0.00696499
5.00571e-05
0.00695794
5.34931e-05
0.00694798
5.62206e-05
0.00693583
5.83235e-05
0.00692208
5.98752e-05
0.00690721
6.09399e-05
0.0068916
6.15729e-05
0.00687556
6.1822e-05
0.00685932
6.17282e-05
0.00684308
6.13269e-05
0.00682697
6.06489e-05
0.00681112
5.97207e-05
0.00679561
5.85659e-05
0.00678051
5.72049e-05
0.00676588
5.56562e-05
0.00675175
5.39362e-05
0.00673817
5.20597e-05
0.00672515
5.00404e-05
0.00671272
4.78904e-05
0.00670089
4.56213e-05
0.00668968
4.32435e-05
0.00667909
4.07667e-05
0.00666915
3.82001e-05
0.00665984
3.55522e-05
0.00665119
3.28311e-05
0.00664319
3.00442e-05
0.00663584
2.71988e-05
0.00662916
2.43017e-05
0.00662314
2.13594e-05
0.00661779
1.83783e-05
0.0066131
1.53643e-05
0.00660908
1.23233e-05
0.00660574
9.26098e-06
0.00660306
6.18274e-06
0.00660105
3.09398e-06
0.00659971
0.00659904
-0.000296769
0.000297082
-0.000292611
-0.000284675
-0.000273189
-0.000258523
-0.000241161
-0.00022167
-0.000200657
-0.000178729
-0.000156464
-0.000134378
-0.000112913
-9.24245e-05
-7.31821e-05
-5.53712e-05
-3.91024e-05
-2.44214e-05
-1.13204e-05
2.49697e-07
1.03682e-05
1.91345e-05
2.66597e-05
3.3059e-05
3.84465e-05
4.29313e-05
4.6615e-05
4.95897e-05
5.19379e-05
5.37325e-05
5.5037e-05
5.59065e-05
5.63886e-05
5.65244e-05
5.63493e-05
5.5894e-05
5.51854e-05
5.42468e-05
5.3099e-05
5.17604e-05
5.02475e-05
4.85753e-05
4.67574e-05
4.48061e-05
4.2733e-05
4.05487e-05
3.82631e-05
3.58854e-05
3.34242e-05
3.08877e-05
2.82836e-05
2.56193e-05
2.29017e-05
2.01376e-05
1.73334e-05
1.44952e-05
1.16292e-05
8.74099e-06
5.83639e-06
2.9209e-06
0.000984818
0.000285882
0.000985963
0.000288675
0.000987318
0.000291172
0.000988876
0.000293386
0.000295326
0.000955516
0.000281333
0.000957156
0.000284241
0.000958985
0.000286846
0.000960998
0.000289159
0.000963193
0.000291191
0.00092474
0.000279133
0.000927104
0.000281877
0.000929633
0.000284317
0.000932324
0.000286468
0.00028834
0.000888715
0.000273257
0.000891672
0.000276177
0.000894769
0.000278779
0.000898008
0.000281078
0.000901388
0.000283088
0.00085284
0.00026966
0.000856554
0.000272462
0.000860389
0.000274945
0.000864344
0.000277123
0.000279011
0.000815191
0.000265288
0.00081966
0.000267993
0.000824229
0.000270375
0.000828902
0.00027245
0.000274235
0.000770905
0.000257184
0.000776039
0.000260155
0.000781253
0.000262779
0.000786552
0.000265076
0.000791938
0.000267064
0.000729785
0.000251368
0.000735663
0.000254276
0.000741609
0.000256833
0.000747626
0.000259059
0.000260974
0.000687746
0.00024482
0.000694347
0.000247675
0.000701006
0.000250174
0.000707726
0.00025234
0.000254192
0.000637831
0.000234375
0.000645082
0.000237568
0.000652381
0.000240376
0.00065973
0.000242825
0.000667133
0.000244937
0.000594166
0.000226495
0.000602088
0.000229646
0.000610055
0.000232409
0.000618069
0.00023481
0.000236874
0.000550498
0.000217982
0.000559056
0.000221089
0.000567659
0.000223806
0.00057631
0.000226159
0.000228176
0.000498015
0.000205401
0.00050712
0.000208877
0.000516276
0.000211932
0.000525484
0.000214598
0.00053474
0.000216903
0.000218872
0.000454662
0.000195808
0.000464319
0.00019922
0.000474036
0.000202214
0.000483812
0.000204822
0.000493643
0.000207072
0.000412208
0.00018572
0.000422376
0.000189052
0.000432617
0.000191973
0.000442926
0.000194514
0.000196702
0.000370928
0.000175179
0.000381566
0.000178414
0.000392292
0.000181247
0.000403097
0.000183709
0.000185827
0.000320131
0.000160686
0.000331084
0.000164226
0.000342153
0.000167345
0.000353325
0.000170075
0.00036459
0.000172444
0.000174482
0.000281605
0.000149514
0.00029293
0.000152901
0.000304391
0.000155884
0.000315973
0.000158493
0.000327661
0.000160757
0.000245048
0.000138033
0.000256707
0.000141242
0.000268523
0.000144068
0.000280477
0.000146539
0.000148682
0.000210686
0.000126277
0.000222643
0.000129285
0.000234779
0.000131933
0.00024707
0.000134248
0.000136255
0.000178732
0.00011428
0.000190954
0.000117064
0.000203373
0.000119513
0.000215966
0.000121655
0.000123512
0.000137178
9.92104e-05
0.000149384
0.000102074
0.000161837
0.00010461
0.000174508
0.000106843
0.000187369
0.000108794
0.000110486
0.000110434
8.71263e-05
0.000122821
8.96872e-05
0.000135476
9.19555e-05
0.000148366
9.39521e-05
0.000161463
9.56973e-05
9.72106e-05
8.66678e-05
7.49098e-05
9.92083e-05
7.71467e-05
0.000112036
7.91282e-05
0.000125115
8.08725e-05
0.000138415
8.23973e-05
8.37194e-05
6.6022e-05
6.25839e-05
7.86908e-05
6.44779e-05
9.16632e-05
6.61559e-05
0.000104903
6.76331e-05
0.000118375
6.89245e-05
7.00443e-05
4.8622e-05
5.01695e-05
6.13954e-05
5.17045e-05
7.44867e-05
5.30646e-05
8.78577e-05
5.4262e-05
0.000101473
5.53089e-05
5.62169e-05
3.45733e-05
3.76859e-05
4.74289e-05
3.88489e-05
6.06141e-05
3.98794e-05
7.40893e-05
4.07868e-05
8.78181e-05
4.15801e-05
2.39614e-05
2.51517e-05
3.68777e-05
2.59326e-05
5.01325e-05
2.66246e-05
6.36853e-05
2.7234e-05
2.77668e-05
1.68507e-05
1.25841e-05
2.9807e-05
1.29763e-05
4.31079e-05
1.33238e-05
5.6712e-05
1.36298e-05
1.38974e-05
1.32844e-05
2.62607e-05
3.95845e-05
5.32142e-05
)
;

boundaryField
{
    inlet
    {
        type            calculated;
        value           nonuniform 0();
    }
    outlet
    {
        type            calculated;
        value           nonuniform 0();
    }
    cylinder
    {
        type            calculated;
        value           nonuniform 0();
    }
    top
    {
        type            symmetryPlane;
        value           uniform 0;
    }
    bottom
    {
        type            symmetryPlane;
        value           uniform 0;
    }
    defaultFaces
    {
        type            empty;
        value           nonuniform 0();
    }
    procBoundary22to21
    {
        type            processor;
        value           nonuniform List<scalar> 
194
(
-7.00339e-07
-4.28307e-06
-1.14271e-05
-2.20898e-05
-3.62075e-05
-5.36961e-05
-7.44514e-05
-9.83502e-05
-0.000125251
-0.000111137
-0.000166736
-0.00019893
-0.000233566
-0.000270433
-0.000309308
-0.00017151
-0.000360387
-0.00040212
-0.000445069
-0.000488961
-0.000214455
-0.000541985
-0.000586285
-0.000630621
-0.000241585
-0.000681197
-0.000723968
-0.000765847
-0.000262243
-0.000810819
-0.000849242
-0.000885898
-0.000276074
-0.00092254
-0.000954066
-0.000282783
-0.000983885
-0.00338388
-0.00372854
-0.00407366
-0.00441323
-0.00474165
-0.00505394
-0.00534591
-0.00561439
-0.00585718
-0.00607313
-0.006262
-0.00642434
-0.00656139
-0.00667484
-0.00676674
-0.00683934
-0.00689497
-0.00693592
-0.00696439
-0.00698243
-0.00699188
-0.00699437
-0.00699133
-0.00698396
-0.00697328
-0.00696011
-0.00694513
-0.0069289
-0.00691185
-0.00689432
-0.00687658
-0.00685883
-0.00684124
-0.00682393
-0.00680699
-0.00679051
-0.00677453
-0.00675909
-0.00674424
-0.00672999
-0.00671636
-0.00670338
-0.00669105
-0.00667938
-0.00666838
-0.00665805
-0.0066484
-0.00663944
-0.00663116
-0.00662356
-0.00661666
-0.00661045
-0.00660492
-0.00660009
-0.00659595
-0.0065925
-0.00658974
-0.00658767
-0.00658629
-0.0065856
-0.00338388
-0.00372854
-0.00407366
-0.00441323
-0.00474165
-0.00505394
-0.00534591
-0.00561439
-0.00585718
-0.00607313
-0.006262
-0.00642434
-0.00656139
-0.00667484
-0.00676674
-0.00683934
-0.00689497
-0.00693592
-0.00696439
-0.00698243
-0.00699188
-0.00699437
-0.00699133
-0.00698396
-0.00697328
-0.00696011
-0.00694513
-0.0069289
-0.00691185
-0.00689432
-0.00687658
-0.00685883
-0.00684124
-0.00682393
-0.00680699
-0.00679051
-0.00677453
-0.00675909
-0.00674424
-0.00672999
-0.00671636
-0.00670338
-0.00669105
-0.00667938
-0.00666838
-0.00665805
-0.0066484
-0.00663944
-0.00663116
-0.00662356
-0.00661666
-0.00661045
-0.00660492
-0.00660009
-0.00659595
-0.0065925
-0.00658974
-0.00658767
-0.00658629
-0.0065856
-0.000983885
-0.000282783
-0.000954066
-0.00092254
-0.000276074
-0.000885898
-0.000849242
-0.000810819
-0.000262243
-0.000765847
-0.000723968
-0.000681197
-0.000241585
-0.000630621
-0.000586285
-0.000541985
-0.000214455
-0.000488961
-0.000445069
-0.00040212
-0.000360387
-0.00017151
-0.000309307
-0.000270433
-0.000233566
-0.00019893
-0.000166736
-0.000111137
-0.000125251
-9.83502e-05
-7.44514e-05
-5.36961e-05
-3.62075e-05
-2.20898e-05
-1.14271e-05
-4.28307e-06
-7.00338e-07
)
;
    }
    procBoundary22to23
    {
        type            processor;
        value           nonuniform List<scalar> 
194
(
6.71116e-05
7.05814e-05
7.74986e-05
4.22682e-05
0.000101767
0.000115301
0.000132051
0.000151906
0.000174738
0.000200395
0.00022871
0.000259496
0.000292552
0.000162702
0.000339441
0.000375935
0.000413972
0.000453296
0.000208991
0.000503523
0.000544045
0.000585008
0.000626132
0.000246735
0.00067459
0.000714508
0.000753716
0.000268761
0.000797412
0.000833678
0.000868421
0.000284821
0.000904908
0.000935175
0.000292954
0.000965565
0.000990632
0.00337942
0.00370369
0.00402883
0.00434974
0.00466165
0.00496018
0.00524157
0.00550281
0.00574166
0.00595674
0.00614742
0.00631384
0.00645672
0.00657729
0.00667717
0.00675819
0.00682237
0.00687172
0.00690825
0.00693386
0.0069503
0.00695916
0.00696185
0.00695961
0.00695346
0.0069443
0.00693286
0.00691973
0.00690542
0.0068903
0.00687469
0.00685884
0.00684294
0.00682715
0.00681158
0.00679632
0.00678145
0.00676703
0.00675309
0.00673968
0.00672682
0.00671453
0.00670284
0.00669175
0.00668128
0.00667143
0.00666222
0.00665365
0.00664572
0.00663845
0.00663182
0.00662586
0.00662055
0.00661591
0.00661192
0.0066086
0.00660594
0.00660395
0.00660262
0.00660196
0.00337942
0.00370368
0.00402883
0.00434974
0.00466165
0.00496018
0.00524157
0.00550281
0.00574166
0.00595674
0.00614742
0.00631384
0.00645672
0.00657729
0.00667717
0.00675819
0.00682237
0.00687172
0.00690825
0.00693386
0.0069503
0.00695916
0.00696185
0.00695961
0.00695346
0.0069443
0.00693286
0.00691973
0.00690542
0.0068903
0.00687469
0.00685884
0.00684294
0.00682715
0.00681158
0.00679632
0.00678145
0.00676703
0.00675309
0.00673968
0.00672682
0.00671453
0.00670284
0.00669175
0.00668128
0.00667143
0.00666222
0.00665365
0.00664572
0.00663845
0.00663182
0.00662586
0.00662055
0.00661591
0.00661192
0.0066086
0.00660594
0.00660395
0.00660262
0.00660196
0.000990632
0.000965565
0.000292954
0.000935175
0.000904908
0.000284821
0.000868421
0.000833678
0.000797412
0.000268761
0.000753716
0.000714508
0.00067459
0.000246735
0.000626132
0.000585008
0.000544045
0.000503523
0.000208991
0.000453296
0.000413972
0.000375935
0.000339441
0.000162702
0.000292552
0.000259496
0.00022871
0.000200395
0.000174738
0.000151906
0.000132051
0.000115301
0.000101767
4.22682e-05
7.74986e-05
7.05814e-05
6.71116e-05
)
;
    }
}


// ************************************************************************* //
