/*--------------------------------*- C++ -*----------------------------------*\
  =========                 |
  \\      /  F ield         | OpenFOAM: The Open Source CFD Toolbox
   \\    /   O peration     | Website:  https://openfoam.org
    \\  /    A nd           | Version:  7
     \\/     M anipulation  |
\*---------------------------------------------------------------------------*/
FoamFile
{
    version     2.0;
    format      ascii;
    class       volScalarField;
    location    "55";
    object      p;
}
// * * * * * * * * * * * * * * * * * * * * * * * * * * * * * * * * * * * * * //

dimensions      [0 2 -2 0 0 0 0];

internalField   nonuniform List<scalar> 
183
(
-0.128215
-0.132906
-0.126743
-0.133641
-0.125428
-0.134328
-0.124225
-0.134957
-0.123067
-0.135511
-0.121888
-0.135966
-0.120546
-0.1363
-0.114338
-0.136482
-0.112858
-0.136512
-0.111052
-0.136323
-0.117631
-0.108763
-0.135858
-0.117525
-0.105971
-0.135057
-0.117212
-0.102694
-0.13386
-0.116672
-0.098972
-0.132212
-0.115881
-0.0948546
-0.130055
-0.114813
-0.0903923
-0.127335
-0.113438
-0.123998
-0.111724
-0.120007
-0.109631
-0.115386
-0.107114
-0.110189
-0.104114
-0.103693
-0.100676
-0.0737081
-0.082075
-0.0314437
-0.0511205
0.020964
-0.0164146
0.0487319
0.00567118
0.0582716
0.0177842
0.0583156
0.0265352
0.0547187
0.031735
0.0490856
0.0331374
0.0430466
0.0323964
0.0375312
0.0307558
0.0328262
0.0288509
0.0289461
0.0269865
0.025804
0.0253002
0.0232923
0.0238417
0.0213053
0.0226181
0.0197515
0.0216174
0.0185561
0.0208207
0.0176589
0.0202082
0.0170198
0.0197617
0.016609
0.0194649
0.0164088
0.0193204
-0.095396
-0.0717979
-0.0518634
-0.0337234
-0.0201598
-0.00934406
-0.0009851
0.00521729
0.00986662
0.013153
0.0154502
0.0169965
0.0179972
0.0186146
0.0189687
0.0191492
0.0192223
0.0192351
0.0192205
0.0191996
0.0191852
-0.067091
-0.0482535
-0.0327202
-0.0173515
-0.00573798
0.00426187
0.0113945
0.0166733
0.0203016
0.0226704
0.0241326
0.0249375
0.0253007
0.025378
0.0252832
0.0250979
0.0248801
0.0246689
0.0244912
0.0243644
0.0242984
-0.105562
-0.0774879
-0.107843
-0.0796667
-0.109186
-0.0808006
-0.110814
-0.0823096
-0.144295
-0.112607
-0.0841296
-0.14548
-0.114332
-0.0859817
-0.146341
-0.115954
-0.0877997
-0.146873
-0.117506
-0.0896108
-0.147071
-0.118997
-0.0914271
-0.146929
-0.120426
-0.0932395
-0.14645
-0.121788
-0.0950359
-0.14564
-0.123083
-0.0968077
-0.144517
-0.124314
-0.14311
-0.12548
-0.141459
-0.126585
-0.139617
-0.127632
-0.137647
-0.128625
-0.135619
-0.129567
-0.133605
-0.130463
-0.131668
-0.131317
-0.12986
-0.132131
)
;

boundaryField
{
    inlet
    {
        type            zeroGradient;
    }
    outlet
    {
        type            fixedValue;
        value           nonuniform 0();
    }
    cylinder
    {
        type            zeroGradient;
    }
    top
    {
        type            symmetryPlane;
    }
    bottom
    {
        type            symmetryPlane;
    }
    defaultFaces
    {
        type            empty;
    }
    procBoundary37to36
    {
        type            processor;
        value           nonuniform List<scalar> 
86
(
-0.0951876
-0.0921192
-0.0894022
-0.0870123
-0.0849068
-0.0830267
-0.0812942
-0.0796222
-0.0779854
-0.0762978
-0.0744704
-0.072426
-0.0701061
-0.0674711
-0.0644879
-0.0611396
-0.0856326
-0.0856326
-0.0806801
-0.0757144
-0.0704629
-0.0639038
-0.0389538
-0.00494366
0.0388832
0.0588142
0.0664602
0.0628988
0.0565435
0.0491386
0.042021
0.0357829
0.0305274
0.0262246
0.0227648
0.0200143
0.017847
0.016161
0.0148771
0.0139035
0.0132141
0.0127742
0.0125608
-0.131286
-0.101953
-0.0756179
-0.0517213
-0.0337687
-0.0204125
-0.0103105
-0.00312691
0.00212739
0.00586726
0.00850665
0.0103572
0.0116299
0.0124926
0.0130669
0.0134394
0.0136745
0.0138178
0.0139017
0.0139464
0.0139652
-0.136632
-0.138952
-0.141009
-0.142798
-0.142798
-0.150521
-0.150091
-0.149159
-0.147705
-0.145722
-0.143214
-0.140205
-0.136736
-0.13287
-0.128688
-0.124281
-0.119751
-0.115203
-0.110733
-0.106431
-0.102371
-0.0986108
)
;
    }
    procBoundary37to38
    {
        type            processor;
        value           nonuniform List<scalar> 
86
(
-0.111829
-0.112934
-0.113945
-0.114854
-0.115654
-0.116335
-0.116886
-0.117295
-0.117548
-0.117548
-0.0828469
-0.0831813
-0.0835112
-0.0838209
-0.084093
-0.0843086
-0.0844476
-0.0844896
-0.0844134
-0.0841997
-0.0838219
-0.0833628
-0.0800596
-0.0657819
-0.0512139
-0.0406801
-0.0270854
-0.0101947
0.00339863
0.0123583
0.0176153
0.0205452
0.0220643
0.0227518
0.0229601
0.0229021
0.0227099
0.0224654
0.0222182
0.0219991
0.0218287
0.0216419
0.0215823
-0.0450239
-0.0288271
-0.0152552
-0.00115596
0.00977934
0.0193748
0.0260623
0.0306393
0.0331112
0.0341886
0.0343264
0.0339262
0.0332519
0.0324714
0.03169
0.0309699
0.0303461
0.0298361
0.029449
0.0291895
0.0290595
-0.0534097
-0.0555893
-0.0571704
-0.0589498
-0.0609138
-0.0628837
-0.064793
-0.0666397
-0.0684182
-0.070111
-0.0716987
-0.0731658
-0.0985483
-0.0985483
-0.100252
-0.101911
-0.103522
-0.105077
-0.106572
-0.108
-0.109356
-0.110634
)
;
    }
}


// ************************************************************************* //
