/*--------------------------------*- C++ -*----------------------------------*\
  =========                 |
  \\      /  F ield         | OpenFOAM: The Open Source CFD Toolbox
   \\    /   O peration     | Website:  https://openfoam.org
    \\  /    A nd           | Version:  7
     \\/     M anipulation  |
\*---------------------------------------------------------------------------*/
FoamFile
{
    version     2.0;
    format      ascii;
    class       surfaceScalarField;
    location    "55";
    object      phi;
}
// * * * * * * * * * * * * * * * * * * * * * * * * * * * * * * * * * * * * * //

dimensions      [0 3 -1 0 0 0 0];

internalField   nonuniform List<scalar> 
278
(
0.00374892
0.00309198
-0.00361875
0.0130932
-0.0132354
0.00373495
0.00256359
0.0129486
0.00371672
0.00203391
0.012801
0.00369351
0.00150193
0.0126489
0.00366463
0.000965589
0.0124901
0.00362945
0.000422195
0.0123216
0.0035875
-0.000131195
0.01214
0.00353875
-0.000697906
0.0119421
0.0034827
-0.00128003
0.011724
0.00341936
-0.00187883
0.00366141
0.011482
0.0206299
0.00334886
-0.00249461
0.00361838
0.0112125
0.0206475
0.0032713
-0.00312642
0.00357161
0.0109122
0.0206442
0.00318688
-0.00377187
0.00352095
0.0105781
0.0206189
0.00309579
-0.0044269
0.00346625
0.0102076
0.0205701
0.00299814
-0.00508553
0.00340735
0.00979843
0.0204962
0.00289415
0.00334402
0.00934856
0.0203953
0.00327605
0.00885649
0.0202654
0.00320309
0.00832129
0.0201038
0.00312457
0.00774309
0.0199076
0.00304002
0.00712495
0.0196732
0.00294909
0.00648508
0.0194017
0.011722
0.00727101
0.0196191
0.0101962
0.00846888
0.0186015
0.0107812
0.00982418
0.0163594
0.0136675
0.0101536
0.0134064
0.0172208
0.00909592
0.0103755
0.0197147
0.00723065
0.00772854
0.0208607
0.00535612
0.00565453
0.0212102
0.00386102
0.0041079
0.0212742
0.00276537
0.00296704
0.0212691
0.00197682
0.00212752
0.0212487
0.00140691
0.00151055
0.0212207
0.000992803
0.00105869
0.021188
0.000691701
0.000729832
0.0211551
0.000474054
0.000493056
0.0211245
0.000318326
0.000325179
0.0210964
0.000208516
0.000208407
0.0210701
0.000132155
0.000128771
0.0210478
7.99981e-05
7.57793e-05
0.021031
4.46287e-05
4.10621e-05
0.0210199
1.98689e-05
1.78309e-05
0.0210135
-0.0125107
0.0221433
0.0133279
-0.0108401
0.0222674
-0.00916336
0.0221855
-0.00758041
0.0219981
-0.00633479
0.0218789
-0.00531308
0.0216704
-0.00448118
0.0215148
-0.00376978
0.0213572
-0.00316143
0.0212394
-0.00263998
0.0211478
-0.00219488
0.0210791
-0.00181531
0.0210272
-0.00149138
0.0209889
-0.00121412
0.0209598
-0.000975513
0.0209366
-0.000768568
0.0209168
-0.000586829
0.0209013
-0.000424186
0.0208911
-0.000275146
0.0208847
-0.000135089
0.0208793
0.0208754
-0.0131685
0.0142615
-0.011646
-0.0103027
-0.00883246
-0.00743344
-0.00618293
-0.00510706
-0.00420598
-0.00344621
-0.00280529
-0.00226949
-0.00182616
-0.0014615
-0.00116178
-0.000914208
-0.000707743
-0.000532769
-0.000380933
-0.000245225
-0.000119925
0.00318336
0.01351
0.0144827
0.00324066
0.0136785
0.0147092
0.00331198
0.013827
0.0149438
0.00338086
0.0139544
0.015186
0.00355153
0.00887208
0.00344492
0.0140611
0.0154349
0.00359045
0.00882421
0.00350488
0.0141466
0.0156896
0.00362535
0.00873727
0.00356114
0.0142108
0.0159494
0.00365626
0.00861009
0.00361357
0.0142535
0.0162134
0.00368316
0.00844165
0.00366193
0.0142747
0.0164806
0.00370616
0.00823123
0.00370609
0.0142748
0.0167499
0.00372542
0.00797854
0.00374593
0.0142543
0.01702
0.00374111
0.00768394
0.00378137
0.014214
0.00375347
0.00734854
0.0141552
0.00376276
0.00697439
0.0140793
0.00376925
0.00656456
0.013988
0.00377321
0.00612305
0.0138833
0.00377486
0.0056547
0.0137675
0.00377434
0.00516484
0.0136428
0.00377168
0.00465894
0.0135114
0.00376678
0.00414213
0.0133751
0.00375934
)
;

boundaryField
{
    inlet
    {
        type            calculated;
        value           nonuniform 0();
    }
    outlet
    {
        type            calculated;
        value           nonuniform 0();
    }
    cylinder
    {
        type            calculated;
        value           nonuniform 0();
    }
    top
    {
        type            symmetryPlane;
        value           uniform 0;
    }
    bottom
    {
        type            symmetryPlane;
        value           uniform 0;
    }
    defaultFaces
    {
        type            empty;
        value           nonuniform 0();
    }
    procBoundary37to36
    {
        type            processor;
        value           nonuniform List<scalar> 
86
(
-0.00322215
-0.00320656
-0.00318704
-0.00316153
-0.00312829
-0.00308605
-0.00303411
-0.00297204
-0.00290058
-0.00282056
-0.00273308
-0.0026395
-0.00254143
-0.00244075
-0.00233952
-0.00223949
-0.00574019
-0.00278398
-0.00266789
-0.00254637
-0.00242188
-0.00230922
-0.012508
-0.0113941
-0.0121365
-0.0139969
-0.0161631
-0.0178494
-0.0189862
-0.0197151
-0.0201786
-0.0204805
-0.0206787
-0.0208066
-0.0208869
-0.0209374
-0.0209687
-0.0209866
-0.0209938
-0.0209956
-0.0209956
-0.0209952
-0.0209936
-0.0229606
-0.023938
-0.0238623
-0.023581
-0.0231245
-0.0226922
-0.0223467
-0.0220686
-0.0218478
-0.0216692
-0.0215242
-0.0214067
-0.0213128
-0.0212371
-0.0211752
-0.0211238
-0.0210831
-0.0210538
-0.0210338
-0.0210194
-0.0210104
-0.00336545
-0.00340919
-0.00346043
-0.00350832
-0.00888207
-0.00354154
-0.00354257
-0.00353842
-0.00352908
-0.00351472
-0.00349574
-0.00347273
-0.0034465
-0.00341808
-0.00338861
-0.00335941
-0.0033317
-0.0033065
-0.00328448
-0.00326578
-0.00324997
-0.00323596
)
;
    }
    procBoundary37to38
    {
        type            processor;
        value           nonuniform List<scalar> 
86
(
0.00389113
0.00387951
0.0038643
0.0038456
0.00382348
0.00379795
0.00376902
0.00373666
0.00370081
-0.0205924
0.00362393
0.00360079
0.00357489
0.00354628
0.00351504
0.00348122
0.00344487
0.00340601
0.00336467
0.00332074
0.00327443
0.00322064
0.0115045
0.0112138
0.0130233
0.0166205
0.0202516
0.0223617
0.0229347
0.0227569
0.0224151
0.0221086
0.0218656
0.0216726
0.0215169
0.0213918
0.0212923
0.0212132
0.0211498
0.0211008
0.0210657
0.0210432
0.0210313
0.0210504
0.0207449
0.0208422
0.0205278
0.0204798
0.0204199
0.0204389
0.0204561
0.0204797
0.0205069
0.0205433
0.0205838
0.0206242
0.0206601
0.020689
0.0207103
0.0207264
0.0207393
0.020749
0.020754
0.0207554
0.00296218
0.00301417
0.00307734
0.00313863
0.00319608
0.00325017
0.00330134
0.00334957
0.00339474
0.00343681
0.00347576
0.00351158
0.0172898
0.00381231
0.00383871
0.00386054
0.00387784
0.00389064
0.00389904
0.00390315
0.0039031
0.00389904
)
;
    }
}


// ************************************************************************* //
