/*--------------------------------*- C++ -*----------------------------------*\
  =========                 |
  \\      /  F ield         | OpenFOAM: The Open Source CFD Toolbox
   \\    /   O peration     | Website:  https://openfoam.org
    \\  /    A nd           | Version:  7
     \\/     M anipulation  |
\*---------------------------------------------------------------------------*/
FoamFile
{
    version     2.0;
    format      ascii;
    class       volVectorField;
    location    "10";
    object      U;
}
// * * * * * * * * * * * * * * * * * * * * * * * * * * * * * * * * * * * * * //

dimensions      [0 1 -1 0 0 0 0];

internalField   nonuniform List<vector> 
928
(
(0.0645595 -0.00205826 -1.03139e-21)
(0.0705295 -0.00206855 2.18862e-21)
(0.0765285 -0.00207653 -1.45256e-21)
(0.0825499 -0.0020824 -9.70694e-22)
(0.088588 -0.00208636 4.95104e-22)
(0.0660832 -0.00617063 2.58404e-21)
(0.0720431 -0.00620121 5.97658e-22)
(0.0780314 -0.00622487 -1.30278e-21)
(0.0840418 -0.00624223 6.33537e-22)
(0.0900686 -0.00625385 -1.25308e-21)
(0.0691254 -0.0102688 -1.60688e-21)
(0.075065 -0.0103194 1.52979e-21)
(0.0810321 -0.0103585 5.10039e-21)
(0.0870204 -0.0103871 -8.26273e-21)
(0.0930244 -0.0104062 5.41795e-21)
(0.0736761 -0.0143432 9.58504e-21)
(0.079585 -0.0144133 -9.25558e-21)
(0.08552 -0.0144675 1.52263e-21)
(0.0914751 -0.0145071 -6.53775e-21)
(0.0974449 -0.0145335 8.30621e-21)
(0.0797202 -0.0183844 8.02129e-21)
(0.0855879 -0.0184733 -3.95703e-21)
(0.09148 -0.018542 3.1057e-22)
(0.0973905 -0.0185921 -1.49299e-20)
(0.103314 -0.0186255 3.50186e-21)
(0.0872377 -0.0223827 2.43581e-20)
(0.0930535 -0.0224897 -1.70184e-20)
(0.0988914 -0.0225721 4.51022e-21)
(0.104746 -0.0226323 -1.00632e-20)
(0.110612 -0.0226722 1.34322e-20)
(0.0962038 -0.0263284 1.72051e-20)
(0.101957 -0.0264524 -2.038e-20)
(0.107729 -0.0265479 1.64856e-20)
(0.113516 -0.0266175 -1.35166e-21)
(0.119313 -0.0266635 -5.50506e-21)
(0.106589 -0.0302117 1.98173e-20)
(0.112267 -0.0303517 -7.83627e-21)
(0.117962 -0.0304595 -3.9046e-21)
(0.12367 -0.0305378 -3.42704e-21)
(0.129385 -0.0305894 -6.85013e-21)
(0.118359 -0.0340227 1.27633e-22)
(0.123951 -0.0341776 -1.95737e-21)
(0.129557 -0.0342967 6.14145e-21)
(0.135172 -0.0343831 -5.98966e-22)
(0.140794 -0.0344399 -1.99032e-20)
(0.146418 -0.0344695 1.31358e-20)
(0.131476 -0.0377514 -1.57237e-20)
(0.136969 -0.03792 1.94128e-20)
(0.142473 -0.0380496 -3.25101e-20)
(0.147984 -0.0381435 -3.58823e-21)
(0.153499 -0.0382049 1.55139e-20)
(0.159015 -0.0382366 4.04732e-22)
(0.151278 -0.0415689 3.79348e-20)
(0.156668 -0.0417081 -3.43351e-20)
(0.162062 -0.0418089 3.75041e-20)
(0.167458 -0.0418746 -9.98813e-21)
(0.172852 -0.0419083 -1.87423e-20)
(0.16683 -0.0451142 2.24888e-20)
(0.172092 -0.0452623 1.56606e-20)
(0.177357 -0.0453694 -3.08362e-20)
(0.18262 -0.0454391 -1.36242e-20)
(0.187881 -0.0454746 1.79684e-20)
(0.183574 -0.0485458 7.66328e-21)
(0.188696 -0.0487021 1.39275e-20)
(0.193817 -0.0488151 -1.30526e-20)
(0.198935 -0.0488887 2.41465e-20)
(0.204049 -0.0489261 -3.68085e-20)
(0.201455 -0.0518536 -3.08631e-20)
(0.206422 -0.0520176 1.90093e-20)
(0.211386 -0.0521364 -2.11774e-20)
(0.216346 -0.0522138 1.55198e-20)
(0.221301 -0.0522533 1.31699e-20)
(0.220415 -0.0550277 -2.02653e-20)
(0.225213 -0.0551992 -9.16581e-21)
(0.230006 -0.0553237 1.5449e-20)
(0.234794 -0.0554052 2.67089e-20)
(0.239576 -0.0554471 -3.33843e-20)
(0.24435 -0.055453 7.51436e-21)
(0.245005 -0.0582373 -6.19574e-21)
(0.249614 -0.0583677 -2.65795e-20)
(0.254217 -0.0584536 -3.83018e-21)
(0.258812 -0.0584987 1.74214e-20)
(0.2634 -0.0585062 -7.06292e-21)
(0.265733 -0.0611225 4.73565e-20)
(0.270144 -0.0612594 -1.89897e-20)
(0.274548 -0.0613505 -1.23041e-20)
(0.278945 -0.0613994 -1.59532e-21)
(0.283335 -0.0614097 1.86031e-20)
(0.28733 -0.0638458 -3.0244e-20)
(0.291529 -0.06399 5.26194e-20)
(0.295721 -0.0640872 -1.6199e-20)
(0.299907 -0.0641413 -2.08349e-20)
(0.304085 -0.0641556 3.30662e-20)
(0.309724 -0.0663988 -5.55784e-20)
(0.313698 -0.0665513 7.96545e-20)
(0.317665 -0.066656 -2.31509e-20)
(0.321626 -0.0667166 -3.29201e-20)
(0.325582 -0.0667364 -6.83006e-21)
(0.329531 -0.0667187 1.86481e-20)
(0.336578 -0.0689356 2.1352e-20)
(0.340308 -0.0690494 -5.4449e-20)
(0.344033 -0.0691182 8.82035e-20)
(0.347753 -0.0691453 -1.1977e-19)
(0.35147 -0.0691341 6.50961e-20)
(0.360095 -0.0711357 -8.72984e-21)
(0.363575 -0.0712606 -7.0099e-20)
(0.367052 -0.0713397 9.24573e-21)
(0.370527 -0.0713763 4.46354e-20)
(0.374 -0.0713736 -5.084e-20)
(0.384173 -0.0731451 -1.036e-19)
(0.387392 -0.0732834 9.92773e-21)
(0.39061 -0.0733751 1.90872e-20)
(0.393829 -0.0734236 -1.42776e-21)
(0.397048 -0.073432 2.79809e-20)
(0.411681 -0.0751124 9.68672e-20)
(0.41463 -0.0752195 -3.64051e-20)
(0.417583 -0.0752825 -2.8614e-20)
(0.420541 -0.0753046 2.80773e-20)
(0.423503 -0.0752886 -8.1023e-20)
(0.436366 -0.0767431 4.74295e-20)
(0.439037 -0.0768686 -2.55768e-20)
(0.441716 -0.0769491 -7.51966e-20)
(0.444402 -0.0769878 2.14994e-20)
(0.447098 -0.0769876 -1.39049e-20)
(0.46137 -0.078172 -5.67118e-20)
(0.463754 -0.0783192 6.99239e-20)
(0.46615 -0.0784205 -1.0459e-19)
(0.468559 -0.0784791 2.03531e-20)
(0.470981 -0.0784977 8.09574e-20)
(0.488706 -0.0795686 7.05217e-20)
(0.490813 -0.0796942 -1.37976e-20)
(0.492938 -0.079776 -4.80089e-20)
(0.49508 -0.0798169 6.55933e-21)
(0.497239 -0.0798195 5.41691e-20)
(0.513817 -0.080612 -1.96359e-20)
(0.515629 -0.0807656 -7.93868e-20)
(0.517464 -0.0808743 3.76809e-20)
(0.519322 -0.0809409 2.24131e-20)
(0.521203 -0.080968 -2.9646e-21)
(0.539014 -0.0814502 5.27337e-20)
(0.540527 -0.0816356 -7.99543e-20)
(0.542068 -0.0817748 3.89768e-21)
(0.543638 -0.0818705 2.82185e-20)
(0.545236 -0.0819256 1.54554e-20)
(0.565434 -0.0823376 -4.26244e-20)
(0.566679 -0.0825111 6.74919e-20)
(0.567958 -0.0826398 -3.70892e-20)
(0.569271 -0.0827263 -6.34957e-20)
(0.570617 -0.0827731 6.44383e-20)
(0.590281 -0.0828726 -6.31153e-20)
(0.591229 -0.0830859 1.04341e-19)
(0.592217 -0.0832527 -1.26399e-19)
(0.593244 -0.0833755 7.38213e-21)
(0.59431 -0.0834571 2.20734e-20)
(0.628155 -0.0831175 0)
(0.628696 -0.0833985 0)
(0.629286 -0.0836308 0)
(0.629923 -0.0838171 0)
(0.630606 -0.08396 0)
(0.683762 -0.0835881 0)
(0.683698 -0.0839364 0)
(0.683696 -0.0842345 0)
(0.683753 -0.0844851 0)
(0.683867 -0.0846906 0)
(0.739451 -0.0830386 0)
(0.738789 -0.0834835 0)
(0.738199 -0.0838752 0)
(0.73768 -0.0842163 0)
(0.73723 -0.0845095 0)
(0.794416 -0.0816114 0)
(0.793181 -0.0821706 0)
(0.792029 -0.0826727 0)
(0.790958 -0.0831206 0)
(0.789965 -0.083517 0)
(0.847903 -0.0794027 0)
(0.846139 -0.0800892 0)
(0.844468 -0.0807143 0)
(0.842885 -0.0812811 0)
(0.841387 -0.0817923 0)
(0.899223 -0.0764788 0)
(0.896992 -0.0773024 0)
(0.894858 -0.0780601 0)
(0.892818 -0.078755 0)
(0.890869 -0.0793904 0)
(0.947776 -0.0729374 0)
(0.945151 -0.0739032 0)
(0.942625 -0.0747987 0)
(0.940195 -0.0756272 0)
(0.937858 -0.0763919 0)
(0.993072 -0.068893 0)
(0.990134 -0.0700011 0)
(0.987294 -0.0710348 0)
(0.984548 -0.0719977 0)
(0.981895 -0.0728931 0)
(1.03474 -0.0644674 0)
(1.03157 -0.065713 0)
(1.0285 -0.0668809 0)
(1.02551 -0.0679747 0)
(1.02262 -0.0689977 0)
(1.07252 -0.0597838 0)
(1.06921 -0.0611577 0)
(1.06598 -0.0624516 0)
(1.06284 -0.0636689 0)
(1.05979 -0.0648129 0)
(1.10629 -0.0549605 0)
(1.10292 -0.0564503 0)
(1.09962 -0.0578586 0)
(1.09639 -0.0591886 0)
(1.09324 -0.0604438 0)
(1.13604 -0.0501063 0)
(1.13267 -0.051697 0)
(1.12936 -0.0532055 0)
(1.12613 -0.0546351 0)
(1.12295 -0.055989 0)
(1.16184 -0.0453164 0)
(1.15854 -0.0469912 0)
(1.15529 -0.0485844 0)
(1.1521 -0.0500988 0)
(1.14896 -0.0515375 0)
(1.18388 -0.04067 0)
(1.18069 -0.042412 0)
(1.17755 -0.0440734 0)
(1.17445 -0.045657 0)
(1.17139 -0.0471657 0)
(1.20237 -0.0362301 0)
(1.19934 -0.0380222 0)
(1.19634 -0.0397356 0)
(1.19338 -0.0413728 0)
(1.19044 -0.0429365 0)
(1.21761 -0.0320429 0)
(1.21476 -0.0338691 0)
(1.21194 -0.0356189 0)
(1.20913 -0.0372947 0)
(1.20635 -0.0388988 0)
(1.22989 -0.0281397 0)
(1.22725 -0.029985 0)
(1.22462 -0.0317568 0)
(1.222 -0.0334571 0)
(1.21939 -0.0350881 0)
(1.23956 -0.0245378 0)
(1.23713 -0.0263892 0)
(1.2347 -0.0281699 0)
(1.23227 -0.0298821 0)
(1.22984 -0.0315275 0)
(1.24693 -0.0212435 0)
(1.24471 -0.0230892 0)
(1.24248 -0.0248676 0)
(1.24025 -0.0265804 0)
(1.23801 -0.0282291 0)
(1.25231 -0.0182533 0)
(1.2503 -0.0200837 0)
(1.24827 -0.0218499 0)
(1.24624 -0.0235536 0)
(1.24419 -0.0251962 0)
(1.25601 -0.015557 0)
(1.25419 -0.0173638 0)
(1.25236 -0.0191098 0)
(1.25051 -0.0207963 0)
(1.24865 -0.0224246 0)
(1.25829 -0.013139 0)
(1.25666 -0.0149157 0)
(1.25501 -0.0166348 0)
(1.25334 -0.0182974 0)
(1.25166 -0.0199047 0)
(1.2594 -0.0109807 0)
(1.25794 -0.012722 0)
(1.25647 -0.0144088 0)
(1.25497 -0.0160421 0)
(1.25344 -0.0176229 0)
(1.25955 -0.00906151 0)
(1.25826 -0.0107634 0)
(1.25694 -0.0124138 0)
(1.25559 -0.0140134 0)
(1.25422 -0.0155634 0)
(1.25894 -0.00736028 0)
(1.25779 -0.00901969 0)
(1.25662 -0.0106304 0)
(1.25541 -0.0121932 0)
(1.25418 -0.0137089 0)
(1.25772 -0.00585623 0)
(1.25671 -0.00747091 0)
(1.25566 -0.00903958 0)
(1.25459 -0.0105629 0)
(1.25348 -0.0120417 0)
(1.25604 -0.00452956 0)
(1.25514 -0.00609787 0)
(1.25421 -0.00762276 0)
(1.25325 -0.00910482 0)
(1.25226 -0.0105447 0)
(1.254 -0.00336184 0)
(1.2532 -0.00488268 0)
(1.25238 -0.00636252 0)
(1.25153 -0.0078019 0)
(1.25064 -0.00920137 0)
(1.25169 -0.00233629 0)
(1.251 -0.0038089 0)
(1.25027 -0.00524284 0)
(1.2495 -0.00663855 0)
(1.24871 -0.00799652 0)
(1.2492 -0.00143785 0)
(1.24859 -0.00286177 0)
(1.24795 -0.00424921 0)
(1.24727 -0.00560057 0)
(1.24656 -0.00691625 0)
(1.24659 -0.000653149 0)
(1.24605 -0.00202811 0)
(1.24548 -0.00336869 0)
(1.24488 -0.00467521 0)
(1.24425 -0.00594802 0)
(1.24359 -0.00718752 0)
(1.2439 2.95775e-05 0)
(1.24343 -0.0012963 0)
(1.24293 -0.00258979 0)
(1.2424 -0.00385116 0)
(1.24183 -0.00508071 0)
(1.24124 -0.00627877 0)
(1.24118 0.000620622 0)
(1.24077 -0.000656149 0)
(1.24033 -0.00190244 0)
(1.23986 -0.00311845 0)
(1.23936 -0.00430445 0)
(1.23882 -0.00546071 0)
(1.23845 0.00112897 0)
(1.2381 -9.87409e-05 0)
(1.23772 -0.00129779 0)
(1.2373 -0.00246833 0)
(1.23685 -0.00361058 0)
(1.23637 -0.00472478 0)
(1.23574 0.00156248 0)
(1.23544 0.000383725 0)
(1.23511 -0.000768097 0)
(1.23474 -0.00189311 0)
(1.23435 -0.00299149 0)
(1.23392 -0.00406342 0)
(1.23308 0.00192802 0)
(1.23282 0.00079808 0)
(1.23254 -0.000306578 0)
(1.23222 -0.00138605 0)
(1.23186 -0.00244047 0)
(1.23148 -0.00346999 0)
(1.23047 0.00223161 0)
(1.23026 0.00115033 0)
(1.23001 9.27495e-05 0)
(1.22973 -0.000941203 0)
(1.22942 -0.00195162 0)
(1.22908 -0.00293863 0)
(1.22793 0.0024786 0)
(1.22775 0.0014458 0)
(1.22755 0.000435176 0)
(1.22731 -0.000553307 0)
(1.22704 -0.00151971 0)
(1.22674 -0.00246414 0)
(1.22547 0.00267375 0)
(1.22533 0.00168921 0)
(1.22516 0.000725413 0)
(1.22495 -0.000217673 0)
(1.22472 -0.00114008 0)
(1.22445 -0.00204189 0)
(1.22309 0.0028213 0)
(1.22298 0.00188482 0)
(1.22285 0.00096769 0)
(1.22267 6.99075e-05 0)
(1.22247 -0.000808546 0)
(1.22224 -0.00166772 0)
(1.22081 0.00292511 0)
(1.22073 0.00203646 0)
(1.22062 0.00116583 0)
(1.22048 0.000313242 0)
(1.22031 -0.000521312 0)
(1.2201 -0.00133786 0)
(1.21862 0.0029887 0)
(1.21857 0.00214764 0)
(1.21849 0.00132333 0)
(1.21838 0.000515803 0)
(1.21823 -0.000274926 0)
(1.21806 -0.00104887 0)
(1.21654 0.00301528 0)
(1.21651 0.00222157 0)
(1.21646 0.00144338 0)
(1.21637 0.000680782 0)
(1.21625 -6.62129e-05 0)
(1.2161 -0.000797598 0)
(1.21456 0.00300783 0)
(1.21456 0.00226121 0)
(1.21453 0.00152896 0)
(1.21446 0.000811133 0)
(1.21436 0.000107769 0)
(1.21424 -0.000581118 0)
(1.21269 0.00296913 0)
(1.21271 0.00226935 0)
(1.2127 0.00158282 0)
(1.21265 0.000909612 0)
(1.21258 0.000249764 0)
(1.21247 -0.000396697 0)
(1.21093 0.00290177 0)
(1.21097 0.00224857 0)
(1.21097 0.00160756 0)
(1.21095 0.000978801 0)
(1.2109 0.000362347 0)
(1.21081 -0.000241772 0)
(1.20928 0.00280818 0)
(1.20933 0.00220132 0)
(1.20936 0.00160561 0)
(1.20935 0.00102114 0)
(1.20932 0.000447948 0)
(1.20925 -0.000113919 0)
(1.20774 0.00269067 0)
(1.20781 0.00212989 0)
(1.20786 0.00157929 0)
(1.20787 0.00103893 0)
(1.20785 0.000508875 0)
(1.2078 -1.08366e-05 0)
(1.20632 0.00255142 0)
(1.20641 0.00203649 0)
(1.20646 0.00153078 0)
(1.20649 0.00103438 0)
(1.20648 0.000547326 0)
(1.20645 6.96701e-05 0)
(1.20501 0.00239251 0)
(1.20511 0.0019232 0)
(1.20518 0.00146221 0)
(1.20522 0.00100959 0)
(1.20523 0.000565408 0)
(1.20521 0.000129706 0)
(1.20394 0.00179204 0)
(1.20402 0.00137556 0)
(1.20407 0.00096658 0)
(1.20409 0.000565144 0)
(1.20408 0.000171297 0)
(1.20287 0.00164493 0)
(1.20297 0.0012728 0)
(1.20303 0.000907302 0)
(1.20306 0.000548489 0)
(1.20306 0.0001964 0)
(1.20193 0.00148373 0)
(1.20203 0.00115579 0)
(1.2021 0.000833637 0)
(1.20214 0.000517333 0)
(1.20215 0.000206909 0)
(1.2011 0.00131024 0)
(1.20121 0.00102634 0)
(1.20129 0.000747412 0)
(1.20134 0.000473511 0)
(1.20136 0.000204668 0)
(1.20039 0.00112621 0)
(1.20051 0.000886218 0)
(1.20059 0.000650405 0)
(1.20065 0.000418813 0)
(1.20068 0.000191472 0)
(1.1998 0.000933349 0)
(1.19992 0.000737149 0)
(1.20001 0.000544351 0)
(1.20007 0.000354985 0)
(1.20011 0.000169077 0)
(1.19932 0.000733309 0)
(1.19945 0.00058081 0)
(1.19955 0.000430943 0)
(1.19961 0.000283734 0)
(1.19965 0.000139201 0)
(1.19897 0.000527723 0)
(1.1991 0.00041885 0)
(1.1992 0.000311849 0)
(1.19927 0.00020674 0)
(1.19931 0.000103537 0)
(1.19873 0.000318247 0)
(1.19886 0.000252944 0)
(1.19896 0.000188762 0)
(1.19904 0.000125712 0)
(1.19908 6.38026e-05 0)
(1.19861 0.000106374 0)
(1.19874 8.46095e-05 0)
(1.19885 6.32181e-05 0)
(1.19892 4.22035e-05 0)
(1.19897 2.15686e-05 0)
(0.628152 0.083117 0)
(0.683759 0.0835874 0)
(0.739449 0.0830379 0)
(0.794414 0.0816106 0)
(0.8479 0.0794018 0)
(0.89922 0.0764779 0)
(0.947774 0.0729364 0)
(0.99307 0.068892 0)
(1.03473 0.0644663 0)
(1.07252 0.0597826 0)
(1.10629 0.0549594 0)
(1.13604 0.0501052 0)
(1.16184 0.0453152 0)
(1.18387 0.0406689 0)
(1.20237 0.0362289 0)
(1.21761 0.0320418 0)
(1.22989 0.0281386 0)
(1.23956 0.0245368 0)
(1.24693 0.0212424 0)
(1.25231 0.0182523 0)
(1.25601 0.015556 0)
(1.25829 0.013138 0)
(1.2594 0.0109798 0)
(1.25955 0.0090606 0)
(1.25894 0.0073594 0)
(1.25772 0.00585539 0)
(1.25604 0.00452875 0)
(1.254 0.00336107 0)
(1.25169 0.00233556 0)
(1.2492 0.00143715 0)
(1.24659 0.000652477 0)
(1.2439 -3.02167e-05 0)
(1.24118 -0.00062123 0)
(1.23845 -0.00112955 0)
(1.23574 -0.00156303 0)
(1.23308 -0.00192854 0)
(1.23047 -0.0022321 0)
(1.22793 -0.00247907 0)
(1.22547 -0.00267418 0)
(1.22309 -0.00282171 0)
(1.22081 -0.0029255 0)
(1.21862 -0.00298906 0)
(1.21654 -0.00301562 0)
(1.21456 -0.00300815 0)
(1.21269 -0.00296943 0)
(1.21093 -0.00290204 0)
(1.20928 -0.00280843 0)
(1.20774 -0.0026909 0)
(1.20632 -0.00255163 0)
(1.20501 -0.0023927 0)
(1.20382 -0.00221611 0)
(1.20275 -0.00202378 0)
(1.20179 -0.00181754 0)
(1.20096 -0.00159919 0)
(1.20024 -0.00137044 0)
(1.19964 -0.00113299 0)
(1.19916 -0.000888471 0)
(1.1988 -0.00063849 0)
(1.19857 -0.000384683 0)
(1.19845 -0.000128516 0)
(0.628693 0.0833978 0)
(0.683696 0.0839356 0)
(0.738786 0.0834826 0)
(0.793178 0.0821697 0)
(0.846137 0.0800882 0)
(0.89699 0.0773013 0)
(0.945149 0.0739021 0)
(0.990132 0.07 0)
(1.03157 0.0657118 0)
(1.06921 0.0611565 0)
(1.10291 0.0564491 0)
(1.13267 0.0516957 0)
(1.15854 0.04699 0)
(1.18069 0.0424108 0)
(1.19934 0.038021 0)
(1.21476 0.0338679 0)
(1.22725 0.0299839 0)
(1.23713 0.026388 0)
(1.24471 0.0230881 0)
(1.2503 0.0200826 0)
(1.25419 0.0173628 0)
(1.25666 0.0149147 0)
(1.25794 0.0127211 0)
(1.25826 0.0107625 0)
(1.25779 0.00901879 0)
(1.25671 0.00747004 0)
(1.25514 0.00609705 0)
(1.2532 0.00488188 0)
(1.251 0.00380815 0)
(1.24859 0.00286105 0)
(1.24605 0.00202742 0)
(1.24343 0.00129564 0)
(1.24077 0.000655527 0)
(1.2381 9.81498e-05 0)
(1.23544 -0.000384285 0)
(1.23282 -0.00079861 0)
(1.23026 -0.00115084 0)
(1.22775 -0.00144627 0)
(1.22533 -0.00168966 0)
(1.22298 -0.00188524 0)
(1.22073 -0.00203686 0)
(1.21857 -0.00214801 0)
(1.21651 -0.00222191 0)
(1.21456 -0.00226154 0)
(1.21271 -0.00226965 0)
(1.21097 -0.00224885 0)
(1.20933 -0.00220157 0)
(1.20781 -0.00213013 0)
(1.20641 -0.0020367 0)
(1.20511 -0.0019234 0)
(1.20394 -0.00179222 0)
(1.20287 -0.00164508 0)
(1.20193 -0.00148386 0)
(1.2011 -0.00131036 0)
(1.20039 -0.00112631 0)
(1.1998 -0.000933429 0)
(1.19932 -0.000733371 0)
(1.19897 -0.000527767 0)
(1.19873 -0.000318273 0)
(1.19861 -0.000106383 0)
(0.629283 0.08363 0)
(0.683693 0.0842336 0)
(0.738196 0.0838742 0)
(0.792027 0.0826717 0)
(0.844465 0.0807132 0)
(0.894856 0.0780589 0)
(0.942623 0.0747975 0)
(0.987292 0.0710336 0)
(1.0285 0.0668796 0)
(1.06598 0.0624503 0)
(1.09962 0.0578573 0)
(1.12936 0.0532042 0)
(1.15529 0.0485831 0)
(1.17755 0.0440721 0)
(1.19634 0.0397343 0)
(1.21193 0.0356176 0)
(1.22462 0.0317556 0)
(1.23469 0.0281688 0)
(1.24248 0.0248665 0)
(1.24827 0.0218488 0)
(1.25236 0.0191087 0)
(1.25501 0.0166337 0)
(1.25647 0.0144078 0)
(1.25694 0.0124128 0)
(1.25662 0.0106295 0)
(1.25566 0.00903869 0)
(1.25421 0.00762191 0)
(1.25238 0.00636171 0)
(1.25027 0.00524206 0)
(1.24795 0.00424847 0)
(1.24548 0.00336798 0)
(1.24293 0.00258912 0)
(1.24033 0.0019018 0)
(1.23772 0.00129718 0)
(1.23511 0.000767525 0)
(1.23254 0.000306036 0)
(1.23001 -9.32617e-05 0)
(1.22755 -0.000435659 0)
(1.22516 -0.000725868 0)
(1.22285 -0.000968118 0)
(1.22062 -0.00116624 0)
(1.21849 -0.00132371 0)
(1.21646 -0.00144374 0)
(1.21453 -0.00152929 0)
(1.2127 -0.00158313 0)
(1.21097 -0.00160784 0)
(1.20936 -0.00160587 0)
(1.20786 -0.00157953 0)
(1.20646 -0.001531 0)
(1.20518 -0.0014624 0)
(1.20402 -0.00137574 0)
(1.20297 -0.00127296 0)
(1.20203 -0.00115592 0)
(1.20121 -0.00102646 0)
(1.20051 -0.000886318 0)
(1.19992 -0.000737231 0)
(1.19945 -0.000580873 0)
(1.1991 -0.000418894 0)
(1.19886 -0.000252971 0)
(1.19874 -8.46184e-05 0)
(0.62992 0.0838162 0)
(0.68375 0.084484 0)
(0.737677 0.0842152 0)
(0.790955 0.0831194 0)
(0.842882 0.0812798 0)
(0.892816 0.0787538 0)
(0.940193 0.0756259 0)
(0.984546 0.0719964 0)
(1.02551 0.0679733 0)
(1.06284 0.0636675 0)
(1.09639 0.0591873 0)
(1.12612 0.0546338 0)
(1.1521 0.0500975 0)
(1.17445 0.0456557 0)
(1.19338 0.0413715 0)
(1.20913 0.0372934 0)
(1.222 0.0334559 0)
(1.23227 0.0298809 0)
(1.24025 0.0265792 0)
(1.24624 0.0235525 0)
(1.25051 0.0207952 0)
(1.25334 0.0182963 0)
(1.25497 0.0160411 0)
(1.25559 0.0140125 0)
(1.25541 0.0121922 0)
(1.25459 0.010562 0)
(1.25325 0.00910395 0)
(1.25153 0.00780107 0)
(1.24951 0.00663776 0)
(1.24727 0.00559981 0)
(1.24488 0.00467448 0)
(1.2424 0.00385047 0)
(1.23986 0.0031178 0)
(1.2373 0.00246771 0)
(1.23474 0.00189253 0)
(1.23222 0.0013855 0)
(1.22973 0.000940681 0)
(1.22731 0.000552814 0)
(1.22495 0.000217209 0)
(1.22267 -7.03435e-05 0)
(1.22048 -0.000313651 0)
(1.21838 -0.000516186 0)
(1.21637 -0.00068114 0)
(1.21446 -0.000811467 0)
(1.21265 -0.000909922 0)
(1.21095 -0.000979088 0)
(1.20935 -0.0010214 0)
(1.20787 -0.00103917 0)
(1.20649 -0.0010346 0)
(1.20522 -0.00100979 0)
(1.20407 -0.000966761 0)
(1.20303 -0.000907462 0)
(1.2021 -0.000833777 0)
(1.20129 -0.000747533 0)
(1.20059 -0.000650507 0)
(1.20001 -0.000544433 0)
(1.19955 -0.000431007 0)
(1.1992 -0.000311895 0)
(1.19897 -0.000188789 0)
(1.19885 -6.32272e-05 0)
(0.630603 0.0839589 0)
(0.683864 0.0846894 0)
(0.737227 0.0845082 0)
(0.789962 0.0835157 0)
(0.841385 0.081791 0)
(0.890867 0.079389 0)
(0.937856 0.0763905 0)
(0.981893 0.0728917 0)
(1.02262 0.0689963 0)
(1.05978 0.0648115 0)
(1.09324 0.0604424 0)
(1.12295 0.0559876 0)
(1.14896 0.0515361 0)
(1.17139 0.0471643 0)
(1.19044 0.0429351 0)
(1.20635 0.0388975 0)
(1.21939 0.0350868 0)
(1.22984 0.0315262 0)
(1.23801 0.0282279 0)
(1.24419 0.025195 0)
(1.24865 0.0224235 0)
(1.25166 0.0199036 0)
(1.25344 0.0176219 0)
(1.25422 0.0155624 0)
(1.25418 0.0137079 0)
(1.25348 0.0120408 0)
(1.25226 0.0105438 0)
(1.25064 0.00920051 0)
(1.24871 0.00799571 0)
(1.24656 0.00691547 0)
(1.24425 0.00594728 0)
(1.24183 0.00508001 0)
(1.23936 0.00430379 0)
(1.23685 0.00360995 0)
(1.23435 0.00299089 0)
(1.23186 0.00243991 0)
(1.22942 0.00195109 0)
(1.22704 0.00151921 0)
(1.22472 0.00113961 0)
(1.22247 0.000808103 0)
(1.22031 0.000520896 0)
(1.21823 0.000274537 0)
(1.21625 6.58494e-05 0)
(1.21436 -0.000108108 0)
(1.21258 -0.000250079 0)
(1.2109 -0.000362638 0)
(1.20932 -0.000448217 0)
(1.20785 -0.000509121 0)
(1.20648 -0.000547551 0)
(1.20523 -0.000565611 0)
(1.20409 -0.000565327 0)
(1.20306 -0.000548651 0)
(1.20214 -0.000517475 0)
(1.20134 -0.000473634 0)
(1.20065 -0.000418916 0)
(1.20007 -0.000355068 0)
(1.19961 -0.000283798 0)
(1.19927 -0.000206786 0)
(1.19904 -0.00012574 0)
(1.19892 -4.22127e-05 0)
(0.590278 0.0828721 6.33669e-20)
(0.591226 0.0830853 -1.04421e-19)
(0.592214 0.0832519 1.26109e-19)
(0.593241 0.0833746 -7.28883e-21)
(0.594307 0.083456 -2.18401e-20)
(0.565431 0.0823371 4.24448e-20)
(0.566676 0.0825104 -6.73656e-20)
(0.567955 0.082639 3.75025e-20)
(0.569268 0.0827253 6.35412e-20)
(0.570614 0.082772 -6.4652e-20)
(0.539011 0.0814498 -5.34149e-20)
(0.540524 0.081635 7.9151e-20)
(0.542065 0.0817741 -4.60378e-21)
(0.543635 0.0818697 -2.91388e-20)
(0.545233 0.0819246 -1.62157e-20)
(0.513814 0.0806116 2.07148e-20)
(0.515627 0.0807651 7.93387e-20)
(0.517461 0.0808736 -3.67829e-20)
(0.519319 0.08094 -2.15503e-20)
(0.5212 0.080967 3.90184e-21)
(0.488703 0.0795682 -7.17186e-20)
(0.49081 0.0796936 1.45709e-20)
(0.492935 0.0797753 4.74634e-20)
(0.495077 0.079816 -7.40411e-21)
(0.497236 0.0798184 -5.44784e-20)
(0.461368 0.0781717 5.59524e-20)
(0.463752 0.0783187 -6.8829e-20)
(0.466148 0.0784199 1.0515e-19)
(0.468556 0.0784783 -1.97749e-20)
(0.470978 0.0784968 -7.96848e-20)
(0.436364 0.0767428 -4.51815e-20)
(0.439034 0.0768681 2.655e-20)
(0.441713 0.0769485 7.52022e-20)
(0.444399 0.0769871 -2.3016e-20)
(0.447095 0.0769867 1.39106e-20)
(0.411678 0.0751121 -9.72107e-20)
(0.414627 0.0752191 3.4751e-20)
(0.41758 0.0752819 2.62983e-20)
(0.420538 0.0753038 -2.84707e-20)
(0.4235 0.0752877 8.04978e-20)
(0.384171 0.073145 1.02103e-19)
(0.387389 0.0732831 -1.25321e-20)
(0.390607 0.0733747 -2.014e-20)
(0.393826 0.073423 4.04086e-21)
(0.397046 0.0734312 -2.50086e-20)
(0.360093 0.0711356 8.82197e-21)
(0.363572 0.0712603 7.15635e-20)
(0.367049 0.0713392 -9.15694e-21)
(0.370524 0.0713756 -4.68907e-20)
(0.373997 0.0713728 4.82007e-20)
(0.336576 0.0689355 -2.05968e-20)
(0.340305 0.0690491 5.44612e-20)
(0.34403 0.0691177 -8.52544e-20)
(0.347751 0.0691447 1.20328e-19)
(0.351467 0.0691333 -6.37957e-20)
(0.309722 0.0663988 5.64928e-20)
(0.313696 0.0665512 -7.94106e-20)
(0.317663 0.0666557 2.15009e-20)
(0.321624 0.0667161 3.09405e-20)
(0.325579 0.0667357 8.51469e-21)
(0.329528 0.0667179 -1.86625e-20)
(0.287328 0.0638459 3.1233e-20)
(0.291527 0.0639899 -5.29988e-20)
(0.295719 0.0640869 1.81508e-20)
(0.299904 0.0641408 2.29987e-20)
(0.304082 0.0641549 -3.38338e-20)
(0.265731 0.0611225 -4.94541e-20)
(0.270142 0.0612593 1.95763e-20)
(0.274546 0.0613502 1.1784e-20)
(0.278943 0.061399 -1.21774e-21)
(0.283332 0.0614091 -1.8025e-20)
(0.245003 0.0582374 6.29863e-21)
(0.249612 0.0583676 2.69107e-20)
(0.254214 0.0584534 3.48574e-21)
(0.25881 0.0584982 -1.495e-20)
(0.263398 0.0585056 6.02739e-21)
(0.220413 0.055028 2.01776e-20)
(0.22521 0.0551993 8.97671e-21)
(0.230004 0.0553236 -1.57169e-20)
(0.234792 0.0554049 -2.73077e-20)
(0.239573 0.0554467 3.05972e-20)
(0.244347 0.0554523 -7.12938e-21)
(0.201454 0.0518539 3.14852e-20)
(0.20642 0.0520177 -1.77397e-20)
(0.211384 0.0521363 2.07297e-20)
(0.216344 0.0522136 -1.49662e-20)
(0.221298 0.0522529 -9.86954e-21)
(0.183573 0.0485461 -6.9104e-21)
(0.188694 0.0487022 -1.50322e-20)
(0.193815 0.0488151 1.27611e-20)
(0.198933 0.0488884 -2.35491e-20)
(0.204047 0.0489257 3.40367e-20)
(0.166828 0.0451145 -2.38581e-20)
(0.172091 0.0452624 -1.40254e-20)
(0.177355 0.0453693 3.22302e-20)
(0.182618 0.0454388 1.37586e-20)
(0.187879 0.0454742 -1.57305e-20)
(0.151276 0.0415692 -3.73773e-20)
(0.156666 0.0417082 3.27056e-20)
(0.16206 0.0418088 -3.75161e-20)
(0.167456 0.0418743 1.06565e-20)
(0.172851 0.0419078 1.72069e-20)
(0.131474 0.0377519 1.55176e-20)
(0.136968 0.0379203 -1.91237e-20)
(0.142472 0.0380497 3.2061e-20)
(0.147983 0.0381435 3.15467e-21)
(0.153498 0.0382047 -1.58518e-20)
(0.159013 0.0382362 -5.97892e-22)
(0.118358 0.0340232 -4.00457e-22)
(0.12395 0.0341779 1.54387e-21)
(0.129555 0.0342968 -6.02871e-21)
(0.135171 0.0343831 8.33982e-22)
(0.140792 0.0344396 1.98273e-20)
(0.146416 0.034469 -1.28256e-20)
(0.106588 0.0302122 -2.02165e-20)
(0.112266 0.0303521 7.21678e-21)
(0.117961 0.0304596 3.87034e-21)
(0.123668 0.0305378 2.58833e-21)
(0.129384 0.0305892 6.0325e-21)
(0.0962028 0.026329 -1.6417e-20)
(0.101955 0.0264528 2.09756e-20)
(0.107728 0.0265481 -1.54259e-20)
(0.113515 0.0266175 1.59237e-21)
(0.119311 0.0266633 6.39005e-21)
(0.0872368 0.0223833 -2.39616e-20)
(0.0930526 0.02249 1.69368e-20)
(0.0988904 0.0225723 -4.90787e-21)
(0.104745 0.0226323 1.07985e-20)
(0.110611 0.022672 -1.38528e-20)
(0.0797195 0.018385 -8.73587e-21)
(0.0855872 0.0184737 3.87749e-21)
(0.0914792 0.0185422 -4.63116e-22)
(0.0973897 0.0185921 1.46572e-20)
(0.103314 0.0186253 -3.68649e-21)
(0.0736755 0.0143438 -9.57267e-21)
(0.0795844 0.0144137 9.24599e-21)
(0.0855194 0.0144676 -1.62227e-21)
(0.0914745 0.0145071 6.36629e-21)
(0.0974442 0.0145333 -8.45771e-21)
(0.069125 0.0102693 1.95542e-21)
(0.0750646 0.0103197 -1.73512e-21)
(0.0810316 0.0103587 -5.05911e-21)
(0.0870199 0.0103871 8.04943e-21)
(0.0930239 0.0104061 -5.17273e-21)
(0.0660829 0.00617119 -2.54191e-21)
(0.0720428 0.00620159 -4.92872e-22)
(0.0780312 0.00622506 1.43935e-21)
(0.0840415 0.00624223 -3.68217e-22)
(0.0900683 0.00625366 1.33854e-21)
(0.0645594 0.00205883 1.03336e-21)
(0.0705295 0.00206894 -2.23605e-21)
(0.0765284 0.00207673 1.35841e-21)
(0.0825498 0.00208241 8.94628e-22)
(0.0885879 0.00208617 -5.39802e-22)
)
;

boundaryField
{
    inlet
    {
        type            uniformFixedValue;
        uniformValue    constant (1 0 0);
        value           nonuniform 0();
    }
    outlet
    {
        type            pressureInletOutletVelocity;
        value           nonuniform 0();
    }
    cylinder
    {
        type            fixedValue;
        value           nonuniform 0();
    }
    top
    {
        type            symmetryPlane;
    }
    bottom
    {
        type            symmetryPlane;
    }
    defaultFaces
    {
        type            empty;
    }
    procBoundary24to23
    {
        type            processor;
        value           nonuniform List<vector> 
193
(
(0.0586253 -0.00204544 1.02229e-21)
(0.0601586 -0.00613245 6.2705e-21)
(0.06322 -0.0102056 -4.6765e-21)
(0.0677998 -0.0142557 6.25886e-21)
(0.073883 -0.0182733 3.10426e-21)
(0.0814499 -0.022249 1.25772e-20)
(0.0904762 -0.0261732 7.34798e-21)
(0.100933 -0.0300364 1.95663e-20)
(0.112786 -0.0338286 -1.30639e-20)
(0.125997 -0.03754 7.98095e-21)
(0.145896 -0.0413876 2.27686e-20)
(0.145896 -0.0413876 2.27686e-20)
(0.161573 -0.0449213 -1.97168e-20)
(0.178455 -0.0483423 9.38786e-21)
(0.196488 -0.0516403 -4.1886e-20)
(0.215613 -0.0548051 -2.29777e-20)
(0.24039 -0.0580583 -8.80228e-22)
(0.24039 -0.0580583 -8.80228e-22)
(0.261315 -0.0609358 1.28616e-20)
(0.283124 -0.0636508 5.74599e-21)
(0.305744 -0.0661944 -2.86691e-20)
(0.332843 -0.0687731 5.68227e-20)
(0.332843 -0.0687731 5.68227e-20)
(0.356612 -0.0709614 -6.88146e-20)
(0.380954 -0.0729567 -9.62903e-20)
(0.408735 -0.074958 1.63336e-20)
(0.408735 -0.074958 1.63336e-20)
(0.433703 -0.0765695 9.26541e-21)
(0.458998 -0.0779759 -7.80013e-20)
(0.486617 -0.0793962 2.50671e-22)
(0.486617 -0.0793962 2.50671e-22)
(0.512028 -0.0804105 2.06676e-20)
(0.53753 -0.0812157 -4.12337e-20)
(0.564223 -0.0821164 4.63748e-20)
(0.564223 -0.0821164 4.63748e-20)
(0.589375 -0.0826099 -4.26176e-20)
(0.627663 -0.0827851 0)
(0.683889 -0.0831869 0)
(0.740189 -0.0825377 0)
(0.795738 -0.0809922 0)
(0.849761 -0.0786518 0)
(0.901553 -0.075586 0)
(0.950503 -0.0718979 0)
(0.99611 -0.0677071 0)
(1.038 -0.0631406 0)
(1.07592 -0.0583261 0)
(1.10974 -0.0533857 0)
(1.13947 -0.0484303 0)
(1.1652 -0.0435567 0)
(1.1871 -0.0388446 0)
(1.20543 -0.0343567 0)
(1.22047 -0.0301381 0)
(1.23255 -0.0262186 0)
(1.24199 -0.0226141 0)
(1.24914 -0.0193287 0)
(1.25431 -0.0163574 0)
(1.2578 -0.013688 0)
(1.25989 -0.0113036 0)
(1.26082 -0.00918386 0)
(1.26081 -0.00730718 0)
(1.26005 -0.0056514 0)
(1.2587 -0.00419491 0)
(1.2569 -0.00291726 0)
(1.25475 -0.00179954 0)
(1.25235 -0.000824605 0)
(1.24978 2.28774e-05 0)
(1.24709 0.000756469 0)
(1.24433 0.00138807 0)
(1.24155 0.00192806 0)
(1.23876 0.00238549 0)
(1.23601 0.00276827 0)
(1.2333 0.00308329 0)
(1.23064 0.00333661 0)
(1.22807 0.00353359 0)
(1.22557 0.00367898 0)
(1.22316 0.00377707 0)
(1.22085 0.00383172 0)
(1.21864 0.00384643 0)
(1.21653 0.00382444 0)
(1.21453 0.00376874 0)
(1.21263 0.00368208 0)
(1.21085 0.00356706 0)
(1.20919 0.00342611 0)
(1.20763 0.00326152 0)
(1.2062 0.00307547 0)
(1.20488 0.00287003 0)
(1.20382 0.00221594 0)
(1.20382 0.00221594 0)
(1.20275 0.00202363 0)
(1.20179 0.00181741 0)
(1.20096 0.00159907 0)
(1.20024 0.00137035 0)
(1.19964 0.00113291 0)
(1.19916 0.00088841 0)
(1.1988 0.000638447 0)
(1.19856 0.000384657 0)
(1.19845 0.000128507 0)
(0.627661 0.0827847 0)
(0.683886 0.0831863 0)
(0.740187 0.0825371 0)
(0.795735 0.0809915 0)
(0.849759 0.078651 0)
(0.901551 0.0755852 0)
(0.950501 0.071897 0)
(0.996108 0.0677061 0)
(1.038 0.0631396 0)
(1.07591 0.0583251 0)
(1.10974 0.0533846 0)
(1.13947 0.0484292 0)
(1.1652 0.0435556 0)
(1.1871 0.0388436 0)
(1.20543 0.0343556 0)
(1.22047 0.030137 0)
(1.23255 0.0262176 0)
(1.24199 0.0226131 0)
(1.24914 0.0193277 0)
(1.25431 0.0163564 0)
(1.2578 0.013687 0)
(1.25989 0.0113026 0)
(1.26082 0.00918295 0)
(1.26081 0.0073063 0)
(1.26005 0.00565055 0)
(1.2587 0.00419409 0)
(1.2569 0.00291647 0)
(1.25475 0.00179879 0)
(1.25235 0.000823888 0)
(1.24978 -2.35626e-05 0)
(1.24709 -0.000757122 0)
(1.24433 -0.00138869 0)
(1.24155 -0.00192865 0)
(1.23876 -0.00238606 0)
(1.23601 -0.00276881 0)
(1.2333 -0.0030838 0)
(1.23064 -0.00333709 0)
(1.22807 -0.00353404 0)
(1.22557 -0.00367941 0)
(1.22316 -0.00377748 0)
(1.22085 -0.00383209 0)
(1.21864 -0.00384679 0)
(1.21653 -0.00382478 0)
(1.21453 -0.00376905 0)
(1.21263 -0.00368237 0)
(1.21085 -0.00356733 0)
(1.20919 -0.00342635 0)
(1.20763 -0.00326175 0)
(1.2062 -0.00307568 0)