/*--------------------------------*- C++ -*----------------------------------*\
  =========                 |
  \\      /  F ield         | OpenFOAM: The Open Source CFD Toolbox
   \\    /   O peration     | Website:  https://openfoam.org
    \\  /    A nd           | Version:  7
     \\/     M anipulation  |
\*---------------------------------------------------------------------------*/
FoamFile
{
    version     2.0;
    format      ascii;
    class       surfaceScalarField;
    location    "20";
    object      phi;
}
// * * * * * * * * * * * * * * * * * * * * * * * * * * * * * * * * * * * * * //

dimensions      [0 3 -1 0 0 0 0];

internalField   nonuniform List<scalar> 
626
(
-3.95683e-05
6.22375e-06
1.1178e-10
-4.60922e-05
6.52376e-06
1.23308e-10
-5.28446e-05
6.75235e-06
1.34724e-10
6.90872e-06
1.45926e-10
-3.8826e-05
1.22985e-05
-4.51775e-05
1.28753e-05
-5.17318e-05
1.33067e-05
1.35907e-05
-3.73472e-05
1.80763e-05
-4.33552e-05
1.88833e-05
-4.95146e-05
1.9466e-05
1.98206e-05
-3.51429e-05
2.34111e-05
-4.06389e-05
2.43793e-05
-4.62095e-05
2.50367e-05
2.53766e-05
-3.22289e-05
2.81603e-05
-3.70479e-05
2.91983e-05
-4.18401e-05
2.98289e-05
3.00415e-05
-2.86251e-05
-3.26066e-05
3.31798e-05
-3.64361e-05
3.36584e-05
3.36046e-05
-2.73426e-05
3.61687e-05
-3.00313e-05
3.63471e-05
-3.22889e-05
3.58622e-05
3.47059e-05
-2.12853e-05
3.80157e-05
-2.26623e-05
3.77241e-05
-2.34192e-05
3.66191e-05
3.46843e-05
-1.44643e-05
-1.43657e-05
3.76255e-05
-1.34356e-05
3.5689e-05
3.27399e-05
-5.17645e-06
3.58948e-05
-2.38182e-06
3.28944e-05
1.68605e-06
2.8672e-05
2.32122e-05
4.87502e-06
3.23825e-05
9.70293e-06
2.80665e-05
1.60839e-05
2.2291e-05
1.50219e-05
1.57645e-05
2.27867e-05
2.10442e-05
3.16603e-05
1.34174e-05
4.00572e-06
3.68471e-05
1.16727e-05
4.83842e-05
1.88031e-06
6.24136e-05
-1.00237e-05
-2.40838e-05
5.18726e-05
6.62377e-05
-1.24848e-05
8.34582e-05
-2.72443e-05
-4.45597e-05
8.52177e-05
-2.98395e-05
0.000105801
-4.78277e-05
0.000130054
-6.88129e-05
-9.28589e-05
0.000105335
0.000129452
-7.19446e-05
0.000157657
-9.70181e-05
-0.000125691
0.000154435
0.00018677
-0.000129353
0.000224191
-0.000163112
-0.000201154
0.000217441
-0.000166008
0.000259631
-0.000205302
-0.000249583
0.000249724
0.000296894
-0.000252472
0.000350762
-0.000303451
-0.000360344
0.000336064
0.000395614
-0.000363001
0.000463162
-0.000427892
-0.000499779
0.00044276
0.00051674
-0.000501872
0.000600162
-0.000583201
-0.000672915
0.000573204
0.000663887
-0.000673885
-0.000774618
0.000731807
0.000841935
-0.000884745
-0.00100852
0.000927209
0.00106187
-0.00114318
-0.00129711
0.00118766
-0.00151496
0.00140551
0.00145746
0.00151496
0.00145746
0.00118766
0.00114318
0.00129711
0.00140551
0.000927209
0.000884745
0.00106187
0.00100852
0.000731808
0.000673885
0.000841935
0.000774618
0.000573204
0.000501872
0.000663887
0.000583201
0.00044276
0.000363001
0.00051674
0.000427892
0.000499779
0.000336064
0.000252472
0.000395614
0.000303451
0.000463163
0.000360344
0.000249725
0.000166008
0.000296894
0.000205302
0.000350762
0.000249583
0.000217441
0.000129353
0.000259632
0.000163112
0.000201154
0.000154435
7.19446e-05
0.00018677
9.7018e-05
0.000224191
0.000125691
0.000105335
2.98393e-05
0.000129452
4.78276e-05
0.000157657
6.88128e-05
9.28588e-05
8.52178e-05
1.24846e-05
0.000105801
2.72442e-05
0.000130054
4.45595e-05
5.18727e-05
-1.16729e-05
6.62378e-05
-1.88047e-06
8.34584e-05
1.00236e-05
2.40836e-05
3.68472e-05
-2.10444e-05
4.83843e-05
-1.34176e-05
6.24138e-05
-4.0059e-06
1.57646e-05
-3.23826e-05
2.27868e-05
-2.80667e-05
3.16605e-05
-2.22912e-05
-1.50221e-05
4.87512e-06
-3.5895e-05
9.70304e-06
-3.28946e-05
1.60841e-05
-2.86723e-05
-5.17636e-06
-3.76257e-05
-2.38172e-06
-3.56892e-05
-3.27401e-05
-1.44643e-05
-3.80159e-05
-1.43657e-05
-3.77243e-05
-1.34355e-05
-3.66194e-05
-3.46846e-05
-2.12853e-05
-3.61689e-05
-2.26622e-05
-3.63474e-05
-2.34192e-05
-3.58624e-05
-3.47061e-05
-2.73425e-05
-3.318e-05
-3.00312e-05
-3.36586e-05
-3.22889e-05
-3.36048e-05
-2.8625e-05
-2.81605e-05
-3.26065e-05
-2.91985e-05
-3.6436e-05
-2.98291e-05
-3.00418e-05
-3.22289e-05
-2.34113e-05
-3.70478e-05
-2.43796e-05
-4.184e-05
-2.50369e-05
-2.53769e-05
-3.51428e-05
-1.80765e-05
-4.06388e-05
-1.88836e-05
-4.62094e-05
-1.94663e-05
-1.98209e-05
-3.73471e-05
-1.22988e-05
-4.33552e-05
-1.28755e-05
-4.95146e-05
-1.33069e-05
-1.3591e-05
-3.8826e-05
-6.22397e-06
-4.51775e-05
-6.52401e-06
-5.17318e-05
-6.75262e-06
-6.90901e-06
-3.95683e-05
-4.60921e-05
-5.28446e-05
0.00171662
-0.00597503
0.00198991
-0.00713547
0.00221131
-0.00810349
0.00238014
-0.00889682
0.00249577
-0.00951432
0.00256162
-0.0099679
0.00258402
-0.0102784
0.00257085
-0.0104719
0.0025303
-0.0105753
0.00246985
-0.0106133
0.0023958
-0.0106068
0.00231306
-0.0105716
0.0022252
-0.0105195
0.0021347
-0.0104585
0.00204318
-0.0103937
0.00195164
-0.0103283
0.0018607
-0.0102643
0.00177067
-0.0102026
0.00168172
-0.0101438
0.00159391
-0.0100882
0.00150723
-0.0100357
0.00142168
-0.00998649
0.00133718
-0.00994042
0.00125369
-0.00989743
0.00117114
-0.00985742
0.00108946
-0.00982033
0.00100858
-0.00978606
0.000928437
-0.00975453
0.000848961
-0.00972568
0.000770085
-0.00969943
0.000691741
-0.00967574
0.000613864
-0.00965454
0.00053639
-0.00963579
0.000459253
-0.00961946
0.00038239
-0.0096055
0.000305738
-0.00959389
0.000229233
-0.00958462
0.000152813
-0.00957768
7.64201e-05
-0.00957308
-0.00957081
0.00174965
-0.00626722
0.00200554
-0.00739135
0.00221294
-0.0083109
0.00236846
-0.00905234
0.00247176
-0.00961761
0.00252678
-0.0100229
0.00254032
-0.010292
0.00252045
-0.010452
0.0024753
-0.0105301
0.00241211
-0.0105501
0.00233684
-0.0105315
0.00225405
-0.0104888
0.00216697
-0.0104324
0.00207783
-0.0103693
0.00198805
0.00189849
0.00180966
0.00172182
0.00163511
0.00154955
0.00146514
0.00138184
0.0012996
0.00121835
0.00113804
0.00105859
0.000979933
0.000902005
0.000824737
0.000748063
0.000671917
0.000596236
0.000520955
0.000446012
0.000371345
0.000296891
0.000222588
0.000148376
7.41971e-05
0.00177984
0.00202338
0.00221693
0.00235805
0.00244773
0.0024908
0.00249462
0.00246748
0.0024174
0.00235132
0.00227481
0.00219201
0.00210581
0.00177984
0.00626722
0.00202338
0.00739135
0.00221693
0.0083109
0.00235805
0.00905234
0.00244773
0.00961762
0.0024908
0.0100229
0.00249462
0.010292
0.00246748
0.010452
0.00241739
0.0105301
0.00235132
0.0105501
0.00227481
0.0105315
0.00219201
0.0104888
0.00210581
0.0104324
0.00201815
0.0103693
0.00193023
0.0103039
0.00184278
0.0102388
0.00175619
0.0101754
0.00167068
0.0101148
0.00158633
0.0100571
0.00150316
0.0100026
0.00142113
0.00995131
0.00134021
0.00990319
0.00126035
0.00985818
0.00118146
0.00981618
0.0011035
0.00977711
0.00102639
0.00974088
0.00095006
0.0097074
0.00087445
0.0096766
0.000799492
0.00964841
0.00962276
0.00174965
0.00597503
0.00200554
0.00713547
0.00221294
0.00810349
0.00236846
0.00889682
0.00247176
0.00951432
0.00252678
0.0099679
0.00254032
0.0102784
0.00252045
0.0104719
0.0024753
0.0105753
0.00241211
0.0106133
0.00233684
0.0106068
0.00225405
0.0105716
0.00216697
0.0105195
0.00207783
0.0104585
0.00198805
0.0103937
0.00189849
0.0103283
0.00180966
0.0102643
0.00172182
0.0102026
0.00163511
0.0101438
0.00154955
0.0100882
0.00146514
0.0100357
0.00138184
0.00998649
0.0012996
0.00994042
0.00121835
0.00989743
0.00113804
0.00985742
0.00105859
0.00982033
0.000979933
0.00978605
0.000902005
0.00975453
0.000824737
0.00972568
0.000748063
0.00969943
0.000671917
0.00967574
0.000596236
0.00965454
0.000520955
0.00963579
0.000446012
0.00961946
0.000371345
0.0096055
0.000296891
0.00959389
0.000222588
0.00958462
0.000148376
0.00957768
7.41971e-05
0.00957308
0.00957081
0.00171662
0.00198991
0.00221131
0.00238014
0.00249577
0.00256162
0.00258402
0.00257085
0.0025303
0.00246985
0.0023958
0.00231306
0.0022252
0.0021347
0.00204317
0.00195164
0.0018607
0.00177067
0.00168172
0.00159391
0.00150723
0.00142168
0.00133718
0.00125369
0.00117114
0.00108946
0.00100858
0.000928437
0.000848961
0.000770085
0.000691741
0.000613864
0.00053639
0.000459253
0.00038239
0.000305738
0.000229233
0.000152813
7.64201e-05
)
;

boundaryField
{
    inlet
    {
        type            calculated;
        value           nonuniform 0();
    }
    outlet
    {
        type            calculated;
        value           nonuniform 0();
    }
    cylinder
    {
        type            calculated;
        value           nonuniform 0();
    }
    top
    {
        type            symmetryPlane;
        value           uniform 0;
    }
    bottom
    {
        type            symmetryPlane;
        value           uniform 0;
    }
    defaultFaces
    {
        type            empty;
        value           nonuniform 0();
    }
    procBoundary23to22
    {
        type            processor;
        value           nonuniform List<scalar> 
164
(
3.33444e-05
3.27512e-05
3.15694e-05
2.9808e-05
2.74797e-05
2.46003e-05
3.21851e-05
2.43536e-05
1.94383e-05
1.39023e-05
3.85778e-05
6.90709e-06
-1.36265e-06
-1.03265e-05
2.69445e-05
-2.74756e-05
-4.00009e-05
-1.98989e-07
-6.7863e-05
-8.48275e-05
-5.03465e-05
-0.000126608
-9.97714e-05
-0.000180786
-0.000208534
-0.000207198
-0.000283655
-0.000304881
-0.00037718
-0.00042858
-0.000492245
-0.00058283
-0.000632692
-0.000773
-0.000804579
-0.00100737
-0.00101962
-0.00131122
-0.00126503
-0.00170739
-0.0014941
-0.00170739
-0.0014941
-0.00126503
-0.00131122
-0.00101962
-0.00100738
-0.000804579
-0.000773
-0.000632692
-0.00058283
-0.000492245
-0.00042858
-0.00037718
-0.000304881
-0.000283655
-0.000207198
-0.000208534
-0.000180786
-9.97713e-05
-0.000126609
-5.03464e-05
-8.48276e-05
-6.78631e-05
-1.98857e-07
-4.0001e-05
-2.74757e-05
2.69447e-05
-1.03266e-05
-1.36273e-06
6.90702e-06
3.85779e-05
1.39023e-05
1.94382e-05
2.43536e-05
3.21853e-05
2.46003e-05
2.74797e-05
2.9808e-05
3.15694e-05
3.27512e-05
3.33444e-05
-0.0103039
-0.0102388
-0.0101754
-0.0101148
-0.0100571
-0.0100026
-0.00995131
-0.00990319
-0.00985818
-0.00981618
-0.00977711
-0.00974088
-0.0097074
-0.0096766
-0.00964841
-0.00962276
-0.00959959
-0.00957886
-0.00956051
-0.00954451
-0.00953083
-0.00951943
-0.00951032
-0.00950347
-0.0094989
-0.00949661
-0.00655296
-0.00763489
-0.00850445
-0.00919346
-0.00970729
-0.010066
-0.0102958
-0.0104249
-0.01048
-0.0104841
-0.010455
-0.010406
-0.0103462
0.00201815
-0.0102817
-0.00655296
-0.00763489
-0.00850445
-0.00919346
-0.00970729
-0.010066
-0.0102958
-0.0104249
-0.01048
-0.0104841
-0.010455
-0.010406
-0.0103462
-0.0102817
-0.010216
-0.0101513
-0.0100889
-0.0100292
-0.00997274
-0.00991942
-0.00986928
-0.00982228
-0.00977831
-0.0097373
-0.00969915
-0.00966377
-0.00963107
-0.00960099
-0.00957345
-0.00954839
0.00072512
-0.00959959
-0.00957886
-0.00956051
-0.00954451
-0.00953083
-0.00951943
-0.00951032
-0.00950347
-0.0094989
-0.00949661
)
;
    }
    procBoundary23to24
    {
        type            processor;
        value           nonuniform List<scalar> 
148
(
-5.97535e-05
-5.84138e-05
-5.57445e-05
-5.17654e-05
-4.6505e-05
-3.99991e-05
-3.30163e-05
-3.39785e-05
-2.33977e-05
-1.14912e-05
-2.87764e-05
7.25022e-06
2.42743e-05
4.26765e-05
7.20524e-06
7.92922e-05
0.000103934
6.44456e-05
0.000158468
0.000190489
0.000157985
0.00026736
0.00030806
0.000298911
0.000412195
0.000423123
0.000539818
0.000578514
0.000694563
0.00076559
0.000885876
0.000964577
0.00114999
0.00120899
0.00114999
0.00120899
0.000964578
0.000885876
0.00076559
0.000672915
0.000600162
0.000539819
0.000423123
0.000412195
0.000298911
0.00030806
0.00026736
0.000157985
0.000190489
0.000158468
6.44455e-05
0.000103934
7.92923e-05
7.20505e-06
4.26767e-05
2.42744e-05
-2.32125e-05
1.68617e-06
-1.14911e-05
-2.33976e-05
-3.39784e-05
-3.30166e-05
-3.9999e-05
-4.6505e-05
-5.17654e-05
-5.57445e-05
-5.84138e-05
-5.97535e-05
0.00566392
0.00686218
0.00788209
0.00872798
0.00939869
0.00990205
0.010256
0.0104851
0.0106158
0.0106738
0.0106808
0.0106543
0.0106074
0.010549
0.0104852
0.0104199
0.0103552
0.0102926
0.0102328
0.010176
0.0101224
0.0100721
0.0100249
0.00998092
0.00993998
0.00990201
0.00986693
0.00983467
0.00980515
0.00977831
0.00975408
0.00973242
0.00971327
0.00969659
0.00968236
0.00967054
0.00966112
0.0096541
0.00964947
0.00964723
0.00566392
0.00686218
0.00788209
0.00872798
0.00939869
0.00990205
0.010256
0.0104851
0.0106158
0.0106738
0.0106808
0.0106543
0.0106074
0.010549
0.0104852
0.0104199
0.0103552
0.0102926
0.0102328
0.010176
0.0101224
0.0100721
0.0100249
0.00998092
0.00993998
0.00990201
0.00986693
0.00983467
0.00980515
0.00977831
0.00975408
0.00973242
0.00971327
0.00969659
0.00968236
0.00967054
0.00966112
0.0096541
0.00964947
0.00964723
)
;
    }
}


// ************************************************************************* //
