/*--------------------------------*- C++ -*----------------------------------*\
  =========                 |
  \\      /  F ield         | OpenFOAM: The Open Source CFD Toolbox
   \\    /   O peration     | Website:  https://openfoam.org
    \\  /    A nd           | Version:  7
     \\/     M anipulation  |
\*---------------------------------------------------------------------------*/
FoamFile
{
    version     2.0;
    format      ascii;
    class       volScalarField;
    location    "55";
    object      p;
}
// * * * * * * * * * * * * * * * * * * * * * * * * * * * * * * * * * * * * * //

dimensions      [0 2 -2 0 0 0 0];

internalField   nonuniform List<scalar> 
36
(
-0.267867
-0.253434
-0.269364
-0.254484
-0.272171
-0.256495
-0.259233
-0.262379
-0.241841
-0.243397
-0.244198
-0.211062
-0.213535
-0.213535
-0.244198
-0.211062
-0.265541
-0.243397
-0.262379
-0.241841
-0.259233
-0.272171
-0.256495
-0.269364
-0.254484
-0.267867
-0.253434
-0.0983018
-0.080868
-0.0672623
-0.056862
-0.0491086
-0.0436045
-0.0400707
-0.0383198
-0.208675
)
;

boundaryField
{
    inlet
    {
        type            zeroGradient;
    }
    outlet
    {
        type            fixedValue;
        value           nonuniform 0();
    }
    cylinder
    {
        type            zeroGradient;
    }
    top
    {
        type            symmetryPlane;
    }
    bottom
    {
        type            symmetryPlane;
    }
    defaultFaces
    {
        type            empty;
    }
    procBoundary36to34
    {
        type            processor;
        value           nonuniform List<scalar> 7(-0.28648 -0.268475 -0.268475 -0.268475 -0.284898 -0.28648 -0.184376);
    }
    procBoundary36to35
    {
        type            processor;
        value           nonuniform List<scalar> 
28
(
-0.2812
-0.283033
-0.275949
-0.275949
-0.280309
-0.265541
-0.265541
-0.245161
-0.245161
-0.231587
-0.231587
-0.231587
-0.245161
-0.245161
-0.280309
-0.275949
-0.275949
-0.283033
-0.2812
-0.0847839
-0.0687099
-0.0563776
-0.0470449
-0.0401103
-0.0351895
-0.0320212
-0.0304221
-0.17126
)
;
    }
    procBoundary36to37
    {
        type            processor;
        value           nonuniform List<scalar> 
22
(
-0.238393
-0.23866
-0.239254
-0.24031
-0.24031
-0.215996
-0.213462
-0.213462
-0.238223
-0.235234
-0.235234
-0.213462
-0.238223
-0.213462
-0.215996
-0.24031
-0.24031
-0.239254
-0.23866
-0.238393
-0.119929
-0.204366
)
;
    }
    procBoundary36to38
    {
        type            processor;
        value           nonuniform List<scalar> 8(-0.104451 -0.0886304 -0.0758194 -0.0657417 -0.0580791 -0.0525676 -0.0490023 -0.0472386);
    }
}


// ************************************************************************* //
