/*--------------------------------*- C++ -*----------------------------------*\
  =========                 |
  \\      /  F ield         | OpenFOAM: The Open Source CFD Toolbox
   \\    /   O peration     | Website:  https://openfoam.org
    \\  /    A nd           | Version:  7
     \\/     M anipulation  |
\*---------------------------------------------------------------------------*/
FoamFile
{
    version     2.0;
    format      ascii;
    class       volScalarField;
    location    "63";
    object      p;
}
// * * * * * * * * * * * * * * * * * * * * * * * * * * * * * * * * * * * * * //

dimensions      [0 2 -2 0 0 0 0];

internalField   nonuniform List<scalar> 
40000
(
-0.228656
-0.229528
-0.230184
-0.230722
-0.231207
-0.231641
-0.23203
-0.232383
-0.232708
-0.233011
-0.233298
-0.233573
-0.233837
-0.234093
-0.234339
-0.234576
-0.234801
-0.235012
-0.235205
-0.235378
-0.235529
-0.235654
-0.235751
-0.235821
-0.235863
-0.23588
-0.235876
-0.235854
-0.235818
-0.235786
-0.228668
-0.22953
-0.230179
-0.230711
-0.23119
-0.231619
-0.232003
-0.232351
-0.23267
-0.232968
-0.23325
-0.233518
-0.233777
-0.234026
-0.234266
-0.234495
-0.234713
-0.234916
-0.235102
-0.235268
-0.235411
-0.235528
-0.235618
-0.235681
-0.235717
-0.23573
-0.235722
-0.235701
-0.235666
-0.235643
-0.228781
-0.229628
-0.230265
-0.230788
-0.231258
-0.231679
-0.232055
-0.232395
-0.232707
-0.232998
-0.233271
-0.233532
-0.233782
-0.234023
-0.234254
-0.234475
-0.234684
-0.234878
-0.235055
-0.23521
-0.235343
-0.23545
-0.23553
-0.235582
-0.235608
-0.235611
-0.235597
-0.23557
-0.23553
-0.235512
-0.228994
-0.229819
-0.230441
-0.230951
-0.231409
-0.231819
-0.232185
-0.232515
-0.232817
-0.233098
-0.233361
-0.233612
-0.233852
-0.234083
-0.234304
-0.234514
-0.234712
-0.234895
-0.235059
-0.235203
-0.235323
-0.235417
-0.235483
-0.235522
-0.235533
-0.235522
-0.235496
-0.235459
-0.235406
-0.235389
-0.229302
-0.2301
-0.230703
-0.231197
-0.231641
-0.232037
-0.232389
-0.232707
-0.232997
-0.233266
-0.233517
-0.233756
-0.233984
-0.234203
-0.234411
-0.234609
-0.234794
-0.234963
-0.235114
-0.235244
-0.235349
-0.235427
-0.235476
-0.235496
-0.235489
-0.235459
-0.235415
-0.235363
-0.235291
-0.235267
-0.229701
-0.230468
-0.231048
-0.231523
-0.231949
-0.232329
-0.232666
-0.232969
-0.233245
-0.233499
-0.233736
-0.233961
-0.234175
-0.234379
-0.234573
-0.234756
-0.234926
-0.235081
-0.235216
-0.235329
-0.235416
-0.235475
-0.235504
-0.235503
-0.235472
-0.235418
-0.23535
-0.235277
-0.235177
-0.235139
-0.230186
-0.230918
-0.231471
-0.231925
-0.232331
-0.232692
-0.233011
-0.233297
-0.233556
-0.233793
-0.234015
-0.234223
-0.23442
-0.234608
-0.234786
-0.234952
-0.235105
-0.235242
-0.23536
-0.235454
-0.235521
-0.235558
-0.235564
-0.235536
-0.235478
-0.235393
-0.235296
-0.235195
-0.235059
-0.234997
-0.230752
-0.231445
-0.231969
-0.232398
-0.232782
-0.233122
-0.233421
-0.233687
-0.233927
-0.234145
-0.234348
-0.234537
-0.234716
-0.234885
-0.235044
-0.235192
-0.235326
-0.235444
-0.235541
-0.235614
-0.235659
-0.235672
-0.23565
-0.235593
-0.235501
-0.23538
-0.235246
-0.235112
-0.23493
-0.234829
-0.231392
-0.232044
-0.232536
-0.232939
-0.233298
-0.233614
-0.233891
-0.234135
-0.234353
-0.234551
-0.234732
-0.2349
-0.235058
-0.235206
-0.235344
-0.235471
-0.235584
-0.23568
-0.235755
-0.235804
-0.235824
-0.23581
-0.235758
-0.235667
-0.235538
-0.235375
-0.235196
-0.23502
-0.234785
-0.234622
-0.232101
-0.232708
-0.233167
-0.233542
-0.233874
-0.234164
-0.234416
-0.234636
-0.23483
-0.235004
-0.235162
-0.235306
-0.235441
-0.235565
-0.23568
-0.235783
-0.235872
-0.235945
-0.235995
-0.236019
-0.236012
-0.235968
-0.235883
-0.235755
-0.235583
-0.235371
-0.235139
-0.234914
-0.234618
-0.234355
-0.232871
-0.233433
-0.233857
-0.234202
-0.234505
-0.234768
-0.234993
-0.235186
-0.235354
-0.235501
-0.235632
-0.235751
-0.235859
-0.235957
-0.236046
-0.236123
-0.236187
-0.236233
-0.236257
-0.236253
-0.236216
-0.23614
-0.23602
-0.235851
-0.235632
-0.235365
-0.235071
-0.234788
-0.234429
-0.233987
-0.233698
-0.234213
-0.234601
-0.234915
-0.235188
-0.235421
-0.235617
-0.235781
-0.23592
-0.236038
-0.236139
-0.236229
-0.236307
-0.236377
-0.236436
-0.236485
-0.23652
-0.236538
-0.236533
-0.2365
-0.236432
-0.236322
-0.236164
-0.235951
-0.235681
-0.235353
-0.234988
-0.234638
-0.234227
-0.233465
-0.234574
-0.235043
-0.235395
-0.235676
-0.235917
-0.236119
-0.236283
-0.236416
-0.236522
-0.236608
-0.236678
-0.236734
-0.236781
-0.236818
-0.236846
-0.236863
-0.236867
-0.236854
-0.236818
-0.236754
-0.236653
-0.236507
-0.236309
-0.23605
-0.235726
-0.235333
-0.234888
-0.234459
-0.234007
-0.232937
-0.235495
-0.235918
-0.236233
-0.236481
-0.236689
-0.236857
-0.236988
-0.237086
-0.237158
-0.237209
-0.237243
-0.237264
-0.237274
-0.237276
-0.237269
-0.237252
-0.237222
-0.237175
-0.237106
-0.237008
-0.236872
-0.23669
-0.236451
-0.236145
-0.235764
-0.235302
-0.234773
-0.234243
-0.233613
-0.232529
-0.236456
-0.236835
-0.237113
-0.237327
-0.237501
-0.237634
-0.237728
-0.23779
-0.237824
-0.237836
-0.237831
-0.237812
-0.237783
-0.237746
-0.2377
-0.237645
-0.237578
-0.237495
-0.23739
-0.237257
-0.237085
-0.236864
-0.236584
-0.23623
-0.235792
-0.235258
-0.234639
-0.234001
-0.233198
-0.231973
-0.237454
-0.23779
-0.238032
-0.238211
-0.238349
-0.238446
-0.238502
-0.238524
-0.238517
-0.238486
-0.238438
-0.238376
-0.238303
-0.238223
-0.238135
-0.238038
-0.237931
-0.237808
-0.237665
-0.237494
-0.237284
-0.237025
-0.236702
-0.236301
-0.235805
-0.235198
-0.234486
-0.233733
-0.232762
-0.231262
-0.238486
-0.238781
-0.238987
-0.239132
-0.239234
-0.239291
-0.239306
-0.239285
-0.239234
-0.239157
-0.239061
-0.238952
-0.238831
-0.238703
-0.238568
-0.238426
-0.238275
-0.23811
-0.237925
-0.237714
-0.237464
-0.237165
-0.2368
-0.236351
-0.235799
-0.23512
-0.234311
-0.233438
-0.232297
-0.230407
-0.239551
-0.239808
-0.239979
-0.240089
-0.240153
-0.240169
-0.240141
-0.240073
-0.239973
-0.239846
-0.239699
-0.239537
-0.239364
-0.239184
-0.238998
-0.238806
-0.238606
-0.238395
-0.238166
-0.237911
-0.23762
-0.237279
-0.236871
-0.236376
-0.235768
-0.235019
-0.234114
-0.233115
-0.23181
-0.229407
-0.240649
-0.24087
-0.241009
-0.241083
-0.241107
-0.24108
-0.241005
-0.240888
-0.240735
-0.240554
-0.24035
-0.240131
-0.239901
-0.239664
-0.239422
-0.239175
-0.238923
-0.238661
-0.238384
-0.238083
-0.237748
-0.237363
-0.236911
-0.236368
-0.235707
-0.234891
-0.23389
-0.232763
-0.231313
-0.228262
-0.241782
-0.241971
-0.242076
-0.242115
-0.242098
-0.242025
-0.2419
-0.24173
-0.24152
-0.24128
-0.241015
-0.240734
-0.240441
-0.240142
-0.239839
-0.239533
-0.239223
-0.238906
-0.238576
-0.238226
-0.237843
-0.237412
-0.236914
-0.236323
-0.235608
-0.234727
-0.233634
-0.232375
-0.230816
-0.22698
-0.242954
-0.243113
-0.243186
-0.243188
-0.243128
-0.243007
-0.242829
-0.242601
-0.24233
-0.242025
-0.241694
-0.241345
-0.240985
-0.240618
-0.240249
-0.239879
-0.239507
-0.23913
-0.238744
-0.23834
-0.237905
-0.237425
-0.236877
-0.236236
-0.235466
-0.23452
-0.233339
-0.231943
-0.230326
-0.225579
-0.24417
-0.244301
-0.244343
-0.244306
-0.244201
-0.244029
-0.243794
-0.243504
-0.243167
-0.242793
-0.24239
-0.241969
-0.241536
-0.241096
-0.240656
-0.240216
-0.239777
-0.239336
-0.238889
-0.238426
-0.237936
-0.237402
-0.236801
-0.236105
-0.235276
-0.234265
-0.232998
-0.231454
-0.229846
-0.224091
-0.245439
-0.245543
-0.245553
-0.245476
-0.245324
-0.245097
-0.2448
-0.244443
-0.244035
-0.243587
-0.243108
-0.242608
-0.242097
-0.24158
-0.241062
-0.240548
-0.240037
-0.239528
-0.239014
-0.238489
-0.237938
-0.237346
-0.236688
-0.235932
-0.23504
-0.233958
-0.232606
-0.230899
-0.229363
-0.222563
-0.246768
-0.246847
-0.246823
-0.246705
-0.246501
-0.246215
-0.245854
-0.245425
-0.244941
-0.244413
-0.243852
-0.243269
-0.242674
-0.242074
-0.241475
-0.240882
-0.240294
-0.239711
-0.239128
-0.238535
-0.23792
-0.237264
-0.236542
-0.235722
-0.234759
-0.2336
-0.232162
-0.230277
-0.228857
-0.22106
-0.248169
-0.248222
-0.248163
-0.248
-0.247742
-0.247393
-0.246961
-0.246456
-0.245891
-0.245278
-0.244629
-0.243958
-0.243274
-0.242586
-0.241902
-0.241225
-0.240556
-0.239896
-0.239238
-0.238573
-0.237888
-0.237164
-0.236373
-0.23548
-0.23444
-0.233195
-0.231667
-0.229598
-0.228298
-0.219665
-0.249655
-0.24968
-0.249583
-0.249372
-0.249055
-0.248638
-0.24813
-0.247544
-0.246892
-0.246189
-0.245448
-0.244683
-0.243906
-0.243126
-0.242351
-0.241586
-0.240834
-0.240091
-0.239355
-0.238614
-0.237854
-0.237055
-0.236189
-0.235217
-0.23409
-0.232751
-0.231124
-0.228884
-0.227646
-0.218474
-0.251239
-0.251233
-0.251095
-0.25083
-0.25045
-0.24996
-0.249371
-0.248698
-0.247954
-0.247155
-0.246317
-0.245454
-0.244579
-0.243703
-0.242834
-0.241978
-0.241137
-0.240309
-0.23949
-0.238668
-0.237829
-0.236949
-0.236
-0.23494
-0.233719
-0.232277
-0.23053
-0.228158
-0.226828
-0.217528
-0.252937
-0.252896
-0.252711
-0.252388
-0.251938
-0.251369
-0.250694
-0.249927
-0.249086
-0.248187
-0.247247
-0.246282
-0.245305
-0.244329
-0.243363
-0.242412
-0.241479
-0.240562
-0.239656
-0.238748
-0.237823
-0.236855
-0.235814
-0.234658
-0.233334
-0.231784
-0.2299
-0.227457
-0.22572
-0.21671
-0.254766
-0.254682
-0.254444
-0.254057
-0.253532
-0.252877
-0.252109
-0.251244
-0.2503
-0.249295
-0.248249
-0.247177
-0.246096
-0.245016
-0.243949
-0.2429
-0.241872
-0.240862
-0.239864
-0.238864
-0.237844
-0.236779
-0.235635
-0.234372
-0.232937
-0.231285
-0.229277
-0.226887
-0.22435
-0.216226
-0.256741
-0.256606
-0.256309
-0.255851
-0.255243
-0.254496
-0.253629
-0.252659
-0.251607
-0.250492
-0.249335
-0.248153
-0.246963
-0.245777
-0.244606
-0.243456
-0.242329
-0.241221
-0.240125
-0.239024
-0.2379
-0.236724
-0.235463
-0.234078
-0.232521
-0.230767
-0.228678
-0.226516
-0.223264
-0.218294
-0.25888
-0.258686
-0.25832
-0.257783
-0.257084
-0.256238
-0.255265
-0.254184
-0.253018
-0.251789
-0.250517
-0.249221
-0.247919
-0.246624
-0.245347
-0.244092
-0.242861
-0.241649
-0.240446
-0.239235
-0.237993
-0.236689
-0.235291
-0.233761
-0.23206
-0.230182
-0.228021
-0.226063
-0.222982
-0.225617
-0.261201
-0.260935
-0.260492
-0.259867
-0.259069
-0.258116
-0.25703
-0.255832
-0.254547
-0.253198
-0.251807
-0.250395
-0.248978
-0.24757
-0.246182
-0.244819
-0.243478
-0.242154
-0.240834
-0.239498
-0.238119
-0.236667
-0.235105
-0.233401
-0.231522
-0.229475
-0.2272
-0.22517
-0.222328
-0.22415
-0.263721
-0.26337
-0.262839
-0.262117
-0.261211
-0.260143
-0.258937
-0.257616
-0.256206
-0.254733
-0.253219
-0.251686
-0.250151
-0.248628
-0.247126
-0.245647
-0.244189
-0.242743
-0.241292
-0.239812
-0.238274
-0.236645
-0.234889
-0.232973
-0.230874
-0.228602
-0.226127
-0.223818
-0.220857
-0.22103
-0.266456
-0.266007
-0.265376
-0.264546
-0.263524
-0.262332
-0.260998
-0.259548
-0.258008
-0.256406
-0.254766
-0.253109
-0.251452
-0.249809
-0.248186
-0.246585
-0.245
-0.243418
-0.241817
-0.240171
-0.238447
-0.236609
-0.234621
-0.232455
-0.230089
-0.227539
-0.224785
-0.222093
-0.21884
-0.217627
-0.269422
-0.268859
-0.268116
-0.267169
-0.26602
-0.264696
-0.263227
-0.261641
-0.259966
-0.258231
-0.25646
-0.254675
-0.252892
-0.251123
-0.249374
-0.24764
-0.245914
-0.244178
-0.242405
-0.240566
-0.238623
-0.23654
-0.234282
-0.231825
-0.229152
-0.226278
-0.223192
-0.22008
-0.216481
-0.214134
-0.272635
-0.271942
-0.271074
-0.269999
-0.268713
-0.267248
-0.265636
-0.263908
-0.262093
-0.26022
-0.258314
-0.256397
-0.254483
-0.252581
-0.250694
-0.248816
-0.246932
-0.245019
-0.243047
-0.240982
-0.238784
-0.236418
-0.233853
-0.231067
-0.228052
-0.224824
-0.22138
-0.217853
-0.213903
-0.210734
-0.276108
-0.275268
-0.274263
-0.273048
-0.271616
-0.270001
-0.268239
-0.266362
-0.264401
-0.262386
-0.26034
-0.258285
-0.256233
-0.25419
-0.252153
-0.250113
-0.248049
-0.245932
-0.243729
-0.241402
-0.238911
-0.236224
-0.233314
-0.230168
-0.226786
-0.223188
-0.21938
-0.215465
-0.21119
-0.207427
-0.279855
-0.278851
-0.277694
-0.276328
-0.27474
-0.272967
-0.271048
-0.269016
-0.266904
-0.264741
-0.262551
-0.260351
-0.258151
-0.255954
-0.253752
-0.251528
-0.249257
-0.246905
-0.244434
-0.241806
-0.238983
-0.235938
-0.232652
-0.229121
-0.225357
-0.221385
-0.217219
-0.21295
-0.208385
-0.204199
-0.283886
-0.282701
-0.281379
-0.279851
-0.278097
-0.276158
-0.274075
-0.271882
-0.269614
-0.267298
-0.264955
-0.262602
-0.260244
-0.257877
-0.255489
-0.253055
-0.250544
-0.24792
-0.245141
-0.242171
-0.238978
-0.235541
-0.231853
-0.227922
-0.223769
-0.219428
-0.214921
-0.210332
-0.205509
-0.201014
-0.288213
-0.286828
-0.285328
-0.283628
-0.281698
-0.279585
-0.277331
-0.274973
-0.272542
-0.270066
-0.267564
-0.265046
-0.262514
-0.259958
-0.257356
-0.254681
-0.251894
-0.248957
-0.245828
-0.242476
-0.238876
-0.235019
-0.23091
-0.226569
-0.222028
-0.217329
-0.212499
-0.207621
-0.202569
-0.197837
-0.292842
-0.29124
-0.28955
-0.287667
-0.285554
-0.283259
-0.280829
-0.278298
-0.275698
-0.273055
-0.270382
-0.267686
-0.264961
-0.26219
-0.259344
-0.25639
-0.253285
-0.249991
-0.246469
-0.242696
-0.238658
-0.234358
-0.229815
-0.225063
-0.220141
-0.215097
-0.209966
-0.204823
-0.199564
-0.194637
-0.29778
-0.295944
-0.294051
-0.291977
-0.289672
-0.287189
-0.284576
-0.281867
-0.279091
-0.276271
-0.273414
-0.270522
-0.267579
-0.264562
-0.261436
-0.25816
-0.254692
-0.250995
-0.247039
-0.242808
-0.238305
-0.233547
-0.228565
-0.223404
-0.218112
-0.21274
-0.207325
-0.201938
-0.196488
-0.191388
-0.30303
-0.300945
-0.298837
-0.296563
-0.29406
-0.291383
-0.288581
-0.285687
-0.282727
-0.279717
-0.276661
-0.273548
-0.270359
-0.267059
-0.263609
-0.259965
-0.256086
-0.251941
-0.24751
-0.242792
-0.237803
-0.232576
-0.227156
-0.221595
-0.215946
-0.210261
-0.204579
-0.198962
-0.193333
-0.188072
-0.308593
-0.306242
-0.30391
-0.301429
-0.298721
-0.295844
-0.292848
-0.289762
-0.286607
-0.283393
-0.280115
-0.276755
-0.273283
-0.269658
-0.265836
-0.261774
-0.257436
-0.252798
-0.247857
-0.242626
-0.237138
-0.231439
-0.225585
-0.219635
-0.213643
-0.207661
-0.201726
-0.195891
-0.190091
-0.184674
-0.314466
-0.311835
-0.30927
-0.306574
-0.303657
-0.300576
-0.297379
-0.294092
-0.290729
-0.287292
-0.283766
-0.280125
-0.276328
-0.27233
-0.268086
-0.263554
-0.258707
-0.253538
-0.248056
-0.242293
-0.236298
-0.23013
-0.22385
-0.217523
-0.211203
-0.204937
-0.198761
-0.192719
-0.186753
-0.181181
-0.320642
-0.317718
-0.314911
-0.311997
-0.308866
-0.305576
-0.302172
-0.298674
-0.295086
-0.291402
-0.287597
-0.283633
-0.279465
-0.275042
-0.27032
-0.265266
-0.259867
-0.254129
-0.248083
-0.241777
-0.235273
-0.22864
-0.221947
-0.215257
-0.208622
-0.202086
-0.19568
-0.189437
-0.183311
-0.177583
-0.327109
-0.32388
-0.320826
-0.317691
-0.314342
-0.310839
-0.307219
-0.303496
-0.299664
-0.295705
-0.291582
-0.28725
-0.282657
-0.277753
-0.272499
-0.266873
-0.26088
-0.254544
-0.247916
-0.24106
-0.234051
-0.226965
-0.219871
-0.212832
-0.205897
-0.199102
-0.192474
-0.186038
-0.179756
-0.173873
-0.333849
-0.330307
-0.327001
-0.323642
-0.320074
-0.316351
-0.312507
-0.308542
-0.304441
-0.300172
-0.295689
-0.290938
-0.285863
-0.28042
-0.274579
-0.268335
-0.261712
-0.254756
-0.247536
-0.24013
-0.232624
-0.225096
-0.217616
-0.210243
-0.203019
-0.195976
-0.189135
-0.182513
-0.176079
-0.170042
-0.340841
-0.336978
-0.333419
-0.329834
-0.326044
-0.322096
-0.318015
-0.313789
-0.309389
-0.304771
-0.299878
-0.294651
-0.289036
-0.282995
-0.276515
-0.269612
-0.26233
-0.254738
-0.246922
-0.238972
-0.230979
-0.223024
-0.215174
-0.20748
-0.19998
-0.192699
-0.185653
-0.178851
-0.172271
-0.166082
-0.348055
-0.343867
-0.340053
-0.336244
-0.33223
-0.32805
-0.323717
-0.319205
-0.314472
-0.309458
-0.304101
-0.298338
-0.292122
-0.285428
-0.278262
-0.270665
-0.262703
-0.254467
-0.246056
-0.237572
-0.229107
-0.220741
-0.212534
-0.204534
-0.19677
-0.189261
-0.182018
-0.175044
-0.168323
-0.161986
-0.355455
-0.350941
-0.346874
-0.342842
-0.3386
-0.334179
-0.329577
-0.324751
-0.319643
-0.314184
-0.308304
-0.301944
-0.295067
-0.287667
-0.279775
-0.271455
-0.2628
-0.253917
-0.24492
-0.235915
-0.226995
-0.218234
-0.209687
-0.201394
-0.193378
-0.185652
-0.17822
-0.171081
-0.164226
-0.157745
-0.362998
-0.358159
-0.353843
-0.349589
-0.345118
-0.340445
-0.335551
-0.330377
-0.32485
-0.31889
-0.312427
-0.305408
-0.297813
-0.28966
-0.281007
-0.271946
-0.262591
-0.253067
-0.243497
-0.233988
-0.224629
-0.215491
-0.20662
-0.198048
-0.189792
-0.181859
-0.174248
-0.166953
-0.15997
-0.153353
-0.370634
-0.365476
-0.360915
-0.356443
-0.351738
-0.346799
-0.341588
-0.336029
-0.330032
-0.323514
-0.316405
-0.308667
-0.300301
-0.291355
-0.281915
-0.272102
-0.262049
-0.251895
-0.241767
-0.231773
-0.221997
-0.212499
-0.20332
-0.194484
-0.186
-0.17787
-0.17009
-0.162649
-0.155547
-0.148801
-0.378305
-0.372835
-0.368038
-0.36335
-0.358407
-0.353185
-0.347629
-0.341641
-0.335121
-0.327984
-0.320167
-0.311654
-0.302472
-0.2927
-0.282458
-0.271889
-0.261147
-0.250379
-0.239714
-0.229256
-0.219081
-0.209243
-0.199773
-0.190686
-0.181988
-0.173674
-0.165736
-0.15816
-0.150948
-0.144083
-0.385946
-0.380176
-0.375152
-0.370252
-0.365063
-0.359539
-0.353604
-0.347142
-0.340044
-0.332226
-0.323644
-0.314303
-0.304267
-0.293647
-0.282594
-0.271274
-0.259858
-0.248497
-0.237318
-0.226418
-0.215867
-0.205708
-0.195964
-0.186643
-0.177744
-0.169259
-0.161175
-0.153476
-0.146163
-0.139191
-0.393485
-0.38743
-0.382189
-0.377079
-0.371637
-0.36579
-0.359439
-0.352453
-0.344719
-0.336163
-0.32676
-0.316549
-0.305628
-0.294147
-0.282284
-0.270228
-0.258158
-0.246227
-0.23456
-0.223244
-0.212339
-0.201879
-0.191878
-0.182339
-0.173255
-0.164613
-0.156396
-0.148587
-0.141185
-0.134117
-0.400843
-0.394522
-0.389077
-0.383759
-0.378053
-0.371857
-0.365051
-0.357492
-0.349066
-0.339714
-0.329442
-0.318325
-0.306502
-0.294155
-0.281493
-0.26872
-0.256021
-0.24355
-0.231421
-0.219715
-0.208479
-0.197739
-0.187501
-0.177762
-0.168509
-0.159725
-0.151389
-0.143486
-0.136006
-0.128857
-0.407936
-0.40137
-0.395733
-0.39021
-0.384227
-0.377656
-0.370354
-0.36217
-0.352997
-0.3428
-0.331619
-0.31957
-0.306834
-0.293629
-0.280185
-0.266721
-0.253424
-0.240443
-0.227883
-0.215813
-0.204271
-0.193273
-0.182819
-0.172897
-0.163492
-0.154583
-0.146145
-0.138162
-0.130618
-0.123404
-0.414674
-0.407887
-0.402072
-0.396345
-0.390072
-0.383096
-0.375256
-0.366397
-0.356427
-0.345341
-0.333219
-0.320223
-0.306576
-0.292527
-0.278327
-0.264204
-0.250344
-0.236886
-0.223926
-0.21152
-0.199698
-0.188466
-0.177815
-0.167732
-0.158194
-0.149176
-0.140654
-0.132608
-0.125014
-0.117754
-0.420962
-0.413981
-0.408003
-0.402071
-0.395494
-0.388082
-0.379662
-0.370081
-0.359269
-0.347258
-0.334174
-0.320227
-0.30568
-0.290812
-0.27589
-0.261145
-0.246757
-0.232858
-0.219531
-0.20682
-0.194744
-0.183302
-0.172478
-0.162253
-0.152602
-0.143496
-0.134908
-0.126817
-0.119189
-0.111903
-0.426702
-0.419556
-0.41343
-0.407293
-0.400394
-0.392517
-0.383477
-0.373131
-0.361439
-0.348475
-0.33442
-0.319529
-0.304103
-0.288448
-0.272843
-0.257517
-0.242643
-0.228341
-0.21468
-0.201695
-0.189394
-0.177767
-0.166794
-0.15645
-0.146707
-0.137532
-0.128897
-0.120781
-0.113136
-0.105846
-0.431795
-0.424514
-0.418255
-0.411911
-0.404675
-0.396301
-0.386603
-0.375455
-0.362853
-0.348923
-0.333896
-0.318079
-0.301806
-0.285405
-0.26916
-0.253297
-0.237981
-0.223314
-0.209357
-0.19613
-0.183632
-0.171848
-0.160751
-0.150311
-0.140498
-0.131276
-0.122614
-0.114492
-0.106849
-0.0995765
-0.436137
-0.428754
-0.422378
-0.415826
-0.408234
-0.399337
-0.388948
-0.376966
-0.363434
-0.348532
-0.332548
-0.315832
-0.298752
-0.281651
-0.264816
-0.248466
-0.23275
-0.217762
-0.203544
-0.190109
-0.177446
-0.165532
-0.154337
-0.143827
-0.133966
-0.124719
-0.116053
-0.107945
-0.100323
-0.0930907
-0.439629
-0.432178
-0.425699
-0.418937
-0.410974
-0.401527
-0.390418
-0.377581
-0.36311
-0.347243
-0.330324
-0.312748
-0.294909
-0.277161
-0.259789
-0.243001
-0.226935
-0.211666
-0.197227
-0.183619
-0.170823
-0.158809
-0.147543
-0.136988
-0.127105
-0.117856
-0.109207
-0.101134
-0.0935533
-0.0863855
-0.442171
-0.434685
-0.428119
-0.421144
-0.412795
-0.402776
-0.390926
-0.377221
-0.361812
-0.344999
-0.32718
-0.308791
-0.290248
-0.27191
-0.254058
-0.236887
-0.220518
-0.205014
-0.190394
-0.176648
-0.163752
-0.151669
-0.140361
-0.129787
-0.119906
-0.110678
-0.102069
-0.0940533
-0.086537
-0.0794611
-0.443666
-0.436179
-0.429541
-0.422352
-0.413605
-0.402996
-0.390391
-0.375814
-0.359479
-0.341749
-0.323076
-0.303929
-0.284743
-0.265879
-0.247606
-0.230107
-0.213486
-0.197792
-0.183032
-0.169186
-0.156224
-0.144104
-0.132783
-0.122217
-0.112364
-0.103181
-0.094632
-0.0866945
-0.0792688
-0.0723133
-0.44402
-0.436568
-0.429873
-0.422468
-0.413313
-0.402102
-0.388736
-0.373295
-0.356058
-0.337452
-0.317978
-0.298137
-0.278375
-0.259049
-0.240418
-0.222648
-0.205827
-0.18999
-0.175131
-0.161225
-0.148232
-0.136108
-0.124804
-0.114275
-0.104475
-0.095359
-0.0868898
-0.0790463
-0.0717315
-0.0649098
-0.443147
-0.435764
-0.429026
-0.421406
-0.411835
-0.400018
-0.385894
-0.369605
-0.351501
-0.33207
-0.311858
-0.291392
-0.271125
-0.251407
-0.232482
-0.214499
-0.197531
-0.181598
-0.166686
-0.152758
-0.139772
-0.127676
-0.116422
-0.105958
-0.0962382
-0.0872126
-0.0788413
-0.0711059
-0.0639024
-0.0571671
-0.440965
-0.433684
-0.426918
-0.419085
-0.409097
-0.396674
-0.381804
-0.364696
-0.345769
-0.325573
-0.304694
-0.283678
-0.262981
-0.242942
-0.223789
-0.205653
-0.188592
-0.172612
-0.15769
-0.143782
-0.130839
-0.118808
-0.107635
-0.0972671
-0.0876547
-0.0787446
-0.070496
-0.0628948
-0.0557989
-0.0490031
-0.437401
-0.430254
-0.423475
-0.415433
-0.40503
-0.39201
-0.376414
-0.358525
-0.338832
-0.31794
-0.29647
-0.274984
-0.253933
-0.233646
-0.214333
-0.196105
-0.179005
-0.163028
-0.148141
-0.134295
-0.121434
-0.109503
-0.0984435
-0.0882026
-0.0787261
-0.0699583
-0.0618644
-0.0544346
-0.0474846
-0.0405634
-0.43239
-0.425408
-0.418631
-0.410386
-0.399575
-0.385973
-0.369684
-0.351062
-0.330666
-0.309153
-0.287175
-0.265302
-0.243979
-0.223518
-0.204111
-0.185852
-0.168769
-0.152845
-0.138039
-0.124297
-0.111558
-0.099762
-0.0888511
-0.0787682
-0.0694561
-0.0608577
-0.0529513
-0.0456987
-0.0388213
-0.032216
-0.425875
-0.419089
-0.412329
-0.40389
-0.392684
-0.378524
-0.36158
-0.342282
-0.321255
-0.299204
-0.276804
-0.25463
-0.233116
-0.212557
-0.193124
-0.174896
-0.157886
-0.142066
-0.127388
-0.113791
-0.101213
-0.0895907
-0.0788621
-0.0689692
-0.0598527
-0.0514563
-0.0437546
-0.0366952
-0.0299629
-0.0237034
-0.417812
-0.411249
-0.404522
-0.3959
-0.384317
-0.36963
-0.35208
-0.332171
-0.310592
-0.28809
-0.26536
-0.242972
-0.22135
-0.200768
-0.181378
-0.163242
-0.14636
-0.130695
-0.116191
-0.102784
-0.0904068
-0.0789955
-0.0684839
-0.0588127
-0.0499215
-0.0417545
-0.034284
-0.0274444
-0.0209077
-0.0149737
-0.408163
-0.401852
-0.395173
-0.386384
-0.374446
-0.359271
-0.34117
-0.320723
-0.298678
-0.275817
-0.252848
-0.230336
-0.208688
-0.188158
-0.16888
-0.150897
-0.134199
-0.11874
-0.104457
-0.0912844
-0.0791485
-0.0679836
-0.0577239
-0.048307
-0.0396713
-0.0317609
-0.0245484
-0.0179568
-0.0116442
-0.00602556
-0.396905
-0.39087
-0.384257
-0.375317
-0.363055
-0.347437
-0.328848
-0.307942
-0.28552
-0.262396
-0.239282
-0.216735
-0.195144
-0.174741
-0.155641
-0.137873
-0.121415
-0.106212
-0.0921983
-0.0793009
-0.0674468
-0.0565664
-0.0465928
-0.0374623
-0.0291118
-0.0214855
-0.0145572
-0.00823898
-0.00216989
0.00312839
-0.384024
-0.378289
-0.371759
-0.36269
-0.350136
-0.334126
-0.31512
-0.293839
-0.271135
-0.247843
-0.224679
-0.202187
-0.180734
-0.160532
-0.141677
-0.124185
-0.108021
-0.0931256
-0.0794263
-0.0668478
-0.0553151
-0.0447562
-0.0351032
-0.0262908
-0.0182548
-0.0109397
-0.00432131
0.00170091
0.00750925
0.0124754
-0.369517
-0.364105
-0.357676
-0.348501
-0.335695
-0.31935
-0.300001
-0.278434
-0.255544
-0.232183
-0.209064
-0.186715
-0.16548
-0.145552
-0.127008
-0.10985
-0.0940349
-0.0794961
-0.0661574
-0.0539405
-0.0427685
-0.0325679
-0.0232693
-0.0148065
-0.00711382
-0.00013682
0.00614708
0.0118521
0.0173827
0.0220022
-0.353394
-0.348324
-0.342015
-0.332761
-0.319746
-0.303129
-0.283516
-0.261755
-0.238777
-0.215446
-0.192465
-0.170345
-0.149408
-0.129825
-0.111655
-0.0948899
-0.0794765
-0.0653433
-0.0524104
-0.040597
-0.0298245
-0.0200182
-0.0111075
-0.00302504
0.00429567
0.0109083
0.0168337
0.0222011
0.0274366
0.0316946
-0.335675
-0.330966
-0.324795
-0.315493
-0.302315
-0.285491
-0.265698
-0.243837
-0.220871
-0.197667
-0.174917
-0.15311
-0.132547
-0.113378
-0.0956456
-0.0793292
-0.0643694
-0.0506894
-0.0382064
-0.0268374
-0.0165025
-0.0071258
0.00136424
0.00903589
0.0159566
0.0221789
0.0277225
0.0327321
0.0376547
0.0415368
-0.31639
-0.312058
-0.306046
-0.296727
-0.283438
-0.266477
-0.246588
-0.224724
-0.20187
-0.178888
-0.156457
-0.135047
-0.114932
-0.0962428
-0.0790081
-0.0631958
-0.0487398
-0.0355593
-0.023569
-0.0126843
-0.00282397
0.00608874
0.014126
0.0213571
0.0278502
0.0336566
0.0387951
0.0434267
0.0480181
0.0515106
-0.295581
-0.291642
-0.285809
-0.276507
-0.26316
-0.246135
-0.226239
-0.204472
-0.181819
-0.159147
-0.137128
-0.116194
-0.0965996
-0.0784551
-0.061776
-0.0465205
-0.0326168
-0.0199806
-0.00852429
0.00183781
0.0111878
0.0196031
0.0271565
0.033918
0.0399563
0.0453213
0.0500316
0.0542648
0.0585052
0.061594
-0.2733
-0.269766
-0.264133
-0.254884
-0.241535
-0.224523
-0.204714
-0.183145
-0.160745
-0.138504
-0.11698
-0.0965982
-0.0775918
-0.0600535
-0.0439854
-0.0293372
-0.0160322
-0.00398296
0.00689959
0.0167022
0.0255076
0.0333935
0.040433
0.0466966
0.0522534
0.0571517
0.0614106
0.0652239
0.0690904
0.0717572
-0.249609
-0.246489
-0.241078
-0.23192
-0.218628
-0.201707
-0.182068
-0.160737
-0.138775
-0.117018
-0.0960648
-0.0763074
-0.0579541
-0.04108
-0.0256755
-0.0116827
0.000979582
0.0124011
0.0226723
0.0318806
0.0401087
0.0474346
0.0539315
0.0596701
0.0647193
0.0691258
0.0729096
0.0762798
0.0797435
0.0819642
-0.22458
-0.221881
-0.216714
-0.207686
-0.194513
-0.177752
-0.15834
-0.1374
-0.115926
-0.0947438
-0.0744386
-0.0553739
-0.0377347
-0.0215798
-0.00688858
0.0064036
0.0183816
0.0291372
0.0387616
0.0473425
0.0549628
0.0617001
0.0676274
0.0728151
0.0773315
0.0812212
0.0845059
0.0874069
0.0904326
0.0921844
-0.198291
-0.196017
-0.191116
-0.182262
-0.169258
-0.152715
-0.13366
-0.113177
-0.0922716
-0.0717467
-0.0521616
-0.0338534
-0.0169855
-0.00160105
0.0123306
0.0248798
0.0361347
0.0461886
0.0551332
0.0630562
0.0700402
0.0761623
0.0814949
0.0861079
0.0900677
0.0934163
0.0961776
0.0985832
0.101134
0.102394
-0.170815
-0.168987
-0.164371
-0.155723
-0.142939
-0.126719
-0.108085
-0.0881427
-0.0678867
-0.0480944
-0.0292966
-0.0118045
0.00423908
0.0188055
0.0319344
0.0437015
0.0541975
0.0635166
0.071751
0.0789881
0.0853099
0.0907928
0.095508
0.0995245
0.102905
0.105689
0.107905
0.109795
0.111829
0.112531
-0.142224
-0.140894
-0.136571
-0.12816
-0.115673
-0.0998359
-0.0817014
-0.0623796
-0.0428488
-0.0238584
-0.00590998
0.010711
0.0258815
0.0395862
0.0518731
0.0628223
0.0725265
0.0810808
0.0885775
0.0951034
0.10074
0.105562
0.10964
0.113041
0.115823
0.11802
0.119675
0.121032
0.122469
0.122434
-0.112599
-0.111873
-0.107809
-0.0996803
-0.0875453
-0.0721593
-0.0545992
-0.035973
-0.0172378
0.000886835
0.0179291
0.033629
0.0478821
0.0606855
0.0720947
0.0821934
0.0910763
0.0988389
0.105573
0.111365
0.116296
0.120439
0.123864
0.126634
0.1288
0.130395
0.131483
0.132276
0.132941
0.131933
-0.0821884
-0.0819228
-0.0781939
-0.0703891
-0.0586563
-0.0437872
-0.0268724
-0.0090113
0.00886366
0.0260642
0.0421491
0.0568827
0.0701787
0.0820455
0.092545
0.101764
0.1098
0.116747
0.122697
0.127736
0.131944
0.135393
0.138152
0.14028
0.141822
0.142817
0.143351
0.143538
0.143187
0.141076
-0.0510298
-0.0511966
-0.0478365
-0.0403923
-0.0291119
-0.0148215
0.0013824
0.0184144
0.0353702
0.0515943
0.0666759
0.0804035
0.0927073
0.103606
0.113168
0.121483
0.128648
0.134759
0.139906
0.144176
0.147646
0.150389
0.152472
0.153952
0.154871
0.155286
0.155303
0.15487
0.153428
0.150412
-0.0192115
-0.0198287
-0.0168503
-0.00980014
0.000979105
0.0146331
0.0300657
0.0462105
0.0621944
0.0773959
0.0914341
0.104121
0.115402
0.125307
0.133907
0.141297
0.147572
0.152829
0.157158
0.160644
0.163364
0.165391
0.166791
0.167618
0.167918
0.167772
0.167291
0.166219
0.163754
0.16202
0.0131412
0.0120643
0.0146485
0.0212727
0.031505
0.0444694
0.059076
0.0742818
0.0892473
0.103386
0.116346
0.127963
0.138196
0.147084
0.154704
0.161149
0.166519
0.170908
0.174406
0.177097
0.179059
0.180362
0.181072
0.181242
0.180924
0.180211
0.179182
0.177511
0.174712
0.17366
0.0459017
0.0443623
0.04654
0.0527085
0.0623518
0.0745785
0.0883103
0.102532
0.116439
0.12948
0.141334
0.151857
0.161022
0.168875
0.175498
0.180986
0.185438
0.188948
0.191606
0.193494
0.19469
0.195263
0.195278
0.194789
0.193852
0.19256
0.190961
0.18874
0.185664
0.18456
0.0789435
0.0769421
0.0787019
0.0843876
0.0934039
0.10485
0.117664
0.130862
0.143677
0.155594
0.166319
0.175728
0.183809
0.190615
0.196229
0.20075
0.204275
0.206899
0.20871
0.20979
0.210215
0.210054
0.209372
0.208222
0.206663
0.204784
0.202618
0.199886
0.196503
0.19507
0.112139
0.109678
0.11101
0.116189
0.124545
0.135173
0.147033
0.159175
0.170871
0.181641
0.19122
0.199503
0.206489
0.212238
0.216837
0.220385
0.222978
0.224712
0.225673
0.225941
0.225594
0.224698
0.223316
0.221504
0.219322
0.216851
0.214117
0.210877
0.207124
0.205259
0.145361
0.142444
0.143341
0.147991
0.155657
0.165436
0.176311
0.187372
0.197928
0.207537
0.215959
0.223107
0.228993
0.233681
0.237262
0.239833
0.241494
0.242336
0.242446
0.241904
0.240784
0.239154
0.237075
0.234602
0.231794
0.22873
0.22543
0.221675
0.217512
0.215168
0.178479
0.175113
0.175567
0.179671
0.186624
0.195527
0.205395
0.215355
0.224758
0.233195
0.240454
0.246465
0.25125
0.254877
0.257441
0.259039
0.259769
0.259722
0.258985
0.257635
0.255746
0.253384
0.250611
0.247479
0.244048
0.240391
0.236526
0.232253
0.227657
0.22481
0.211366
0.207558
0.207565
0.211109
0.217328
0.225336
0.234179
0.243026
0.251269
0.258532
0.264628
0.269504
0.273191
0.275763
0.277314
0.277944
0.277749
0.27682
0.275241
0.27309
0.270439
0.267352
0.263889
0.260103
0.256053
0.251808
0.247379
0.242587
0.237548
0.234184
0.243894
0.239652
0.239211
0.242183
0.247655
0.254753
0.262562
0.270289
0.27737
0.283462
0.288401
0.29215
0.294748
0.296274
0.296823
0.296494
0.295384
0.293582
0.291171
0.288227
0.284821
0.281018
0.276874
0.272442
0.267779
0.262951
0.257965
0.252657
0.247173