/*--------------------------------*- C++ -*----------------------------------*\
  =========                 |
  \\      /  F ield         | OpenFOAM: The Open Source CFD Toolbox
   \\    /   O peration     | Website:  https://openfoam.org
    \\  /    A nd           | Version:  7
     \\/     M anipulation  |
\*---------------------------------------------------------------------------*/
FoamFile
{
    version     2.0;
    format      ascii;
    class       surfaceScalarField;
    location    "63";
    object      phi;
}
// * * * * * * * * * * * * * * * * * * * * * * * * * * * * * * * * * * * * * //

dimensions      [0 3 -1 0 0 0 0];

internalField   nonuniform List<scalar> 
79480
(
-7.41025e-07
6.63608e-07
7.74167e-08
-2.85397e-06
2.02188e-06
9.10694e-08
-6.28805e-06
3.4652e-06
-3.11278e-08
-1.09905e-05
4.98918e-06
-2.86723e-07
-1.69062e-05
6.58645e-06
-6.70747e-07
-2.39781e-05
8.24854e-06
-1.17663e-06
-3.21477e-05
9.96638e-06
-1.79676e-06
-4.13556e-05
1.1731e-05
-2.52314e-06
-5.15416e-05
1.35343e-05
-3.34828e-06
-6.26457e-05
1.53702e-05
-4.26611e-06
-7.46081e-05
1.72352e-05
-5.27284e-06
-8.73698e-05
1.91296e-05
-6.36784e-06
-0.000100873
2.10575e-05
-7.55426e-06
-0.000115061
2.30278e-05
-8.8395e-06
-0.00012988
2.5054e-05
-1.02354e-05
-0.000145276
2.71543e-05
-1.17583e-05
-0.000161199
2.93516e-05
-1.34284e-05
-0.000177602
3.16727e-05
-1.52695e-05
-0.000194443
3.41489e-05
-1.73084e-05
-0.000211684
3.68154e-05
-1.9574e-05
-0.000229299
3.97116e-05
-2.20969e-05
-0.000247272
4.2882e-05
-2.49088e-05
-0.000265606
4.6377e-05
-2.80427e-05
-0.000284327
5.02535e-05
-3.15327e-05
-0.000303489
5.45763e-05
-3.54145e-05
-0.000323181
5.9418e-05
-3.97264e-05
-0.000343529
6.48583e-05
-4.45098e-05
-0.000364697
7.09774e-05
-4.98099e-05
-0.000386876
7.78564e-05
-5.56767e-05
8.56098e-05
-6.21731e-05
-0.000410313
-7.32424e-07
1.39603e-06
-2.82146e-06
4.11092e-06
-6.2173e-06
6.86104e-06
-1.0868e-05
9.63987e-06
-1.67191e-05
1.24375e-05
-2.3714e-05
1.52435e-05
-3.17946e-05
1.8047e-05
-4.09015e-05
2.08379e-05
-5.09748e-05
2.36075e-05
-6.1954e-05
2.63494e-05
-7.37789e-05
2.90602e-05
-8.63899e-05
3.17406e-05
-9.97283e-05
3.43959e-05
-0.000113736
3.70358e-05
-0.000128357
3.96752e-05
-0.000143537
4.2334e-05
-0.000159222
4.50368e-05
-0.000175363
4.78135e-05
-0.000191913
5.06988e-05
-0.000208831
5.37334e-05
-0.000226084
5.69651e-05
-0.000243652
6.04499e-05
-0.00026153
6.42545e-05
-0.000279734
6.84581e-05
-0.000298312
7.31537e-05
-0.000317342
7.84486e-05
-0.000336945
8.44609e-05
-0.000357276
9.13083e-05
-0.000378524
9.91046e-05
0.000108018
-0.000400932
-7.18655e-07
2.11469e-06
-2.7695e-06
6.16176e-06
-6.10438e-06
1.01959e-05
-1.06727e-05
1.42082e-05
-1.64212e-05
1.8186e-05
-2.3294e-05
2.21163e-05
-3.12338e-05
2.59867e-05
-4.01813e-05
2.97855e-05
-5.00766e-05
3.35028e-05
-6.08589e-05
3.71317e-05
-7.24676e-05
4.06688e-05
-8.48419e-05
4.41149e-05
-9.79216e-05
4.74756e-05
-0.000111647
5.07614e-05
-0.00012596
5.39879e-05
-0.000140802
5.71759e-05
-0.000156117
6.03515e-05
-0.000171849
6.35459e-05
-0.000187947
6.67969e-05
-0.000204363
7.01491e-05
-0.000221055
7.36569e-05
-0.000237991
7.73863e-05
-0.000255155
8.14189e-05
-0.000272552
8.58543e-05
-0.000290211
9.08132e-05
-0.0003082
9.64377e-05
-0.000326626
0.000102887
-0.000345636
0.000110319
-0.000365417
0.000118885
0.000128813
-0.000386212
-6.99992e-07
2.81468e-06
-2.69908e-06
8.16085e-06
-5.95136e-06
1.34482e-05
-1.04081e-05
1.8665e-05
-1.60175e-05
2.37954e-05
-2.2725e-05
2.88238e-05
-3.04739e-05
3.37355e-05
-3.92053e-05
3.85169e-05
-4.88594e-05
4.31568e-05
-5.93749e-05
4.76473e-05
-7.06904e-05
5.19843e-05
-8.27437e-05
5.61683e-05
-9.54728e-05
6.02048e-05
-0.000108816
6.41043e-05
-0.000122711
6.78828e-05
-0.000137096
7.15609e-05
-0.000151909
7.51649e-05
-0.00016709
7.87266e-05
-0.000182578
8.22848e-05
-0.000198315
8.58865e-05
-0.000214249
8.95904e-05
-0.000230332
9.34701e-05
-0.000246533
9.76193e-05
-0.000262835
0.000102156
-0.00027925
0.000107228
-0.000295824
0.000113012
-0.000312647
0.00011971
-0.000329859
0.00012753
-0.00034764
0.000136666
0.000147414
-0.000366241
-6.7679e-07
3.49147e-06
-2.61149e-06
1.00956e-05
-5.76094e-06
1.65976e-05
-1.00787e-05
2.29827e-05
-1.55147e-05
2.92314e-05
-2.20158e-05
3.53249e-05
-2.95261e-05
4.12458e-05
-3.79872e-05
4.69781e-05
-4.73392e-05
5.25088e-05
-5.75203e-05
5.78284e-05
-6.84678e-05
6.29317e-05
-8.01181e-05
6.78185e-05
-9.24067e-05
7.24934e-05
-0.000105269
7.69664e-05
-0.000118638
8.12523e-05
-0.000132449
8.53713e-05
-0.000146632
8.93483e-05
-0.00016112
9.32143e-05
-0.000175842
9.70069e-05
-0.000190729
0.000100773
-0.000205712
0.000104573
-0.000220727
0.000108485
-0.000235719
0.000112611
-0.000250648
0.000117086
-0.000265499
0.000122079
-0.000280292
0.000127805
-0.000295095
0.000134514
-0.000310034
0.000142468
-0.000325286
0.000151919
0.000163244
-0.000341116
-6.49486e-07
4.14095e-06
-2.5083e-06
1.19544e-05
-5.53638e-06
1.96257e-05
-9.68982e-06
2.71361e-05
-1.49206e-05
3.44621e-05
-2.11769e-05
4.15813e-05
-2.84038e-05
4.84727e-05
-3.65434e-05
5.51177e-05
-4.55352e-05
6.15007e-05
-5.5317e-05
6.76102e-05
-6.58245e-05
7.34393e-05
-7.69921e-05
7.89861e-05
-8.87526e-05
8.4254e-05
-0.000101037
8.92512e-05
-0.000113776
9.39911e-05
-0.000126897
9.84916e-05
-0.000140323
0.000102775
-0.000153979
0.00010687
-0.000167782
0.00011081
-0.000181648
0.00011464
-0.000195492
0.000118417
-0.000209228
0.000122221
-0.000222774
0.000126157
-0.00023606
0.000130371
-0.000249036
0.000135056
-0.000261691
0.000140459
-0.000274061
0.000146884
-0.000286255
0.000154663
-0.00029845
0.000164114
0.000175722
-0.000310928
-6.18582e-07
4.75954e-06
-2.39133e-06
1.37271e-05
-5.28151e-06
2.25159e-05
-9.24784e-06
3.11025e-05
-1.42443e-05
3.94586e-05
-2.02207e-05
4.75576e-05
-2.71227e-05
5.53747e-05
-3.48926e-05
6.28876e-05
-4.34697e-05
7.00777e-05
-5.27903e-05
7.69308e-05
-6.27887e-05
8.34377e-05
-7.33967e-05
8.95941e-05
-8.45439e-05
9.54011e-05
-9.61574e-05
0.000100865
-0.000108162
0.000105995
-0.000120478
0.000110808
-0.000133023
0.00011532
-0.000145708
0.000119555
-0.00015844
0.000123542
-0.000171119
0.000127319
-0.00018364
0.000130937
-0.00019589
0.000134471
-0.000207758
0.000138025
-0.000219137
0.000141751
-0.000229938
0.000145857
-0.000240104
0.000150624
-0.000249635
0.000156416
-0.000258616
0.000163644
-0.000267221
0.000172719
0.000184255
-0.000275755
-5.84645e-07
5.34418e-06
-2.26263e-06
1.54051e-05
-5.00057e-06
2.52538e-05
-8.75982e-06
3.48617e-05
-1.34963e-05
4.41951e-05
-1.9161e-05
5.32223e-05
-2.57002e-05
6.19139e-05
-3.30562e-05
7.02435e-05
-4.11673e-05
7.81888e-05
-4.99686e-05
8.57321e-05
-5.9392e-05
9.2861e-05
-6.93663e-05
9.95684e-05
-7.98173e-05
0.000105852
-9.06675e-05
0.000111715
-0.000101835
0.000117163
-0.000113234
0.000122207
-0.000124773
0.000126858
-0.000136351
0.000131133
-0.000147862
0.000135053
-0.000159187
0.000138645
-0.0001702
0.00014195
-0.000180761
0.000145032
-0.000190724
0.000147988
-0.000199941
0.000150967
-0.000208271
0.000154187
-0.000215607
0.00015796
-0.000221898
0.000162707
-0.000227196
0.000168942
-0.000231669
0.000177192
0.000188231
-0.000235645
-5.4829e-07
5.89247e-06
-2.12442e-06
1.69812e-05
-4.69822e-06
2.78277e-05
-8.23344e-06
3.83969e-05
-1.26877e-05
4.86494e-05
-1.80128e-05
5.85475e-05
-2.41554e-05
6.80565e-05
-3.10571e-05
7.71452e-05
-3.86551e-05
8.57868e-05
-4.68825e-05
9.39595e-05
-5.56683e-05
0.000101647
-6.49379e-05
0.000108838
-7.46126e-05
0.000115527
-8.46092e-05
0.000121712
-9.48395e-05
0.000127394
-0.000105209
0.000132576
-0.000115616
0.000137265
-0.00012595
0.000141467
-0.000136087
0.00014519
-0.000145892
0.000148449
-0.000155213
0.000151271
-0.000163881
0.000153701
-0.000171713
0.00015582
-0.000178513
0.000157767
-0.000184084
0.000159759
-0.000188253
0.000162129
-0.000190906
0.00016536
-0.00019205
0.000170087
-0.00019184
0.000176981
0.000186995
-0.000190605
-5.10176e-07
6.40265e-06
-1.97906e-06
1.84501e-05
-4.3794e-06
3.0228e-05
-7.67691e-06
4.16945e-05
-1.18304e-05
5.28029e-05
-1.67922e-05
6.35093e-05
-2.25086e-05
7.37728e-05
-2.892e-05
8.35567e-05
-3.59619e-05
9.28287e-05
-4.35646e-05
0.000101562
-5.16539e-05
0.000109736
-6.01508e-05
0.000117335
-6.89711e-05
0.000124347
-7.80256e-05
0.000130766
-8.72184e-05
0.000136586
-9.64461e-05
0.000141804
-0.000105596
0.000146415
-0.000114544
0.000150415
-0.000123152
0.000153798
-0.000131264
0.000156561
-0.000138704
0.000158711
-0.000145271
0.000160268
-0.000150742
0.000161291
-0.000154869
0.000161894
-0.000157392
0.000162281
-0.00015806
0.000162796
-0.000156678
0.000163977
-0.000153191
0.0001666
-0.000147736
0.000171527
0.000179847
-0.000140588
-4.70984e-07
6.87363e-06
-1.82904e-06
1.98082e-05
-4.04925e-06
3.24482e-05
-7.09874e-06
4.47439e-05
-1.09369e-05
5.66411e-05
-1.55158e-05
6.80882e-05
-2.07807e-05
7.90377e-05
-2.66703e-05
8.94463e-05
-3.31173e-05
9.92757e-05
-4.00488e-05
0.000108494
-4.73861e-05
0.000117073
-5.5045e-05
0.000124994
-6.29354e-05
0.000132238
-7.09603e-05
0.000138791
-7.90154e-05
0.000144641
-8.69871e-05
0.000149776
-9.4751e-05
0.000154179
-0.000102169
0.000157833
-0.000109085
0.000160714
-0.000115324
0.0001628
-0.000120683
0.00016407
-0.00012493
0.000164516
-0.000127799
0.00016416
-0.000128987
0.000163082
-0.000128164
0.000161458
-0.000124989
0.000159622
-0.000119168
0.000158155
-0.000110556
0.000157989
-9.93047e-05
0.000160275
0.00016607
-8.5528e-05
-4.31413e-07
7.30504e-06
-1.67684e-06
2.10536e-05
-3.71299e-06
3.44844e-05
-6.50758e-06
4.75385e-05
-1.00198e-05
6.01532e-05
-1.42005e-05
7.2269e-05
-1.89932e-05
8.38304e-05
-2.43338e-05
9.47869e-05
-3.01515e-05
0.000105093
-3.6369e-05
0.000114711
-4.29023e-05
0.000123607
-4.9661e-05
0.000131752
-5.65473e-05
0.000139124
-6.34559e-05
0.0001457
-7.02723e-05
0.000151458
-7.68715e-05
0.000156375
-8.31155e-05
0.000160423
-8.88505e-05
0.000163568
-9.39031e-05
0.000165767
-9.80752e-05
0.000166972
-0.000101138
0.000167133
-0.000102827
0.000166204
-0.000102831
0.000164164
-0.000100791
0.000161042
-9.63017e-05
0.000156968
-8.89241e-05
0.000152245
-7.82377e-05
0.000147469
-6.39459e-05
0.000143697
-4.62387e-05
0.000142568
0.000145642
-2.58103e-05
-3.92155e-07
7.6972e-06
-1.52497e-06
2.21864e-05
-3.3758e-06
3.63352e-05
-5.91199e-06
5.00747e-05
-9.09142e-06
6.33327e-05
-1.2863e-05
7.60405e-05
-1.7167e-05
8.81344e-05
-2.19358e-05
9.95557e-05
-2.7094e-05
0.000110252
-3.25586e-05
0.000120176
-3.82392e-05
0.000129287
-4.40376e-05
0.000137551
-4.98472e-05
0.000144934
-5.55526e-05
0.000151405
-6.10275e-05
0.000156933
-6.61334e-05
0.000161481
-7.0717e-05
0.000165007
-7.46069e-05
0.000167458
-7.76095e-05
0.000168769
-7.95029e-05
0.000168866
-8.00308e-05
0.000167661
-7.88932e-05
0.000165067
-7.57365e-05
0.000161008
-7.01442e-05
0.00015545
-6.16307e-05
0.000148454
-4.96515e-05
0.000140265
-3.36461e-05
0.000131463
-1.31096e-05
0.000123161
1.23356e-05
0.000117123
0.000117588
4.03891e-05
-3.53884e-07
8.05108e-06
-1.37583e-06
2.32084e-05
-3.04267e-06
3.8002e-05
-5.3202e-06
5.23523e-05
-8.16383e-06
6.61763e-05
-1.15191e-05
7.93958e-05
-1.53223e-05
9.19376e-05
-1.95007e-05
0.000103734
-2.39729e-05
0.000114724
-2.86491e-05
0.000124852
-3.34309e-05
0.000134069
-3.82108e-05
0.000142331
-4.28717e-05
0.000149594
-4.72859e-05
0.000155819
-5.13132e-05
0.00016096
-5.47993e-05
0.000164967
-5.7573e-05
0.00016778
-5.94423e-05
0.000169327
-6.01903e-05
0.000169517
-5.9569e-05
0.000168244
-5.72913e-05
0.000165383
-5.30211e-05
0.000160797
-4.63606e-05
0.000154347
-3.68362e-05
0.000145926
-2.38843e-05
0.000135503
-6.8486e-06
0.00012323
1.4987e-05
0.000109628
4.22814e-05
9.58663e-05
7.52205e-05
8.41837e-05
7.94358e-05
0.000113373
-3.17231e-07
8.36831e-06
-1.23166e-06
2.41228e-05
-2.71825e-06
3.94886e-05
-4.73983e-06
5.43738e-05
-7.24802e-06
6.86845e-05
-1.01837e-05
8.23315e-05
-1.34775e-05
9.52314e-05
-1.70504e-05
0.000107307
-2.08135e-05
0.000118487
-2.46687e-05
0.000128707
-2.85076e-05
0.000137908
-3.22118e-05
0.000146035
-3.56515e-05
0.000153034
-3.86842e-05
0.000158852
-4.11534e-05
0.000163429
-4.28856e-05
0.000166699
-4.36881e-05
0.000168583
-4.33448e-05
0.000168984
-4.16114e-05
0.000167784
-3.82092e-05
0.000164842
-3.28164e-05
0.00015999
-2.50577e-05
0.000153038
-1.44891e-05
0.000143779
-5.79789e-07
0.000132016
1.73093e-05
0.000117614
3.99431e-05
0.000100596
6.82044e-05
8.13666e-05
0.000102967
6.11039e-05
0.000144772
4.23789e-05
3.09544e-05
0.000193253
-2.82766e-07
8.65108e-06
-1.09447e-06
2.49345e-05
-2.40664e-06
4.08008e-05
-4.17761e-06
5.61448e-05
-6.35364e-06
7.08605e-05
-8.86939e-06
8.48473e-05
-1.16485e-05
9.80105e-05
-1.46036e-05
0.000110262
-1.76372e-05
0.000121521
-2.06404e-05
0.00013171
-2.34936e-05
0.000140761
-2.60647e-05
0.000148606
-2.82089e-05
0.000155178
-2.97662e-05
0.000160409
-3.05599e-05
0.000164223
-3.03941e-05
0.000166534
-2.90501e-05
0.000167239
-2.62824e-05
0.000166216
-2.18138e-05
0.000163315
-1.53291e-05
0.000158357
-6.46584e-06
0.000151127
5.19648e-06
0.000141376
2.01521e-05
0.000128823
3.89903e-05
0.000113178
6.24229e-05
9.4181e-05
9.13174e-05
7.17015e-05
0.000126717
4.59667e-05
0.000169755
1.80659e-05
0.000221336
-9.2015e-06
-2.90513e-05
0.000281341
-2.50977e-07
8.90206e-06
-9.65955e-07
2.56495e-05
-2.11125e-06
4.19461e-05
-3.63904e-06
5.76726e-05
-5.4885e-06
7.271e-05
-7.58638e-06
8.69451e-05
-9.84747e-06
0.000100272
-1.21748e-05
0.000112589
-1.44596e-05
0.000123805
-1.65809e-05
0.000133832
-1.84049e-05
0.000142585
-1.9784e-05
0.000149985
-2.05548e-05
0.000155949
-2.05367e-05
0.000160391
-1.9529e-05
0.000163215
-1.73084e-05
0.000164313
-1.36249e-05
0.000163555
-8.19754e-06
0.000160789
-7.09272e-07
0.000155827
9.20002e-06
0.000148448
2.19416e-05
0.000138386
3.79895e-05
0.000125328
5.78954e-05
0.000108917
8.23109e-05
8.87626e-05
0.000112019
6.44732e-05
0.000147977
3.57429e-05
0.000191374
2.57013e-06
0.000243598
-3.41579e-05
0.000305948
-7.15521e-05
-0.000101925
0.000378822
-2.22239e-07
9.1243e-06
-8.47371e-07
2.62746e-05
-1.83461e-06
4.29333e-05
-3.12806e-06
5.89661e-05
-4.65801e-06
7.42399e-05
-6.34147e-06
8.86286e-05
-8.08252e-06
0.000102013
-9.77243e-06
0.000114279
-1.12894e-05
0.000125322
-1.24978e-05
0.00013504
-1.32473e-05
0.000143335
-1.33715e-05
0.000150109
-1.26853e-05
0.000155263
-1.09833e-05
0.000158689
-8.03643e-06
0.000160268
-3.58829e-06
0.000159865
2.64876e-06
0.000157318
1.09985e-05
0.000152439
2.18266e-05
0.000144999
3.55474e-05
0.000134727
5.2632e-05
0.000121301
7.36188e-05
0.000104341
9.91278e-05
8.34082e-05
0.00012988
5.801e-05
0.000166731
2.76227e-05
0.000210716
-8.24198e-06
0.000263135
-4.98487e-05
0.0003256
-9.66237e-05
0.000399809
-0.000145761
-0.000189077
0.000486962
-1.96796e-07
9.32109e-06
-7.39489e-07
2.68173e-05
-1.57811e-06
4.37719e-05
-2.64672e-06
6.00347e-05
-3.86473e-06
7.54579e-05
-5.13742e-06
8.99013e-05
-6.35614e-06
0.000103231
-7.39823e-06
0.000115321
-8.12649e-06
0.00012605
-8.38815e-06
0.000135302
-8.01334e-06
0.00014296
-6.81336e-06
0.000148909
-4.5778e-06
0.000153027
-1.07184e-06
0.000155183
3.96761e-06
0.000155229
1.0836e-05
0.000152996
1.9866e-05
0.000148288
3.14329e-05
0.000140872
4.59606e-05
0.000130471
6.3929e-05
0.000116759
8.58813e-05
9.93488e-05
0.000112434
7.77884e-05
0.000144288
5.15543e-05
0.000182245
2.00522e-05
0.000227237
-1.7369e-05
0.000280366
-6.13709e-05
0.000343005
-0.000112487
0.000416925
-0.000170544
0.000504157
-0.000232993
-0.000291914
0.000606994
-1.74733e-07
9.49583e-06
-6.42482e-07
2.72851e-05
-1.34189e-06
4.44713e-05
-2.19486e-06
6.08876e-05
-3.10783e-06
7.63709e-05
-3.97222e-06
9.07657e-05
-4.66444e-06
0.000103924
-5.04557e-06
0.000115703
-4.9604e-06
0.000125965
-4.23617e-06
0.000134578
-2.67988e-06
0.000141404
-7.70745e-08
0.000146306
3.81238e-06
0.000149138
9.25818e-06
0.000149737
1.65633e-05
0.000147924
2.60694e-05
0.00014349
3.81623e-05
0.000136195
5.32781e-05
0.000125756
7.19098e-05
0.00011184
9.46146e-05
9.40542e-05
0.000122021
7.19422e-05
0.000154837
4.4972e-05
0.00019386
1.25315e-05
0.000239985
-2.60728e-05
0.000294225
-7.16091e-05
0.000357743
-0.000124888
0.000431939
-0.000186684
0.000518656
-0.000257261
0.000620119
-0.000334456
-0.000411724
0.000739929
-1.55959e-07
9.65178e-06
-5.55852e-07
2.76849e-05
-1.12463e-06
4.50401e-05
-1.76982e-06
6.15328e-05
-2.38266e-06
7.69838e-05
-2.83846e-06
9.12215e-05
-2.99632e-06
0.000104081
-2.69841e-06
0.000115405
-1.76862e-06
0.000125036
-1.04915e-08
0.000132819
2.79398e-06
0.000138599
6.89097e-06
0.000142209
1.25556e-05
0.000143473
2.00974e-05
0.000142195
2.98662e-05
0.000138155
4.22576e-05
0.000131099
5.77193e-05
0.000120734
7.67582e-05
0.000106717
9.99473e-05
8.86504e-05
0.000127933
6.60684e-05
0.000161442
3.84334e-05
0.000201287
5.12736e-06
0.000248371
-3.45526e-05
0.000303694
-8.13958e-05
0.000368356
-0.000136271
0.000443572
-0.000200105
0.000530731
-0.000273843
0.000631635
-0.000358164
0.00074851
-0.000451331
-0.000549531
0.000886316
-1.40184e-07
9.79197e-06
-4.78372e-07
2.80231e-05
-9.23438e-07
4.54852e-05
-1.3662e-06
6.19756e-05
-1.68042e-06
7.7298e-05
-1.72285e-06
9.12639e-05
-1.33269e-06
0.000103691
-3.3044e-07
0.000114402
1.48392e-06
0.000123221
4.33357e-06
0.00012997
8.46865e-06
0.000134464
1.4169e-05
0.000136509
2.17506e-05
0.000135892
3.15698e-05
0.000132376
4.40306e-05
0.000125694
5.95906e-05
0.000115539
7.87687e-05
0.000101556
0.000102152
8.33336e-05
0.000130405
6.03976e-05
0.000164273
3.22002e-05
0.000204591
-1.88444e-06
0.000252285
-4.25659e-05
0.00030837
-9.06385e-05
0.000373954
-0.000146979
0.00045022
-0.000212537
0.000538423
-0.000288308
0.000639898
-0.000375318
0.000756287
-0.000474553
0.000889605
-0.000584648
-0.000705904
0.00104598
-1.26908e-07
9.91888e-06
-4.08035e-07
2.83043e-05
-7.33728e-07
4.58109e-05
-9.75728e-07
6.22176e-05
-9.87868e-07
7.73101e-05
-6.05798e-07
9.08818e-05
3.53943e-07
0.000102732
2.09562e-06
0.000112661
4.84691e-06
0.00012047
8.86206e-06
0.000125955
1.44262e-05
0.0001289
2.18601e-05
0.000129075
3.15261e-05
0.000126226
4.38345e-05
0.000120068
5.9251e-05
0.000110278
7.83039e-05
9.6486e-05
0.000101592
7.82672e-05
0.000129794
5.51322e-05
0.000163671
2.65204e-05
0.000204078
-8.20651e-06
0.000251962
-4.97684e-05
0.000308363
-9.89676e-05
0.00037441
-0.000156685
0.0004513
-0.000223869
0.000540283
-0.000301521
0.000642625
-0.00039065
0.000759565
-0.000492258
0.000892452
-0.00060744
0.00104292
-0.00073512
-0.000880721
0.00121774
-1.15421e-07
1.00343e-05
-3.42048e-07
2.85309e-05
-5.49237e-07
4.60181e-05
-5.87209e-07
6.22555e-05
-2.87324e-07
7.70102e-05
5.38549e-07
9.0056e-05
2.09957e-06
0.000101171
4.62826e-06
0.000110132
8.38366e-06
0.000116714
1.36555e-05
0.000120683
2.07695e-05
0.000121786
3.00926e-05
0.000119752
4.20406e-05
0.000114278
5.70848e-05
0.000105023
7.57608e-05
9.16017e-05
9.86759e-05
7.35709e-05
0.000126518
5.04255e-05
0.000160061
2.15887e-05
0.000200174
-1.3593e-05
0.000247822
-5.58542e-05
0.000304063
-0.00010601
0.000370045
-0.000164949
0.000446986
-0.000233626
0.000536151
-0.000313034
0.000638808
-0.000404178
0.000756179
-0.000508021
0.000889354
-0.000625433
0.00103924
-0.000757323
0.00120705
-0.000902934
-0.00107289
0.00139922
-1.04799e-07
1.01391e-05
-2.76848e-07
2.87029e-05
-3.62046e-07
4.61033e-05
-1.866e-07
6.20801e-05
4.43194e-07
7.63804e-05
1.74221e-06
8.87569e-05
3.94855e-06
9.89642e-05
7.32659e-06
0.000106754
1.21711e-05
0.00011187
1.88122e-05
0.000114042
2.76214e-05
0.000112977
3.90187e-05
0.000108355
5.34799e-05
9.98167e-05
7.15451e-05
8.69582e-05
9.3827e-05
6.93198e-05
0.00012102
4.63781e-05
0.000153906
1.75392e-05
0.000193363
-1.78683e-05
0.000240366
-6.05958e-05
0.000295985
-0.000111474
0.000361382
-0.000171406
0.000437785
-0.000241353
0.000526473
-0.000322313
0.00062872
-0.000415281
0.000745746
-0.000521205
0.000878641
-0.000640915
0.00102827
-0.000775059
0.00119492
-0.000923981
0.00137954
-0.00108755
-0.00128004
0.0015867
-9.39266e-08
1.0233e-05
-2.08161e-07
2.88172e-05
-1.62714e-07
4.60578e-05
2.42721e-07
6.16747e-05
1.22969e-06
7.53935e-05
3.04285e-06
8.69438e-05
5.9527e-06
9.60543e-05
1.02595e-05
0.000102447
1.62983e-05
0.000105831
2.44449e-05
0.000105895
3.51228e-05
0.000102299
4.88111e-05
9.46665e-05
6.60527e-05
8.25751e-05
8.74635e-05
6.55474e-05
0.000113741
4.30426e-05
0.000145671
1.44483e-05
0.000184135
-2.09248e-05
0.000230112
-6.3846e-05
0.00028468
-0.000115163
0.000349002
-0.000175796
0.000424314
-0.000246718
0.000511893
-0.000328933
0.000613017
-0.000423436
0.000728898
-0.000531162
0.000860611
-0.000652917
0.00100899
-0.000789294
0.00117456
-0.000940631
0.00135689
-0.00110631
0.00155688
-0.00128754
-0.00149828
0.00177511
-8.15207e-08
1.03145e-05
-1.31103e-07
2.88668e-05
5.95623e-08
4.58672e-05
7.19634e-07
6.10146e-05
2.10154e-06
7.40116e-05
4.48286e-06
8.45625e-05
8.17022e-06
9.2367e-05
1.3504e-05
9.71133e-05
2.08646e-05
9.84707e-05
3.06786e-05
9.60809e-05
4.34278e-05
8.95498e-05
5.96569e-05
7.84375e-05
7.99825e-05
6.22494e-05
0.000105102
4.04275e-05
0.000135803
1.23418e-05
0.000172966
-2.27146e-05
0.00021757
-6.55291e-05
0.000270692
-0.000116967
0.000333492
-0.000177964
0.000407204
-0.000249508
0.000493098
-0.000332613
0.000592443
-0.000428278
0.000706438
-0.000537432
0.000836138
-0.000660862
0.000982351
-0.00079913
0.00114552
-0.000952466
0.00132569
-0.0011208
0.00152166
-0.00130228
0.00173448
-0.00150036
-0.00172204
0.00195825
-6.617e-08
1.03807e-05
-4.02977e-08
2.88409e-05
3.1628e-07
4.55106e-05
1.26468e-06
6.00662e-05
3.09068e-06
7.21856e-05
6.10825e-06
8.15449e-05
1.0664e-05
8.78112e-05
1.71431e-05
9.06343e-05
2.59758e-05
8.96379e-05
3.76459e-05
8.44108e-05
5.26988e-05
7.44969e-05
7.17508e-05
5.93854e-05
9.54981e-05
3.85022e-05
0.000124724
1.12011e-05
0.000160308
-2.32416e-05
0.000203223
-6.56298e-05
0.00025454
-0.000116846
0.000315413
-0.00017784
0.000387065
-0.000249616
0.000470756
-0.000333198
0.000567735
-0.000429592
0.000679182
-0.000539725
0.000806127
-0.000664376
0.000949349
-0.000804085
0.00110927
-0.000959051
0.00128582
-0.00112902
0.00147837
-0.00131335
0.00168506
-0.00150897
0.00190678
-0.00172208
-0.00194434
0.00212908
-4.63906e-08
1.04271e-05
6.97859e-08
2.87247e-05
6.20072e-07
4.49603e-05
1.89958e-06
5.87867e-05
4.23069e-06
6.98545e-05
7.96718e-06
7.78084e-05
1.34997e-05
8.22787e-05
2.12625e-05
8.28714e-05
3.17414e-05
7.9159e-05
4.5482e-05
7.06702e-05
6.30992e-05
5.68797e-05
8.52858e-05
3.71988e-05
0.000112821
1.09669e-05
0.000146577
-2.25544e-05
0.000187519
-6.41843e-05
0.000236709
-0.00011482
0.000295291
-0.000175427
0.000364473
-0.000247022
0.000445497
-0.00033064
0.000539593
-0.000427294
0.000647913
-0.000537912
0.000771456
-0.000663268
0.000910968
-0.000803888
0.00106684
-0.000959953
0.00123898
-0.0011312
0.00142675
-0.00131679
0.00162876
-0.00151535
0.00184283
-0.00172305
0.00206783
-0.00194708
-0.00215674
0.00228022
-2.0638e-08
1.04477e-05
2.05047e-07
2.8499e-05
9.83472e-07
4.41819e-05
2.64635e-06
5.71238e-05
5.55559e-06
6.69452e-05
1.01083e-05
7.32557e-05
1.67432e-05
7.56438e-05
2.59483e-05
7.36663e-05
3.82693e-05
6.6838e-05
5.43189e-05
5.46206e-05
7.47858e-05
3.64129e-05
0.000100442
1.15421e-05
0.000132152
-2.0743e-05
0.000170872
-6.12742e-05
0.00021765
-0.000110962
0.000273616
-0.000170786
0.000339962
-0.000241773
0.000417911
-0.000324971
0.00050867
-0.000421399
0.000613365
-0.000531988
0.00073296
-0.000657507
0.000868163
-0.000798471
0.00101932
-0.000955044
0.00118631
-0.00112694
0.00136846
-0.00131334
0.00156449
-0.00151283
0.00177243
-0.00172328
0.00199042
-0.00194104
0.00221311
-0.00216977
-0.00235077
0.00240715
1.26034e-08
1.04351e-05
3.71169e-07
2.81405e-05
1.41891e-06
4.31341e-05
3.52663e-06
5.50161e-05
7.09871e-06
6.33731e-05
1.25791e-05
6.77754e-05
2.04583e-05
6.77645e-05
3.12825e-05
6.28422e-05
4.56616e-05
5.24589e-05
6.42792e-05
3.6003e-05
8.79004e-05
1.27917e-05
0.000117378
-1.79359e-05
0.000153658
-5.70224e-05
0.000197773
-0.000105389
0.000250837
-0.000164027
0.000314026
-0.000233974
0.000388542
-0.00031629
0.00047557
-0.000412
0.000576211
-0.00052204
0.000691401
-0.000647178
0.000821812
-0.000787919
0.000967751
-0.00094441
0.00112905
-0.00111634
0.00130498
-0.00130288
0.00149421
-0.00150257
0.00169482
-0.00171344
0.00190429
-0.00193275
0.00212104
-0.00215779
0.0023394
-0.00238814
-0.00259472
0.00258336
5.4759e-08
1.03804e-05
5.73548e-07
2.76217e-05
1.9382e-06
4.17695e-05
4.56096e-06
5.23933e-05
8.89153e-06
5.90426e-05
1.54239e-05
6.1243e-05
2.47043e-05
5.8484e-05
3.73404e-05
5.02061e-05
5.401e-05
3.57893e-05
7.54697e-05
1.45433e-05
0.000102562
-1.43002e-05
0.000136217
-5.15912e-05
0.000177454
-9.82597e-05
0.00022737
-0.000155305
0.000287122
-0.000223778
0.000357894
-0.000304746
0.00044085
-0.000399246
0.000537071
-0.00050822
0.00064747
-0.000632439
0.000772697
-0.000772405
0.00091303
-0.000928252
0.00106827
-0.00109965
0.00123765
-0.00128573
0.00141979
-0.00148501
0.00161267
-0.00169545
0.00181376
-0.00191453
0.00202015
-0.00213914
0.00222936
-0.002367
0.00243664
-0.00259541
-0.0028112
0.00265312
1.07153e-07
1.02732e-05
8.17163e-07
2.69117e-05
2.55217e-06
4.00345e-05
5.76807e-06
4.91774e-05
1.09626e-05
5.38481e-05
1.86827e-05
5.35229e-05
2.95335e-05
4.76332e-05
4.41871e-05
3.55526e-05
6.3391e-05
1.65854e-05
8.79753e-05
-1.0041e-05
0.000118857
-4.51816e-05
0.000157037
-8.97719e-05
0.000203597
-0.000144819
0.000259673
-0.000211382
0.000326433
-0.000290538
0.000405024
-0.000383337
0.00049651
-0.000490732
0.000601794
-0.000613503
0.000721511
-0.000752157
0.00085593
-0.000906824
0.00100484
-0.00107716
0.00116746
-0.00126227
0.00134239
-0.00146065
0.00152757
-0.0016702
0.00172041
-0.0018883
0.00191789
-0.00211201
0.00211683
-0.00233808
0.00231415
-0.00256432
0.00250617
-0.00278744
-0.00300158
0.00269655
1.70952e-07
1.01023e-05
1.10642e-06
2.59762e-05
3.27038e-06
3.78705e-05
7.16437e-06
4.52834e-05
1.33365e-05
4.7676e-05
2.23894e-05
4.44699e-05
3.49893e-05
3.50333e-05
5.18743e-05
1.86675e-05
7.38622e-05
-5.40239e-06
0.000101854
-3.8033e-05
0.000136835
-8.01627e-05
0.000179867
-0.000132803
0.000232069
-0.000197021
0.000294591
-0.000273904
0.000368568
-0.000364515
0.000455055
-0.000469824
0.000554948
-0.000590625
0.000668884
-0.00072744
0.000797137
-0.00088041
0.000939507
-0.00104919
0.00109522
-0.00123288
0.00126289
-0.00142994
0.00144048
-0.00163824
0.00162537
-0.00185509
0.00181453
-0.00207745
0.00200468
-0.00230216
0.00219263
-0.00252603
0.00237535
-0.00274704
0.00254994
-0.00296202
-0.00316982
0.00271818
2.47151e-07
9.85512e-06
1.44505e-06
2.47783e-05
4.10086e-06
3.52147e-05
8.7635e-06
4.06208e-05
1.60334e-05
4.04061e-05
2.65708e-05
3.39325e-05
4.11043e-05
2.04998e-05
6.04385e-05
-6.66716e-07
8.5459e-05
-3.04229e-05
0.000117133
-6.97069e-05
0.000156503
-0.000119533
0.000204671
-0.000180972
0.000262773
-0.000255123
0.00033193
-0.000343062
0.000413195
-0.00044578
0.000507465
-0.000564094
0.000615392
-0.000698551
0.000737269
-0.000849317
0.000872927
-0.00101607
0.00102163
-0.0011979
0.00118203
-0.00139328
0.00135212
-0.00160003
0.00152933
-0.00181544
0.00171063
-0.0020364
0.00189278
-0.0022596
0.00207253
-0.00248191
0.00224696
-0.00270046
0.00241354
-0.00291363
0.00257035
-0.00311883
-0.00331788
0.00271842
3.36564e-07
9.51856e-06
1.8361e-06
2.32788e-05
5.05002e-06
3.20008e-05
1.0576e-05
3.50948e-05
1.90683e-05
3.19138e-05
3.12458e-05
2.17551e-05
4.78995e-05
3.84608e-06
6.98987e-05
-2.26659e-05
9.81921e-05
-5.87163e-05
0.000133803
-0.000105318
0.000177817
-0.000163546
0.000231353
-0.000234508
0.000295526
-0.000319296
0.000371387
-0.000418922
0.000459843
-0.000534237
0.00056157
-0.00066582
0.000676896
-0.000813877
0.000805698
-0.00097812
0.000947302
-0.00115767
0.00110041
-0.00135101
0.0012631
-0.00155596
0.00143285
-0.00176978
0.00160668
-0.00198928
0.00178139
-0.0022111
0.00195375
-0.00243196
0.00212083
-0.00264899
0.00228026
-0.00285988
0.00243025
-0.00306362
0.00256989
-0.00325847
-0.00344814
0.00270014
4.39829e-07
9.07873e-06
2.28187e-06
2.14367e-05
6.12259e-06
2.816e-05
1.26094e-05
2.86079e-05
2.2451e-05
2.20722e-05
3.64248e-05
7.78138e-06
5.53829e-05
-1.51121e-05
8.02551e-05
-4.75381e-05
0.000112045
-9.05065e-05
0.00015182
-0.000145093
0.000200685
-0.000212411
0.000259748
-0.00029357
0.000330061
-0.000389609
0.000412549
-0.000501411
0.000507917
-0.000629605
0.000616543
-0.000774446
0.000738367
-0.000935701
0.00087279
-0.00111254
0.0010186
-0.00130349
0.00117397
-0.00150637
0.00133644
-0.00171843
0.00150312
-0.00193646
0.00167083
-0.00215699
0.00183639
-0.00237666
0.00199688
-0.00259245
0.00214991
-0.00280202
0.00229382
-0.00300379
0.00242766
-0.00319746
0.00255143
-0.00338223
-0.00356295
0.00266623
5.57421e-07
8.52131e-06
2.78397e-06
1.92102e-05
7.32163e-06
2.36224e-05
1.48679e-05
2.10617e-05
2.61856e-05
1.07545e-05
4.21095e-05
-8.14249e-06
6.35493e-05
-3.65519e-05
9.14885e-05
-7.54773e-05
0.000126975
-0.000125993
0.000171099
-0.000189217
0.000224962
-0.000266274
0.000289621
-0.00035823
0.000366021
-0.000466009
0.000454904
-0.000590294
0.000556705
-0.000731406
0.000671442
-0.000889183
0.000798611
-0.00106287
0.000937107
-0.00125104
0.00108519
-0.00145157
0.00124053
-0.00166171
0.00140031
-0.00187821
0.0015614
-0.00209755
0.00172065
-0.00231625
0.00187515
-0.00253116
0.00202248
-0.00273978
0.00216092
-0.00294046
0.00228959
-0.00313246
0.00240836
-0.00331622
0.00251795
-0.00349183
-0.00366465
0.00261965
6.89665e-07
7.83164e-06
3.34338e-06
1.65565e-05
8.64853e-06
1.83172e-05
1.73523e-05
1.23579e-05
3.02706e-05
-2.16385e-06
4.82924e-05
-2.61643e-05
7.23795e-05
-6.06389e-05
0.000103559
-0.000106657
0.000142907
-0.00016534
0.000191516
-0.000237826
0.00025045
-0.000325208
0.000320674
-0.000428453
0.000402972
-0.000548307
0.000497846
-0.000685168
0.000605402
-0.000838961
0.000725243
-0.00100902
0.000856387
-0.00119401
0.000997225
-0.00139188
0.00114554
-0.00159989
0.0012986
-0.00181478
0.00145337
-0.00203298
0.00160672
-0.0022509
0.00175572
-0.00246524
0.00189791
-0.00267335
0.00203151
-0.00287338
0.00215555
-0.00306451
0.00226989
-0.0032468
0.00237506
-0.00342139
0.00247233
-0.0035891
-0.00375541
0.00256309
8.36756e-07
6.99489e-06
3.96041e-06
1.34328e-05
1.01031e-05
1.21745e-05
2.00605e-05
2.40056e-06
3.46989e-05
-1.68023e-05
5.4957e-05
-4.64224e-05
8.18402e-05
-8.75221e-05
0.000116407
-0.000141223
0.000159741
-0.000208674
0.000212909
-0.000290995
0.0002769
-0.000389199
0.000352543
-0.000504096
0.000440409
-0.000636173
0.000540699
-0.000785458
0.000653138
-0.000951401
0.000776883
-0.00113277
0.000910467
-0.0013276
0.00105181