/*--------------------------------*- C++ -*----------------------------------*\
  =========                 |
  \\      /  F ield         | OpenFOAM: The Open Source CFD Toolbox
   \\    /   O peration     | Website:  https://openfoam.org
    \\  /    A nd           | Version:  7
     \\/     M anipulation  |
\*---------------------------------------------------------------------------*/
FoamFile
{
    version     2.0;
    format      ascii;
    class       surfaceScalarField;
    location    "40";
    object      phi;
}
// * * * * * * * * * * * * * * * * * * * * * * * * * * * * * * * * * * * * * //

dimensions      [0 3 -1 0 0 0 0];

internalField   nonuniform List<scalar> 
278
(
0.00231463
-0.00295116
0.00281449
0.00237373
-0.00376287
0.00370378
-0.00388091
0.00386121
0.00240554
-0.00308899
0.0024591
-0.00381643
-0.00388846
0.00249994
-0.00322763
0.00254952
-0.00386602
-0.00388633
0.00259574
-0.00336663
0.00264284
-0.00391312
-0.00387714
0.00269116
-0.00350542
0.00273703
-0.00395899
-0.00386343
0.0027847
0.00283034
-0.00400463
-0.00384759
0.00292124
-0.00405068
-0.00383168
0.00300854
-0.00409746
-0.00381738
0.00309133
-0.00414494
-0.00380597
0.00316896
-0.00419289
-0.00379827
0.00324102
-0.00424084
-0.00379473
0.00330728
-0.00428828
-0.00379546
0.00336766
-0.00433463
-0.00380029
0.00342217
-0.0043794
-0.00380892
0.0034709
-0.00442217
-0.00382088
0.00351398
-0.00446264
-0.00383573
0.00355158
-0.00450066
-0.003853
0.00358385
-0.00453622
-0.0038723
0.00361095
-0.00456946
-0.00389334
0.0036331
-0.00460058
-0.0039159
0.0036506
-0.00463005
-0.00393949
0.0197774
-0.00447422
-0.00376762
0.0205084
-0.00416097
-0.0035047
0.0208838
-0.00378328
-0.00321255
0.0210841
-0.00340006
-0.00292065
0.0211898
-0.00303795
-0.00264312
0.0212465
-0.00270603
-0.00238462
0.0212763
-0.00240512
-0.00214539
0.0212888
-0.00213306
-0.00192425
0.0212891
-0.00188679
-0.00171959
0.0212803
-0.00166311
-0.00152969
0.0212643
-0.00145897
-0.00135288
0.0212433
-0.00127168
-0.00118763
0.0212195
-0.00109874
-0.00103246
0.0211949
-0.00093787
-0.00088591
0.021171
-0.000786979
-0.000746627
0.0211486
-0.000644215
-0.000613363
0.0211284
-0.000507959
-0.000484993
0.0211113
-0.000376741
-0.000360457
0.021098
-0.00024919
0.0209763
-0.000238735
-0.000221568
0.0210889
-0.000124035
0.020969
-0.00011885
-0.000110516
0.0210843
0.0209655
0.00101153
0.0180378
-0.00129149
0.000775806
0.0199994
0.00053369
0.0210363
0.000299249
0.0214472
9.29012e-05
0.0215463
-7.43131e-05
0.0215241
-0.000202233
0.0214675
-0.000294676
0.0214066
-0.00035677
0.0213497
-0.000393496
0.0212983
-0.000409217
0.0212519
-0.000407621
0.0212102
-0.00039179
0.0211727
-0.000364334
0.0211389
-0.000327497
0.0211085
-0.000283207
0.0210815
-0.00023309
0.0210586
-0.000178522
0.0210402
-0.000120736
0.0210263
-6.0902e-05
0.021017
0.0210122
0.000517577
-0.000951979
0.000259882
8.06283e-05
-6.05792e-05
-0.000175453
-0.000266882
-0.000335773
-0.000383838
-0.000413296
-0.000426483
-0.000425612
-0.000412676
-0.000389456
-0.00035757
-0.000318515
-0.000273652
-0.000224173
-0.000171118
-0.000115447
-5.80843e-05
0.00320444
-0.0013842
-0.0010825
0.00311119
-0.00148283
-0.00122239
0.00301239
-0.00158789
-0.00137166
0.00290985
-0.00169979
-0.0015299
0.0028053
-0.00181863
-0.00169633
0.00270066
-0.00194417
-0.00186981
0.00259796
-0.0020758
-0.00204877
0.0024993
-0.00221248
-0.00223132
0.00240678
-0.00235282
-0.00241519
0.00232246
-0.00249513
-0.00259787
0.0022483
-0.00263748
-0.00277669
0.00218609
-0.00277784
-0.00294887
0.00213738
-0.00291416
-0.0031117
0.0021034
-0.00304454
-0.00326263
0.00208504
-0.0031673
-0.00339942
0.0019689
-0.00216252
0.00208275
-0.00328116
-0.00352024
0.00199244
-0.00228694
0.00209653
-0.00338524
-0.00362379
0.00203193
-0.00241502
0.00212587
-0.00347918
-0.00370938
0.00208589
-0.00254601
0.00216982
-0.00356311
-0.00377696
0.00215246
-0.00267932
0.00222699
-0.00363763
-0.00382716
0.00222948
0.00229563
)
;

boundaryField
{
    inlet
    {
        type            calculated;
        value           nonuniform 0();
    }
    outlet
    {
        type            calculated;
        value           nonuniform 0();
    }
    cylinder
    {
        type            calculated;
        value           nonuniform 0();
    }
    top
    {
        type            symmetryPlane;
        value           uniform 0;
    }
    bottom
    {
        type            symmetryPlane;
        value           uniform 0;
    }
    defaultFaces
    {
        type            empty;
        value           nonuniform 0();
    }
    procBoundary44to43
    {
        type            processor;
        value           nonuniform List<scalar> 
86
(
-0.00217796
-0.0022677
-0.0023613
-0.00245675
-0.00255238
-0.00264684
-0.00364327
-0.00287519
-0.00296177
-0.00304384
-0.00312102
-0.00319307
-0.00325985
-0.0033213
-0.0033774
-0.00342813
-0.00347351
-0.00351356
-0.00354829
-0.00357771
-0.00360198
-0.00362113
-0.0199332
-0.0208217
-0.0212615
-0.0214673
-0.0215519
-0.0215784
-0.0215772
-0.0215608
-0.0215354
-0.0215039
-0.0214684
-0.0214306
-0.0213924
-0.0213558
-0.0213219
-0.0212914
-0.0212647
-0.0212425
-0.0212255
-0.0212141
-0.0212083
-0.0177579
-0.0197637
-0.0207941
-0.0212127
-0.02134
-0.0213569
-0.0213396
-0.0213141
-0.0212876
-0.0212615
-0.0212361
-0.0212117
-0.0211885
-0.0211664
-0.0211453
-0.0211258
-0.0211087
-0.0210947
-0.0210841
-0.0210768
-0.0210731
-0.00311174
-0.00301255
-0.00290734
-0.00279795
-0.00268646
-0.00257511
-0.00246634
-0.00236262
-0.00226643
-0.00218015
-0.00210595
-0.00204573
-0.00200105
-0.00197303
-0.00196228
0.00204264
-0.00184902
-0.00186802
-0.00190385
-0.0019549
-0.00201915
-0.00209431
)
;
    }
    procBoundary44to45
    {
        type            processor;
        value           nonuniform List<scalar> 
85
(
0.00239342
0.00246664
0.0025474
0.00263364
0.00272333
0.00281449
0.00290533
0.00299425
0.00307992
0.00316127
0.00323748
0.00330801
0.0033725
0.00343079
0.00348287
0.00352883
0.00356885
0.00360315
0.00363199
0.00365565
0.0036742
0.0196055
0.0202455
0.0205917
0.0207922
0.0209122
0.020988
0.021037
0.0210676
0.0210844
0.0210903
0.0210875
0.021078
0.0210643
0.0210484
0.0210317
0.0210154
0.0210001
0.0209868
0.000333876
0.020864
0.020858
0.0208549
0.0184722
0.0202571
0.0212155
0.0215884
0.0216612
0.0216156
0.0215364
0.0214546
0.0213792
0.0213114
0.021251
0.0211972
0.0211495
0.021107
0.0210694
0.0210367
0.0210091
0.0209871
0.0209707
0.0209596
0.0209541
0.00333496
0.00325108
0.00316166
0.00306808
0.00297173
0.00287414
0.00277693
0.00268184
0.00259065
0.00250514
0.00242712
0.00235827
0.00230021
0.00225434
0.00222183
0.00220358
0.00220008
0.00221145
0.0022374
0.00227718
0.00232969
)
;
    }
}


// ************************************************************************* //
