/*--------------------------------*- C++ -*----------------------------------*\
  =========                 |
  \\      /  F ield         | OpenFOAM: The Open Source CFD Toolbox
   \\    /   O peration     | Website:  https://openfoam.org
    \\  /    A nd           | Version:  7
     \\/     M anipulation  |
\*---------------------------------------------------------------------------*/
FoamFile
{
    version     2.0;
    format      ascii;
    class       surfaceScalarField;
    location    "65";
    object      phi;
}
// * * * * * * * * * * * * * * * * * * * * * * * * * * * * * * * * * * * * * //

dimensions      [0 3 -1 0 0 0 0];

internalField   nonuniform List<scalar> 
281
(
-0.000511496
-0.00109523
0.00112238
-0.000525727
-0.00125973
0.00127396
-0.000523889
-0.00142618
0.00142434
-0.00050331
-0.00158447
0.00156389
-0.00172268
0.00168165
-0.000592671
-0.000623168
-0.00122923
-0.000639127
-0.00141022
-0.000637176
-0.00158643
-0.00174508
-0.000696859
-0.00118424
-0.000729393
-0.00137768
-0.000745524
-0.00157029
-0.00174872
-0.000739912
-0.00112798
-0.000786227
-0.00133137
-0.000818277
-0.00153824
-0.00173507
-0.000746269
-0.00106525
-0.000801683
-0.00127596
-0.000845368
-0.00149456
-0.00170789
-0.000711919
-0.00100226
-0.000769913
-0.00121796
-0.000818735
-0.00144574
-0.00167338
-0.00063602
-0.0009461
-0.000688756
-0.00116523
-0.000734464
-0.00140003
-0.00163976
-0.000521439
-0.000560696
-0.00112597
-0.000594234
-0.00136649
-0.000617684
-0.00161631
-0.00186073
-0.000392582
-0.00110773
-0.000405221
-0.00135385
-0.000409145
-0.00161239
-0.00187046
-0.000194107
-0.00111648
-0.000178467
-0.00136949
-0.00015412
-0.00163673
-0.00190749
2.42875e-05
7.33378e-05
-0.00141854
0.000132558
-0.00169595
0.000203839
-0.00197877
-0.00225172
0.000338436
-0.00150327
0.000435425
-0.00179294
0.000545021
-0.00208836
-0.00237442
0.000608672
0.000743251
-0.00192752
0.000890288
-0.0022354
0.00104931
-0.00253344
-0.00280454
0.00104921
-0.00209758
0.00123079
-0.00241699
0.00142176
-0.00272441
-0.00300371
0.00134844
0.00155937
-0.00262792
0.00177571
-0.00294074
-0.00322068
0.00186904
-0.00286096
0.00210231
-0.003174
-0.00344723
0.00215209
0.00239234
-0.00341425
-0.00367445
0.00263698
-0.00389376
0.00338595
0.00346813
0.00251014
0.0029542
0.00275877
0.00166399
0.00321395
0.00205496
0.00249274
0.002481
0.0012551
0.0029261
0.00160987
0.00202212
0.00184358
0.000613421
0.00221755
0.000881137
0.00263478
0.00119264
0.00156366
0.00165357
0.000323021
0.00198796
0.000546749
0.00236722
0.000813378
0.0011342
0.0012451
-8.15894e-05
0.00150246
6.56648e-05
0.00179963
0.000249582
0.00213932
0.000473684
0.00114876
-0.000282359
0.00138037
-0.000165949
0.00164685
-1.68996e-05
0.000169061
0.000874771
-0.0005312
0.00105987
-0.000467462
0.00127231
-0.00037839
0.001515
-0.000259587
0.000794037
-0.000680187
0.000966318
-0.000639742
0.00116355
-0.000575626
-0.000483771
0.000700346
-0.00081817
0.00086057
-0.000799966
0.00104411
-0.000759163
-0.000691659
0.00046582
-0.000923707
0.000592087
-0.000944437
0.000739766
-0.000947646
0.000909423
-0.000928819
0.000356708
-0.00101738
0.000470254
-0.00105798
0.000604446
-0.00108184
-0.00108378
0.000237342
-0.00109787
0.000337198
-0.00115784
0.000457008
-0.00120165
-0.00122332
0.000110433
-0.00116428
0.000195765
-0.00124317
0.000300523
-0.00130641
-0.00134712
-2.11534e-05
-0.00121582
4.89043e-05
-0.00131323
0.000138099
-0.0013956
-0.0014551
-0.000190286
-0.00113013
-0.000154394
-0.00125172
-0.00010034
-0.00136728
-2.72313e-05
-0.00146871
-0.00154716
-0.00030536
-0.00113411
-0.000285814
-0.00127126
-0.000248537
-0.00140456
-0.000192176
-0.00152507
-0.0016229
-0.000413972
-0.000411275
-0.000391493
-0.000352669
-0.00545873
-0.0030812
-0.00156319
-0.000590117
2.29674e-05
0.000382219
0.000570759
0.00064749
0.000659068
0.000634058
0.000588448
0.000532228
0.000469917
0.000408948
0.000345815
0.000287231
0.000227183
0.000169628
0.000111625
5.67398e-05
-0.00381023
-0.00338485
-0.0028371
-0.00223562
-0.00169967
-0.00125504
-0.000900269
-0.000626863
-0.000416139
-0.000261809
-0.000145297
-6.56477e-05
)
;

boundaryField
{
    inlet
    {
        type            calculated;
        value           nonuniform 0();
    }
    outlet
    {
        type            calculated;
        value           nonuniform 0();
    }
    cylinder
    {
        type            calculated;
        value           nonuniform 0();
    }
    top
    {
        type            symmetryPlane;
        value           uniform 0;
    }
    bottom
    {
        type            symmetryPlane;
        value           nonuniform 0();
    }
    defaultFaces
    {
        type            empty;
        value           nonuniform 0();
    }
    procBoundary31to30
    {
        type            processor;
        value           nonuniform List<scalar> 
88
(
0.00048435
0.000551204
-0.00105376
0.000651871
0.00068365
0.000683537
0.000648933
0.000579855
0.000479192
-0.000903853
0.000374341
0.000202863
1.53728e-05
-0.00115614
-0.000253712
-0.000487997
-0.00162394
-0.000879148
-0.00114667
-0.00229935
-0.00163601
-0.00190593
-0.00310712
-0.0024003
-0.00365093
-0.00282912
-0.00409766
-0.00377241
-0.0036639
-0.00295373
-0.00302455
-0.00209556
-0.00232719
-0.00207212
-0.000942058
-0.00151495
-0.00136317
-0.000140141
-0.00102337
-0.000947988
0.000371046
-0.000714617
-0.000645051
-0.000562362
0.000817822
-0.000359934
-0.000263035
-0.000156857
-4.40188e-05
7.26976e-05
0.00111063
0.000209783
0.000309345
0.000402237
-0.0237715
-0.0236369
-0.0233485
-0.0230557
-0.0228078
-0.0225927
-0.0223973
-0.0222039
-0.0220343
-0.0218885
-0.0217523
-0.0216229
-0.0215003
-0.0214082
-0.0213133
-0.0212527
-0.02118
-0.0211345
-0.0210939
-0.0210802
-0.0210578
-0.0269476
-0.0260315
-0.0251317
-0.0243413
-0.023702
-0.0231909
-0.0227717
-0.0224275
-0.0221618
-0.0219185
-0.0217412
-0.0215673
-0.0214485
)
;
    }
    procBoundary31to32
    {
        type            processor;
        value           nonuniform List<scalar> 
81
(
-0.000462289
-0.000614775
-0.000741884
-0.000831923
-0.000872549
-0.000853245
-0.000768082
0.00186806
-0.00062502
-0.00039941
-0.000117097
0.00216484
0.000290725
0.00066772
0.00263008
0.00122377
0.00162093
0.00199267
0.00232885
0.00261956
0.00285629
0.00303302
0.00405036
0.00389989
0.00367541
0.00339671
0.00309324
0.00279668
0.000742852
0.00253067
0.00195148
0.00179128
-0.00010722
0.00138774
0.001252
0.00110124
-0.00088348
0.000759406
0.000596554
0.000424316
0.000246075
6.4833e-05
-0.000116439
-0.000293911
0.00961569
0.0196145
0.0212593
0.0218305
0.0220826
0.0221947
0.0222334
0.0222088
0.0221271
0.0220227
0.0219135
0.0217979
0.0216791
0.0215626
0.0214692
0.0213764
0.0213113
0.0212401
0.021192
0.0211519
0.0211351
0.0211146
0.0269323
0.00382549
0.0256061
0.024584
0.0237399
0.0231661
0.0227463
0.0224169
0.0221541
0.0219511
0.0217641
0.0216247
0.0214876
-7.24492e-06
0.0213901
)
;
    }
}


// ************************************************************************* //
