/*--------------------------------*- C++ -*----------------------------------*\
  =========                 |
  \\      /  F ield         | OpenFOAM: The Open Source CFD Toolbox
   \\    /   O peration     | Website:  https://openfoam.org
    \\  /    A nd           | Version:  7
     \\/     M anipulation  |
\*---------------------------------------------------------------------------*/
FoamFile
{
    version     2.0;
    format      ascii;
    class       surfaceScalarField;
    location    "82";
    object      phi;
}
// * * * * * * * * * * * * * * * * * * * * * * * * * * * * * * * * * * * * * //

dimensions      [0 3 -1 0 0 0 0];

internalField   nonuniform List<scalar> 
79480
(
-9.49901e-07
-8.31775e-06
9.26765e-06
-3.63104e-06
-2.16911e-05
2.43722e-05
-7.95639e-06
-3.24056e-05
3.67309e-05
-1.38414e-05
-4.04532e-05
4.63383e-05
-2.12037e-05
-4.58845e-05
5.32468e-05
-2.99641e-05
-4.88043e-05
5.75647e-05
-4.00478e-05
-4.93642e-05
5.94478e-05
-5.13847e-05
-4.7752e-05
5.90889e-05
-6.39098e-05
-4.41772e-05
5.67024e-05
-7.75635e-05
-3.88532e-05
5.25069e-05
-9.22904e-05
-3.19788e-05
4.67058e-05
-0.000108039
-2.37191e-05
3.94677e-05
-0.00012476
-1.41881e-05
3.09091e-05
-0.000142405
-3.43485e-06
2.10798e-05
-0.000160925
8.56587e-06
9.95409e-06
-0.000180269
2.19172e-05
-2.57307e-06
-0.000200384
3.67984e-05
-1.66838e-05
-0.000221212
5.34584e-05
-3.26301e-05
-0.000242694
7.22064e-05
-5.07239e-05
-0.00026477
9.34007e-05
-7.13251e-05
-0.000287379
0.00011744
-9.48309e-05
-0.000310466
0.000144754
-0.000121667
-0.000333985
0.000175804
-0.000152285
-0.00035791
0.000211083
-0.000187159
-0.000382234
0.000251121
-0.000226797
-0.000406985
0.0002965
-0.00027175
-0.000432222
0.000347863
-0.000322625
-0.000458039
0.00040591
-0.000380093
-0.00048454
0.000471442
-0.00044494
0.000545556
-0.00051821
-0.000511886
-9.44863e-07
-7.37289e-06
-3.60605e-06
-1.90299e-05
-7.89058e-06
-2.8121e-05
-1.37079e-05
-3.46359e-05
-2.097e-05
-3.86225e-05
-2.95923e-05
-4.01819e-05
-3.94952e-05
-3.94612e-05
-5.06044e-05
-3.66429e-05
-6.28509e-05
-3.19307e-05
-7.6171e-05
-2.55331e-05
-9.05055e-05
-1.76443e-05
-0.000105798
-8.4265e-06
-0.000121994
2.00781e-06
-0.000139038
1.36092e-05
-0.000156873
2.64005e-05
-0.000175436
4.0481e-05
-0.000194663
5.60249e-05
-0.00021448
7.32757e-05
-0.000234811
9.2537e-05
-0.000255573
0.000114163
-0.000276684
0.000138551
-0.000298061
0.000166131
-0.000319629
0.000197372
-0.000341322
0.000232776
-0.000363094
0.000272893
-0.000384919
0.000318326
-0.000406802
0.000369746
-0.000428768
0.000427876
-0.00045085
0.000493523
0.000567821
-0.000473114
-9.31149e-07
-6.44174e-06
-3.54901e-06
-1.6412e-05
-7.75624e-06
-2.39138e-05
-1.34576e-05
-2.89346e-05
-2.05601e-05
-3.152e-05
-2.89747e-05
-3.17673e-05
-3.86173e-05
-2.98187e-05
-4.94089e-05
-2.58512e-05
-6.12765e-05
-2.00632e-05
-7.41517e-05
-1.26578e-05
-8.79706e-05
-3.82547e-06
-0.000102671
6.27413e-06
-0.000118192
1.75287e-05
-0.00013447
2.9887e-05
-0.000151437
4.33677e-05
-0.00016902
5.8064e-05
-0.000187138
7.41424e-05
-0.0002057
9.18377e-05
-0.000224608
0.000111445
-0.000243756
0.000133311
-0.000263032
0.000157826
-0.00028232
0.000185419
-0.000301505
0.000216557
-0.000320476
0.000251748
-0.000339134
0.00029155
-0.000357392
0.000336584
-0.000375188
0.000387541
-0.000392477
0.000445165
-0.000409216
0.000510262
0.000583991
-0.000425386
-9.09876e-07
-5.53186e-06
-3.46403e-06
-1.38579e-05
-7.56217e-06
-1.98157e-05
-1.31053e-05
-2.33914e-05
-1.99965e-05
-2.46288e-05
-2.81425e-05
-2.36213e-05
-3.74546e-05
-2.05066e-05
-4.78495e-05
-1.54563e-05
-5.92494e-05
-8.66334e-06
-7.15809e-05
-3.2626e-07
-8.47743e-05
9.36794e-06
-9.87613e-05
2.02612e-05
-0.000113473
3.22403e-05
-0.000128836
4.52504e-05
-0.000144773
5.93042e-05
-0.000161195
7.44863e-05
-0.000178005
9.09526e-05
-0.000195094
0.000108926
-0.000212338
0.00012869
-0.000229604
0.000150577
-0.000246747
0.000174969
-0.000263611
0.000202283
-0.000280035
0.000232981
-0.000295856
0.000267569
-0.000310912
0.000306606
-0.000325047
0.000350719
-0.000338122
0.000400617
-0.000350021
0.000457064
-0.000360626
0.000520866
0.000593201
-0.000369835
-8.82307e-07
-4.64955e-06
-3.35577e-06
-1.13844e-05
-7.3182e-06
-1.58532e-05
-1.26678e-05
-1.80418e-05
-1.93041e-05
-1.79924e-05
-2.71298e-05
-1.57956e-05
-3.60521e-05
-1.15844e-05
-4.59827e-05
-5.52568e-06
-5.68386e-05
2.19259e-06
-6.8541e-05
1.13761e-05
-8.10136e-05
2.18405e-05
-9.41809e-05
3.34284e-05
-0.000107965
4.60246e-05
-0.000122284
5.95689e-05
-0.000137045
7.4066e-05
-0.000152148
8.95892e-05
-0.000167477
0.000106281
-0.0001829
0.000124349
-0.000198269
0.000144059
-0.000213421
0.000165729
-0.000228172
0.00018972
-0.000242325
0.000216437
-0.000255668
0.000246324
-0.000267976
0.000279877
-0.000279019
0.000317648
-0.000288564
0.000360265
-0.000296391
0.000408444
-0.000302307
0.00046298
-0.00030612
0.00052468
0.000594728
-0.000307648
-8.49808e-07
-3.79975e-06
-3.2292e-06
-9.00501e-06
-7.03492e-06
-1.20475e-05
-1.21629e-05
-1.29139e-05
-1.85095e-05
-1.16458e-05
-2.59736e-05
-8.33147e-06
-3.44577e-05
-3.10027e-06
-4.38687e-05
3.88534e-06
-5.41178e-05
1.24417e-05
-6.51199e-05
2.23781e-05
-7.67916e-05
3.35122e-05
-8.90493e-05
4.56862e-05
-0.000101806
5.87813e-05
-0.000114968
7.2731e-05
-0.000128431
8.75294e-05
-0.000142079
0.000103236
-0.000155775
0.000119978
-0.000169368
0.000137942
-0.000182683
0.000157374
-0.000195522
0.000178568
-0.000207666
0.000201863
-0.000218869
0.00022764
-0.000228866
0.000256321
-0.000237367
0.000288378
-0.000244067
0.000324348
-0.000248651
0.000364848
-0.000250809
0.000410602
-0.00025027
0.000462441
-0.000246779
0.000521189
0.000588001
-0.000240053
-8.13807e-07
-2.98594e-06
-3.08956e-06
-6.72926e-06
-6.7234e-06
-8.41366e-06
-1.16092e-05
-8.0281e-06
-1.76404e-05
-5.61463e-06
-2.47119e-05
-1.25997e-06
-3.27214e-05
4.90926e-06
-4.15703e-05
1.27342e-05
-5.11636e-05
2.2035e-05
-6.1409e-05
3.26235e-05
-7.22155e-05
4.43188e-05
-8.34907e-05
5.69614e-05
-9.51376e-05
7.04282e-05
-0.000107051
8.46442e-05
-0.000119113
9.95916e-05
-0.000131191
0.000115314
-0.00014313
0.000131918
-0.000154756
0.000149568
-0.000165867
0.000168484
-0.000176232
0.000188933
-0.000185592
0.000211224
-0.000193656
0.000235704
-0.000200099
0.000262764
-0.000204567
0.000292846
-0.000206675
0.000326456
-0.00020602
0.000364193
-0.000202198
0.00040678
-0.000194859
0.000455102
-0.000183705
0.000510036
0.000572606
-0.00016831
-7.75756e-07
-2.21018e-06
-2.94213e-06
-4.56289e-06
-6.39482e-06
-4.96097e-06
-1.10257e-05
-3.39721e-06
-1.67251e-05
8.4751e-08
-2.33836e-05
5.39856e-06
-3.08938e-05
1.24195e-05
-3.9151e-05
2.09914e-05
-4.80533e-05
3.09373e-05
-5.75008e-05
4.20711e-05
-6.7394e-05
5.4212e-05
-7.7631e-05
6.71983e-05
-8.81039e-05
8.09012e-05
-9.86956e-05
9.52359e-05
-0.000109275
0.000110171
-0.000119691
0.000125731
-0.000129774
0.000142
-0.000139323
0.000159117
-0.00014811
0.000177272
-0.000155874
0.000196697
-0.000162315
0.000217665
-0.000167095
0.000240484
-0.000169834
0.000265503
-0.000170108
0.00029312
-0.000167452
0.000323801
-0.000161372
0.000358113
-0.000151365
0.000396774
-0.000136991
0.000440727
-0.000117986
0.00049103
0.000548373
-9.37528e-05
-7.37082e-07
-1.4731e-06
-2.79213e-06
-2.50784e-06
-6.06019e-06
-1.69291e-06
-1.04309e-05
9.7353e-07
-1.57911e-05
5.44493e-06
-2.20267e-05
1.16342e-05
-2.90246e-05
1.94173e-05
-3.66733e-05
2.86401e-05
-4.48634e-05
3.91274e-05
-5.34867e-05
5.06944e-05
-6.24344e-05
6.31596e-05
-7.15943e-05
7.63582e-05
-8.08475e-05
9.01544e-05
-9.00642e-05
0.000104453
-9.90988e-05
0.000119205
-0.000107785
0.000134417
-0.000115933
0.000150148
-0.000123322
0.000166506
-0.000129696
0.000183646
-0.000134763
0.000201764
-0.000138187
0.000221088
-0.000139583
0.00024188
-0.000138516
0.000264436
-0.000134495
0.000289099
-0.000126975
0.000316281
-0.000115367
0.000346504
-9.90624e-05
0.00038047
-7.74855e-05
0.000419151
-5.03745e-05
0.000463919
0.000516446
-1.84474e-05
-6.99152e-07
-7.73949e-07
-2.64451e-06
-5.62482e-07
-5.73001e-06
1.39259e-06
-9.84255e-06
5.08606e-06
-1.48648e-05
1.04672e-05
-2.06775e-05
1.74469e-05
-2.71611e-05
2.59009e-05
-3.41968e-05
3.56758e-05
-4.16669e-05
4.65975e-05
-4.9454e-05
5.84815e-05
-5.74393e-05
7.1145e-05
-6.54999e-05
8.44188e-05
-7.3505e-05
9.81595e-05
-8.13118e-05
0.000112259
-8.87604e-05
0.000126654
-9.56689e-05
0.000141326
-0.000101828
0.000156307
-0.000106996
0.000171674
-0.000110893
0.000187543
-0.000113197
0.000204068
-0.000113536
0.000221427
-0.000111483
0.000239828
-0.000106552
0.000259505
-9.81868e-05
0.000280733
-8.57625e-05
0.000303856
-6.85912e-05
0.000329333
-4.59522e-05
0.000357831
-1.71392e-05
0.000390337
1.84548e-05
0.000428325
0.000474875
6.00261e-05
-6.63223e-07
-1.10725e-07
-2.50386e-06
1.27816e-06
-5.41393e-06
4.30265e-06
-9.2768e-06
8.94894e-06
-1.39704e-05
1.51608e-05
-1.93693e-05
2.28458e-05
-2.5347e-05
3.18785e-05
-3.17764e-05
4.21053e-05
-3.85309e-05
5.3352e-05
-4.54832e-05
6.54338e-05
-5.25036e-05
7.81654e-05
-5.94578e-05
9.1373e-05
-6.62026e-05
0.000104904
-7.25816e-05
0.000118638
-7.84206e-05
0.000132493
-8.35215e-05
0.000146427
-8.7657e-05
0.000160442
-9.0565e-05
0.000174582
-9.19424e-05
0.000188921
-9.14391e-05
0.000203564
-8.86514e-05
0.000218639
-8.31138e-05
0.00023429
-7.4291e-05
0.000250682
-6.15685e-05
0.000268011
-4.42468e-05
0.000286534
-2.15379e-05
0.000306624
7.39311e-06
0.0003289
4.33537e-05
0.000354377
8.68606e-05
0.000384818
0.000423637
0.000138098
-6.30407e-07
5.19681e-07
-2.37419e-06
3.02194e-06
-5.12037e-06
7.04884e-06
-8.74789e-06
1.25765e-05
-1.31289e-05
1.95418e-05
-1.81313e-05
2.78482e-05
-2.36203e-05
3.73675e-05
-2.94601e-05
4.79451e-05
-3.55142e-05
5.94061e-05
-4.16445e-05
7.15641e-05
-4.77101e-05
8.4231e-05
-5.35641e-05
9.7227e-05
-5.90503e-05
0.00011039
-6.39986e-05
0.000123587
-6.82195e-05
0.000136714
-7.14989e-05
0.000149706
-7.35916e-05
0.000162535
-7.42159e-05
0.000175206
-7.30463e-05
0.000187751
-6.97072e-05
0.000200225
-6.37652e-05
0.000212697
-5.47198e-05
0.000225245
-4.19928e-05
0.000237955
-2.49159e-05
0.000250934
-2.71777e-06
0.000264336
2.54688e-05
0.000278437
6.06175e-05
0.000293751
0.000103676
0.000311318
0.000155355
0.000333139
0.000363288
0.000215704
-6.01617e-07
1.1213e-06
-2.25878e-06
4.6791e-06
-4.85627e-06
9.64633e-06
-8.26743e-06
1.59876e-05
-1.23577e-05
2.36321e-05
-1.6987e-05
3.24775e-05
-2.2012e-05
4.23925e-05
-2.72869e-05
5.322e-05
-3.26644e-05
6.47836e-05
-3.79952e-05
7.68948e-05
-4.31257e-05
8.93615e-05
-4.78962e-05
0.000101997
-5.21366e-05
0.000114631
-5.56621e-05
0.000127112
-5.82676e-05
0.000139319
-5.97222e-05
0.000151161
-5.9763e-05
0.000162576
-5.80884e-05
0.000173531
-5.43512e-05
0.000184014
-4.81516e-05
0.000194026
-3.90284e-05
0.000203574
-2.64491e-05
0.000212666
-9.79757e-06
0.000221304
1.16406e-05
0.000229496
3.8696e-05
0.000237281
7.23349e-05
0.000244798
0.000113643
0.000252443
0.000163746
0.000261215
0.000223554
0.000273331
0.000293757
0.000293085
-5.77544e-07
1.69884e-06
-2.16009e-06
6.26164e-06
-4.6267e-06
1.21129e-05
-7.84387e-06
1.92048e-05
-1.16692e-05
2.74574e-05
-1.59537e-05
3.6762e-05
-2.05442e-05
4.6983e-05
-2.52844e-05
5.79602e-05
-3.00153e-05
6.95146e-05
-3.45752e-05
8.14546e-05
-3.87973e-05
9.35836e-05
-4.25078e-05
0.000105708
-4.55218e-05
0.000117645
-4.76387e-05
0.000129229
-4.86368e-05
0.000140317
-4.82677e-05
0.000150792
-4.62494e-05
0.000160558
-4.22597e-05
0.000169541
-3.59294e-05
0.000177683
-2.68339e-05
0.00018493
-1.44851e-05
0.000191225
1.68004e-06
0.000196501
2.23126e-05
0.000200671
4.81701e-05
0.000203638
8.01384e-05
0.000205313
0.00011926
0.000205677
0.000166743
0.000204959
0.000223907
0.000204052
0.00029191
0.000205327
0.00021478
0.000370887
-5.58609e-07
2.25745e-06
-2.07956e-06
7.7826e-06
-4.43461e-06
1.4468e-05
-7.48201e-06
2.22522e-05
-1.10703e-05
3.10456e-05
-1.50406e-05
4.07323e-05
-1.92288e-05
5.11713e-05
-2.34672e-05
6.21985e-05
-2.75842e-05
7.36316e-05
-3.14045e-05
8.52749e-05
-3.47472e-05
9.69263e-05
-3.74231e-05
0.000108384
-3.92313e-05
0.000119453
-3.99538e-05
0.000129952
-3.93509e-05
0.000139714
-3.71545e-05
0.000148595
-3.30616e-05
0.000156465
-2.67277e-05
0.000163207
-1.77588e-05
0.000168715
-5.70377e-06
0.000172875
9.95476e-06
0.000175567
2.98119e-05
0.000176643
5.45545e-05
0.000175929
8.49806e-05
0.000173212
0.000122027
0.000168267
0.000166804
0.0001609
0.000220637
0.000151126
0.000285043
0.000139646
0.00036149
0.00012888
0.000125827
0.000450444
-5.44932e-07
2.80238e-06
-2.01754e-06
9.2552e-06
-4.28054e-06
1.6731e-05
-7.18255e-06
2.51542e-05
-1.05617e-05
3.44248e-05
-1.42482e-05
4.44188e-05
-1.80661e-05
5.49892e-05
-2.18347e-05
6.59672e-05
-2.53692e-05
7.71661e-05
-2.84795e-05
8.83853e-05
-3.09692e-05
9.9416e-05
-3.26322e-05
0.000110047
-3.32496e-05
0.00012007
-3.25842e-05
0.000129286
-3.03755e-05
0.000137506
-2.6333e-05
0.000144553
-2.01295e-05
0.000150261
-1.13937e-05
0.000154472
2.96989e-07
0.000157024
1.54256e-05
0.000157747
3.45443e-05
0.000156448
5.82858e-05
0.000152902
8.73778e-05
0.000146836
0.000122663
0.000137927
0.000165128
0.000125802
0.000215947
0.00011008
0.000276549
9.05247e-05
0.000348642
6.75525e-05
0.000434047
4.34752e-05
2.60352e-05
0.000533839
-5.36311e-07
3.33869e-06
-1.97314e-06
1.0692e-05
-4.16245e-06
1.89203e-05
-6.94173e-06
2.79335e-05
-1.01375e-05
3.76205e-05
-1.35676e-05
4.78489e-05
-1.70432e-05
5.84648e-05
-2.03699e-05
6.92938e-05
-2.33477e-05
8.01439e-05
-2.57707e-05
9.08083e-05
-2.74251e-05
0.00010107
-2.80862e-05
0.000110708
-2.75144e-05
0.000119499
-2.54504e-05
0.000127222
-2.16094e-05
0.000133665
-1.56741e-05
0.000138617
-7.28796e-06
0.000141875
3.95282e-06
0.000143231
1.85072e-05
0.000142469
3.68982e-05
0.000139356
5.97224e-05
0.000133624
8.76607e-05
0.000124964
0.000121493
0.000113004
0.000162117
9.73036e-05
0.000210575
7.73433e-05
0.000268105
5.25505e-05
0.000336219
2.24106e-05
0.000416799
-1.30275e-05
0.000512007
-5.17329e-05
-8.58146e-05
0.000623857
-5.32201e-07
3.8709e-06
-1.94425e-06
1.21041e-05
-4.07562e-06
2.10517e-05
-6.75118e-06
3.0609e-05
-9.78444e-06
4.06538e-05
-1.29798e-05
5.10443e-05
-1.61342e-05
6.16191e-05
-1.90378e-05
7.21975e-05
-2.14745e-05
8.25806e-05
-2.32205e-05
9.25543e-05
-2.40424e-05
0.000101892
-2.36941e-05
0.00011036
-2.19124e-05
0.000117717
-1.84117e-05
0.000123722
-1.28778e-05
0.000128131
-4.96105e-06
0.000130701
5.73193e-06
0.000131182
1.96461e-05
0.000129317
3.72867e-05
0.000124829
5.92289e-05
0.000117413
8.61274e-05
0.000106726
0.000118727
9.23638e-05
0.000157877
7.38544e-05
0.000204546
5.06349e-05
0.000259848
2.20414e-05
0.000325084
-1.26859e-05
0.000401833
-5.43384e-05
0.000492104
-0.000103299
0.000598326
-0.000157954
-0.000211255
0.000723766
-5.31715e-07
4.40261e-06
-1.92749e-06
1.34999e-05
-4.01261e-06
2.31368e-05
-6.59787e-06
3.31943e-05
-9.48242e-06
4.35383e-05
-1.24558e-05
5.40176e-05
-1.52991e-05
6.44625e-05
-1.77859e-05
7.46843e-05
-1.96817e-05
8.44764e-05
-2.07425e-05
9.36151e-05
-2.07128e-05
0.000101862
-1.93213e-05
0.000108968
-1.62771e-05
0.000114673
-1.12629e-05
0.000118707
-3.92909e-06
0.000120797
6.11477e-06
0.000120657
1.93079e-05
0.000117989
3.61477e-05
0.000112477
5.71991e-05
0.000103777
8.31043e-05
9.15082e-05
0.000114594
7.52362e-05
0.000152496
5.44618e-05
0.000197749
2.86012e-05
0.000251415
-3.03092e-06
0.000314696
-4.12396e-05
0.000388965
-8.69549e-05
0.000475842
-0.000141216
0.000577398
-0.000204855
0.000696166
-0.000276722
-0.000351991
0.000836902
-5.33642e-07
4.93625e-06
-1.91827e-06
1.48845e-05
-3.96341e-06
2.51819e-05
-6.46434e-06
3.56952e-05
-9.2044e-06
4.62784e-05
-1.19567e-05
5.67699e-05
-1.4485e-05
6.69908e-05
-1.65441e-05
7.67434e-05
-1.78788e-05
8.58111e-05
-1.82222e-05
9.39585e-05
-1.72928e-05
0.000100933
-1.47901e-05
0.000106466
-1.03896e-05
0.000110272
-3.73602e-06
0.000112054
5.56416e-06
0.000111497
1.79515e-05
0.00010827
3.39228e-05
0.000102018
5.40412e-05
9.23587e-05
7.89467e-05
7.8872e-05
0.000109366
6.10885e-05
0.000146125
3.84773e-05
0.000190156
1.04311e-05
0.000242507
-2.37502e-05
0.000304353
-6.48769e-05
0.000377
-0.000113886
0.000461895
-0.00017185
0.000560674
-0.000239995
0.000675377
-0.000319558
0.000808416
-0.000409761
-0.000509645
0.00096607
-5.36474e-07
5.47273e-06
-1.91095e-06
1.6259e-05
-3.91574e-06
2.71867e-05
-6.32917e-06
3.81086e-05
-8.91727e-06
4.88665e-05
-1.14351e-05
5.92877e-05
-1.3627e-05
6.91827e-05
-1.52266e-05
7.8343e-05
-1.59552e-05
8.65397e-05
-1.55193e-05
9.35226e-05
-1.36069e-05
9.90207e-05
-9.88303e-06
0.000102742
-3.98293e-06
0.000104372
4.4949e-06
0.000103576
1.59975e-05
9.99944e-05
3.10268e-05
9.32402e-05
5.01504e-05
8.2894e-05
7.40123e-05
6.84968e-05
0.000103344
4.95404e-05
0.000138975
2.54575e-05
0.000181843
-4.39101e-06
0.000233003
-4.07283e-05
0.000293628
-8.43752e-05
0.000365014
-0.000136263
0.000448573
-0.000197445
0.000545821
-0.000269098
0.000658366
-0.000352539
0.000788112
-0.000449304
0.000937088
-0.000558738
-0.00068542
0.00111286
-5.3847e-07
6.0112e-06
-1.89901e-06
1.76195e-05
-3.85543e-06
2.91431e-05
-6.16769e-06
4.04209e-05
-8.58293e-06
5.12817e-05
-1.08361e-05
6.15409e-05
-1.26501e-05
7.09967e-05
-1.37343e-05
7.94273e-05
-1.3783e-05
8.65883e-05
-1.24717e-05
9.22113e-05
-9.45293e-06
9.60019e-05
-4.35014e-06
9.76389e-05
3.2492e-06
9.67726e-05
1.38022e-05
9.3023e-05
2.78201e-05
8.59765e-05
4.58789e-05
7.51813e-05
6.86309e-05
6.01421e-05
9.68156e-05
4.0312e-05
0.000131272
1.50843e-05
0.000172947
-1.62173e-05
0.000222904
-5.4348e-05
0.000282327
-0.000100151
0.000352517
-0.000154566
0.000434886
-0.000218631
0.000530926
-0.000293486
0.000642185
-0.000380357
0.000770188
-0.000480542
0.000916567
-0.000595682
0.00108275
-0.000724925
-0.000879699
0.00127703
-5.37727e-07
6.54892e-06
-1.87535e-06
1.89571e-05
-3.76703e-06
3.10348e-05
-5.95301e-06
4.26069e-05
-8.15976e-06
5.34885e-05
-1.01001e-05
6.34813e-05
-1.14724e-05
7.2369e-05
-1.19589e-05
7.99137e-05
-1.12223e-05
8.58518e-05
-8.90232e-06
8.98913e-05
-4.60942e-06
9.1709e-05
2.08156e-06
9.09479e-05
1.16398e-05
8.72143e-05
2.45883e-05
8.00746e-05
4.15138e-05
6.90509e-05
6.3079e-05
5.36161e-05
9.0034e-05
3.31872e-05
0.000123227
7.11879e-06
0.000163616
-2.53045e-05
0.000212274
-6.48751e-05
0.000270393
-0.000112467
0.000339282
-0.00016904
0.000420352
-0.000235636
0.00051509
-0.00031337
0.000625021
-0.000403417
0.000751644
-0.00050698
0.00089632
-0.000625219
0.00106024
-0.000759603
0.00124415
-0.00090883
-0.00109166
0.00145611
-5.32279e-07
7.0812e-06
-1.83263e-06
2.02575e-05
-3.63455e-06
3.28367e-05
-5.65718e-06
4.46295e-05
-7.60445e-06
5.54358e-05
-9.16457e-06
6.50414e-05
-1.00084e-05
7.32129e-05
-9.78693e-06
7.96922e-05
-8.12687e-06
8.41917e-05
-4.62594e-06
8.63904e-05
1.15404e-06
8.5929e-05
9.69506e-06
8.24069e-05
2.15323e-05
7.53771e-05
3.72646e-05
6.43424e-05
5.75657e-05
4.87498e-05
8.3196e-05
2.79857e-05
0.000115014
1.36913e-06
0.000153986
-3.1853e-05
0.000201192
-7.2511e-05
0.000257831
-0.000121514
0.000325212
-0.000179849
0.000404743
-0.000248571
0.000497901
-0.000328793
0.000606186
-0.000421655
0.000731059
-0.00052829
0.000873853
-0.000649773
0.00103565
-0.00078702
0.00121702
-0.000940968
0.00141807
-0.00110988
-0.00131899
0.00164539
-5.202e-07
7.6014e-06
-1.7636e-06
2.15009e-05
-3.44221e-06
3.45153e-05
-5.25257e-06
4.64399e-05
-6.87407e-06
5.70573e-05
-7.96758e-06
6.61349e-05
-8.17304e-06
7.34184e-05
-7.10569e-06
7.86249e-05
-4.35111e-06
8.14372e-05
5.41187e-07
8.14981e-05
8.06539e-06
7.84048e-05
1.87686e-05
7.17037e-05
3.32611e-05
6.08847e-05
5.22271e-05
4.53763e-05
7.64368e-05
2.45402e-05
0.000106757
-2.33427e-06
0.00014416
-3.60338e-05
0.000189731
-7.7424e-05
0.000244668
-0.000127449
0.000310279
-0.000187125
0.000387961
-0.00025753
0.000479171
-0.000339782
0.000585382
-0.000435004
0.00070801
-0.000544283
0.000848328
-0.000668608
0.00100735
-0.000808796
0.00118575
-0.000965415
0.00138324
-0.00113847
0.0015996
-0.00132623
-0.00155769
0.0018383
-4.99714e-07
8.10112e-06
-1.66158e-06
2.26627e-05
-3.17527e-06
3.6029e-05
-4.71326e-06
4.79779e-05
-5.92815e-06
5.82721e-05
-6.45054e-06
6.66573e-05
-5.88561e-06
7.28534e-05
-3.80836e-06
7.65476e-05
2.42555e-07
7.73863e-05
6.77208e-06
7.49685e-05
1.63379e-05
6.8839e-05
2.956e-05
5.84815e-05
4.71318e-05
4.33128e-05
6.9831e-05
2.26771e-05
9.85302e-05
-4.15895e-06
0.000134206
-3.80097e-05
0.000177943
-7.97714e-05
0.000230939
-0.000130419
0.00029449
-0.000191
0.000369979
-0.000262614
0.00045884
-0.000346391
0.000562509
-0.000443451
0.000682356
-0.000554851
0.000819591
-0.000681518
0.000975151
-0.000824169
0.00114957
-0.000983212
0.00134293
-0.00115877
0.00155402
-0.00134956
0.00178256
-0.00155477
-0.00180219
0.00202706
-4.693e-07
8.57042e-06
-1.52073e-06
2.37142e-05
-2.82081e-06
3.73291e-05
-4.01631e-06
4.91734e-05
-4.73071e-06
5.89865e-05
-4.56115e-06
6.64877e-05
-3.07407e-06
7.13664e-05
2.0065e-07
7.32729e-05
5.77668e-06
7.18102e-05
1.42201e-05
6.65252e-05
2.61585e-05
5.69006e-05
4.22918e-05
4.23482e-05
6.34027e-05
2.22019e-05
9.0367e-05
-4.28709e-06
0.000124161
-3.79534e-05
0.000165869
-7.97174e-05
0.000216679
-0.000130581
0.000277876
-0.000191617
0.000350823
-0.000263948
0.000436928
-0.000348719
0.000537589
-0.000447052
0.000654126
-0.000559988
0.000787688
-0.000688412
0.00093914
-0.00083297
0.00110893
-0.000993964
0.00129697
-0.00117125
0.00150257
-0.00136437
0.00172363
-0.00157062
0.00196006
-0.0017912
-0.00204565
0.00220351
-4.27775e-07
8.99819e-06
-1.3364e-06
2.46228e-05
-2.36831e-06
3.8361e-05
-3.14286e-06
4.99479e-05
-3.25187e-06
5.90956e-05
-2.25573e-06
6.54916e-05
3.21925e-07
6.87887e-05
5.00096e-06
6.85938e-05
1.23531e-05
6.44581e-05
2.30109e-05
5.58674e-05
3.76777e-05
4.22337e-05
5.71384e-05
2.28875e-05
8.22683e-05
-2.92802e-06
0.000114042
-3.60603e-05
0.000153535
-7.74467e-05
0.000201927
-0.000128109
0.000260488
-0.000189142
0.00033056
-0.000261688
0.00041352
-0.000346908
0.000510731
-0.000445929
0.000623464
-0.000559785
0.000752812
-0.000689336
0.000899575
-0.000835175
0.00106414
-0.00099753
0.00124633
-0.00117616
0.00144532
-0.00137024
0.00165953
-0.00157858
0.00188618
-0.00179727
0.00212503
-0.00203005
-0.00228049
0.00235988
-3.74343e-07
9.37253e-06
-1.10528e-06
2.53537e-05
-1.8101e-06
3.90658e-05
-2.07884e-06
5.02167e-05
-1.46902e-06
5.84857e-05
4.99024e-07
6.35235e-05
4.34838e-06
6.49393e-05
1.06534e-05
6.22888e-05
2.00484e-05
5.50631e-05
3.32371e-05
4.26787e-05
5.10028e-05
2.4468e-05
7.42175e-05
-3.27112e-07
0.000103849
-3.25592e-05
0.000140964
-7.31756e-05
0.000186729
-0.000123211
0.000242396
-0.000183777
0.000309285
-0.000256031
0.000388746
-0.000341149
0.000482105
-0.000440267
0.000590593
-0.000554418
0.000715253
-0.000684445
0.000856828
-0.000830911
0.00101564
-0.000993988
0.00119147
-0.00117336
0.00138345
-0.00136814
0.00158999
-0.00157677
0.00180862
-0.00179721
0.00203634
-0.002025
0.0022711
-0.0022648
-0.00249877
0.00248937
-3.08613e-07
9.68115e-06
-8.25522e-07
2.58707e-05
-1.14152e-06
3.93818e-05
-8.15254e-07
4.98904e-05
6.32664e-07
5.70378e-05
3.72524e-06
6.0431e-05
9.03616e-06
5.96284e-05
1.7198e-05
5.41269e-05
2.89116e-05
4.33495e-05
4.49553e-05
2.6635e-05
6.61936e-05
3.2296e-06
9.35848e-05
-2.77183e-05
0.000128184
-6.71582e-05
0.00017114
-0.000116132
0.000223688
-0.00017576
0.000287125
-0.000247213
0.000362773
-0.000331679
0.000451929
-0.000430305
0.00055579
-0.000544128
0.000675358
-0.000673986
0.000811333
-0.00082042
0.000963992
-0.00098357
0.00113307
-0.00116307
0.00131766
-0.00135795
0.00151614
-0.00156662
0.00172623
-0.00178686
0.00194484
-0.00201582
0.00216934
-0.00224949
0.00239411
-0.00248957
-0.00269368
0.00258903
-2.30569e-07
9.91172e-06
-4.96586e-07
2.61367e-05
-3.60649e-07
3.92459e-05
6.51954e-07
4.88778e-05
3.06043e-06
5.46293e-05
7.43424e-06
5.60572e-05
1.44008e-05
5.26618e-05
2.46543e-05
4.38734e-05
3.89646e-05
2.90393e-05
5.81856e-05
7.41395e-06
8.32626e-05
-2.18473e-05
0.000115235
-5.96905e-05
0.000155234
-0.000107157
0.000204474
-0.000165372
0.00026423
-0.000235515
0.000335799
-0.000318783
0.000420454
-0.000416334
0.000519365
-0.000529215
0.000633506
-0.000658269
0.000763551
-0.00080403
0.000909749
-0.000966618
0.00107181
-0.00114563
0.00124879
-0.00134005
0.00143907
-0.00154823
0.00164032
-0.00176787
0.00184962
-0.00199616
0.00206353
-0.00222973
0.00227966
-0.00246562
0.00249196
-0.00270187
-0.00292011
0.00271839
-1.40499e-07
1.00522e-05
-1.18959e-07
2.61151e-05
5.31707e-07
3.85952e-05
2.32255e-06
4.70869e-05
5.81492e-06
5.1137e-05
1.16275e-05
5.02446e-05
2.04442e-05
4.38451e-05
3.30229e-05
3.12948e-05
5.02035e-05
1.18587e-05
7.29148e-05
-1.52973e-05
0.000102178
-5.11103e-05
0.000139104
-9.66165e-05
0.000184885
-0.000152939
0.000240773
-0.000221261
0.000308046
-0.000302788
0.000387955
-0.000398691
0.000481649
-0.000510029
0.000590092
-0.000637658
0.000713945
-0.000782122
0.00085345
-0.000943536
0.00100831
-0.00112148
0.0011776
-0.00131492
0.00135968
-0.00152213
0.00155224
-0.00174078
0.00175232
-0.00196795
0.00195658
-0.00220042
0.0021615
-0.00243465
0.00236408
-0.0026682
0.00256001
-0.0028978
-0.00311767
0.00275757
-3.89629e-08
1.00912e-05
3.05529e-07
2.57706e-05
1.53323e-06
3.73675e-05
4.19318e-06
4.4427e-05
8.89153e-06
4.64386e-05
1.62986e-05
4.28376e-05
2.71567e-05
3.2987e-05
4.22884e-05
1.6163e-05
6.26029e-05
-8.45583e-06
8.90997e-05
-4.17942e-05
0.000122868
-8.48782e-05
0.000165076
-0.000138824
0.000216953
-0.000204816
0.000279758
-0.000284065
0.000354724
-0.000377754
0.000442991
-0.000486959
0.00054552
-0.000612557
0.000662975
-0.000755113
0.000795613
-0.00091476
0.000943162
-0.00109108
0.00110472
-0.00128304
0.00127868
-0.00148888
0.00146276
-0.00170621
0.00165404
-0.00193206
0.00184917
-0.00216309
0.0020446
-0.00239585
0.00223691
-0.00262696
0.00242308
-0.00285438
0.0026002
-0.00307492
-0.00328824
0.00277077
7.35409e-08
1.00176e-05
7.75583e-07
2.50686e-05
2.64061e-06
3.55025e-05
6.25843e-06
4.08092e-05
1.22822e-05
4.04149e-05
2.14356e-05
3.36842e-05
3.45205e-05
1.99021e-05
5.24234e-05
-1.73991e-06
7.61197e-05
-3.21521e-05
0.000106673
-7.23474e-05
0.000145227
-0.000123432
0.000192989
-0.000186586
0.000251197
-0.000263024
0.000321071
-0.000353939
0.000403748
-0.000460431
0.000500194
-0.000583404
0.000611092
-0.000723456
0.000736732
-0.000880753
0.000876885
-0.00105491
0.0010307
-0.0012449
0.00119664
-0.00144897
0.00137247
-0.00166471
0.00155534
-0.00188908
0.00174194
-0.00211867
0.00192875
-0.00234989
0.0021123
-0.0025794
0.00228957
-0.00280423
0.00245806
-0.00302286
0.00261583
-0.0032327
-0.00343686
0.00276445
1.96415e-07
9.82122e-06
1.28922e-06
2.39758e-05
3.85019e-06
3.29415e-05
8.51213e-06
3.61472e-05
1.59771e-05
3.29499e-05
2.70234e-05
2.26379e-05
4.25121e-05
4.4134e-06
6.33915e-05
-2.26193e-05
9.06974e-05
-5.94581e-05
0.000125547
-0.000107197
0.000169123
-0.000167008
0.000222643
-0.000240107
0.000287319
-0.000327699
0.000364285
-0.000430906
0.000454521
-0.000550667
0.000558743
-0.000687626
0.000677285
-0.000841998
0.000809982
-0.00101345
0.000956062
-0.00120099
0.00111407
-0.00140291
0.00128187
-0.00161677
0.00145667
-0.00183952
0.00163525
-0.00206766
0.00181413
-0.00229754
0.00198987
-0.00252563
0.00215942
-0.00274895
0.00232037
-0.00296518
0.00247101
-0.0031735
0.0026105
-0.00337219
-0.00356642
0.00274005
3.29271e-07
9.49195e-06
1.84501e-06
2.24601e-05
5.15879e-06
2.96278e-05
1.09485e-05
3.03575e-05
1.99664e-05
2.3932e-05
3.30457e-05
9.55858e-06
5.1105e-05
-1.36459e-05
7.51501e-05
-4.66644e-05
0.000106269
-9.05768e-05
0.000145618
-0.000146546
0.000194395
-0.000215785
0.0002538
-0.000299512
0.000324973
-0.000398872
0.000408909
-0.000514843
0.000506365
-0.000648123
0.000617735
-0.000798995
0.000742933
-0.000967196
0.000881284
-0.0011518
0.00103144
-0.00135115
0.00119138
-0.00156284
0.00135841
-0.00178381
0.0015294
-0.0020105
0.00170091
-0.00223917
0.00186955
-0.00246618
0.00203228
-0.00268836
0.00218664
-0.00290331
0.00233101
-0.00310956
0.00246456
-0.00330705
0.00258742
-0.00349505
-0.00367985
0.00270086
4.71931e-07
9.02002e-06
2.44213e-06
2.04899e-05
6.56428e-06
2.55056e-05
1.35629e-05
2.33589e-05
2.42411e-05
1.32537e-05
3.94861e-05
-5.68642e-06
6.02711e-05
-3.44309e-05
8.76522e-05
-7.40455e-05
0.000122758
-0.000125682
0.000166764
-0.000190552
0.00022086
-0.000269881
0.000286187
-0.000364839
0.000363764
-0.000476449
0.000454391
-0.00060547
0.000558532
-0.000752264
0.000676196
-0.000916658
0.000806819
-0.00109782
0.000949187
-0.00129417
0.00110139
-0.00150336
0.0012609
-0.00172234
0.00142463
-0.00194754
0.00158925
-0.00217512
0.00175138
-0.00240131
0.00190797
-0.00262278
0.00205655
-0.00283693
0.0021954
-0.00304217
0.00232375
-0.00323791
0.00244159
-0.00342488
0.0025498
-0.00360326
-0.00377981
0.00264976
6.24484e-07
8.39554e-06
3.08053e-06
1.80338e-05
8.06569e-06
2.05205e-05
1.63521e-05
1.50726e-05
2.87935e-05
8.12306e-07
4.63288e-05
-2.32217e-05
6.99804e-05
-5.80825e-05
0.000100846
-0.000104911
0.000140077
-0.000164914
0.00018885
-0.000239325
0.000248307
-0.000329339
0.000319492
-0.000436024
0.00040325
-0.000560207
0.000500121
-0.000702341
0.000610218
-0.000862361
0.000733106
-0.00103955
0.000867716
-0.00123243
0.00101229
-0.00143875
0.00116443
-0.0016555
0.00132118
-0.0018791
0.00147928
-0.00210564
0.00163538
-0.00233122
0.00178642
-0.00255234
0.00192985
-0.0027662
0.00206389
-0.00297098
0.00218766
-0.00316594
0.00230112
-0.00335137
0.00240496
-0.00352872
0.00250058
-0.00369888
-0.00386863
0.0025894
7.87273e-07
7.60826e-06
3.76082e-06
1.50603e-05
9.66316e-06
1.46181e-05
1.93141e-05
5.42168e-06
3.36165e-05
-1.34902e-05
5.35573e-05
-4.31624e-05
8.02003e-05
-8.47255e-05
0.000114671
-0.000139382
0.000158129
-0.000208371
0.000211716
-0.000292912
0.000276496
-0.000394119
0.000353364
-0.000512891
0.000442937
-0.00064978
0.000545438
-0.000804842
0.000660573
-0.000977495
0.00078743
-0.0011664
0.000924425
-0.00136942
0.00106931
-0.00158363
0.00121928
-0.00180546
0.00137114
-0.00203096
0.00152159
-0.00225609
0.00166754
-0.00247717
0.00180638
-0.00269118
0.0019362
-0.00289603
0.00205601
-0.00309078
0.00216563
-0.00327556
0.00226569
-0.00345144
0.00235737
-0.0036204
0.00244235
-0.00378386
-0.00394831
0.00252203
9.60836e-07
6.64743e-06
4.48414e-06
1.1537e-05
1.13575e-05
7.74474e-06
2.24474e-05
-5.66818e-06
3.8703e-05
-2.97458e-05
6.11531e-05
-6.56125e-05
9.08931e-05
-0.000114466
0.000129061
-0.00017755
0.000176797
-0.000256107
0.000235181
-0.000351296
0.000305153
-0.000464091
0.000387411
-0.000595149
0.000482289
-0.000744659
0.00058964
-0.000912194
0.000708727