/*--------------------------------*- C++ -*----------------------------------*\
  =========                 |
  \\      /  F ield         | OpenFOAM: The Open Source CFD Toolbox
   \\    /   O peration     | Website:  https://openfoam.org
    \\  /    A nd           | Version:  7
     \\/     M anipulation  |
\*---------------------------------------------------------------------------*/
FoamFile
{
    version     2.0;
    format      ascii;
    class       volVectorField;
    location    "25";
    object      U;
}
// * * * * * * * * * * * * * * * * * * * * * * * * * * * * * * * * * * * * * //

dimensions      [0 1 -1 0 0 0 0];

internalField   nonuniform List<vector> 
392
(
(1.02456 0.450843 -8.66018e-21)
(0.986531 0.46299 -6.74137e-20)
(1.00214 0.447166 8.46714e-20)
(0.943545 0.476939 4.7489e-20)
(0.960033 0.458539 3.30266e-20)
(0.977922 0.441918 -1.00561e-19)
(0.900076 0.492178 -6.26023e-20)
(0.914908 0.473067 -3.04618e-20)
(0.931111 0.453214 6.62236e-20)
(0.858027 0.50623 9.10786e-20)
(0.872172 0.488673 1.17291e-19)
(0.885691 0.469302 -1.06875e-19)
(0.816022 0.517163 6.54016e-21)
(0.831626 0.501666 -1.22486e-19)
(0.845523 0.484411 -6.91315e-20)
(0.772181 0.524204 1.27612e-19)
(0.790221 0.510791 5.61428e-20)
(0.806389 0.495239 -1.11369e-19)
(0.725607 0.527164 2.10025e-19)
(0.746272 0.516101 -1.46832e-19)
(0.764974 0.502434 2.54621e-20)
(0.676161 0.525773 -1.50347e-19)
(0.699441 0.517438 -1.51716e-20)
(0.720708 0.506036 1.38645e-19)
(0.624033 0.519685 -2.09183e-20)
(0.649813 0.514473 1.81492e-19)
(0.673582 0.505752 -1.72723e-19)
(0.569603 0.508567 5.85157e-20)
(0.597679 0.50684 7.54087e-20)
(0.623808 0.501196 -1.47344e-19)
(0.64811 0.492168 2.41765e-19)
(0.543476 0.494213 1.2288e-19)
(0.571743 0.491997 -2.51186e-19)
(0.598261 0.486002 7.41591e-20)
(0.487762 0.476361 9.37223e-20)
(0.517859 0.477851 -8.10741e-20)
(0.546355 0.475219 3.7549e-20)
(0.431213 0.453179 -1.57696e-19)
(0.462745 0.458563 1.66213e-19)
(0.492895 0.459544 -7.8327e-20)
(0.521649 0.456574 -6.75875e-20)
(0.407095 0.434084 -9.35915e-21)
(0.438488 0.438832 1.79041e-20)
(0.468722 0.439369 -4.58298e-20)
(0.351698 0.404537 3.96524e-20)
(0.383843 0.41309 6.03703e-20)
(0.415133 0.417249 -1.33631e-19)
(0.445477 0.417405 9.60502e-20)
(0.297428 0.370246 6.57933e-20)
(0.329757 0.382512 -1.61858e-19)
(0.3616 0.390285 1.71363e-19)
(0.392818 0.3939 1.24729e-19)
(0.277097 0.347497 -5.0638e-20)
(0.308922 0.358744 2.26413e-20)
(0.340502 0.365764 -1.97075e-19)
(0.371674 0.368884 -6.06313e-20)
(0.226774 0.308672 4.82607e-20)
(0.257957 0.323105 2.7897e-19)
(0.289326 0.333337 -1.12368e-19)
(0.320679 0.339632 1.39839e-19)
(0.209591 0.284077 -1.45768e-19)
(0.240132 0.297179 -6.94071e-20)
(0.271094 0.306404 1.37021e-19)
(0.302253 0.312002 -1.48102e-19)
(0.193777 0.258084 7.64655e-20)
(0.223741 0.269841 -1.09025e-19)
(0.254342 0.278066 4.29057e-21)
(0.151093 0.217078 -2.47473e-20)
(0.179439 0.230818 6.49529e-20)
(0.20889 0.241217 5.05368e-20)
(0.239175 0.24845 -1.38151e-19)
(0.138969 0.19044 1.95553e-20)
(0.166674 0.202411 -6.01431e-20)
(0.195677 0.211441 6.03885e-20)
(0.225689 0.21769 -3.70862e-20)
(0.128415 0.162827 4.74988e-20)
(0.155569 0.173001 -1.33875e-20)
(0.184188 0.180655 2.43045e-21)
(0.213969 0.185928 8.4935e-20)
(0.119506 0.134379 9.48622e-20)
(0.146199 0.142734 -3.66732e-20)
(0.174498 0.149005 2.40471e-20)
(0.0880228 0.0970175 -4.428e-20)
(0.112303 0.105241 -3.27002e-20)
(0.138626 0.111757 -2.52112e-20)
(0.166669 0.11664 8.03394e-20)
(0.0829491 0.069669 -3.48164e-20)
(0.106857 0.0755612 2.75974e-20)
(0.132901 0.0802261 3.17971e-21)
(0.160753 0.0837164 2.26648e-20)
(0.0795463 0.0419502 -1.96916e-20)
(0.103205 0.0454929 1.66974e-20)
(0.129063 0.0482959 -5.44753e-21)
(0.156787 0.0503911 1.51712e-21)
(0.0778388 0.0140082 3.24621e-21)
(0.101373 0.0151904 -5.75808e-21)
(0.127137 0.0161254 -1.61502e-20)
(0.154798 0.016824 -1.06309e-20)
(0.0778388 -0.0140082 -1.26379e-20)
(0.101373 -0.0151903 -9.00454e-21)
(0.127137 -0.0161253 -4.36769e-22)
(0.154798 -0.0168239 -1.11141e-20)
(0.0795463 -0.0419502 1.72259e-20)
(0.103205 -0.0454928 -2.43359e-20)
(0.129063 -0.0482958 2.56253e-20)
(0.156787 -0.0503911 2.98181e-20)
(0.0829491 -0.069669 6.84601e-20)
(0.106857 -0.0755611 -2.09638e-20)
(0.132901 -0.0802261 2.12723e-21)
(0.160753 -0.0837164 -6.65811e-20)
(0.0880228 -0.0970175 2.24937e-20)
(0.112303 -0.105241 2.5103e-20)
(0.138626 -0.111757 -1.80189e-20)
(0.166669 -0.11664 2.26809e-20)
(0.119506 -0.134379 -3.75382e-20)
(0.146199 -0.142734 2.25754e-20)
(0.174498 -0.149005 -5.7207e-20)
(0.128415 -0.162827 -3.83227e-20)
(0.155569 -0.173001 -1.78209e-21)
(0.184188 -0.180655 -2.30115e-21)
(0.213969 -0.185928 2.33941e-20)
(0.138969 -0.19044 -9.06952e-20)
(0.166674 -0.202411 9.32887e-20)
(0.195677 -0.211441 -1.38332e-20)
(0.225689 -0.21769 -2.38664e-20)
(0.151093 -0.217078 5.27517e-20)
(0.179439 -0.230818 7.21741e-20)
(0.20889 -0.241217 7.20887e-21)
(0.239175 -0.24845 -3.68546e-20)
(0.193777 -0.258084 -1.28243e-19)
(0.223741 -0.269841 -1.23976e-20)
(0.254342 -0.278065 6.91093e-20)
(0.209591 -0.284077 -4.75995e-21)
(0.240132 -0.297179 -7.15594e-20)
(0.271094 -0.306404 -1.55914e-19)
(0.302253 -0.312002 7.22356e-20)
(0.257957 -0.323105 1.13757e-20)
(0.289326 -0.333337 1.34868e-19)
(0.320679 -0.339632 6.86252e-20)
(0.277097 -0.347497 3.22945e-20)
(0.308922 -0.358744 3.29555e-20)
(0.340502 -0.365764 -1.42776e-19)
(0.371674 -0.368884 -4.23739e-20)
(0.297428 -0.370246 -8.13991e-20)
(0.329757 -0.382512 -2.14718e-20)
(0.3616 -0.390285 2.19722e-20)
(0.392818 -0.3939 6.90918e-20)
(0.351698 -0.404537 1.38698e-19)
(0.383843 -0.41309 1.02724e-19)
(0.415133 -0.417248 2.25286e-20)
(0.445477 -0.417405 -9.66697e-20)
(0.407095 -0.434084 -1.6198e-19)
(0.438488 -0.438832 -2.28709e-20)
(0.468722 -0.439369 7.54022e-20)
(0.431213 -0.453179 1.79858e-19)
(0.462745 -0.458563 -7.68642e-20)
(0.492895 -0.459544 -1.26917e-19)
(0.521649 -0.456574 1.8527e-19)
(0.487762 -0.476361 -1.57817e-19)
(0.517859 -0.477851 1.82135e-19)
(0.546355 -0.475219 -4.71674e-20)
(0.543476 -0.494213 -1.64471e-19)
(0.571743 -0.491997 8.3294e-20)
(0.598261 -0.486002 -9.10712e-20)
(0.569603 -0.508567 5.82973e-20)
(0.597679 -0.50684 1.13187e-20)
(0.623808 -0.501196 -1.24895e-20)
(0.64811 -0.492167 -1.05518e-19)
(0.624033 -0.519685 -5.97635e-21)
(0.649813 -0.514473 7.71631e-21)
(0.673582 -0.505752 -1.65227e-19)
(0.676161 -0.525773 1.3788e-19)
(0.699441 -0.517438 7.62405e-20)
(0.720708 -0.506036 -1.91502e-19)
(0.725607 -0.527164 -6.93965e-20)
(0.746272 -0.516101 9.36221e-20)
(0.764974 -0.502434 -1.80592e-19)
(0.772181 -0.524204 -2.15512e-20)
(0.790221 -0.510791 6.51416e-20)
(0.806389 -0.495239 7.07698e-20)
(0.816022 -0.517163 2.72987e-20)
(0.831626 -0.501666 3.52507e-20)
(0.845523 -0.484411 -1.39969e-20)
(0.858027 -0.50623 3.67503e-20)
(0.872172 -0.488673 -5.58653e-21)
(0.885691 -0.469302 1.01445e-19)
(0.900075 -0.492178 3.40248e-20)
(0.914908 -0.473067 2.32178e-20)
(0.931111 -0.453214 -9.74574e-20)
(0.943545 -0.476939 -3.48159e-20)
(0.960033 -0.458539 7.117e-20)
(0.977922 -0.441918 -1.61929e-20)
(0.986531 -0.46299 -5.547e-21)
(1.00214 -0.447166 1.64077e-19)
(1.02456 -0.450842 -1.23326e-19)
(1.04707 0.420356 1.56303e-21)
(1.06401 0.385554 -4.34854e-21)
(1.07871 0.353553 -1.82569e-20)
(1.09112 0.32613 2.94834e-21)
(1.10175 0.302222 1.13355e-20)
(1.11053 0.281102 -1.45517e-20)
(1.11748 0.262124 3.03309e-21)
(1.12276 0.244838 1.28249e-21)
(1.12661 0.22895 -3.8221e-21)
(1.12926 0.214257 5.97219e-21)
(1.13095 0.200612 -1.2286e-21)
(1.13187 0.187904 -2.39208e-21)
(1.13218 0.176039 4.54703e-21)
(1.13203 0.164937 -8.97815e-21)
(1.13152 0.154529 6.08756e-21)
(1.13072 0.144749 4.2182e-21)
(1.12972 0.13554 -1.15234e-20)
(1.12855 0.12685 3.80994e-21)
(1.12727 0.11863 -3.2832e-21)
(1.1259 0.110837 -2.8302e-21)
(1.12449 0.10343 1.17292e-20)
(1.12304 0.0963753 -4.65007e-21)
(1.12159 0.0896387 -4.07621e-21)
(1.12014 0.0831909 -2.3808e-25)
(1.11873 0.0770045 3.69092e-21)
(1.11735 0.0710546 -4.21768e-21)
(1.11602 0.0653185 2.03106e-21)
(1.11476 0.0597748 -3.26467e-21)
(1.11357 0.054404 3.82926e-21)
(1.11245 0.049188 -1.12312e-21)
(1.11143 0.0441097 -3.77536e-21)
(1.11049 0.0391532 1.77755e-22)
(1.10965 0.0343033 -1.66531e-21)
(1.1089 0.0295458 1.64393e-21)
(1.10827 0.024867 -9.89453e-22)
(1.02956 0.417097 -6.36288e-22)
(1.04888 0.38445 4.14179e-20)
(1.06566 0.353088 -2.50108e-20)
(1.07987 0.32629 -9.2711e-21)
(1.09203 0.302869 1.25605e-20)
(1.10207 0.282067 -4.55151e-21)
(1.11007 0.26328 -2.87364e-21)
(1.11621 0.246095 -3.08047e-22)
(1.12078 0.230244 -8.76142e-22)
(1.12403 0.215546 5.96861e-21)
(1.12621 0.201869 -6.10917e-21)
(1.12756 0.18911 3.60874e-21)
(1.12824 0.177185 -4.76685e-21)
(1.1284 0.166018 7.38817e-21)
(1.12815 0.155542 -1.03692e-20)
(1.12759 0.145695 -2.77076e-21)
(1.12678 0.136421 -6.54494e-22)
(1.12579 0.127667 -1.08809e-21)
(1.12467 0.119387 5.70771e-21)
(1.12344 0.111537 -2.4934e-21)
(1.12214 0.104077 3.57307e-21)
(1.12079 0.0969715 -7.61378e-21)
(1.11943 0.0901872 6.04702e-21)
(1.11807 0.0836945 1.72929e-22)
(1.11672 0.0774658 4.8599e-22)
(1.1154 0.0714761 3.36429e-21)
(1.11413 0.0657023 -4.85198e-22)
(1.11291 0.060123 -2.25654e-21)
(1.11176 0.0547184 -2.98488e-21)
(1.11068 0.0494703 6.33471e-21)
(1.10968 0.0443613 -4.59033e-21)
(1.10877 0.0393753 2.58849e-21)
(1.10795 0.0344971 -2.83814e-21)
(1.10722 0.0297122 1.97061e-21)
(1.1066 0.0250069 -1.08101e-21)
(1.10608 0.020368 8.80338e-22)
(1.10566 0.0157829 6.86169e-22)
(1.10535 0.0112395 7.11496e-22)
(1.10515 0.00672718 3.81204e-22)
(1.10506 0.00223212 5.62288e-22)
(1.1239 0.137289 9.45081e-21)
(1.12308 0.128475 -6.12724e-23)
(1.12211 0.120136 -3.69887e-21)
(1.12101 0.11223 -5.23272e-21)
(1.11983 0.104717 7.08939e-21)
(1.11858 0.0975615 -7.55691e-21)
(1.11731 0.0907302 -4.00361e-21)
(1.11602 0.0841931 4.57397e-21)
(1.11474 0.0779226 8.39036e-22)
(1.11349 0.0718935 -1.19867e-21)
(1.11226 0.0660824 -7.69542e-22)
(1.11109 0.0604678 -1.13587e-21)
(1.10998 0.0550298 1.57343e-21)
(1.10893 0.0497498 -1.20897e-21)
(1.10796 0.0446104 -3.09026e-21)
(1.10707 0.0395953 1.44355e-21)
(1.10627 0.0346891 1.79999e-21)
(1.10556 0.0298772 -1.84706e-21)
(1.10494 0.0251456 -1.42035e-21)
(1.10443 0.0204811 -5.1687e-22)
(1.10402 0.0158709 2.45006e-22)
(1.10372 0.0113026 4.55932e-22)
(1.10352 0.0067654 -1.32758e-21)
(1.10342 0.00224576 -1.02334e-21)
(1.10266 -0.264287 -6.57916e-21)
(1.10969 -0.247241 6.02868e-21)
(1.11498 -0.231456 -1.43084e-20)
(1.11884 -0.216774 1.16419e-20)
(1.12153 -0.203079 -1.0075e-20)
(1.1233 -0.190281 6.99998e-21)
(1.12435 -0.178303 -2.7153e-21)
(1.12481 -0.167076 -2.70868e-21)
(1.12483 -0.156537 3.08789e-21)
(1.1245 -0.146626 1.76441e-21)
(1.1239 -0.137289 -2.39902e-21)
(1.12308 -0.128475 1.19607e-21)
(1.12211 -0.120136 2.12288e-21)
(1.12101 -0.11223 4.77988e-21)
(1.11983 -0.104717 -8.73233e-21)
(1.11858 -0.0975615 7.10571e-21)
(1.11731 -0.0907302 5.09802e-21)
(1.11602 -0.0841931 -5.02439e-21)
(1.11474 -0.0779226 -2.47585e-21)
(1.11349 -0.0718935 -3.63059e-22)
(1.11226 -0.0660824 9.52185e-22)
(1.11109 -0.0604678 1.86931e-21)
(1.10998 -0.0550298 -1.39085e-21)
(1.10893 -0.0497498 -3.51706e-22)
(1.10796 -0.0446104 4.18206e-21)
(1.10707 -0.0395953 -8.86081e-22)
(1.10627 -0.0346891 -7.08957e-22)
(1.10556 -0.0298772 1.39796e-21)
(1.10494 -0.0251456 -2.11418e-22)
(1.10443 -0.0204811 6.84166e-23)
(1.10402 -0.0158709 8.42841e-22)
(1.10372 -0.0113026 -2.00886e-21)
(1.10352 -0.0067654 8.06494e-22)
(1.10342 -0.00224576 -5.37115e-22)
(1.02956 -0.417097 -1.19704e-21)
(1.04888 -0.38445 -3.8943e-20)
(1.06566 -0.353088 2.20342e-20)
(1.07987 -0.32629 8.92842e-21)
(1.09203 -0.302869 -1.19698e-20)
(1.10207 -0.282067 4.68012e-21)
(1.11007 -0.26328 6.51319e-22)
(1.11621 -0.246095 -1.79421e-21)
(1.12078 -0.230244 2.95821e-21)
(1.12403 -0.215546 -6.98632e-21)
(1.12621 -0.201869 5.30676e-21)
(1.12756 -0.18911 -3.54674e-21)
(1.12824 -0.177185 4.50692e-21)
(1.1284 -0.166018 -9.05912e-21)
(1.12815 -0.155542 9.23753e-21)
(1.12759 -0.145695 -5.51922e-23)
(1.12678 -0.136421 1.28655e-21)
(1.12579 -0.127667 2.6578e-22)
(1.12467 -0.119387 -5.01838e-21)
(1.12344 -0.111537 1.27465e-21)
(1.12214 -0.104077 -1.67578e-21)
(1.12079 -0.0969715 6.17161e-21)
(1.11943 -0.0901872 -6.88926e-21)
(1.11807 -0.0836945 7.65428e-23)
(1.11672 -0.0774658 1.47027e-21)
(1.1154 -0.0714761 -1.62221e-21)
(1.11413 -0.0657023 -5.36821e-22)
(1.11291 -0.060123 1.69768e-21)
(1.11176 -0.0547184 2.89661e-21)
(1.11068 -0.0494703 -5.44881e-21)
(1.10968 -0.0443613 3.50962e-21)
(1.10877 -0.0393753 -2.66714e-21)
(1.10795 -0.0344971 1.5379e-21)
(1.10722 -0.0297122 -1.42409e-21)
(1.1066 -0.0250069 1.17658e-21)
(1.10608 -0.020368 -4.29617e-22)
(1.10566 -0.0157829 -1.77972e-21)
(1.10535 -0.0112395 8.49854e-22)
(1.10515 -0.00672718 1.428e-22)
(1.10506 -0.00223212 1.00731e-21)
(1.04707 -0.420356 2.54731e-22)
(1.06401 -0.385554 1.89366e-21)
(1.07871 -0.353553 2.12111e-20)
(1.09112 -0.32613 -2.60806e-21)
(1.10175 -0.302222 -1.19224e-20)
(1.11053 -0.281102 1.44239e-20)
(1.11748 -0.262124 -1.82978e-21)
(1.12276 -0.244838 5.76384e-22)
(1.12661 -0.22895 3.62964e-21)
(1.12926 -0.214257 -5.16874e-21)
(1.13095 -0.200612 1.21275e-21)
(1.13187 -0.187904 2.13257e-21)
(1.13218 -0.176039 -2.63174e-21)
(1.13203 -0.164937 8.80408e-21)
(1.13152 -0.154529 -4.49311e-21)
(1.13072 -0.144749 -3.17266e-21)
(1.12972 -0.13554 1.13495e-20)
(1.12855 -0.12685 -4.12193e-21)
(1.12727 -0.11863 4.17001e-21)
(1.1259 -0.110837 4.50272e-21)
(1.12449 -0.10343 -1.19824e-20)
(1.12304 -0.0963753 6.54618e-21)
(1.12159 -0.0896387 3.8219e-21)
(1.12014 -0.0831909 2.02419e-22)
)
;

boundaryField
{
    inlet
    {
        type            uniformFixedValue;
        uniformValue    constant (1 0 0);
        value           nonuniform 0();
    }
    outlet
    {
        type            pressureInletOutletVelocity;
        value           nonuniform 0();
    }
    cylinder
    {
        type            fixedValue;
        value           nonuniform 0();
    }
    top
    {
        type            symmetryPlane;
    }
    bottom
    {
        type            symmetryPlane;
    }
    defaultFaces
    {
        type            empty;
    }
    procBoundary5to4
    {
        type            processor;
        value           nonuniform List<vector> 
164
(
(0.950435 0.43512 1.4773e-20)
(1.01174 0.412586 -4.33588e-20)
(0.950435 0.43512 1.4773e-20)
(0.899948 0.44847 -1.04575e-19)
(0.899948 0.44847 -1.04575e-19)
(0.857979 0.465859 -1.90923e-19)
(0.857979 0.465859 -1.90923e-19)
(0.820914 0.478159 -9.76778e-20)
(0.820914 0.478159 -9.76778e-20)
(0.781949 0.486747 -9.0316e-21)
(0.781949 0.486747 -9.0316e-21)
(0.74017 0.492137 1.18811e-19)
(0.74017 0.492137 1.18811e-19)
(0.695507 0.494076 -1.29006e-19)
(0.695507 0.494076 -1.29006e-19)
(0.670724 0.480303 -5.73753e-20)
(0.623122 0.476757 1.63701e-19)
(0.623122 0.476757 1.63701e-19)
(0.57329 0.468959 1.02277e-20)
(0.57329 0.468959 1.02277e-20)
(0.549021 0.45014 -7.059e-20)
(0.497757 0.436139 -9.29467e-20)
(0.497757 0.436139 -9.29467e-20)
(0.47481 0.413995 -8.27081e-20)
(0.423293 0.393741 1.40405e-19)
(0.423293 0.393741 1.40405e-19)
(0.402296 0.368472 5.87894e-20)
(0.351828 0.342303 5.0362e-20)
(0.351828 0.342303 5.0362e-20)
(0.333396 0.314268 -4.0126e-21)
(0.285335 0.282993 7.21239e-20)
(0.285335 0.282993 7.21239e-20)
(0.270029 0.252732 -2.0929e-20)
(0.256427 0.221351 -2.69109e-20)
(0.244613 0.188988 1.2127e-19)
(0.204088 0.153309 2.41615e-20)
(0.204088 0.153309 2.41615e-20)
(0.196108 0.119981 -7.90482e-21)
(0.190079 0.0860991 4.67137e-20)
(0.186039 0.0518192 -6.78898e-21)
(0.184013 0.0172998 6.99755e-22)
(0.184013 -0.0172997 -1.10212e-20)
(0.186039 -0.0518192 1.61508e-20)
(0.190079 -0.0860991 3.71569e-20)
(0.196108 -0.119981 -3.42665e-20)
(0.204088 -0.153309 -6.49008e-20)
(0.204088 -0.153309 -6.49008e-20)
(0.244613 -0.188988 -3.82659e-20)
(0.256427 -0.221351 -6.07808e-20)
(0.270029 -0.252732 6.59453e-20)
(0.285335 -0.282993 -9.35009e-20)
(0.285335 -0.282993 -9.35009e-20)
(0.333396 -0.314268 -5.12488e-20)
(0.351828 -0.342303 1.93017e-20)
(0.351828 -0.342303 1.93017e-20)
(0.402296 -0.368472 -1.70399e-19)
(0.423293 -0.393741 3.13052e-21)
(0.423293 -0.393741 3.13052e-21)
(0.47481 -0.413995 5.59764e-20)
(0.497757 -0.436139 -7.64592e-20)
(0.497757 -0.436139 -7.64592e-20)
(0.549021 -0.45014 1.8318e-20)
(0.57329 -0.468959 1.1964e-19)
(0.57329 -0.468959 1.1964e-19)
(0.623122 -0.476757 -1.88417e-20)
(0.623122 -0.476757 -1.88417e-20)
(0.670724 -0.480303 9.64006e-20)
(0.695507 -0.494076 8.71e-20)
(0.695507 -0.494076 8.71e-20)
(0.74017 -0.492137 1.79458e-21)
(0.74017 -0.492137 1.79458e-21)
(0.781949 -0.486747 -5.90616e-20)
(0.781949 -0.486747 -5.90616e-20)
(0.820914 -0.478159 -3.42852e-20)
(0.820914 -0.478159 -3.42852e-20)
(0.857979 -0.465859 3.74608e-20)
(0.857979 -0.465859 3.74608e-20)
(0.899948 -0.44847 -9.18168e-20)
(0.899948 -0.44847 -9.18168e-20)
(0.950435 -0.43512 -1.85034e-19)
(0.950435 -0.43512 -1.85034e-19)
(1.01174 -0.412586 4.10396e-20)
(1.01174 0.412586 -4.33588e-20)
(1.03354 0.382588 1.47076e-20)
(1.05238 0.352107 4.63717e-21)
(1.0685 0.326067 5.40732e-21)
(1.08224 0.303242 -1.30298e-20)
(1.09359 0.282832 1.56918e-20)
(1.10266 0.264287 -6.01099e-21)
(1.10969 0.247241 -6.02868e-21)
(1.11498 0.231456 1.43084e-20)
(1.11884 0.216774 -1.16419e-20)
(1.12153 0.203079 1.0075e-20)
(1.1233 0.190281 -6.99998e-21)
(1.12435 0.178303 2.71529e-21)
(1.12481 0.167076 2.70868e-21)
(1.12483 0.156537 -3.08789e-21)
(1.1245 0.146626 -1.76441e-21)
(1.1245 0.146626 -1.76441e-21)
(1.12104 0.138147 -8.53484e-21)
(1.1204 0.129273 1.36057e-21)
(1.11957 0.120877 3.93601e-21)
(1.11861 0.112916 -1.20511e-21)
(1.11754 0.105351 4.50963e-21)
(1.1164 0.0981464 -1.01365e-20)
(1.11521 0.0912685 6.15786e-21)
(1.114 0.0846875 -2.86188e-21)
(1.11279 0.0783755 -3.65089e-21)
(1.11159 0.0723073 5.65633e-21)
(1.11042 0.0664592 -2.11719e-21)
(1.10929 0.0608097 -1.88887e-21)
(1.10821 0.0553385 -9.71079e-22)
(1.10719 0.0500269 -8.4699e-22)
(1.10625 0.0448573 -2.72593e-21)
(1.10538 0.0398134 2.5103e-21)
(1.1046 0.0348794 -1.23953e-21)
(1.1039 0.0300407 -5.61975e-22)
(1.1033 0.0252832 2.95769e-21)
(1.10279 0.0205934 -2.37605e-22)
(1.10239 0.0159583 -2.51675e-21)
(1.10208 0.0113655 1.14619e-21)
(1.10188 0.00680361 -1.43125e-21)
(1.10179 0.00225952 2.82682e-23)
(1.09498 -0.265129 6.89521e-21)
(1.10298 -0.248266 -7.15614e-21)
(1.10906 -0.23258 -3.69353e-21)
(1.11357 -0.217937 1.7833e-21)
(1.11681 -0.204241 -3.59626e-21)
(1.11903 -0.191416 -2.50886e-21)
(1.12045 -0.179394 1.31883e-21)
(1.12124 -0.168114 6.551e-21)
(1.12153 -0.157516 -2.87954e-21)
(1.12144 -0.147545 -6.61718e-21)
(1.12104 -0.138147 8.80506e-21)
(1.1204 -0.129273 -1.34141e-21)
(1.11957 -0.120877 -3.3624e-21)
(1.11861 -0.112916 8.7509e-22)
(1.11754 -0.105351 -4.49108e-21)
(1.1164 -0.0981464 1.01549e-20)
(1.11521 -0.0912685 -6.475e-21)
(1.114 -0.0846875 2.88006e-21)
(1.11279 -0.0783755 3.6561e-21)
(1.11159 -0.0723073 -5.40614e-21)
(1.11042 -0.0664592 2.13513e-21)
(1.10929 -0.0608097 2.4306e-21)
(1.10821 -0.0553385 6.57043e-22)
(1.10719 -0.0500269 8.64755e-22)
(1.10625 -0.0448573 -1.5333e-21)
(1.10538 -0.0398134 2.00236e-21)
(1.1046 -0.0348794 7.05967e-22)
(1.1039 -0.0300407 2.4573e-23)
(1.1033 -0.0252832 -2.71345e-21)
(1.10279 -0.0205934 2.36561e-22)
(1.10239 -0.0159583 2.53426e-21)
(1.10208 -0.0113655 -8.9139e-22)
(1.10188 -0.00680361 1.44871e-21)
(1.10179 -0.00225952 -1.07036e-23)
(1.01174 -0.412586 4.10396e-20)
(1.03354 -0.382588 -1.40878e-20)
(1.05238 -0.352107 -4.47163e-21)
(1.0685 -0.326067 -4.42221e-21)
(1.08224 -0.303242 1.16342e-20)
(1.09359 -0.282832 -1.69278e-20)
(1.09359 -0.282832 -1.69278e-20)
)
;
    }
    procBoundary5to6
    {
        type            processor;
        value           nonuniform List<vector> 
176
(
(1.04579 0.453045 1.86951e-20)
(1.01114 0.466174 -7.53742e-20)
(1.01114 0.466174 -7.53742e-20)
(0.970823 0.480159 4.36431e-20)
(0.970823 0.480159 4.36431e-20)
(0.928056 0.495135 -5.48608e-20)
(0.928056 0.495135 -5.48608e-20)
(0.885282 0.509528 -2.93356e-20)
(0.885282 0.509528 -2.93356e-20)
(0.8425 0.521679 2.5685e-20)
(0.8425 0.521679 2.5685e-20)
(0.798452 0.530329 -7.11592e-20)
(0.798452 0.530329 -7.11592e-20)
(0.752021 0.534886 1.02553e-19)
(0.752021 0.534886 1.02553e-19)
(0.702752 0.535046 -1.03299e-19)
(0.702752 0.535046 -1.03299e-19)
(0.650679 0.530481 4.19641e-20)
(0.650679 0.530481 4.19641e-20)
(0.596101 0.520855 2.21253e-19)
(0.596101 0.520855 2.21253e-19)
(0.539488 0.50588 7.38144e-20)
(0.513392 0.492154 -6.6369e-21)
(0.513392 0.492154 -6.6369e-21)
(0.456049 0.470295 1.01532e-19)
(0.456049 0.470295 1.01532e-19)
(0.398336 0.442989 3.35093e-20)
(0.374607 0.424725 -9.48373e-20)
(0.374607 0.424725 -9.48373e-20)
(0.318814 0.391249 -8.99725e-20)
(0.318814 0.391249 -8.99725e-20)
(0.26477 0.353208 1.44681e-19)
(0.245209 0.331752 -3.27759e-20)
(0.245209 0.331752 -3.27759e-20)
(0.195992 0.289829 -5.72255e-20)
(0.179705 0.266896 5.29301e-20)
(0.164704 0.242606 -2.86121e-20)
(0.164704 0.242606 -2.86121e-20)
(0.124125 0.199862 -3.31082e-20)
(0.112848 0.175408 9.62991e-21)
(0.103026 0.150027 -2.71966e-20)
(0.0947311 0.123851 9.18033e-20)
(0.0947311 0.123851 9.18033e-20)
(0.066098 0.0870371 -2.13291e-20)
(0.0614972 0.0625125 1.55102e-20)
(0.058411 0.0376452 -6.84252e-21)
(0.0568622 0.0125714 -4.46205e-21)
(0.0568622 -0.0125714 -6.25405e-21)
(0.058411 -0.0376451 1.70753e-20)
(0.0614972 -0.0625124 -5.10949e-21)
(0.066098 -0.0870371 -1.93069e-20)
(0.0947311 -0.123851 -2.6994e-20)
(0.0947311 -0.123851 -2.6994e-20)
(0.103026 -0.150027 -5.1632e-20)
(0.112848 -0.175408 4.1145e-20)
(0.124125 -0.199862 -3.21643e-20)
(0.164704 -0.242606 -8.14139e-20)
(0.164704 -0.242606 -8.14139e-20)
(0.179705 -0.266896 5.98529e-20)
(0.226774 -0.308672 -2.98544e-20)
(0.226774 -0.308672 -2.98544e-20)
(0.245209 -0.331752 2.53471e-20)
(0.26477 -0.353208 8.19211e-20)
(0.318814 -0.391249 2.73618e-20)
(0.318814 -0.391249 2.73618e-20)
(0.374607 -0.424725 -1.19072e-19)
(0.374607 -0.424725 -1.19072e-19)
(0.398336 -0.442989 1.79062e-19)
(0.456049 -0.470295 2.71354e-20)
(0.456049 -0.470295 2.71354e-20)
(0.513392 -0.492154 -1.23411e-19)
(0.513392 -0.492154 -1.23411e-19)
(0.539488 -0.50588 -7.26377e-20)
(0.596101 -0.520855 -2.43975e-19)
(0.596101 -0.520855 -2.43975e-19)
(0.650679 -0.530481 -4.87286e-20)
(0.650679 -0.530481 -4.87286e-20)
(0.702751 -0.535046 2.35266e-19)
(0.702751 -0.535046 2.35266e-19)
(0.752021 -0.534886 -1.277e-19)
(0.752021 -0.534886 -1.277e-19)
(0.798452 -0.530329 -3.94332e-20)
(0.798452 -0.530329 -3.94332e-20)
(0.8425 -0.521679 -5.08288e-20)
(0.8425 -0.521679 -5.08288e-20)
(0.885282 -0.509528 4.38439e-20)
(0.885282 -0.509528 4.38439e-20)
(0.928056 -0.495135 1.62217e-20)
(0.928056 -0.495135 1.62217e-20)
(0.970823 -0.480159 2.37951e-20)
(0.970823 -0.480159 2.37951e-20)
(1.01114 -0.466174 5.73855e-22)
(1.01114 -0.466174 5.73855e-22)
(1.04579 -0.453045 -1.01501e-19)
(1.06457 0.422417 -3.44178e-20)
(1.07926 0.385958 1.99252e-20)
(1.09181 0.353511 -1.40495e-20)
(1.10238 0.325591 6.47771e-21)
(1.11147 0.301303 3.45414e-22)
(1.11897 0.27994 4.01227e-21)
(1.12488 0.260821 -3.50181e-21)
(1.1293 0.243472 -2.93764e-21)
(1.13244 0.227573 3.77569e-21)
(1.1345 0.212905 -6.76607e-21)
(1.13569 0.199308 3.60525e-21)
(1.13619 0.186661 -5.71417e-21)
(1.13615 0.174865 -3.08669e-21)
(1.13569 0.163835 4.34102e-21)
(1.13491 0.153498 -4.30882e-21)
(1.13388 0.143788 4.7315e-21)
(1.13267 0.134648 -3.84275e-21)
(1.13133 0.126022 3.75548e-21)
(1.12989 0.117863 -8.21131e-21)
(1.12839 0.110128 7.72934e-21)
(1.12686 0.102777 -6.94861e-21)
(1.12531 0.095773 2.48984e-22)
(1.12376 0.0890848 1.64161e-21)
(1.12224 0.0826824 -5.46734e-22)
(1.12075 0.0765388 -1.81715e-21)
(1.11931 0.0706292 -9.48425e-22)
(1.11793 0.0649311 2.54802e-21)
(1.11662 0.0594234 -1.73056e-21)
(1.11539 0.0540868 -3.40134e-21)
(1.11424 0.0489033 -1.5679e-21)
(1.11318 0.043856 2.13839e-21)
(1.11221 0.0389292 -2.6694e-21)
(1.11135 0.0341078 6.0279e-22)
(1.11059 0.0293779 1.68302e-21)
(1.10994 0.024726 -1.79852e-21)
(1.10773 0.020254 1.43863e-21)
(1.10773 0.020254 1.43863e-21)
(1.10731 0.0156943 1.58178e-21)
(1.107 0.011176 3.15187e-22)
(1.1068 0.00668894 1.35891e-21)
(1.10671 0.00221863 4.92059e-22)
(1.11873 -0.0770045 6.06463e-22)
(1.11735 -0.0710546 4.21768e-21)
(1.11602 -0.0653184 -2.03106e-21)
(1.11476 -0.0597748 3.26468e-21)
(1.11357 -0.054404 -3.82926e-21)
(1.11245 -0.049188 1.12312e-21)
(1.11143 -0.0441097 3.77536e-21)
(1.11049 -0.0391532 -1.77755e-22)
(1.10965 -0.0343033 1.66531e-21)
(1.1089 -0.0295458 -1.64393e-21)
(1.10827 -0.024867 9.89453e-22)
(1.10773 -0.020254 4.42082e-22)
(1.10731 -0.0156943 -1.39801e-22)
(1.107 -0.011176 1.28365e-21)
(1.1068 -0.00668894 2.387e-22)
(1.10671 -0.00221863 1.11599e-21)
(1.06457 -0.422417 3.43893e-20)
(1.07926 -0.385958 -1.91582e-20)
(1.09181 -0.353511 1.34184e-20)
(1.10238 -0.325591 -6.18624e-21)
(1.11147 -0.301303 -8.18559e-22)
(1.11897 -0.27994 -3.36947e-21)
(1.12488 -0.260821 3.61712e-21)
(1.1293 -0.243472 3.1602e-21)
(1.13244 -0.227573 -4.17065e-21)
(1.1345 -0.212905 5.97286e-21)
(1.13569 -0.199308 -3.38746e-21)
(1.13619 -0.186661 5.31822e-21)
(1.13615 -0.174865 4.35078e-21)
(1.13569 -0.163835 -4.17508e-21)
(1.13491 -0.153498 3.89864e-21)
(1.13388 -0.143788 -4.50127e-21)
(1.13267 -0.134648 3.42147e-21)
(1.13133 -0.126022 -4.16603e-21)
(1.12989 -0.117863 8.33131e-21)
(1.12839 -0.110128 -7.48722e-21)
(1.12686 -0.102777 6.50661e-21)
(1.12531 -0.095773 -6.59511e-23)
(1.12376 -0.0890848 -1.39194e-21)
(1.11873 -0.0770045 6.06463e-22)
(1.12224 -0.0826824 1.30047e-21)
)
;
    }
}


// ************************************************************************* //
