/*--------------------------------*- C++ -*----------------------------------*\
  =========                 |
  \\      /  F ield         | OpenFOAM: The Open Source CFD Toolbox
   \\    /   O peration     | Website:  https://openfoam.org
    \\  /    A nd           | Version:  7
     \\/     M anipulation  |
\*---------------------------------------------------------------------------*/
FoamFile
{
    version     2.0;
    format      ascii;
    class       volScalarField;
    location    "30";
    object      p;
}
// * * * * * * * * * * * * * * * * * * * * * * * * * * * * * * * * * * * * * //

dimensions      [0 2 -2 0 0 0 0];

internalField   nonuniform List<scalar> 
8820
(
-0.264244
-0.265697
-0.266599
-0.267267
-0.267833
-0.268315
-0.268735
-0.269108
-0.269439
-0.269725
-0.26996
-0.270135
-0.270244
-0.270279
-0.270241
-0.270132
-0.269971
-0.269786
-0.269565
-0.269224
-0.269271
-0.264459
-0.265896
-0.266787
-0.267448
-0.268006
-0.268482
-0.268896
-0.269263
-0.269588
-0.269868
-0.270097
-0.270266
-0.270366
-0.270391
-0.270338
-0.27021
-0.270024
-0.26981
-0.269555
-0.269173
-0.269183
-0.264876
-0.26628
-0.26715
-0.267793
-0.268337
-0.268798
-0.269199
-0.269554
-0.269867
-0.270136
-0.270353
-0.270509
-0.270592
-0.270596
-0.270515
-0.27035
-0.270117
-0.269846
-0.269526
-0.269068
-0.269009
-0.265489
-0.266843
-0.267681
-0.268299
-0.268819
-0.269259
-0.26964
-0.269977
-0.270273
-0.270525
-0.270724
-0.27086
-0.27092
-0.270893
-0.270772
-0.270554
-0.270251
-0.269896
-0.26948
-0.268907
-0.268739
-0.266289
-0.267577
-0.268373
-0.268957
-0.269446
-0.269857
-0.270212
-0.270525
-0.270798
-0.271028
-0.271205
-0.271316
-0.271346
-0.271281
-0.271109
-0.270823
-0.270431
-0.269963
-0.269416
-0.268685
-0.268359
-0.267263
-0.268471
-0.269215
-0.269757
-0.270207
-0.270583
-0.270905
-0.271188
-0.271433
-0.271636
-0.271787
-0.271869
-0.271866
-0.271758
-0.271527
-0.271161
-0.270659
-0.27005
-0.269338
-0.268406
-0.267851
-0.268397
-0.269512
-0.270195
-0.270687
-0.271091
-0.271424
-0.271707
-0.271953
-0.272166
-0.272338
-0.272459
-0.272511
-0.272472
-0.272318
-0.272025
-0.27157
-0.270942
-0.270166
-0.269253
-0.268076
-0.267183
-0.269674
-0.270686
-0.2713
-0.271735
-0.272084
-0.272367
-0.272604
-0.272808
-0.272982
-0.27312
-0.273208
-0.273228
-0.273153
-0.272953
-0.272597
-0.27205
-0.271287
-0.270319
-0.269171
-0.267702
-0.266254
-0.271078
-0.271978
-0.272516
-0.272885
-0.273173
-0.273397
-0.27358
-0.273735
-0.273864
-0.273963
-0.274016
-0.274002
-0.273892
-0.27365
-0.273234
-0.272598
-0.271698
-0.270524
-0.269109
-0.267298
-0.264935
-0.272591
-0.273375
-0.27383
-0.274126
-0.274342
-0.274499
-0.274619
-0.274715
-0.274793
-0.274847
-0.27486
-0.274811
-0.274667
-0.274386
-0.273917
-0.2732
-0.272172
-0.270795
-0.269088
-0.266903
-0.264056
-0.274198
-0.274862
-0.275228
-0.275444
-0.27558
-0.275658
-0.275704
-0.275732
-0.275748
-0.275748
-0.275716
-0.275628
-0.275449
-0.275131
-0.274616
-0.27383
-0.272685
-0.271117
-0.269095
-0.266359
-0.263037
-0.275885
-0.276429
-0.276702
-0.276828
-0.276873
-0.276861
-0.276819
-0.276766
-0.276708
-0.276643
-0.276556
-0.276422
-0.276203
-0.275848
-0.275291
-0.274443
-0.273195
-0.271452
-0.269131
-0.265863
-0.261698
-0.277642
-0.27807
-0.278244
-0.278272
-0.278212
-0.278096
-0.277952
-0.277802
-0.277655
-0.27751
-0.277354
-0.277162
-0.276893
-0.276494
-0.275891
-0.274984
-0.273647
-0.271737
-0.269136
-0.265395
-0.260052
-0.279467
-0.279781
-0.279852
-0.27977
-0.279594
-0.279357
-0.279093
-0.278828
-0.278574
-0.278332
-0.27809
-0.277822
-0.277488
-0.277031
-0.276369
-0.275395
-0.273962
-0.271891
-0.269022
-0.264912
-0.258114
-0.281362
-0.281565
-0.281527
-0.281325
-0.281016
-0.280642
-0.280239
-0.279839
-0.279457
-0.279097
-0.278748
-0.278385
-0.277966
-0.277429
-0.276689
-0.275628
-0.274084
-0.271847
-0.268694
-0.264369
-0.255927
-0.283336
-0.283432
-0.283278
-0.282943
-0.282485
-0.281954
-0.281393
-0.280837
-0.280306
-0.279806
-0.279328
-0.278847
-0.278319
-0.277679
-0.276834
-0.275658
-0.27398
-0.271561
-0.268094
-0.263724
-0.253625
-0.285409
-0.285399
-0.285119
-0.284635
-0.284012
-0.283304
-0.282564
-0.281831
-0.281129
-0.280469
-0.279841
-0.279219
-0.278559
-0.27779
-0.276814
-0.275494
-0.273651
-0.271039
-0.267229
-0.262952
-0.251443
-0.287606
-0.287488
-0.287068
-0.286422
-0.285614
-0.28471
-0.283771
-0.282841
-0.281949
-0.281108
-0.28031
-0.279528
-0.278714
-0.277793
-0.27666
-0.27517
-0.273136
-0.270315
-0.266172
-0.262004
-0.249626
-0.289963
-0.289725
-0.289158
-0.288329
-0.287316
-0.286198
-0.285039
-0.283894
-0.282795
-0.281756
-0.280771
-0.27981
-0.278824
-0.27773
-0.276419
-0.274739
-0.272501
-0.269459
-0.265061
-0.26078
-0.248188
-0.292522
-0.292149
-0.291414
-0.290384
-0.289148
-0.287796
-0.286402
-0.285026
-0.283705
-0.282454
-0.281267
-0.280112
-0.278934
-0.277648
-0.276139
-0.274256
-0.271824
-0.268593
-0.264164
-0.259372
-0.247192
-0.295333
-0.294799
-0.293875
-0.292623
-0.291145
-0.289541
-0.287897
-0.286277
-0.284721
-0.283246
-0.281844
-0.280479
-0.279089
-0.277586
-0.275853
-0.273751
-0.271137
-0.267799
-0.263705
-0.258498
-0.24896
-0.298444
-0.29772
-0.296581
-0.295084
-0.293343
-0.291473
-0.289565
-0.287689
-0.285889
-0.284178
-0.282546
-0.28095
-0.279321
-0.277566
-0.275571
-0.27321
-0.270384
-0.266957
-0.263239
-0.258655
-0.258036
-0.301909
-0.300956
-0.299572
-0.297808
-0.295785
-0.293632
-0.291448
-0.289307
-0.287251
-0.285292
-0.28341
-0.281556
-0.27965
-0.277594
-0.275277
-0.272594
-0.269481
-0.265901
-0.262149
-0.258171
-0.25658
-0.305782
-0.304552
-0.302891
-0.300835
-0.298511
-0.29606
-0.29359
-0.291174
-0.28885
-0.286624
-0.284465
-0.282312
-0.280075
-0.277651
-0.274935
-0.271841
-0.268339
-0.264439
-0.260391
-0.256177
-0.25316
-0.310112
-0.308553
-0.30658
-0.304206
-0.301561
-0.298799
-0.296031
-0.293327
-0.290719
-0.288199
-0.285724
-0.283216
-0.280577
-0.277702
-0.274496
-0.270895
-0.266896
-0.262535
-0.258012
-0.253286
-0.249181
-0.314945
-0.313
-0.310679
-0.307962
-0.304977
-0.30189
-0.29881
-0.295801
-0.292884
-0.290032
-0.287185
-0.28425
-0.281121
-0.277699
-0.273906
-0.269707
-0.265126
-0.260214
-0.255141
-0.249857
-0.244883
-0.320322
-0.31793
-0.315225
-0.31214
-0.308797
-0.305368
-0.30196
-0.298624
-0.295359
-0.292121
-0.288828
-0.285374
-0.281656
-0.277587
-0.273118
-0.268247
-0.263025
-0.257525
-0.251899
-0.246087
-0.24055
-0.326275
-0.323377
-0.320252
-0.316775
-0.313055
-0.309268
-0.30551
-0.301811
-0.298147
-0.294448
-0.290615
-0.286537
-0.282122
-0.27731
-0.272089
-0.266496
-0.26061
-0.254519
-0.248365
-0.242097
-0.236116
-0.332831
-0.329366
-0.325788
-0.321899
-0.317784
-0.313618
-0.309478
-0.305366
-0.30123
-0.296974
-0.292489
-0.287671
-0.282453
-0.276814
-0.270788
-0.264448
-0.257898
-0.251237
-0.244592
-0.237926
-0.231597
-0.340005
-0.335918
-0.331857
-0.327536
-0.323007
-0.318434
-0.313867
-0.309274
-0.30457
-0.299642
-0.294378
-0.288701
-0.282582
-0.276053
-0.269189
-0.262101
-0.254904
-0.247705
-0.240607
-0.23359
-0.226947
-0.3478
-0.34304
-0.338473
-0.333704
-0.328738
-0.32372
-0.318664
-0.313498
-0.308107
-0.302371
-0.296196
-0.289546
-0.282447
-0.274983
-0.267274
-0.259452
-0.251638
-0.243933
-0.236416
-0.22908
-0.222146
-0.356206
-0.350731
-0.345638
-0.340405
-0.334975
-0.329461
-0.323832
-0.317975
-0.311756
-0.305065
-0.297848
-0.290125
-0.281988
-0.273571
-0.265026
-0.256496
-0.248098
-0.239919
-0.232011
-0.22438
-0.217163
-0.365194
-0.35897
-0.353339
-0.347626
-0.341695
-0.335614
-0.329304
-0.322615
-0.315411
-0.307615
-0.299234
-0.290361
-0.281151
-0.271782
-0.262425
-0.253221
-0.244274
-0.235649
-0.227377
-0.219468
-0.211977
-0.374717
-0.367721
-0.361544
-0.355333
-0.348851
-0.342111
-0.334985
-0.327302
-0.318946
-0.309901
-0.300255
-0.29018
-0.279888
-0.269586
-0.25945
-0.249609
-0.240145
-0.231103
-0.222488
-0.214317
-0.206563
-0.3847
-0.376923
-0.370197
-0.363464
-0.356364
-0.348849
-0.34075
-0.331895
-0.322223
-0.311802
-0.300816
-0.289513
-0.27815
-0.266947
-0.256073
-0.245633
-0.235685
-0.226252
-0.217318
-0.208899
-0.200896
-0.395045
-0.386492
-0.379217
-0.371927
-0.364123
-0.355693
-0.346444
-0.336237
-0.325094
-0.313197
-0.300825
-0.288295
-0.27589
-0.26383
-0.252259
-0.24126
-0.230862
-0.221063
-0.211835
-0.203184
-0.19495
-0.405625
-0.396314
-0.388489
-0.380599
-0.371983
-0.362477
-0.351889
-0.340154
-0.327413
-0.313968
-0.300196
-0.286463
-0.27306
-0.260191
-0.247972
-0.236453
-0.225638
-0.215503
-0.206007
-0.197143
-0.188703
-0.41628
-0.406245
-0.397871
-0.389319
-0.379764
-0.369005
-0.356892
-0.343472
-0.329031
-0.314004
-0.298847
-0.283955
-0.26961
-0.255988
-0.243169
-0.231172
-0.219975
-0.209534
-0.199801
-0.190747
-0.182129
-0.426825
-0.416112
-0.407186
-0.397896
-0.387258
-0.375061
-0.361245
-0.346011
-0.329811
-0.313201
-0.2967
-0.280709
-0.265487
-0.25117
-0.237803
-0.225372
-0.213832
-0.203121
-0.193183
-0.183966
-0.175205
-0.437043
-0.425712
-0.416224
-0.406108
-0.39423
-0.380414
-0.36474
-0.347601
-0.329621
-0.311462
-0.293681
-0.276666
-0.260638
-0.245689
-0.231827
-0.21901
-0.207169
-0.196227
-0.186121
-0.176772
-0.167911
-0.446695
-0.434815
-0.424751
-0.413705
-0.400427
-0.384825
-0.367172
-0.34808
-0.328337
-0.308694
-0.289717
-0.271763
-0.255006
-0.239494
-0.225196
-0.212042
-0.199946
-0.188817
-0.178585
-0.169138
-0.160226
-0.455519
-0.443169
-0.432507
-0.420421
-0.405587
-0.388057
-0.368347
-0.347297
-0.325851
-0.304813
-0.28474
-0.265941
-0.248539
-0.232534
-0.217861
-0.204427
-0.192126
-0.180857
-0.170542
-0.161039
-0.152129
-0.463238
-0.450502
-0.439215
-0.425977
-0.409446
-0.389883
-0.368082
-0.345117
-0.322059
-0.299741
-0.278685
-0.259144
-0.241185
-0.224762
-0.209781
-0.196125
-0.183673
-0.172315
-0.161965
-0.15245
-0.143603
-0.469566
-0.456532
-0.44459
-0.430091
-0.411748
-0.390089
-0.366214
-0.34142
-0.316873
-0.293407
-0.271493
-0.251319
-0.232894
-0.216135
-0.200915
-0.187099
-0.174553
-0.163161
-0.152827
-0.143353
-0.134633
-0.474215
-0.460972
-0.448343
-0.432487
-0.41225
-0.388482
-0.3626
-0.3361
-0.310215
-0.28575
-0.26311
-0.242417
-0.223626
-0.206613
-0.191228
-0.177317
-0.164736
-0.153362
-0.143095
-0.133722
-0.125196
-0.476903
-0.46354
-0.450195
-0.432907
-0.410734
-0.384892
-0.357116
-0.329071
-0.302018
-0.276715
-0.25349
-0.232398
-0.213343
-0.196165
-0.180692
-0.166753
-0.154193
-0.142884
-0.132725
-0.123504
-0.11522
-0.477361
-0.463964
-0.449881
-0.431111
-0.407005
-0.379179
-0.349665
-0.320263
-0.292232
-0.26626
-0.242598
-0.221232
-0.202019
-0.184769
-0.169289
-0.155393
-0.142913
-0.131712
-0.121693
-0.112628
-0.104538
-0.475339
-0.461993
-0.44716
-0.42689
-0.400904
-0.371227
-0.34017
-0.309623
-0.280815
-0.254353
-0.230405
-0.208894
-0.189635
-0.172411
-0.157009
-0.143233
-0.130899
-0.119868
-0.110038
-0.101099
-0.0929446
-0.470617
-0.457401
-0.441821
-0.42007
-0.392301
-0.360955
-0.328579
-0.297118
-0.267745
-0.240976
-0.216897
-0.195374
-0.176183
-0.159084
-0.143849
-0.13027
-0.118154
-0.107381
-0.097828
-0.0890746
-0.0806055
-0.463004
-0.449996
-0.433689
-0.410513
-0.381106
-0.348308
-0.314863
-0.282732
-0.253012
-0.226121
-0.20207
-0.180669
-0.161663
-0.144793
-0.129817
-0.116512
-0.104686
-0.0942628
-0.0849928
-0.0763445
-0.0685343
-0.45235
-0.439625
-0.422629
-0.398123
-0.367263
-0.333263
-0.299018
-0.266469
-0.236622
-0.209798
-0.185932
-0.164791
-0.14609
-0.129552
-0.11493
-0.101989
-0.0905475
-0.0804911
-0.0715586
-0.0631975
-0.0561177
-0.438545
-0.426173
-0.408551
-0.382844
-0.350752
-0.315826
-0.28106
-0.248352
-0.218599
-0.192027
-0.168506
-0.14776
-0.129489
-0.113391
-0.0992119
-0.0867196
-0.0757304
-0.0661135
-0.0575874
-0.049622
-0.0432107
-0.421522
-0.409572
-0.391407
-0.364662
-0.33159
-0.296029
-0.261033
-0.22842
-0.198979
-0.172845
-0.14983
-0.129619
-0.111889
-0.0963363
-0.0826958
-0.0707335
-0.0602668
-0.0511591
-0.043105
-0.0355873
-0.0298164
-0.401261
-0.3898
-0.371194
-0.343604
-0.309826
-0.273937
-0.238998
-0.206733
-0.177818
-0.15231
-0.129951
-0.110407
-0.0933378
-0.0784337
-0.0654232
-0.0540708
-0.0441963
-0.0356622
-0.0281348
-0.0211009
-0.0159839
-0.377788
-0.366879
-0.347953
-0.319735
-0.285547
-0.249639
-0.215039
-0.18337
-0.155193
-0.130478
-0.10893
-0.0901845
-0.0738916
-0.059737
-0.0474455
-0.0367803
-0.0275657
-0.0196628
-0.0127086
-0.00619401
-0.00175789
-0.351172
-0.340874
-0.32177
-0.293166
-0.258871
-0.223238
-0.189252
-0.158421
-0.131183
-0.107434
-0.0868402
-0.069021
-0.0536166
-0.0403097
-0.0288231
-0.0189203
-0.0104303
-0.00321262
0.00312517
0.00908711
0.0128329
-0.321526
-0.311896
-0.292776
-0.264048
-0.229928
-0.194838
-0.161765
-0.132001
-0.105892
-0.0832692
-0.0637696
-0.0469977
-0.0325889
-0.020224
-0.0096252
-0.000557551
0.00714429
0.0136228
0.0193008
0.0246851
0.0277642
-0.288997
-0.280102
-0.261148
-0.232533
-0.198796
-0.164644
-0.132721
-0.104235
-0.0794333
-0.0580899
-0.0398154
-0.0242055
-0.0108933
0.000440274
0.0100724
0.0182348
0.0250859
0.030772
0.0357493
0.040534
0.0429432
-0.253754
-0.245696
-0.227069
-0.198677
-0.165802
-0.132817
-0.102277
-0.0752664
-0.0519369
-0.0320127
-0.015085
-0.000744008
0.0113771
0.0215962
0.0301881
0.0373795
0.0433232
0.0481758
0.0524258
0.0565648
0.058151
-0.215997
-0.208909
-0.190638
-0.162885
-0.131121
-0.0995449
-0.0706055
-0.0452494
-0.0235416
-0.00516464
0.0103049
0.0232789
0.0341222
0.0431498
0.050633
0.0567931
0.0617848
0.065787
0.069298
0.0726956
0.0732295
-0.175946
-0.170002
-0.152192
-0.125401
-0.0949653
-0.0650314
-0.0378887
-0.0143482
0.00560373
0.0223188
0.03623
0.0477485
0.0572351
0.0650003
0.0713101
0.0763822
0.0803844
0.0835249
0.0862619
0.0887973
0.088447
-0.133947
-0.129205
-0.112108
-0.0864442
-0.0575712
-0.0294924
-0.00432025
0.0172633
0.0353419
0.0502946
0.0625598
0.0725449
0.0806049
0.0870434
0.0921187
0.0960465
0.0990131
0.101242
0.103094
0.104678
0.104121
-0.090494
-0.0867149
-0.0706109
-0.0462841
-0.0191894
0.00684708
0.0298978
0.0494034
0.0655086
0.0786137
0.0891584
0.0975444
0.104118
0.109175
0.112962
0.115694
0.117569
0.118791
0.119577
0.120096
0.119354
-0.0457256
-0.0429626
-0.027996
-0.00520586
0.019919
0.0437529
0.064556
0.0818836
0.0959337
0.107122
0.115886
0.12262
0.12766
0.131291
0.133751
0.13525
0.135989
0.136118
0.13563
0.134585
0.134195
2.69952e-05
0.00170131
0.0154156
0.0364946
0.0594852
0.0809847
0.0994391
0.114511
0.126443
0.135662
0.142601
0.147643
0.151114
0.153287
0.154392
0.154635
0.154202
0.153191
0.151546
0.149545
0.14865
0.0464009
0.0469378
0.0592937
0.0785142
0.099236
0.118298
0.134328
0.147087
0.156858
0.164072
0.169156
0.172481
0.174362
0.175059
0.174793
0.17376
0.172127
0.16995
0.1672
0.164313
0.162602
0.0930331
0.0924004
0.103305
0.120546
0.138896
0.155445
0.169001
0.179415
0.187
0.192192
0.195406
0.197003
0.197284
0.196499
0.194859
0.192548
0.189713
0.186395
0.182601
0.178828
0.176196
0.139559
0.137738
0.147115
0.162284
0.178188
0.19218
0.203238
0.211294
0.216689
0.219856
0.221203
0.221075
0.219762
0.217501
0.214492
0.210908
0.20688
0.20244
0.197625
0.192954
0.189386
0.185616
0.182599
0.190391
0.203424
0.216841
0.228258
0.236818
0.242526
0.245745
0.246905
0.246401
0.244566
0.241676
0.237956
0.233596
0.228758
0.223558
0.218023
0.212211
0.206643
0.202132
0.230843
0.226634
0.232805
0.243667
0.254584
0.263437
0.269524
0.272916
0.273992
0.273177
0.270854
0.267343
0.262906
0.257756
0.252074
0.246008
0.239664
0.233066
0.226285
0.219829
0.214383
0.274887
0.269502
0.274037
0.28272
0.291154
0.297482
0.301144
0.302271
0.301256
0.298516
0.294421
0.289277
0.283335
0.276797
0.269829
0.262573
0.255122
0.247497
0.239779
0.232456
0.226087
0.317405
0.310869
0.313776
0.3203
0.326298
0.330163
0.331471
0.330406
0.327368
0.322767
0.316961
0.310243
0.30285
0.294973
0.286769
0.278368
0.269852
0.261244
0.252628
0.244462
0.237192
0.358064
0.350416
0.351722
0.356136
0.359772
0.361262
0.360309
0.357141
0.352166
0.345785
0.338343
0.33012
0.32134
0.312185
0.302801
0.293308
0.28378
0.274237
0.264769
0.255791
0.247648
0.396548
0.387837
0.387591
0.38997
0.391342
0.390569
0.387467
0.382305
0.375494
0.367427
0.358437
0.348789
0.3387
0.328337
0.317838
0.307314
0.296831
0.286409
0.276138
0.266388
0.257411
0.432559
0.422842
0.421114
0.421558
0.420789
0.417886
0.412767
0.405736
0.397206
0.387561
0.377122
0.366143
0.354828
0.343336
0.331797
0.32031
0.308936
0.297697
0.286678
0.2762
0.266434
0.465818
0.455164
0.452042
0.450672
0.44791
0.44303
0.436043
0.427283
0.417165
0.406062
0.394284
0.382076
0.369631
0.357099
0.3446
0.332225
0.320032
0.308041
0.296333
0.285178
0.274677
0.496066
0.484553
0.480144
0.477106
0.472517
0.465831
0.457142
0.446808
0.435244
0.422815
0.409821
0.396495
0.383022
0.369544
0.356174
0.342994
0.330057
0.317385
0.305053
0.293279
0.282103
0.52307
0.510786
0.505212
0.500669
0.494439
0.486135
0.475924
0.464184
0.451328
0.437716
0.423635
0.409312
0.394922
0.380601
0.366453
0.352556
0.338956
0.325678
0.312791
0.300461
0.288678
0.546622
0.533661
0.52706
0.521193
0.513524
0.503806
0.492265
0.479297
0.465315
0.45067
0.435642
0.420449
0.405261
0.390205
0.37538
0.360858
0.346681
0.332877
0.319506
0.306688
0.294372
0.566541
0.553004
0.545527
0.538532
0.529642
0.518724
0.506057
0.492051
0.477116
0.461597
0.445768
0.429841
0.413977
0.3983
0.382903
0.367852
0.353189
0.338941
0.325161
0.311929
0.29916
0.582673
0.568668
0.560476
0.552562
0.54268
0.530789
0.51721
0.502362
0.486655
0.470429
0.453951
0.437429
0.421018
0.404838
0.388978
0.3735
0.358443
0.343836
0.329727
0.316158
0.30302
0.594895
0.580534
0.571797
0.563185
0.552548
0.53992
0.525649
0.510163
0.493871
0.477109
0.46014
0.443167
0.426342
0.409782
0.393571
0.37777
0.362415
0.347537
0.333177
0.319352
0.305935
0.603112
0.588512
0.579407
0.570324
0.559179
0.546054
0.531318
0.515403
0.498718
0.481596
0.464297
0.44702
0.429917
0.413101
0.396655
0.380636
0.365081
0.350022
0.335494
0.321498
0.307892
0.607262
0.592541
0.583249
0.573928
0.562527
0.549151
0.534179
0.518048
0.501165
0.483861
0.466395
0.448965
0.431722
0.414777
0.398212
0.382084
0.366428
0.351277
0.336665
0.322582
0.308882
0.607313
0.59259
0.583297
0.573973
0.562568
0.549189
0.534215
0.518081
0.501195
0.483889
0.466421
0.44899
0.431745
0.414799
0.398233
0.382104
0.366448
0.351296
0.336684
0.322601
0.308901
0.603264
0.58866
0.579548
0.570457
0.559303
0.546169
0.531424
0.515502
0.49881
0.481681
0.464377
0.447095
0.429988
0.413168
0.396718
0.380697
0.36514
0.350078
0.33555
0.321553
0.307949
0.595147
0.580779
0.572031
0.563405
0.552753
0.54011
0.525826
0.510327
0.494024
0.477251
0.460273
0.443291
0.426459
0.409892
0.393676
0.37787
0.362511
0.347631
0.333269
0.319445
0.30603
0.583023
0.569008
0.5608
0.552868
0.542965
0.531054
0.517456
0.50259
0.486867
0.470627
0.454136
0.437601
0.42118
0.404992
0.389124
0.373639
0.358577
0.343967
0.329855
0.316286
0.303153
0.566985
0.553436
0.545939
0.53892
0.530004
0.519061
0.50637
0.492342
0.477386
0.461849
0.446003
0.430061
0.414183
0.398495
0.383088
0.368029
0.35336
0.339108
0.325325
0.312092
0.29933
0.547157
0.53418
0.527557
0.521661
0.513961
0.504212
0.492642
0.479648
0.465641
0.450974
0.435925
0.420715
0.40551
0.39044
0.375604
0.361072
0.346888
0.333078
0.319704
0.306886
0.294578
0.523691
0.511389
0.505789
0.501212
0.494947
0.486608
0.476363
0.464591
0.451707
0.438069
0.423964
0.40962
0.395212
0.380875
0.366713
0.352805
0.339197
0.325913
0.313022
0.300691
0.288918
0.496767
0.485234
0.480796
0.477721
0.473092
0.466366
0.457639
0.44727
0.435673
0.423215
0.410194
0.396844
0.38335
0.369854
0.356468
0.343276
0.330329
0.317651
0.305315
0.293541
0.282376
0.466593
0.455916
0.452763
0.451353
0.448547
0.443623
0.436594
0.427796
0.417641
0.406506
0.394699
0.382464
0.369995
0.357442
0.344926
0.332538
0.320334
0.308336
0.296623
0.285469
0.274981
0.433402
0.42366
0.421898
0.422299
0.421483
0.418532
0.413368
0.406294
0.397725
0.388045
0.377573
0.366565
0.355224
0.343711
0.332152
0.32065
0.309265
0.298018
0.286994
0.276516
0.266766
0.39745
0.388712
0.388431
0.390765
0.392087
0.391263
0.388112
0.382905
0.376052
0.367947
0.358922
0.349243
0.339125
0.328738
0.318219
0.307678
0.297182
0.286753
0.276477
0.266727
0.257768
0.359017
0.351342
0.352611
0.356979
0.360562
0.361998
0.360994
0.357778
0.352758
0.346336
0.338857
0.3306
0.321791
0.312609
0.303203
0.293691
0.28415
0.274599
0.265125
0.256149
0.248027
0.318401
0.311837
0.314707
0.321183
0.327127
0.330936
0.33219
0.331074
0.327989
0.323345
0.3175
0.310746
0.303321
0.295415
0.287187
0.278766
0.270236
0.261619
0.252998
0.244833
0.237586
0.275917
0.270503
0.275001
0.283636
0.292014
0.298284
0.30189
0.302965
0.3019
0.299115
0.294978
0.289797
0.28382
0.277252
0.270258
0.262981
0.255514
0.247879
0.240155
0.232833
0.226491
0.231898
0.22766
0.233795
0.244608
0.255468
0.264263
0.270292
0.27363
0.274654
0.273792
0.271425
0.267874
0.2634
0.258219
0.252508
0.246419
0.240058
0.233448
0.226659
0.220205
0.214789
0.186687
0.183641
0.191397
0.204383
0.217743
0.229101
0.237602
0.243254
0.24642
0.24753
0.24698
0.245103
0.242174
0.238419
0.234029
0.229165
0.223945
0.218397
0.212575
0.207006
0.202529
0.140638
0.138788
0.14813
0.163253
0.179101
0.193033
0.204031
0.212029
0.21737
0.220486
0.221784
0.221612
0.220258
0.217959
0.214916
0.211304
0.207253
0.202795
0.197967
0.193292
0.18976
0.0941099
0.0934495
0.104322
0.121518
0.139812
0.156302
0.169797
0.180152
0.187681
0.192819
0.195984
0.197534
0.197772
0.196946
0.195268
0.192924
0.190062
0.186721
0.182908
0.179125
0.176531
0.0474678
0.0479783
0.0603038
0.0794814
0.100149
0.119151
0.135121
0.14782
0.157534
0.164693
0.169725
0.173
0.174834
0.175487
0.175179
0.174109
0.172442
0.170236
0.167457
0.164546
0.162872
0.00107607
0.00272572
0.0164118
0.0374506
0.0603891
0.0818297
0.100223
0.115234
0.127108
0.13627
0.143155
0.148145
0.151566
0.153691
0.154749
0.154948
0.154475
0.153426
0.151738
0.149692
0.148822
-0.0447016
-0.041961
-0.0270202
-0.00426746
0.0208075
0.0445837
0.0653259
0.0825924
0.0965827
0.107713
0.116421
0.1231
0.128086
0.131664
0.134072
0.13552
0.136211
0.136292
0.135745
0.134619
0.134215
-0.0895017
-0.0857418
-0.0696615
-0.0453688
-0.0183214
0.00765878
0.0306491
0.0500931
0.0661374
0.0791829
0.0896691
0.0979974
0.104514
0.109514
0.113244
0.115917
0.117733
0.118895
0.119604
0.120007
0.119181
-0.132992
-0.128266
-0.11119
-0.085557
-0.0567284
-0.028704
-0.0035917
0.0179302
0.035947
0.0508386
0.0630432
0.0729681
0.0809676
0.0873448
0.092357
0.0962191
0.0991171
0.101274
0.103038
0.104493
0.103807
-0.175028
-0.169105
-0.15131
-0.124546
-0.0941512
-0.0642699
-0.0371861
-0.0137072
0.00618228
0.0228349
0.0366837
0.0481395
0.0575625
0.0652626
0.0715046
0.0765051
0.0804312
0.0834904
0.0861323
0.088541
0.0880572
-0.215123
-0.208053
-0.189792
-0.162064
-0.130339
-0.0988128
-0.0699312
-0.0446365
-0.0229917
-0.00467815
0.0107274
0.0236366
0.0344136
0.0433729
0.0507846
0.0568687
0.061779
0.0656937
0.0691049
0.0723792
0.0727913
-0.252927
-0.244884
-0.226268
-0.197891
-0.165053
-0.132116
-0.101633
-0.074683
-0.0514167
-0.0315568
-0.0146943
-0.000419796
0.011633
0.0217812
0.0302987
0.037411
0.04327
0.0480314
0.0521785
0.056195
0.0576652
-0.288218
-0.279334
-0.260388
-0.23179
-0.198081
-0.163975
-0.132108
-0.103682
-0.0789431
-0.0576645
-0.0394561
-0.023914
-0.0106717
0.000589119
0.0101449
0.0182261
0.0249904
0.0305834
0.0354567
0.0401195
0.0424122
-0.320794
-0.311172
-0.292057
-0.263343
-0.229251
-0.194202
-0.161182
-0.131477
-0.105431
-0.0828735
-0.0634407
-0.0467374
-0.0323995
-0.0201085
-0.00958741
-0.000602114
0.00701196
0.0133967
0.0189711
0.0242356
0.0271985
-0.350486
-0.340194
-0.321093
-0.292498
-0.258229
-0.222636
-0.1887
-0.157927
-0.130751
-0.107066
-0.0865397
-0.0687895
-0.0534566
-0.0402242
-0.0288158
-0.0189958
-0.0105936
-0.0034693
0.00276649
0.00861201
0.0122443
-0.377146
-0.36624
-0.347315
-0.319105
-0.284938
-0.249067
-0.214516
-0.182902
-0.154787
-0.130137
-0.108655
-0.089979
-0.0737577
-0.0596776
-0.0474642
-0.0368814
-0.0277539
-0.0199432
-0.0130885
-0.0066864
-0.00236017
-0.40066
-0.3892
-0.370593
-0.343008
-0.309249
-0.273394
-0.238501
-0.206291
-0.177436
-0.151992
-0.129699
-0.110224
-0.0932262
-0.0783962
-0.0654633
-0.0541922
-0.0444035
-0.0359595
-0.0285287
-0.0216029
-0.0165925
-0.420958
-0.409007
-0.390839
-0.364098
-0.331042
-0.295512
-0.260559
-0.227999
-0.198618
-0.172547
-0.149598
-0.129455
-0.111796
-0.0963163
-0.0827522
-0.0708699
-0.0604869
-0.0514669
-0.0435059
-0.0360919
-0.0304244
-0.438013
-0.425638
-0.408013
-0.382308
-0.35023
-0.315331
-0.280607
-0.24795
-0.218255
-0.191745
-0.168289
-0.14761
-0.12941
-0.113384
-0.0992797
-0.0868655
-0.0759579
-0.0664257
-0.0579889
-0.0501225
-0.0438115
-0.451847
-0.439117
-0.422117
-0.397611
-0.366762
-0.332788
-0.298582
-0.266083
-0.236292
-0.209529
-0.185728
-0.164652
-0.14602
-0.129553
-0.115004
-0.10214
-0.0907771
-0.0808018
-0.0719546
-0.0636875
-0.0567055
-0.462524
-0.44951
-0.433197
-0.410021
-0.380624
-0.347849
-0.314441
-0.282357
-0.252692
-0.225861
-0.201873
-0.180537
-0.161598
-0.144797
-0.129893
-0.116662
-0.104913
-0.0945662
-0.0853778
-0.0768176
-0.0691036
-0.470154
-0.45693
-0.441345
-0.419593
-0.391833
-0.360508
-0.328167
-0.296751
-0.267431
-0.24072
-0.216703
-0.195244
-0.176119
-0.159087
-0.143922
-0.130414
-0.118372
-0.107674
-0.0981976
-0.0895257
-0.0811484
-0.47489
-0.461534
-0.446695
-0.426424
-0.400445
-0.370788
-0.339764
-0.30926
-0.280504
-0.254099
-0.230211
-0.208763
-0.189568
-0.172409
-0.157075
-0.143367
-0.131103
-0.120145
-0.110387
-0.101524
-0.0934504
-0.476919
-0.463511
-0.449423
-0.430651
-0.406552
-0.378744
-0.349261
-0.3199
-0.291919
-0.266003
-0.2424
-0.221095
-0.201945
-0.184759
-0.169344
-0.155515
-0.143101
-0.131969
-0.122018
-0.113023
-0.105006
-0.476464
-0.46309
-0.449739
-0.432449
-0.410283
-0.384458
-0.356711
-0.328706
-0.301701
-0.276451
-0.253285
-0.232252
-0.213258
-0.196143
-0.180732
-0.166857
-0.154362
-0.143117
-0.133024
-0.123868
-0.115651
-0.473775
-0.460521
-0.447886
-0.432028
-0.411797
-0.388045
-0.36219
-0.335728
-0.309889
-0.285477
-0.262893
-0.242258
-0.223527
-0.206575
-0.191251
-0.177401
-0.164882
-0.15357
-0.143364
-0.134053
-0.12559
-0.469121
-0.456075
-0.444127
-0.429627
-0.41129
-0.389646
-0.365797
-0.341038
-0.316537
-0.293121
-0.271262
-0.251145
-0.232779
-0.216078
-0.200918
-0.187161
-0.174675
-0.163342
-0.153066
-0.14365
-0.134988
-0.462786
-0.450038
-0.438745
-0.425505
-0.40898
-0.389431
-0.367655
-0.344724
-0.321709
-0.29944
-0.278437
-0.258952
-0.241049
-0.224685
-0.209761
-0.196162
-0.183768
-0.172467
-0.162172
-0.152712
-0.143919
-0.455057
-0.442695
-0.432027
-0.41994
-0.405111
-0.387595
-0.367907
-0.34689
-0.325484
-0.304494
-0.284472
-0.265728
-0.248382
-0.232433
-0.217817
-0.204438
-0.192193
-0.180978
-0.170717
-0.161265
-0.152406
-0.446221
-0.43433
-0.42426
-0.413212
-0.399939
-0.384349
-0.366718
-0.347656
-0.327953
-0.308355
-0.289428
-0.271527
-0.254825
-0.239368
-0.225125
-0.212026
-0.199984
-0.188908
-0.178726
-0.169329
-0.160466
-0.436556
-0.425214
-0.41572
-0.405602
-0.393729
-0.379924
-0.36427
-0.34716
-0.329217
-0.311101
-0.293369
-0.276405
-0.260431
-0.245537
-0.231729
-0.218965
-0.207177
-0.196287
-0.186231
-0.176928
-0.168114
-0.426324
-0.415601
-0.406669
-0.397378
-0.386744
-0.374557
-0.360759
-0.345552
-0.329387
-0.312818
-0.296364
-0.280423
-0.265253
-0.25099
-0.237675
-0.225297
-0.21381
-0.20315
-0.19326
-0.184089
-0.175374
-0.415766
-0.405722
-0.397343
-0.388788
-0.379236
-0.368486
-0.356389
-0.342993
-0.328585
-0.313597
-0.298485
-0.283641
-0.269348
-0.255778
-0.243012
-0.231067
-0.219922
-0.209532
-0.199846
-0.190838
-0.182265
-0.405097
-0.395778
-0.387949
-0.380056
-0.371442
-0.361943
-0.35137
-0.339657
-0.326945
-0.313536
-0.299808
-0.286121
-0.272768
-0.259951
-0.247785
-0.236318
-0.225555
-0.21547
-0.206022
-0.197204
-0.188809
-0.394505
-0.385946
-0.378665
-0.371374
-0.36357
-0.355146
-0.345909
-0.335721
-0.324605
-0.312741
-0.30041
-0.287924
-0.275567
-0.263558
-0.25204
-0.241093
-0.230748
-0.221
-0.211821
-0.203217
-0.195029
-0.384148
-0.376366
-0.369636
-0.3629
-0.3558
-0.34829
-0.3402
-0.331362
-0.321713
-0.311322
-0.300373
-0.289113
-0.277796
-0.266644
-0.255821
-0.245434
-0.23554
-0.226158
-0.217276
-0.208904
-0.200949
-0.374154
-0.367154
-0.360974
-0.354761
-0.348277
-0.34154
-0.334422
-0.326752
-0.318416
-0.309397
-0.299785
-0.28975
-0.279502
-0.269249
-0.259165
-0.249378
-0.239968
-0.23098
-0.222418
-0.214297
-0.206594
-0.364622
-0.358395
-0.352761
-0.347046
-0.341114
-0.335034
-0.328728
-0.32205
-0.314862
-0.307088
-0.298736
-0.2899
-0.280733
-0.271412
-0.262106
-0.252957
-0.244065
-0.235497
-0.22728
-0.219424
-0.211988
-0.355625
-0.350148
-0.345053
-0.339818
-0.334387
-0.328873
-0.323246
-0.317396
-0.311189
-0.304516
-0.297324
-0.289634
-0.281536
-0.273165
-0.264671
-0.256197
-0.247857
-0.239736
-0.231888
-0.224315
-0.217157
-0.347211
-0.342451
-0.337883
-0.333112
-0.328145
-0.323126
-0.31807
-0.312907
-0.307523
-0.3018
-0.295646
-0.289024
-0.281962
-0.274542
-0.266883
-0.259117
-0.251363
-0.24372
-0.236267
-0.228993
-0.222124
-0.339409
-0.335323
-0.331262
-0.32694
-0.322409
-0.317834
-0.313265
-0.308672
-0.303971
-0.299051
-0.293803
-0.288149
-0.282063
-0.275574
-0.26876
-0.261728
-0.254594
-0.247461
-0.240431
-0.233483
-0.226912
-0.33223
-0.328767
-0.325189
-0.321299
-0.317182
-0.313013
-0.308869
-0.304755
-0.300617
-0.296366
-0.29189
-0.28709
-0.281899
-0.276298
-0.270319
-0.264036
-0.25755
-0.25096
-0.244389
-0.237799
-0.231549
-0.325668
-0.322773
-0.319649
-0.316172
-0.31245
-0.308659
-0.304896
-0.301191
-0.297522
-0.293822
-0.289993
-0.285928
-0.281535
-0.276756
-0.27158
-0.266043
-0.260223
-0.254206
-0.248133
-0.241949
-0.236057
-0.31971
-0.317324
-0.31462
-0.311534
-0.308189
-0.304755
-0.30134
-0.297995
-0.294723
-0.291479
-0.288184
-0.284737
-0.281036
-0.276995
-0.272567
-0.26775
-0.262596
-0.257173
-0.251635
-0.245917
-0.240481
-0.31433
-0.312391
-0.310073
-0.307355
-0.304367
-0.301273
-0.298185
-0.295165
-0.292236
-0.289374
-0.286521
-0.283586
-0.280468
-0.277068
-0.273313
-0.269166
-0.264651
-0.259821
-0.254843
-0.249663
-0.244804
-0.309494
-0.307943
-0.305974
-0.303599
-0.30095
-0.298181
-0.295401
-0.292683
-0.290061
-0.287527
-0.285041
-0.282528
-0.279893
-0.277034
-0.27386
-0.270308
-0.266375
-0.262097
-0.257675
-0.253066
-0.249091
-0.305164
-0.303943
-0.302285
-0.300228
-0.297899
-0.295439