/*--------------------------------*- C++ -*----------------------------------*\
  =========                 |
  \\      /  F ield         | OpenFOAM: The Open Source CFD Toolbox
   \\    /   O peration     | Website:  https://openfoam.org
    \\  /    A nd           | Version:  7
     \\/     M anipulation  |
\*---------------------------------------------------------------------------*/
FoamFile
{
    version     2.0;
    format      ascii;
    class       volScalarField;
    location    "5";
    object      p;
}
// * * * * * * * * * * * * * * * * * * * * * * * * * * * * * * * * * * * * * //

dimensions      [0 2 -2 0 0 0 0];

internalField   nonuniform List<scalar> 
2304
(
-0.355985
-0.362255
-0.359872
-0.352922
-0.342797
-0.329942
-0.314885
-0.298232
-0.280239
-0.262599
-0.361696
-0.366397
-0.363227
-0.355789
-0.345322
-0.332232
-0.316944
-0.299949
-0.281362
-0.262373
-0.372706
-0.374381
-0.369652
-0.361228
-0.35007
-0.336467
-0.320736
-0.303192
-0.283465
-0.261996
-0.388302
-0.385688
-0.378659
-0.368747
-0.356502
-0.342109
-0.325701
-0.307428
-0.286424
-0.261632
-0.407658
-0.399644
-0.389746
-0.377836
-0.364099
-0.348601
-0.331255
-0.312059
-0.289884
-0.261418
-0.429888
-0.415767
-0.402432
-0.388082
-0.372469
-0.355521
-0.336923
-0.316493
-0.293018
-0.261056
-0.45432
-0.433587
-0.416399
-0.399264
-0.381421
-0.362657
-0.342443
-0.320322
-0.294744
-0.26006
-0.480352
-0.452679
-0.431447
-0.411277
-0.390867
-0.369893
-0.3477
-0.3236
-0.295691
-0.262197
-0.50739
-0.472697
-0.447355
-0.423949
-0.400585
-0.37686
-0.352118
-0.325882
-0.298189
-0.277117
-0.534658
-0.493119
-0.463718
-0.43686
-0.410012
-0.382755
-0.354533
-0.32517
-0.295397
-0.270065
-0.56108
-0.513132
-0.479788
-0.449176
-0.418166
-0.386489
-0.353907
-0.320664
-0.287822
-0.257555
-0.58514
-0.531522
-0.494362
-0.459571
-0.423616
-0.386682
-0.349124
-0.311727
-0.275759
-0.242203
-0.60486
-0.546627
-0.505752
-0.466258
-0.424611
-0.381845
-0.339162
-0.297914
-0.259453
-0.224153
-0.617861
-0.556366
-0.511851
-0.467139
-0.419294
-0.370591
-0.3232
-0.278902
-0.238889
-0.203073
-0.621507
-0.55835
-0.510301
-0.460035
-0.405938
-0.351801
-0.300679
-0.254507
-0.214051
-0.178822
-0.613115
-0.550079
-0.498726
-0.44295
-0.383163
-0.324731
-0.271311
-0.224659
-0.184923
-0.151341
-0.59021
-0.529184
-0.475012
-0.414315
-0.350089
-0.289059
-0.235073
-0.189401
-0.151453
-0.120313
-0.550793
-0.493705
-0.437574
-0.373192
-0.306423
-0.244899
-0.192224
-0.148973
-0.113725
-0.0853627
-0.493594
-0.442348
-0.385592
-0.31939
-0.252458
-0.192764
-0.143311
-0.103871
-0.0723069
-0.0474761
-0.418282
-0.374745
-0.31914
-0.253486
-0.18902
-0.133525
-0.0891885
-0.0548338
-0.0276884
-0.00776635
-0.32563
-0.291687
-0.239075
-0.176718
-0.117433
-0.0684735
-0.0308163
-0.00260948
0.0191919
0.0335119
-0.217499
-0.195022
-0.146792
-0.090884
-0.0396794
0.000889705
0.0305242
0.051649
0.06723
0.0754239
-0.0964902
-0.0862575
-0.0461042
0.00116655
0.0422958
0.0728651
0.0934301
0.106605
0.11488
0.116539
0.0331054
0.0302456
0.0603638
0.0967364
0.126143
0.145644
0.156508
0.161089
0.161186
0.156338
0.166867
0.150256
0.168877
0.192716
0.20935
0.217276
0.218253
0.214059
0.205921
0.200905
0.299703
0.269219
0.275409
0.285841
0.289305
0.285587
0.276703
0.264236
0.249965
0.241187
0.426277
0.382389
0.375922
0.37288
0.363459
0.348546
0.330274
0.310156
0.290139
0.275788
0.541346
0.485112
0.46654
0.450769
0.429418
0.404289
0.377554
0.35065
0.325306
0.305361
0.640032
0.573089
0.54373
0.516735
0.485024
0.451116
0.417173
0.384516
0.354506
0.329557
0.718084
0.642592
0.604462
0.568412
0.52844
0.487585
0.447973
0.410803
0.377059
0.348047
0.772103
0.690654
0.646337
0.603939
0.558219
0.512556
0.469037
0.428762
0.392416
0.360542
0.79972
0.715212
0.667698
0.622031
0.573364
0.525243
0.479732
0.437874
0.400194
0.36684
0.79972
0.715212
0.667698
0.622031
0.573364
0.525243
0.479732
0.437874
0.400194
0.36684
0.772103
0.690654
0.646337
0.603939
0.558219
0.512556
0.469037
0.428762
0.392416
0.360542
0.718084
0.642592
0.604462
0.568412
0.52844
0.487585
0.447973
0.410803
0.377059
0.348047
0.640032
0.573089
0.54373
0.516735
0.485024
0.451116
0.417173
0.384516
0.354506
0.329557
0.541346
0.485112
0.46654
0.450769
0.429418
0.404289
0.377554
0.35065
0.325306
0.305361
0.426277
0.382389
0.375922
0.37288
0.363459
0.348546
0.330274
0.310156
0.290139
0.275788
0.299703
0.269219
0.275409
0.285841
0.289305
0.285587
0.276703
0.264236
0.249965
0.241187
0.166867
0.150256
0.168877
0.192716
0.20935
0.217276
0.218253
0.214059
0.205921
0.200905
0.0331054
0.0302457
0.0603638
0.0967364
0.126143
0.145644
0.156508
0.161089
0.161186
0.156338
-0.0964902
-0.0862575
-0.0461042
0.00116656
0.0422958
0.0728651
0.0934301
0.106605
0.11488
0.116539
-0.217499
-0.195022
-0.146792
-0.090884
-0.0396793
0.000889713
0.0305242
0.051649
0.06723
0.0754239
-0.32563
-0.291687
-0.239075
-0.176718
-0.117433
-0.0684735
-0.0308163
-0.00260947
0.0191919
0.0335119
-0.418282
-0.374745
-0.31914
-0.253486
-0.18902
-0.133525
-0.0891885
-0.0548338
-0.0276884
-0.00776635
-0.493594
-0.442348
-0.385592
-0.31939
-0.252458
-0.192764
-0.143311
-0.103871
-0.0723069
-0.0474761
-0.550793
-0.493705
-0.437574
-0.373192
-0.306423
-0.244899
-0.192224
-0.148973
-0.113725
-0.0853627
-0.59021
-0.529184
-0.475012
-0.414315
-0.350089
-0.289059
-0.235073
-0.189401
-0.151453
-0.120313
-0.613115
-0.550079
-0.498726
-0.44295
-0.383163
-0.324731
-0.271311
-0.224659
-0.184923
-0.151341
-0.621507
-0.55835
-0.510301
-0.460035
-0.405938
-0.351801
-0.300679
-0.254507
-0.214051
-0.178822
-0.617861
-0.556366
-0.511851
-0.467139
-0.419294
-0.370591
-0.3232
-0.278902
-0.238889
-0.203073
-0.60486
-0.546627
-0.505751
-0.466258
-0.424611
-0.381845
-0.339162
-0.297914
-0.259453
-0.224152
-0.58514
-0.531522
-0.494362
-0.459571
-0.423616
-0.386682
-0.349124
-0.311727
-0.275759
-0.242203
-0.56108
-0.513132
-0.479788
-0.449176
-0.418166
-0.386489
-0.353907
-0.320664
-0.287822
-0.257555
-0.534658
-0.493119
-0.463718
-0.43686
-0.410012
-0.382755
-0.354533
-0.32517
-0.295397
-0.270065
-0.50739
-0.472697
-0.447355
-0.423949
-0.400585
-0.37686
-0.352118
-0.325882
-0.298189
-0.277117
-0.480352
-0.452679
-0.431447
-0.411277
-0.390867
-0.369893
-0.3477
-0.3236
-0.295691
-0.262197
-0.45432
-0.433587
-0.416399
-0.399264
-0.381421
-0.362657
-0.342443
-0.320322
-0.294744
-0.26006
-0.429888
-0.415767
-0.402432
-0.388082
-0.372469
-0.355521
-0.336923
-0.316493
-0.293018
-0.261056
-0.407658
-0.399644
-0.389746
-0.377836
-0.364099
-0.348601
-0.331255
-0.312059
-0.289884
-0.261418
-0.388302
-0.385688
-0.378659
-0.368747
-0.356502
-0.342109
-0.325701
-0.307428
-0.286424
-0.261632
-0.372706
-0.374381
-0.369652
-0.361228
-0.35007
-0.336467
-0.320736
-0.303192
-0.283465
-0.261996
-0.361696
-0.366397
-0.363227
-0.355789
-0.345322
-0.332232
-0.316944
-0.299949
-0.281362
-0.262373
-0.355985
-0.362255
-0.359872
-0.352922
-0.342797
-0.329942
-0.314885
-0.298232
-0.280239
-0.262599
-0.244481
-0.2059
-0.171459
-0.136195
-0.101915
-0.0708823
-0.0444662
-0.0233719
-0.00763934
0.00322186
0.0100053
0.0136116
0.0149152
0.0146837
0.0135325
0.011922
0.0101546
0.00842889
0.00681548
0.00540717
0.00408354
0.00308048
0.00181591
0.00138395
-0.248503
-0.208707
-0.174393
-0.139301
-0.10492
-0.0736759
-0.0469759
-0.0255535
-0.00947951
0.00171264
0.00879941
0.0126704
0.0141952
0.0141418
0.0131292
0.0116239
0.00993525
0.00826786
0.00669776
0.00532126
0.00402248
0.00303559
0.00178918
0.00135689
-0.255709
-0.213834
-0.1796
-0.144871
-0.110383
-0.0788089
-0.0516375
-0.0296455
-0.0129603
-0.00116306
0.00648708
0.0108558
0.0128003
0.013087
0.0123411
0.0110394
0.00950388
0.00795044
0.00646533
0.00515143
0.00390171
0.00294693
0.0017367
0.00130433
-0.264598
-0.220504
-0.18601
-0.15185
-0.117406
-0.0855375
-0.0578543
-0.0351849
-0.0177316
-0.00514717
0.0032534
0.00829668
0.010818
0.0115772
0.011206
0.0101931
0.00887628
0.00748679
0.00612479
0.004902
0.00372416
0.00281676
0.00166045
0.00122916
-0.273254
-0.227724
-0.192508
-0.159055
-0.124957
-0.0929962
-0.0649141
-0.0416029
-0.0233538
-0.00991144
-0.000665512
0.00515627
0.00835715
0.00968391
0.00977137
0.00911677
0.00807387
0.0068912
0.00568565
0.00457932
0.00349414
0.00264832
0.00156293
0.00113622
-0.27958
-0.234253
-0.198251
-0.165558
-0.132204
-0.100511
-0.0722821
-0.0484887
-0.0295248
-0.0152432
-0.00512665
0.00152641
0.00547418
0.00743977
0.00805392
0.00782021
0.00710336
0.00616882
0.00515203
0.00418686
0.00321453
0.00244456
0.00144598
0.00102711
-0.281927
-0.239778
-0.203514
-0.171478
-0.139203
-0.10819
-0.0800972
-0.0559781
-0.0363535
-0.0212155
-0.0101686
-0.00260402
0.00217499
0.00485607
0.00606093
0.00630213
0.00596076
0.00531622
0.00452213
0.00372421
0.00288629
0.0022072
0.00131232
0.00090546
-0.277093
-0.240224
-0.205863
-0.174919
-0.144119
-0.114274
-0.0867394
-0.062624
-0.0425841
-0.0267719
-0.0149259
-0.00654312
-0.00100219
0.00233752
0.00409201
0.00478068
0.00479694
0.00443291
0.00386024
0.00322983
0.00253337
0.00194564
0.00117314
0.000771185
-0.248565
-0.227674
-0.199528
-0.170715
-0.142233
-0.114413
-0.0883578
-0.0652788
-0.0458953
-0.0303694
-0.0184815
-0.00982816
-0.00388586
-7.99419e-05
0.00212895
0.00321396
0.00355706
0.00345104
0.00308799
0.00261604
0.00207377
0.00157672
0.00097959
0.000571323
-0.21034
-0.19852
-0.175649
-0.151849
-0.128849
-0.106262
-0.0845909
-0.064888
-0.047909
-0.033927
-0.0228826
-0.0145039
-0.00842415
-0.0042287
-0.00149831
0.000153594
0.00105034
0.00144741
0.00152456
0.00142004
0.00119488
0.000941536
0.000598788
0.000329008
-0.174762
-0.170117
-0.153224
-0.134616
-0.116447
-0.0982635
-0.0803319
-0.0635904
-0.0488093
-0.036323
-0.0261556
-0.0181623
-0.0121071
-0.0076938
-0.00460173
-0.00252272
-0.0011884
-0.000378922
7.10354e-05
0.000288605
0.00034935
0.000327545
0.000225104
0.000117422
-0.144925
-0.144641
-0.133109
-0.11915
-0.104995
-0.090446
-0.07572
-0.0616125
-0.0488388
-0.0377663
-0.0284957
-0.0209777
-0.015072
-0.0105755
-0.00725148
-0.00486089
-0.00318509
-0.00203838
-0.00127185
-0.000771579
-0.000452419
-0.000258102
-0.000132953
-7.97158e-05
-0.120497
-0.122896
-0.115783
-0.10571
-0.0948256
-0.0832441
-0.0712037
-0.0593629
-0.0483599
-0.0385758
-0.0301673
-0.0231532
-0.0174658
-0.0129756
-0.00951442
-0.00690086
-0.00495982
-0.00353733
-0.00250168
-0.00175336
-0.00120148
-0.000807641
-0.000470271
-0.000262662
-0.101175
-0.105148
-0.10135
-0.0943825
-0.0861297
-0.076932
-0.0670746
-0.0571148
-0.0476159
-0.0389558
-0.0313275
-0.0247994
-0.0193581
-0.0149299
-0.0114
-0.00863364
-0.00649246
-0.00485053
-0.00359238
-0.00263287
-0.00187774
-0.001306
-0.000776857
-0.000426947
-0.0862893
-0.0910447
-0.0896055
-0.0850386
-0.0788697
-0.0715572
-0.0634388
-0.0550049
-0.0467527
-0.0390458
-0.0320988
-0.0260155
-0.0208219
-0.0164861
-0.0129342
-0.0100684
-0.00778048
-0.0059683
-0.00453085
-0.00339637
-0.00246878
-0.00174337
-0.00104634
-0.00056999
-0.0749724
-0.0800812
-0.0802869
-0.077521
-0.0729604
-0.0671121
-0.0603532
-0.0531297
-0.0458842
-0.0389621
-0.0325891
-0.0268935
-0.0219296
-0.0176965
-0.014151
-0.0112241
-0.00883149
-0.00689042
-0.00531218
-0.00403681
-0.00296737
-0.0021136
-0.00127477
-0.000690243
-0.0665748
-0.0718351
-0.073156
-0.0716913
-0.0683293
-0.0635842
-0.0578564
-0.0515607
-0.0450981
-0.0387958
-0.0328845
-0.0275084
-0.0227422
-0.018607
-0.0150822
-0.0121204
-0.00965538
-0.00761984
-0.00593491
-0.0045504
-0.00336905
-0.00241265
-0.0014595
-0.000786727
-0.0606377
-0.0659462
-0.0679974
-0.0674286
-0.0649138
-0.0609574
-0.0559706
-0.050347
-0.0444577
-0.0386148
-0.0330504
-0.0279189
-0.0233085
-0.0192554
-0.0157549
-0.0127749
-0.0102623
-0.00816105
-0.00639972
-0.00493558
-0.00367143
-0.00263817
-0.00159884
-0.000858708
-0.0568377
-0.0621558
-0.0646497
-0.0646406
-0.0626655
-0.059216
-0.054708
-0.0495212
-0.0440073
-0.0384679
-0.0331349
-0.0281685
-0.0236653
-0.0196711
-0.0161909
-0.0132025
-0.0106613
-0.0085187
-0.00670825
-0.00519211
-0.00387356
-0.00278894
-0.00169256
-0.000904623
-0.0549613
-0.0602858
-0.0629964
-0.0632622
-0.0615507
-0.0583489
-0.0540757
-0.0491041
-0.0437759
-0.0383872
-0.0331698
-0.0282864
-0.0238378
-0.019874
-0.0164051
-0.0134135
-0.010859
-0.00869638
-0.00686214
-0.00531989
-0.00397548
-0.00286333
-0.00174351
-0.000921548
-0.249039
-0.203445
-0.161504
-0.130933
-0.108201
-0.0907018
-0.0773602
-0.0672773
-0.0597975
-0.0545019
-0.0511016
-0.0494021
-0.223999
-0.185265
-0.149284
-0.121571
-0.100796
-0.0845636
-0.0720145
-0.0624891
-0.0554053
-0.0503724
-0.0471199
-0.045472
-0.211353
-0.172712
-0.139305
-0.112768
-0.0929868
-0.0777738
-0.0660192
-0.0570861
-0.0504384
-0.0457043
-0.0426282
-0.041059
-0.196867
-0.157906
-0.127134
-0.102853
-0.0844729
-0.070375
-0.0594685
-0.0511493
-0.044949
-0.0405261
-0.037642
-0.0361708
-0.181322
-0.143487
-0.114666
-0.0923946
-0.0753802
-0.0623511
-0.0523053
-0.0446353
-0.0389135
-0.0348289
-0.0321621
-0.0308117
-0.163111
-0.127752
-0.101123
-0.0809755
-0.0655356
-0.053676
-0.0445409
-0.0375619
-0.0323512
-0.0286314
-0.0262063
-0.0249971
-0.142442
-0.110739
-0.0867139
-0.0687386
-0.0549701
-0.0443629
-0.0361903
-0.0299461
-0.0252833
-0.0219577
-0.0197996
-0.0187485
-0.119333
-0.092105
-0.0711734
-0.0555896
-0.0436475
-0.0344129
-0.027279
-0.0218226
-0.0177477
-0.0148467
-0.0129787
-0.0120991
-0.093543
-0.0718202
-0.0545108
-0.0416131
-0.0316382
-0.0238851
-0.0178665
-0.0132516
-0.0098036
-0.00735519
-0.00579402
-0.00509952
-0.0647322
-0.049951
-0.0369043
-0.0269514
-0.0190602
-0.012882
-0.00804581
-0.00431862
-0.00152931
0.000445689
0.00168778
0.00218988
-0.0339625
-0.0267739
-0.0181175
-0.0114868
-0.00592924
-0.00145492
0.00211925
0.00490929
0.00700835
0.00849105
0.00940119
0.00972173
-0.00148249
-0.00236522
0.00122082
0.00437785
0.0074929
0.0102077
0.0124838
0.0143111
0.0157031
0.0166843
0.0172613
0.0174154
0.0320964
0.0231175
0.0212257
0.0207707
0.0213087
0.0221463
0.023033
0.0238346
0.024482
0.0249435
0.0251865
0.0251916
0.0675418
0.0514334
0.0435826
0.0388842
0.0362736
0.0347942
0.0339881
0.0335719
0.0333621
0.0332443
0.0331329
0.0329992
0.105792
0.0840013
0.0693275
0.0593478
0.052768
0.0483929
0.0455053
0.0436194
0.0423955
0.0416076
0.0411026
0.040826
0.138324
0.11278
0.092737
0.0783526
0.0684024
0.061521
0.0567727
0.0535241
0.0513312
0.0498925
0.0490099
0.0485985
0.168765
0.142684
0.121181
0.104174
0.0915973
0.0824163
0.0756845
0.0707843
0.0672895
0.0648979
0.063408
0.0626974
0.19365
0.165984
0.144713
0.127764
0.114508
0.10429
0.0964663
0.0905445
0.0861719
0.0830948
0.0811385
0.0801946
0.196036
0.175662
0.158251
0.14349
0.131212
0.121193
0.113157
0.106846
0.102045
0.0985878
0.0963505
0.0952479
0.194436
0.179047
0.164924
0.152374
0.141535
0.132382
0.124822
0.118738
0.114017
0.110562
0.108301
0.107185
0.190153
0.178833
0.167835
0.157593
0.148372
0.140294
0.133407
0.127719
0.123213
0.119865
0.11765
0.116545
0.186849
0.17795
0.168998
0.16038
0.152395
0.145225
0.138983
0.133736
0.12952
0.126352
0.124239
0.123183
0.18426
0.176886
0.169292
0.161808
0.154709
0.148201
0.142433
0.137512
0.133511
0.130478
0.128441
0.127419
0.183183
0.17644
0.169401
0.162384
0.155659
0.14944
0.143888
0.139125
0.135235
0.132275
0.130284
0.129286
0.216267
0.224575
0.214115
0.207101
0.19882
0.193505
0.189562
0.187934
0.242589
0.238817
0.223019
0.213143
0.203287
0.197213
0.192777
0.191
0.264009
0.250168
0.230415
0.218153
0.207131
0.200464
0.195579
0.193748
0.282512
0.260311
0.237093
0.222676
0.21058
0.203031
0.198054
0.196149
0.297614
0.268631
0.242648
0.226421
0.213463
0.205485
0.20015
0.198153
0.30909
0.274994
0.246937
0.229306
0.215653
0.207292
0.201777
0.199707
0.316812
0.279312
0.249869
0.231283
0.217162
0.208522
0.202885
0.200767
0.320691
0.281495
0.251357
0.232285
0.217882
0.20914
0.203447
0.201304
0.320691
0.281495
0.251357
0.232285
0.217882
0.20914
0.203447
0.201304
0.316812
0.279312
0.249869
0.231283
0.217162
0.208522
0.202885
0.200767
0.30909
0.274994
0.246937
0.229306
0.215653
0.207292
0.201777
0.199707
0.297614
0.268631
0.242648
0.226421
0.213463
0.205485
0.20015
0.198153
0.282512
0.260311
0.237093
0.222676
0.21058
0.203031
0.198054
0.196149
0.264009
0.250168
0.230415
0.218153
0.207131
0.200464
0.195579
0.193748
0.242589
0.238817
0.223019
0.213143
0.203287
0.197213
0.192777
0.191
0.216267
0.224575
0.214115
0.207101
0.19882
0.193505
0.189562
0.187934
0.168765
0.19365
0.196036
0.194436
0.190153
0.186849
0.18426
0.183183
0.142684
0.165984
0.175662
0.179047
0.178833
0.17795
0.176886
0.17644
0.121181
0.144713
0.158251
0.164924
0.167835
0.168998
0.169292
0.169401
0.104174
0.127764
0.14349
0.152374
0.157593
0.16038
0.161808
0.162384
0.0915973
0.114508
0.131212
0.141535
0.148372
0.152395
0.154709
0.155659
0.0824163
0.10429
0.121193
0.132382
0.140294
0.145225
0.148201
0.14944
0.0756845
0.0964663
0.113157
0.124822
0.133407
0.138983
0.142433
0.143888
0.0707843
0.0905445
0.106846
0.118738
0.127719
0.133736
0.137512
0.139125
0.0672895
0.0861719
0.102045
0.114017
0.123213
0.12952
0.133511
0.135235
0.0648979
0.0830948
0.0985878
0.110562
0.119865
0.126352
0.130478
0.132275
0.063408
0.0811385
0.0963505
0.108301
0.11765
0.124239
0.128441
0.130284
0.0626974
0.0801946
0.0952479
0.107185
0.116545
0.123183
0.127419
0.129286
0.138324
0.11278
0.092737
0.0783526
0.0684024
0.061521
0.0567727
0.0535241
0.0513312
0.0498925
0.0490099
0.0485985
0.105792
0.0840013
0.0693275
0.0593478
0.052768
0.0483929
0.0455053
0.0436194
0.0423955
0.0416076
0.0411026
0.040826
0.0675418
0.0514334
0.0435826
0.0388842
0.0362736
0.0347942
0.0339881
0.0335719
0.0333621
0.0332443
0.0331329
0.0329992
0.0320964
0.0231175
0.0212257
0.0207707
0.0213087
0.0221463
0.023033
0.0238346
0.024482
0.0249436
0.0251865
0.0251916
-0.00148249
-0.00236521
0.00122082
0.00437786
0.0074929
0.0102077
0.0124838
0.0143111
0.0157031
0.0166843
0.0172613
0.0174154
-0.0339624
-0.0267739
-0.0181175
-0.0114868
-0.00592924
-0.00145492
0.00211926
0.00490929
0.00700835
0.00849105
0.00940119
0.00972173
-0.0647322
-0.049951
-0.0369043
-0.0269514
-0.0190602
-0.012882
-0.00804581
-0.00431862
-0.00152931
0.000445693
0.00168778
0.00218988
-0.093543
-0.0718201
-0.0545108
-0.0416131
-0.0316382
-0.023885
-0.0178665
-0.0132516
-0.0098036
-0.00735518
-0.00579402
-0.00509952
-0.119333
-0.0921049
-0.0711734
-0.0555896
-0.0436475
-0.0344129
-0.027279
-0.0218226
-0.0177477
-0.0148467
-0.0129787
-0.0120991
-0.142442
-0.110739
-0.0867139
-0.0687386
-0.0549701
-0.0443629
-0.0361903
-0.0299461
-0.0252833
-0.0219577
-0.0197996
-0.0187485
-0.163111
-0.127752
-0.101123
-0.0809755
-0.0655356
-0.053676
-0.0445409
-0.0375619
-0.0323512
-0.0286314
-0.0262063
-0.0249971
-0.181322
-0.143487
-0.114666
-0.0923946
-0.0753802
-0.0623511
-0.0523053
-0.0446353
-0.0389134
-0.0348289
-0.0321621
-0.0308117
-0.196867
-0.157906
-0.127134
-0.102853
-0.0844729
-0.070375
-0.0594685
-0.0511493
-0.044949
-0.0405261
-0.037642
-0.0361707
-0.211353
-0.172712
-0.139305
-0.112768
-0.0929868
-0.0777737
-0.0660192
-0.0570861
-0.0504384
-0.0457043
-0.0426282
-0.041059
-0.223999
-0.185265
-0.149284
-0.121571
-0.100796
-0.0845636
-0.0720145
-0.0624891
-0.0554053
-0.0503724
-0.0471199
-0.045472
-0.249039
-0.203445
-0.161504
-0.130933
-0.108201
-0.0907018
-0.0773602
-0.0672773
-0.0597975
-0.0545019
-0.0511016
-0.0494021
-0.248565
-0.21034
-0.174762
-0.144925
-0.120497
-0.101175
-0.0862893
-0.0749724
-0.0665748
-0.0606377
-0.0568377
-0.0549613
-0.227674
-0.19852
-0.170117
-0.144641
-0.122896
-0.105148
-0.0910447
-0.0800812
-0.0718351
-0.0659462
-0.0621558
-0.0602858
-0.199528
-0.175649
-0.153224
-0.133109
-0.115783
-0.10135
-0.0896055
-0.0802869
-0.073156
-0.0679974
-0.0646497
-0.0629964
-0.170715
-0.151849
-0.134616
-0.11915
-0.10571
-0.0943825
-0.0850386
-0.077521
-0.0716913
-0.0674286
-0.0646406
-0.0632622
-0.142233
-0.128849
-0.116447
-0.104995
-0.0948256
-0.0861297
-0.0788697
-0.0729604
-0.0683292
-0.0649138
-0.0626655
-0.0615507
-0.114413
-0.106262
-0.0982635
-0.090446
-0.0832441
-0.076932
-0.0715572
-0.067112
-0.0635842
-0.0609574
-0.059216
-0.0583489
-0.0883578
-0.0845909
-0.0803319
-0.07572
-0.0712037
-0.0670746
-0.0634388
-0.0603532
-0.0578564
-0.0559706
-0.054708
-0.0540757
-0.0652788
-0.064888
-0.0635904
-0.0616125
-0.0593629
-0.0571148
-0.0550049
-0.0531297
-0.0515607
-0.050347
-0.0495212
-0.0491041
-0.0458953
-0.047909
-0.0488093
-0.0488388
-0.0483599
-0.0476159
-0.0467527
-0.0458842
-0.0450981
-0.0444577
-0.0440073
-0.0437759
-0.0303694
-0.033927
-0.036323
-0.0377663
-0.0385758
-0.0389558
-0.0390458
-0.0389621
-0.0387958
-0.0386148
-0.0384679
-0.0383872
-0.0184815
-0.0228826
-0.0261556
-0.0284957
-0.0301673
-0.0313275
-0.0320988
-0.0325891
-0.0328845
-0.0330504
-0.0331349
-0.0331698
-0.00982817
-0.0145039
-0.0181623
-0.0209777
-0.0231532
-0.0247994
-0.0260155
-0.0268935
-0.0275084
-0.0279189
-0.0281685
-0.0282864
-0.00388587
-0.00842416
-0.0121071
-0.015072
-0.0174658
-0.0193581
-0.0208219
-0.0219296
-0.0227422
-0.0233085
-0.0236653
-0.0238378
-7.99422e-05
-0.0042287
-0.0076938
-0.0105755
-0.0129756
-0.0149299
-0.0164861
-0.0176965
-0.018607
-0.0192554
-0.0196711
-0.019874
0.00212895
-0.00149831
-0.00460173
-0.00725148
-0.00951442
-0.0114
-0.0129342
-0.014151
-0.0150822
-0.0157549
-0.0161909
-0.0164051
0.00321396
0.000153594
-0.00252272
-0.00486089
-0.00690086
-0.00863364
-0.0100684
-0.0112241
-0.0121204
-0.0127749
-0.0132025
-0.0134135
0.00355706
0.00105034
-0.0011884
-0.00318509
-0.00495982
-0.00649246
-0.00778048
-0.00883149
-0.00965538
-0.0102623
-0.0106613
-0.010859
0.00345104
0.00144741
-0.000378922
-0.00203838
-0.00353733
-0.00485053
-0.0059683
-0.00689042
-0.00761984
-0.00816105
-0.0085187
-0.00869638
0.00308799
0.00152456
7.10356e-05
-0.00127185
-0.00250168
-0.00359238
-0.00453085
-0.00531218
-0.00593491
-0.00639972
-0.00670825
-0.00686213
0.00261604
0.00142004
0.000288605
-0.000771579
-0.00175336
-0.00263287
-0.00339637
-0.00403681
-0.0045504
-0.00493558
-0.00519211
-0.00531989
0.00207377
0.00119488
0.00034935
-0.000452419
-0.00120148
-0.00187774
-0.00246878
-0.00296737
-0.00336905
-0.00367143
-0.00387356
-0.00397548
0.00157672
0.000941536
0.000327545
-0.000258102
-0.000807641
-0.001306
-0.00174337
-0.0021136
-0.00241265
-0.00263817
-0.00278894
-0.00286333
0.00097959
0.000598788
0.000225104
-0.000132952
-0.000470271
-0.000776857
-0.00104634
-0.00127477
-0.0014595
-0.00159884
-0.00169256
-0.00174351
0.000571323
0.000329008
0.000117422
-7.97159e-05
-0.000262662
-0.000426947
-0.00056999
-0.000690243
-0.000786727
-0.000858708
-0.000904623
-0.000921548
-0.277093
-0.240224
-0.205863
-0.174919
-0.144119
-0.114274
-0.0867394
-0.062624
-0.0425841
-0.0267719
-0.0149259
-0.00654312
-0.00100219
0.00233752
0.00409201
0.00478068
0.00479694
0.00443291
0.00386024
0.00322983
0.00253337
0.00194564
0.00117314
0.000771185
-0.281927
-0.239778
-0.203514
-0.171478
-0.139203
-0.10819
-0.0800972
-0.0559781
-0.0363535
-0.0212155
-0.0101686
-0.00260402
0.00217499
0.00485607
0.00606093
0.00630213
0.00596076
0.00531622
0.00452213
0.00372421
0.00288629
0.0022072
0.00131232
0.00090546
-0.27958
-0.234253
-0.198251
-0.165558
-0.132204
-0.100511
-0.0722821
-0.0484887
-0.0295248
-0.0152432
-0.00512665
0.00152641
0.00547418
0.00743977
0.00805392
0.00782021
0.00710336
0.00616882
0.00515203
0.00418686
0.00321453
0.00244456
0.00144598
0.00102711
-0.273254
-0.227724
-0.192508
-0.159055
-0.124957
-0.0929962
-0.0649141
-0.0416029
-0.0233538
-0.00991144
-0.000665512
0.00515627
0.00835715
0.00968391
0.00977137
0.00911677
0.00807387
0.0068912
0.00568565
0.00457932
0.00349414
0.00264832
0.00156293
0.00113622
-0.264598
-0.220504
-0.18601
-0.15185
-0.117406
-0.0855375
-0.0578543
-0.0351849
-0.0177316
-0.00514717
0.0032534
0.00829668
0.010818
0.0115772
0.011206
0.0101931
0.00887628
0.00748679
0.00612479
0.004902
0.00372416
0.00281676
0.00166045
0.00122916
-0.255709
-0.213834
-0.1796
-0.144871
-0.110383
-0.0788089
-0.0516375
-0.0296455
-0.0129603
-0.00116306
0.00648708
0.0108558
0.0128003
0.013087
0.0123411
0.0110394
0.00950388
0.00795044
0.00646533
0.00515143
0.00390171
0.00294693
0.0017367
0.00130433
-0.248503
-0.208707
-0.174393
-0.139301
-0.10492
-0.0736759
-0.0469759
-0.0255535
-0.00947951
0.00171264
0.00879941
0.0126704
0.0141952
0.0141418
0.0131292
0.0116239
0.00993525
0.00826786
0.00669776
0.00532126
0.00402248
0.00303559
0.00178918
0.00135689
-0.244481
-0.2059
-0.171459
-0.136195
-0.101915
-0.0708823
-0.0444662
-0.0233719
-0.00763934
0.00322186
0.0100053
0.0136116
0.0149152
0.0146837
0.0135325
0.011922
0.0101546
0.00842889
0.00681548
0.00540717
0.00408354
0.00308048
0.00181591
0.00138395
)
;

boundaryField
{
    inlet
    {
        type            zeroGradient;
    }
    outlet
    {
        type            fixedValue;
        value           uniform 0;
    }
    cylinder
    {
        type            zeroGradient;
    }
    top
    {
        type            symmetryPlane;
    }
    bottom
    {
        type            symmetryPlane;
    }
    defaultFaces
    {
        type            empty;
    }
}


// ************************************************************************* //
