/*--------------------------------*- C++ -*----------------------------------*\
  =========                 |
  \\      /  F ield         | OpenFOAM: The Open Source CFD Toolbox
   \\    /   O peration     | Website:  https://openfoam.org
    \\  /    A nd           | Version:  7
     \\/     M anipulation  |
\*---------------------------------------------------------------------------*/
FoamFile
{
    version     2.0;
    format      ascii;
    class       surfaceScalarField;
    location    "5";
    object      phi;
}
// * * * * * * * * * * * * * * * * * * * * * * * * * * * * * * * * * * * * * //

dimensions      [0 3 -1 0 0 0 0];

internalField   nonuniform List<scalar> 
4488
(
-4.93269e-05
4.93269e-05
-2.14078e-11
-0.000135578
8.62507e-05
-5.83325e-11
-0.000227226
9.16482e-05
-8.84528e-11
-0.000300666
7.34407e-05
-1.14507e-10
-0.000335079
3.44125e-05
-1.34083e-10
-0.000310028
-2.50501e-05
-1.41655e-10
-0.000204022
-0.000106006
-1.36328e-10
4.64636e-06
-0.000208669
-1.17675e-10
0.000330298
-0.000325651
-9.18097e-11
-0.000428849
-5.98905e-11
0.000759147
-4.25828e-05
9.19097e-05
-0.000112164
0.000155832
-0.000177192
0.000156676
-0.000213084
0.000109333
-0.000197512
1.884e-05
-0.000108359
-0.000114203
7.79186e-05
-0.000292283
0.000385449
-0.000516199
0.000835624
-0.000775826
-0.00101721
0.00142398
-2.99188e-05
0.000121828
-6.78218e-05
0.000193735
-8.20359e-05
0.00017089
-4.62341e-05
7.35316e-05
6.44229e-05
-9.18169e-05
0.000275168
-0.000324948
0.000612669
-0.000629784
0.00110511
-0.00100864
0.00177975
-0.00145046
-0.00188676
0.0026493
-1.27576e-05
0.000134586
-6.63368e-06
0.000187611
4.97749e-05
0.000114481
0.000185301
-6.19943e-05
0.000427848
-0.000334364
0.000805734
-0.000702835
0.00134816
-0.00117221
0.00208543
-0.00174591
0.00304758
-0.00241261
-0.00309804
0.00425886
7.59803e-06
0.000126988
6.62978e-05
0.000128912
0.000208416
-2.76374e-05
0.000464504
-0.000318082
0.000865162
-0.000735022
0.00144057
-0.00127825
0.00221987
-0.00195151
0.00323074
-0.00275677
0.00449851
-0.00368038
-0.0046427
0.00604317
2.96078e-05
9.73802e-05
0.000147232
1.12872e-05
0.000384963
-0.000265369
0.000774901
-0.00070802
0.00134852
-0.00130864
0.00213492
-0.00206464
0.00315828
-0.00297487
0.00443621
-0.0040347
0.00597966
-0.00522384
-0.00644854
0.0077855
5.28087e-05
4.45716e-05
0.000232987
-0.000168891
0.000572195
-0.000604577
0.00110199
-0.00123782
0.00185166
-0.00205831
0.0028443
-0.00305729
0.0040925
-0.00422306
0.00559479
-0.00553699
0.00733557
-0.00696462
-0.00839104
0.00927807
7.68659e-05
-3.22943e-05
0.000321773
-0.000413799
0.000764215
-0.00104702
0.00143224
-0.00190585
0.00234793
-0.002974
0.00352197
-0.00423133
0.0049489
-0.00565
0.00660324
-0.00719133
0.00843015
-0.00879153
-0.0102972
0.0103363
0.000101758
-0.000134052
0.000411904
-0.000723944
0.000954894
-0.00159001
0.00175047
-0.00270142
0.00280676
-0.00403029
0.00411438
-0.00553894
0.00564386
-0.00717949
0.00734871
-0.00889617
0.00918699
-0.0106298
-0.0123573
0.0112472
0.000127315
-0.000261367
0.000501041
-0.00109767
0.00113627
-0.00222524
0.00203818
-0.00360333
0.00319348
-0.00518559
0.00456593
-0.0069114
0.00609823
-0.00871178
0.00772087
-0.0105188
0.00936879
-0.0122777
-0.013977
0.0109884
0.000152913
-0.00041428
0.000585465
-0.00153022
0.0012978
-0.00293758
0.00227394
-0.00457946
0.00347349
-0.00638514
0.00483204
-0.00826995
0.00627018
-0.0101499
0.00770852
-0.0119572
0.00908291
-0.0136521
-0.0152298
0.0103358
0.000177373
-0.000591653
0.000659925
-0.00201277
0.00142687
-0.00370452
0.00243567
-0.00558826
0.00361741
-0.00756688
0.00488501
-0.00953756
0.00615015
-0.0114151
0.00734149
-0.0131485
0.00841648
-0.0147271
-0.0161689
0.00935556
0.000199012
-0.000790665
0.000718139
-0.0025319
0.00151045
-0.00449683
0.00250459
-0.0065824
0.00360707
-0.00866937
0.00471951
-0.01065
0.00576017
-0.0124557
0.00667989
-0.0140682
0.00746571
-0.0155129
-0.0168342
0.00813096
0.000215854
-0.00100652
0.000753725
-0.00306977
0.00153753
-0.00528063
0.00246907
-0.00751395
0.00343929
-0.00963958
0.00435209
-0.0115628
0.00514484
-0.0132485
0.00579603
-0.0147194
0.00631867
-0.0160356
-0.0172605
0.00674499
0.000225913
-0.00123243
0.000761253
-0.00360511
0.00150108
-0.00602046
0.00232675
-0.00833962
0.00312533
-0.0104382
0.00381497
-0.0122524
0.00435841
-0.0137919
0.00475974
-0.0151207
0.00504913
-0.016325
-0.0174767
0.00526534
0.000227479
-0.00145991
0.00073713
-0.00411476
0.00139926
-0.00668259
0.00208436
-0.00902472
0.00268713
-0.0110409
0.0031476
-0.0127129
0.00345389
-0.0140982
0.00362908
-0.0152959
0.00371148
-0.0164074
-0.0175041
0.0037389
0.00021935
-0.00167926
0.000680111
-0.00457552
0.00123542
-0.0072379
0.00175567
-0.00954497
0.00215227
-0.0114375
0.0023897
-0.0129503
0.00247723
-0.0141857
0.0024489
-0.0152676
0.00234378
-0.0163022
-0.0173558
0.00219545
0.000200983
-0.00188024
0.000591378
-0.00496592
0.00101715
-0.00766367
0.00135865
-0.00988648
0.00154944
-0.0116283
0.00157715
-0.012978
0.001466
-0.0140746
0.00125397
-0.0150556
0.000974569
-0.0160228
-0.0170329
0.000651623
0.000172548
-0.00205279
0.000474242
-0.00526761
0.000754874
-0.0079443
0.00091275
-0.0100444
0.000905519
-0.0116211
0.000740169
-0.0128127
0.000449399
-0.0137838
7.03522e-05
-0.0146765
-0.000368018
-0.0155845
-0.0165476
-0.000853259
0.000134918
-0.00218771
0.000333648
-0.00546634
0.000460533
-0.00807119
0.000436962
-0.0100208
0.000243936
-0.0114281
-9.74012e-05
-0.0124713
-0.00054968
-0.0133315
-0.00108049
-0.0141457
-0.00166935
-0.0149956
-0.0159167
-0.00230025
8.96349e-05
-0.00227735
0.000175595
-0.0055523
0.000147097
-0.00804269
-5.04364e-05
-0.00982325
-0.000415562
-0.0110629
-0.000915463
-0.0119714
-0.00151437
-0.0127326
-0.00218596
-0.0134741
-0.00291501
-0.0142666
-0.0151424
-0.00368932
3.90036e-05
-0.00231635
1.04077e-05
-0.00552371
-0.000175512
-0.00785677
-0.000537942
-0.00946082
-0.00105819
-0.0105427
-0.00170064
-0.011329
-0.0024319
-0.0120014
-0.00323232
-0.0126737
-0.0040929
-0.013406
-0.0142312
-0.00500408
-1.72191e-05
-0.00229913
-0.000166699
-0.00537423
-0.000497886
-0.00752558
-0.00101021
-0.0089485
-0.00167102
-0.00988187
-0.00244137
-0.0105586
-0.00329208
-0.0111507
-0.00420926
-0.0117565
-0.00518804
-0.0124272
-0.0131889
-0.0062304
-7.40787e-05
-0.00222505
-0.000339544
-0.00510876
-0.000808912
-0.00705621
-0.00145783
-0.00829958
-0.00224428
-0.00909542
-0.00312942
-0.0096735
-0.00408866
-0.0101914
-0.00511346
-0.0107317
-0.00620931
-0.0113313
-0.0120471
-0.00735108
-0.000130715
-0.00209434
-0.000505736
-0.00473374
-0.00110139
-0.00646056
-0.0018723
-0.00752867
-0.00276979
-0.00819794
-0.00375724
-0.00868605
-0.00481542
-0.00913323
-0.00593722
-0.00960993
-0.00712203
-0.0101465
-0.0107366
-0.00843249
-0.000184875
-0.00190946
-0.000660665
-0.00425795
-0.00136902
-0.00575221
-0.00224668
-0.006651
-0.00324047
-0.00720415
-0.00431655
-0.00760996
-0.00545995
-0.00798983
-0.00666837
-0.00840151
-0.00795106
-0.00886385
-0.00936836
-0.00931934
-0.000234731
-0.00167473
-0.000800337
-0.00369234
-0.00160671
-0.00494584
-0.00257577
-0.00568194
-0.00365156
-0.00612836
-0.0048033
-0.00645823
-0.00602012
-0.00677301
-0.00730353
-0.00711809
-0.00866213
-0.00750526
-0.00793185
-0.0100986
-0.000278702
-0.00139603
-0.00092146
-0.00304959
-0.00181041
-0.00405689
-0.00285557
-0.00463678
-0.00399952
-0.00498441
-0.00521455
-0.0052432
-0.00649335
-0.0054942
-0.00783967
-0.00577177
-0.00926123
-0.0060837
-0.00643041
-0.0107627
-0.000315462
-0.00108057
-0.00102138
-0.00234366
-0.00197692
-0.00310135
-0.00308291
-0.00353079
-0.00428133
-0.00378599
-0.00554726
-0.00397727
-0.00687626
-0.0041652
-0.00827362
-0.00437441
-0.00974729
-0.00461003
-0.00487359
-0.0113041
-0.000343953
-0.000736614
-0.00109806
-0.00158956
-0.00210382
-0.00209559
-0.00325542
-0.00237919
-0.0044947
-0.00254671
-0.00579901
-0.00267295
-0.00716607
-0.00279815
-0.0086023
-0.00293818
-0.0101162
-0.00309615
-0.00327362
-0.0117161
-0.000363384
-0.00037323
-0.00114998
-0.00080296
-0.00218936
-0.00105622
-0.00337135
-0.0011972
-0.00463789
-0.00128018
-0.00596792
-0.00134292
-0.00736056
-0.00140551
-0.00882304
-0.0014757
-0.0103642
-0.00155497
-0.00164424
-0.0119936
-0.00037323
-1.73428e-11
-0.00117619
-3.79471e-11
-0.00223241
-4.88999e-11
-0.0034296
-5.33425e-11
-0.00470978
-5.45054e-11
-0.0060527
-5.42123e-11
-0.00745821
-5.3848e-11
-0.00893391
-5.296e-11
-0.0104889
-5.14009e-11
-4.98397e-11
-0.0121331
-0.00037323
0.00037323
-0.00117619
0.00080296
-0.00223241
0.00105622
-0.0034296
0.0011972
-0.00470978
0.00128018
-0.0060527
0.00134292
-0.00745821
0.00140551
-0.00893391
0.0014757
-0.0104889
0.00155497
0.00164424
-0.0121331
-0.000363384
0.000736614
-0.00114998
0.00158956
-0.00218936
0.00209559
-0.00337135
0.00237919
-0.00463789
0.00254671
-0.00596792
0.00267295
-0.00736056
0.00279815
-0.00882304
0.00293818
-0.0103642
0.00309615
0.00327362
-0.0119936
-0.000343953
0.00108057
-0.00109806
0.00234366
-0.00210382
0.00310135
-0.00325542
0.00353079
-0.0044947
0.00378599
-0.00579901
0.00397727
-0.00716607
0.0041652
-0.0086023
0.00437441
-0.0101162
0.00461003
0.00487359
-0.0117161
-0.000315462
0.00139603
-0.00102138
0.00304959
-0.00197692
0.00405689
-0.00308291
0.00463678
-0.00428133
0.00498441
-0.00554726
0.0052432
-0.00687626
0.0054942
-0.00827362
0.00577177
-0.00974729
0.0060837
0.00643041
-0.0113041
-0.000278702
0.00167473
-0.00092146
0.00369234
-0.00181041
0.00494584
-0.00285557
0.00568194
-0.00399952
0.00612836
-0.00521455
0.00645823
-0.00649335
0.00677301
-0.00783967
0.00711809
-0.00926123
0.00750526
0.00793185
-0.0107627
-0.000234731
0.00190946
-0.000800337
0.00425795
-0.00160671
0.00575221
-0.00257577
0.006651
-0.00365156
0.00720415
-0.0048033
0.00760996
-0.00602012
0.00798983
-0.00730353
0.00840151
-0.00866213
0.00886385
0.00936836
-0.0100986
-0.000184875
0.00209434
-0.000660665
0.00473374
-0.00136902
0.00646056
-0.00224668
0.00752867
-0.00324047
0.00819794
-0.00431655
0.00868605
-0.00545995
0.00913323
-0.00666837
0.00960993
-0.00795106
0.0101465
0.0107366
-0.00931934
-0.000130715
0.00222505
-0.000505736
0.00510876
-0.00110139
0.00705621
-0.0018723
0.00829958
-0.00276979
0.00909542
-0.00375724
0.0096735
-0.00481542
0.0101914
-0.00593722
0.0107317
-0.00712203
0.0113313
0.0120471
-0.00843249
-7.40787e-05
0.00229913
-0.000339544
0.00537423
-0.000808912
0.00752558
-0.00145783
0.0089485
-0.00224428
0.00988187
-0.00312942
0.0105586
-0.00408866
0.0111507
-0.00511346
0.0117565
-0.00620931
0.0124272
0.0131889
-0.00735108
-1.72191e-05
0.00231635
-0.000166699
0.00552371
-0.000497886
0.00785677
-0.00101021
0.00946082
-0.00167102
0.0105427
-0.00244137
0.011329
-0.00329208
0.0120014
-0.00420926
0.0126737
-0.00518804
0.013406
0.0142312
-0.0062304
3.90036e-05
0.00227735
1.04077e-05
0.0055523
-0.000175512
0.00804269
-0.000537942
0.00982325
-0.00105819
0.0110629
-0.00170064
0.0119714
-0.0024319
0.0127326
-0.00323232
0.0134741
-0.0040929
0.0142666
0.0151424
-0.00500408
8.96349e-05
0.00218771
0.000175595
0.00546634
0.000147097
0.00807119
-5.04364e-05
0.0100208
-0.000415562
0.0114281
-0.000915463
0.0124713
-0.00151437
0.0133315
-0.00218596
0.0141457
-0.00291501
0.0149956
0.0159167
-0.00368932
0.000134918
0.00205279
0.000333648
0.00526761
0.000460533
0.0079443
0.000436962
0.0100444
0.000243936
0.0116211
-9.74012e-05
0.0128127
-0.00054968
0.0137838
-0.00108049
0.0146765
-0.00166935
0.0155845
0.0165476
-0.00230025
0.000172548
0.00188024
0.000474242
0.00496592
0.000754874
0.00766367
0.00091275
0.00988648
0.000905519
0.0116283
0.000740169
0.012978
0.000449399
0.0140746
7.03521e-05
0.0150556
-0.000368018
0.0160228
0.0170329
-0.000853259
0.000200983
0.00167926
0.000591378
0.00457552
0.00101715
0.0072379
0.00135865
0.00954497
0.00154944
0.0114375
0.00157715
0.0129503
0.001466
0.0141857
0.00125397
0.0152676
0.000974569
0.0163022
0.0173558
0.000651623
0.00021935
0.00145991
0.000680111
0.00411476
0.00123542
0.00668259
0.00175567
0.00902472
0.00215227
0.0110409
0.0023897
0.0127129
0.00247723
0.0140982
0.0024489
0.0152959
0.00234378
0.0164074
0.0175041
0.00219545
0.000227479
0.00123243
0.00073713
0.00360511
0.00139926
0.00602046
0.00208436
0.00833962
0.00268713
0.0104382
0.0031476
0.0122524
0.00345389
0.0137919
0.00362908
0.0151207
0.00371148
0.016325
0.0174767
0.0037389
0.000225913
0.00100652
0.000761253
0.00306977
0.00150108
0.00528063
0.00232675
0.00751395
0.00312533
0.00963958
0.00381497
0.0115628
0.00435841
0.0132485
0.00475974
0.0147194
0.00504913
0.0160356
0.0172605
0.00526534
0.000215854
0.000790665
0.000753725
0.0025319
0.00153753
0.00449683
0.00246907
0.0065824
0.00343929
0.00866937
0.00435209
0.01065
0.00514484
0.0124557
0.00579603
0.0140682
0.00631867
0.0155129
0.0168342
0.00674499
0.000199012
0.000591653
0.000718139
0.00201277
0.00151045
0.00370452
0.00250459
0.00558826
0.00360707
0.00756688
0.00471951
0.00953756
0.00576017
0.0114151
0.00667989
0.0131485
0.00746571
0.0147271
0.0161689
0.00813096
0.000177373
0.00041428
0.000659925
0.00153022
0.00142687
0.00293758
0.00243567
0.00457946
0.0036174
0.00638514
0.00488501
0.00826995
0.00615015
0.0101499
0.00734149
0.0119571
0.00841648
0.0136521
0.0152298
0.00935556
0.000152913
0.000261367
0.000585465
0.00109767
0.0012978
0.00222524
0.00227394
0.00360333
0.00347349
0.00518559
0.00483204
0.0069114
0.00627018
0.00871178
0.00770852
0.0105188
0.00908291
0.0122777
0.013977
0.0103358
0.000127315
0.000134052
0.000501041
0.000723944
0.00113627
0.00159001
0.00203818
0.00270142
0.00319348
0.00403029
0.00456593
0.00553894
0.00609823
0.00717949
0.00772087
0.00889617
0.00936879
0.0106298
0.0123573
0.0109884
0.000101758
3.22943e-05
0.000411904
0.000413799
0.000954894
0.00104702
0.00175047
0.00190585
0.00280676
0.002974
0.00411438
0.00423133
0.00564386
0.00565
0.0073487
0.00719133
0.00918699
0.00879153
0.0102972
0.0112472
7.68658e-05
-4.45715e-05
0.000321773
0.000168891
0.000764215
0.000604577
0.00143224
0.00123782
0.00234793
0.00205831
0.00352197
0.00305729
0.0049489
0.00422306
0.00660324
0.00553699
0.00843015
0.00696462
0.00839104
0.0103363
5.28087e-05
-9.73802e-05
0.000232987
-1.12871e-05
0.000572195
0.000265369
0.00110199
0.00070802
0.00185166
0.00130864
0.0028443
0.00206464
0.0040925
0.00297487
0.00559479
0.0040347
0.00733557
0.00522384
0.00644854
0.00927807
2.96078e-05
-0.000126988
0.000147232
-0.000128911
0.000384963
2.76375e-05
0.000774901
0.000318082
0.00134852
0.000735022
0.00213492
0.00127825
0.00315828
0.00195151
0.00443621
0.00275677
0.00597966
0.00368038
0.0046427
0.0077855
7.59804e-06
-0.000134586
6.62978e-05
-0.000187611
0.000208416
-0.000114481
0.000464504
6.19945e-05
0.000865162
0.000334364
0.00144057
0.000702835
0.00221987
0.00117221
0.00323074
0.00174591
0.00449851
0.00241261
0.00309804
0.00604317
-1.27576e-05
-0.000121828
-6.63368e-06
-0.000193735
4.97749e-05
-0.000170889
0.000185301
-7.35314e-05
0.000427848
9.18171e-05
0.000805734
0.000324949
0.00134816
0.000629784
0.00208543
0.00100864
0.00304758
0.00145046
0.00188676
0.00425886
-2.99188e-05
-9.19097e-05
-6.78218e-05
-0.000155832
-8.20359e-05
-0.000156675
-4.62341e-05
-0.000109333
6.44228e-05
-1.88398e-05
0.000275168
0.000114204
0.000612669
0.000292283
0.00110511
0.0005162
0.00177975
0.000775826
0.00101721
0.0026493
-4.25828e-05
-4.93269e-05
-0.000112164
-8.62506e-05
-0.000177192
-9.1648e-05
-0.000213084
-7.34404e-05
-0.000197512
-3.44123e-05
-0.000108359
2.50504e-05
7.79185e-05
0.000106006
0.000385449
0.000208669
0.000835624
0.000325651
0.000428849
0.00142398
-4.93269e-05
-0.000135577
-0.000227226
-0.000300666
-0.000335079
-0.000310028
-0.000204022
4.64632e-06
0.000330298
0.000759147
0.0012345
-0.000475356
-2.43137e-11
0.00184271
-0.000608207
8.91919e-11
0.00258981
-0.000747103
2.01217e-10
0.00345801
-0.000868194
2.95603e-10
0.00442392
-0.000965912
3.60239e-10
0.00544727
-0.00102335
3.87219e-10
0.00648341
-0.00103614
3.75819e-10
0.00749257
-0.00100916
3.34097e-10
0.00844346
-0.000950883
2.72861e-10
0.00931374
-0.00087028
2.01896e-10
0.0100892
-0.000775506
1.31865e-10
0.0107628
-0.000673518
6.93213e-11
0.0113329
-0.000570157
1.77785e-11
0.0118031
-0.000470206
-2.12428e-11
0.0121806
-0.000377452
-4.79496e-11
0.0124751
-0.000294521
-6.3905e-11
0.012698
-0.000222861
-7.06559e-11
0.0128607
-0.000162732
-7.11054e-11
0.0129744
-0.000113738
-6.80439e-11
0.0130489
-7.44747e-05
-6.26141e-11
0.0130931
-4.41995e-05
-5.68091e-11
0.013113
-1.99133e-05
-4.98074e-11
0.0131167
-3.71509e-06
-4.56097e-11
1.38885e-05
-3.75748e-11
0.0018864
-0.000937778
0.00246029
-0.0011821
0.00316434
-0.00145115
0.00398054
-0.0016844
0.00488538
-0.00187075
0.005842
-0.00197997
0.0068099
-0.00200404
0.00775317
-0.00195244
0.00864352
-0.00184124
0.00946063
-0.00168738
0.0101913
-0.0015062
0.0108286
-0.00131077
0.0113706
-0.00111215
0.0118199
-0.000919545
0.0121827
-0.00074028
0.0124678
-0.000579556
0.0126852
-0.000440314
0.0128457
-0.000323192
0.0129595
-0.000227552
0.0130358
-0.000150733
0.013083
-9.14076e-05
0.0131067
-4.3699e-05
0.0131149
-1.18922e-05
2.28028e-05
0.00307192
-0.0013604
0.00357935
-0.00168953
0.00420169
-0.00207349
0.00492049
-0.00240319
0.00571235
-0.00266261
0.00654644
-0.00281406
0.00738985
-0.00284745
0.0082136
-0.00277618
0.00899468
-0.00262231
0.00971614
-0.00240885
0.0103665
-0.00215652
0.0109388
-0.00188312
0.0114305
-0.00160389
0.0118428
-0.00133177
0.0121798
-0.00107728
0.0124483
-0.000848067
0.0126566
-0.000648655
0.0128137
-0.000480258
0.0129284
-0.000342269
0.0130087
-0.000231034
0.0130622
-0.000144921
0.0130939
-7.53931e-05
0.0131111
-2.90739e-05
2.17499e-05
0.00459551
-0.00169704
0.00500792
-0.00210194
0.00551571
-0.00258128
0.00610162
-0.00298911
0.00674335
-0.00330434
0.00741728
-0.00348799
0.00810014
-0.00353031
0.00877142
-0.00344747
0.00941431
-0.0032652
0.0100156
-0.00301017
0.0105655
-0.0027064
0.0110571
-0.00237474
0.0114867
-0.00203346
0.0118534
-0.00169846
0.0121592
-0.00138305
0.0124083
-0.0010972
0.0126067
-0.000847103
0.0127613
-0.000634794
0.012879
-0.00046002
0.0129664
-0.000318465
0.0130301
-0.000208539
0.013074
-0.000119312
0.0131049
-5.99411e-05
5.71216e-06
0.00623896
-0.00189284
0.00653196
-0.00239494
0.00689964
-0.00294896
0.00732771
-0.00341717
0.00779787
-0.0037745
0.00829408
-0.00398421
0.00880285
-0.00403907
0.00931183
-0.00395645
0.0098097
-0.00376308
0.0102863
-0.00348678
0.0107329
-0.00315295
0.0111422
-0.00278405
0.011509
-0.00240031
0.0118305
-0.00201998
0.0121063
-0.0016588
0.012338
-0.0013289
0.0125291
-0.00103826
0.0126843
-0.000789975
0.0128088
-0.000584469
0.0129074
-0.000417085
0.0129855
-0.000286646
0.0130463
-0.000180091
0.0130957
-0.000109329
-3.03419e-05
0.00780114
-0.00190847
0.0079562
-0.00255
0.00816623
-0.00315899
0.0084223
-0.00367325
0.00871434
-0.00406653
0.00903406
-0.00430393
0.00937596
-0.00438096
0.00973361
-0.00431411
0.0100992
-0.00412862
0.0104639
-0.00385153
0.0108192
-0.00350822
0.011157
-0.00312182
0.0114705
-0.00271388
0.011755
-0.00230448
0.0120078
-0.00191159
0.0122284
-0.00154943
0.0124179
-0.00122783
0.0125791
-0.000951111
0.0127153
-0.000720692
0.0128301
-0.000531856
0.0129276
-0.000384156
0.0130101
-0.000262649
0.013083
-0.000182186
-9.14134e-05
0.00912527
-0.00175567
0.00913107
-0.00255581
0.00917224
-0.00320016
0.00925304
-0.00375405
0.00937463
-0.00418812
0.00953555
-0.00446485
0.00973457
-0.00457999
0.00996761
-0.00454714
0.0102275
-0.00438853
0.0105053
-0.0041293
0.0107914
-0.00379432
0.0110766
-0.00340708
0.0113529
-0.00299017
0.0116137
-0.00256528
0.0118546
-0.00215247
0.0120732
-0.00176801
0.012269
-0.00142361
0.0124429
-0.001125
0.0125969
-0.00087476
0.0127334
-0.000668359
0.0128556
-0.000506334
0.012965
-0.000372047
0.0130663
-0.000283523
-0.000182375
0.0101612
-0.00158055
0.00998473
-0.00237937
0.00984722
-0.00306264
0.00976529
-0.00367212
0.00973852
-0.00416135
0.00976872
-0.00449505
0.00985631
-0.00466758
0.00999676
-0.00468759
0.0101813
-0.00457311
0.0103996
-0.00434753
0.0106406
-0.00403537
0.0108941
-0.00366058
0.0111507
-0.00324674
0.0114024
-0.00281704
0.0116436
-0.00239364
0.0118704
-0.00199479
0.0120809
-0.00163416
0.0122749
-0.00131895
0.0124532
-0.00105307
0.0126172
-0.000832392
0.0127694
-0.000658454
0.0129107
-0.000513422
0.0130452
-0.000417963
-0.000308127
0.0287352
-0.000530982
-0.0297847
0.0279238
-0.00156803
0.0272622
-0.00240101
0.026693
-0.0031029
0.0261857
-0.0036541
0.0257296
-0.00403893
0.0253241
-0.0042621
0.0249732
-0.00433665
0.02468
-0.00427993
0.0244458
-0.00411336
0.024269
-0.00385854
0.0241449
-0.00353647
0.0240674
-0.00316921
0.0240293
-0.00277899
0.0240228
-0.00238712
0.0240398
-0.0020118
0.0240729
-0.00166719
0.0241155
-0.00136158
0.0241624
-0.00110001
0.02421
-0.00088
0.0242554
-0.000703837
0.0242976
-0.000555594
0.0243352
-0.00045553
-0.000341595
0.0307864
6.40223e-05
-0.0313814
0.0301532
-0.000934769
0.0295182
-0.00176606
0.0288764
-0.00246107
0.0282394
-0.00301705
0.0276243
-0.00342384
0.0270452
-0.00368307
0.0265139
-0.00380533
0.0260395
-0.00380553
0.0256272
-0.00370104
0.0252787
-0.00351002
0.0249935
-0.00325129
0.0247689
-0.00294467
0.0246003
-0.00261032
0.0244808
-0.00226769
0.0244027
-0.00193371
0.0243575
-0.00162198
0.0243371
-0.00134111
0.0243339
-0.00109689
0.0243422
-0.000888282
0.024357
-0.000718618
0.0243752
-0.000573824
0.0243944
-0.000474661
-0.000360364
0.0312065
0.000390006
-0.0315325
0.0307803
-0.000508505
0.0302808
-0.00126666
0.0297214
-0.00190161
0.0291244
-0.00242005
0.0285161
-0.0028156
0.0279189
-0.00308587
0.0273501
-0.00323653
0.0268229
-0.00327834
0.0263466
-0.00322465
0.0259268
-0.0030903
0.0255669
-0.00289132
0.0252671
-0.00264493
0.0250256
-0.00236882
0.0248381
-0.00208013
0.0246983
-0.00179391
0.0245988
-0.0015225
0.0245318
-0.0012741
0.0244896
-0.00105471
0.0244656
-0.000864286
0.0244541
-0.000707108
0.024451
-0.000570714
0.0244527
-0.000476397
-0.000365475
0.0309567
0.000532065
-0.0310988
0.0306834
-0.000235161
0.0303106
-0.000893854
0.0298591
-0.00145009
0.0293513
-0.00191234
0.0288125
-0.00227679
0.0282654
-0.00253871
0.0277285
-0.00269963
0.0272166
-0.00276649
0.0267413
-0.00274929
0.0263107
-0.00265978
0.0259306
-0.00251117
0.0256037
-0.002318
0.0253302
-0.00209539
0.0251081
-0.00185803
0.0249331
-0.00161889
0.0247994
-0.00138877
0.0247003
-0.00117504
0.0246292
-0.000983542
0.0245796
-0.000814749
0.0245461
-0.000673564
0.0245243
-0.000548936
0.0245101
-0.000462173
-0.000357848
0.030489
0.000564888
-0.0305218
0.0303204
-6.65569e-05
0.0300478
-0.000621309
0.0296936
-0.00109585
0.0292773
-0.00149608
0.0288201
-0.00181951
0.028342
-0.00206061
0.0278606
-0.00221829
0.0273908
-0.00229668
0.0269446
-0.00230307
0.0265315
-0.00224666
0.0261584
-0.00213814
0.0258299
-0.00198947
0.0255477
-0.00181322
0.0253114
-0.00162167
0.0251182
-0.00142574
0.0249641
-0.00123462
0.0248438
-0.00105473
0.0247517
-0.000891459
0.0246825
-0.000745521
0.0246309
-0.000622038
0.0245933
-0.000511275
0.0245649
-0.000433788
-0.000338599
0.0300051
0.000537638
-0.0299779
0.0299077
3.09003e-05
0.02971
-0.00042366
0.0294338
-0.000819611
0.0290954
-0.00115766
0.0287117
-0.00143588
0.0283
-0.00164888
0.027876
-0.00179427
0.0274535
-0.00187424
0.0270446
-0.00189409
0.0266589
-0.00186095
0.026304
-0.00178332
0.0259854
-0.00167083
0.0257058
-0.00153364
0.0254659
-0.00138179
0.0252644
-0.00122424
0.0250985
-0.00106865
0.0249642
-0.000920437
0.0248571
-0.000784387
0.0247729
-0.000661283
0.0247069
-0.0005561
0.0246561
-0.000460405
0.0246155
-0.000393215
-0.000309079
0.0295803
0.000476862
-0.0295196
0.0295295
8.178e-05
0.0293879
-0.00028208
0.0291717
-0.000603464
0.0288952
-0.000881131
0.0285721
-0.00111277
0.0282168
-0.00129358
0.0278433
-0.0014208
0.0274645
-0.00149541
0.0270916
-0.00152121
0.0267343
-0.00150364
0.0264003
-0.00144934
0.0260954
-0.00136586
0.025823
-0.00126123
0.0255846
-0.00114341
0.0253799
-0.00101957
0.0252072
-0.000895906
0.0250636
-0.000776871
0.0249458
-0.000666545
0.0248501
-0.000565673
0.0247728
-0.000478787
0.0247112
-0.000398784
0.0246605
-0.000342457
-0.000270766
0.0292307
0.000397381
-0.0291513
0.0292134
9.90979e-05
0.029113
-0.000181701
0.0289425
-0.00043296
0.0287137
-0.000652336
0.0284382
-0.000837224
0.0281282
-0.000983577
0.0277962
-0.00108881
0.027454
-0.00115324
0.0271123
-0.00117951
0.0267804
-0.00117169
0.0264658
-0.00113479
0.0261745
-0.00107454
0.0259103
-0.000997069
0.0256754
-0.000908477
0.0254701
-0.000814285
0.0252936
-0.000719332
0.0251438
-0.000627123
0.0250182
-0.000540976
0.0249141
-0.000461537
0.024828
-0.000392665
0.0247578
-0.000328633
0.0246988
-0.000283448
-0.000225186
0.0289572
0.000306384
-0.0288662
0.0289635
9.27552e-05
0.0288935
-0.000111659
0.0287571
-0.000296593
0.0285642
-0.000459475
0.0283248
-0.000597803
0.0280496
-0.000708399
0.02775
-0.000789147
0.0274368
-0.000840049
0.0271202
-0.000862875
0.026809
-0.000860502
0.0265107
-0.000836521
0.0262312
-0.000795056
0.0259747
-0.000740523
0.0257435
-0.000677344
0.0255388
-0.000609534
0.0253601
-0.000540648
0.0252063
-0.000473281
0.0250752
-0.000409943
0.0249648
-0.000351155
0.0248721
-0.00029992
0.0247954
-0.000251947
0.02473
-0.000218016
-0.00017386
0.0287559
0.000208046
-0.0286576
0.0287785
7.02102e-05
0.0287299
-6.30931e-05
0.028618
-0.000184656
0.0284509
-0.000292429
0.0282376
-0.00038446
0.0279877
-0.000458535
0.0277118
-0.000513176
0.02742
-0.00054828
0.027122
-0.000564932
0.0268265
-0.000564967
0.0265407
-0.000550699
0.0262704
-0.000524795
0.02602
-0.000490116
0.0257922
-0.000449535
0.0255883
-0.000405671
0.0254086
-0.000360855
0.0252521
-0.000316805
0.0251173
-0.000275195
0.0250026
-0.000236403
0.0249051
-0.000202449
0.0248237
-0.000170532
0.0247535
-0.00014787
-0.000118286
0.0286237
0.000105171
-0.0285208
0.0286564
3.74762e-05
0.0286216
-2.82959e-05
0.0285254
-8.84907e-05
0.0283751
-0.000142095
0.0281787
-0.000188049
0.0279454
-0.000225182
0.0276849
-0.000252729
0.0274072
-0.000270617
0.0271217
-0.000279364
0.0268366
-0.00027986
0.0265591
-0.000273238
0.0262951
-0.000260804
0.026049
-0.000243966
0.0258236
-0.000224135
0.0256205
-0.000202606
0.0254402
-0.00018053
0.0252821
-0.000158769
0.0251451
-0.000138142
0.0250276
-0.000118887
0.0249271
-0.000101933
0.0248426
-8.60693e-05
0.0247693
-7.45556e-05
-5.99713e-05
0.0285583
-0.0284531
0.0285958
0.0285675
0.028479
0.0283369
0.0281489
0.0279237
0.0276709
0.0274003
0.027121
0.0268411
0.0265679
0.0263071
0.0260631
0.025839
0.0256364
0.0254558
0.0252971
0.0251589
0.02504
0.0249381
0.024852
0.0247775
0.0114254
-0.029963
0.0108367
-0.0307928
0.00982298
-0.0305188
0.00865834
-0.0299341
0.00747877
-0.0293422
0.00632928
-0.0288284
0.00521718
-0.0284075
0.00413776
-0.0280718
0.00308352
-0.0278119
0.00204709
-0.0276212
0.00102151
-0.0274952
-0.0274316
0.0108744
-0.029849
0.0100382
-0.0299565
0.00895877
-0.0294394
0.00783592
-0.0288113
0.00674645
-0.0282528
0.00570335
-0.0277853
0.00469962
-0.0274037
0.00372662
-0.0270988
0.00277672
-0.026862
0.00184311
-0.0266876
0.000919525
-0.0265716
-0.0265121
0.0098589
-0.0293721
0.00894067
-0.0290383
0.00792578
-0.0284245
0.00692198
-0.0278075
0.00595701
-0.0272878
0.00503414
-0.0268624
0.00414658
-0.0265162
0.00328672
-0.026239
0.00244795
-0.0260233
0.00162428
-0.0258639
0.000810064
-0.0257574
-0.025702
0.00869578
-0.0287123
0.00779358
-0.0281361
0.00686059
-0.0274915
0.00596954
-0.0269164
0.00512681
-0.0264451
0.00432638
-0.026062
0.00355977
-0.0257496
0.00281913
-0.0254983
0.00209812
-0.0253022
0.00139125
-0.025157
0.000693466
-0.0250596
-0.0250086
0.0073881
-0.0279694
0.00654806
-0.0272961
0.00573015
-0.0266736
0.00496919
-0.0261555
0.00425837
-0.0257342
0.00358689
-0.0253905
0.00294645
-0.0251091
0.00233007
-0.024882
0.00173201
-0.0247042
0.00114729
-0.0245723
0.000571384
-0.0244837
-0.0244372
0.00600584
-0.0272303
0.00526161
-0.0265518
0.00457175
-0.0259837
0.00394373
-0.0255275
0.00336552
-0.025156
0.00282496
-0.02485
0.00231368
-0.0245978
0.00182511
-0.0243934
0.00135384
-0.0242329
0.000895255
-0.0241137
0.000445263
-0.0240337
-0.0239919
0.00458072
-0.0265456
0.00394869
-0.0259198
0.00339237
-0.0254274
0.00290003
-0.0250351
0.00245614
-0.0247121
0.00204841
-0.0244422
0.00166848
-0.0242179
0.00131006
-0.024035
0.000968048
-0.0238909
0.000638152
-0.0237838
0.000316632
-0.0237122
-0.0236753
0.00314103
-0.0259478
0.00263029
-0.0254091
0.00220834
-0.0250055
0.00185085
-0.0246777
0.00154081
-0.0244021
0.00126603
-0.0241674
0.00101809
-0.02397
0.000790755
-0.0238076
0.00057907
-0.0236792
0.00037897
-0.0235837
0.000187032
-0.0235203
-0.0234883
0.0017044
-0.0254567
0.00132133
-0.025026
0.00103018
-0.0247143
0.000805552
-0.024453
0.000628223
-0.0242248
0.000485637
-0.0240249
0.000369218
-0.0238535
0.000272655
-0.0237111
0.000191067
-0.0235976
0.000120539
-0.0235132
5.78293e-05
-0.0234576
-0.0234304
0.000259255
-0.0250643
4.08577e-06
-0.0247708
-0.000146146
-0.0245641
-0.000234304
-0.0243649
-0.000277974
-0.0241811
-0.000288343
-0.0240145
-0.000273734
-0.0238681
-0.000240309
-0.0237445
-0.000192809
-0.0236451
-0.000134981
-0.023571
-6.99058e-05
-0.0235227
-0.0235003
-0.00112431
-0.0247933
-0.00124499
-0.0246502
-0.00127645
-0.0245326
-0.00124053
-0.0244008
-0.00115797
-0.0242637
-0.00104142
-0.024131
-0.000899919
-0.0240097
-0.000740053
-0.0239044
-0.000566735
-0.0238184
-0.000383742
-0.023754
-0.000194005
-0.0237124
-0.0236943
-0.00246242
-0.0246311
-0.00246648
-0.0246461
-0.00237629
-0.0246228
-0.00221816
-0.0245589
-0.00201207
-0.0244698
-0.00177169
-0.0243714
-0.00150666
-0.0242747
-0.0012239
-0.0241871
-0.000928457
-0.0241139
-0.000624134
-0.0240583
-0.000313832
-0.0240227
-0.0240082
-0.00374725
-0.0245732
-0.00363777
-0.0247556
-0.00343082
-0.0248298
-0.00315499
-0.0248347
-0.00283047
-0.0247943
-0.00247141
-0.0247305
-0.00208789
-0.0246582
-0.00168716
-0.0245879
-0.00127451
-0.0245265
-0.00085387
-0.024479
-0.000428204
-0.0244484
-0.0244364
-0.00495569
-0.0246216
-0.00473807
-0.0249732
-0.0044229
-0.0251449
-0.00403845
-0.0252192
-0.00360394
-0.0252288
-0.00313362
-0.0252008
-0.00263824
-0.0251536
-0.00212574
-0.0251004
-0.00160189
-0.0250504
-0.00107096
-0.0250099
-0.000536122
-0.0249832
-0.0249725
-0.00606545
-0.0247865
-0.00575746
-0.0252812
-0.00534802
-0.0255544
-0.00486547
-0.0257017
-0.00432941
-0.0257648
-0.00375508
-0.0257751
-0.00315452
-0.0257541
-0.00253676
-0.0257181
-0.0019083
-0.0256788
-0.00127382
-0.0256444
-0.000636789
-0.0256202
-0.0256093
-0.00709108
-0.0250465
-0.00670679
-0.0256655