/*--------------------------------*- C++ -*----------------------------------*\
  =========                 |
  \\      /  F ield         | OpenFOAM: The Open Source CFD Toolbox
   \\    /   O peration     | Website:  https://openfoam.org
    \\  /    A nd           | Version:  7
     \\/     M anipulation  |
\*---------------------------------------------------------------------------*/
FoamFile
{
    version     2.0;
    format      ascii;
    class       volVectorField;
    location    "5";
    object      U;
}
// * * * * * * * * * * * * * * * * * * * * * * * * * * * * * * * * * * * * * //

dimensions      [0 1 -1 0 0 0 0];

internalField   nonuniform List<vector> 
2304
(
(-0.00473981 0.00345109 -3.356e-20)
(-0.0154824 0.00527906 -5.36563e-20)
(-0.0280667 0.00466658 1.86306e-20)
(-0.036554 0.00285881 2.86959e-20)
(-0.0392987 0.000401628 -8.65111e-20)
(-0.0358303 -0.00243336 -3.54826e-20)
(-0.0259415 -0.00549579 -1.02893e-19)
(-0.0097204 -0.00860941 3.70604e-20)
(0.0128305 -0.0113215 3.6029e-20)
(0.0403017 -0.0125793 1.1908e-20)
(-0.00555952 0.00982908 -4.88828e-20)
(-0.0153145 0.0148696 -4.60791e-20)
(-0.0246954 0.0129466 3.60722e-20)
(-0.0288023 0.00760643 1.03789e-19)
(-0.0263288 0.000424597 8.72407e-20)
(-0.0169621 -0.00781321 1.25484e-19)
(-0.000616491 -0.0166635 3.78309e-20)
(0.0225317 -0.0256431 -2.33e-20)
(0.0525044 -0.0335404 1.09307e-20)
(0.0885755 -0.037121 -1.8239e-20)
(-0.00689739 0.0147261 7.38754e-21)
(-0.0144559 0.0217081 5.06069e-20)
(-0.017467 0.0182303 1.40284e-19)
(-0.0129701 0.00960066 -6.38137e-20)
(-0.000321887 -0.00175487 1.37349e-19)
(0.0204732 -0.0145968 1.16272e-19)
(0.0492371 -0.0282444 1.0758e-19)
(0.0854806 -0.0420294 -6.77439e-20)
(0.129177 -0.0542293 -1.66594e-19)
(0.181211 -0.0594003 -4.89697e-20)
(-0.00820273 0.0174343 2.42471e-19)
(-0.0119094 0.0244345 3.33947e-19)
(-0.00541055 0.0190535 -6.74375e-20)
(0.0116538 0.00753414 -2.78841e-19)
(0.0389833 -0.00709884 -5.0688e-19)
(0.0760592 -0.0232494 -1.53718e-19)
(0.122244 -0.0400833 -2.20781e-20)
(0.176475 -0.0568989 -3.92786e-19)
(0.238212 -0.0717509 -2.08899e-19)
(0.311069 -0.0768755 8.06754e-20)
(-0.00875657 0.0175808 -2.31784e-20)
(-0.00630216 0.0223434 -2.14945e-19)
(0.012914 0.014686 -3.2161e-20)
(0.0462265 0.000871193 -8.89388e-20)
(0.0921726 -0.0157893 -2.43695e-20)
(0.149466 -0.0334935 1.70594e-19)
(0.21673 -0.0513291 -7.10832e-20)
(0.292026 -0.0687119 -1.88138e-19)
(0.373578 -0.0839129 1.43548e-19)
(0.468365 -0.0862576 4.55278e-20)
(-0.0077422 0.0151712 2.74892e-19)
(0.0039926 0.0154593 1.09075e-19)
(0.0392878 0.00530322 3.35998e-19)
(0.0922884 -0.00990657 -1.73183e-19)
(0.160124 -0.0269562 -4.07277e-20)
(0.240416 -0.0440184 5.39476e-20)
(0.330648 -0.0602111 -3.47852e-19)
(0.427631 -0.0751986 -2.2608e-19)
(0.52779 -0.0879001 1.85542e-19)
(0.640365 -0.0841145 1.41928e-19)
(-0.00435145 0.0105298 -7.9808e-19)
(0.0206957 0.00451273 -5.0349e-20)
(0.075648 -0.00792473 -4.56313e-19)
(0.15148 -0.0231834 -1.99459e-19)
(0.243635 -0.0385475 -4.33401e-19)
(0.348225 -0.0524006 4.65588e-19)
(0.461076 -0.064087 -2.60011e-19)
(0.577313 -0.0736287 1.04333e-20)
(0.691575 -0.0804912 -1.08592e-19)
(0.811169 -0.0683143 5.0384e-19)
(0.00217963 0.00422556 -4.20442e-19)
(0.0454165 -0.00908128 -3.12517e-19)
(0.123737 -0.0229001 -9.59542e-19)
(0.225023 -0.0362976 -4.69769e-20)
(0.342704 -0.0474929 8.64098e-20)
(0.470911 -0.0554321 -2.92905e-19)
(0.603386 -0.0600176 -6.66475e-19)
(0.733432 -0.0617229 -1.41567e-19)
(0.85463 -0.0597606 -1.31719e-19)
(0.965223 -0.0427991 1.5476e-19)
(0.0125302 -0.00297302 2.77228e-19)
(0.0794336 -0.0233632 1.62705e-19)
(0.184649 -0.0368003 1.29951e-19)
(0.313045 -0.0458425 -3.28309e-20)
(0.45565 -0.0501792 -6.42083e-19)
(0.604193 -0.0498164 -1.09046e-18)
(0.750259 -0.0456698 2.86249e-20)
(0.885996 -0.0388308 -2.14818e-19)
(1.00574 -0.0284208 -3.225e-19)
(1.09645 -0.0210317 3.47862e-20)
(0.027228 -0.0101421 -2.18545e-19)
(0.123464 -0.0359927 -2.43099e-19)
(0.258401 -0.0463721 -7.27165e-20)
(0.414003 -0.0481582 -1.40273e-19)
(0.57856 -0.0431443 -2.34489e-19)
(0.741261 -0.0329705 -2.91459e-19)
(0.89195 -0.0200397 2.94114e-19)
(1.02243 -0.00665193 -2.21135e-19)
(1.12786 0.00590041 -3.20999e-19)
(1.20227 0.00730906 2.34636e-19)
(0.0465678 -0.0162318 1.37497e-19)
(0.177416 -0.0444192 1.20676e-19)
(0.343597 -0.0483247 -1.19161e-19)
(0.52442 -0.0399569 -1.54553e-19)
(0.705425 -0.0238686 -4.87078e-20)
(0.873801 -0.00377536 -3.34999e-19)
(1.01897 0.0163596 -7.01011e-20)
(1.13423 0.0333796 4.83322e-19)
(1.2174 0.0452853 2.18433e-19)
(1.26866 0.0466608 2.25455e-19)
(0.0705176 -0.020104 1.10869e-19)
(0.240212 -0.0461044 -6.70194e-20)
(0.437305 -0.039776 -2.84756e-19)
(0.639061 -0.0189464 1.46628e-19)
(0.828921 0.00856686 4.96913e-19)
(0.993529 0.0369118 2.67681e-19)
(1.12403 0.0610586 -2.90474e-19)
(1.21733 0.077919 1.12988e-19)
(1.27567 0.0862991 -3.50485e-19)
(1.30396 0.0848389 -2.13448e-19)
(0.0986236 -0.0206002 -2.44562e-19)
(0.309696 -0.0387893 1.03736e-19)
(0.535199 -0.0186774 2.97975e-19)
(0.751554 0.0157388 -2.82439e-19)
(0.941629 0.053305 3.09017e-19)
(1.09377 0.0866011 2.08733e-19)
(1.2032 0.110622 2.76451e-19)
(1.272 0.123539 2.95892e-19)
(1.30713 0.126016 -1.46231e-19)
(1.31696 0.119956 2.29954e-20)
(0.12995 -0.0166518 2.10795e-19)
(0.382699 -0.0207877 -3.58507e-19)
(0.631975 0.0158514 4.86635e-20)
(0.855292 0.0633933 -2.50583e-19)
(1.03727 0.107995 3.11616e-19)
(1.17049 0.14193 2.90933e-19)
(1.25601 0.161652 2.2802e-20)
(1.30147 0.167619 -8.88475e-20)
(1.31761 0.162768 -1.12424e-19)
(1.31439 0.151151 -7.44779e-20)
(0.16308 -0.00742151 -3.40896e-20)
(0.455255 0.00873493 2.03848e-19)
(0.721952 0.0633421 -5.27473e-20)
(0.944355 0.121892 1.36665e-19)
(1.11153 0.169351 -8.81585e-21)
(1.22238 0.199429 1.59835e-19)
(1.28448 0.211393 -4.59739e-20)
(1.31024 0.208545 -5.92877e-20)
(1.31255 0.19593 1.6382e-19)
(1.30128 0.178703 -5.31828e-20)
(0.196185 0.00754714 -5.56898e-20)
(0.522974 0.0495543 1.14539e-19)
(0.799742 0.121989 -2.33144e-20)
(1.01419 0.188056 5.42441e-20)
(1.16227 0.233739 -3.82577e-20)
(1.25031 0.256004 8.95924e-20)
(1.29191 0.25785 -6.43607e-20)
(1.30274 0.245407 -3.39237e-20)
(1.2962 0.225279 3.44993e-20)
(1.28099 0.202778 -2.26358e-20)
(0.227177 0.0282037 5.27379e-20)
(0.581486 0.100303 -1.07915e-19)
(0.860836 0.18884 -2.54226e-20)
(1.06197 0.258097 -4.68472e-20)
(1.18927 0.297622 3.60835e-20)
(1.25647 0.309117 -7.14535e-20)
(1.28188 0.299638 4.87288e-20)
(1.28268 0.277665 2.31731e-20)
(1.27152 0.250645 -2.70127e-20)
(1.25542 0.223438 1.76701e-20)
(0.2539 0.0539159 1.11994e-19)
(0.626907 0.15853 7.04584e-20)
(0.902008 0.260116 1.85492e-20)
(1.08656 0.328027 -4.13598e-20)
(1.19377 0.3578 6.18133e-21)
(1.24374 0.356757 -1.07399e-19)
(1.25771 0.335772 3.13795e-20)
(1.25294 0.304948 3.44764e-20)
(1.24045 0.271868 1.47729e-20)
(1.22545 0.240587 -1.86561e-20)
(0.274351 0.0834638 -2.03051e-20)
(0.656223 0.220893 3.64324e-20)
(0.921521 0.331571 -8.38178e-20)
(1.08835 0.393973 1.60906e-19)
(1.17797 0.411508 -4.37011e-20)
(1.21515 0.397331 -7.95163e-22)
(1.22234 0.365485 -2.98374e-21)
(1.21578 0.326934 1.49783e-20)
(1.20448 0.288892 1.10726e-20)
(1.19201 0.254143 2.36824e-21)
(0.286904 0.11511 -4.52324e-20)
(0.667579 0.283446 -5.02815e-20)
(0.919148 0.398855 2.46099e-19)
(1.06894 0.4524 3.35859e-19)
(1.14463 0.456424 -1.73328e-19)
(1.17367 0.429545 -5.44567e-20)
(1.17832 0.388093 -6.03627e-20)
(1.17301 0.343154 -4.3562e-20)
(1.16477 0.301308 3.51752e-20)
(1.15625 0.263729 -1.54017e-20)
(0.290498 0.146743 -3.37998e-20)
(0.660467 0.341986 4.56311e-20)
(0.895999 0.45781 1.2089e-19)
(1.03081 0.500252 -6.63255e-20)
(1.09677 0.490658 -1.44538e-19)
(1.12218 0.452331 1.93795e-20)
(1.12785 0.402952 -2.15129e-20)
(1.12609 0.353158 6.41362e-21)
(1.12226 0.308521 -3.04109e-20)
(1.11886 0.268949 -5.27439e-20)
(0.284778 0.176046 -3.20258e-19)
(0.63575 0.392488 -2.5533e-20)
(0.854141 0.504685 1.34303e-19)
(0.977018 0.534985 4.19769e-20)
(1.03767 0.512729 1.88694e-20)
(1.06344 0.464853 -1.49106e-20)
(1.07293 0.409558 1.5242e-20)
(1.07639 0.356506 5.79665e-20)
(1.07797 0.310089 6.66071e-20)
(1.08045 0.269389 7.16674e-20)
(0.270046 0.200579 1.86494e-19)
(0.595172 0.431324 -6.77776e-20)
(0.796759 0.536621 -3.6807e-20)
(0.911283 0.55454 -4.35645e-21)
(0.970661 0.521518 -3.9129e-20)
(1.00002 0.466533 -5.7144e-20)
(1.01549 0.40751 9.26226e-20)
(1.02538 0.352865 -3.3386e-20)
(1.03318 0.305787 -1.29331e-19)
(1.0419 0.265308 -5.04396e-20)
(0.247271 0.21817 -5.29073e-20)
(0.541513 0.455157 -1.50226e-20)
(0.727833 0.551231 -6.74914e-20)
(0.837432 0.55774 -2.13541e-20)
(0.89892 0.516405 -1.82328e-19)
(0.934392 0.456978 -3.78822e-19)
(0.957341 0.396432 1.02265e-20)
(0.97457 0.341757 -1.15126e-19)
(0.989285 0.295053 -1.93704e-19)
(1.00405 0.257226 1.87246e-19)
(0.218154 0.22712 2.1413e-20)
(0.478583 0.461849 -1.07581e-19)
(0.651548 0.547031 -2.86735e-19)
(0.759316 0.543932 -1.41517e-20)
(0.825565 0.497202 2.08538e-20)
(0.868844 0.436115 -2.06537e-19)
(0.900166 0.376181 -1.50831e-19)
(0.92529 0.322846 -1.45568e-19)
(0.947415 0.27636 -6.40354e-20)
(0.965174 0.23805 2.36133e-19)
(0.184824 0.226185 9.96718e-20)
(0.410558 0.450171 -4.68835e-20)
(0.572334 0.523506 3.81166e-19)
(0.680795 0.513158 -1.7097e-19)
(0.753607 0.464207 -3.64615e-20)
(0.8056 0.404314 6.36005e-20)
(0.845613 0.347209 -5.2349e-19)
(0.878633 0.297212 8.01937e-20)
(0.90729 0.254211 -5.73249e-20)
(0.92894 0.218896 -3.66815e-21)
(0.149725 0.214758 6.41408e-19)
(0.341808 0.419889 1.26774e-19)
(0.494606 0.481041 2.9589e-19)
(0.605582 0.466103 -1.84039e-19)
(0.685924 0.418128 -5.27449e-20)
(0.746843 0.362154 4.18555e-19)
(0.795295 0.30991 -4.07908e-20)
(0.835545 0.264686 -2.26905e-19)
(0.869751 0.226098 2.17006e-19)
(0.895893 0.19433 -1.30523e-19)
(0.115432 0.192919 -5.2134e-19)
(0.276645 0.371789 -7.88395e-20)
(0.422552 0.420872 2.00649e-19)
(0.537108 0.404063 1.15093e-19)
(0.625146 0.360093 -1.80602e-20)
(0.69459 0.310543 -1.57167e-19)
(0.750834 0.265041 2.29053e-19)
(0.797592 0.226021 -3.63927e-19)
(0.83688 0.19296 1.30208e-19)
(0.867699 0.165703 6.53806e-20)
(0.0844441 0.161434 8.11519e-20)
(0.219082 0.307621 1.20434e-19)
(0.359946 0.345024 1.29221e-19)
(0.47841 0.328903 -6.90876e-19)
(0.573571 0.29164 -2.52526e-19)
(0.650556 0.250687 -5.711e-20)
(0.713525 0.213532 -4.0254e-20)
(0.765813 0.181892 -1.5011e-19)
(0.8095 0.155214 4.31402e-19)
(0.844593 0.133145 1.75124e-19)
(0.0590097 0.121703 2.35385e-19)
(0.172606 0.229989 1.61233e-19)
(0.310005 0.256214 -1.18021e-19)
(0.432041 0.242984 2.09499e-19)
(0.533125 0.214672 -3.19206e-19)
(0.616195 0.184095 8.31969e-21)
(0.684502 0.156589 -2.46025e-20)
(0.741139 0.133285 -5.96303e-20)
(0.78833 0.113697 -6.57598e-20)
(0.82693 0.0974213 3.81785e-21)
(0.0409646 0.0756654 -4.49091e-20)
(0.14 0.142206 6.54823e-20)
(0.275255 0.157722 5.90694e-20)
(0.399989 0.149074 7.91589e-20)
(0.505305 0.131393 6.30434e-20)
(0.59264 0.112507 -1.64004e-19)
(0.664646 0.0956116 -4.98794e-21)
(0.724282 0.0813434 -2.54884e-20)
(0.773906 0.0693722 -1.12894e-19)
(0.814993 0.059388 -9.29491e-20)
(0.0316063 0.0256711 -1.48325e-20)
(0.123201 0.0481154 1.01874e-19)
(0.257436 0.0532481 1.28606e-19)
(0.383616 0.050245 1.3044e-19)
(0.491135 0.0442341 7.52028e-20)
(0.580665 0.037848 -5.43227e-20)
(0.654563 0.0321501 -1.5548e-19)
(0.715728 0.027346 2.70094e-20)
(0.766599 0.0233185 -1.27891e-20)
(0.808975 0.0199524 3.05752e-20)
(0.0316063 -0.0256711 7.18885e-20)
(0.123201 -0.0481154 1.07345e-19)
(0.257436 -0.0532481 -3.5421e-20)
(0.383616 -0.050245 -5.13647e-20)
(0.491135 -0.0442341 6.20545e-20)
(0.580665 -0.037848 5.67848e-20)
(0.654563 -0.0321501 1.5548e-19)
(0.715728 -0.027346 -5.49131e-20)
(0.766599 -0.0233185 -5.11281e-20)
(0.808975 -0.0199524 6.86146e-21)
(0.0409646 -0.0756653 1.00448e-19)
(0.14 -0.142206 7.63861e-20)
(0.275255 -0.157722 -6.56113e-20)
(0.399989 -0.149074 -1.46852e-19)
(0.505305 -0.131393 -1.43501e-19)
(0.59264 -0.112507 -1.90087e-19)
(0.664646 -0.0956116 1.2736e-19)
(0.724282 -0.0813434 -5.53046e-20)
(0.773906 -0.0693722 -1.29921e-20)
(0.814993 -0.059388 -1.62168e-20)
(0.0590097 -0.121703 -2.4627e-20)
(0.172606 -0.229989 -1.1372e-19)
(0.310005 -0.256214 -2.23921e-19)
(0.432041 -0.242984 9.19494e-20)
(0.533125 -0.214672 -1.99341e-19)
(0.616195 -0.184095 1.83129e-19)
(0.684502 -0.156589 -1.50226e-19)
(0.741139 -0.133285 -9.60609e-21)
(0.78833 -0.113697 2.25322e-19)
(0.82693 -0.0974213 1.57012e-19)
(0.0844441 -0.161434 -4.04501e-19)
(0.219082 -0.307621 -5.19014e-19)
(0.359946 -0.345024 1.2607e-19)
(0.47841 -0.328903 3.78065e-19)
(0.573571 -0.29164 7.04896e-19)
(0.650556 -0.250687 2.17266e-19)
(0.713525 -0.213532 9.27121e-20)
(0.765813 -0.181892 4.92299e-19)
(0.8095 -0.155214 -9.12635e-20)
(0.844593 -0.133145 -2.52843e-19)
(0.115432 -0.192919 6.23024e-20)
(0.276645 -0.371789 1.12698e-19)
(0.422552 -0.420872 -4.10537e-19)
(0.537108 -0.404063 1.26121e-19)
(0.625146 -0.360093 2.74148e-20)
(0.69459 -0.310543 -4.66678e-19)
(0.750834 -0.265041 -3.47078e-19)
(0.797592 -0.226021 1.99668e-19)
(0.83688 -0.19296 -4.94724e-19)
(0.867699 -0.165703 -5.08884e-20)
(0.149725 -0.214758 -1.82376e-19)
(0.341808 -0.419889 -1.60632e-19)
(0.494606 -0.481041 -8.60173e-20)
(0.605582 -0.466103 -5.71535e-20)
(0.685924 -0.418128 5.27449e-20)
(0.746843 -0.362154 5.27016e-19)
(0.795295 -0.30991 1.58804e-19)
(0.835545 -0.264686 2.26905e-19)
(0.869751 -0.226098 -1.92606e-19)
(0.895893 -0.19433 -3.89859e-20)
(0.184824 -0.226185 6.35382e-20)
(0.410558 -0.450171 1.94481e-19)
(0.572334 -0.523506 -5.53514e-20)
(0.680795 -0.513158 9.82201e-20)
(0.753607 -0.464207 1.44945e-19)
(0.8056 -0.404314 -6.36005e-20)
(0.845613 -0.347209 -1.98332e-19)
(0.878633 -0.297212 -1.20448e-20)
(0.90729 -0.254211 1.11625e-19)
(0.92894 -0.218896 3.36568e-20)
(0.218154 -0.22712 -4.23553e-20)
(0.478583 -0.461849 -4.00081e-20)
(0.651548 -0.547031 5.78981e-20)
(0.759316 -0.543932 -1.67006e-19)
(0.825565 -0.497202 -1.29323e-19)
(0.868844 -0.436115 1.85358e-19)
(0.900166 -0.376181 4.38568e-19)
(0.92529 -0.322846 -9.09982e-20)
(0.947415 -0.27636 6.40354e-20)
(0.965174 -0.23805 -9.67677e-20)
(0.247271 -0.21817 -8.93552e-20)
(0.541513 -0.455157 5.09943e-20)
(0.727833 -0.551231 -2.94451e-20)
(0.837432 -0.55774 7.42567e-20)
(0.89892 -0.516405 1.82328e-19)
(0.934392 -0.456978 3.99997e-19)
(0.957341 -0.396432 -1.02265e-20)
(0.97457 -0.341757 6.62807e-21)
(0.989285 -0.295053 7.03722e-20)
(1.00405 -0.257226 -4.13393e-20)
(0.270046 -0.200579 2.13803e-20)
(0.595172 -0.431324 3.18082e-20)
(0.796759 -0.536621 -2.34092e-20)
(0.911283 -0.55454 4.35646e-21)
(0.970661 -0.521518 3.9129e-20)
(1.00002 -0.466533 3.54981e-20)
(1.01549 -0.40751 -9.26226e-20)
(1.02538 -0.352865 3.3386e-20)
(1.03318 -0.305787 9.64625e-20)
(1.0419 -0.265308 -9.54425e-20)
(0.284778 -0.176046 1.12388e-19)
(0.63575 -0.392488 6.54295e-21)
(0.854141 -0.504685 -7.40936e-20)
(0.977018 -0.534985 -4.19769e-20)
(1.03767 -0.512729 -1.88694e-20)
(1.06344 -0.464853 1.49106e-20)
(1.07293 -0.409558 -1.5242e-20)
(1.07639 -0.356506 -5.79665e-20)
(1.07797 -0.310089 -6.66071e-20)
(1.08045 -0.269389 -7.16674e-20)
(0.290498 -0.146743 3.37998e-20)
(0.660467 -0.341986 -7.57645e-20)
(0.895999 -0.45781 -2.96638e-19)
(1.03081 -0.500252 5.09871e-20)
(1.09677 -0.490658 1.44538e-19)
(1.12218 -0.452331 -1.93795e-20)
(1.12785 -0.402952 2.15129e-20)
(1.12609 -0.353158 -6.41363e-21)
(1.12226 -0.308521 3.04109e-20)
(1.11886 -0.268949 5.27439e-20)
(0.286904 -0.11511 -1.71843e-19)
(0.667579 -0.283446 -5.39062e-20)
(0.919148 -0.398855 -2.46099e-19)
(1.06894 -0.4524 -1.5863e-19)
(1.14463 -0.456424 -9.31806e-20)
(1.17367 -0.429545 5.44567e-20)
(1.17832 -0.388093 6.03627e-20)
(1.17301 -0.343154 4.3562e-20)
(1.16477 -0.301308 -3.51752e-20)
(1.15625 -0.263729 1.54017e-20)
(0.274351 -0.0834638 1.5848e-19)
(0.656223 -0.220893 -2.82781e-19)
(0.921521 -0.331571 2.68567e-20)
(1.08835 -0.393973 -1.6762e-19)
(1.17797 -0.411508 4.37011e-20)
(1.21515 -0.397331 7.95164e-22)
(1.22234 -0.365485 2.98374e-21)
(1.21578 -0.326934 -1.49783e-20)
(1.20448 -0.288892 -1.10725e-20)
(1.19201 -0.254143 -2.36824e-21)
(0.2539 -0.0539159 -3.30967e-20)
(0.626907 -0.15853 1.7588e-19)
(0.902008 -0.260116 -4.76421e-20)
(1.08656 -0.328027 1.21133e-19)
(1.19377 -0.3578 -6.18133e-21)
(1.24374 -0.356757 1.07399e-19)
(1.25771 -0.335772 -3.13795e-20)
(1.25294 -0.304948 -3.44764e-20)
(1.24045 -0.271868 1.6732e-20)
(1.22545 -0.240587 -8.10646e-21)
(0.227177 -0.0282037 -5.27379e-20)
(0.581486 -0.100303 1.07915e-19)
(0.860836 -0.18884 2.54226e-20)
(1.06197 -0.258097 4.68472e-20)
(1.18927 -0.297622 -3.60835e-20)
(1.25647 -0.309117 7.14535e-20)
(1.28188 -0.299638 -4.87288e-20)
(1.28268 -0.277665 -2.31731e-20)
(1.27152 -0.250645 2.70127e-20)
(1.25542 -0.223438 -1.76701e-20)
(0.196185 -0.00754714 5.56898e-20)
(0.522974 -0.0495543 -1.14539e-19)
(0.799742 -0.121989 2.33144e-20)
(1.01419 -0.188056 -5.42441e-20)
(1.16227 -0.233739 3.82577e-20)
(1.25031 -0.256004 -8.95924e-20)
(1.29191 -0.25785 6.43607e-20)
(1.30274 -0.245407 3.39237e-20)
(1.2962 -0.225279 -3.44993e-20)
(1.28099 -0.202778 1.23572e-21)
(0.16308 0.00742151 1.27716e-19)
(0.455255 -0.00873493 8.94943e-20)
(0.721952 -0.0633421 2.06548e-20)
(0.944355 -0.121892 -4.9388e-20)
(1.11153 -0.169351 8.81585e-21)
(1.22238 -0.199429 -1.59835e-19)
(1.28448 -0.211393 4.59739e-20)
(1.31024 -0.208545 5.92877e-20)
(1.31255 -0.19593 -1.01864e-19)
(1.30128 -0.178703 5.98278e-22)
(0.12995 0.0166518 -1.33561e-20)
(0.382699 0.0207877 6.5164e-20)
(0.631975 -0.0158514 -1.19377e-19)
(0.855292 -0.0633933 2.50583e-19)
(1.03727 -0.107995 -3.11616e-19)
(1.17049 -0.14193 -3.10454e-20)
(1.25601 -0.161652 -2.2802e-20)
(1.30147 -0.167619 8.88475e-20)
(1.31761 -0.162768 1.12424e-19)
(1.31439 -0.151151 7.44779e-20)
(0.0986236 0.0206002 -4.65057e-20)
(0.309696 0.0387893 -1.03736e-19)
(0.535199 0.0186775 6.90054e-20)
(0.751554 -0.0157388 3.15424e-19)
(0.941629 -0.053305 -3.09017e-19)
(1.09377 -0.0866011 -4.68602e-19)
(1.2032 -0.110622 -2.76451e-19)
(1.272 -0.123539 -2.95892e-19)
(1.30713 -0.126016 1.46231e-19)
(1.31696 -0.119956 -2.29954e-20)
(0.0705176 0.020104 -1.10869e-19)
(0.240212 0.0461044 1.0777e-19)
(0.437305 0.039776 -8.22356e-20)
(0.639061 0.0189464 -1.79614e-19)
(0.828921 -0.00856685 -4.96913e-19)
(0.993529 -0.0369118 -2.67681e-19)
(1.12403 -0.0610586 2.90474e-19)
(1.21733 -0.077919 -1.12988e-19)
(1.27567 -0.0862991 3.50485e-19)
(1.30396 -0.0848389 2.13448e-19)
(0.0465678 0.0162318 -8.62883e-19)
(0.177416 0.0444192 -1.61428e-19)
(0.343597 0.0483247 4.13526e-19)
(0.52442 0.0399569 1.54553e-19)
(0.705425 0.0238686 4.87078e-20)
(0.873801 0.00377536 3.34999e-19)
(1.01897 -0.0163596 7.01011e-20)
(1.13423 -0.0333796 -4.83322e-19)
(1.2174 -0.0452853 -2.18433e-19)
(1.26866 -0.0466608 -2.25455e-19)
(0.027228 0.0101422 9.43938e-19)
(0.123464 0.0359928 -3.76989e-19)
(0.258401 0.0463721 2.15679e-19)
(0.414003 0.0481582 5.83812e-20)
(0.57856 0.0431443 2.34489e-19)
(0.741261 0.0329705 2.91459e-19)
(0.89195 0.0200397 -2.94114e-19)
(1.02243 0.00665193 2.21135e-19)
(1.12786 -0.00590041 3.20999e-19)
(1.20227 -0.00730906 5.66374e-20)
(0.0125302 0.00297303 4.25423e-19)
(0.0794336 0.0233632 8.97622e-20)
(0.184649 0.0368003 1.33531e-19)
(0.313045 0.0458425 3.28309e-20)
(0.45565 0.0501792 6.42083e-19)
(0.604193 0.0498164 1.09046e-18)
(0.750259 0.0456698 -2.86249e-20)
(0.885996 0.0388308 2.14818e-19)
(1.00574 0.0284208 3.225e-19)
(1.09645 0.0210317 -3.26152e-19)
(0.00217964 -0.00422555 -2.82214e-19)
(0.0454165 0.00908129 1.26897e-20)
(0.123737 0.0229001 5.88119e-19)
(0.225023 0.0362976 4.69769e-20)
(0.342704 0.0474929 -8.64098e-20)
(0.470911 0.0554321 2.92905e-19)
(0.603386 0.0600176 2.66034e-19)
(0.733432 0.0617229 2.3311e-19)
(0.85463 0.0597606 1.31719e-19)
(0.965223 0.0427991 -3.17971e-19)
(-0.00435144 -0.0105298 2.12709e-19)
(0.0206957 -0.00451271 3.17279e-19)
(0.075648 0.00792474 1.96464e-20)
(0.15148 0.0231834 1.28606e-19)
(0.243635 0.0385475 2.21676e-19)
(0.348225 0.0524006 -1.0179e-19)
(0.461076 0.064087 6.6052e-19)
(0.577313 0.0736287 -1.01993e-19)
(0.691575 0.0804912 1.23086e-19)
(0.811169 0.0683143 -3.40619e-19)
(-0.0077422 -0.0151712 -8.68085e-20)
(0.00399261 -0.0154593 -3.76014e-19)
(0.0392878 -0.0053032 1.00696e-19)
(0.0922884 0.00990658 2.44042e-19)
(0.160124 0.0269562 2.52481e-19)
(0.240416 0.0440184 -4.17805e-19)
(0.330648 0.0602111 5.57798e-20)
(0.427631 0.0751987 2.2608e-19)
(0.52779 0.0879001 -3.78233e-19)
(0.640365 0.0841145 -5.02374e-19)
(-0.00875657 -0.0175808 4.20473e-19)
(-0.00630216 -0.0223434 9.21557e-20)
(0.012914 -0.014686 -3.35404e-19)
(0.0462265 -0.000871176 1.15554e-19)
(0.0921726 0.0157893 1.70075e-20)
(0.149466 0.0334935 -4.14853e-19)
(0.21673 0.0513291 -4.83887e-21)
(0.292026 0.0687119 1.27137e-19)
(0.373578 0.0839129 -1.20482e-19)
(0.468365 0.0862576 3.03297e-19)
(-0.00820273 -0.0174343 -6.13022e-20)
(-0.0119094 -0.0244345 3.79573e-20)
(-0.00541054 -0.0190535 2.68755e-19)
(0.0116538 -0.00753412 4.62439e-19)
(0.0389833 0.00709887 1.92744e-19)
(0.0760592 0.0232494 2.82408e-19)
(0.122244 0.0400833 3.90188e-19)
(0.176475 0.056899 1.18245e-19)
(0.238212 0.0717509 1.72209e-19)
(0.311069 0.0768755 -2.04083e-20)
(-0.00689739 -0.0147261 -1.33073e-19)
(-0.0144559 -0.0217081 -1.04729e-19)
(-0.017467 -0.0182303 7.67186e-20)
(-0.0129701 -0.00960064 -1.39463e-19)
(-0.000321886 0.0017549 2.20481e-19)
(0.0204732 0.0145969 -6.54909e-22)
(0.0492371 0.0282444 -2.26192e-20)
(0.0854806 0.0420295 1.26171e-19)
(0.129177 0.0542293 8.63651e-20)
(0.181211 0.0594003 5.07852e-22)
(-0.00555952 -0.00982907 1.94472e-20)
(-0.0153145 -0.0148696 -4.05232e-20)
(-0.0246954 -0.0129466 -3.55605e-20)
(-0.0288023 -0.0076064 -4.01829e-20)
(-0.0263288 -0.00042457 1.99968e-20)
(-0.0169621 0.00781323 -1.23916e-19)
(-0.000616493 0.0166635 2.74437e-22)
(0.0225317 0.0256431 8.20349e-20)
(0.0525044 0.0335404 8.21825e-20)
(0.0885755 0.037121 2.65138e-20)
(-0.00473981 -0.00345109 7.51139e-21)
(-0.0154824 -0.00527905 -5.47407e-20)
(-0.0280667 -0.00466656 -6.98741e-20)
(-0.036554 -0.00285878 -7.43632e-20)
(-0.0392987 -0.0004016 3.1443e-21)
(-0.0358303 0.00243338 3.39138e-20)
(-0.0259415 0.00549582 -2.01883e-20)
(-0.0097204 0.00860943 -1.78298e-20)
(0.0128305 0.0113215 9.15016e-21)
(0.0403017 0.0125793 -3.83467e-20)
(0.0712235 -0.00927956 -2.14243e-21)
(0.101845 -0.0119517 -7.267e-21)
(0.150905 -0.0146309 -1.61318e-21)
(0.20781 -0.0169839 -3.47575e-21)
(0.272669 -0.0188843 -3.03095e-21)
(0.343688 -0.0200037 -3.41728e-21)
(0.417692 -0.0202638 5.43747e-22)
(0.491682 -0.0197632 1.08316e-21)
(0.563162 -0.0186685 7.16528e-23)
(0.630213 -0.0171554 1.41686e-22)
(0.691497 -0.0153817 3.81101e-22)
(0.746191 -0.0134804 -1.99755e-22)
(0.793918 -0.011562 -2.30898e-22)
(0.834674 -0.00971561 1.72297e-22)
(0.868766 -0.00800837 3.70851e-22)
(0.896751 -0.00648547 2.85905e-22)
(0.919318 -0.0051716 6.31582e-23)
(0.937294 -0.00407044 7.64946e-23)
(0.951368 -0.0031741 6.08731e-23)
(0.962473 -0.00245644 1.54809e-23)
(0.970823 -0.00190354 -6.07593e-25)
(0.977891 -0.00146085 3.44462e-23)
(0.982151 -0.00116575 -2.83099e-24)
(0.988257 -0.000845292 2.35945e-24)
(0.123295 -0.0277081 -2.00547e-20)
(0.151261 -0.0352762 2.23146e-20)
(0.199076 -0.0430927 3.30041e-20)
(0.254013 -0.0499496 5.85099e-21)
(0.315784 -0.0554472 4.33567e-21)
(0.382842 -0.0586699 3.81463e-21)
(0.452274 -0.0593987 2.40948e-21)
(0.521411 -0.0579241 2.74431e-21)
(0.588074 -0.05473 1.40845e-21)
(0.650594 -0.0503231 6.27688e-24)
(0.707797 -0.0451571 -5.14655e-22)
(0.758953 -0.0396146 -7.33175e-22)
(0.803708 -0.0340137 4.25406e-22)
(0.842045 -0.028614 1.05283e-21)
(0.87422 -0.0236131 1.27214e-21)
(0.900726 -0.0191447 2.5122e-22)
(0.92218 -0.0152836 -7.45748e-22)
(0.939334 -0.0120426 -2.40432e-22)
(0.952814 -0.00940074 -1.75024e-22)
(0.963495 -0.00728244 -1.40686e-22)
(0.97155 -0.00564882 -4.15878e-24)
(0.978402 -0.0043385 1.04402e-23)
(0.982534 -0.00346523 1.88738e-23)
(0.988497 -0.00251503 -3.55907e-24)
(0.221072 -0.0453789 -6.52757e-20)
(0.24415 -0.0568516 2.90236e-20)
(0.289012 -0.0692057 6.38219e-20)
(0.339996 -0.0800045 4.25316e-20)
(0.39582 -0.088544 9.85562e-22)
(0.455358 -0.0935041 -4.7194e-21)
(0.51622 -0.0945738 2.33426e-21)
(0.576337 -0.0922178 7.11698e-22)
(0.6341 -0.0871888 -7.6662e-22)
(0.688277 -0.0802671 -7.33116e-22)
(0.737981 -0.0721476 6.18853e-22)
(0.782632 -0.0634168 4.34912e-23)
(0.821921 -0.0545668 -1.35863e-21)
(0.855796 -0.0460053 -6.71063e-22)
(0.884429 -0.0380499 -6.43318e-22)
(0.908193 -0.0309186 -6.34805e-22)
(0.927575 -0.0247372 -2.06593e-22)
(0.943196 -0.019533 -2.33957e-22)
(0.955563 -0.0152793 -2.25399e-22)
(0.965446 -0.0118589 -4.29445e-22)
(0.972943 -0.00921586 -2.30521e-22)
(0.979387 -0.00708871 -4.23107e-24)
(0.983273 -0.00567166 1.86912e-23)
(0.988961 -0.00412377 2.63136e-24)
(0.353869 -0.060792 1.07417e-19)
(0.370424 -0.0754779 2.05006e-20)
(0.410012 -0.09152 -6.09084e-20)
(0.45494 -0.105469 -4.3534e-20)
(0.502273 -0.116305 -3.54644e-21)
(0.551378 -0.122522 -3.11006e-20)
(0.60062 -0.1238 -1.99327e-20)
(0.648708 -0.120746 -1.59281e-20)
(0.694732 -0.114304 -5.85228e-21)
(0.737979 -0.105443 -1.14983e-21)
(0.777888 -0.0950215 3.04939e-22)
(0.814045 -0.0837683 3.4448e-22)
(0.846184 -0.0723039 -1.69304e-22)
(0.874204 -0.0611546 -7.90807e-23)
(0.898168 -0.0507431 5.11129e-22)
(0.918301 -0.0413652 1.36522e-21)
(0.934923 -0.0331992 1.38242e-21)
(0.948489 -0.0262939 6.65811e-22)
(0.959358 -0.0206277 1.42653e-22)
(0.968157 -0.0160528 -2.70844e-22)
(0.974893 -0.0125079 -4.77245e-23)
(0.980773 -0.0096412 3.14144e-23)
(0.984319 -0.00773281 6.75842e-23)
(0.989622 -0.0056362 5.6716e-24)
(0.509169 -0.0716593 4.15542e-21)
(0.5183 -0.0898578 1.47964e-19)
(0.549952 -0.108649 3.40902e-20)
(0.58644 -0.124879 5.11412e-21)
(0.623017 -0.137286 -8.68146e-21)
(0.659504 -0.144332 -1.04347e-20)
(0.695174 -0.145789 -3.2344e-21)
(0.729567 -0.142355 9.60754e-21)
(0.762449 -0.135067 4.56868e-22)
(0.79358 -0.124983 -3.70219e-21)
(0.822683 -0.113044 -8.91277e-22)
(0.849473 -0.100055 -8.33499e-22)
(0.873707 -0.0867197 -1.99206e-21)
(0.895224 -0.0736512 -9.82203e-22)
(0.91397 -0.0613614 -3.52025e-22)
(0.930018 -0.0502212 -3.11295e-22)
(0.943513 -0.0404637 4.85575e-22)
(0.954733 -0.0321666 -3.41649e-22)
(0.963875 -0.025325 -1.1942e-21)
(0.971414 -0.0197725 -1.88457e-22)
(0.977258 -0.0154559 -9.96366e-23)
(0.982468 -0.0119439 1.05546e-22)
(0.98561 -0.00960923 -2.45875e-23)
(0.99044 -0.00702357 -2.80823e-23)
(0.674311 -0.0756784 -3.58891e-20)
(0.676233 -0.0985237 -1.03077e-19)
(0.697405 -0.119274 -1.1308e-19)
(0.722728 -0.137031 -5.17315e-20)
(0.746538 -0.150514 9.27428e-21)
(0.769011 -0.158228 -1.44295e-20)
(0.790295 -0.160072 5.19221e-22)
(0.810646 -0.156765 1.19688e-20)
(0.830341 -0.149332 -8.94271e-23)
(0.849463 -0.138823 -2.17017e-21)
(0.867907 -0.126189 2.39661e-22)
(0.88546 -0.112266 6.236e-22)
(0.901871 -0.0978024 1.37815e-21)
(0.916914 -0.0834751 8.43355e-22)
(0.930426 -0.0698731 -9.96906e-22)
(0.94234 -0.0574439 -8.94431e-22)
(0.952641 -0.0464826 2.73318e-22)
(0.961441 -0.0371027 4.84997e-22)
(0.968783 -0.0293258 -1.03995e-22)
(0.974992 -0.0229771 -7.26913e-22)
(0.979886 -0.0180245 -1.10172e-22)
(0.984368 -0.0139665 1.25051e-22)
(0.987072 -0.0112766 6.94649e-23)
(0.991373 -0.00826458 -2.98343e-23)
(0.838014 -0.0723982 -2.79072e-20)
(0.834089 -0.101306 -1.42151e-19)
(0.842314 -0.123286 -1.27186e-19)
(0.853608 -0.141972 -2.45164e-20)
(0.86311 -0.156377 1.32552e-19)
(0.871157 -0.164968 5.41095e-20)
(0.878429 -0.167664 9.00318e-21)
(0.885602 -0.165096 9.41668e-21)
(0.893197 -0.158191 -1.39871e-20)
(0.901419 -0.147939 5.25137e-21)
(0.910218 -0.135275 3.52086e-22)
(0.919393 -0.121046 -1.05861e-21)
(0.928669 -0.106037 -1.07731e-21)
(0.937762 -0.0909806 -5.73829e-22)
(0.946417 -0.0765331 -2.63898e-22)
(0.954453 -0.063211 -1.80511e-22)
(0.961724 -0.0513721 1.28171e-22)
(0.968198 -0.0411716 -6.08491e-22)
(0.973792 -0.0326667 -8.77816e-22)
(0.978689 -0.0256815 -4.05776e-22)
(0.982636 -0.0202149 -1.99488e-23)
(0.986374 -0.0157017 -8.73205e-24)
(0.988635 -0.0127251 -4.13979e-23)
(0.992375 -0.00934748 2.62242e-23)
(0.993696 -0.0631155 3.67109e-20)
(0.983449 -0.0957041 8.56391e-20)
(0.975767 -0.118594 -4.63411e-20)
(0.970605 -0.138551 -9.32452e-20)
(0.965312 -0.154408 2.91763e-20)
(0.959841 -0.164592 1.86332e-21)
(0.954722 -0.168913 -1.52302e-20)
(0.950621 -0.167825 1.90868e-20)
(0.948018 -0.162121 -2.59018e-21)
(0.947081 -0.15274 -4.9393e-21)
(0.947741 -0.140612 -1.25787e-21)
(0.949787 -0.126607 -2.00829e-21)
(0.952931 -0.111557 -5.39956e-22)
(0.956853 -0.0962535 -3.35842e-22)
(0.96124 -0.0814014 8.0723e-22)
(0.965826 -0.0675675 1.15556e-21)
(0.970367 -0.0551651 -6.8512e-23)
(0.974717 -0.0443964 -1.43639e-22)
(0.978692 -0.0353604 2.99313e-23)
(0.982351 -0.0278926 9.58676e-23)
(0.985398 -0.0220263 -1.06479e-22)
(0.988405 -0.0171505 -1.59779e-22)
(0.990237 -0.0139445 6.42517e-24)
(0.993404 -0.0102714 1.06406e-23)
(1.19426 -0.0312172 0)
(1.15765 -0.0646945 0)
(1.12608 -0.0910558 0)
(1.10072 -0.114371 0)
(1.07914 -0.133175 0)
(1.05962 -0.146561 -2.7686e-28)
(1.04185 -0.154457 -2.76865e-28)
(1.02617 -0.15711 0)
(1.01286 -0.155002 0)
(1.00204 -0.148794 0)
(0.993655 -0.139253 0)
(0.987566 -0.127209 0)
(0.983536 -0.113537 0)
(0.981282 -0.0990986 0)
(0.980486 -0.0846828 0)
(0.980813 -0.0709554 0)
(0.981928 -0.0584294 0)
(0.983562 -0.0473952 0)
(0.98543 -0.0380217 0)
(0.987445 -0.0301944 0)
(0.989279 -0.0239844 0)
(0.991272 -0.0187872 0)
(0.992516 -0.0153307 0)
(0.994855 -0.0113788 0)
(1.27071 -0.00494265 0)
(1.24808 -0.0406485 0)
(1.21949 -0.0707095 0)
(1.19189 -0.0958668 0)
(1.16577 -0.115587 0)
(1.14035 -0.129571 0)
(1.1158 -0.138058 0)
(1.09284 -0.141557 0)
(1.0721 -0.140674 0)
(1.0539 -0.136048 0)
(1.03834 -0.128351 0)
(1.02541 -0.118296 0)
(1.01505 -0.10661 0)
(1.0071 -0.0940256 0)
(1.00132 -0.081248 0)
(0.997395 -0.0688931 0)
(0.994983 -0.057449 0)
(0.993747 -0.0472151 0)
(0.993334 -0.0383833 0)
(0.993531 -0.0308962 0)
(0.993993 -0.024852 0)
(0.994816 -0.0197313 0)
(0.995362 -0.0162468 0)
(0.996675 -0.0122549 0)
(1.28287 0.00966006 0)
(1.27031 -0.0231978 0)
(1.24861 -0.0511076 0)
(1.2252 -0.074444 0)
(1.20138 -0.0932205 0)
(1.17686 -0.107268 7.49646e-28)
(1.15206 -0.116606 7.49646e-28)
(1.12795 -0.121505 0)
(1.10533 -0.122393 0)
(1.08471 -0.119794 0)
(1.06635 -0.114284 0)
(1.05041 -0.106464 0)
(1.03694 -0.0969686 0)
(1.02594 -0.0864537 0)