/*--------------------------------*- C++ -*----------------------------------*\
  =========                 |
  \\      /  F ield         | OpenFOAM: The Open Source CFD Toolbox
   \\    /   O peration     | Website:  https://openfoam.org
    \\  /    A nd           | Version:  7
     \\/     M anipulation  |
\*---------------------------------------------------------------------------*/
FoamFile
{
    version     2.0;
    format      ascii;
    class       volVectorField;
    location    "60";
    object      U;
}
// * * * * * * * * * * * * * * * * * * * * * * * * * * * * * * * * * * * * * //

dimensions      [0 1 -1 0 0 0 0];

internalField   nonuniform List<vector> 
8820
(
(-0.000583855 0.000186273 0)
(-0.00335936 0.000594926 0)
(-0.00876176 0.00100442 0)
(-0.01564 0.00140568 0)
(-0.0234119 0.00178214 -6.71615e-21)
(-0.0316838 0.00212037 -6.33766e-21)
(-0.0401162 0.00241298 -1.19357e-20)
(-0.0484373 0.00265818 0)
(-0.056435 0.00285931 2.11485e-20)
(-0.0639433 0.00302393 -9.93494e-21)
(-0.0708335 0.00316285 6.92887e-24)
(-0.0770088 0.00328928 1.7528e-20)
(-0.0824032 0.00341853 -8.21649e-21)
(-0.0869831 0.00356827 0)
(-0.0907532 0.00375924 7.20832e-21)
(-0.0937642 0.00401637 6.73941e-21)
(-0.0961312 0.00436934 0)
(-0.0980601 0.00485197 2.35737e-20)
(-0.0997627 0.00550047 0)
(-0.101231 0.00635311 0)
(-0.103281 0.00743596 0)
(-0.000665439 0.00163147 0)
(-0.0035469 0.00419022 -3.17064e-20)
(-0.00899392 0.00614673 -3.00488e-20)
(-0.015874 0.00761294 0)
(-0.0236144 0.00865934 0)
(-0.0318283 0.00934376 1.2663e-20)
(-0.0401819 0.00971927 1.19356e-20)
(-0.0484079 0.009834 -2.24909e-20)
(-0.0562977 0.00973199 2.1143e-20)
(-0.0636878 0.00945436 1.22312e-23)
(-0.0704506 0.0090405 0)
(-0.0764894 0.00853005 -1.75237e-20)
(-0.0817362 0.00796571 0)
(-0.0861539 0.00739694 0)
(-0.089741 0.00688408 0)
(-0.09254 0.00650207 1.34702e-20)
(-0.0946566 0.00634177 0)
(-0.0962891 0.00650623 -2.35736e-20)
(-0.0976464 0.00710335 2.19909e-20)
(-0.0987126 0.00824211 -4.10996e-20)
(-0.100313 0.00998008 1.9578e-20)
(-0.000846093 0.00304221 3.15959e-20)
(-0.00396184 0.00770383 3.17064e-20)
(-0.00951271 0.0111779 9.02166e-20)
(-0.0164056 0.013692 0)
(-0.0240894 0.0154007 5.37538e-20)
(-0.0321923 0.0164306 0)
(-0.0403934 0.0168936 2.38988e-20)
(-0.0484353 0.016886 -2.24728e-20)
(-0.0561172 0.0164914 4.23283e-20)
(-0.0632808 0.0157829 0)
(-0.0698018 0.0148267 0)
(-0.0755836 0.0136866 3.50474e-20)
(-0.0805551 0.0124299 -4.13933e-25)
(-0.0846717 0.0111346 -1.23125e-19)
(-0.0879203 0.00989723 1.9606e-23)
(-0.0903272 0.00883994 5.38985e-20)
(-0.0919791 0.00811434 0)
(-0.0930584 0.0078964 -4.70398e-20)
(-0.0937673 0.00837558 8.79155e-20)
(-0.0940752 0.00974862 0)
(-0.0948218 0.0121252 -3.9209e-20)
(-0.00112048 0.00439631 -6.32211e-20)
(-0.0045925 0.0110834 0)
(-0.0103037 0.016027 -9.03034e-20)
(-0.0172195 0.0195618 -2.84388e-20)
(-0.0248211 0.021921 8.45963e-23)
(-0.0327598 0.0232964 -1.01564e-19)
(-0.0407335 0.0238556 1.43487e-19)
(-0.0485004 0.0237409 5.01929e-23)
(-0.0558712 0.023073 -8.46526e-20)
(-0.0626964 0.0219548 -7.96451e-20)
(-0.0688563 0.0204766 7.47838e-20)
(-0.0742555 0.0187229 -7.01595e-20)
(-0.0788192 0.016781 1.31493e-19)
(-0.0824931 0.0147519 1.23127e-19)
(-0.0852479 0.0127622 -5.76468e-20)
(-0.0870867 0.0109761 -4.52264e-23)
(-0.0880678 0.0096039 -5.03904e-20)
(-0.0883483 0.00889903 0)
(-0.0881179 0.00914764 -8.30943e-23)
(-0.0873216 0.0106627 -8.19057e-20)
(-0.0868062 0.0136442 3.93879e-20)
(-0.00148086 0.0056733 -3.17074e-20)
(-0.00542177 0.0142802 0)
(-0.0113456 0.0206272 6.02616e-20)
(-0.0182926 0.0251447 -5.69954e-20)
(-0.0257856 0.0281376 9.04147e-23)
(-0.0335054 0.0298579 -5.08659e-20)
(-0.0411749 0.0305249 1.43816e-19)
(-0.0485722 0.030324 4.51981e-20)
(-0.0555236 0.0294101 0)
(-0.0618908 0.0279131 7.95964e-20)
(-0.0675616 0.0259441 -1.49589e-19)
(-0.072443 0.0236039 -7.02665e-20)
(-0.0764568 0.0209938 3.12154e-23)
(-0.0795385 0.0182302 -6.15912e-20)
(-0.0816397 0.0154611 -1.15323e-19)
(-0.0827352 0.0128841 0)
(-0.0828467 0.0107624 5.02789e-20)
(-0.0820951 0.00942943 -1.40959e-19)
(-0.0806508 0.00928553 0)
(-0.0784219 0.0107978 -8.16349e-20)
(-0.0762293 0.0143152 1.55485e-19)
(-0.00191742 0.00685495 0)
(-0.00642785 0.0172501 1.27992e-19)
(-0.0126109 0.0249168 1.20994e-19)
(-0.0195948 0.0303678 5.7446e-20)
(-0.0269511 0.033971 1.08191e-19)
(-0.0343955 0.0360332 5.09717e-20)
(-0.0416805 0.0368207 -4.7823e-20)
(-0.0486082 0.0365584 -1.8056e-19)
(-0.0550236 0.0354325 0)
(-0.0608026 0.0335969 1.59663e-19)
(-0.0658427 0.0311799 7.50054e-20)
(-0.0700551 0.0282935 2.81201e-19)
(-0.0733599 0.0250467 -6.58765e-20)
(-0.0756832 0.0215625 0)
(-0.0769573 0.0179986 -9.35201e-23)
(-0.0771266 0.0145732 -1.07828e-19)
(-0.0761694 0.0115911 1.00641e-19)
(-0.0741604 0.0094625 7.09288e-23)
(-0.0712444 0.00871629 -8.74559e-20)
(-0.0672826 0.0100133 8.13971e-20)
(-0.0629875 0.0139294 0)
(-0.00241874 0.00792583 6.40105e-20)
(-0.00758524 0.0199546 -1.91956e-19)
(-0.0140674 0.0288407 0)
(-0.0210903 0.0351636 -1.72019e-19)
(-0.0282794 0.0393459 -5.40585e-20)
(-0.0353887 0.0417423 0)
(-0.0422041 0.0426616 0)
(-0.0485546 0.0423643 0)
(-0.0543065 0.0410651 -8.52517e-20)
(-0.0593521 0.0389389 8.02552e-20)
(-0.0636004 0.0361277 -7.50043e-20)
(-0.0669694 0.0327507 -1.40688e-19)
(-0.0693795 0.0289181 0)
(-0.0707494 0.0247496 0)
(-0.0709948 0.0203999 2.30755e-19)
(-0.0700304 0.0160911 -3.52739e-22)
(-0.067789 0.0121516 -2.01426e-19)
(-0.0642901 0.00905573 9.38501e-20)
(-0.0596535 0.00746374 8.74533e-20)
(-0.0537038 0.00825856 -1.66191e-22)
(-0.0468645 0.012333 1.54531e-19)
(-0.00297236 0.00887381 0)
(-0.00886581 0.022362 1.29033e-19)
(-0.015679 0.0323511 0)
(-0.0227387 0.0394719 0)
(-0.0297263 0.0441918 1.08758e-19)
(-0.0364368 0.0469076 -2.04947e-19)
(-0.042691 0.0479657 9.66028e-20)
(-0.0483468 0.0476585 -1.63951e-22)
(-0.0532936 0.0462263 -1.17148e-22)
(-0.0574412 0.0438629 3.92168e-22)
(-0.0607118 0.0407213 7.52387e-20)
(-0.0630312 0.0369245 0)
(-0.0643225 0.0325784 0)
(-0.0645002 0.0277916 0)
(-0.0634668 0.0227025 2.40358e-22)
(-0.0611118 0.0175183 3.2376e-19)
(-0.057325 0.0125676 -1.00845e-19)
(-0.0520663 0.00836534 0)
(-0.0454417 0.0056877 0)
(-0.0373064 0.0056636 -1.62358e-19)
(-0.0274883 0.00967732 0)
(-0.00356538 0.00969044 -1.29309e-19)
(-0.01024 0.0244484 -1.29033e-19)
(-0.0174073 0.0354093 0)
(-0.0244957 0.04324 0)
(-0.0312429 0.0484445 -1.09332e-19)
(-0.0374848 0.0514551 0)
(-0.043078 0.0526514 -9.66655e-20)
(-0.0479096 0.0523545 -9.15113e-20)
(-0.0518924 0.0508279 -1.71456e-19)
(-0.0549541 0.0482822 -1.60796e-19)
(-0.0570297 0.0448805 -3.01662e-19)
(-0.0580534 0.0407475 1.41444e-19)
(-0.0579519 0.0359818 0)
(-0.0566376 0.030675 1.24038e-19)
(-0.0540038 0.0249388 -2.31327e-19)
(-0.0499208 0.0189474 2.16394e-19)
(-0.0442404 0.0130029 0)
(-0.0368623 0.00762516 0)
(-0.0278756 0.00366985 0)
(-0.0172674 0.00258471 0)
(-0.00419422 0.00686895 1.52907e-19)
(-0.00418512 0.0103713 -5.45332e-22)
(-0.0116781 0.0261978 1.29761e-19)
(-0.0192126 0.037986 -2.46288e-19)
(-0.0263147 0.0464247 1.16071e-19)
(-0.0327758 0.052047 3.28698e-19)
(-0.0384712 0.0553156 -2.06435e-19)
(-0.0432928 0.056639 3.88999e-19)
(-0.0471561 0.056364 1.82451e-19)
(-0.0499958 0.0547755 2.57581e-19)
(-0.0517561 0.0520999 1.61256e-19)
(-0.0523831 0.0485098 1.51266e-19)
(-0.0518177 0.0441318 0)
(-0.049989 0.0390571 -2.65523e-19)
(-0.0468076 0.0333584 1.24252e-19)
(-0.0421599 0.0271145 -1.16147e-19)
(-0.0359011 0.0204521 5.01055e-22)
(-0.0278525 0.0136173 2.02269e-19)
(-0.0178573 0.00708389 9.40287e-20)
(-0.00591165 0.00172794 0)
(0.00817473 -0.000644975 0)
(0.0250714 0.00363195 0)
(-0.00481983 0.010916 -3.97765e-22)
(-0.0131514 0.027603 1.31027e-19)
(-0.0210551 0.0400619 1.23543e-19)
(-0.0281466 0.0489927 1.1663e-19)
(-0.0342664 0.0549514 7.33948e-22)
(-0.0393269 0.0584268 -4.47773e-22)
(-0.0432525 0.059853 -2.92206e-19)
(-0.045985 0.0595997 1.83345e-19)
(-0.0474787 0.0579717 -3.44263e-19)
(-0.0476907 0.0552108 -1.61449e-19)
(-0.0465744 0.0514997 1.51581e-19)
(-0.0440737 0.046969 -1.42171e-19)
(-0.0401158 0.0417047 1.32889e-19)
(-0.034607 0.0357633 1.2427e-19)
(-0.0274269 0.0291915 -1.16383e-19)
(-0.0184199 0.0220614 -2.16622e-19)
(-0.00738734 0.0145392 -2.01727e-19)
(0.00586251 0.00699564 -1.86763e-19)
(0.0214008 0.00022462 5.21397e-19)
(0.0397009 -0.00378295 -1.9865e-21)
(0.0615762 -0.000484186 -1.5119e-19)
(-0.00545924 0.0113283 3.9377e-19)
(-0.0146329 0.0286651 -2.62275e-19)
(-0.0228951 0.0416283 -1.23896e-19)
(-0.0299395 0.0509218 2.35112e-19)
(-0.0356502 0.0571205 -2.20557e-19)
(-0.0399723 0.0607361 -8.93807e-22)
(-0.0428596 0.0622256 -4.38318e-22)
(-0.0442767 0.0619798 -1.83682e-19)
(-0.0441929 0.060322 1.72863e-19)
(-0.0425736 0.0575089 0)
(-0.0393737 0.0537349 0)
(-0.0345336 0.0491376 0)
(-0.0279723 0.0438022 1.33497e-19)
(-0.0195855 0.0377768 0)
(-0.00924329 0.0310833 1.16221e-19)
(0.00321817 0.0237458 1.07769e-19)
(0.0180066 0.0158455 -2.02657e-19)
(0.0353287 0.00761395 -1.87668e-19)
(0.0552615 -0.000330902 -1.7381e-19)
(0.0784238 -0.00603339 0)
(0.106525 -0.00414439 -2.98612e-19)
(-0.00609501 0.0116154 -2.64101e-19)
(-0.016098 0.0293927 1.32586e-19)
(-0.0246927 0.0426866 -1.24916e-19)
(-0.0316378 0.0522012 1.19102e-19)
(-0.0368537 0.058529 1.11025e-19)
(-0.0403137 0.0622033 1.04041e-19)
(-0.0419965 0.0637017 1.96185e-19)
(-0.0418846 0.0634347 -3.68939e-19)
(-0.0399571 0.0617426 1.73089e-19)
(-0.0361812 0.0588976 -1.72719e-22)
(-0.0305052 0.055107 -4.57533e-19)
(-0.022858 0.0505173 2.85846e-19)
(-0.0131429 0.0452214 8.63009e-25)
(-0.0012364 0.0392677 -1.25075e-19)
(0.0130074 0.0326673 0)
(0.0297604 0.0254145 -2.16842e-19)
(0.0492269 0.0175211 2.02912e-19)
(0.0716122 0.00908501 9.50587e-22)
(0.0969463 0.000478072 1.06191e-21)
(0.12572 -0.00665536 -1.59597e-19)
(0.161588 -0.00617042 2.97061e-19)
(-0.00672093 0.0117875 2.65483e-19)
(-0.0175242 0.0298012 1.36613e-21)
(-0.0264071 0.0432472 0)
(-0.0331793 0.0528317 -2.36356e-19)
(-0.0377904 0.0591656 -3.35346e-19)
(-0.0402368 0.0628038 1.05058e-19)
(-0.0405168 0.0642437 0)
(-0.0386248 0.0639141 0)
(-0.034543 0.0621718 3.47441e-19)
(-0.0282324 0.0593038 -1.63202e-19)
(-0.0196276 0.0555316 1.52634e-19)
(-0.00863484 0.0510143 2.00876e-23)
(0.00486715 0.0458592 -2.9329e-22)
(0.0210275 0.0401238 1.24575e-19)
(0.0400137 0.0338254 -4.67722e-19)
(0.0620062 0.0269519 0)
(0.0871953 0.019482 0)
(0.115763 0.0114229 0)
(0.147675 0.00290439 1.73506e-19)
(0.182842 -0.0050385 2.36956e-21)
(0.228358 -0.00546247 2.93239e-19)
(-0.00733273 0.0118565 0)
(-0.0188903 0.0299106 -2.66859e-19)
(-0.0279942 0.0433286 -2.53622e-19)
(-0.034492 0.0528252 1.19093e-19)
(-0.038356 0.0590338 -5.61525e-22)
(-0.0396 0.062532 1.05572e-19)
(-0.0382358 0.0638373 -1.98002e-19)
(-0.034263 0.063396 1.86181e-19)
(-0.0276589 0.0615808 0)
(-0.0183697 0.058694 -1.63367e-19)
(-0.00630693 0.0549718 1.53004e-19)
(0.00865308 0.0505906 -1.4351e-19)
(0.0266648 0.0456746 0)
(0.047907 0.040301 2.50121e-19)
(0.0725688 0.0345074 -5.39776e-22)
(0.100833 0.0282988 -2.17798e-19)
(0.132855 0.0216584 0)
(0.16876 0.0145644 0)
(0.208492 0.00702003 -1.28349e-21)
(0.2507 -0.000872723 -1.60404e-19)
(0.307857 -0.00111282 -2.88196e-19)
(-0.00792756 0.0118351 0)
(-0.0201746 0.0297433 2.70525e-19)
(-0.0294038 0.0429549 2.53622e-19)
(-0.0354898 0.0522038 2.40483e-19)
(-0.0384216 0.0581524 0)
(-0.0382253 0.0614036 2.12502e-19)
(-0.0349193 0.0624963 1.98771e-19)
(-0.0285003 0.0618943 -1.87462e-19)
(-0.0189319 0.0599865 -1.75198e-19)
(-0.00613676 0.0570907 -1.63734e-19)
(0.0100054 0.05346 4.60246e-19)
(0.0296541 0.04929 -2.87724e-19)
(0.052999 0.0447267 -1.34417e-19)
(0.0802454 0.0398737 2.50245e-19)
(0.111592 0.0347985 -2.34353e-19)
(0.147202 0.0295392 4.34769e-19)
(0.187161 0.0241094 -2.03048e-19)
(0.231464 0.0185074 1.87091e-19)
(0.280135 0.012822 3.43936e-19)
(0.32974 0.0058386 -1.59933e-19)
(0.400094 0.00740027 -1.28793e-21)
(-0.00850297 0.011735 1.35832e-19)
(-0.0213528 0.0293216 -5.43062e-19)
(-0.0305756 0.0421535 1.27959e-19)
(-0.0360671 0.0509988 -4.81678e-19)
(-0.0378279 0.0565557 1.13555e-19)
(-0.0358907 0.0594576 2.1379e-19)
(-0.0302733 0.0602665 -6.00025e-19)
(-0.0209608 0.0594655 3.74651e-19)
(-0.00789396 0.0574602 0)
(0.00903677 0.0545856 0)
(0.029989 0.0511137 0)
(0.0551592 0.047262 2.87338e-19)
(0.084765 0.0432024 2.68742e-19)
(0.119021 0.0390684 2.50246e-19)
(0.158103 0.0349622 -4.67492e-19)
(0.202107 0.0309611 2.18239e-19)
(0.250988 0.0271169 2.00905e-19)
(0.304498 0.0234503 -5.60411e-19)
(0.362805 0.0203895 1.73385e-19)
(0.419815 0.0149512 1.54204e-19)
(0.503647 0.0201197 -1.40169e-21)
(-0.00905561 0.011566 0)
(-0.0223942 0.0286653 6.83923e-19)
(-0.0314354 0.0409535 -2.50564e-22)
(-0.0360937 0.049248 -2.42776e-19)
(-0.0363783 0.0542925 1.14263e-19)
(-0.032323 0.0567565 -2.13574e-19)
(-0.0239369 0.0572285 1.99455e-19)
(-0.0111848 0.0562128 -1.88409e-19)
(0.00602415 0.0541345 0)
(0.027837 0.0513478 -1.64896e-19)
(0.0544488 0.0481464 -1.53735e-19)
(0.0860834 0.0447723 2.87838e-19)
(0.122964 0.0414253 -9.40477e-19)
(0.165275 0.0382701 2.51315e-19)
(0.213109 0.0354418 0)
(0.266413 0.0330521 -2.16365e-19)
(0.324911 0.0311826 1.14118e-21)
(0.38799 0.029837 -1.85995e-19)
(0.455796 0.0299402 0)
(0.519945 0.0264332 -1.56857e-19)
(0.615216 0.0366976 0)
(-0.0095797 0.0113344 -2.7747e-19)
(-0.0232589 0.0277897 -1.36735e-19)
(-0.0318905 0.0393825 1.31245e-19)
(-0.0354104 0.0469942 1.22446e-19)
(-0.0338351 0.0514249 2.30371e-19)
(-0.027194 0.0533864 4.3077e-19)
(-0.01548 0.053498 -9.40484e-22)
(0.00137069 0.0522885 0)
(0.0234853 0.0502055 -1.76212e-19)
(0.0510477 0.0476259 3.30346e-19)
(0.0842789 0.0448674 0)
(0.123404 0.0421981 0)
(0.168605 0.0398445 5.76302e-22)
(0.219966 0.0379969 5.01992e-19)
(0.2774 0.036813 0)
(0.340586 0.0364218 0)
(0.40888 0.0369103 2.01278e-19)
(0.481223 0.0382443 1.95198e-21)
(0.557161 0.0416797 1.73275e-19)
(0.627977 0.0405428 2.71592e-21)
(0.729202 0.0566534 2.74585e-19)
(-0.0100652 0.0110421 1.38113e-19)
(-0.0238944 0.026704 1.38954e-19)
(-0.0318257 0.0374648 -1.28978e-19)
(-0.0338257 0.0442836 0)
(-0.0299175 0.0480272 -2.30368e-19)
(-0.0201213 0.049456 -2.15937e-19)
(-0.00440805 0.049225 0)
(0.0173189 0.047892 -3.79113e-19)
(0.0452214 0.0459306 1.77667e-19)
(0.079507 0.0437433 -3.31552e-19)
(0.120392 0.041673 0)
(0.16805 0.0400108 -1.43871e-19)
(0.222543 0.0390018 1.34854e-19)
(0.283745 0.0388465 -2.50637e-19)
(0.351261 0.0397001 0)
(0.424356 0.0416757 0)
(0.501872 0.0448176 0)
(0.582302 0.0491089 0)
(0.663805 0.0554936 1.67758e-19)
(0.740538 0.0577678 4.65414e-19)
(0.83791 0.0791634 6.22244e-22)
(-0.0104952 0.0106863 1.40833e-19)
(-0.0242326 0.0254107 0)
(-0.0311013 0.0352212 -2.63277e-19)
(-0.0311144 0.0411652 0)
(-0.0243024 0.0441845 2.32162e-19)
(-0.0106742 0.0450948 -1.32865e-21)
(0.00982417 0.0445918 -2.04484e-19)
(0.0373187 0.0432665 3.7991e-19)
(0.0719911 0.0416221 -3.55772e-19)
(0.114039 0.0400872 4.98052e-19)
(0.163617 0.0390263 0)
(0.220759 0.0387435 0)
(0.285284 0.0394832 0)
(0.356714 0.0414247 0)
(0.434184 0.0446773 0)
(0.516404 0.0492842 0)
(0.6016 0.0551766 0)
(0.687854 0.0624163 0)
(0.771806 0.0708575 -3.37451e-19)
(0.853112 0.0783192 -1.53763e-19)
(0.933809 0.100717 -5.529e-19)
(-0.0108454 0.0102614 -1.42416e-19)
(-0.0241859 0.0239067 0)
(-0.0295515 0.0326694 -1.35307e-19)
(-0.0270186 0.0376907 -1.25642e-19)
(-0.0166305 0.0399925 -2.33923e-19)
(0.00161492 0.0404519 1.5395e-21)
(0.0277908 0.0398097 2.05843e-19)
(0.0620369 0.0386937 1.92042e-19)
(0.10452 0.037637 1.78053e-19)
(0.155366 0.0370908 1.66731e-19)
(0.214573 0.0374295 0)
(0.281904 0.0389486 0)
(0.356784 0.0418566 0)
(0.438204 0.0462641 0)
(0.524672 0.0521734 0)
(0.614229 0.0594885 0)
(0.704485 0.0679623 0)
(0.793074 0.0776195 0)
(0.876298 0.087294 -1.23385e-21)
(0.958208 0.100286 -4.6714e-19)
(1.01215 0.112163 1.52303e-21)
(-0.011085 0.00975778 4.3452e-19)
(-0.0236485 0.0221836 -1.43262e-19)
(-0.0269839 0.0298266 1.32264e-19)
(-0.0212513 0.0339165 0)
(-0.0065141 0.0355584 -4.73843e-19)
(0.0172327 0.0356955 -8.43276e-23)
(0.0500649 0.0351167 0)
(0.0920999 0.0344867 -1.58194e-22)
(0.143427 0.0343645 -1.80275e-19)
(0.204002 0.0352114 -3.33881e-19)
(0.273534 0.0373883 0)
(0.351348 0.0411449 1.44472e-19)
(0.436288 0.0466025 -1.3541e-19)
(0.526652 0.0537397 -2.50615e-19)
(0.620211 0.0623852 0)
(0.71432 0.0722405 0)
(0.806096 0.082855 0)
(0.892808 0.09398 0)
(0.971787 0.10446 -1.66379e-19)
(1.04294 0.116546 7.75567e-19)
(1.0975 0.122123 2.8651e-19)
(-0.0111731 0.00916369 -2.9064e-19)
(-0.0224959 0.0202336 -4.38651e-19)
(-0.0231832 0.0267128 4.07577e-19)
(-0.0135025 0.0299068 -1.28374e-19)
(0.0064496 0.0310036 2.3795e-19)
(0.0366634 0.0310142 2.28405e-24)
(0.0771821 0.0307752 4.18146e-19)
(0.128039 0.0309833 0)
(0.189148 0.0322104 1.79856e-19)
(0.260159 0.0349035 -2.44264e-22)
(0.340314 0.0393707 0)
(0.428315 0.0457609 0)
(0.522253 0.0540424 5.39336e-19)
(0.619624 0.0639937 -1.31758e-21)
(0.717457 0.0752133 0)
(0.812564 0.087169 0)
(0.901833 0.09921 1.97327e-19)
(0.982653 0.110864 3.62107e-19)
(1.05298 0.121083 1.65168e-19)
(1.11252 0.130943 -3.11171e-19)
(1.15849 0.135265 2.83052e-19)
(-0.0110609 0.00846832 1.47981e-19)
(-0.0205859 0.0180523 2.95249e-19)
(-0.0179145 0.023356 1.039e-21)
(-0.00344786 0.0257391 1.29975e-19)
(0.0226637 0.0264679 0)
(0.0603626 0.0266188 -2.26638e-19)
(0.109601 0.0270703 -2.06974e-19)
(0.170233 0.0285373 1.96456e-19)
(0.241859 0.0315798 0)
(0.323649 0.036589 -1.68605e-19)
(0.414182 0.0437628 0)
(0.511356 0.053079 -1.45184e-19)
(0.612395 0.0642813 -1.36147e-19)
(0.714 0.0768907 -5.01277e-19)
(0.812622 0.0902513 2.33266e-19)
(0.90484 0.103618 0)
(0.987739 0.116211 -1.97305e-19)
(1.05928 0.127487 -1.81442e-19)
(1.11837 0.136543 0)
(1.16533 0.144284 -1.52924e-19)
(1.19975 0.146742 0)
(-0.0106921 0.00766343 -1.5083e-19)
(-0.0177616 0.0156434 -5.99178e-19)
(-0.0109291 0.0197976 -1.39656e-19)
(0.00924119 0.02151 -1.92315e-21)
(0.0425134 0.0221143 -1.22967e-19)
(0.0887289 0.022745 -2.29293e-19)
(0.14766 0.0243074 2.13186e-19)
(0.218849 0.0275093 -1.07835e-22)
(0.301409 0.0328562 0)
(0.393825 0.0406239 0)
(0.493828 0.0508254 0)
(0.598386 0.0631902 2.93609e-19)
(0.703862 0.0771757 2.70949e-19)
(0.806326 0.0920209 -2.48842e-19)
(0.901988 0.106843 4.62328e-19)
(0.987653 0.120766 -2.14644e-19)
(1.06107 0.133006 -1.93484e-19)
(1.12119 0.143105 1.80114e-19)
(1.16804 0.150442 -1.65756e-19)
(1.20279 0.155914 -1.48284e-19)
(1.22702 0.156672 1.37133e-19)
(-0.0100043 0.00674545 0)
(-0.0138552 0.0130236 3.01975e-19)
(-0.00197181 0.0160993 2.87364e-19)
(0.0248847 0.0173414 2.64137e-19)
(0.0663459 0.0181344 0)
(0.122073 0.0196546 -5.10621e-23)
(0.191535 0.0228079 2.57768e-21)
(0.273793 0.0282521 -1.95806e-19)
(0.367267 0.0363769 1.86055e-19)
(0.469559 0.0472638 1.70499e-19)
(0.577411 0.0606569 -1.58428e-19)
(0.686847 0.0759689 -2.9154e-19)
(0.793532 0.0923412 1.36909e-19)
(0.893251 0.108758 -2.48428e-19)
(0.982446 0.124198 2.32635e-19)
(1.05863 0.137783 1.46677e-21)
(1.12062 0.148872 1.95931e-19)
(1.16855 0.157219 1.78125e-19)
(1.20358 0.162538 7.59218e-22)
(1.22773 0.165873 1.49371e-19)
(1.24301 0.164988 2.62958e-19)
(-0.00893053 0.00571725 0)
(-0.00869257 0.0102274 -3.13075e-19)
(0.00921043 0.0123484 -2.87361e-19)
(0.0437799 0.0133865 -1.34289e-19)
(0.0944481 0.0147516 5.05054e-19)
(0.160587 0.0176349 1.14621e-19)
(0.241201 0.0229003 -2.84726e-21)
(0.334669 0.0310929 -2.02803e-19)
(0.438508 0.0424048 0)
(0.549274 0.056632 1.71778e-19)
(0.662679 0.0731712 -4.79437e-19)
(0.77395 0.0910794 1.48912e-19)
(0.87839 0.109205 0)
(0.971979 0.126366 -2.4782e-19)
(1.05189 0.141537 4.61104e-19)
(1.11675 0.153987 -2.10846e-19)
(1.16664 0.163339 0)
(1.20285 0.169624 0)
(1.22745 0.172902 -3.17741e-19)
(1.24295 0.174294 1.46969e-19)
(1.25164 0.172028 -2.60984e-19)
(-0.0074005 0.00458979 2.6876e-21)
(-0.00209878 0.00731007 3.12311e-19)
(0.0228586 0.00866201 0)
(0.0661848 0.0098325 -2.77412e-19)
(0.127022 0.0122214 -1.2662e-19)
(0.20431 0.0169927 -1.19491e-19)
(0.296396 0.0249058 0)
(0.400757 0.0363097 0)
(0.513825 0.0511003 2.52277e-21)
(0.631032 0.0686979 1.7593e-19)
(0.747169 0.088099 1.6164e-19)
(0.856984 0.108017 -2.95566e-19)
(0.955892 0.127094 2.8475e-21)
(1.04058 0.14412 -1.20627e-19)
(1.10938 0.15822 2.26013e-21)
(1.16223 0.168936 0)
(1.20046 0.17622 0)
(1.22628 0.180385 0)
(1.24233 0.181779 1.55365e-19)
(1.25125 0.181515 2.80995e-19)
(1.25517 0.17818 -5.93947e-22)
(-0.00534288 0.00338315 -3.27352e-19)
(0.0060959 0.00435066 1.59726e-19)
(0.0391901 0.00518977 1.49444e-19)
(0.0923006 0.00690169 -1.46329e-19)
(0.164161 0.0108272 -1.29033e-19)
(0.253103 0.0180427 3.64737e-19)
(0.3566 0.0291191 2.25186e-19)
(0.471022 0.0441052 -3.14932e-21)
(0.591596 0.0624979 -5.71919e-19)
(0.712691 0.0832714 3.23551e-21)
(0.828455 0.105017 1.62696e-19)
(0.933617 0.126182 -1.91258e-21)
(1.02423 0.14534 -2.71054e-19)
(1.09815 0.161417 1.26207e-19)
(1.15507 0.173821 0)
(1.19625 0.182443 0)
(1.22402 0.187566 0)
(1.24121 0.189735 3.35956e-19)
(1.25063 0.189503 -3.11912e-19)
(1.25479 0.18788 -1.40809e-19)
(1.25558 0.183776 7.25069e-22)
(-0.00268708 0.00212731 5.01669e-19)
(0.016049 0.00145299 -3.33225e-19)
(0.0583859 0.00211378 -3.07864e-19)
(0.122252 0.00484783 4.26618e-19)
(0.205825 0.0108715 -2.67516e-19)
(0.306624 0.0210916 4.4271e-21)
(0.42103 0.0357843 -4.5023e-19)
(0.544148 0.0545836 6.27566e-19)
(0.669993 0.0764961 -1.95215e-19)
(0.792094 0.100022 0)
(0.904389 0.123406 0)
(1.00212 0.144964 0)
(1.08247 0.163371 1.36341e-19)
(1.1447 0.177838 0)
(1.18992 0.188142 -1.10912e-19)
(1.2205 0.194535 1.03831e-19)
(1.23944 0.197583 0)
(1.24981 0.197987 -1.68585e-19)
(1.25434 0.196411 -1.49577e-19)
(1.25522 0.193702 -1.34286e-19)
(1.25399 0.189078 1.20877e-19)
(0.000634398 0.000862512 -3.41549e-19)
(0.0278981 -0.00125447 1.66968e-19)
(0.0805775 -0.000353926 3.14266e-19)
(0.15607 0.0039492 0)
(0.251821 0.0126621 2.64918e-19)
(0.364319 0.026417 -4.97602e-19)
(0.488661 0.0450723 -1.16404e-19)
(0.618613 0.067735 -2.10674e-19)
(0.747126 0.0928638 9.25461e-22)
(0.86727 0.118517 -1.80369e-19)
(0.973301 0.142717 -1.61972e-19)
(1.06149 0.163822 2.99389e-19)
(1.13046 0.180771 -1.36324e-19)
(1.18098 0.193164 4.13979e-21)
(1.21538 0.201176 1.13648e-19)
(1.23683 0.205381 -2.00359e-19)
(1.24865 0.206546 -1.80565e-19)
(1.25387 0.205452 1.61342e-19)
(1.25494 0.202792 -1.46759e-19)
(1.25363 0.19922 4.84531e-21)
(1.25119 0.194257 1.21751e-19)
(0.00468331 -0.000360777 3.53713e-19)
(0.0417526 -0.00362012 -1.74737e-19)
(0.105833 -0.00197641 5.0764e-22)
(0.193672 0.00449805 -1.50391e-19)
(0.301791 0.0164948 1.39307e-19)
(0.425431 0.0342461 2.54879e-19)
(0.558272 0.0570624 -2.05379e-21)
(0.692798 0.0834332 2.20275e-19)
(0.821204 0.111267 3.01058e-19)
(0.9366 0.138278 7.24494e-19)
(1.0341 0.162441 -1.67564e-19)
(1.11141 0.182333 0)
(1.16872 0.19729 -2.5955e-21)
(1.20819 0.207345 -2.46861e-19)
(1.23307 0.213048 0)
(1.24699 0.215218 1.01648e-19)
(1.25331 0.21474 2.68429e-19)
(1.25478 0.212403 -8.21834e-20)
(1.25348 0.20887 0)
(1.25076 0.204606 0)
(1.24758 0.19942 0)
(0.00951262 -0.00148217 -2.68604e-19)
(0.0576853 -0.00547212 -9.02058e-20)
(0.134145 -0.00249926 0)
(0.234855 0.00678731 1.5111e-19)
(0.355207 0.0226356 -2.81874e-19)
(0.489019 0.0447369 0)
(0.628516 0.0717329 -1.20721e-19)
(0.765106 0.101449 -1.07243e-19)
(0.890671 0.131306 -1.9937e-19)
(0.998921 0.158836 -5.44671e-19)
(1.0863 0.182155 3.31254e-19)
(1.15213 0.20022 -1.52598e-19)
(1.19818 0.212833 0)
(1.22769 0.220459 1.22002e-19)
(1.24455 0.223953 -1.42502e-21)
(1.2525 0.224298 -1.38617e-21)
(1.25468 0.222415 0)
(1.2535 0.219054 0)
(1.25062 0.214807 0)
(1.24702 0.209969 0)
(1.2434 0.204626 0)
(0.0151633 -0.00243227 0)
(0.0757242 -0.00662277 1.79897e-19)
(0.165419 -0.00165993 0)
(0.279284 0.0110957 0)
(0.411387 0.0313018 -1.42618e-19)
(0.554008 0.0579645 2.65427e-19)
(0.698007 0.0889639 -2.66372e-21)
(0.834072 0.121475 -1.10533e-19)
(0.954313 0.152563 1.01843e-19)
(1.05356 0.179774 8.91682e-20)
(1.12989 0.20155 -8.46396e-20)
(1.18434 0.217335 0)
(1.21998 0.227422 1.31267e-19)
(1.24089 0.232654 -1.22995e-19)
(1.2512 0.234109 2.13664e-19)
(1.25454 0.232851 -9.74249e-20)
(1.25371 0.229776 8.81651e-20)
(1.25071 0.22556 0)
(1.2468 0.220706 0)
(1.24267 0.215375 -1.21518e-19)
(1.23878 0.209897 0)
(0.0216609 -0.00313392 -9.47412e-20)
(0.0958451 -0.00687403 -9.493e-20)
(0.199469 0.000801487 0)
(0.326497 0.0176727 -8.28522e-20)
(0.469515 0.0426482 -2.23771e-19)
(0.619243 0.0739158 0)
(0.765411 0.10855 0)
(0.898466 0.14316 0)
(1.0113 0.174639 -1.01843e-19)
(1.10029 0.200756 9.17693e-20)
(1.16531 0.220427 -8.28868e-20)
(1.20895 0.233641 -7.5523e-20)
(1.23534 0.241153 -6.81259e-20)
(1.24902 0.244109 0)
(1.25414 0.243724 1.47435e-21)
(1.25402 0.241069 9.48815e-20)
(1.25106 0.236974 -8.31719e-20)
(1.24684 0.232025 7.40796e-20)
(1.24227 0.226629 6.60045e-20)
(1.23782 0.220852 1.21203e-19)
(1.23375 0.215235 -1.06621e-19)
(0.0290126 -0.00350408 0)
(0.117966 -0.00602424 1.89595e-19)
(0.236013 0.00513066 2.05186e-21)
(0.375915 0.0267242 1.63881e-19)
(0.528677 0.0567557 2.25529e-19)
(0.683557 0.0924925 -6.80577e-20)
(0.829527 0.130223 -1.86752e-19)
(0.957339 0.16614 1.5548e-21)
(1.06118 0.197183 0)
(1.13924 0.221533 1.85021e-19)
(1.19319 0.238685 8.28911e-20)
(1.22695 0.249176 1.49672e-19)
(1.24537 0.254162 6.75296e-20)
(1.25316 0.255005 0)
(1.25427 0.252975 -2.06951e-21)
(1.25161 0.249097 -9.34153e-20)
(1.24716 0.24411 8.31802e-20)
(1.24213 0.238508 -2.1524e-21)
(1.23717 0.232605 -6.60109e-20)
(1.23253 0.22641 5.88504e-20)
(1.22833 0.220629 0)
(0.0372045 -0.00345622 5.06034e-20)
(0.141943 -0.00387575 0)
(0.274677 0.0115473 -8.7815e-20)
(0.426861 0.0384008 8.49522e-20)
(0.587905 0.0736279 -1.53832e-19)
(0.745837 0.113521 2.11752e-19)
(0.889344 0.153672 -6.52375e-20)
(1.01005 0.190064 1.7382e-19)
(1.10383 0.219905 0)
(1.17083 0.241943 -9.03766e-20)
(1.21435 0.256299 2.61023e-21)
(1.23934 0.264025 7.04234e-20)
(1.25106 0.266595 -1.31086e-19)
(1.25417 0.2655 -5.68665e-20)
(1.25224 0.262 -1.02862e-19)
(1.24776 0.257038 0)
(1.2423 0.251248 -3.8924e-20)
(1.23676 0.245039 -3.55278e-20)
(1.23156 0.238639 0)
(1.22683 0.232038 5.4402e-20)
(1.22252 0.226056 -2.40574e-21)
(0.0461993 -0.00290317 -6.49887e-22)
(0.167572 -0.000243139 0)
(0.315001 0.020234 -2.32661e-19)
(0.478585 0.0527891 4.34887e-20)
(0.646227 0.0931917 -1.54267e-21)
(0.805072 0.136769 -7.49242e-22)
(0.944077 0.178574 -6.51126e-20)
(1.05624 0.214617 2.79903e-21)
(1.13941 0.242582 1.406e-21)
(1.19563 0.261889 -9.24606e-20)
(1.2296 0.273293 8.20928e-20)
(1.24701 0.278291 -7.27176e-20)
(1.25325 0.278587 6.43273e-20)
(1.25269 0.275723 5.77951e-20)
(1.24851 0.270899 9.95112e-20)
(1.24275 0.264952 -1.31004e-19)
(1.23663 0.258417 3.99028e-20)
(1.23078 0.251621 0)
(1.22546 0.244722 -5.91195e-20)
(1.22069 0.237716 5.36397e-20)
(1.2163 0.23149 -1.19116e-19)
(0.0559355 -0.00176038 5.25945e-20)
(0.194588 0.00503847 5.23362e-20)
(0.356456 0.0313268 1.42622e-19)
(0.530295 0.0699066 0)
(0.702703 0.115304 7.94175e-20)
(0.860401 0.161959 0)
(0.99317 0.204606 -3.19228e-20)
(1.0958 0.239523 3.00137e-20)
(1.16823 0.265047 5.19361e-20)
(1.21428 0.281328 0)
(1.23975 0.289717 0)
(1.25075 0.292076 -3.44936e-20)
(1.25258 0.290252 2.0146e-21)
(1.24923 0.28577 -5.58249e-22)
(1.24342 0.279735 -1.52377e-21)
(1.23678 0.272872 3.48533e-22)
(1.23025 0.265622 0)
(1.22423 0.258242 3.20115e-20)
(1.21888 0.250832 -2.89096e-22)
(1.21411 0.243416 0)
(1.20966 0.236899 2.20548e-20)
(0.0663275 5.06784e-05 0)
(0.222671 0.0121055 -5.23359e-20)
(0.398458 0.0449074 -4.82428e-20)
(0.58119 0.0897014 0)
(0.756474 0.139761 0)
(0.911129 0.188791 1.84773e-20)
(1.03628 0.23146 1.65004e-20)
(1.12881 0.264553 2.84169e-20)
(1.19075 0.287184 -7.75009e-20)
(1.22745 0.30025 4.61025e-20)
(1.24552 0.305634 0)
(1.25122 0.305473 -1.72497e-20)
(1.24957 0.301676 0)
(1.24414 0.2957 0)
(1.23717 0.288538 0)
(1.22996 0.280802 1.08265e-20)
(1.22319 0.272847 0)
(1.21712 0.264875 -1.54056e-20)
(1.21179 0.256936 -1.34546e-20)
(1.20708 0.249103 2.44052e-20)
(1.2026 0.242246 -1.10832e-20)
(0.0772661 0.00259903 0)
(0.251457 0.0210587 0)
(0.440388 0.0609982 0)
(0.630489 0.112054 0)
(0.806781 0.16631 1.00945e-20)
(0.956733 0.216951 -2.79828e-20)
(1.07327 0.258852 -1.6501e-20)
(1.15552 0.289514 7.0686e-21)
(1.20748 0.30891 1.91097e-20)
(1.23578 0.318661 -3.34103e-20)
(1.24753 0.321101 1.01628e-20)
(1.24892 0.318552 9.0207e-21)
(1.2446 0.312914 7.7161e-21)
(1.23764 0.305546 0)
(1.2299 0.297314 -5.45543e-21)
(1.22235 0.288726 1.51575e-20)
(1.21547 0.280065 0)
(1.20943 0.271485 1.54071e-20)
(1.20419 0.262999 0)
(1.19956 0.254734 0)
(1.1951 0.247491 0)
(0.088621 0.00594094 0)
(0.280546 0.0319578 0)
(0.481619 0.0795599 0)
(0.67746 0.136785 0)
(0.852987 0.194663 -1.0171e-20)
(0.996857 0.246123 -9.07841e-21)
(1.10413 0.286523 -1.64724e-20)
(1.17624 0.314246 0)
(1.21894 0.330166 2.51147e-20)
(1.23984 0.336574 -1.11712e-20)
(1.2463 0.336164 -7.50262e-22)
(1.24428 0.331357 1.56604e-20)
(1.23794 0.323996 -7.48762e-21)
(1.22992 0.315312 0)
(1.22168 0.306047 5.22291e-21)
(1.21396 0.296614 4.27551e-21)
(1.20709 0.287238 0)
(1.20115 0.278029 1.38123e-20)
(1.19605 0.268978 0)
(1.19154 0.260264 0)
(1.18715 0.252592 0)
(0.100244 0.010117 0)
(0.309512 0.044817 -5.59544e-20)
(0.521526 0.100492 -5.13583e-20)
(0.721437 0.163659 0)
(0.894585 0.224503 0)
(1.03129 0.275998 1.86565e-20)
(1.129 0.314238 1.64733e-20)
(1.19134 0.338615 -2.76197e-20)
(1.22563 0.350907 2.47764e-20)
(1.24015 0.353997 -6.96388e-22)
(1.24228 0.350848 0)
(1.23759 0.34391 -1.63124e-20)
(1.22979 0.334922 0)
(1.22106 0.324979 0)
(1.21255 0.314704 0)
(1.2048 0.304425 8.16395e-21)
(1.19803 0.294319 0)
(1.19226 0.284461 -1.38137e-20)
(1.18735 0.274827 1.12073e-20)
(1.18302 0.265641 -2.02085e-20)
(1.17876 0.257503 9.15081e-21)
(0.111972 0.01515 5.81415e-20)
(0.337922 0.0596031 5.59544e-20)
(0.559516 0.123637 1.54747e-19)
(0.761845 0.192398 0)
(0.931194 0.2555 8.38455e-20)
(1.05996 0.306276 0)
(1.14807 0.341782 3.1293e-20)
(1.20124 0.362504 -2.94241e-20)
(1.22803 0.371088 4.80036e-20)
(1.23714 0.370927 0)
(1.23578 0.365162 0)
(1.2291 0.356208 2.95841e-20)
(1.22029 0.345674 -2.32983e-21)
(1.21114 0.334514 -8.98493e-20)
(1.20254 0.323239 1.6744e-21)
(1.19487 0.312108 3.27361e-20)
(1.18828 0.301255 0)
(1.18273 0.29073 -2.40069e-20)
(1.17807 0.280493 4.30755e-20)
(1.17397 0.270806 0)