/*--------------------------------*- C++ -*----------------------------------*\
  =========                 |
  \\      /  F ield         | OpenFOAM: The Open Source CFD Toolbox
   \\    /   O peration     | Website:  https://openfoam.org
    \\  /    A nd           | Version:  7
     \\/     M anipulation  |
\*---------------------------------------------------------------------------*/
FoamFile
{
    version     2.0;
    format      ascii;
    class       volScalarField;
    location    "55";
    object      p;
}
// * * * * * * * * * * * * * * * * * * * * * * * * * * * * * * * * * * * * * //

dimensions      [0 2 -2 0 0 0 0];

internalField   nonuniform List<scalar> 
392
(
-0.510056
-0.499678
-0.48884
-0.477443
-0.465407
-0.452666
-0.439175
-0.424912
-0.409876
-0.394094
-0.377614
-0.36051
-0.342877
-0.32483
-0.306504
-0.288038
-0.269499
-0.251125
-0.563077
-0.551424
-0.540913
-0.531436
-0.521967
-0.512291
-0.502335
-0.491977
-0.481095
-0.469587
-0.45737
-0.444384
-0.430589
-0.415971
-0.400543
-0.384344
-0.36744
-0.349921
-0.3319
-0.313505
-0.294892
-0.276199
-0.257437
-0.239039
-0.552498
-0.541108
-0.53085
-0.521599
-0.512329
-0.502812
-0.492963
-0.482651
-0.471748
-0.46015
-0.447774
-0.434565
-0.42049
-0.405547
-0.389761
-0.373187
-0.355908
-0.33803
-0.319682
-0.301008
-0.28218
-0.263333
-0.244424
-0.53994
-0.528875
-0.518924
-0.509942
-0.50091
-0.491587
-0.481875
-0.471636
-0.460737
-0.449072
-0.436562
-0.423156
-0.408831
-0.525348
-0.51467
-0.505078
-0.496409
-0.525348
-0.51467
-0.505078
-0.496409
-0.487653
-0.53994
-0.528875
-0.518924
-0.509942
-0.50091
-0.491587
-0.481875
-0.471636
-0.460737
-0.449072
-0.436562
-0.423156
-0.408831
-0.393597
-0.552498
-0.541108
-0.530851
-0.521599
-0.512329
-0.502813
-0.492963
-0.482651
-0.471748
-0.46015
-0.447774
-0.434565
-0.42049
-0.405547
-0.389761
-0.373187
-0.355908
-0.33803
-0.319682
-0.301008
-0.28218
-0.263333
-0.244424
-0.226081
-0.563077
-0.551425
-0.540913
-0.531436
-0.521967
-0.512291
-0.502335
-0.491977
-0.481095
-0.469587
-0.45737
-0.444384
-0.430589
-0.415971
-0.400543
-0.384344
-0.36744
-0.349922
-0.3319
-0.313505
-0.294892
-0.276199
-0.257437
-0.239039
-0.465407
-0.452666
-0.439175
-0.424912
-0.409877
-0.394094
-0.377614
-0.36051
-0.342877
-0.32483
-0.306504
-0.288038
-0.269499
-0.251125
-0.224456
-0.19243
-0.16664
-0.144821
-0.126519
-0.110934
-0.0975095
-0.0858416
-0.0756073
-0.0665696
-0.0585456
-0.0513872
-0.0449776
-0.039219
-0.0340335
-0.0293514
-0.0251186
-0.0212841
-0.017807
-0.0146509
-0.0117845
-0.00918056
-0.00681542
-0.00466778
-0.00272004
-0.000955563
0.000639019
0.00207647
0.00336754
0.00452171
0.00554727
0.00645139
0.00724031
0.00791935
0.00849303
0.00896508
0.00933864
0.00961568
0.00979936
0.00988627
-0.213997
-0.182258
-0.157375
-0.136326
-0.118722
-0.10377
-0.0909081
-0.0797454
-0.0699626
-0.0613287
-0.0536676
-0.0468349
-0.0407182
-0.0352227
-0.0302744
-0.0258058
-0.021766
-0.0181056
-0.0147859
-0.0117723
-0.00903483
-0.00654768
-0.00428847
-0.00223669
-0.000375636
0.00131035
0.00283378
0.00420708
0.00544041
0.00654277
0.00752201
0.00838496
0.00913754
0.00978478
0.010331
0.0107797
0.0111338
0.0113952
0.0115671
0.0116446
-0.0422501
-0.0364315
-0.031203
-0.026494
-0.022241
-0.0183964
-0.0149117
-0.0117506
-0.00888027
-0.00627257
-0.00390287
-0.00175018
0.000205302
0.00197934
0.00358655
0.00503854
0.00634743
0.00752284
0.00857323
0.00950604
0.0103277
0.0110439
0.0116593
0.0121779
0.0126032
0.0129379
0.0131836
0.0133439
0.0134119
-0.202739
-0.171575
-0.147751
-0.127572
-0.110739
-0.0964692
-0.0842043
-0.0735714
-0.0642571
-0.0560393
-0.0487503
-0.0422501
-0.0364315
-0.031203
-0.026494
-0.022241
-0.0183964
-0.0149117
-0.0117506
-0.00888027
-0.00627256
-0.00390287
-0.00175017
0.000205313
0.00197935
0.00358657
0.00503856
0.00634744
0.00752285
0.00857324
0.00950605
0.0103277
0.0110439
0.0116593
0.0121779
0.0126032
0.0129379
0.0131837
0.0133439
0.0134119
-0.213997
-0.182258
-0.157375
-0.136326
-0.118722
-0.10377
-0.0909081
-0.0797454
-0.0699626
-0.0613287
-0.0536676
-0.0468349
-0.0407182
-0.0352227
-0.0302744
-0.0258058
-0.021766
-0.0181056
-0.0147859
-0.0117723
-0.00903483
-0.00654767
-0.00428846
-0.00223668
-0.000375622
0.00131036
0.0028338
0.00420709
0.00544042
0.00654278
0.00752202
0.00838498
0.00913755
0.0097848
0.010331
0.0107797
0.0111338
0.0113952
0.0115672
0.0116446
-0.224456
-0.19243
-0.16664
-0.144822
-0.126519
-0.110934
-0.0975095
-0.0858416
-0.0756073
-0.0665696
-0.0585456
-0.0513872
-0.0449776
-0.039219
-0.0340335
-0.0293515
-0.0251186
-0.0212841
-0.017807
-0.0146509
-0.0117845
-0.00918055
-0.00681542
-0.00466777
-0.00272003
-0.000955548
0.000639034
0.00207648
0.00336756
0.00452173
0.00554728
0.00645141
0.00724032
0.00791937
0.00849305
0.0089651
0.00933866
0.0096157
0.00979938
0.00988629
)
;

boundaryField
{
    inlet
    {
        type            zeroGradient;
    }
    outlet
    {
        type            fixedValue;
        value           nonuniform 0();
    }
    cylinder
    {
        type            zeroGradient;
    }
    top
    {
        type            symmetryPlane;
    }
    bottom
    {
        type            symmetryPlane;
    }
    defaultFaces
    {
        type            empty;
    }
    procBoundary13to12
    {
        type            processor;
        value           nonuniform List<scalar> 
134
(
-0.226081
-0.393597
-0.377493
-0.360592
-0.342991
-0.324816
-0.306207
-0.287327
-0.268359
-0.249435
-0.226081
-0.230457
-0.487653
-0.478559
-0.469015
-0.458876
-0.448007
-0.436302
-0.423685
-0.410112
-0.393597
-0.395572
-0.508681
-0.498451
-0.489271
-0.487653
-0.480956
-0.508681
-0.498451
-0.489271
-0.480956
-0.472514
-0.478559
-0.478559
-0.469015
-0.458876
-0.448007
-0.436302
-0.423685
-0.410112
-0.395572
-0.380087
-0.377493
-0.377493
-0.360592
-0.342991
-0.324816
-0.306207
-0.287327
-0.268359
-0.249435
-0.230457
-0.212244
-0.202739
-0.171575
-0.147751
-0.127572
-0.110739
-0.0964692
-0.0842043
-0.0735714
-0.0642571
-0.0560393
-0.0487503
-0.0487503
-0.0376329
-0.0321181
-0.0271602
-0.0226934
-0.0186584
-0.0150109
-0.0117034
-0.00870205
-0.0059761
-0.00349889
-0.00124727
0.000798528
0.00265796
0.00434298
0.0058713
0.00725192
0.00849631
0.00961367
0.010612
0.0114983
0.0122786
0.0129583
0.0135418
0.014033
0.0144349
0.0147502
0.0149803
0.0151289
0.0151875
-0.190686
-0.160375
-0.137761
-0.118556
-0.102567
-0.0890297
-0.0773957
-0.0673188
-0.0584894
-0.0507004
-0.0437935
-0.0376329
-0.0321181
-0.0271602
-0.0226934
-0.0186584
-0.0150109
-0.0117034
-0.00870206
-0.0059761
-0.00349889
-0.00124727
0.000798536
0.00265797
0.00434299
0.00587131
0.00725194
0.00849632
0.00961369
0.010612
0.0114983
0.0122787
0.0129583
0.0135419
0.014033
0.0144349
0.0147502
0.0149803
0.015129
0.0151876
)
;
    }
    procBoundary13to14
    {
        type            processor;
        value           nonuniform List<scalar> 
130
(
-0.516199
-0.505826
-0.495054
-0.483789
-0.471951
-0.459474
-0.446308
-0.432423
-0.41781
-0.402479
-0.386465
-0.369825
-0.352638
-0.335001
-0.31703
-0.298863
-0.280621
-0.26235
-0.571742
-0.559889
-0.549177
-0.539518
-0.529889
-0.520089
-0.520089
-0.571742
-0.559889
-0.549177
-0.539518
-0.529889
-0.520089
-0.510056
-0.499678
-0.48884
-0.477443
-0.477443
-0.471951
-0.459474
-0.446308
-0.432423
-0.41781
-0.402479
-0.386465
-0.369825
-0.352638
-0.335001
-0.317031
-0.298863
-0.280621
-0.26235
-0.234113
-0.202096
-0.175549
-0.153064
-0.134135
-0.117965
-0.104011
-0.0918613
-0.0811924
-0.0717626
-0.0633844
-0.0559066
-0.049209
-0.0431908
-0.0377708
-0.0328774
-0.0284533
-0.024446
-0.0208126
-0.017515
-0.0145204
-0.0118003
-0.00932987
-0.00708685
-0.00505265
-0.00320997
-0.00154459
-4.32529e-05
0.00130534
0.00251115
0.00358286
0.00452802
0.00535317
0.0060639
0.00666498
0.00716034
0.00755326
0.00784591
0.00804125
0.00813765
-0.234113
-0.202096
-0.175549
-0.153064
-0.134135
-0.117965
-0.104011
-0.0918613
-0.0811924
-0.0717626
-0.0633844
-0.0559067
-0.049209
-0.0431908
-0.0377708
-0.0328774
-0.0284533
-0.024446
-0.0208126
-0.017515
-0.0145204
-0.0118003
-0.00932986
-0.00708684
-0.00505264
-0.00320996
-0.00154458
-4.32384e-05
0.00130536
0.00251116
0.00358287
0.00452803
0.00535318
0.00606392
0.006665
0.00716036
0.00755328
0.00784593
0.00804128
0.00813768
)
;
    }
}


// ************************************************************************* //
