/*--------------------------------*- C++ -*----------------------------------*\
  =========                 |
  \\      /  F ield         | OpenFOAM: The Open Source CFD Toolbox
   \\    /   O peration     | Website:  https://openfoam.org
    \\  /    A nd           | Version:  7
     \\/     M anipulation  |
\*---------------------------------------------------------------------------*/
FoamFile
{
    version     2.0;
    format      ascii;
    class       surfaceScalarField;
    location    "75";
    object      phi;
}
// * * * * * * * * * * * * * * * * * * * * * * * * * * * * * * * * * * * * * //

dimensions      [0 3 -1 0 0 0 0];

internalField   nonuniform List<scalar> 
222
(
-7.60673e-06
-1.09256e-05
1.85323e-05
-6.42711e-05
8.2966e-05
-8.54359e-06
-2.382e-06
-4.32079e-05
-9.16077e-06
6.77877e-06
-2.05091e-05
-9.40964e-06
1.61884e-05
2.98869e-06
-9.26597e-06
2.54544e-05
2.63985e-05
-8.73604e-06
-3.11705e-05
4.8833e-05
2.91817e-05
-2.84822e-05
6.94639e-05
6.04406e-05
-2.47742e-05
8.75699e-05
8.82909e-05
-2.02686e-05
0.000102576
0.00011188
-1.52287e-05
0.000130574
-2.3341e-05
0.000143981
0.000136133
-1.26274e-05
0.000151947
0.000147241
-2.25978e-06
-6.48772e-06
0.000151469
0.000122899
9.81927e-06
0.000149006
0.00011926
2.47151e-05
3.6266e-05
0.000107709
5.00037e-05
5.70077e-05
2.47063e-05
0.000109943
-9.6454e-06
-0.000110175
0.000135508
-0.000166103
0.000227104
-0.000396734
0.000363222
-0.000497128
-0.00072016
0.000415886
0.00055815
-0.000862424
-0.00115165
0.000632163
0.000820877
-0.00134037
-0.00169113
0.000915078
0.00114395
-0.00192
-0.00230945
0.00124705
0.00149507
-0.00294599
0.00182297
-0.00352848
0.00207945
-0.00400539
0.00224151
0.0024093
-0.00476731
0.00240091
0.00247264
-0.00507337
0.00243369
0.0025057
0.0027888
0.0028498
0.00280058
0.00489734
0.00283772
0.00263334
0.00388544
0.00242286
0.00327139
0.00176598
0.00212114
0.002081
0.0025489
0.00132695
0.00140931
0.00164619
0.00180189
0.000909074
0.000811311
0.00119089
0.00112749
0.000565775
0.0003658
0.000785917
0.000591169
0.000317352
6.92191e-05
0.000472361
0.000210791
0.000257661
-3.08826e-05
0.000126799
-0.000165448
5.59026e-05
-0.000223809
-0.000217776
5.38039e-05
-0.000255501
2.74904e-05
-0.000249251
-0.00028671
1.50727e-05
-0.000212946
3.60966e-05
-0.000270275
2.27657e-05
-0.000227146
-0.000293545
1.35266e-05
-0.000166687
3.00626e-05
-0.000243682
1.75832e-05
-0.000177725
-0.000261937
2.01945e-05
-0.000189824
8.75644e-06
-0.000110841
-0.000202039
8.41279e-06
-0.000117205
-0.000213314
7.02248e-06
-0.0001225
-0.000222564
4.61326e-06
-0.000126006
2.10838e-07
-3.68116e-05
-0.000127074
-9.22597e-07
-3.5889e-05
-0.000125171
-2.22984e-06
-3.36591e-05
-0.000119911
-3.63989e-06
-3.00193e-05
-0.00011109
-5.06708e-06
-2.49522e-05
-9.87073e-05
-6.41985e-06
0.000356448
-0.0199463
0.00023714
-0.0199105
0.000118731
-0.0199037
-0.0198798
0.00242346
0.00230483
0.00217777
0.00204968
0.00191777
0.00178569
0.00165373
0.00152343
0.0013962
0.00127106
0.00114775
0.00102637
0.00090731
0.000790285
0.000674449
0.000560478
0.000446902
0.000334548
0.000222531
0.000111444
0.00244102
0.0248123
0.0237657
0.00259634
0.00236796
0.00217392
0.00200004
0.00184447
0.00170044
0.00156574
0.00143833
0.00131591
0.00119696
0.00108172
0.000968051
0.000857212
0.00074697
0.000638807
0.000530681
0.00042383
0.000317344
0.000211514
0.000105766
)
;

boundaryField
{
    inlet
    {
        type            calculated;
        value           nonuniform 0();
    }
    outlet
    {
        type            calculated;
        value           nonuniform 0();
    }
    cylinder
    {
        type            calculated;
        value           uniform 0;
    }
    top
    {
        type            symmetryPlane;
        value           uniform 0;
    }
    bottom
    {
        type            symmetryPlane;
        value           uniform 0;
    }
    defaultFaces
    {
        type            empty;
        value           nonuniform 0();
    }
    procBoundary25to24
    {
        type            processor;
        value           nonuniform List<scalar> 
134
(
3.41904e-05
7.85123e-06
6.66823e-06
5.2627e-06
3.72249e-06
0.000114082
9.93441e-06
4.66137e-06
-3.43912e-07
0.000154551
-7.3568e-06
-1.59238e-05
0.000140215
-3.79115e-05
8.86132e-05
-7.5591e-05
-9.22301e-05
-5.29234e-05
-0.000159674
-0.000233533
-0.000262828
-0.000299894
-0.00061312
-0.000471633
-0.00102295
-0.000709142
-0.0015463
-0.00100816
-0.00215888
-0.00255746
-0.00158623
-0.00318274
-0.00188015
-0.00372778
-0.00209012
-0.00415678
-0.00436551
-0.00231596
-0.00463198
-0.00232684
-0.00484138
-0.00496008
-0.00236519
-0.00514187
-0.0052625
-0.00537095
-0.00553414
-0.00268465
-0.00498225
-0.00272496
-0.00514699
-0.00271567
-0.00471011
-0.00408941
-0.00271953
-0.00435863
-0.00242937
-0.00354113
-0.00243606
-0.00215311
-0.00286391
-0.00145106
-0.00170376
-0.0010325
-0.00105298
-0.000667403
-0.000542888
-0.000388686
-0.000186755
-0.000199817
-0.00015756
0.000105183
-6.65334e-05
0.000189493
-2.15863e-05
-2.21117e-05
0.000229996
-8.23595e-06
0.00020124
-3.36665e-06
-8.56564e-06
0.000157454
-4.29379e-06
-6.54485e-06
-8.09553e-06
0.00010415
-2.06471e-06
-2.04899e-06
-1.7279e-06
-1.10689e-06
3.66007e-05
-0.0231953
-0.0223504
-0.0218803
-0.0215054
-0.0212332
-0.0210301
-0.0208453
-0.0206781
-0.0205484
-0.0204338
-0.020322
-0.0202161
-0.0201203
-0.0200523
-0.0199732
-0.0199317
-0.0198664
-0.019834
-0.0197985
-0.0197926
-0.0197684
-0.0245687
-0.0235469
0.00222222
-0.0230143
-0.0223893
-0.0219175
-0.0215092
-0.0211816
-0.0209091
-0.0206938
-0.0204865
-0.0203484
-0.0201926
-0.0201051
-0.0199898
-0.0199361
-0.0198529
-0.0198112
-0.0197679
-0.0197501
-0.0197275
-0.0197099
)
;
    }
    procBoundary25to26
    {
        type            processor;
        value           nonuniform List<scalar> 
139
(
-2.63016e-05
-2.96068e-05
-3.18596e-05
-3.29074e-05
-3.26758e-05
4.44998e-06
-6.48022e-05
-5.97411e-05
-5.26245e-05
-4.38576e-05
-3.39232e-05
-0.000118179
-4.12955e-05
-2.37347e-05
-0.00011837
-1.10172e-05
1.3458e-05
-6.60287e-05
5.2291e-05
8.2305e-05
6.54585e-05
0.00015466
0.000191436
0.000311237
0.0003126
0.000596101
0.000487281
0.000982053
0.000727748
0.00147691
0.00103509
0.00206529
0.0013881
0.00269958
0.00174148
0.00330963
0.00204182
0.00383207
0.00225277
0.00423813
0.0023689
0.00453863
0.00468405
0.00249257
0.00488834
0.00499985
0.00254615
0.00519049
0.00530712
0.00547314
0.00287636
0.0050712
0.00459192
0.00293749
0.00479756
0.00280478
0.0041872
0.00266193
0.00364637
0.00238193
0.00297046
0.00197694
0.00221815
0.00150611
0.00148668
0.00104923
0.000864177
0.000668874
0.000394656
0.00039156
7.68928e-05
0.000212147
-0.000116231
0.000108231
0.000101274
-0.000265246
5.86989e-05
6.82955e-05
-0.000318909
4.60358e-05
5.54003e-05
-0.000318882
3.58388e-05
3.91895e-05
-0.000280932
2.09719e-05
1.96877e-05
1.62725e-05
1.08072e-05
-0.000228758
1.27898e-06
-2.82573e-06
-7.49034e-06
-1.24602e-05
-1.745e-05
-2.21612e-05
0.020066
0.0200298
0.0200221
0.0199985
0.0232776
0.022469
0.0220073
0.0216335
0.0213651
0.0211622
0.0209772
0.0208084
0.0206757
0.0205589
0.0204453
0.0203375
0.0202394
0.0201693
0.020089
0.0200456
-0.000476128
0.01998
0.0250658
0.0239941
0.0232083
0.0225632
0.022073
0.0216532
0.0213163
0.0210365
0.0208162
0.0206054
0.0204637
0.0203063
0.0202159
0.0201001
0.0200443
0.019961
0.019918
0.0198743
0.0198559
0.0198333
0.0198156
)
;
    }
}


// ************************************************************************* //
