/*--------------------------------*- C++ -*----------------------------------*\
  =========                 |
  \\      /  F ield         | OpenFOAM: The Open Source CFD Toolbox
   \\    /   O peration     | Website:  https://openfoam.org
    \\  /    A nd           | Version:  7
     \\/     M anipulation  |
\*---------------------------------------------------------------------------*/
FoamFile
{
    version     2.0;
    format      ascii;
    class       volVectorField;
    location    "70";
    object      U;
}
// * * * * * * * * * * * * * * * * * * * * * * * * * * * * * * * * * * * * * //

dimensions      [0 1 -1 0 0 0 0];

internalField   nonuniform List<vector> 
183
(
(1.01779 0.4756 -1.41541e-22)
(1.02906 0.385766 -9.51798e-23)
(1.01588 0.474775 3.90015e-22)
(1.03128 0.38407 -4.32046e-22)
(1.01357 0.473595 -2.07788e-22)
(1.03292 0.382319 -1.10219e-22)
(1.01084 0.472071 -1.28463e-21)
(1.03397 0.380521 1.20419e-22)
(1.00768 0.470217 -2.4307e-22)
(1.03444 0.378686 3.30324e-22)
(1.00408 0.468044 1.35848e-21)
(1.03432 0.376819 -9.23539e-22)
(1.00005 0.465565 4.77137e-22)
(1.03363 0.374923 4.86563e-23)
(1.0621 0.0968922 1.72679e-21)
(0.995575 0.462792 -2.63293e-21)
(1.03239 0.372999 1.98271e-21)
(1.06212 0.0972406 1.19312e-21)
(0.99067 0.459737 1.56311e-21)
(1.03061 0.371047 1.37775e-22)
(1.06168 0.0976567 -2.47204e-21)
(0.98534 0.456409 -7.72723e-22)
(1.0283 0.369065 -1.42594e-21)
(1.06083 0.0981236 2.32864e-21)
(0.979599 0.452821 1.17359e-21)
(1.0255 0.367049 -2.79932e-22)
(1.05959 0.0986231 7.11181e-22)
(0.973462 0.448982 -1.55504e-21)
(1.02222 0.364995 7.02118e-22)
(1.058 0.0991371 8.87699e-23)
(0.966949 0.444902 -2.2692e-22)
(1.0185 0.362898 -1.60532e-22)
(1.05607 0.0996466 -3.0471e-21)
(1.01435 0.36075 1.45279e-21)
(1.05385 0.100133 -6.11599e-23)
(1.00981 0.358545 -7.30391e-22)
(1.05137 0.100579 1.06786e-21)
(1.00491 0.356277 2.15518e-22)
(1.04867 0.100966 1.14558e-21)
(0.999681 0.353936 -2.33803e-21)
(1.04579 0.101273 5.60677e-22)
(0.994157 0.351512 1.10869e-21)
(1.04277 0.101474 -8.53518e-22)
(0.988381 0.349004 -6.85742e-22)
(1.03969 0.101588 -9.88989e-22)
(0.982417 0.346463 3.99243e-22)
(1.03664 0.101757 3.32108e-22)
(0.976455 0.343867 -1.14015e-21)
(1.03377 0.101744 -9.2384e-22)
(0.961866 0.330473 0)
(1.02639 0.0949978 0)
(0.937978 0.284702 0)
(1.01828 0.064293 0)
(0.924978 0.234567 0)
(1.0133 0.0354335 0)
(0.927602 0.181927 0)
(1.01715 0.000965698 0)
(0.953036 0.126453 0)
(1.0325 -0.0302104 0)
(1.00002 0.0769124 0)
(1.05682 -0.0545902 0)
(1.05432 0.0387934 0)
(1.08303 -0.0670996 0)
(1.09795 0.0149968 0)
(1.10235 -0.0676864 0)
(1.12032 0.00293352 0)
(1.11069 -0.0597031 0)
(1.12329 -0.00194264 0)
(1.10887 -0.0482098 0)
(1.11537 -0.00372721 0)
(1.10088 -0.0371534 0)
(1.10407 -0.00424112 0)
(1.09053 -0.028159 0)
(1.09318 -0.00414826 0)
(1.08042 -0.0213868 0)
(1.08392 -0.00364432 0)
(1.0719 -0.0163482 0)
(1.07639 -0.00292742 0)
(1.06531 -0.0125226 0)
(1.07041 -0.00218104 0)
(1.06044 -0.00952568 0)
(1.06577 -0.00152671 0)
(1.05691 -0.00711363 0)
(1.06231 -0.00101044 0)
(1.05438 -0.00512693 0)
(1.05985 -0.000624799 0)
(1.05263 -0.00345028 0)
(1.05829 -0.00033189 0)
(1.05151 -0.00199129 0)
(1.05753 -0.000101605 0)
(1.05097 -0.000652441 0)
(0.899065 0.367923 0)
(0.868624 0.31314 0)
(0.842695 0.275844 0)
(0.822912 0.223105 0)
(0.813589 0.172539 0)
(0.820407 0.117126 0)
(0.845402 0.0649916 0)
(0.883723 0.0195784 0)
(0.924357 -0.0124262 0)
(0.957927 -0.0293414 0)
(0.981896 -0.0342373 0)
(0.998268 -0.0316581 0)
(1.0098 -0.0262352 0)
(1.01834 -0.0206865 0)
(1.02487 -0.0159502 0)
(1.02988 -0.012138 0)
(1.03368 -0.00908555 0)
(1.03645 -0.0065886 0)
(1.03837 -0.00447179 0)
(1.03956 -0.00259394 0)
(1.04012 -0.000849466 0)
(0.85519 0.127473 0)
(0.816033 0.0957481 0)
(0.7835 0.0804122 0)
(0.754922 0.0543083 0)
(0.736097 0.029335 0)
(0.735924 -0.00103963 0)
(0.763125 -0.0301495 0)
(0.816351 -0.0553018 0)
(0.883124 -0.071892 0)
(0.946193 -0.0775074 0)
(0.993319 -0.0733346 0)
(1.0222 -0.063327 0)
(1.03722 -0.0518602 0)
(1.04417 -0.0412988 0)
(1.04718 -0.0322913 0)
(1.04843 -0.0248137 0)
(1.0489 -0.0186355 0)
(1.04903 -0.0134881 0)
(1.04902 -0.00911103 0)
(1.04896 -0.00526401 0)
(1.04891 -0.00172213 0)
(0.913219 0.37911 2.76514e-21)
(0.880188 0.127078 2.27758e-21)
(0.918152 0.382674 -9.74041e-22)
(0.88881 0.126051 2.16882e-21)
(0.923345 0.385516 1.91945e-21)
(0.897829 0.12447 1.14222e-21)
(0.928804 0.387728 5.73985e-22)
(0.907248 0.1228 -6.20744e-22)
(0.934549 0.389665 -2.98896e-21)
(0.91699 0.121106 1.35769e-21)
(0.940576 0.391402 7.02243e-21)
(0.92695 0.119346 -4.58064e-21)
(0.946854 0.392885 1.93172e-22)
(0.937028 0.117524 -3.13576e-21)
(1.01432 0.445873 2.1837e-21)
(0.953333 0.39408 -3.78968e-21)
(0.947127 0.115666 3.53385e-21)
(1.01585 0.450538 -2.12743e-21)
(0.959953 0.394984 -1.93081e-21)
(0.957154 0.1138 -2.71492e-21)
(1.01723 0.45484 3.22908e-21)
(0.966646 0.395602 -2.70196e-22)
(0.967021 0.111949 5.74746e-21)
(1.01845 0.458768 4.74661e-22)
(0.973342 0.395944 2.48399e-21)
(0.976649 0.110132 -1.88154e-22)
(1.01951 0.462313 -2.0399e-21)
(0.979968 0.396016 -1.91112e-21)
(0.985962 0.108369 1.15616e-21)
(1.0204 0.465464 1.41846e-21)
(0.986456 0.395833 1.83706e-22)
(0.994893 0.106681 -2.47683e-21)
(1.02111 0.468213 1.68267e-22)
(0.992738 0.395409 -1.86563e-21)
(1.00339 0.105086 2.49879e-21)
(1.02163 0.470554 -1.26073e-22)
(0.998752 0.394764 2.40573e-21)
(1.01139 0.103598 -5.14173e-21)
(1.02193 0.472485 2.08621e-21)
(1.00444 0.393918 -1.53553e-21)
(1.02199 0.474005 -9.21277e-22)
(1.00974 0.392891 1.01005e-21)
(1.02179 0.475117 6.65339e-22)
(1.01462 0.391705 -5.33209e-23)
(1.02129 0.475824 -5.81983e-22)
(1.01902 0.39038 -8.10982e-22)
(1.02048 0.476135 2.59648e-22)
(1.02291 0.388936 1.64684e-22)
(1.01932 0.476057 -1.72179e-22)
(1.02626 0.387393 -8.83471e-23)
)
;

boundaryField
{
    inlet
    {
        type            uniformFixedValue;
        uniformValue    constant (1 0 0);
        value           nonuniform 0();
    }
    outlet
    {
        type            pressureInletOutletVelocity;
        value           nonuniform 0();
    }
    cylinder
    {
        type            fixedValue;
        value           nonuniform 0();
    }
    top
    {
        type            symmetryPlane;
    }
    bottom
    {
        type            symmetryPlane;
    }
    defaultFaces
    {
        type            empty;
    }
    procBoundary43to42
    {
        type            processor;
        value           nonuniform List<vector> 
86
(
(1.01891 0.444509 2.17295e-22)
(1.01347 0.445721 -3.57979e-22)
(1.00757 0.446485 -1.11733e-21)
(1.00123 0.446791 1.21014e-21)
(0.994459 0.44663 -2.3952e-21)
(0.987256 0.445995 1.99453e-21)
(0.979639 0.444882 5.90625e-23)
(0.971625 0.443288 -3.73026e-22)
(0.963234 0.441213 -2.09685e-21)
(0.954489 0.438662 -5.7141e-22)
(0.945419 0.43564 2.0965e-22)
(0.936053 0.432155 -2.12347e-21)
(0.926426 0.428219 -3.19791e-21)
(0.960082 0.440592 1.65804e-22)
(0.960082 0.440592 1.65804e-22)
(0.952885 0.436061 6.36666e-21)
(0.945385 0.431319 -5.62987e-21)
(0.937611 0.426377 -1.11996e-22)
(0.92959 0.421244 -2.73167e-22)
(0.92135 0.415938 -3.01192e-21)
(0.912916 0.410477 4.14989e-23)
(0.904326 0.404632 -9.02277e-22)
(0.883058 0.38849 0)
(0.845427 0.354763 0)
(0.814549 0.311941 0)
(0.800459 0.26586 0)
(0.817611 0.211961 0)
(0.872376 0.156176 0)
(0.949672 0.105995 0)
(1.02229 0.0674234 0)
(1.06959 0.0419809 0)
(1.08904 0.0274021 0)
(1.09057 0.0193936 0)
(1.08491 0.0146163 0)
(1.07799 0.0112912 0)
(1.07183 0.00869872 0)
(1.06673 0.00660275 0)
(1.06258 0.00491791 0)
(1.05923 0.00358502 0)
(1.05661 0.00253235 0)
(1.05469 0.00168132 0)
(1.05342 0.000960431 0)
(1.0528 0.000312062 0)
(0.995646 0.387698 0)
(0.9704 0.350818 0)
(0.957407 0.310178 0)
(0.947787 0.260754 0)
(0.947653 0.209607 0)
(0.956207 0.157763 0)
(0.970126 0.110877 0)
(0.984267 0.0729295 0)
(0.994103 0.0464497 0)
(0.999926 0.0304233 0)
(1.00514 0.0210165 0)
(1.01172 0.0151077 0)
(1.01915 0.0108877 0)
(1.02603 0.00761001 0)
(1.03145 0.00505914 0)
(1.0353 0.00314493 0)
(1.03786 0.00179481 0)
(1.0395 0.000916502 0)
(1.0405 0.000402162 0)
(1.04105 0.000144417 0)
(1.04128 3.33548e-05 0)
(1.00116 0.404255 1.81383e-21)
(1.00305 0.410848 4.74079e-22)
(1.00501 0.417728 1.79251e-21)
(1.00699 0.424078 -1.61673e-21)
(1.00895 0.429961 4.71503e-21)
(1.01084 0.435546 -1.07842e-21)
(1.01264 0.440864 4.61272e-22)
(1.01264 0.440864 4.61272e-22)
(1.05263 0.389444 1.95493e-21)
(1.05219 0.395225 -2.63191e-21)
(1.05159 0.400782 1.64838e-21)
(1.05078 0.406104 5.15169e-21)
(1.04972 0.411176 -1.95787e-21)
(1.04837 0.415984 -1.44448e-21)
(1.0467 0.420511 -7.50336e-22)
(1.04467 0.424741 2.56739e-21)
(1.04226 0.428656 3.30215e-21)
(1.03944 0.432237 -2.21907e-21)
(1.03621 0.435466 1.52226e-21)
(1.03255 0.438325 -7.64273e-22)
(1.02845 0.440796 5.5565e-22)
(1.02391 0.442863 1.33272e-22)
)
;
    }
    procBoundary43to44
    {
        type            processor;
        value           nonuniform List<vector> 
86
(
(1.05116 0.0970271 -2.5391e-22)
(1.0544 0.0966818 -1.06179e-22)
(1.05704 0.0964781 -7.69883e-23)
(1.05911 0.096408 -7.22336e-22)
(1.06063 0.0964618 2.19206e-22)
(1.06162 0.0966276 2.38412e-21)
(1.06162 0.0966276 2.38412e-21)
(1.06343 -0.069448 2.21679e-21)
(1.06526 -0.0682765 5.11867e-22)
(1.06676 -0.0669926 -9.8187e-22)
(1.06796 -0.0656062 -1.67359e-22)
(1.06887 -0.064128 1.01226e-21)
(1.06955 -0.0625687 -2.16392e-21)
(1.07001 -0.0609393 3.00182e-22)
(1.07029 -0.059251 -5.04451e-22)
(1.07042 -0.0575154 8.24108e-22)
(1.07041 -0.0557454 1.1576e-22)
(1.0703 -0.0539558 1.11312e-21)
(1.07011 -0.0521529 -1.49819e-21)
(1.06987 -0.050301 -1.11618e-21)
(1.0696 -0.0483536 6.55391e-22)
(1.06934 -0.0466408 -1.83722e-21)
(1.06856 -0.0454472 0)
(1.06914 -0.0669103 0)
(1.06769 -0.0749272 0)
(1.06819 -0.0911277 0)
(1.0714 -0.10056 0)
(1.07427 -0.108136 0)
(1.07596 -0.107545 0)
(1.0745 -0.101031 0)
(1.07167 -0.0893107 0)
(1.0693 -0.0751296 0)
(1.06823 -0.0605359 0)
(1.06765 -0.0471437 0)
(1.06663 -0.0357758 0)
(1.06482 -0.0266212 0)
(1.06246 -0.0194984 0)
(1.05998 -0.0140547 0)
(1.05772 -0.00992622 0)
(1.05588 -0.00679068 0)
(1.05451 -0.00437265 0)
(1.05362 -0.00243348 0)
(1.05319 -0.000777879 0)
(0.820535 -0.0301332 0)
(0.778542 -0.0400682 0)
(0.747124 -0.0435209 0)
(0.719319 -0.0515109 0)
(0.70193 -0.0596141 0)
(0.706042 -0.0680194 0)
(0.743256 -0.0737399 0)
(0.811533 -0.0761387 0)
(0.894315 -0.0740843 0)
(0.969353 -0.0674223 0)
(1.02124 -0.0574756 0)
(1.04844 -0.0465598 0)
(1.05869 -0.0367207 0)
(1.06064 -0.0286475 0)
(1.05967 -0.0222318 0)
(1.05811 -0.0171468 0)
(1.05669 -0.0130335 0)
(1.05557 -0.00958772 0)
(1.05475 -0.00658109 0)
(1.0542 -0.00384632 0)
(1.05392 -0.00126461 0)
(0.849436 -0.0333632 6.48211e-21)
(0.859608 -0.0369149 -5.44422e-22)
(0.870262 -0.0406418 2.87519e-21)
(0.881237 -0.0440438 3.78286e-21)
(0.892391 -0.0472929 2.58729e-21)
(0.903619 -0.0504258 -5.90271e-21)
(0.914836 -0.0534101 2.18356e-21)
(0.925969 -0.0562226 -4.29729e-21)
(0.936947 -0.0588484 -5.33393e-22)
(0.947705 -0.0612758 -1.29624e-21)
(0.958185 -0.0634952 4.24287e-21)
(0.968329 -0.0654993 1.79569e-21)
(0.97809 -0.0672831 1.89088e-23)
(0.987422 -0.0688439 -1.49523e-21)
(0.996287 -0.0701811 1.31e-21)
(1.01886 0.102232 -3.0649e-21)
(1.01886 0.102232 -3.0649e-21)
(1.02576 0.100998 1.23611e-21)
(1.03207 0.0999046 5.70806e-22)
(1.03777 0.0989582 -4.12735e-22)
(1.04286 0.0981628 4.24523e-22)
(1.04732 0.0975196 -1.35917e-22)
)
;
    }
}


// ************************************************************************* //
